/*--------------------------------*- C++ -*----------------------------------*\
| =========                 |                                                 |
| \\      /  F ield         | OpenFOAM: The Open Source CFD Toolbox           |
|  \\    /   O peration     | Version:  v2012                                 |
|   \\  /    A nd           | Website:  www.openfoam.com                      |
|    \\/     M anipulation  |                                                 |
\*---------------------------------------------------------------------------*/
FoamFile
{
    version     2.0;
    format      ascii;
    class       volScalarField;
    location    "1500";
    object      p;
}
// * * * * * * * * * * * * * * * * * * * * * * * * * * * * * * * * * * * * * //

dimensions      [0 2 -2 0 0 0 0];


internalField   nonuniform List<scalar> 
12225
(
514.679
55.5312
2.36711
0.285426
-1.8946
-3.3703
-3.81167
-4.01457
-4.22358
-4.37571
-4.41972
-4.42092
-4.42004
-4.44776
-4.49622
-4.56713
-4.72453
-4.94207
-122.176
0.241891
-2.71517
-0.761426
-2.21235
-3.52089
-3.94745
-4.13365
-4.27188
-4.36261
-4.43376
-4.49404
-4.55032
-4.58979
-4.62275
-4.65744
-4.73463
-4.86023
-200.643
-16.1455
-2.34327
-0.354735
-1.89679
-3.24063
-3.76596
-4.02038
-4.192
-4.30766
-4.4011
-4.47076
-4.52211
-4.55126
-4.57423
-4.59488
-4.63342
-4.63089
-110.614
-10.9713
-2.17408
-0.428562
-1.78385
-3.02458
-3.59552
-3.90715
-4.12007
-4.26463
-4.3683
-4.43884
-4.48701
-4.51657
-4.53764
-4.54845
-4.55078
-4.48577
-61.5702
-8.14313
-3.61963
-1.20669
-2.01151
-2.99421
-3.5243
-3.84831
-4.07565
-4.23149
-4.34001
-4.41393
-4.46429
-4.49565
-4.51302
-4.51245
-4.48768
-4.39796
-45.7283
-8.78266
-5.25595
-2.19719
-2.42645
-3.09725
-3.5326
-3.83324
-4.05338
-4.20876
-4.31878
-4.39532
-4.44725
-4.47836
-4.49119
-4.48165
-4.44186
-4.34658
-35.7922
-9.27398
-6.37784
-3.1218
-2.9187
-3.28656
-3.60079
-3.85471
-4.05345
-4.20025
-4.30738
-4.38341
-4.43489
-4.46479
-4.47444
-4.46036
-4.41604
-4.32765
-27.7758
-8.90487
-6.97147
-3.8003
-3.35911
-3.49588
-3.69845
-3.90037
-4.07234
-4.20614
-4.30706
-4.38026
-4.43027
-4.45931
-4.46809
-4.45396
-4.41239
-4.33627
-21.6879
-8.51793
-7.13234
-4.30842
-3.72677
-3.70401
-3.81492
-3.96516
-4.10743
-4.22503
-4.3172
-4.38587
-4.43361
-4.46181
-4.47081
-4.45883
-4.42321
-4.36091
-16.6106
-8.13873
-7.08617
-4.75357
-4.08144
-3.93286
-3.95838
-4.05325
-4.16108
-4.25839
-4.33884
-4.40111
-4.44573
-4.47318
-4.48353
-4.47591
-4.44937
-4.40378
-12.637
-7.67903
-6.90435
-5.1001
-4.40538
-4.16923
-4.12143
-4.16204
-4.23333
-4.3076
-4.37403
-4.42839
-4.46929
-4.49634
-4.5094
-4.50835
-4.49354
-4.46644
-9.69722
-7.14704
-6.62758
-5.32511
-4.67748
-4.3963
-4.29415
-4.28722
-4.32321
-4.37361
-4.42481
-4.47037
-4.50739
-4.53463
-4.55179
-4.55917
-4.55779
-4.5498
-7.66436
-6.60307
-6.30445
-5.43022
-4.88209
-4.59659
-4.46342
-4.42085
-4.42674
-4.45509
-4.4916
-4.52864
-4.56222
-4.59054
-4.61301
-4.63001
-4.64268
-4.65303
-6.36932
-6.11145
-5.98423
-5.43902
-5.0148
-4.7569
-4.61581
-4.55258
-4.53702
-4.54803
-4.57249
-4.60264
-4.63411
-4.66461
-4.69333
-4.72037
-4.74664
-4.77355
-5.62108
-5.72081
-5.70755
-5.38953
-5.08479
-4.8721
-4.74115
-4.6719
-4.64521
-4.64571
-4.66262
-4.68892
-4.72032
-4.75438
-4.78995
-4.82682
-4.86535
-4.90635
-5.24174
-5.45859
-5.5066
-5.32617
-5.11379
-4.9469
-4.83481
-4.77003
-4.74154
-4.73886
-4.75368
-4.78007
-4.81405
-4.85319
-4.89607
-4.94211
-4.99117
-5.04346
-5.10043
-5.3426
-5.41536
-5.29745
-5.13354
-4.99454
-4.89702
-4.83923
-4.81423
-4.81412
-4.83202
-4.86264
-4.90221
-4.94821
-4.999
-5.05365
-5.11162
-5.17273
-5.13799
-5.39826
-5.47242
-5.34638
-5.17264
-5.02703
-4.92683
-4.86972
-4.84783
-4.85271
-4.87688
-4.91468
-4.96197
-5.01597
-5.07474
-5.13712
-5.20232
-5.26995
-5.39004
-5.65246
-5.68825
-5.47321
-5.22413
-5.03387
-4.91289
-4.84989
-4.83091
-4.84317
-4.87678
-4.92452
-4.98154
-5.04459
-5.1116
-5.1812
-5.25265
-5.32547
-5.9991
-6.13401
-6.03987
-5.6325
-5.24469
-4.98515
-4.83885
-4.77407
-4.76466
-4.79105
-4.83954
-4.90124
-4.97057
-5.04416
-5.11997
-5.19682
-5.27406
-5.35149
-7.24644
-6.88637
-6.49113
-5.759
-5.18051
-4.85076
-4.69448
-4.64465
-4.65877
-4.70941
-4.77959
-4.8594
-4.94339
-5.02855
-5.11344
-5.1973
-5.27991
-5.36136
-9.63768
-7.96118
-6.97928
-5.76877
-4.97683
-4.60994
-4.48027
-4.47241
-4.52769
-4.61326
-4.71102
-4.81188
-4.9115
-5.00825
-5.1016
-5.19172
-5.27884
-5.36351
-13.9787
-9.38746
-7.39962
-5.56622
-4.59191
-4.26202
-4.21348
-4.27874
-4.39139
-4.5194
-4.6476
-4.76981
-4.88416
-4.99092
-5.09117
-5.18603
-5.27645
-5.3632
-20.8862
-10.9503
-7.55046
-5.05374
-4.0129
-3.83361
-3.92856
-4.09329
-4.27229
-4.4438
-4.60053
-4.74131
-4.86761
-4.98165
-5.08625
-5.18379
-5.27588
-5.36348
-29.7327
-11.9456
-7.02966
-4.12249
-3.26095
-3.37571
-3.66959
-3.94619
-4.18926
-4.3983
-4.577
-4.73089
-4.86437
-4.98227
-5.08851
-5.18673
-5.27895
-5.366
-43.1027
-12.6101
-5.46885
-2.72521
-2.41003
-2.96102
-3.4828
-3.86134
-4.15308
-4.38706
-4.57893
-4.73836
-4.87326
-4.99065
-5.09629
-5.19397
-5.28569
-5.37137
-84.5956
-17.3696
-3.6601
-1.26161
-1.69266
-2.71925
-3.4345
-3.86821
-4.17108
-4.40687
-4.60272
-4.7643
-4.89566
-5.00624
-5.10595
-5.20185
-5.29406
-5.37785
-177.882
-26.8457
-3.67616
-0.766352
-1.53166
-2.84032
-3.61235
-4.01244
-4.264
-4.45797
-4.64099
-4.80786
-4.94315
-5.04682
-5.13161
-5.21778
-5.30933
-5.38987
-154.787
-9.62343
-3.26842
-1.06444
-1.83964
-3.21804
-3.91171
-4.22144
-4.41019
-4.5478
-4.68804
-4.84138
-4.99052
-5.11287
-5.20088
-5.2784
-5.36679
-5.4519
428.061
66.6093
7.05989
1.60323
-0.912168
-2.85407
-3.64995
-3.99204
-4.31017
-4.58332
-4.7133
-4.75279
-4.79855
-4.89121
-5.0169
-5.12836
-5.20666
-5.29266
-8.50538
-8.49257
-8.48253
-8.52447
-8.61737
-8.72031
-8.79921
-8.83811
-8.84085
-8.82271
-8.79516
-8.7667
-8.74533
-8.73689
-8.74206
-8.75447
-8.76527
-8.77012
-8.77158
-8.77625
-8.78745
-8.82072
-8.9114
-9.08545
-9.34043
-9.6597
-10.032
-10.4464
-10.8875
-11.339
-11.7861
-12.2169
-12.6222
-12.9956
-13.3328
-13.6314
-13.8904
-14.1099
-14.2905
-14.4334
-14.5396
-14.6106
-14.6478
-14.6525
-14.6259
-14.5695
-14.4849
-14.3743
-14.2391
-14.0768
-13.8851
-13.6651
-13.4196
-13.1504
-12.8586
-12.5454
-12.2117
-11.8587
-11.4873
-11.0985
-10.6935
-10.2733
-9.83915
-9.39216
-8.9335
-8.46436
-7.98594
-7.49944
-7.00607
-6.50699
-6.00337
-5.49636
-4.98706
-4.47656
-3.9659
-3.45608
-2.94806
-2.44275
-1.941
-1.44363
-0.951402
-0.465004
0.01491
0.487749
0.952978
1.41012
1.85874
2.29847
2.72901
3.15008
3.5615
3.96308
4.35464
4.73617
5.10792
5.46987
5.82156
6.16261
6.49301
6.813
7.12281
7.42265
7.7127
7.99316
8.26419
8.52601
8.77882
9.02284
9.2583
9.48539
9.70434
9.9154
10.1188
10.3148
10.5037
10.6856
10.8609
11.0297
11.1923
11.349
11.4998
11.6452
11.7852
11.9202
12.0502
12.1755
12.2963
12.4128
12.5252
12.6335
12.738
12.8391
12.9369
13.0315
13.1229
13.2111
13.2963
13.3787
13.4584
13.5355
13.6101
13.6823
13.7523
13.8201
13.8858
13.9495
14.0112
14.0711
14.1292
14.1855
14.2402
14.2932
14.3446
14.3945
14.4429
14.4899
14.5353
14.5794
14.6221
14.6635
14.7035
14.7421
14.7795
14.8155
14.8503
14.8839
14.9162
14.9474
14.9775
15.0066
15.0348
15.0625
15.0899
15.1175
15.1462
15.177
15.2124
15.254
15.3119
15.3724
-8.56332
-8.59462
-8.66868
-8.76213
-8.86507
-8.95647
-9.01678
-9.04022
-9.02217
-8.96078
-8.87061
-8.77406
-8.69334
-8.64317
-8.62185
-8.61908
-8.62918
-8.65576
-8.69445
-8.71603
-8.7386
-8.81869
-8.98427
-9.22792
-9.53763
-9.91084
-10.3378
-10.7982
-11.2707
-11.7375
-12.1864
-12.6082
-12.9964
-13.3475
-13.6596
-13.9325
-14.1667
-14.3631
-14.5229
-14.6473
-14.7374
-14.7944
-14.8192
-14.8127
-14.7757
-14.7088
-14.6125
-14.4868
-14.3323
-14.152
-13.9497
-13.7255
-13.4786
-13.2091
-12.9177
-12.6051
-12.2722
-11.9199
-11.5493
-11.1612
-10.7569
-10.3374
-9.90385
-9.45738
-8.99916
-8.53039
-8.05225
-7.56595
-7.07269
-6.57365
-6.06998
-5.56284
-5.05333
-4.54253
-4.0315
-3.52123
-3.01269
-2.50678
-2.00438
-1.50628
-1.01326
-0.526012
-0.045189
0.428611
0.894846
1.35302
1.8027
2.24348
2.67502
3.09701
3.5092
3.91134
4.30321
4.6847
5.05591
5.41705
5.7683
6.10969
6.44108
6.76236
7.07356
7.37482
7.66629
7.94813
8.22054
8.4837
8.73783
8.98313
9.21984
9.44819
9.66842
9.88073
10.0854
10.2826
10.4726
10.6557
10.8321
11.002
11.1657
11.3234
11.4753
11.6216
11.7627
11.8986
12.0297
12.1561
12.278
12.3955
12.5089
12.6184
12.724
12.8258
12.9237
13.0184
13.1099
13.1983
13.2838
13.3664
13.4464
13.5238
13.5987
13.6712
13.7415
13.8096
13.8756
13.9396
14.0016
14.0618
14.1201
14.1768
14.2317
14.285
14.3366
14.3868
14.4354
14.4826
14.5283
14.5726
14.6154
14.657
14.6971
14.736
14.7735
14.8097
14.8447
14.8783
14.9108
14.9421
14.9723
15.0016
15.03
15.0577
15.0853
15.113
15.1417
15.1724
15.2071
15.2467
15.3004
15.3503
-8.69056
-8.77213
-8.88973
-8.99498
-9.07715
-9.1302
-9.15005
-9.13543
-9.08505
-9.00131
-8.89348
-8.77842
-8.67977
-8.6167
-8.58908
-8.58519
-8.60567
-8.66517
-8.77299
-8.92295
-9.11379
-9.35571
-9.65182
-9.99252
-10.3657
-10.7621
-11.1717
-11.5826
-11.9845
-12.3702
-12.7352
-13.0756
-13.3889
-13.6735
-13.9283
-14.1528
-14.3468
-14.5105
-14.644
-14.7477
-14.8219
-14.8671
-14.8836
-14.8719
-14.8323
-14.7655
-14.6716
-14.5507
-14.4028
-14.2288
-14.0302
-13.808
-13.5627
-13.2949
-13.0052
-12.6944
-12.3634
-12.0129
-11.6441
-11.2577
-10.855
-10.4369
-10.0047
-9.55937
-9.10219
-8.6343
-8.15692
-7.67122
-7.17842
-6.67968
-6.17619
-5.66907
-5.15946
-4.64844
-4.13705
-3.62632
-3.11719
-2.6106
-2.10741
-1.60843
-1.11444
-0.626149
-0.144207
0.33078
0.798265
1.25775
1.7088
2.15103
2.58409
3.00769
3.42161
3.82564
4.21962
4.60348
4.97719
5.34075
5.6942
6.03754
6.37075
6.69383
7.00684
7.30991
7.60318
7.88681
8.16098
8.42589
8.68174
8.92874
9.16712
9.3971
9.61891
9.83277
10.0389
10.2376
10.4291
10.6136
10.7914
10.9626
11.1276
11.2866
11.4398
11.5873
11.7295
11.8665
11.9985
12.1257
12.2484
12.3667
12.4808
12.5909
12.6971
12.7995
12.8985
12.9942
13.0867
13.1761
13.2625
13.346
13.4268
13.505
13.5806
13.6539
13.7248
13.7935
13.8601
13.9247
13.9873
14.0479
14.1068
14.1639
14.2192
14.2729
14.325
14.3755
14.4245
14.472
14.5181
14.5627
14.6059
14.6477
14.6881
14.7272
14.765
14.8015
14.8366
14.8705
14.9032
14.9347
14.965
14.9944
15.0229
15.0508
15.0783
15.1059
15.1344
15.1645
15.1979
15.2345
15.2819
15.3155
-8.72821
-8.82517
-8.92608
-9.01228
-9.07631
-9.11552
-9.12745
-9.1095
-9.06179
-8.98947
-8.90399
-8.82227
-8.76244
-8.73712
-8.75094
-8.80602
-8.90636
-9.05573
-9.25474
-9.4978
-9.77555
-10.081
-10.4085
-10.7517
-11.1053
-11.4641
-11.8227
-12.176
-12.5194
-12.8488
-13.161
-13.4533
-13.7236
-13.9703
-14.1921
-14.3881
-14.5578
-14.7007
-14.8166
-14.9055
-14.9675
-15.0025
-15.0107
-14.9922
-14.9471
-14.8757
-14.7782
-14.6549
-14.5064
-14.3333
-14.1362
-13.9155
-13.6718
-13.4057
-13.1177
-12.8086
-12.4792
-12.1304
-11.763
-11.3781
-10.9766
-10.5598
-10.1285
-9.6841
-9.22761
-8.76028
-8.28328
-7.79782
-7.30509
-6.80626
-6.30252
-5.79502
-5.28487
-4.77317
-4.26097
-3.74929
-3.23911
-2.73133
-2.22685
-1.72649
-1.23101
-0.74114
-0.25754
0.21918
0.688465
1.14982
1.60279
2.04698
2.48206
2.90774
3.32377
3.72996
4.12618
4.51232
4.88835
5.25423
5.60994
5.95545
6.29076
6.61592
6.93101
7.23615
7.53147
7.81713
8.09331
8.3602
8.61799
8.86691
9.10716
9.33898
9.56258
9.7782
9.98608
10.1865
10.3796
10.5657
10.7451
10.9178
11.0843
11.2447
11.3992
11.548
11.6915
11.8297
11.9629
12.0914
12.2152
12.3346
12.4498
12.5609
12.6681
12.7716
12.8717
12.9684
13.0619
13.1522
13.2395
13.3238
13.4055
13.4844
13.5608
13.6348
13.7064
13.7758
13.843
13.9081
13.9713
14.0325
14.0919
14.1495
14.2053
14.2595
14.312
14.363
14.4124
14.4603
14.5067
14.5517
14.5952
14.6373
14.6781
14.7175
14.7555
14.7922
14.8276
14.8617
14.8946
14.9262
14.9567
14.9862
15.0147
15.0425
15.0699
15.0972
15.125
15.1539
15.1852
15.2177
15.2571
15.2757
-8.5145
-8.59927
-8.69933
-8.79631
-8.87343
-8.92587
-8.95265
-8.95473
-8.93667
-8.90691
-8.87762
-8.86278
-8.87511
-8.92407
-9.01574
-9.15314
-9.33622
-9.56028
-9.81687
-10.0979
-10.398
-10.713
-11.0385
-11.3694
-11.7015
-12.031
-12.3547
-12.6693
-12.9722
-13.2609
-13.5335
-13.7884
-14.024
-14.2392
-14.4329
-14.6044
-14.753
-14.878
-14.979
-15.0556
-15.1076
-15.1348
-15.137
-15.114
-15.0659
-14.9926
-14.8943
-14.7711
-14.6232
-14.4511
-14.2552
-14.0359
-13.7936
-13.5289
-13.2424
-12.9349
-12.6069
-12.2595
-11.8934
-11.5097
-11.1094
-10.6935
-10.2631
-9.81933
-9.3634
-8.89647
-8.41972
-7.93436
-7.44158
-6.94256
-6.43848
-5.93049
-5.41972
-4.90726
-4.39417
-3.88149
-3.37017
-2.86116
-2.35533
-1.85352
-1.35651
-0.865005
-0.379691
0.0988222
0.569975
1.03326
1.48824
1.9345
2.3717
2.79954
3.21779
3.62625
4.02475
4.41321
4.79154
5.1597
5.51767
5.86541
6.20296
6.53035
6.84766
7.15501
7.45252
7.74036
8.0187
8.28772
8.54762
8.7986
9.0409
9.27474
9.50032
9.71789
9.92767
10.1299
10.3248
10.5127
10.6937
10.8682
11.0363
11.1982
11.3543
11.5047
11.6496
11.7892
11.9239
12.0537
12.1788
12.2995
12.4159
12.5283
12.6367
12.7413
12.8425
12.9402
13.0346
13.1259
13.2141
13.2994
13.3818
13.4616
13.5388
13.6135
13.6859
13.756
13.8239
13.8897
13.9535
14.0154
14.0753
14.1335
14.1899
14.2446
14.2976
14.349
14.3989
14.4472
14.4941
14.5394
14.5834
14.6259
14.667
14.7067
14.745
14.782
14.8177
14.852
14.8851
14.9169
14.9475
14.977
15.0055
15.0332
15.0602
15.087
15.1138
15.1411
15.1697
15.1975
15.229
15.2352
-8.0939
-8.18238
-8.30345
-8.4262
-8.53139
-8.61174
-8.67008
-8.71239
-8.74637
-8.78188
-8.82987
-8.90058
-9.00195
-9.13869
-9.31288
-9.52344
-9.76562
-10.0338
-10.3227
-10.6265
-10.9399
-11.258
-11.5771
-11.8935
-12.2047
-12.5083
-12.8026
-13.086
-13.357
-13.6143
-13.8567
-14.0832
-14.2925
-14.4839
-14.6563
-14.809
-14.9411
-15.052
-15.1411
-15.2078
-15.2517
-15.2723
-15.2694
-15.2426
-15.1917
-15.1167
-15.0174
-14.8939
-14.7464
-14.575
-14.38
-14.1619
-13.9209
-13.6575
-13.3725
-13.0663
-12.7398
-12.3938
-12.029
-11.6466
-11.2474
-10.8325
-10.4029
-9.95993
-9.50459
-9.03812
-8.56168
-8.07647
-7.58368
-7.0845
-6.58012
-6.07168
-5.56032
-5.04713
-4.53319
-4.01951
-3.50709
-2.99686
-2.48971
-1.98646
-1.48792
-0.994799
-0.507779
-0.027479
0.445538
0.910762
1.36774
1.81606
2.25539
2.68541
3.10588
3.5166
3.9174
4.30816
4.6888
5.05927
5.41952
5.76955
6.10938
6.43905
6.75865
7.06827
7.36805
7.65814
7.93872
8.20996
8.47206
8.72521
8.96963
9.20555
9.43318
9.65276
9.86453
10.0687
10.2656
10.4553
10.6382
10.8144
10.9842
11.1479
11.3056
11.4576
11.6041
11.7454
11.8815
12.0127
12.1393
12.2614
12.3791
12.4927
12.6024
12.7083
12.8106
12.9094
13.0049
13.0972
13.1864
13.2726
13.356
13.4367
13.5148
13.5904
13.6636
13.7345
13.8031
13.8697
13.9342
13.9967
14.0573
14.1161
14.1731
14.2283
14.2819
14.3339
14.3843
14.4331
14.4804
14.5262
14.5706
14.6135
14.6549
14.695
14.7337
14.771
14.8069
14.8415
14.8748
14.9068
14.9375
14.967
14.9954
15.0228
15.0495
15.0755
15.1011
15.1264
15.1519
15.1748
15.1991
15.1945
-7.63
-7.72875
-7.87096
-8.0199
-8.15797
-8.2768
-8.38007
-8.47718
-8.57755
-8.69011
-8.82238
-8.97916
-9.16313
-9.37466
-9.61201
-9.87301
-10.1547
-10.4523
-10.7606
-11.0745
-11.3898
-11.703
-12.0115
-12.3132
-12.6065
-12.8902
-13.1632
-13.4247
-13.6737
-13.9094
-14.1311
-14.3377
-14.5286
-14.7029
-14.8598
-14.9985
-15.1181
-15.2181
-15.2977
-15.3563
-15.3934
-15.4083
-15.4007
-15.3703
-15.3166
-15.2395
-15.1389
-15.0146
-14.8667
-14.6953
-14.5007
-14.2831
-14.0429
-13.7805
-13.4964
-13.1914
-12.8661
-12.5212
-12.1577
-11.7764
-11.3784
-10.9646
-10.5361
-10.094
-9.63953
-9.17379
-8.69796
-8.21326
-7.72086
-7.22194
-6.71768
-6.20923
-5.69772
-5.18425
-4.6699
-4.15568
-3.64258
-3.13155
-2.62347
-2.11918
-1.61947
-1.12508
-0.636676
-0.154892
0.319704
0.7866
1.24533
1.6955
2.13673
2.56874
2.99125
3.40406
3.807
4.19993
4.58276
4.95543
5.3179
5.67015
6.01221
6.34413
6.66597
6.97785
7.27988
7.57222
7.85502
8.12847
8.39276
8.64809
8.89466
9.13271
9.36244
9.58409
9.79789
10.0041
10.2029
10.3946
10.5793
10.7574
10.9291
11.0945
11.254
11.4077
11.5559
11.6987
11.8364
11.9691
12.0972
12.2207
12.3399
12.4548
12.5658
12.673
12.7765
12.8765
12.9731
13.0665
13.1568
13.2441
13.3285
13.4102
13.4892
13.5657
13.6398
13.7115
13.781
13.8483
13.9136
13.9768
14.0381
14.0976
14.1552
14.2111
14.2653
14.3178
14.3688
14.4181
14.4659
14.5122
14.557
14.6004
14.6423
14.6827
14.7218
14.7594
14.7957
14.8305
14.864
14.8961
14.9269
14.9564
14.9847
15.0118
15.0378
15.0629
15.0871
15.1102
15.1324
15.1505
15.1682
15.1543
-7.27691
-7.37021
-7.52239
-7.68832
-7.85541
-8.0168
-8.17203
-8.32897
-8.4958
-8.6783
-8.88047
-9.1034
-9.34563
-9.60631
-9.88484
-10.1789
-10.4846
-10.7977
-11.1138
-11.4296
-11.742
-12.0488
-12.3482
-12.6389
-12.9197
-13.19
-13.449
-13.696
-13.9305
-14.1519
-14.3596
-14.5528
-14.731
-14.8934
-15.0392
-15.1677
-15.2783
-15.37
-15.4424
-15.4946
-15.5261
-15.5363
-15.5248
-15.491
-15.4346
-15.3553
-15.2529
-15.1273
-14.9785
-14.8065
-14.6114
-14.3936
-14.1534
-13.8912
-13.6075
-13.3028
-12.978
-12.6338
-12.2709
-11.8904
-11.4931
-11.0801
-10.6524
-10.2112
-9.75752
-9.29257
-8.81751
-8.33353
-7.8418
-7.3435
-6.8398
-6.33184
-5.82073
-5.30758
-4.79344
-4.27933
-3.76624
-3.2551
-2.74679
-2.24216
-1.742
-1.24703
-0.757932
-0.275336
0.200188
0.668123
1.12801
1.57942
2.02201
2.45547
2.87952
3.29395
3.69857
4.09324
4.47787
4.85237
5.21672
5.57089
5.9149
6.24881
6.57267
6.88659
7.19068
7.4851
7.76999
8.04553
8.31191
8.56932
8.81797
9.05808
9.28986
9.51354
9.72935
9.93752
10.1383
10.3319
10.5185
10.6985
10.872
11.0392
11.2005
11.3559
11.5057
11.6502
11.7895
11.9238
12.0534
12.1783
12.2989
12.4153
12.5277
12.6362
12.7409
12.8422
12.94
13.0346
13.126
13.2143
13.2998
13.3825
13.4625
13.5399
13.6149
13.6876
13.7579
13.8261
13.8921
13.9561
14.0182
14.0783
14.1367
14.1932
14.248
14.3012
14.3527
14.4026
14.4509
14.4978
14.5431
14.5869
14.6292
14.6701
14.7095
14.7475
14.7841
14.8192
14.8529
14.8851
14.916
14.9454
14.9735
15.0002
15.0255
15.0496
15.0722
15.093
15.1118
15.1251
15.1368
15.1148
-7.08935
-7.17547
-7.32978
-7.50234
-7.68603
-7.87875
-8.07715
-8.28321
-8.50138
-8.73399
-8.98133
-9.24339
-9.52005
-9.81089
-10.114
-10.4261
-10.7435
-11.063
-11.3815
-11.6963
-12.0054
-12.3071
-12.6002
-12.8835
-13.1563
-13.4179
-13.668
-13.9059
-14.1313
-14.3436
-14.5424
-14.727
-14.8969
-15.0514
-15.1898
-15.3114
-15.4156
-15.5015
-15.5686
-15.6161
-15.6433
-15.6498
-15.6349
-15.5982
-15.5393
-15.4578
-15.3536
-15.2264
-15.0763
-14.9032
-14.7073
-14.4888
-14.248
-13.9853
-13.7014
-13.3966
-13.0717
-12.7276
-12.3649
-11.9846
-11.5876
-11.175
-10.7479
-10.3072
-9.85412
-9.38983
-8.91548
-8.43222
-7.94123
-7.44369
-6.94073
-6.43351
-5.92312
-5.41066
-4.89716
-4.38365
-3.8711
-3.36043
-2.85251
-2.34819
-1.84824
-1.35339
-0.864305
-0.381618
0.0941044
0.562347
1.02264
1.47458
1.9178
2.35198
2.77686
3.19221
3.59785
3.99363
4.37945
4.75523
5.12092
5.4765
5.82199
6.15743
6.48289
6.79845
7.10424
7.40039
7.68704
7.96438
8.23257
8.49181
8.7423
8.98426
9.21789
9.44343
9.66109
9.8711
10.0737
10.2691
10.4576
10.6393
10.8145
10.9835
11.1464
11.3035
11.455
11.601
11.7419
11.8778
12.0088
12.1353
12.2573
12.3751
12.4888
12.5986
12.7047
12.8072
12.9062
13.0019
13.0945
13.1839
13.2705
13.3542
13.4352
13.5136
13.5896
13.6631
13.7343
13.8033
13.8702
13.935
13.9978
14.0587
14.1177
14.175
14.2304
14.2842
14.3363
14.3868
14.4357
14.4831
14.5289
14.5732
14.616
14.6573
14.6971
14.7355
14.7723
14.8077
14.8416
14.874
14.9049
14.9342
14.962
14.9883
15.0129
15.0357
15.0567
15.0751
15.0905
15.0994
15.1056
15.0765
-7.06436
-7.15139
-7.29918
-7.46811
-7.6551
-7.86
-8.07965
-8.31207
-8.55751
-8.81648
-9.08843
-9.37252
-9.66846
-9.97507
-10.2896
-10.6092
-10.9308
-11.2518
-11.5698
-11.8827
-12.1889
-12.4869
-12.7757
-13.0545
-13.3225
-13.5793
-13.8244
-14.0573
-14.2776
-14.4849
-14.6787
-14.8584
-15.0235
-15.1733
-15.3073
-15.4246
-15.5247
-15.6069
-15.6704
-15.7145
-15.7387
-15.7423
-15.7248
-15.6857
-15.6246
-15.5411
-15.4351
-15.3063
-15.1547
-14.9803
-14.7832
-14.5637
-14.322
-14.0586
-13.774
-13.4688
-13.1436
-12.7992
-12.4364
-12.0561
-11.6593
-11.247
-10.8202
-10.38
-9.92754
-9.46392
-8.99032
-8.50789
-8.01779
-7.52118
-7.0192
-6.51297
-6.0036
-5.49216
-4.97968
-4.46717
-3.95559
-3.44585
-2.93882
-2.43532
-1.93613
-1.44196
-0.953491
-0.471328
0.00396541
0.471879
0.931952
1.38378
1.82699
2.26128
2.68637
3.10204
3.5081
3.9044
4.29082
4.66729
5.03377
5.39022
5.73666
6.07313
6.39969
6.71644
7.02347
7.32092
7.60893
7.88768
8.15732
8.41805
8.67007
8.91358
9.14878
9.3759
9.59516
9.80678
10.011
10.208
10.3981
10.5814
10.7583
10.9288
11.0933
11.2519
11.4049
11.5525
11.6949
11.8322
11.9647
12.0926
12.216
12.3351
12.4501
12.5612
12.6685
12.7722
12.8724
12.9693
13.063
13.1535
13.2411
13.3259
13.4079
13.4873
13.5641
13.6386
13.7107
13.7805
13.8482
13.9138
13.9774
14.039
14.0988
14.1567
14.2128
14.2673
14.32
14.3711
14.4206
14.4684
14.5148
14.5596
14.6029
14.6446
14.6848
14.7236
14.7607
14.7964
14.8305
14.863
14.8939
14.9231
14.9506
14.9763
15.0001
15.0218
15.0409
15.0569
15.0691
15.0737
15.075
15.0398
-7.17793
-7.25629
-7.3872
-7.54316
-7.72197
-7.92331
-8.14445
-8.38281
-8.63673
-8.90484
-9.18544
-9.47739
-9.77975
-10.0905
-10.4072
-10.7273
-11.0482
-11.3677
-11.6837
-11.9943
-12.2981
-12.5937
-12.8803
-13.1568
-13.4228
-13.6776
-13.9208
-14.1518
-14.3702
-14.5756
-14.7674
-14.9451
-15.1081
-15.2559
-15.3877
-15.5029
-15.6008
-15.6808
-15.7421
-15.7841
-15.8062
-15.8078
-15.7883
-15.7473
-15.6843
-15.5991
-15.4914
-15.361
-15.2079
-15.0322
-14.8339
-14.6132
-14.3706
-14.1064
-13.8211
-13.5153
-13.1897
-12.8451
-12.4822
-12.1021
-11.7055
-11.2936
-10.8673
-10.4278
-9.97607
-9.51338
-9.04081
-8.55952
-8.07065
-7.57535
-7.07475
-6.56995
-6.06206
-5.55212
-5.04116
-4.53016
-4.02008
-3.51181
-3.00622
-2.5041
-2.00622
-1.51329
-1.02598
-0.544877
-0.0705538
0.396487
0.855791
1.30695
1.74961
2.18345
2.6082
3.02364
3.42958
3.82586
4.21238
4.58904
4.95581
5.31265
5.65958
5.99664
6.32387
6.64137
6.94925
7.24761
7.53661
7.81641
8.08716
8.34905
8.60228
8.84703
9.08353
9.31197
9.53258
9.74557
9.95117
10.1496
10.3411
10.5258
10.7041
10.8761
11.042
11.202
11.3564
11.5054
11.6491
11.7878
11.9216
12.0508
12.1755
12.2959
12.4122
12.5245
12.6331
12.7379
12.8393
12.9372
13.032
13.1236
13.2122
13.2979
13.3809
13.4613
13.539
13.6144
13.6873
13.758
13.8265
13.8929
13.9573
14.0196
14.0801
14.1387
14.1955
14.2506
14.3039
14.3556
14.4056
14.4541
14.501
14.5463
14.59
14.6322
14.6728
14.7119
14.7495
14.7854
14.8197
14.8523
14.8832
14.9123
14.9394
14.9646
14.9875
15.0079
15.0253
15.0389
15.0479
15.0486
15.0454
15.005
-7.35598
-7.4205
-7.53137
-7.66985
-7.83379
-8.02269
-8.23421
-8.46565
-8.71454
-8.97852
-9.25537
-9.54388
-9.84281
-10.1499
-10.4629
-10.7792
-11.0965
-11.4128
-11.726
-12.0345
-12.3366
-12.6312
-12.9172
-13.1937
-13.4598
-13.715
-13.9587
-14.1903
-14.4093
-14.6152
-14.8074
-14.9853
-15.1484
-15.296
-15.4274
-15.5421
-15.6393
-15.7183
-15.7786
-15.8194
-15.8402
-15.8403
-15.8194
-15.7769
-15.7124
-15.6257
-15.5165
-15.3847
-15.2303
-15.0533
-14.8538
-14.6322
-14.3887
-14.1238
-13.838
-13.5319
-13.2061
-12.8615
-12.4989
-12.1191
-11.7232
-11.312
-10.8867
-10.4483
-9.99793
-9.53668
-9.0657
-8.58612
-8.09907
-7.60568
-7.10707
-6.60433
-6.09852
-5.5907
-5.08186
-4.573
-4.06504
-3.55886
-3.05531
-2.55518
-2.05923
-1.56815
-1.0826
-0.603169
-0.130415
0.335166
0.793125
1.24306
1.68461
2.11746
2.54135
2.95605
3.36137
3.75716
4.1433
4.51971
4.88633
5.24315
5.59016
5.92741
6.25494
6.57284
6.8812
7.18014
7.4698
7.75033
8.02189
8.28466
8.53882
8.78457
9.02211
9.25164
9.47338
9.68753
9.89432
10.094
10.2867
10.4727
10.6522
10.8255
10.9926
11.154
11.3096
11.4599
11.6049
11.7448
11.8799
12.0103
12.1363
12.2579
12.3753
12.4888
12.5984
12.7044
12.8068
12.9059
13.0016
13.0943
13.1839
13.2706
13.3545
13.4358
13.5145
13.5907
13.6645
13.736
13.8053
13.8725
13.9376
14.0006
14.0618
14.1211
14.1786
14.2343
14.2882
14.3405
14.3911
14.4401
14.4875
14.5333
14.5776
14.6202
14.6613
14.7008
14.7386
14.7748
14.8093
14.842
14.8729
14.9018
14.9287
14.9533
14.9753
14.9944
15.0101
15.0213
15.0274
15.0245
15.0171
14.9723
-7.5305
-7.58195
-7.6745
-7.79513
-7.94185
-8.11412
-8.30986
-8.52668
-8.7621
-9.01356
-9.27904
-9.55742
-9.84726
-10.1463
-10.4522
-10.7626
-11.0751
-11.3876
-11.6982
-12.005
-12.3066
-12.6015
-12.8886
-13.1667
-13.435
-13.6926
-13.9388
-14.173
-14.3946
-14.6028
-14.7972
-14.977
-15.1417
-15.2905
-15.4229
-15.5382
-15.6356
-15.7147
-15.7746
-15.8149
-15.835
-15.8342
-15.8122
-15.7686
-15.7029
-15.615
-15.5046
-15.3717
-15.2162
-15.0383
-14.838
-14.6157
-14.3717
-14.1065
-13.8206
-13.5146
-13.1891
-12.8451
-12.4832
-12.1045
-11.7097
-11.3
-10.8763
-10.4397
-9.99138
-9.53231
-9.06365
-8.58654
-8.10207
-7.61136
-7.11551
-6.6156
-6.11267
-5.60775
-5.10183
-4.59586
-4.09077
-3.58744
-3.08668
-2.58926
-2.09594
-1.6074
-1.12428
-0.647178
-0.176625
0.286882
0.742899
1.19103
1.63091
2.06224
2.48475
2.89821
3.30244
3.69727
4.08259
4.45831
4.82439
5.18078
5.52751
5.86458
6.19207
6.51003
6.81856
7.11778
7.40782
7.68881
7.96093
8.22433
8.47919
8.72571
8.96408
9.1945
9.41717
9.63231
9.84012
10.0408
10.2346
10.4217
10.6024
10.7768
10.9451
11.1076
11.2645
11.4159
11.5621
11.7032
11.8394
11.971
12.0981
12.2208
12.3394
12.454
12.5647
12.6718
12.7752
12.8753
12.9721
13.0657
13.1563
13.2439
13.3288
13.4109
13.4905
13.5675
13.6422
13.7145
13.7846
13.8525
13.9183
13.9821
14.044
14.104
14.1621
14.2184
14.273
14.3259
14.3771
14.4267
14.4746
14.5209
14.5656
14.6087
14.6502
14.6901
14.7283
14.7648
14.7995
14.8323
14.8632
14.8919
14.9185
14.9425
14.9636
14.9815
14.9955
15.0045
15.0078
15.0015
14.9905
14.9419
-7.65724
-7.69943
-7.77662
-7.8806
-8.00991
-8.16408
-8.34135
-8.53975
-8.75725
-8.99166
-9.2416
-9.50633
-9.7844
-10.0735
-10.3712
-10.675
-10.9827
-11.292
-11.6008
-11.9073
-12.2097
-12.5065
-12.7962
-13.0776
-13.3497
-13.6115
-13.8619
-14.1003
-14.3258
-14.5378
-14.7356
-14.9184
-15.0857
-15.2367
-15.3708
-15.4873
-15.5857
-15.6652
-15.7254
-15.7655
-15.7852
-15.7839
-15.7612
-15.7167
-15.6502
-15.5613
-15.4501
-15.3164
-15.1603
-14.9818
-14.7812
-14.5588
-14.3148
-14.0499
-13.7645
-13.4593
-13.135
-12.7923
-12.432
-12.0551
-11.6624
-11.255
-10.8339
-10.4002
-9.95476
-9.49884
-9.03349
-8.55982
-8.07891
-7.59186
-7.09975
-6.60361
-6.1045
-5.6034
-5.1013
-4.59912
-4.09776
-3.5981
-3.10094
-2.60704
-2.11712
-1.63186
-1.15189
-0.677801
-0.210117
0.250675
0.704135
1.14987
1.58752
2.01678
2.43739
2.84912
3.25177
3.64519
4.02926
4.40389
4.76903
5.12463
5.47071
5.80729
6.13441
6.45213
6.76055
7.05978
7.34994
7.63115
7.90359
8.1674
8.42277
8.66986
8.90888
9.14002
9.36347
9.57943
9.78813
9.98975
10.1845
10.3726
10.5543
10.7297
10.8991
11.0627
11.2207
11.3732
11.5204
11.6627
11.8
11.9327
12.0609
12.1847
12.3044
12.42
12.5318
12.6398
12.7443
12.8454
12.9431
13.0377
13.1292
13.2178
13.3035
13.3866
13.467
13.5449
13.6203
13.6935
13.7643
13.833
13.8996
13.9641
14.0267
14.0873
14.1461
14.203
14.2583
14.3117
14.3635
14.4136
14.4621
14.509
14.5542
14.5978
14.6397
14.68
14.7185
14.7553
14.7902
14.8232
14.854
14.8827
14.9089
14.9323
14.9526
14.9693
14.9817
14.9887
14.9894
14.9801
14.9657
14.914
-7.71226
-7.75046
-7.81603
-7.90505
-8.01733
-8.15283
-8.31048
-8.48894
-8.68667
-8.9021
-9.13475
-9.38451
-9.65001
-9.92884
-10.2184
-10.5163
-10.82
-11.1271
-11.4354
-11.7429
-12.0475
-12.3475
-12.6414
-12.9275
-13.2047
-13.4717
-13.7275
-13.9711
-14.2016
-14.4181
-14.62
-14.8065
-14.9768
-15.1305
-15.2667
-15.3848
-15.4844
-15.5647
-15.6252
-15.6655
-15.685
-15.6834
-15.6603
-15.6153
-15.5483
-15.459
-15.3474
-15.2135
-15.0573
-14.879
-14.6787
-14.4569
-14.2139
-13.9502
-13.6663
-13.3628
-13.0406
-12.7003
-12.3427
-11.9688
-11.5794
-11.1755
-10.7581
-10.3283
-9.88704
-9.43544
-8.97457
-8.50549
-8.02928
-7.54701
-7.05973
-6.56846
-6.07422
-5.57798
-5.08069
-4.58327
-4.0866
-3.59151
-3.09882
-2.60928
-2.12359
-1.6424
-1.16633
-0.695974
-0.231844
0.225577
0.675852
1.11859
1.55344
1.9801
2.39829
2.80779
3.2084
3.59997
3.98238
4.35553
4.71935
5.07382
5.41893
5.75469
6.08115
6.39837
6.70642
7.00541
7.29545
7.57668
7.84923
8.11327
8.36895
8.61646
8.85597
9.08767
9.31176
9.52843
9.73789
9.94032
10.1359
10.325
10.5076
10.6839
10.8543
11.0189
11.1779
11.3314
11.4798
11.623
11.7615
11.8952
12.0244
12.1493
12.27
12.3866
12.4994
12.6085
12.714
12.816
12.9147
13.0102
13.1026
13.1921
13.2788
13.3627
13.4439
13.5227
13.5989
13.6729
13.7445
13.8139
13.8812
13.9465
14.0097
14.071
14.1305
14.1881
14.2439
14.298
14.3504
14.4011
14.4501
14.4975
14.5432
14.5873
14.6297
14.6704
14.7093
14.7464
14.7815
14.8146
14.8456
14.8741
14.9
14.9229
14.9425
14.9581
14.9689
14.974
14.9723
14.9603
14.943
14.8886
-7.69745
-7.73159
-7.78833
-7.86354
-7.95864
-8.07444
-8.21096
-8.36783
-8.54425
-8.73955
-8.95416
-9.18857
-9.44154
-9.71058
-9.99299
-10.2861
-10.5872
-10.8937
-11.2032
-11.5133
-11.8217
-12.1265
-12.4257
-12.7177
-13.0009
-13.2739
-13.5356
-13.7848
-14.0206
-14.2419
-14.448
-14.6382
-14.8117
-14.9679
-15.1061
-15.2258
-15.3265
-15.4076
-15.4686
-15.5092
-15.5288
-15.5272
-15.504
-15.459
-15.392
-15.303
-15.1917
-15.0583
-14.9029
-14.7256
-14.5268
-14.3066
-14.0656
-13.8042
-13.523
-13.2227
-12.9038
-12.5672
-12.2137
-11.844
-11.4593
-11.0603
-10.648
-10.2235
-9.78777
-9.34184
-8.88676
-8.42358
-7.95335
-7.47711
-6.99587
-6.51065
-6.02242
-5.53214
-5.04075
-4.54912
-4.05813
-3.5686
-3.08129
-2.59697
-2.11634
-1.64004
-1.16865
-0.702753
-0.242866
0.210529
0.656998
1.09615
1.52764
1.95116
2.36643
2.77323
3.17137
3.56067
3.94102
4.31231
4.67448
5.02749
5.37132
5.70599
6.03152
6.34798
6.65543
6.95396
7.24369
7.52473
7.79723
8.06132
8.31717
8.56495
8.80482
9.03697
9.26159
9.47885
9.68897
9.89212
10.0885
10.2783
10.4618
10.6391
10.8104
10.976
11.1359
11.2904
11.4398
11.5841
11.7235
11.8583
11.9885
12.1144
12.2361
12.3538
12.4675
12.5776
12.684
12.787
12.8867
12.9831
13.0765
13.1669
13.2544
13.3391
13.4213
13.5008
13.5779
13.6526
13.725
13.7952
13.8632
13.9292
13.9931
14.0551
14.1153
14.1735
14.23
14.2847
14.3377
14.389
14.4386
14.4865
14.5328
14.5773
14.6202
14.6613
14.7006
14.7381
14.7735
14.8068
14.8378
14.8662
14.8919
14.9144
14.9332
14.9478
14.9573
14.9606
14.9568
14.9423
14.9223
14.8658
-7.63287
-7.65791
-7.70395
-7.76259
-7.83737
-7.93033
-8.04268
-8.17529
-8.32839
-8.50226
-8.6983
-8.91753
-9.15871
-9.41914
-9.69584
-9.98583
-10.2861
-10.5938
-10.9061
-11.2202
-11.5337
-11.8441
-12.1495