/*--------------------------------*- C++ -*----------------------------------*\
  =========                 |
  \\      /  F ield         | OpenFOAM: The Open Source CFD Toolbox
   \\    /   O peration     | Website:  https://openfoam.org
    \\  /    A nd           | Version:  8
     \\/     M anipulation  |
\*---------------------------------------------------------------------------*/
FoamFile
{
    version     2.0;
    format      ascii;
    class       surfaceScalarField;
    location    "1500";
    object      phi;
}
// * * * * * * * * * * * * * * * * * * * * * * * * * * * * * * * * * * * * * //

dimensions      [0 3 -1 0 0 0 0];

internalField   nonuniform List<scalar> 
24170
(
3.92539e-06
-7.91498e-07
3.76465e-06
1.6075e-07
3.63345e-06
1.31209e-07
3.43331e-06
2.00144e-07
3.28028e-06
1.53027e-07
3.18901e-06
9.11907e-08
3.13091e-06
5.81105e-08
3.08609e-06
4.58911e-08
3.04613e-06
4.23232e-08
3.01059e-06
3.81624e-08
2.97876e-06
3.38022e-08
2.94904e-06
3.07702e-08
2.92187e-06
2.73779e-08
2.89642e-06
2.52003e-08
2.87227e-06
2.36057e-08
2.85193e-06
1.94843e-08
2.84097e-06
9.85736e-09
-6.37666e-09
2.84668e-06
3.58445e-06
-9.19499e-07
3.80424e-06
-5.90412e-08
3.74282e-06
1.92629e-07
3.6906e-06
2.52375e-07
3.63729e-06
2.06333e-07
3.59023e-06
1.3828e-07
3.55289e-06
9.55997e-08
3.52309e-06
7.56597e-08
3.49853e-06
6.65696e-08
3.47732e-06
5.92149e-08
3.45871e-06
5.25289e-08
3.44252e-06
4.72643e-08
3.42795e-06
4.23377e-08
3.41466e-06
3.87864e-08
3.40269e-06
3.57306e-08
3.39122e-06
3.10528e-08
3.38036e-06
2.08427e-08
4.78165e-09
3.36943e-06
3.68518e-06
-7.92482e-07
3.83639e-06
-2.1025e-07
3.91494e-06
1.14082e-07
3.94502e-06
2.22293e-07
3.94408e-06
2.07265e-07
3.92749e-06
1.54897e-07
3.90755e-06
1.15615e-07
3.88932e-06
9.36447e-08
3.874e-06
8.11966e-08
3.86056e-06
7.19158e-08
3.84834e-06
6.42559e-08
3.83728e-06
5.81352e-08
3.82691e-06
5.27792e-08
3.8174e-06
4.84754e-08
3.80891e-06
4.44343e-08
3.80097e-06
3.92545e-08
3.79195e-06
3.02086e-08
1.77985e-08
3.77944e-06
4.05359e-06
-6.4151e-07
4.1146e-06
-2.71259e-07
4.20799e-06
2.06917e-08
4.26635e-06
1.63932e-07
4.2907e-06
1.82926e-07
4.29287e-06
1.52749e-07
4.28571e-06
1.22819e-07
4.27631e-06
1.02844e-07
4.26727e-06
8.96864e-08
4.25873e-06
7.98176e-08
4.25056e-06
7.19497e-08
4.24283e-06
6.56349e-08
4.23534e-06
6.02466e-08
4.22823e-06
5.56938e-08
4.22149e-06
5.13534e-08
4.21464e-06
4.63467e-08
4.20599e-06
3.91854e-08
3.06613e-08
4.19351e-06
4.50491e-06
-5.09114e-07
4.51536e-06
-2.81708e-07
4.58529e-06
-4.92341e-08
4.64665e-06
1.02566e-07
4.68258e-06
1.46992e-07
4.69688e-06
1.38473e-07
4.69946e-06
1.20238e-07
4.69723e-06
1.04926e-07
4.69331e-06
9.32554e-08
4.68868e-06
8.40576e-08
4.68366e-06
7.66422e-08
4.67851e-06
7.06085e-08
4.67321e-06
6.54951e-08
4.66783e-06
6.11067e-08
4.66227e-06
5.70062e-08
4.65606e-06
5.27048e-08
4.64786e-06
4.75928e-08
4.26071e-08
4.63612e-06
5.00014e-06
-3.94663e-07
4.98614e-06
-2.67704e-07
5.03069e-06
-9.37788e-08
5.08506e-06
4.81981e-08
5.12454e-06
1.07517e-07
5.14608e-06
1.16941e-07
5.15584e-06
1.10489e-07
5.1594e-06
1.01286e-07
5.15985e-06
9.26083e-08
5.15859e-06
8.50841e-08
5.15629e-06
7.87435e-08
5.15333e-06
7.34433e-08
5.14984e-06
6.89346e-08
5.14589e-06
6.50648e-08
5.14136e-06
6.15882e-08
5.13584e-06
5.83113e-08
5.12839e-06
5.51505e-08
5.30534e-08
5.11808e-06
5.54382e-06
-2.97475e-07
5.51664e-06
-2.40529e-07
5.54055e-06
-1.17686e-07
5.58388e-06
4.87055e-09
5.62166e-06
6.97346e-08
5.64656e-06
9.20465e-08
5.66107e-06
9.59688e-08
5.66906e-06
9.32476e-08
5.67315e-06
8.84249e-08
5.67481e-06
8.33017e-08
5.6749e-06
7.85525e-08
5.6739e-06
7.43764e-08
5.67204e-06
7.07668e-08
5.6694e-06
6.76972e-08
5.66591e-06
6.51013e-08
5.66127e-06
6.299e-08
5.65494e-06
6.15492e-08
6.15343e-08
5.6465e-06
4.34788e-06
-2.39242e-07
4.32251e-06
-2.15162e-07
4.33078e-06
-1.25951e-07
4.35419e-06
-1.85361e-08
4.3784e-06
4.55262e-08
4.39646e-06
7.39853e-08
4.40841e-06
8.40232e-08
4.41597e-06
8.56742e-08
4.42059e-06
8.37683e-08
4.42325e-06
8.05983e-08
4.42456e-06
7.71973e-08
4.4249e-06
7.40037e-08
4.42446e-06
7.11812e-08
4.42334e-06
6.88116e-08
4.42151e-06
6.69385e-08
4.41884e-06
6.56728e-08
4.41514e-06
6.52709e-08
6.63511e-08
4.41035e-06
5.08621e-06
-1.85599e-07
5.05777e-06
-1.86718e-07
5.0584e-06
-1.26578e-07
5.07686e-06
-3.70021e-08
5.09918e-06
2.32143e-08
5.11773e-06
5.54366e-08
5.13124e-06
7.05075e-08
5.14059e-06
7.63173e-08
5.14686e-06
7.74762e-08
5.15094e-06
7.64978e-08
5.15344e-06
7.4677e-08
5.15477e-06
7.26673e-08
5.15514e-06
7.07979e-08
5.15468e-06
6.92655e-08
5.15341e-06
6.82117e-08
5.15128e-06
6.78151e-08
5.14821e-06
6.83524e-08
7.0274e-08
5.14429e-06
5.94839e-06
-1.38193e-07
5.91832e-06
-1.56649e-07
5.91161e-06
-1.19866e-07
5.924e-06
-4.93965e-08
5.94286e-06
4.359e-09
5.96058e-06
3.77172e-08
5.97479e-06
5.62917e-08
5.98546e-06
6.5647e-08
5.9932e-06
6.97364e-08
5.99867e-06
7.1018e-08
6.00242e-06
7.09162e-08
6.00484e-06
7.02407e-08
6.00618e-06
6.94591e-08
6.00657e-06
6.88684e-08
6.0061e-06
6.86891e-08
6.00478e-06
6.9137e-08
6.00267e-06
7.04631e-08
7.2977e-08
5.99997e-06
6.95439e-06
-9.83129e-08
6.92401e-06
-1.26278e-07
6.91113e-06
-1.06984e-07
6.9168e-06
-5.50654e-08
6.93087e-06
-9.71006e-09
6.94635e-06
2.22399e-08
6.96015e-06
4.24934e-08
6.9714e-06
5.43968e-08
6.98017e-06
6.09621e-08
6.98684e-06
6.43484e-08
6.9918e-06
6.5956e-08
6.99537e-06
6.66655e-08
6.9978e-06
6.70315e-08
6.99924e-06
6.74251e-08
6.99982e-06
6.81143e-08
6.99963e-06
6.93255e-08
6.99883e-06
7.12685e-08
7.41302e-08
6.99768e-06
8.12719e-06
-6.64877e-08
8.09793e-06
-9.70209e-08
8.08056e-06
-8.96087e-08
8.07955e-06
-5.40584e-08
8.08793e-06
-1.8089e-08
8.09985e-06
1.03233e-08
8.11198e-06
3.03595e-08
8.12286e-06
4.35227e-08
8.13202e-06
5.17961e-08
8.1395e-06
5.68685e-08
8.14548e-06
5.99763e-08
8.15018e-06
6.19708e-08
8.15378e-06
6.34321e-08
8.15644e-06
6.47579e-08
8.15832e-06
6.62343e-08
8.15958e-06
6.8075e-08
8.1604e-06
7.04418e-08
7.34398e-08
8.16109e-06
9.49368e-06
-4.24386e-08
9.4668e-06
-7.01427e-08
9.44683e-06
-6.96401e-08
9.43991e-06
-4.71315e-08
9.44229e-06
-2.04675e-08
9.44965e-06
2.95592e-09
9.45895e-06
2.1065e-08
9.4684e-06
3.40711e-08
9.47716e-06
4.30369e-08
9.48491e-06
4.91213e-08
9.49159e-06
5.32943e-08
9.49727e-06
5.62923e-08
9.50205e-06
5.8647e-08
9.50607e-06
6.07389e-08
9.50947e-06
6.28349e-08
9.51243e-06
6.51209e-08
9.51515e-06
6.77152e-08
7.06711e-08
9.51792e-06
1.10854e-05
-2.5159e-08
1.10618e-05
-4.65024e-08
1.1041e-05
-4.88065e-08
1.10294e-05
-3.55514e-08
1.10261e-05
-1.71694e-08
1.10284e-05
6.05346e-10
1.1034e-05
1.54752e-08
1.10411e-05
2.69713e-08
1.10487e-05
3.54923e-08
1.10561e-05
4.17163e-08
1.1063e-05
4.63138e-08
1.10695e-05
4.98434e-08
1.10754e-05
5.27352e-08
1.10808e-05
5.53034e-08
1.10859e-05
5.77681e-08
1.10908e-05
6.02732e-08
1.10956e-05
6.28991e-08
6.56691e-08
1.11006e-05
1.29396e-05
-1.31186e-08
1.29194e-05
-2.62785e-08
1.28988e-05
-2.82517e-08
1.28839e-05
-2.06873e-08
1.28758e-05
-8.99544e-09
1.28732e-05
3.14527e-09
1.28748e-05
1.39404e-08
1.28789e-05
2.27889e-08
1.28847e-05
2.9745e-08
1.28913e-05
3.51436e-08
1.28982e-05
3.93838e-08
1.29052e-05
4.28285e-08
1.29122e-05
4.577e-08
1.29191e-05
4.84252e-08
1.29259e-05
5.09432e-08
1.29327e-05
5.34155e-08
1.29398e-05
5.58854e-08
5.83558e-08
1.29471e-05
1.50998e-05
-4.48304e-09
1.50822e-05
-8.67586e-09
1.50621e-05
-8.11333e-09
1.50448e-05
-3.45794e-09
1.50327e-05
3.10996e-09
1.50259e-05
9.93898e-09
1.50237e-05
1.61621e-08
1.5025e-05
2.14646e-08
1.50289e-05
2.58535e-08
1.50346e-05
2.94849e-08
1.50414e-05
3.25546e-08
1.5049e-05
3.52431e-08
1.50571e-05
3.76937e-08
1.50655e-05
4.00076e-08
1.50742e-05
4.22475e-08
1.50832e-05
4.44426e-08
1.50925e-05
4.65956e-08
4.86881e-08
1.51021e-05
1.76171e-05
2.89317e-09
1.75999e-05
8.5233e-09
1.75787e-05
1.30299e-08
1.7559e-05
1.6278e-08
1.75436e-05
1.84727e-08
1.75336e-05
1.99578e-08
1.75287e-05
2.10523e-08
1.75282e-05
2.19936e-08
1.75311e-05
2.29396e-08
1.75366e-05
2.39853e-08
1.7544e-05
2.51772e-08
1.75527e-05
2.65277e-08
1.75624e-05
2.80258e-08
1.75727e-05
2.9646e-08
1.75836e-05
3.13518e-08
1.7595e-05
3.31022e-08
1.76067e-05
3.48512e-08
3.65543e-08
1.76188e-05
1.78181e-05
1.10004e-08
1.77994e-05
2.72127e-08
1.77768e-05
3.56243e-08
1.7756e-05
3.70587e-08
1.77402e-05
3.43262e-08
1.77302e-05
2.99465e-08
1.77257e-05
2.54999e-08
1.7726e-05
2.17779e-08
1.77298e-05
1.90747e-08
1.77364e-05
1.73999e-08
1.77449e-05
1.66322e-08
1.77549e-05
1.66032e-08
1.77658e-05
1.71409e-08
1.77773e-05
1.80887e-08
1.77894e-05
1.9314e-08
1.78017e-05
2.07033e-08
1.78144e-05
2.21674e-08
2.36302e-08
1.78274e-05
1.58702e-05
2.21334e-08
1.58478e-05
4.95815e-08
1.58233e-05
6.01324e-08
1.58032e-05
5.72347e-08
1.57899e-05
4.76107e-08
1.57834e-05
3.63716e-08
1.57827e-05
2.61978e-08
1.57864e-05
1.81465e-08
1.57931e-05
1.23653e-08
1.58019e-05
8.61225e-09
1.5812e-05
6.49704e-09
1.5823e-05
5.6288e-09
1.58345e-05
5.66488e-09
1.58462e-05
6.32853e-09
1.58581e-05
7.39975e-09
1.58701e-05
8.71533e-09
1.58821e-05
1.01464e-08
1.16045e-08
1.58942e-05
1.41313e-05
3.95387e-08
1.41021e-05
7.8707e-08
1.40745e-05
8.77878e-08
1.40557e-05
7.60386e-08
1.40469e-05
5.64137e-08
1.40462e-05
3.70403e-08
1.40512e-05
2.12109e-08
1.40597e-05
9.58333e-09
1.40704e-05
1.76352e-09
1.4082e-05
-3.04799e-09
1.40941e-05
-5.60369e-09
1.41063e-05
-6.55945e-09
1.41184e-05
-6.41484e-09
1.41303e-05
-5.55932e-09
1.41419e-05
-4.26266e-09
1.41534e-05
-2.72339e-09
1.41646e-05
-1.079e-09
5.72912e-10
1.41756e-05
1.25772e-05
6.73555e-08
1.25392e-05
1.1674e-07
1.25091e-05
1.17889e-07
1.24942e-05
9.08911e-08
1.24928e-05
5.78143e-08
1.25002e-05
2.9684e-08
1.25122e-05
9.13297e-09
1.25264e-05
-4.49402e-09
1.25409e-05
-1.28328e-08
1.25552e-05
-1.73448e-08
1.25689e-05
-1.92799e-08
1.25819e-05
-1.94977e-08
1.25941e-05
-1.8652e-08
1.26057e-05
-1.71577e-08
1.26167e-05
-1.53144e-08
1.26273e-05
-1.33126e-08
1.26375e-05
-1.12746e-08
-9.29251e-09
1.26473e-05
1.11862e-05
1.10916e-07
1.11384e-05
1.6457e-07
1.11088e-05
1.4752e-07
1.11022e-05
9.74849e-08
1.11117e-05
4.83136e-08
1.11289e-05
1.24033e-08
1.11486e-05
-1.04582e-08
1.11678e-05
-2.37225e-08
1.11855e-05
-3.05017e-08
1.12014e-05
-3.32837e-08
1.12157e-05
-3.355e-08
1.12285e-05
-3.23507e-08
1.12402e-05
-3.02998e-08
1.12508e-05
-2.78601e-08
1.12608e-05
-2.5274e-08
1.12701e-05
-2.26725e-08
1.1279e-05
-2.01607e-08
-1.77795e-08
1.12875e-05
9.93908e-06
1.76452e-07
9.88248e-06
2.21163e-07
9.85873e-06
1.71262e-07
9.86593e-06
9.02758e-08
9.88961e-06
2.46396e-08
9.9176e-06
-1.55535e-08
9.94392e-06
-3.67908e-08
9.96668e-06
-4.64029e-08
9.98571e-06
-4.96014e-08
1.00017e-05
-4.92781e-08
1.00152e-05
-4.71144e-08
1.00269e-05
-4.39954e-08
1.00371e-05
-4.05227e-08
1.00462e-05
-3.7014e-08
1.00546e-05
-3.3641e-08
1.00623e-05
-3.04401e-08
1.00696e-05
-2.74404e-08
-2.47043e-08
1.00765e-05
8.81963e-06
2.69916e-07
8.75785e-06
2.82944e-07
8.74788e-06
1.81226e-07
8.77481e-06
6.33232e-08
8.81458e-06
-1.51282e-08
8.85212e-06
-5.30897e-08
8.88269e-06
-6.72247e-08
8.90623e-06
-7.00187e-08
8.92427e-06
-6.76058e-08
8.93842e-06
-6.33583e-08
8.94983e-06
-5.83945e-08
8.95924e-06
-5.33303e-08
8.96721e-06
-4.8466e-08
8.97418e-06
-4.40022e-08
8.98049e-06
-3.99938e-08
8.98632e-06
-3.62917e-08
8.99174e-06
-3.29046e-08
-2.98869e-08
8.99691e-06
7.81391e-06
3.96675e-07
7.75391e-06
3.42943e-07
7.76868e-06
1.6644e-07
7.82054e-06
1.14612e-08
7.87567e-06
-7.02735e-08
7.91913e-06
-9.64894e-08
7.94967e-06
-9.78324e-08
7.97057e-06
-9.06426e-08
7.98484e-06
-8.15753e-08
7.99524e-06
-7.35382e-08
8.00315e-06
-6.60959e-08
8.00936e-06
-5.94353e-08
8.01442e-06
-5.33077e-08
8.01874e-06
-4.81905e-08
8.02269e-06
-4.38823e-08
8.02632e-06
-3.99552e-08
8.02969e-06
-3.63288e-08
-3.31999e-08
8.03296e-06
6.90424e-06
5.66768e-07
6.86137e-06
3.85805e-07
6.91717e-06
1.10634e-07
6.99674e-06
-6.81331e-08
7.06253e-06
-1.36071e-07
7.10529e-06
-1.39267e-07
7.13032e-06
-1.22546e-07
7.14448e-06
-1.04615e-07
7.15208e-06
-8.89762e-08
7.15709e-06
-7.57948e-08
7.16036e-06
-6.66441e-08
7.16269e-06
-5.96185e-08
7.16412e-06
-5.41359e-08
7.16536e-06
-4.91607e-08
7.16661e-06
-4.52166e-08
7.16779e-06
-4.16573e-08
7.16889e-06
-3.77469e-08
-3.46631e-08
7.17011e-06
6.07162e-06
7.97662e-07
6.08526e-06
3.72164e-07
6.19865e-06
-2.77351e-09
6.2999e-06
-1.69398e-07
6.36526e-06
-2.01462e-07
6.39754e-06
-1.71504e-07
6.41011e-06
-1.35219e-07
6.41343e-06
-1.06943e-07
6.41239e-06
-8.57933e-08
6.40989e-06
-7.40086e-08
6.40746e-06
-6.45108e-08
6.40486e-06
-5.76817e-08
6.40233e-06
-5.11086e-08
6.39997e-06
-4.64766e-08
6.39809e-06
-4.37501e-08
6.39676e-06
-4.01717e-08
6.39514e-06
-3.6442e-08
-3.40955e-08
6.3939e-06
5.35805e-06
1.05451e-06
5.50649e-06
2.23716e-07
5.64777e-06
-1.44085e-07
5.73564e-06
-2.57314e-07
5.77646e-06
-2.42347e-07
5.78324e-06
-1.78425e-07
5.77528e-06
-1.26644e-07
5.76328e-06
-9.40044e-08
5.74975e-06
-7.56517e-08
5.73931e-06
-6.40099e-08
5.73029e-06
-5.65013e-08
5.72239e-06
-5.00017e-08
5.71428e-06
-4.41826e-08
5.70724e-06
-3.97258e-08
5.70186e-06
-3.77856e-08
5.69671e-06
-3.54021e-08
5.6917e-06
-3.14649e-08
-2.96533e-08
5.68737e-06
5.04576e-06
1.01105e-06
5.36491e-06
-9.54497e-08
5.35251e-06
-1.31766e-07
5.33285e-06
-2.37745e-07
5.296e-06
-2.05651e-07
5.25016e-06
-1.32589e-07
5.20891e-06
-8.47325e-08
5.17485e-06
-6.08213e-08
5.14634e-06
-4.98262e-08
5.12483e-06
-4.29547e-08
5.10676e-06
-3.93126e-08
5.09059e-06
-3.559e-08
5.07487e-06
-3.02687e-08
5.06152e-06
-2.66321e-08
5.05062e-06
-2.70199e-08
5.0397e-06
-2.44148e-08
5.02919e-06
-2.02437e-08
-2.11068e-08
5.0213e-06
5.4676e-06
5.37215e-06
5.24037e-06
5.00261e-06
4.79694e-06
4.66444e-06
4.57967e-06
4.51835e-06
4.46847e-06
4.42535e-06
4.38573e-06
4.34971e-06
4.31933e-06
4.29269e-06
4.26567e-06
4.24143e-06
4.22142e-06
4.20064e-06
2.31258e-08
-2.31227e-08
2.37196e-07
-2.1407e-07
4.89316e-07
-2.52087e-07
7.09579e-07
-2.2024e-07
8.77292e-07
-1.67693e-07
9.8842e-07
-1.11117e-07
1.04408e-06
-5.56506e-08
1.0465e-06
-2.42098e-09
1.001e-06
4.5513e-08
9.17726e-07
8.32675e-08
8.11926e-07
1.0581e-07
7.02738e-07
1.09175e-07
6.09956e-07
9.27799e-08
5.4367e-07
6.62974e-08
4.9253e-07
5.11607e-08
4.33354e-07
5.98796e-08
3.47052e-07
8.61662e-08
2.21955e-07
1.2587e-07
4.36552e-08
1.77886e-07
-2.01805e-07
2.44832e-07
-5.04338e-07
3.02278e-07
-8.45325e-07
3.40737e-07
-1.20966e-06
3.64346e-07
-1.58706e-06
3.77405e-07
-1.96866e-06
3.8164e-07
-2.34449e-06
3.75851e-07
-2.70652e-06
3.62058e-07
-3.0496e-06
3.43089e-07
-3.36989e-06
3.20306e-07
-3.66506e-06
2.95178e-07
-3.93425e-06
2.69194e-07
-4.17778e-06
2.43528e-07
-4.39666e-06
2.18886e-07
-4.59238e-06
1.95725e-07
-4.76665e-06
1.7427e-07
-4.92125e-06
1.54603e-07
-5.05794e-06
1.36687e-07
-5.17834e-06
1.20402e-07
-5.28393e-06
1.0559e-07
-5.376e-06
9.20692e-08
-5.45566e-06
7.96578e-08
-5.52384e-06
6.81834e-08
-5.58133e-06
5.74907e-08
-5.62878e-06
4.74458e-08
-5.66672e-06
3.79397e-08
-5.6956e-06
2.8885e-08
-5.71581e-06
2.02105e-08
-5.7277e-06
1.18863e-08
-5.73174e-06
4.04028e-09
-5.7288e-06
-2.93938e-09
-5.71996e-06
-8.83794e-09
-5.706e-06
-1.39646e-08
-5.68732e-06
-1.8681e-08
-5.66417e-06
-2.31484e-08
-5.63672e-06
-2.7445e-08
-5.60512e-06
-3.15988e-08
-5.5695e-06
-3.56246e-08
-5.52997e-06
-3.95293e-08
-5.48666e-06
-4.33139e-08
-5.43968e-06
-4.69773e-08
-5.38916e-06
-5.05169e-08
-5.33523e-06
-5.39294e-08
-5.27802e-06
-5.72112e-08
-5.21766e-06
-6.03591e-08
-5.15429e-06
-6.33707e-08
-5.08805e-06
-6.62427e-08
-5.01908e-06
-6.89718e-08
-4.94752e-06
-7.15557e-08
-4.87353e-06
-7.39927e-08
-4.79725e-06
-7.62816e-08
-4.71882e-06
-7.84216e-08
-4.63841e-06
-8.04124e-08
-4.55616e-06
-8.22543e-08
-4.47221e-06
-8.3948e-08
-4.38672e-06
-8.54946e-08
-4.29982e-06
-8.68959e-08
-4.21167e-06
-8.81539e-08
-4.1224e-06
-8.92712e-08
-4.03214e-06
-9.02508e-08
-3.94105e-06
-9.10962e-08
-3.84924e-06
-9.18113e-08
-3.75684e-06
-9.24003e-08
-3.66397e-06
-9.28683e-08
-3.57075e-06
-9.32208e-08
-3.47729e-06
-9.34639e-08
-3.38368e-06
-9.36051e-08
-3.29003e-06
-9.36528e-08
-3.19641e-06
-9.36175e-08
-3.1029e-06
-9.35117e-08
-3.00955e-06
-9.33514e-08
-2.9164e-06
-9.31574e-08
-2.82344e-06
-9.2955e-08
-2.73068e-06
-9.27621e-08
-2.63812e-06
-9.25584e-08
-2.54586e-06
-9.22589e-08
-2.4541e-06
-9.17622e-08
-2.36312e-06
-9.09828e-08
-2.27318e-06
-8.99381e-08
-2.1844e-06
-8.87848e-08
-2.09677e-06
-8.763e-08
-2.0103e-06
-8.64739e-08
-1.925e-06
-8.53005e-08
-1.8409e-06
-8.41024e-08
-1.75802e-06
-8.28789e-08
-1.67639e-06
-8.16323e-08
-1.59602e-06
-8.03664e-08
-1.51694e-06
-7.90851e-08
-1.43915e-06
-7.77911e-08
-1.36267e-06
-7.64822e-08
-1.28753e-06
-7.51378e-08
-1.21377e-06
-7.37699e-08
-1.14136e-06
-7.24063e-08
-1.07032e-06
-7.10419e-08
-1.00064e-06
-6.9678e-08
-9.32331e-07
-6.83155e-08
-8.65377e-07
-6.6956e-08
-7.99777e-07
-6.56017e-08
-7.35523e-07
-6.42553e-08
-6.72607e-07
-6.29188e-08
-6.11017e-07
-6.15914e-08
-5.50745e-07
-6.0274e-08
-4.91777e-07
-5.89692e-08
-4.34096e-07
-5.76832e-08
-3.77676e-07
-5.64215e-08
-3.22497e-07
-5.518e-08
-2.68543e-07
-5.39553e-08
-2.15793e-07
-5.27514e-08
-1.64227e-07
-5.15675e-08
-1.13837e-07
-5.03916e-08
-6.46142e-08
-4.92238e-08
-1.66812e-08
-4.7934e-08
3.00936e-08
-4.67758e-08
7.60176e-08
-4.59248e-08
1.20985e-07
-4.49679e-08
1.64892e-07
-4.3908e-08
2.07735e-07
-4.28443e-08
2.49533e-07
-4.17978e-08
2.90313e-07
-4.07811e-08
3.30109e-07
-3.97963e-08
3.6895e-07
-3.88419e-08
4.06866e-07
-3.79159e-08
4.43883e-07
-3.70171e-08
4.80027e-07
-3.61443e-08
5.15324e-07
-3.52968e-08
5.49799e-07
-3.44741e-08
5.83475e-07
-3.3676e-08
6.16377e-07
-3.29021e-08
6.48529e-07
-3.21524e-08
6.79956e-07
-3.14268e-08
7.10681e-07
-3.07253e-08
7.40728e-07
-3.00478e-08
7.70122e-07
-2.93943e-08
7.98887e-07
-2.87648e-08
8.27046e-07
-2.81594e-08
8.54624e-07
-2.75781e-08
8.81645e-07
-2.70207e-08
9.08132e-07
-2.64873e-08
9.3411e-07
-2.59774e-08
9.59601e-07
-2.54906e-08
9.84628e-07
-2.50261e-08
1.00921e-06
-2.45827e-08
1.03337e-06
-2.41585e-08
1.05712e-06
-2.37506e-08
1.08048e-06
-2.3355e-08
1.10344e-06
-2.2966e-08
1.12602e-06
-2.25754e-08
1.14819e-06
-2.2172e-08
1.16994e-06
-2.17399e-08
1.19119e-06
-2.12569e-08
1.21189e-06
-2.06921e-08
1.23189e-06
-2.00011e-08
1.25101e-06
-1.91203e-08
1.26896e-06
-1.79521e-08
1.28532e-06
-1.63524e-08
1.29937e-06
-1.40459e-08
1.30999e-06
-1.06223e-08
1.31456e-06
-4.55818e-09
1.30771e-06
6.85652e-09
1.27817e-06
2.95354e-08
7.2327e-08
1.20584e-06
2.5418e-07
-2.77322e-07
4.9008e-07
-4.49966e-07
6.39667e-07
-4.01669e-07
7.243e-07
-3.04871e-07
7.63815e-07
-2.07199e-07
7.69761e-07
-1.17067e-07
7.48829e-07
-3.47126e-08
7.06647e-07
3.97538e-08
6.46287e-07
1.05878e-07
5.67659e-07
1.61886e-07
4.70045e-07
2.03431e-07
3.51777e-07
2.27433e-07
2.06817e-07
2.37747e-07
2.36234e-08
2.49508e-07
-2.0859e-07
2.83382e-07
-4.94228e-07
3.45612e-07
-8.32185e-07
4.24213e-07
-1.21204e-06
5.05741e-07
-1.61586e-06
5.8166e-07
-2.0173e-06
6.46218e-07
-2.40732e-06
6.92251e-07
-2.78279e-06
7.16201e-07
-3.13774e-06
7.1929e-07
-3.46517e-06
7.04835e-07
-3.75993e-06
6.76409e-07
-4.02107e-06
6.37003e-07
-4.24901e-06
5.90004e-07
-4.44503e-06
5.39109e-07
-4.61203e-06
4.87305e-07
-4.75351e-06
4.36667e-07
-4.87286e-06
3.88542e-07
-4.97324e-06
3.43906e-07
-5.05752e-06
3.03172e-07
-5.12822e-06
2.66428e-07
-5.18746e-06
2.33509e-07
-5.23697e-06
2.04114e-07
-5.27816e-06
1.77875e-07
-5.31215e-06
1.54397e-07
-5.33986e-06
1.333e-07
-5.36203e-06
1.14233e-07
-5.37925e-06
9.68837e-08
-5.39206e-06
8.09871e-08
-5.40089e-06
6.63209e-08
-5.40614e-06
5.27035e-08
-5.40819e-06
3.99879e-08
-5.40737e-06
2.80594e-08
-5.404e-06
1.684e-08
-5.3984e-06
6.29498e-09
-5.39074e-06
-3.61965e-09
-5.38059e-06
-1.30936e-08
-5.36706e-06
-2.23671e-08
-5.34956e-06
-3.14693e-08
-5.3279e-06
-4.03345e-08
-5.30209e-06
-4.89589e-08
-5.27219e-06
-5.73496e-08
-5.23827e-06
-6.55127e-08
-5.20045e-06
-7.34509e-08
-5.15881e-06
-8.11638e-08
-5.11348e-06
-8.86481e-08
-5.06456e-06
-9.58982e-08
-5.01217e-06
-1.02907e-07
-4.95643e-06
-1.09668e-07
-4.89747e-06
-1.16171e-07
-4.83542e-06
-1.22412e-07
-4.7704e-06
-1.28384e-07
-4.70256e-06
-1.34081e-07
-4.63204e-06
-1.39497e-07
-4.55897e-06
-1.44625e-07
-4.4835e-06
-1.49464e-07
-4.40577e-06
-1.5401e-07
-4.32593e-06
-1.58262e-07
-4.24412e-06
-1.6222e-07
-4.16049e-06
-1.65884e-07
-4.07519e-06
-1.69254e-07
-3.98835e-06
-1.72335e-07
-3.90011e-06
-1.75128e-07
-3.81063e-06
-1.77638e-07
-3.72003e-06
-1.79871e-07
-3.62845e-06
-1.81831e-07
-3.53602e-06
-1.83526e-07
-3.44287e-06
-1.84964e-07
-3.34912e-06
-1.86153e-07
-3.25488e-06
-1.87102e-07
-3.16028e-06
-1.8782e-07
-3.06543e-06
-1.8832e-07
-2.97042e-06
-1.88611e-07
-2.87537e-06
-1.88707e-07
-2.78037e-06
-1.8862e-07
-2.68552e-06
-1.88364e-07
-2.59092e-06
-1.8795e-07
-2.49669e-06
-1.8739e-07
-2.40295e-06
-1.86692e-07
-2.30986e-06
-1.85852e-07
-2.21758e-06
-1.8484e-07
-2.12623e-06
-1.83612e-07
-2.03585e-06
-1.8214e-07
-1.94641e-06
-1.8042e-07
-1.85786e-06
-1.78492e-07
-1.77021e-06
-1.76434e-07
-1.68354e-06
-1.74299e-07
-1.59792e-06
-1.721e-07
-1.51338e-06
-1.69839e-07
-1.42997e-06
-1.67517e-07
-1.34771e-06
-1.65138e-07
-1.26663e-06
-1.62708e-07
-1.18677e-06
-1.60231e-07
-1.10814e-06
-1.57713e-07
-1.03078e-06
-1.55158e-07
-9.54696e-07
-1.52567e-07
-8.79894e-07
-1.49941e-07
-8.06372e-07
-1.47293e-07
-7.34143e-07
-1.44637e-07
-6.63211e-07
-1.41975e-07
-5.93578e-07
-1.39312e-07
-5.25243e-07
-1.36652e-07
-4.58204e-07
-1.33996e-07
-3.92459e-07
-1.31348e-07
-3.28001e-07
-1.28714e-07
-2.64821e-07
-1.261e-07
-2.02908e-07
-1.23506e-07
-1.42254e-07
-1.2093e-07
-8.2846e-08
-1.18378e-07
-2.46784e-08
-1.15852e-07
3.22629e-08
-1.13364e-07
8.80059e-08
-1.10924e-07
1.42568e-07
-1.08518e-07
1.9596e-07
-1.06144e-07
2.48196e-07
-1.03805e-07
2.99304e-07
-1.015e-07
3.49313e-07
-9.92336e-08
3.98382e-07
-9.70029e-08
4.46484e-07
-9.4878e-08
4.93402e-07
-9.28437e-08
5.39205e-07
-9.07709e-08
5.83969e-07
-8.86729e-08
6.27727e-07
-8.66026e-08
6.70508e-07
-8.45791e-08
7.12336e-07
-8.26093e-08
7.53234e-07
-8.06945e-08
7.93225e-07
-7.88334e-08
8.32334e-07
-7.70243e-08
8.70582e-07
-7.52656e-08
9.07994e-07
-7.35563e-08
9.44592e-07
-7.18953e-08
9.804e-07
-7.02821e-08
1.01544e-06
-6.87164e-08
1.04974e-06
-6.71978e-08
1.08331e-06
-6.57263e-08
1.11618e-06
-6.43016e-08
1.14838e-06
-6.29237e-08
1.17993e-06
-6.15927e-08
1.21084e-06
-6.03085e-08
1.24115e-06
-5.90712e-08
1.27087e-06
-5.78806e-08
1.30003e-06
-5.67368e-08
1.32865e-06
-5.56394e-08
1.35675e-06
-5.45882e-08
1.38435e-06
-5.35824e-08
1.41148e-06
-5.26209e-08
1.43816e-06
-5.17018e-08
1.4644e-06
-5.08226e-08
1.49022e-06
-4.99794e-08
1.51564e-06
-4.91666e-08
1.54066e-06
-4.83763e-08
1.56529e-06
-4.75975e-08
1.58953e-06
-4.68148e-08
1.61337e-06
-4.60069e-08
1.63677e-06
-4.51443e-08
1.6597e-06
-4.41859e-08
1.68209e-06
-4.30742e-08
1.70381e-06
-4.17275e-08
1.72472e-06
-4.00277e-08
1.74457e-06
-3.77983e-08
1.76299e-06
-3.47697e-08
1.77942e-06
-3.04812e-08
1.79298e-06
-2.41805e-08
1.8027e-06
-1.42738e-08
1.80757e-06
1.99644e-09
1.80569e-06
3.14214e-08
8.80275e-08
1.78998e-06
2.4601e-07
-5.23353e-07
3.42329e-07
-5.46288e-07
3.58618e-07
-4.17956e-07
3.47575e-07
-2.93818e-07
3.19873e-07
-1.79491e-07
2.7579e-07
-7.2984e-08
2.14614e-07
2.64658e-08
1.35295e-07
1.19069e-07
3.67709e-08
2.04404e-07
-8.31207e-08
2.81773e-07
-2.30085e-07
3.50395e-07
-4.14641e-07
4.1199e-07
-6.502e-07
4.73304e-07
-9.43684e-07
5.42997e-07
-1.28493e-06
6.24628e-07
-1.65203e-06
7.1271e-07
-2.02414e-06
7.96317e-07
-2.38439e-06
8.65986e-07
-2.71891e-06
9.16157e-07
-3.01713e-06
9.4443e-07
-3.2752e-06
9.5032e-07
-3.49409e-06
9.35104e-07
-3.6768e-06
9.02004e-07
-3.82737e-06
8.55403e-07
-3.95051e-06
7.99553e-07
-4.05164e-06
7.38138e-07
-4.13609e-06
6.74459e-07
-4.20826e-06
6.11276e-07
-4.27158e-06
5.50621e-07
-4.32866e-06
4.93746e-07
-4.38137e-06
4.4126e-07
-4.43086e-06
3.93396e-07
-4.47776e-06
3.5007e-07
-4.52233e-06
3.11002e-07
-4.56462e-06
2.75799e-07
-4.60453e-06
2.44024e-07
-4.64189e-06
2.15237e-07
-4.67652e-06
1.89021e-07
-4.70822e-06
1.64999e-07
-4.73683e-06
1.42842e-07
-4.76221e-06
1.22265e-07
-4.78425e-06
1.03032e-07
-4.80288e-06
8.49449e-08
-4.81801e-06
6.78377e-08
-4.82959e-06
5.15708e-08
-4.83756e-06
3.60253e-08
-4.84182e-06
2.10992e-08
-4.84222e-06
6.69874e-09
-4.83856e-06
-7.2828e-09
-4.83069e-06
-2.09597e-08
-4.81867e-06
-3.43916e-08
-4.80257e-06
-4.75662e-08
-4.78244e-06
-6.04611e-08
-4.75833e-06
-7.3068e-08
-4.7303e-06
-8.53804e-08
-4.69842e-06
-9.73925e-08
-4.66278e-06
-1.09097e-07
-4.62345e-06
-1.20487e-07
-4.58055e-06
-1.3155e-07
-4.53418e-06
-1.42275e-07
-4.48443e-06
-1.52651e-07
-4.43144e-06
-1.62664e-07
-4.37531e-06
-1.72301e-07
-4.31617e-06
-1.81551e-07
-4.25414e-06
-1.90406e-07
-4.18937e-06
-1.98856e-07
-4.12198e-06
-2.06891e-07
-4.0521e-06
-2.14502e-07
-3.97988e-06
-2.21685e-07
-3.90545e-06
-2.28436e-07
-3.82896e-06
-2.34751e-07
-3.75055e-06
-2.40631e-07
-3.67036e-06
-2.46075e-07
-3.58853e-06
-2.51086e-07
-3.5052e-06
-2.55665e-07
-3.42051e-06
-2.59819e-07
-3.33459e-06
-2.63552e-07
-3.24759e-06
-2.66873e-07
-3.15963e-06
-2.69789e-07
-3.07085e-06
-2.7231e-07
-2.98137e-06
-2.74447e-07
-2.89131e-06
-2.76211e-07
-2.80079e-06
-2.77615e-07
-2.70994e-06
-2.78673e-07
-2.61887e-06
-2.79397e-07
-2.52767e-06
-2.79804e-07
-2.43647e-06
-2.79907e-07
-2.34537e-06
-2.79722e-07
-2.25447e-06
-2.79263e-07
-2.16388e-06
-2.78544e-07
-2.07369e-06
-2.77575e-07
-1.98403e-06
-2.76362e-07
-1.89497e-06
-2.74906e-07
-1.80662e-06
-2.73192e-07
-1.71903e-06
-2.71206e-07
-1.63222e-06
-2.68945e-07
-1.54622e-06
-2.66425e-07
-1.46103e-06
-2.63683e-07
-1.3767e-06
-2.60764e-07
-1.29329e-06
-2.57703e-07
-1.21087e-06
-2.5452e-07
-1.12949e-06
-2.51227e-07
-1.04917e-06
-2.47835e-07
-9.69957e-07
-2.44352e-07
-8.91878e-07
-2.40787e-07
-8.14959e-07
-2.37151e-07
-7.39222e-07
-2.3345e-07
-6.64688e-07
-2.29693e-07
-5.9137e-07
-2.25886e-07
-5.19274e-07
-2.22037e-07
-4.48408e-07
-2.18159e-07
-3.78784e-07
-2.14262e-07
-3.10406e-07
-2.10353e-07
-2.43277e-07
-2.06442e-07
-1.77397e-07
-2.02533e-07
-1.12765e-07
-1.98629e-07
-4.93748e-08
-1.94739e-07
1.27779e-08
-1.90868e-07
7.36981e-08
-1.87021e-07
1.33394e-07
-1.83202e-07
1.91878e-07
-1.79415e-07
2.49162e-07
-1.75663e-07
3.05263e-07
-1.71954e-07
3.60192e-07
-1.68293e-07
4.13955e-07
-1.64687e-07
4.66568e-07
-1.61132e-07
5.18051e-07
-1.57627e-07
5.68423e-07
-1.54177e-07
6.17706e-07
-1.50784e-07
6.65931e-07
-1.47458e-07
7.13138e-07
-1.44211e-07
7.59312e-07
-1.41052e-07
8.04418e-07
-1.3795e-07
8.48505e-07
-1.34858e-07
8.91618e-07
-1.31786e-07
9.33778e-07
-1.28763e-07
9.75006e-07
-1.25807e-07
1.01532e-06
-1.22923e-07
1.05474e-06
-1.20113e-07
1.09328e-06
-1.17377e-07
1.13097e-06
-1.14714e-07
1.16783e-06
-1.12124e-07
1.20388e-06
-1.09605e-07
1.23914e-06
-1.07156e-07
1.27363e-06
-1.04777e-07
1.30739e-06
-1.02468e-07
1.34042e-06
-1.00228e-07
1.37275e-06
-9.80566e-08
1.4044e-06
-9.59544e-08
1.4354e-06
-9.39211e-08
1.46576e-06
-9.19566e-08
1.49551e-06
-9.0061e-08
1.52467e-06
-8.82342e-08
1.55327e-06
-8.64762e-08
1.58132e-06
-8.47869e-08
1.60885e-06
-8.31659e-08
1.63587e-06
-8.16127e-08
1.66241e-06
-8.0126e-08
1.6885e-06
-7.87043e-08
1.71414e-06
-7.73448e-08
1.73936e-06
-7.60439e-08
1.76418e-06
-7.47957e-08
1.7886e-06
-7.35925e-08
1.81265e-06
-7.24229e-08
1.83633e-06
-7.12714e-08
1.85963e-06
-7.01163e-08
1.88255e-06
-6.89276e-08
1.90507e-06
-6.76641e-08
1.92715e-06
-6.62683e-08
1.94874e-06
-6.46603e-08
1.96974e-06
-6.27268e-08
1.99002e-06
-6.0305e-08
2.00937e-06
-5.71543e-08
2.02752e-06
-5.29115e-08
2.04402e-06
-4.69859e-08
2.05828e-06
-3.84378e-08
2.06951e-06
-2.55075e-08
2.07686e-06
-5.35128e-09
2.08076e-06
2.75189e-08
8.54872e-08
2.0833e-06
9.37396e-08
-6.17102e-07
6.23984e-08
-5.14959e-07
1.39164e-08
-3.69466e-07
-4.31733e-08
-2.36721e-07
-1.12669e-07
-1.0999e-07
-1.98039e-07
1.23901e-08
-3.02268e-07
1.30696e-07
-4.27771e-07
2.44572e-07
-5.77125e-07
3.53757e-07
-7.53713e-07
4.58362e-07
-9.62294e-07
5.58973e-07
-1.20718e-06
6.56879e-07
-1.48717e-06
7.53287e-07
-1.79145e-06
8.4728e-07
-2.10134e-06
9.34508e-07
-2.3972e-06
1.00856e-06
-2.66454e-06
1.06365e-06
-2.8951e-06
1.09653e-06
-3.0856e-06
1.10665e-06
-3.23686e-06
1.09569e-06
-3.35324e-06
1.0667e-06
-3.44128e-06
1.02315e-06
-3.5081e-06
9.68827e-07
-3.56021e-06
9.07524e-07
-3.60311e-06
8.42456e-07
-3.64123e-06
7.76255e-07
-3.6778e-06
7.11034e-07
-3.71487e-06
6.48343e-07
-3.75343e-06
5.89183e-07
-3.79376e-06
5.34075e-07
-3.83567e-06
4.83173e-07
-3.87867e-06
4.36398e-07
-3.92212e-06
3.93518e-07
-3.96533e-06
3.54211e-07
-4.00765e-06
3.18115e-07
-4.04848e-06
2.8486e-07
-4.08733e-06
2.54089e-07
-4.12378e-06
2.25471e-07
-4.15749e-06
1.98705e-07
-4.18818e-06
1.73527e-07
-4.21562e-06
1.49709e-07
-4.23964e-06
1.27054e-07
-4.26009e-06
1.05394e-07
-4.27684e-06
8.45901e-08
-4.28979e-06
6.45211e-08
-4.29885e-06
4.50858e-08
-4.30395e-06
2.6198e-08
-4.30503e-06
7.7808e-09
-4.30208e-06
-1.02394e-08
-4.29511e-06
-2.79238e-08
-4.2842e-06
-4.53004e-08
-4.2694e-06
-6.23659e-08
-4.25076e-06
-7.91077e-08
-4.22831e-06
-9.55132e-08
-4.20212e-06
-1.11569e-07
-4.17226e-06
-1.2726e-07
-4.13878e-06
-1.42572e-07
-4.10178e-06
-1.57487e-07
-4.06134e-06
-1.71987e-07
-4.01756e-06
-1.86056e-07
-3.97054e-06
-1.99674e-07
-3.92038e-06
-2.12823e-07
-3.8672e-06
-2.25484e-07
-3.81111e-06
-2.3764e-07
-3.75223e-06
-2.4928e-07
-3.6907e-06
-2.60391e-07
-3.62663e-06
-2.70958e-07
-3.56016e-06
-2.80972e-07
-3.49142e-06
-2.90425e-07
-3.42054e-06
-2.99312e-07
-3.34767e-06
-3.07627e-07
-3.27293e-06
-3.1537e-07
-3.19646e-06
-3.22541e-07
-3.11841e-06
-3.29142e-07
-3.0389e-06
-3.35176e-07
-2.95807e-06
-3.4065e-07
-2.87605e-06
-3.4557e-07
-2.79298e-06
-3.49947e-07
-2.70897e-06
-3.53791e-07
-2.62417e-06
-3.57113e-07
-2.53869e-06
-3.59928e-07
-2.45265e-06
-3.62249e-07
-2.36618e-06
-3.64093e-07
-2.27937e-06
-3.65476e-07
-2.19235e-06
-3.66415e-07
-2.10523e-06
-3.66928e-07
-2.01811e-06
-3.67033e-07
-1.93108e-06
-3.66747e-07
-1.84426e-06
-3.66088e-07
-1.75773e-06
-3.65072e-07
-1.67159e-06
-3.63712e-07
-1.58594e-06
-3.62019e-07
-1.50084e-06
-3.60001e-07
-1.41638e-06
-3.57658e-07
-1.33259e-06
-3.54994e-07
-1.24952e-06
-3.52017e-07
-1.16719e-06
-3.48748e-07
-1.08566e-06
-3.45218e-07
-1.00496e-06
-3.41461e-07
-9.25154e-07
-3.3751e-07
-8.46288e-07
-3.33387e-07
-7.68406e-07
-3.29109e-07
-6.91548e-07
-3.24694e-07
-6.15745e-07
-3.20155e-07
-5.41027e-07
-3.15506e-07
-4.6742e-07
-3.10759e-07
-3.94945e-07
-3.05926e-07
-3.23621e-07
-3.01018e-07
-2.5346e-07
-2.96047e-07
-1.84473e-07
-2.91025e-07
-1.16669e-07
-2.85963e-07
-5.00576e-08
-2.80874e-07
1.53573e-08
-2.75769e-07
7.95703e-08
-2.70656e-07