/*--------------------------------*- C++ -*----------------------------------*\
| =========                 |                                                 |
| \\      /  F ield         | OpenFOAM: The Open Source CFD Toolbox           |
|  \\    /   O peration     | Version:  v2012                                 |
|   \\  /    A nd           | Website:  www.openfoam.com                      |
|    \\/     M anipulation  |                                                 |
\*---------------------------------------------------------------------------*/
FoamFile
{
    version     2.0;
    format      ascii;
    class       surfaceScalarField;
    location    "1500";
    object      phi;
}
// * * * * * * * * * * * * * * * * * * * * * * * * * * * * * * * * * * * * * //

dimensions      [0 3 -1 0 0 0 0];
oriented        oriented;


internalField   nonuniform List<scalar> 
24170
(
3.92539e-06
-7.91497e-07
3.76462e-06
1.60755e-07
3.63338e-06
1.31207e-07
3.4332e-06
2.00136e-07
3.28009e-06
1.53076e-07
3.18945e-06
9.06057e-08
3.1291e-06
6.02307e-08
3.08121e-06
4.75672e-08
3.04135e-06
3.93735e-08
3.00448e-06
3.62706e-08
2.96987e-06
3.40208e-08
2.93779e-06
3.15336e-08
2.90838e-06
2.89647e-08
2.88161e-06
2.64251e-08
2.85773e-06
2.36269e-08
2.83826e-06
1.93597e-08
2.83016e-06
8.16042e-09
-9.43188e-09
2.83968e-06
3.58444e-06
-9.19499e-07
3.80423e-06
-5.9042e-08
3.7428e-06
1.92618e-07
3.69055e-06
2.5236e-07
3.63726e-06
2.06331e-07
3.58985e-06
1.3796e-07
3.55259e-06
9.73673e-08
3.52379e-06
7.61318e-08
3.50039e-06
6.24322e-08
3.48092e-06
5.52782e-08
3.46385e-06
5.05888e-08
3.44835e-06
4.65244e-08
3.43407e-06
4.27978e-08
3.42071e-06
3.94026e-08
3.40827e-06
3.57633e-08
3.39665e-06
3.07731e-08
3.38512e-06
1.95958e-08
3.82161e-09
3.37155e-06
3.68518e-06
-7.92483e-07
3.83638e-06
-2.10252e-07
3.91493e-06
1.14072e-07
3.945e-06
2.22282e-07
3.94407e-06
2.07254e-07
3.92722e-06
1.54802e-07
3.90781e-06
1.1678e-07
3.89028e-06
9.37051e-08
3.87466e-06
7.81469e-08
3.86142e-06
6.8651e-08
3.84986e-06
6.22652e-08
3.83928e-06
5.71838e-08
3.82935e-06
5.27651e-08
3.82e-06
4.8729e-08
3.8113e-06
4.4399e-08
3.80314e-06
3.88518e-08
3.79329e-06
2.93245e-08
1.74928e-08
3.7793e-06
4.05359e-06
-6.41512e-07
4.1146e-06
-2.71267e-07
4.20798e-06
2.06739e-08
4.26634e-06
1.63909e-07
4.29068e-06
1.82894e-07
4.29273e-06
1.52729e-07
4.28602e-06
1.23465e-07
4.27705e-06
1.02702e-07
4.2676e-06
8.76846e-08
4.25883e-06
7.75469e-08
4.25082e-06
7.03706e-08
4.24332e-06
6.47474e-08
4.23615e-06
5.99563e-08
4.22922e-06
5.56156e-08
4.22243e-06
5.1099e-08
4.21539e-06
4.57775e-08
4.20615e-06
3.8409e-08
3.02339e-08
4.19311e-06
4.50491e-06
-5.09116e-07
4.51536e-06
-2.81716e-07
4.58528e-06
-4.92508e-08
4.64665e-06
1.02545e-07
4.68257e-06
1.46968e-07
4.69681e-06
1.38495e-07
4.69973e-06
1.20577e-07
4.69775e-06
1.04751e-07
4.69353e-06
9.20361e-08
4.68861e-06
8.26221e-08
4.68359e-06
7.55482e-08
4.67855e-06
6.99182e-08
4.67345e-06
6.51444e-08
4.66823e-06
6.08705e-08
4.66269e-06
5.66229e-08
4.65634e-06
5.20724e-08
4.6478e-06
4.68429e-08
4.19833e-08
4.63587e-06
5.00014e-06
-3.94666e-07
4.98614e-06
-2.67715e-07
5.03068e-06
-9.38015e-08
5.08505e-06
4.81668e-08
5.12453e-06
1.07479e-07
5.14607e-06
1.16935e-07
5.15605e-06
1.10591e-07
5.15977e-06
1.01075e-07
5.16002e-06
9.18728e-08
5.15853e-06
8.42175e-08
5.15618e-06
7.80177e-08
5.15328e-06
7.29091e-08
5.14993e-06
6.85507e-08
5.1461e-06
6.4705e-08
5.1416e-06
6.10956e-08
5.13597e-06
5.76337e-08
5.12835e-06
5.43814e-08
5.22144e-08
5.11793e-06
5.54382e-06
-2.97479e-07
5.51664e-06
-2.40539e-07
5.54055e-06
-1.17706e-07
5.58387e-06
4.84212e-09
5.62165e-06
6.97004e-08
5.64657e-06
9.20245e-08
5.66123e-06
9.59531e-08
5.66931e-06
9.30467e-08
5.67328e-06
8.79742e-08
5.67481e-06
8.27724e-08
5.67485e-06
7.80609e-08
5.67388e-06
7.39501e-08
5.67211e-06
7.03796e-08
5.66956e-06
6.72779e-08
5.66608e-06
6.45641e-08
5.66137e-06
6.23092e-08
5.65493e-06
6.07545e-08
6.06532e-08
5.64643e-06
4.34788e-06
-2.39246e-07
4.32251e-06
-2.15176e-07
4.33078e-06
-1.25977e-07
4.35419e-06
-1.85733e-08
4.3784e-06
4.54808e-08
4.39648e-06
7.39422e-08
4.40847e-06
8.39642e-08
4.41604e-06
8.54838e-08
4.42063e-06
8.34199e-08
4.42326e-06
8.01904e-08
4.42458e-06
7.67963e-08
4.42495e-06
7.36239e-08
4.42456e-06
7.07982e-08
4.42348e-06
6.8373e-08
4.42165e-06
6.63864e-08
4.41895e-06
6.49923e-08
4.41519e-06
6.44928e-08
6.54476e-08
4.41032e-06
5.08622e-06
-1.85604e-07
5.05777e-06
-1.86732e-07
5.0584e-06
-1.26604e-07
5.07687e-06
-3.70414e-08
5.09918e-06
2.31645e-08
5.11774e-06
5.53815e-08
5.13129e-06
7.04249e-08
5.14066e-06
7.61389e-08
5.14691e-06
7.71896e-08
5.15097e-06
7.61585e-08
5.15348e-06
7.43228e-08
5.15482e-06
7.23049e-08
5.15523e-06
7.0408e-08
5.1548e-06
6.88085e-08
5.15352e-06
6.76515e-08
5.15136e-06
6.71462e-08
5.14823e-06
6.75821e-08
6.94214e-08
5.14424e-06
5.94839e-06
-1.38199e-07
5.91832e-06
-1.56664e-07
5.91161e-06
-1.19896e-07
5.924e-06
-4.94414e-08
5.94287e-06
4.30027e-09
5.9606e-06
3.76443e-08
5.97485e-06
5.61843e-08
5.98553e-06
6.54673e-08
5.99325e-06
6.94804e-08
5.99871e-06
7.07159e-08
6.00246e-06
7.05865e-08
6.0049e-06
6.98848e-08
6.00626e-06
6.90582e-08
6.00667e-06
6.84014e-08
6.00618e-06
6.81328e-08
6.00483e-06
6.84873e-08
6.00268e-06
6.97388e-08
7.21668e-08
5.9999e-06
6.95439e-06
-9.83195e-08
6.92402e-06
-1.26294e-07
6.91114e-06
-1.07017e-07
6.91681e-06
-5.51156e-08
6.93088e-06
-9.77764e-09
6.94638e-06
2.21508e-08
6.9602e-06
4.23676e-08
6.97146e-06
5.42134e-08
6.98022e-06
6.07213e-08
6.98689e-06
6.40633e-08
6.99184e-06
6.56358e-08
6.99542e-06
6.6305e-08
6.99786e-06
6.66266e-08
6.99931e-06
6.69555e-08
6.99987e-06
6.75723e-08
6.99965e-06
6.87105e-08
6.9988e-06
7.0578e-08
7.33817e-08
6.99758e-06
8.12719e-06
-6.64949e-08
8.09793e-06
-9.70383e-08
8.08056e-06
-8.96447e-08
8.07956e-06
-5.41135e-08
8.08794e-06
-1.81645e-08
8.09987e-06
1.02212e-08
8.11202e-06
3.02209e-08
8.1229e-06
4.33374e-08
8.13207e-06
5.15611e-08
8.13955e-06
5.65922e-08
8.14552e-06
5.9658e-08
8.15022e-06
6.16146e-08
8.15382e-06
6.30245e-08
8.15648e-06
6.42995e-08
8.15834e-06
6.57142e-08
8.15955e-06
6.74946e-08
8.16034e-06
6.98045e-08
7.27457e-08
8.16095e-06
9.49368e-06
-4.24472e-08
9.4668e-06
-7.01618e-08
9.44683e-06
-6.96797e-08
9.43991e-06
-4.7192e-08
9.4423e-06
-2.05518e-08
9.44967e-06
2.84499e-09
9.45898e-06
2.09196e-08
9.46844e-06
3.38842e-08
9.4772e-06
4.2809e-08
9.48494e-06
4.88513e-08
9.49162e-06
5.2986e-08
9.49729e-06
5.59387e-08
9.50207e-06
5.82527e-08
9.50607e-06
6.02937e-08
9.50944e-06
6.2343e-08
9.51236e-06
6.45756e-08
9.51503e-06
6.71269e-08
7.00368e-08
9.51773e-06
1.10854e-05
-2.51685e-08
1.10618e-05
-4.65232e-08
1.1041e-05
-4.88492e-08
1.10294e-05
-3.56161e-08
1.10261e-05
-1.72576e-08
1.10284e-05
4.89106e-10
1.1034e-05
1.53274e-08
1.10411e-05
2.67879e-08
1.10487e-05
3.52706e-08
1.10561e-05
4.14566e-08
1.10631e-05
4.6014e-08
1.10695e-05
4.95045e-08
1.10754e-05
5.23531e-08
1.10808e-05
5.48799e-08
1.10858e-05
5.73006e-08
1.10906e-05
5.97677e-08
1.10954e-05
6.23552e-08
6.50977e-08
1.11003e-05
1.29396e-05
-1.31286e-08
1.29194e-05
-2.62999e-08
1.28988e-05
-2.82949e-08
1.28839e-05
-2.07527e-08
1.28758e-05
-9.08537e-09
1.28732e-05
3.029e-09
1.28748e-05
1.3794e-08
1.2879e-05
2.26096e-08
1.28847e-05
2.95309e-08
1.28913e-05
3.48941e-08
1.28982e-05
3.90975e-08
1.29052e-05
4.25049e-08
1.29121e-05
4.54085e-08
1.2919e-05
4.8027e-08
1.29258e-05
5.05101e-08
1.29326e-05
5.29512e-08
1.29395e-05
5.53943e-08
5.78432e-08
1.29467e-05
1.50998e-05
-4.49287e-09
1.50822e-05
-8.69796e-09
1.50621e-05
-8.15605e-09
1.50448e-05
-3.52308e-09
1.50327e-05
3.02245e-09
1.50259e-05
9.82438e-09
1.50237e-05
1.60199e-08
1.5025e-05
2.12914e-08
1.50289e-05
2.56493e-08
1.50346e-05
2.92479e-08
1.50414e-05
3.22849e-08
1.50489e-05
3.49407e-08
1.5057e-05
3.73594e-08
1.50654e-05
3.96435e-08
1.5074e-05
4.18562e-08
1.50829e-05
4.4028e-08
1.50922e-05
4.61623e-08
4.82402e-08
1.51018e-05
1.76171e-05
2.88341e-09
1.75999e-05
8.49935e-09
1.75787e-05
1.29848e-08
1.7559e-05
1.62163e-08
1.75436e-05
1.83859e-08
1.75336e-05
1.98514e-08
1.75287e-05
2.09176e-08
1.75282e-05
2.18353e-08
1.75311e-05
2.27508e-08
1.75365e-05
2.37702e-08
1.75439e-05
2.49316e-08
1.75526e-05
2.62558e-08
1.75622e-05
2.77269e-08
1.75725e-05
2.93245e-08
1.75834e-05
3.10091e-08
1.75947e-05
3.27433e-08
1.76063e-05
3.44785e-08
3.61721e-08
1.76184e-05
1.78181e-05
1.09917e-08
1.77994e-05
2.71826e-08
1.77768e-05
3.55802e-08
1.7756e-05
3.69938e-08
1.77402e-05
3.42495e-08
1.77302e-05
2.9847e-08
1.77257e-05
2.53856e-08
1.77259e-05
2.16376e-08
1.77298e-05
1.89158e-08
1.77363e-05
1.72124e-08
1.77448e-05
1.64223e-08
1.77547e-05
1.63661e-08
1.77656e-05
1.68834e-08
1.77771e-05
1.781e-08
1.77891e-05
1.90212e-08
1.78014e-05
2.0396e-08
1.78141e-05
2.18532e-08
2.3307e-08
1.78269e-05
1.58702e-05
2.21253e-08
1.58478e-05
4.95502e-08
1.58233e-05
6.00857e-08
1.58032e-05
5.71757e-08
1.57899e-05
4.75356e-08
1.57834e-05
3.62875e-08
1.57827e-05
2.61002e-08
1.57863e-05
1.80366e-08
1.5793e-05
1.22357e-08
1.58018e-05
8.46396e-09
1.58119e-05
6.32375e-09
1.58228e-05
5.43162e-09
1.58343e-05
5.44397e-09
1.5846e-05
6.08909e-09
1.58579e-05
7.14497e-09
1.58698e-05
8.45132e-09
1.58818e-05
9.87423e-09
1.13293e-08
1.58938e-05
1.41313e-05
3.95322e-08
1.41021e-05
7.86766e-08
1.40745e-05
8.77425e-08
1.40557e-05
7.59792e-08
1.40469e-05
5.63457e-08
1.40462e-05
3.69693e-08
1.40512e-05
2.11302e-08
1.40597e-05
9.50034e-09
1.40703e-05
1.66641e-09
1.40819e-05
-3.15347e-09
1.4094e-05
-5.73019e-09
1.41062e-05
-6.71374e-09
1.41182e-05
-6.59616e-09
1.41301e-05
-5.76495e-09
1.41417e-05
-4.48216e-09
1.41531e-05
-2.95519e-09
1.41643e-05
-1.31488e-09
3.31798e-10
1.41753e-05
1.25772e-05
6.735e-08
1.25392e-05
1.16712e-07
1.25091e-05
1.17847e-07
1.24942e-05
9.08355e-08
1.24928e-05
5.77531e-08
1.25002e-05
2.96187e-08
1.25122e-05
9.08093e-09
1.25263e-05
-4.56514e-09
1.25409e-05
-1.28827e-08
1.25551e-05
-1.74022e-08
1.25688e-05
-1.93506e-08
1.25817e-05
-1.96002e-08
1.25939e-05
-1.87937e-08
1.26055e-05
-1.73221e-08
1.26165e-05
-1.55041e-08
1.26271e-05
-1.35077e-08
1.26372e-05
-1.14839e-08
-9.50263e-09
1.26471e-05
1.11862e-05
1.10912e-07
1.11384e-05
1.64548e-07
1.11088e-05
1.47482e-07
1.11022e-05
9.74344e-08
1.11117e-05
4.82572e-08
1.1129e-05
1.23578e-08
1.11486e-05
-1.05167e-08
1.11678e-05
-2.37476e-08
1.11855e-05
-3.05346e-08
1.12013e-05
-3.32657e-08
1.12155e-05
-3.35383e-08
1.12283e-05
-3.23755e-08
1.124e-05
-3.03884e-08
1.12506e-05
-2.79926e-08
1.12606e-05
-2.54129e-08
1.12699e-05
-2.28376e-08
1.12787e-05
-2.03335e-08
-1.79736e-08
1.12872e-05
9.93908e-06
1.76449e-07
9.88248e-06
2.21144e-07
9.85873e-06
1.7123e-07
9.86595e-06
9.02286e-08
9.88963e-06
2.45874e-08
9.91761e-06
-1.56099e-08
9.94394e-06
-3.68036e-08
9.96668e-06
-4.64404e-08
9.98573e-06
-4.9519e-08
1.00016e-05
-4.91507e-08
1.00151e-05
-4.69874e-08
1.00267e-05
-4.39629e-08
1.00369e-05
-4.05395e-08
1.0046e-05
-3.70721e-08
1.00544e-05
-3.37126e-08
1.00621e-05
-3.0535e-08
1.00693e-05
-2.75834e-08
-2.48735e-08
1.00762e-05
8.81963e-06
2.69914e-07
8.75784e-06
2.82932e-07
8.74788e-06
1.81197e-07
8.77483e-06
6.32803e-08
8.81461e-06
-1.51858e-08
8.85216e-06
-5.31293e-08
8.88269e-06
-6.72753e-08
8.9063e-06
-6.99637e-08
8.92432e-06
-6.75587e-08
8.93835e-06
-6.31138e-08
8.9496e-06
-5.81651e-08
8.95898e-06
-5.31373e-08
8.96696e-06
-4.84454e-08
8.97397e-06
-4.40075e-08
8.98027e-06
-3.99651e-08
8.98606e-06
-3.62868e-08
8.99146e-06
-3.29898e-08
-3.00602e-08
8.9966e-06
7.81391e-06
3.96674e-07
7.7539e-06
3.42934e-07
7.76868e-06
1.66416e-07
7.82055e-06
1.14181e-08
7.87571e-06
-7.03326e-08
7.91917e-06
-9.65701e-08
7.94973e-06
-9.78223e-08
7.97062e-06
-9.07639e-08
7.98498e-06
-8.17084e-08
7.99517e-06
-7.31986e-08
8.00291e-06
-6.57254e-08
8.00902e-06
-5.92572e-08
8.01417e-06
-5.34027e-08
8.01856e-06
-4.82996e-08
8.02247e-06
-4.37739e-08
8.02602e-06
-3.98605e-08
8.02933e-06
-3.63915e-08
-3.33496e-08
8.03259e-06
6.90424e-06
5.66768e-07
6.86136e-06
3.85801e-07
6.91716e-06
1.10611e-07
6.99675e-06
-6.81784e-08
7.06257e-06
-1.36148e-07
7.10536e-06
-1.39361e-07
7.13033e-06
-1.22666e-07
7.1445e-06
-1.04883e-07
7.15241e-06
-8.95996e-08
7.15702e-06
-7.76415e-08
7.16002e-06
-6.85932e-08
7.16224e-06
-6.11851e-08
7.16389e-06
-5.50139e-08
7.16526e-06
-4.96462e-08
7.1664e-06
-4.49521e-08
7.16745e-06
-4.09698e-08
7.16847e-06
-3.74186e-08
-3.46339e-08
7.16959e-06
6.07162e-06
7.97663e-07
6.08525e-06
3.7216e-07
6.19865e-06
-2.79279e-09
6.29991e-06
-1.69439e-07
6.36529e-06
-2.0154e-07
6.3976e-06
-1.7164e-07
6.41008e-06
-1.35254e-07
6.41332e-06
-1.0783e-07
6.41229e-06
-8.86114e-08
6.40981e-06
-7.51378e-08
6.40725e-06
-6.59821e-08
6.40477e-06
-5.87895e-08
6.40235e-06
-5.27456e-08
6.40016e-06
-4.73793e-08
6.39811e-06
-4.29161e-08
6.39634e-06
-3.92434e-08
6.3946e-06
-3.58001e-08
-3.32761e-08
6.39332e-06
5.35805e-06
1.05451e-06
5.50649e-06
2.23711e-07
5.64777e-06
-1.4409e-07
5.73565e-06
-2.57336e-07
5.77649e-06
-2.42396e-07
5.7833e-06
-1.78548e-07
5.77505e-06
-1.2686e-07
5.76264e-06
-9.55056e-08
5.7501e-06
-7.62752e-08
5.73914e-06
-6.44488e-08
5.73019e-06
-5.72491e-08
5.72231e-06
-5.11926e-08
5.71486e-06
-4.55755e-08
5.70794e-06
-4.06575e-08
5.70181e-06
-3.68536e-08
5.69664e-06
-3.415e-08
5.69174e-06
-3.0824e-08
-2.82855e-08
5.6868e-06
5.04576e-06
1.01105e-06
5.36491e-06
-9.54594e-08
5.35252e-06
-1.31741e-07
5.33288e-06
-2.37718e-07
5.29605e-06
-2.0563e-07
5.25015e-06
-1.32734e-07
5.20834e-06
-8.50624e-08
5.17426e-06
-6.15933e-08
5.14683e-06
-4.92345e-08
5.12472e-06
-4.27883e-08
5.10675e-06
-3.96861e-08
5.09101e-06
-3.59971e-08
5.07636e-06
-3.14871e-08
5.0627e-06
-2.7309e-08
5.05071e-06
-2.50137e-08
5.04077e-06
-2.42536e-08
5.03159e-06
-2.15589e-08
-1.85839e-08
5.02199e-06
5.4676e-06
5.37214e-06
5.24039e-06
5.00267e-06
4.79703e-06
4.66429e-06
4.57921e-06
4.51755e-06
4.46824e-06
4.42538e-06
4.38559e-06
4.34947e-06
4.3179e-06
4.29056e-06
4.26553e-06
4.24129e-06
4.21976e-06
4.20122e-06
2.49232e-08
-2.49421e-08
2.38849e-07
-2.13923e-07
4.9009e-07
-2.51275e-07
7.09232e-07
-2.1915e-07
8.75772e-07
-1.66569e-07
9.85777e-07
-1.1001e-07
1.04026e-06
-5.45111e-08
1.04152e-06
-1.2618e-09
9.94926e-07
4.65751e-08
9.10817e-07
8.41248e-08
8.04529e-07
1.06276e-07
6.95459e-07
1.09117e-07
6.03241e-07
9.22588e-08
5.37322e-07
6.5868e-08
4.85807e-07
5.15878e-08
4.24369e-07
6.11752e-08
3.36237e-07
8.82257e-08
2.0751e-07
1.28647e-07
3.02523e-08
1.77401e-07
-2.15085e-07
2.45601e-07
-5.19732e-07
3.04719e-07
-8.60983e-07
3.41378e-07
-1.22453e-06
3.63542e-07
-1.6011e-06
3.7658e-07
-1.98184e-06
3.80709e-07
-2.35668e-06
3.74831e-07
-2.71769e-06
3.60986e-07
-3.05967e-06
3.41963e-07
-3.37885e-06
3.19159e-07
-3.6729e-06
2.94051e-07
-3.94104e-06
2.68126e-07
-4.18358e-06
2.42539e-07
-4.40158e-06
2.17989e-07
-4.5965e-06
1.94923e-07
-4.77006e-06
1.73562e-07
-4.92405e-06
1.53985e-07
-5.0602e-06
1.36149e-07
-5.18013e-06
1.19937e-07
-5.28532e-06
1.05189e-07
-5.37704e-06
9.17226e-08
-5.4564e-06
7.93579e-08
-5.52432e-06
6.79233e-08
-5.58159e-06
5.7264e-08
-5.62883e-06
4.72473e-08
-5.6666e-06
3.77646e-08
-5.69533e-06
2.87298e-08
-5.7154e-06
2.00718e-08
-5.72716e-06
1.17623e-08
-5.7311e-06
3.9376e-09
-5.72806e-06
-3.03427e-09
-5.71915e-06
-8.90984e-09
-5.70514e-06
-1.40132e-08
-5.6864e-06
-1.87338e-08
-5.66321e-06
-2.31965e-08
-5.63572e-06
-2.74897e-08
-5.60408e-06
-3.16409e-08
-5.56841e-06
-3.56646e-08
-5.52884e-06
-3.95676e-08
-5.48549e-06
-4.33506e-08
-5.43848e-06
-4.70126e-08
-5.38793e-06
-5.05511e-08
-5.33397e-06
-5.39624e-08
-5.27672e-06
-5.72431e-08
-5.21633e-06
-6.03899e-08
-5.15293e-06
-6.34004e-08
-5.08666e-06
-6.62714e-08
-5.01766e-06
-6.89993e-08
-4.94608e-06
-7.15819e-08
-4.87206e-06
-7.40174e-08
-4.79576e-06
-7.63047e-08
-4.71732e-06
-7.8443e-08
-4.63689e-06
-8.04318e-08
-4.55461e-06
-8.22714e-08
-4.47065e-06
-8.39628e-08
-4.38515e-06
-8.5507e-08
-4.29824e-06
-8.69063e-08
-4.21008e-06
-8.81629e-08
-4.1208e-06
-8.92798e-08
-4.03054e-06
-9.02604e-08
-3.93943e-06
-9.11081e-08
-3.8476e-06
-9.18265e-08
-3.75518e-06
-9.24192e-08
-3.66229e-06
-9.28901e-08
-3.56905e-06
-9.32437e-08
-3.47556e-06
-9.34857e-08
-3.38194e-06
-9.36232e-08
-3.28827e-06
-9.3666e-08
-3.19465e-06
-9.36257e-08
-3.10114e-06
-9.35163e-08
-3.00778e-06
-9.33545e-08
-2.91463e-06
-9.31604e-08
-2.82167e-06
-9.2959e-08
-2.72891e-06
-9.27675e-08
-2.63634e-06
-9.25641e-08
-2.54408e-06
-9.22623e-08
-2.45232e-06
-9.17607e-08
-2.36134e-06
-9.09756e-08
-2.27142e-06
-8.9927e-08
-2.18264e-06
-8.87734e-08
-2.09502e-06
-8.76189e-08
-2.00856e-06
-8.64628e-08
-1.92327e-06
-8.52889e-08
-1.83918e-06
-8.40906e-08
-1.75631e-06
-8.28665e-08
-1.6747e-06
-8.16198e-08
-1.59434e-06
-8.03535e-08
-1.51527e-06
-7.90723e-08
-1.43749e-06
-7.7778e-08
-1.36102e-06
-7.64692e-08
-1.2859e-06
-7.51239e-08
-1.21214e-06
-7.3756e-08
-1.13975e-06
-7.23925e-08
-1.06872e-06
-7.10285e-08
-9.9906e-07
-6.96645e-08
-9.30759e-07
-6.83025e-08
-8.63816e-07
-6.6943e-08
-7.98228e-07
-6.55894e-08
-7.33985e-07
-6.4243e-08
-6.71079e-07
-6.29071e-08
-6.09499e-07
-6.15798e-08
-5.49237e-07
-6.02632e-08
-4.90278e-07
-5.89586e-08
-4.32606e-07
-5.76735e-08
-3.76195e-07
-5.64112e-08
-3.21027e-07
-5.51696e-08
-2.67084e-07
-5.39445e-08
-2.14345e-07
-5.27413e-08
-1.62789e-07
-5.15571e-08
-1.12411e-07
-5.03812e-08
-6.32015e-08
-4.92135e-08
-1.52903e-08
-4.79189e-08
3.14801e-08
-4.67776e-08
7.74162e-08
-4.59406e-08
1.22393e-07
-4.49764e-08
1.66311e-07
-4.39163e-08
2.09165e-07
-4.28517e-08
2.50968e-07
-4.1806e-08
2.91756e-07
-4.07899e-08
3.31561e-07
-3.98064e-08
3.70417e-07
-3.88524e-08
4.08348e-07
-3.79273e-08
4.45381e-07
-3.70283e-08
4.81538e-07
-3.61561e-08
5.16847e-07
-3.53086e-08
5.51331e-07
-3.44865e-08
5.85017e-07
-3.3688e-08
6.17926e-07
-3.2914e-08
6.50085e-07
-3.21633e-08
6.81518e-07
-3.14368e-08
7.12251e-07
-3.07338e-08
7.42307e-07
-3.00549e-08
7.7171e-07
-2.93997e-08
8.00481e-07
-2.87687e-08
8.28646e-07
-2.81615e-08
8.56228e-07
-2.75787e-08
8.8325e-07
-2.70199e-08
9.09736e-07
-2.64853e-08
9.35711e-07
-2.59744e-08
9.61198e-07
-2.54872e-08
9.86219e-07
-2.50223e-08
1.0108e-06
-2.4579e-08
1.03495e-06
-2.41548e-08
1.05869e-06
-2.37475e-08
1.08204e-06
-2.33523e-08
1.10501e-06
-2.29639e-08
1.12758e-06
-2.25735e-08
1.14975e-06
-2.21703e-08
1.17148e-06
-2.17378e-08
1.19274e-06
-2.12544e-08
1.21342e-06
-2.06885e-08
1.23342e-06
-1.99964e-08
1.25253e-06
-1.91135e-08
1.27047e-06
-1.79437e-08
1.2868e-06
-1.63404e-08
1.30083e-06
-1.40336e-08
1.31142e-06
-1.06023e-08
1.31595e-06
-4.53897e-09
1.30905e-06
6.89237e-09
1.27943e-06
2.96091e-08
7.24359e-08
1.20698e-06
2.53713e-07
-2.78666e-07
4.8877e-07
-4.48982e-07
6.37758e-07
-4.00276e-07
7.21805e-07
-3.03203e-07
7.60702e-07
-2.05479e-07
7.66027e-07
-1.15338e-07
7.44492e-07
-3.29886e-08
7.01783e-07
4.14452e-08
6.40868e-07
1.07481e-07
5.61689e-07
1.63306e-07
4.63445e-07
2.04516e-07
3.44414e-07
2.28148e-07
1.98327e-07
2.38361e-07
1.34531e-08
2.50693e-07
-2.20543e-07
2.85584e-07
-5.07794e-07
3.48366e-07
-8.46347e-07
4.2678e-07
-1.22518e-06
5.0749e-07
-1.62981e-06
5.82064e-07
-2.03046e-06
6.46304e-07
-2.4185e-06
6.92777e-07
-2.79326e-06
7.16162e-07
-3.14792e-06
7.18207e-07
-3.47447e-06
7.03137e-07
-3.7681e-06
6.7433e-07
-4.028e-06
6.34718e-07
-4.25469e-06
5.8767e-07
-4.44957e-06
5.36836e-07
-4.61559e-06
4.85169e-07
-4.75624e-06
4.34703e-07
-4.8749e-06
3.8678e-07
-4.97471e-06
3.42351e-07
-5.05854e-06
3.01818e-07
-5.12888e-06
2.65259e-07
-5.18783e-06
2.32508e-07
-5.2371e-06
2.03261e-07
-5.2781e-06
1.77148e-07
-5.31194e-06
1.53779e-07
-5.33953e-06
1.32774e-07
-5.36159e-06
1.13784e-07
-5.37873e-06
9.6499e-08
-5.39146e-06
8.06562e-08
-5.40023e-06
6.60349e-08
-5.40544e-06
5.24551e-08
-5.40744e-06
3.97711e-08
-5.40658e-06
2.78693e-08
-5.40318e-06
1.66729e-08
-5.39757e-06
6.14801e-09
-5.38988e-06
-3.74975e-09
-5.3797e-06
-1.32147e-08
-5.36613e-06
-2.24796e-08
-5.34857e-06
-3.1572e-08
-5.32687e-06
-4.04316e-08
-5.30102e-06
-4.90505e-08
-5.27107e-06
-5.74362e-08
-5.23712e-06
-6.55949e-08
-5.19925e-06
-7.35295e-08
-5.15758e-06
-8.12391e-08
-5.11221e-06
-8.87206e-08
-5.06326e-06
-9.59681e-08
-5.01083e-06
-1.02975e-07
-4.95506e-06
-1.09733e-07
-4.89607e-06
-1.16235e-07
-4.83399e-06
-1.22473e-07
-4.76894e-06
-1.28443e-07
-4.70108e-06
-1.34139e-07
-4.63052e-06
-1.39552e-07
-4.55743e-06
-1.44678e-07
-4.48193e-06
-1.49515e-07
-4.40418e-06
-1.54059e-07
-4.32431e-06
-1.58308e-07
-4.24248e-06
-1.62264e-07
-4.15883e-06
-1.65925e-07
-4.0735e-06
-1.69293e-07
-3.98664e-06
-1.7237e-07
-3.89838e-06
-1.75161e-07
-3.80888e-06
-1.77669e-07
-3.71825e-06
-1.799e-07
-3.62666e-06
-1.8186e-07
-3.53421e-06
-1.83555e-07
-3.44104e-06
-1.84993e-07
-3.34728e-06
-1.86181e-07
-3.25304e-06
-1.87129e-07
-3.15844e-06
-1.87846e-07
-3.06358e-06
-1.88342e-07
-2.96858e-06
-1.8863e-07
-2.87352e-06
-1.88721e-07
-2.77852e-06
-1.8863e-07
-2.68367e-06
-1.8837e-07
-2.58907e-06
-1.87954e-07
-2.49484e-06
-1.87393e-07
-2.40111e-06
-1.86694e-07
-2.30802e-06
-1.85852e-07
-2.21575e-06
-1.84837e-07
-2.12441e-06
-1.83606e-07
-2.03404e-06
-1.8213e-07
-1.94461e-06
-1.80405e-07
-1.85606e-06
-1.78474e-07
-1.76842e-06
-1.76415e-07
-1.68176e-06
-1.74279e-07
-1.59614e-06
-1.72079e-07
-1.51161e-06
-1.69818e-07
-1.42821e-06
-1.67495e-07
-1.34596e-06
-1.65115e-07
-1.26489e-06
-1.62684e-07
-1.18504e-06
-1.60206e-07
-1.10643e-06
-1.57688e-07
-1.02907e-06
-1.55133e-07
-9.53e-07
-1.52542e-07
-8.78209e-07
-1.49915e-07
-8.04697e-07
-1.47268e-07
-7.32479e-07
-1.44611e-07
-6.61557e-07
-1.4195e-07
-5.91934e-07
-1.39288e-07
-5.23609e-07
-1.36628e-07
-4.5658e-07
-1.33973e-07
-3.90843e-07
-1.31326e-07
-3.26394e-07
-1.28693e-07
-2.63222e-07
-1.2608e-07
-2.01316e-07
-1.23486e-07
-1.40668e-07
-1.20911e-07
-8.12669e-08
-1.18361e-07
-2.31044e-08
-1.15836e-07
3.3834e-08
-1.13351e-07
8.9577e-08
-1.10913e-07
1.4414e-07
-1.08509e-07
1.97533e-07
-1.06135e-07
2.49772e-07
-1.03797e-07
3.00883e-07
-1.01494e-07
3.50896e-07
-9.92295e-08
3.99976e-07
-9.70018e-08
4.48079e-07
-9.4885e-08
4.94992e-07
-9.28556e-08
5.40797e-07
-9.07812e-08
5.85566e-07
-8.86836e-08
6.29328e-07
-8.6614e-08
6.72113e-07
-8.45918e-08
7.13945e-07
-8.26232e-08
7.54848e-07
-8.07098e-08
7.94847e-07
-7.88496e-08
8.33963e-07
-7.70413e-08
8.72221e-07
-7.52831e-08
9.09641e-07
-7.35745e-08
9.46247e-07
-7.1914e-08
9.82061e-07
-7.03015e-08
1.01711e-06
-6.87356e-08
1.05141e-06
-6.72167e-08
1.08499e-06
-6.57435e-08
1.11787e-06
-6.43175e-08
1.15007e-06
-6.29372e-08
1.18163e-06
-6.16042e-08
1.21255e-06
-6.03174e-08
1.24286e-06
-5.90778e-08
1.27259e-06
-5.78847e-08
1.30175e-06
-5.67388e-08
1.33037e-06
-5.56395e-08
1.35847e-06
-5.45867e-08
1.38608e-06
-5.35797e-08
1.41321e-06
-5.26174e-08
1.43988e-06
-5.1698e-08
1.46612e-06
-5.08189e-08
1.49194e-06
-4.99761e-08
1.51736e-06
-4.91638e-08
1.54238e-06
-4.83741e-08
1.56701e-06
-4.75958e-08
1.59125e-06
-4.68132e-08
1.61508e-06
-4.6005e-08
1.63849e-06
-4.51415e-08
1.66141e-06
-4.41817e-08
1.68379e-06
-4.30678e-08
1.70551e-06
-4.17185e-08
1.72641e-06
-4.00153e-08
1.74625e-06
-3.77823e-08
1.76465e-06
-3.47485e-08
1.78107e-06
-3.04569e-08
1.79461e-06
-2.41448e-08
1.8043e-06
-1.42411e-08
1.80913e-06
2.05397e-09
1.80722e-06
3.15175e-08
8.81639e-08
1.79148e-06
2.44814e-07
-5.23483e-07
3.39857e-07
-5.44026e-07
3.55609e-07
-4.16036e-07
3.44261e-07
-2.91854e-07
3.16211e-07
-1.77437e-07
2.7172e-07
-7.08468e-08
2.10063e-07
2.86596e-08
1.30222e-07
1.21287e-07
3.10916e-08
2.06604e-07
-8.95199e-08
2.83915e-07
-2.37453e-07
3.52445e-07
-4.23356e-07
4.14038e-07
-6.60567e-07
4.75569e-07
-9.55507e-07
5.45612e-07
-1.29734e-06
6.27414e-07
-1.66418e-06
7.15194e-07
-2.03543e-06
7.98037e-07
-2.39462e-06
8.66688e-07
-2.72841e-06
9.15869e-07
-3.02563e-06
9.43546e-07
-3.28191e-06
9.49065e-07
-3.49906e-06
9.33331e-07
-3.68053e-06
8.99674e-07
-3.83011e-06
8.52721e-07
-3.95248e-06
7.967e-07
-4.05304e-06
7.3527e-07
-4.13707e-06
6.71696e-07
-4.20893e-06
6.08696e-07
-4.27203e-06
5.4827e-07
-4.32897e-06
4.91639e-07
-4.38159e-06
4.39397e-07
-4.431e-06
3.91766e-07
-4.47784e-06
3.48653e-07
-4.52236e-06
3.09775e-07
-4.56459e-06
2.7474e-07
-4.60444e-06
2.4311e-07
-4.64174e-06
2.14448e-07
-4.67629e-06
1.88338e-07
-4.70793e-06
1.64407e-07
-4.73647e-06
1.42327e-07
-4.76179e-06
1.21816e-07
-4.78377e-06
1.02639e-07
-4.80233e-06
8.45985e-08
-4.81741e-06
6.75314e-08
-4.82893e-06
5.12986e-08
-4.83685e-06
3.57819e-08
-4.84105e-06
2.08802e-08
-4.8414e-06
6.49994e-09
-4.83769e-06
-7.46541e-09
-4.82977e-06
-2.11296e-08
-4.8177e-06
-3.45504e-08
-4.80156e-06
-4.77147e-08
-4.78139e-06
-6.06009e-08
-4.75724e-06
-7.32003e-08
-4.72917e-06
-8.55061e-08
-4.69725e-06
-9.75125e-08
-4.66157e-06
-1.09212e-07
-4.62221e-06
-1.20597e-07
-4.57927e-06
-1.31656e-07
-4.53286e-06
-1.42378e-07
-4.48309e-06
-1.52751e-07
-4.43006e-06
-1.6276e-07
-4.3739e-06
-1.72394e-07
-4.31473e-06
-1.81641e-07
-4.25268e-06
-1.90494e-07
-4.18788e-06
-1.98941e-07
-4.12046e-06
-2.06972e-07
-4.05056e-06
-2.14581e-07
-3.97831e-06
-2.2176e-07
-3.90386e-06
-2.28508e-07
-3.82735e-06
-2.34821e-07
-3.74892e-06
-2.40697e-07
-3.6687e-06
-2.46138e-07
-3.58685e-06
-2.51145e-07
-3.5035e-06
-2.55721e-07
-3.41879e-06
-2.59871e-07
-3.33286e-06
-2.63602e-07
-3.24584e-06
-2.66919e-07
-3.15787e-06
-2.69833e-07
-3.06907e-06
-2.72352e-07
-2.97958e-06
-2.74486e-07
-2.88951e-06
-2.76248e-07
-2.79899e-06
-2.77649e-07
-2.70813e-06
-2.78702e-07
-2.61705e-06
-2.79423e-07
-2.52586e-06
-2.79825e-07
-2.43466e-06
-2.79924e-07
-2.34355e-06
-2.79735e-07
-2.25265e-06
-2.79272e-07
-2.16206e-06
-2.78549e-07
-2.07188e-06
-2.77577e-07
-1.98221e-06
-2.76361e-07
-1.89316e-06
-2.74901e-07
-1.80482e-06
-2.73184e-07
-1.71723e-06
-2.71194e-07
-1.63043e-06
-2.68928e-07
-1.54443e-06
-2.66405e-07
-1.45924e-06
-2.6366e-07
-1.37492e-06
-2.60738e-07
-1.29152e-06
-2.57675e-07
-1.20911e-06
-2.54491e-07
-1.12773e-06
-2.51197e-07
-1.04742e-06
-2.47803e-07
-9.68221e-07
-2.44319e-07
-8.90152e-07
-2.40753e-07
-8.13242e-07
-2.37116e-07
-7.37515e-07
-2.33415e-07
-6.62991e-07
-2.29657e-07
-5.89683e-07
-2.2585e-07
-5.17597e-07
-2.22002e-07
-4.46741e-07
-2.18124e-07
-3.77125e-07
-2.14227e-07
-3.08757e-07
-2.10319e-07
-2.41636e-07
-2.06409e-07
-1.75764e-07
-2.025e-07
-1.11139e-07
-1.98598e-07
-4.77563e-08
-1.94709e-07
1.43904e-08
-1.9084e-07
7.53057e-08
-1.86995e-07
1.34997e-07
-1.83178e-07
1.93478e-07
-1.79392e-07
2.50761e-07
-1.75643e-07
3.06861e-07
-1.71936e-07
3.61789e-07
-1.68278e-07
4.15551e-07
-1.64675e-07
4.68164e-07
-1.61122e-07
5.19648e-07
-1.57619e-07
5.70022e-07
-1.54171e-07
6.19307e-07
-1.50781e-07
6.67534e-07
-1.47458e-07
7.14746e-07
-1.44215e-07
7.60921e-07
-1.41062e-07
8.06028e-07
-1.37963e-07
8.50119e-07
-1.34871e-07
8.93236e-07
-1.318e-07
9.35401e-07
-1.28779e-07
9.76632e-07
-1.25824e-07
1.01695e-06
-1.22942e-07
1.05637e-06
-1.20133e-07
1.09492e-06
-1.17399e-07
1.13262e-06
-1.14737e-07
1.16948e-06
-1.12148e-07
1.20554e-06
-1.09629e-07
1.24081e-06
-1.07182e-07
1.27531e-06
-1.04804e-07
1.30906e-06
-1.02494e-07
1.3421e-06
-1.00254e-07
1.37444e-06
-9.80811e-08
1.40609e-06
-9.59771e-08
1.4371e-06
-9.39411e-08
1.46747e-06
-9.1974e-08
1.49722e-06
-9.00754e-08
1.52639e-06
-8.82458e-08
1.55499e-06
-8.64849e-08
1.58305e-06
-8.4793e-08
1.61058e-06
-8.31695e-08
1.63761e-06
-8.16143e-08
1.66415e-06
-8.01261e-08
1.69024e-06
-7.87033e-08
1.71588e-06
-7.73434e-08
1.7411e-06
-7.60424e-08
1.76592e-06
-7.47946e-08
1.79035e-06
-7.35919e-08
1.8144e-06
-7.24229e-08
1.83807e-06
-7.12717e-08
1.86138e-06
-7.01165e-08
1.8843e-06
-6.89272e-08
1.90682e-06
-6.76622e-08
1.9289e-06
-6.62643e-08
1.95048e-06
-6.46531e-08
1.97148e-06
-6.27157e-08
1.99175e-06
-6.0289e-08
2.0111e-06
-5.71327e-08
2.02923e-06
-5.2883e-08
2.04572e-06
-4.69506e-08
2.05996e-06
-3.83912e-08
2.07118e-06
-2.54571e-08
2.0785e-06
-5.2719e-09
2.08237e-06
2.76368e-08
8.56441e-08
2.08489e-06
9.2186e-08
-6.15672e-07
6.07085e-08
-5.12545e-07
1.16728e-08
-3.67005e-07
-4.5978e-08
-2.34199e-07
-1.16061e-07
-1.07359e-07
-2.02042e-07
1.51364e-08
-3.0693e-07
1.33543e-07
-4.33136e-07
2.47492e-07
-5.83259e-07
3.56724e-07
-7.60698e-07
4.61348e-07
-9.70209e-07
5.61955e-07
-1.21602e-06
6.59835e-07
-1.49659e-06
7.56147e-07
-1.80086e-06
8.49869e-07
-2.11001e-06
9.36565e-07
-2.40465e-06
1.00983e-06
-2.6706e-06
1.064e-06
-2.89984e-06
1.09594e-06
-3.08922e-06
1.10526e-06
-3.23937e-06
1.09371e-06
-3.35462e-06
1.06431e-06
-3.44173e-06
1.02045e-06
-3.50796e-06
9.6591e-07
-3.55976e-06
9.04523e-07
-3.60254e-06
8.39476e-07
-3.64066e-06
7.73387e-07
-3.6773e-06
7.08342e-07
-3.71447e-06
6.45864e-07
-3.75314e-06
5.86935e-07
-3.79355e-06
5.32058e-07
-3.83554e-06
4.81377e-07
-3.87858e-06
4.34809e-07
-3.92204e-06
3.92116e-07
-3.96524e-06
3.52978e-07
-4.00753e-06
3.17031e-07
-4.04833e-06
2.83907e-07
-4.08713e-06
2.53251e-07
-4.12353e-06
2.24732e-07
-4.15717e-06
1.98053e-07
-4.1878e-06
1.72951e-07
-4.21518e-06
1.49197e-07
-4.23914e-06
1.26598e-07
-4.25953e-06
1.04987e-07
-4.27622e-06
8.42248e-08
-4.28911e-06
6.41917e-08
-4.29812e-06
4.47871e-08
-4.30316e-06
2.59256e-08
-4.30419e-06
7.53068e-09
-4.30119e-06
-1.04709e-08
-4.29418e-06
-2.81397e-08
-4.28322e-06
-4.55027e-08
-4.26838e-06
-6.25563e-08
-4.24969e-06
-7.92877e-08
-4.22721e-06
-9.5684e-08
-4.20098e-06
-1.11732e-07
-4.17108e-06
-1.27416e-07
-4.13757e-06
-1.42721e-07
-4.10054e-06
-1.57631e-07
-4.06007e-06
-1.72126e-07
-4.01626e-06
-1.8619e-07
-3.9692e-06
-1.99804e-07
-3.91901e-06
-2.1295e-07
-3.8658e-06
-2.25606e-07
-3.80968e-06
-2.37758e-07
-3.75078e-06
-2.49395e-07
-3.68922e-06
-2.60502e-07
-3.62513e-06
-2.71066e-07
-3.55863e-06
-2.81076e-07
-3.48987e-06
-2.90525e-07
-3.41897e-06
-2.99407e-07
-3.34607e-06
-3.07719e-07
-3.27131e-06
-3.15457e-07
-3.19483e-06
-3.22624e-07
-3.11675e-06
-3.2922e-07
-3.03722e-06
-3.3525e-07
-2.95637e-06
-3.40719e-07
-2.87434e-06
-3.45636e-07
-2.79125e-06
-3.50008e-07
-2.70724e-06
-3.53848e-07
-2.62242e-06
-3.57166e-07
-2.53693e-06
-3.59977e-07
-2.45089e-06
-3.62294e-07
-2.3644e-06
-3.64133e-07
-2.27759e-06
-3.65511e-07
-2.19057e-06
-3.66445e-07
-2.10344e-06
-3.66953e-07
-2.01631e-06
-3.67052e-07
-1.92929e-06
-3.66762e-07
-1.84246e-06
-3.66098e-07
-1.75594e-06
-3.65077e-07
-1.6698e-06
-3.63712e-07
-1.58415e-06
-3.62015e-07
-1.49906e-06
-3.59993e-07
-1.4146e-06
-3.57646e-07
-1.33081e-06
-3.54977e-07
-1.24775e-06
-3.51995e-07
-1.16543e-06
-3.48722e-07
-1.0839e-06
-3.45188e-07
-1.00321e-06
-3.41429e-07
-9.23409e-07
-3.37475e-07
-8.4455e-07
-3.33349e-07
-7.66677e-07
-3.2907e-07
-6.89827e-07
-3.24653e-07
-6.14033e-07
-3.20112e-07
-5.39325e-07
-3.15462e-07
-4.65727e-07
-3.10714e-07