/*--------------------------------*- C++ -*----------------------------------*\
  =========                 |
  \\      /  F ield         | OpenFOAM: The Open Source CFD Toolbox
   \\    /   O peration     | Website:  https://openfoam.org
    \\  /    A nd           | Version:  8
     \\/     M anipulation  |
\*---------------------------------------------------------------------------*/
FoamFile
{
    version     2.0;
    format      ascii;
    class       volVectorField;
    location    "1500";
    object      U;
}
// * * * * * * * * * * * * * * * * * * * * * * * * * * * * * * * * * * * * * //

dimensions      [0 1 -1 0 0 0 0];

internalField   nonuniform List<vector> 
12225
(
(9.2745 -4.73371 0)
(13.1094 -1.71343 0)
(12.4778 -0.395198 0)
(11.2771 -0.0422041 0)
(10.6314 0.0141385 0)
(10.2979 -9.39308e-05 0)
(10.0776 -0.0165233 0)
(9.91227 -0.00288828 0)
(9.77909 0.0348744 0)
(9.66231 0.0428922 0)
(9.55575 0.0248823 0)
(9.45767 0.0021412 0)
(9.36676 -0.0227926 0)
(9.28211 -0.0302259 0)
(9.20232 -0.0217883 0)
(9.13253 -0.0212278 0)
(9.07015 -0.0210397 0)
(9.08961 -0.0276963 0)
(10.2592 0.0928019 0)
(10.7814 0.199339 0)
(10.9594 0.245656 0)
(10.7469 0.229144 0)
(10.5875 0.172969 0)
(10.4527 0.115535 0)
(10.33 0.0823315 0)
(10.2327 0.0647299 0)
(10.155 0.0524763 0)
(10.0894 0.0472332 0)
(10.0323 0.0469922 0)
(9.98212 0.0489899 0)
(9.93785 0.0517974 0)
(9.89833 0.0519426 0)
(9.8615 0.0483254 0)
(9.82885 0.0438438 0)
(9.79428 0.0300812 0)
(9.76827 0.010286 0)
(9.87768 -0.24504 0)
(9.74285 0.00579117 0)
(10.1971 0.125744 0)
(10.3245 0.179364 0)
(10.3564 0.161548 0)
(10.3311 0.120077 0)
(10.2777 0.0904942 0)
(10.2252 0.0746658 0)
(10.1812 0.065875 0)
(10.1438 0.0600284 0)
(10.1103 0.056208 0)
(10.0799 0.0536505 0)
(10.052 0.0511361 0)
(10.026 0.0487621 0)
(10.0023 0.0460756 0)
(9.98118 0.0417685 0)
(9.95915 0.0316718 0)
(9.93458 0.0135804 0)
(9.83416 -0.443933 0)
(9.57654 -0.163146 0)
(9.91603 0.0336708 0)
(10.0933 0.134225 0)
(10.1892 0.145473 0)
(10.2168 0.120739 0)
(10.205 0.0978953 0)
(10.1824 0.0839095 0)
(10.1599 0.0756295 0)
(10.1389 0.0697119 0)
(10.119 0.0651341 0)
(10.1001 0.0616372 0)
(10.0821 0.058613 0)
(10.0648 0.0562293 0)
(10.0483 0.0538551 0)
(10.0325 0.0501457 0)
(10.0148 0.0424199 0)
(9.99178 0.0306159 0)
(9.87825 -0.387476 0)
(9.61653 -0.196147 0)
(9.81623 -0.0186699 0)
(9.96136 0.0916133 0)
(10.0698 0.122197 0)
(10.1219 0.113628 0)
(10.1354 0.0992644 0)
(10.1332 0.0884211 0)
(10.1257 0.0809484 0)
(10.1162 0.0753964 0)
(10.1056 0.0711239 0)
(10.0946 0.0678817 0)
(10.0833 0.0652542 0)
(10.0718 0.0631568 0)
(10.0601 0.0610452 0)
(10.0477 0.0581076 0)
(10.0328 0.0530827 0)
(10.0125 0.0469057 0)
(9.91439 -0.28804 0)
(9.68304 -0.185176 0)
(9.78717 -0.0532072 0)
(9.88917 0.0509996 0)
(9.98796 0.0936803 0)
(10.0476 0.0992042 0)
(10.0751 0.0938745 0)
(10.0861 0.0875182 0)
(10.0892 0.0821205 0)
(10.0879 0.0777645 0)
(10.0842 0.0743508 0)
(10.0789 0.0717601 0)
(10.0726 0.069742 0)
(10.0654 0.0681724 0)
(10.0572 0.0667266 0)
(10.0476 0.0650445 0)
(10.0354 0.0627849 0)
(10.0185 0.0611729 0)
(9.93763 -0.214041 0)
(9.74856 -0.167535 0)
(9.79244 -0.0752151 0)
(9.85608 0.0162209 0)
(9.93595 0.0644224 0)
(9.99281 0.0805956 0)
(10.0261 0.0835616 0)
(10.0447 0.0822437 0)
(10.0546 0.0797795 0)
(10.0593 0.0772876 0)
(10.0606 0.075176 0)
(10.0596 0.0735593 0)
(10.057 0.0723897 0)
(10.053 0.0716359 0)
(10.0477 0.0711916 0)
(10.0407 0.0710172 0)
(10.0312 0.0712798 0)
(10.0182 0.0731542 0)
(9.95263 -0.167334 0)
(9.79947 -0.149676 0)
(9.81177 -0.084641 0)
(9.84959 -0.00620992 0)
(9.9114 0.0419323 0)
(9.96107 0.0638975 0)
(9.99432 0.0725503 0)
(10.0156 0.0752865 0)
(10.0288 0.0755301 0)
(10.0367 0.0749037 0)
(10.041 0.074148 0)
(10.0427 0.0735821 0)
(10.0425 0.0733236 0)
(10.0408 0.0734493 0)
(10.0375 0.0740068 0)
(10.0325 0.0751376 0)
(10.0254 0.0772063 0)
(10.0157 0.0812064 0)
(9.96406 -0.132089 0)
(9.84003 -0.131988 0)
(9.83337 -0.0876896 0)
(9.85306 -0.0213323 0)
(9.89927 0.024416 0)
(9.94102 0.0495135 0)
(9.97207 0.0621238 0)
(9.99385 0.0680772 0)
(10.0086 0.0706963 0)
(10.0184 0.0717949 0)
(10.0246 0.072318 0)
(10.0282 0.072754 0)
(10.0298 0.0733611 0)
(10.0297 0.0743199 0)
(10.028 0.0757882 0)
(10.0248 0.0780091 0)
(10.0197 0.0814124 0)
(10.0129 0.0868096 0)
(9.97418 -0.100205 0)
(9.87757 -0.11239 0)
(9.85857 -0.0853659 0)
(9.86387 -0.0323325 0)
(9.89487 0.00892936 0)
(9.92743 0.0352245 0)
(9.95439 0.0507175 0)
(9.97502 0.0594974 0)
(9.99015 0.0644446 0)
(10.0009 0.0673598 0)
(10.0085 0.0692986 0)
(10.0135 0.0708785 0)
(10.0166 0.0724773 0)
(10.018 0.0743702 0)
(10.0179 0.076803 0)
(10.0164 0.0800777 0)
(10.0136 0.0846195 0)
(10.0095 0.0910449 0)
(9.98253 -0.0727091 0)
(9.91035 -0.0921961 0)
(9.88507 -0.0782439 0)
(9.88001 -0.0386071 0)
(9.89746 -0.00337344 0)
(9.92043 0.0221695 0)
(9.94196 0.039185 0)
(9.95999 0.0500817 0)
(9.97425 0.0570569 0)
(9.98518 0.0617057 0)
(9.99339 0.0650803 0)
(9.99941 0.0678644 0)
(10.0037 0.0705174 0)
(10.0064 0.0733858 0)
(10.0078 0.0767712 0)
(10.0081 0.0809935 0)
(10.0073 0.0864262 0)
(10.0058 0.0935053 0)
(9.98894 -0.0502566 0)
(9.93733 -0.0723779 0)
(9.91073 -0.0674478 0)
(9.89917 -0.0399823 0)
(9.90566 -0.0116492 0)
(9.91955 0.0114529 0)
(9.93496 0.0285314 0)
(9.94934 0.0405812 0)
(9.96169 0.0490254 0)
(9.97188 0.0551126 0)
(9.98009 0.0597808 0)
(9.98659 0.0637041 0)
(9.99163 0.0673727 0)
(9.99544 0.0711659 0)
(9.9982 0.0754049 0)
(10.0001 0.0803922 0)
(10.0013 0.086428 0)
(10.0021 0.0937957 0)
(9.99348 -0.0329085 0)
(9.9582 -0.0538108 0)
(9.93368 -0.0542831 0)
(9.91898 -0.0367867 0)
(9.91755 -0.0154527 0)
(9.92366 0.00399575 0)
(9.93301 0.0197765 0)
(9.94318 0.0318777 0)
(9.9529 0.0410118 0)
(9.96163 0.0480218 0)
(9.96922 0.0536487 0)
(9.9757 0.0584851 0)
(9.98118 0.0629939 0)
(9.98578 0.067543 0)
(9.98965 0.072436 0)
(9.99294 0.0779329 0)
(9.99587 0.0842557 0)
(9.99869 0.0915756 0)
(9.99643 -0.0202024 0)
(9.97327 -0.0372095 0)
(9.95261 -0.0400449 0)
(9.93731 -0.02981 0)
(9.93089 -0.0148227 0)
(9.93102 0.000367519 0)
(9.93504 0.0137754 0)
(9.94104 0.024844 0)
(9.94782 0.0337602 0)
(9.95465 0.0409925 0)
(9.96117 0.0470512 0)
(9.96724 0.0523964 0)
(9.97281 0.0574132 0)
(9.9779 0.0624167 0)
(9.98261 0.067661 0)
(9.98704 0.0733483 0)
(9.99135 0.0796294 0)
(9.99573 0.0865975 0)
(9.99816 -0.0112875 0)
(9.9833 -0.0229302 0)
(9.96682 -0.0257621 0)
(9.95243 -0.0200759 0)
(9.94344 -0.0102408 0)
(9.93952 0.000676087 0)
(9.9394 0.0110312 0)
(9.94183 0.0201453 0)
(9.94582 0.0279266 0)
(9.95069 0.0345733 0)
(9.95597 0.0403871 0)
(9.96139 0.0456777 0)
(9.96681 0.0507233 0)
(9.97216 0.0557558 0)
(9.97744 0.0609593 0)
(9.9827 0.0664702 0)
(9.98803 0.072378 0)
(9.99354 0.0787233 0)
(9.99906 -0.00508066 0)
(9.98922 -0.0107803 0)
(9.97612 -0.0119161 0)
(9.96309 -0.00848178 0)
(9.9531 -0.00243352 0)
(9.94685 0.00457996 0)
(9.94399 0.0115589 0)
(9.94384 0.0180222 0)
(9.9457 0.0238405 0)
(9.94896 0.0290823 0)
(9.95317 0.0339031 0)
(9.95799 0.0384797 0)
(9.96321 0.0429767 0)
(9.96868 0.0475314 0)
(9.97435 0.0522481 0)
(9.98019 0.0571965 0)
(9.98623 0.062412 0)
(9.99249 0.067897 0)
(9.99942 -0.000367023 0)
(9.9918 0.000152353 0)
(9.98042 0.00183326 0)
(9.96821 0.00459489 0)
(9.9579 0.00792156 0)
(9.95061 0.0114032 0)
(9.94642 0.0148185 0)
(9.94498 0.0180905 0)
(9.94576 0.0212359 0)
(9.94825 0.0243208 0)
(9.95198 0.0274265 0)
(9.95661 0.03063 0)
(9.96186 0.0339937 0)
(9.96757 0.0375617 0)
(9.97362 0.0413577 0)
(9.97993 0.0453866 0)
(9.98648 0.049634 0)
(9.99325 0.0540704 0)
(9.99935 0.00408501 0)
(9.9911 0.0111739 0)
(9.97897 0.0161345 0)
(9.96616 0.0187382 0)
(9.95552 0.0196147 0)
(9.94819 0.0195486 0)
(9.94419 0.019162 0)
(9.94311 0.018865 0)
(9.94438 0.0188979 0)
(9.94741 0.0193782 0)
(9.95174 0.0203463 0)
(9.95698 0.0217971 0)
(9.96287 0.0236996 0)
(9.96919 0.0260091 0)
(9.97583 0.0286743 0)
(9.98269 0.0316384 0)
(9.98974 0.0348436 0)
(9.99692 0.0382293 0)
(9.99882 0.00972996 0)
(9.98675 0.0240496 0)
(9.97122 0.0318478 0)
(9.95641 0.0332955 0)
(9.94558 0.0307064 0)
(9.93942 0.0263528 0)
(9.93734 0.0217506 0)
(9.93845 0.017742 0)
(9.94186 0.0146978 0)
(9.94687 0.0127135 0)
(9.95292 0.0117335 0)
(9.95963 0.0116387 0)
(9.96674 0.0122899 0)
(9.97408 0.0135514 0)
(9.98155 0.0152982 0)
(9.98908 0.0174209 0)
(9.99665 0.0198228 0)
(10.0042 0.0224204 0)
(9.99757 0.0182101 0)
(9.97773 0.040456 0)
(9.95664 0.0495788 0)
(9.93945 0.0474806 0)
(9.92961 0.0394263 0)
(9.92659 0.0296502 0)
(9.92848 0.0204938 0)
(9.93357 0.0129705 0)
(9.94055 0.00735241 0)
(9.94856 0.00352102 0)
(9.95704 0.00122577 0)
(9.96567 0.000176575 0)
(9.97428 0.000109447 0)
(9.98276 0.000791297 0)
(9.99108 0.00203539 0)
(9.99925 0.00369058 0)
(10.0073 0.00563371 0)
(10.0151 0.00776879 0)
(9.99502 0.0318146 0)
(9.96177 0.0621343 0)
(9.93372 0.0695526 0)
(9.91534 0.0601167 0)
(9.90932 0.0439533 0)
(9.91249 0.0276635 0)
(9.92084 0.0139977 0)
(9.93162 0.0036437 0)
(9.94322 -0.00363777 0)
(9.95479 -0.00836998 0)
(9.96594 -0.011127 0)
(9.97652 -0.0123919 0)
(9.9865 -0.0125693 0)
(9.99594 -0.0119627 0)
(10.0049 -0.0108045 0)
(10.0135 -0.00926773 0)
(10.0217 -0.00747824 0)
(10.0296 -0.00553944 0)
(9.99018 0.0534619 0)
(9.93561 0.0901524 0)
(9.90098 0.0906287 0)
(9.88515 0.0687582 0)
(9.8878 0.041821 0)
(9.90121 0.0186616 0)
(9.91856 0.00142158 0)
(9.93627 -0.0103909 0)
(9.95285 -0.0179349 0)
(9.96786 -0.022387 0)
(9.98129 -0.0246442 0)
(9.99332 -0.0253856 0)
(10.0042 -0.0250939 0)
(10.0141 -0.024127 0)
(10.0232 -0.0227228 0)
(10.0318 -0.0210353 0)
(10.0399 -0.019184 0)
(10.0476 -0.0172494 0)
(9.9819 0.0862471 0)
(9.89548 0.124258 0)
(9.85817 0.109884 0)
(9.85209 0.0697749 0)
(9.87033 0.0303398 0)
(9.89842 0.00145174 0)
(9.92658 -0.0171999 0)
(9.95135 -0.0283139 0)
(9.9722 -0.034411 0)
(9.9896 -0.0373201 0)
(10.0042 -0.0381971 0)
(10.0167 -0.0377938 0)
(10.0276 -0.0366113 0)
(10.0372 -0.0349944 0)
(10.0459 -0.0331433 0)
(10.0539 -0.0311573 0)
(10.0613 -0.0291195 0)
(10.0684 -0.027099 0)
(9.96925 0.13399 0)
(9.83823 0.163089 0)
(9.80793 0.122591 0)
(9.82311 0.0588006 0)
(9.86513 0.00730955 0)
(9.91139 -0.024024 0)
(9.95035 -0.0405859 0)
(9.98049 -0.0483636 0)
(10.0034 -0.0512237 0)
(10.0212 -0.0515239 0)
(10.0353 -0.0504014 0)
(10.0469 -0.0485025 0)
(10.0565 -0.0462429 0)
(10.0648 -0.0438787 0)
(10.0722 -0.041548 0)
(10.0789 -0.0392309 0)
(10.0852 -0.0369729 0)
(10.0911 -0.034857 0)
(9.94951 0.207141 0)
(9.76128 0.207022 0)
(9.75726 0.123478 0)
(9.81042 0.0320115 0)
(9.88382 -0.02786 0)
(9.94874 -0.0559927 0)
(9.99527 -0.0660687 0)
(10.0266 -0.0677936 0)
(10.048 -0.0659582 0)
(10.063 -0.0631736 0)
(10.0743 -0.059865 0)
(10.083 -0.0564842 0)
(10.09 -0.0531266 0)
(10.0957 -0.0501449 0)
(10.1009 -0.0474761 0)
(10.1056 -0.0449255 0)
(10.11 -0.0425147 0)
(10.1141 -0.0403481 0)
(9.91094 0.322718 0)
(9.65923 0.254545 0)
(9.71887 0.107407 0)
(9.83329 -0.0119228 0)
(9.94173 -0.072652 0)
(10.0199 -0.0901612 0)
(10.0662 -0.0893195 0)
(10.0918 -0.0831324 0)
(10.1058 -0.0760207 0)
(10.1141 -0.0695985 0)
(10.1197 -0.0644592 0)
(10.1236 -0.0601004 0)
(10.1261 -0.0563589 0)
(10.1279 -0.0531263 0)
(10.1295 -0.0505761 0)
(10.1313 -0.0482137 0)
(10.1329 -0.0456127 0)
(10.1345 -0.0434953 0)
(9.84404 0.43511 0)
(9.53798 0.261026 0)
(9.7269 0.0591349 0)
(9.92367 -0.0731154 0)
(10.0584 -0.121552 0)
(10.1345 -0.120191 0)
(10.1665 -0.105279 0)
(10.1758 -0.0906126 0)
(10.1759 -0.0784657 0)
(10.1726 -0.0703545 0)
(10.1686 -0.0644089 0)
(10.1647 -0.0598227 0)
(10.1606 -0.0555408 0)
(10.1564 -0.0521972 0)
(10.1529 -0.0503126 0)
(10.1506 -0.048217 0)
(10.1482 -0.0456342 0)
(10.1458 -0.0439151 0)
(9.83598 0.319666 0)
(9.55021 0.0912513 0)
(9.91739 -0.0687254 0)
(10.1507 -0.160112 0)
(10.2634 -0.172136 0)
(10.3032 -0.142727 0)
(10.2978 -0.112095 0)
(10.276 -0.089951 0)
(10.2516 -0.0753729 0)
(10.2302 -0.0674508 0)
(10.2132 -0.0619145 0)
(10.1986 -0.0575196 0)
(10.1843 -0.0523918 0)
(10.1703 -0.0482345 0)
(10.1594 -0.0467724 0)
(10.1504 -0.043947 0)
(10.1409 -0.0396704 0)
(10.1324 -0.0389265 0)
(10.2049 -0.0633775 0)
(10.4095 -0.191706 0)
(10.7164 -0.282558 0)
(10.6879 -0.282287 0)
(10.6191 -0.230103 0)
(10.5417 -0.163669 0)
(10.4545 -0.117043 0)
(10.3763 -0.0924957 0)
(10.3136 -0.0798687 0)
(10.2654 -0.0678553 0)
(10.2261 -0.0589731 0)
(10.1924 -0.053932 0)
(10.1597 -0.0536941 0)
(10.1305 -0.0530296 0)
(10.1086 -0.047524 0)
(10.0852 -0.0454795 0)
(10.0625 -0.0482516 0)
(10.0457 -0.0447268 0)
(9.41631 4.45107 0)
(12.7294 2.07612 0)
(12.5649 0.621213 0)
(11.569 0.127657 0)
(10.9309 0.00343461 0)
(10.5866 -0.00206762 0)
(10.3638 0.0123127 0)
(10.2021 0.0302296 0)
(10.0796 0.0412441 0)
(9.97712 0.0356889 0)
(9.88537 0.0255647 0)
(9.7981 0.0207409 0)
(9.72381 0.0274793 0)
(9.66289 0.0262717 0)
(9.60005 0.00145937 0)
(9.54295 -0.00539881 0)
(9.49687 0.00930023 0)
(9.44929 -0.00384015 0)
(-0.0275207 0.0934361 0)
(0.137014 -0.183494 0)
(0.324977 -0.305881 0)
(0.52546 -0.315105 0)
(0.702934 -0.272063 0)
(0.833483 -0.211073 0)
(0.909801 -0.146335 -8.60259e-20)
(0.940382 -0.082491 8.66499e-20)
(0.91951 -0.0201689 0)
(0.858826 0.034541 9.18709e-20)
(0.771669 0.0739637 0)
(0.672407 0.0920087 0)
(0.578483 0.087727 0)
(0.505682 0.0666657 -1.43216e-19)
(0.455731 0.0377118 0)
(0.412391 0.00997501 0)
(0.352863 -0.00897231 1.87947e-19)
(0.26271 -0.00867998 0)
(0.135174 0.0293019 0)
(-0.0448076 0.112942 0)
(-0.300513 0.186486 -1.64831e-19)
(-0.594209 0.235257 0)
(-0.915627 0.266816 -7.62452e-20)
(-1.25188 0.296033 0)
(-1.5913 0.323653 0)
(-1.93105 0.336463 -4.13251e-20)
(-2.26347 0.335615 0)
(-2.58058 0.326493 3.45425e-20)
(-2.87936 0.310356 0)
(-3.15638 0.289556 -3.13431e-20)
(-3.41073 0.26642 0)
(-3.64203 0.24254 0)
(-3.851 0.218949 0)
(-4.03874 0.196355 0)
(-4.20669 0.175133 0)
(-4.35641 0.155491 2.82309e-20)
(-4.48948 0.137463 0)
(-4.60739 0.120978 -5.5573e-20)
(-4.71152 0.105909 0)
(-4.80309 0.0920969 5.47743e-20)
(-4.88315 0.0793793 0)
(-4.95261 0.0676042 0)
(-5.01221 0.0566437 -5.35522e-20)
(-5.06257 0.0464011 0)
(-5.10421 0.036817 -5.26604e-20)
(-5.13753 0.0278745 5.21825e-20)
(-5.16293 0.0196177 0)
(-5.1808 0.0121944 5.11557e-20)
(-5.19141 0.00585259 5.06032e-20)
(-5.19494 0.000802679 0)
(-5.19262 -0.00315103 0)
(-5.1857 -0.00644942 0)
(-5.17431 -0.00937195 0)
(-5.15879 -0.0120827 0)
(-5.13929 -0.0146514 -4.61837e-20)
(-5.11595 -0.0170915 0)
(-5.08888 -0.0194145 4.43185e-20)
(-5.05818 -0.0216292 0)
(-5.02397 -0.023738 0)
(-4.98633 -0.0257426 -4.11404e-20)
(-4.94538 -0.0276435 0)
(-4.90122 -0.0294407 3.87648e-20)
(-4.85396 -0.031134 0)
(-4.80371 -0.0327232 0)
(-4.7506 -0.0342085 0)
(-4.69474 -0.0355895 -3.33853e-20)
(-4.63625 -0.0368669 0)
(-4.57526 -0.0380415 0)
(-4.5119 -0.0391138 -2.87879e-20)
(-4.44629 -0.0400847 0)
(-4.37857 -0.0409557 -2.54466e-20)
(-4.30887 -0.0417279 0)
(-4.23732 -0.0424033 0)
(-4.16405 -0.0429835 0)
(-4.08919 -0.0434707 1.80692e-20)
(-4.01288 -0.0438669 0)
(-3.93523 -0.0441744 0)
(-3.85639 -0.0443955 1.18873e-20)
(-3.77646 -0.0445327 9.69346e-21)
(-3.69559 -0.0445887 0)
(-3.61387 -0.0445664 5.09167e-21)
(-3.53144 -0.0444691 0)
(-3.44839 -0.0443009 3.67376e-22)
(-3.36485 -0.0440667 0)
(-3.2809 -0.0437731 -1.01224e-20)
(-3.19665 -0.0434292 0)
(-3.11219 -0.0430478 2.13651e-20)
(-3.02759 -0.0426478 0)
(-2.94293 -0.0422574 0)
(-2.85826 -0.0419194 0)
(-2.77362 -0.0416963 -4.65573e-20)
(-2.68904 -0.0416708 0)
(-2.60452 -0.0419326 6.08327e-20)
(-2.52003 -0.0425377 0)
(-2.43554 -0.0434275 -7.65028e-20)
(-2.35129 -0.0443302 -8.48816e-20)
(-2.26752 -0.0447849 -9.35901e-20)
(-2.1845 -0.0445768 0)
(-2.10238 -0.0439719 0)
(-2.0212 -0.0432734 0)
(-1.94096 -0.0425684 0)
(-1.86167 -0.0418681 0)
(-1.78336 -0.0411736 0)
(-1.70604 -0.0404866 0)
(-1.62975 -0.0398109 0)
(-1.55451 -0.0391521 1.92703e-19)
(-1.48033 -0.0385175 2.07024e-19)
(-1.40723 -0.0379124 0)
(-1.33522 -0.0373258 0)
(-1.26433 -0.0367004 0)
(-1.1946 -0.0360426 2.74293e-19)
(-1.12603 -0.0354085 0)
(-1.05862 -0.0347928 0)
(-0.992367 -0.0341971 0)
(-0.927284 -0.033623 0)
(-0.863367 -0.0330724 -3.90935e-19)
(-0.800613 -0.032548 0)
(-0.73902 -0.0320528 0)
(-0.67858 -0.0315905 4.89115e-19)
(-0.619287 -0.0311625 -5.28813e-19)
(-0.561134 -0.0307722 0)
(-0.504112 -0.0304303 -6.22424e-19)
(-0.44821 -0.0301604 0)
(-0.393409 -0.0300072 7.41402e-19)
(-0.339686 -0.0299817 0)
(-0.287027 -0.0300452 0)
(-0.235419 -0.0301849 0)
(-0.184832 -0.0304116 0)
(-0.13524 -0.030741 0)
(-0.086689 -0.0311917 -2.84651e-18)
(-0.0393883 -0.0316458 -3.27718e-18)
(0.00671415 -0.0313467 0)
(0.0521284 -0.0298495 0)
(0.0968653 -0.0279993 0)
(0.140784 -0.0262814 2.68482e-18)
(0.18379 -0.0247487 0)
(0.225865 -0.0233753 0)
(0.26703 -0.0221378 0)
(0.307318 -0.0210164 2.03997e-18)
(0.346759 -0.0199937 -1.93369e-18)
(0.385383 -0.0190556 0)
(0.423214 -0.0181906 0)
(0.460278 -0.0173894 -1.68692e-18)
(0.496599 -0.0166447 -1.62225e-18)
(0.5322 -0.0159502 0)
(0.567103 -0.0153008 0)
(0.601333 -0.0146923 1.46397e-18)
(0.63491 -0.014121 -1.42049e-18)
(0.667858 -0.0135838 0)
(0.700199 -0.0130781 0)
(0.731957 -0.0126016 -1.31021e-18)
(0.763153 -0.0121523 0)
(0.793811 -0.0117284 0)
(0.823954 -0.0113283 -1.2227e-18)
(0.853604 -0.0109506 0)
(0.882786 -0.0105941 -1.17362e-18)
(0.911523 -0.0102576 0)
(0.939837 -0.0099401 0)
(0.967752 -0.00964045 0)
(0.995291 -0.00935762 1.09162e-18)
(1.02247 -0.00909049 0)
(1.04932 -0.00883782 0)
(1.07585 -0.00859813 0)
(1.10208 -0.00836964 0)
(1.12802 -0.0081501 0)
(1.15366 -0.00793659 0)
(1.17901 -0.00772523 9.828e-19)
(1.20404 -0.00751089 9.69878e-19)
(1.22871 -0.00728656 0)
(1.25296 -0.00704271 0)
(1.27667 -0.00676582 0)
(1.29968 -0.0064373 -9.24526e-19)
(1.32176 -0.00602742 0)
(1.34249 -0.00549745 1.81394e-18)
(1.36143 -0.00476037 -1.80057e-18)
(1.37717 -0.00372473 -1.79184e-18)
(1.38976 -0.00195341 1.79014e-18)
(1.39018 0.00132815 -1.79551e-18)
(1.38749 0.00807541 1.80884e-18)
(1.30822 0.0198889 0)
(0.0963146 -0.268964 0)
(0.334068 -0.681252 0)
(0.514176 -0.706511 1.57372e-19)
(0.611817 -0.571341 0)
(0.662815 -0.408896 -1.11147e-19)
(0.683255 -0.253825 -1.08112e-19)
(0.677229 -0.112175 -5.62587e-20)
(0.646856 0.0155826 -5.62041e-20)
(0.603879 0.125401 0)
(0.544685 0.211923 -6.08129e-20)
(0.467875 0.267402 0)
(0.373392 0.283205 0)
(0.257592 0.256438 1.70506e-19)
(0.110265 0.211436 9.82932e-20)
(-0.0747563 0.206279 -1.84482e-19)
(-0.301019 0.271822 -1.43813e-19)
(-0.578992 0.383393 -5.7196e-20)
(-0.904918 0.513229 0)
(-1.2585 0.642592 0)
(-1.6166 0.756423 0)
(-1.97222 0.841983 -2.8578e-20)
(-2.31781 0.895554 0)
(-2.64771 0.919042 6.90695e-20)
(-2.95443 0.915465 0)
(-3.23394 0.889032 0)
(-3.48458 0.844867 1.98212e-20)
(-3.70496 0.788302 0)
(-3.8959 0.724867 -1.97633e-20)
(-4.0593 0.658794 -4.18007e-20)
(-4.19869 0.592793 2.017e-20)
(-4.31698 0.528967 0)
(-4.41708 0.469099 0)
(-4.5017 0.414018 0)
(-4.57323 0.364079 -4.42619e-20)
(-4.63374 0.31924 -4.47682e-20)
(-4.68492 0.279229 -2.21913e-20)
(-4.72815 0.243637 0)
(-4.76454 0.211982 4.53103e-20)
(-4.79498 0.183764 0)
(-4.82019 0.158504 -4.5882e-20)
(-4.84075 0.13576 0)
(-4.85716 0.115139 0)
(-4.86984 0.0962992 4.60924e-20)
(-4.87916 0.0789506 0)
(-4.88546 0.0628524 1.38178e-19)
(-4.88905 0.0478105 -4.56129e-20)
(-4.89023 0.0336893 0)
(-4.88921 0.0204584 -4.49437e-20)
(-4.88628 0.00823393 -4.44871e-20)
(-4.88169 -0.00282191 0)
(-4.87455 -0.012765 0)
(-4.86372 -0.0218911 0)
(-4.84921 -0.0304435 0)
(-4.83092 -0.0385367 0)
(-4.80888 -0.0462403 4.0221e-20)
(-4.78314 -0.0535914 7.91724e-20)
(-4.75378 -0.060611 -3.84437e-20)
(-4.72089 -0.0673104 0)
(-4.68456 -0.0736953 7.34939e-20)
(-4.64487 -0.0797685 -3.59706e-20)
(-4.60193 -0.0855305 0)
(-4.55584 -0.0909812 -3.32706e-20)
(-4.5067 -0.0961206 0)
(-4.45462 -0.10095 0)
(-4.39972 -0.105471 -5.98993e-20)
(-4.34211 -0.109683 2.8389e-20)
(-4.28191 -0.113588 -5.47076e-20)
(-4.21925 -0.117187 5.19887e-20)
(-4.15424 -0.120485 2.42973e-20)
(-4.08701 -0.123487 0)
(-4.01769 -0.126196 2.13643e-20)
(-3.94641 -0.128619 0)
(-3.87329 -0.130763 0)
(-3.79847 -0.132635 0)
(-3.72207 -0.134243 1.56378e-20)
(-3.64421 -0.135595 0)
(-3.56503 -0.136702 2.37726e-20)
(-3.48465 -0.137572 -2.9983e-20)
(-3.40318 -0.138216 -7.94457e-21)
(-3.32075 -0.138645 0)
(-3.23748 -0.138871 -4.14385e-21)
(-3.15347 -0.138903 0)
(-3.06883 -0.138756 -2.96756e-22)
(-2.98367 -0.138439 0)
(-2.8981 -0.137966 8.10927e-21)
(-2.8122 -0.137349 -2.35605e-20)
(-2.72608 -0.136598 -1.69627e-20)
(-2.63983 -0.135726 0)
(-2.55353 -0.134738 0)
(-2.46727 -0.133642 0)
(-2.38116 -0.132437 3.61811e-20)
(-2.2953 -0.131113 0)
(-2.20984 -0.129643 -4.66529e-20)
(-2.12492 -0.127971 0)
(-2.04068 -0.126045 1.71872e-19)
(-1.95719 -0.12389 6.36296e-20)
(-1.87446 -0.121607 6.96612e-20)
(-1.79245 -0.119302 0)
(-1.71111 -0.117033 0)
(-1.63052 -0.114799 0)
(-1.55073 -0.112577 0)
(-1.4718 -0.110352 0)
(-1.39377 -0.108122 2.19489e-19)
(-1.31667 -0.105885 2.34981e-19)
(-1.24053 -0.103645 0)
(-1.16537 -0.101406 -1.3476e-19)
(-1.09123 -0.0991703 -1.43539e-19)
(-1.01813 -0.0969391 0)
(-0.946087 -0.0947149 -3.23034e-19)
(-0.875125 -0.0925018 0)
(-0.805235 -0.0903136 1.81323e-19)
(-0.736426 -0.088156 0)
(-0.668709 -0.0860292 0)
(-0.602089 -0.0839357 -4.34449e-19)
(-0.536568 -0.0818767 0)
(-0.472146 -0.079854 2.44831e-19)
(-0.408825 -0.0778706 0)
(-0.346602 -0.0759321 0)
(-0.285471 -0.0740473 2.89768e-19)
(-0.225424 -0.0722144 3.09072e-19)
(-0.166453 -0.0704278 0)
(-0.108554 -0.0686907 -3.46365e-19)
(-0.0517312 -0.067003 0)
(0.00401865 -0.0653564 3.82631e-19)
(0.0587368 -0.063744 7.66176e-19)
(0.112457 -0.0621769 0)
(0.165179 -0.0606699 0)
(0.216905 -0.0592276 0)
(0.267647 -0.0578477 0)
(0.31744 -0.0565325 7.09229e-19)
(0.366354 -0.0552707 2.09642e-18)
(0.414474 -0.0538924 0)
(0.461714 -0.0522473 0)
(0.507933 -0.0504734 0)
(0.553201 -0.0487268 -6.65619e-19)
(0.597599 -0.0470594 0)
(0.641155 -0.0454794 0)
(0.683887 -0.0439844 1.28792e-18)
(0.725816 -0.042568 6.3694e-19)
(0.766963 -0.0412226 6.32415e-19)
(0.807349 -0.0399416 0)
(0.846997 -0.0387196 0)
(0.885927 -0.037552 6.15872e-19)
(0.92416 -0.0364353 -6.09636e-19)
(0.961719 -0.0353665 0)
(0.998623 -0.0343432 0)
(1.0349 -0.0333632 -5.96779e-19)
(1.07056 -0.0324246 1.77636e-18)
(1.10563 -0.031526 0)
(1.14013 -0.0306658 0)
(1.17409 -0.0298428 5.80313e-19)
(1.20752 -0.0290557 0)
(1.24045 -0.0283035 1.14492e-18)
(1.2729 -0.0275853 -5.68529e-19)
(1.30489 -0.0268999 0)
(1.33644 -0.0262464 5.62417e-19)
(1.36758 -0.0256239 1.11755e-18)
(1.39833 -0.0250311 0)
(1.42871 -0.024467 0)
(1.45873 -0.02393 -5.49584e-19)
(1.48843 -0.0234183 0)
(1.51781 -0.0229297 1.08646e-18)
(1.54689 -0.0224613 0)
(1.57569 -0.0220094 0)
(1.60421 -0.0215688 0)
(1.63246 -0.021133 0)
(1.66042 -0.020693 -5.29008e-19)
(1.68809 -0.0202368 -5.2624e-19)
(1.71541 -0.0197479 0)
(1.74234 -0.0192037 0)
(1.76878 -0.0185725 0)
(1.7946 -0.0178087 5.16145e-19)
(1.81957 -0.0168454 0)
(1.84339 -0.0155794 -1.02487e-18)
(1.86563 -0.0138338 1.02262e-18)
(1.88536 -0.0113238 1.02223e-18)
(1.90216 -0.00730907 1.02332e-18)
(1.91237 -0.000518773 1.02849e-18)
(1.92467 0.0124242 1.02038e-18)
(1.90511 0.0361851 0)
(0.116441 -0.859694 0)
(0.269019 -1.05682 0)
(0.316114 -0.826006 -1.26339e-19)
(0.315422 -0.584234 -1.08176e-19)
(0.297992 -0.373771 1.00496e-19)
(0.266784 -0.188644 1.00677e-19)
(0.220602 -0.0231848 -6.44899e-22)
(0.158706 0.124558 0)
(0.0809702 0.2551 0)
(-0.0138422 0.366018 0)
(-0.129288 0.451728 0)
(-0.273431 0.512789 0)
(-0.459187 0.566612 -2.67356e-19)
(-0.697044 0.641344 0)
(-0.983266 0.753898 6.62823e-20)
(-1.302 0.895864 5.71806e-20)
(-1.63528 1.04397 0)
(-1.96622 1.17799 0)
(-2.27955 1.28537 0)
(-2.56345 1.35908 0)
(-2.81256 1.39483 3.49068e-20)
(-3.0265 1.39239 0)
(-3.20665 1.35643 -3.23492e-20)
(-3.35584 1.29419 0)
(-3.47855 1.21299 0)
(-3.57937 1.11923 0)
(-3.66313 1.01898 -6.85924e-20)
(-3.73417 0.917586 0)
(-3.79604 0.819179 3.31196e-20)
(-3.8515 0.726554 -7.07057e-20)
(-3.90248 0.641224 0)
(-3.95026 0.563927 0)
(-3.99562 0.494713 0)
(-4.03892 0.433198 3.65667e-20)
(-4.08026 0.378732 3.7154e-20)
(-4.11959 0.330543 0)
(-4.15679 0.287836 0)
(-4.19167 0.249849 -7.78051e-20)
(-4.22407 0.215887 -7.8198e-20)
(-4.25381 0.185341 7.84309e-20)
(-4.28076 0.157692 0)
(-4.30479 0.132511 0)
(-4.32582 0.10945 0)
(-4.34377 0.0882238 0)
(-4.35859 0.0685996 -7.70144e-20)
(-4.37022 0.0503773 -7.69164e-20)
(-4.37858 0.0333726 7.62734e-20)
(-4.38355 0.0173847 0)
(-4.38495 0.00215712 0)
(-4.38262 -0.0125965 0)
(-4.3765 -0.0270091 0)
(-4.36665 -0.0409943 -7.11097e-20)
(-4.35313 -0.0544602 0)
(-4.33597 -0.0673954 0)
(-4.31522 -0.0798042 -6.69979e-20)
(-4.29092 -0.0916954 -6.49722e-20)
(-4.26314 -0.103076 0)
(-4.23196 -0.113951 1.24576e-19)
(-4.19744 -0.124322 -6.00342e-20)
(-4.15968 -0.134189 5.82576e-20)
(-4.11876 -0.14355 0)
(-4.07478 -0.152403 0)
(-4.02784 -0.160746 0)
(-3.97804 -0.168578 0)
(-3.92548 -0.175902 4.84258e-20)
(-3.87029 -0.182721 9.37826e-20)
(-3.81258 -0.189032 4.40605e-20)
(-3.75246 -0.194839 -4.17883e-20)
(-3.69005 -0.200149 0)
(-3.62547 -0.204969 7.54312e-20)
(-3.55885 -0.209305 7.05481e-20)
(-3.49031 -0.213167 6.55486e-20)
(-3.41998 -0.216565 -6.04334e-20)
(-3.34798 -0.219511 0)
(-3.27444 -0.222018 -7.41086e-20)
(-3.19947 -0.224098 0)
(-3.12321 -0.225767 2.00985e-20)
(-3.04578 -0.22704 1.58754e-20)
(-2.96728 -0.227932 0)
(-2.88785 -0.228462 0)
(-2.8076 -0.228644 1.53679e-20)
(-2.72664 -0.228499 0)
(-2.64508 -0.228044 2.93346e-21)
(-2.56302 -0.227297 0)
(-2.48058 -0.226278 9.98945e-21)
(-2.39784 -0.225005 3.47067e-20)
(-2.31492 -0.223499 0)
(-2.23191 -0.221779 0)
(-2.1489 -0.219863 0)
(-2.066 -0.217769 4.4574e-20)
(-1.98328 -0.215512 0)
(-1.90086 -0.213102 5.93954e-20)
(-1.81884 -0.210543 0)
(-1.73729 -0.207818 0)
(-1.65629 -0.204901 -1.67036e-19)
(-1.57588 -0.201778 0)
(-1.49607 -0.198462 -9.93046e-20)
(-1.41687 -0.194996 0)
(-1.33831 -0.191438 -1.16584e-19)
(-1.26044 -0.187826 0)
(-1.18334 -0.184178 0)
(-1.10703 -0.180502 0)
(-1.03158 -0.176803 -4.62664e-19)
(-0.957014 -0.173089 -1.65034e-19)
(-0.883359 -0.169367 0)
(-0.810646 -0.165642 0)
(-0.738899 -0.161922 0)
(-0.66814 -0.15821 0)
(-0.598387 -0.154512 2.18828e-19)
(-0.52965 -0.150833 -4.58445e-19)
(-0.461937 -0.147182 -2.42661e-19)
(-0.395259 -0.143568 5.07635e-19)
(-0.329626 -0.139997 5.33432e-19)
(-0.265043 -0.136474 2.81365e-19)
(-0.201514 -0.133002 0)
(-0.139038 -0.129581 6.16197e-19)
(-0.0776177 -0.126214 0)
(-0.0172541 -0.122904 -6.73526e-19)
(0.042059 -0.119653 -3.45146e-19)
(0.100335 -0.116461 0)
(0.15758 -0.113333 6.931e-19)
(0.213801 -0.110269 3.48819e-19)
(0.269006 -0.107272 0)
(0.323208 -0.10433 3.48714e-19)
(0.376413 -0.101434 -1.05279e-18)
(0.428631 -0.0985927 0)
(0.479876 -0.0958159 0)
(0.530164 -0.0931066 0)
(0.579513 -0.0904656 0)
(0.627946 -0.0878975 -7.07731e-19)
(0.675496 -0.0854093 -7.10223e-19)
(0.722187 -0.0830159 0)
(0.767985 -0.0807046 0)
(0.812875 -0.0784363 0)
(0.85691 -0.0762096 0)
(0.900132 -0.0740409 0)
(0.942558 -0.0719386 0)
(0.984201 -0.0699054 -7.13999e-19)
(1.02508 -0.067941 -1.08884e-21)
(1.06521 -0.0660439 0)
(1.1046 -0.064212 0)
(1.14329 -0.0624433 -7.13833e-19)
(1.18129 -0.060736 0)
(1.21862 -0.0590885 7.14882e-19)
(1.2553 -0.0574993 7.14021e-19)
(1.29135 -0.0559672 0)
(1.3268 -0.0544909 0)
(1.36165 -0.0530694 -7.14557e-19)
(1.39594 -0.0517016 -1.42732e-18)
(1.42968 -0.0503866 0)
(1.4629 -0.0491232 0)
(1.49562 -0.0479106 0)
(1.52785 -0.0467479 -7.13254e-19)
(1.55963 -0.0456341 7.12874e-19)
(1.59096 -0.0445682 0)
(1.62187 -0.0435492 1.42287e-18)
(1.65239 -0.042576 7.10418e-19)
(1.68254 -0.0416471 -1.42082e-18)
(1.71232 -0.0407609 0)
(1.74178 -0.0399155 0)
(1.77092 -0.0391082 -1.41701e-18)
(1.79976 -0.0383357 -7.08219e-19)
(1.82832 -0.0375938 0)
(1.85662 -0.0368767 0)
(1.88466 -0.0361768 0)
(1.91244 -0.035484 0)
(1.93996 -0.0347847 -1.40688e-18)
(1.96722 -0.0340607 0)
(1.99417 -0.0332869 0)
(2.02078 -0.0324292 0)
(2.04696 -0.0314396 0)
(2.0726 -0.0302499 0)
(2.09753 -0.0287591 0)
(2.12149 -0.0268159 -1.39754e-18)
(2.14413 -0.0241687 0)
(2.16481 -0.0204122 0)
(2.18326 -0.0147542 -2.8163e-18)
(2.1967 -0.0058773 1.41817e-18)
(2.21139 0.0088759 -1.41628e-18)
(2.2063 0.0362534 1.41174e-18)
(0.0333233 -1.16606 0)
(0.0696867 -1.02976 3.59961e-19)
(0.0339346 -0.746798 0)
(-0.0105218 -0.506321 1.10886e-19)
(-0.0658563 -0.283602 0)
(-0.133721 -0.0740146 0)
(-0.216965 0.122838 -8.2813e-20)
(-0.317964 0.306219 0)
(-0.438841 0.475688 0)
(-0.582203 0.631801 0)
(-0.751904 0.777094 0)
(-0.953155 0.917667 0)
(-1.18859 1.06164 2.0421e-19)
(-1.45261 1.21241 9.24423e-20)
(-1.73076 1.36373 -8.36935e-20)
(-2.00466 1.50226 0)
(-2.25858 1.61415 0)
(-2.48247 1.69009 0)
(-2.67154 1.72633 0)
(-2.82437 1.72415 0)
(-2.94352 1.6874 6.01664e-20)
(-3.03455 1.62132 5.88496e-20)
(-3.10354 1.53277 -5.79965e-20)
(-3.15684 1.42939 5.76948e-20)
(-3.19984 1.3179 0)
(-3.23687 1.20369 0)
(-3.2714 1.09113 5.58477e-20)
(-3.30578 0.983495 0)
(-3.3413 0.882916 0)
(-3.37846 0.790431 5.87019e-20)
(-3.41727 0.70628 6.15199e-20)
(-3.45738 0.630238 6.22315e-20)
(-3.49827 0.561773 0)
(-3.53931 0.500189 0)
(-3.57989 0.444727 -6.40416e-20)
(-3.61945 0.39463 0)
(-3.6575 0.349187 0)
(-3.69363 0.307754 6.43144e-20)
(-3.72748 0.269767 -6.60345e-20)
(-3.75878 0.234738 6.6045e-20)
(-3.7873 0.202252 0)
(-3.81287 0.171957 0)
(-3.83532 0.143558 1.30023e-19)
(-3.85453 0.116805 0)
(-3.8704 0.0914849 1.28634e-19)
(-3.88282 0.0674218 1.91048e-19)
(-3.89172 0.044472 -1.89407e-19)
(-3.89704 0.022515 1.25337e-19)
(-3.89872 0.00143374 0)
(-3.89678 -0.0188877 0)
(-3.89124 -0.0385275 1.1988e-19)
(-3.88216 -0.0575044 5.84092e-20)
(-3.86958 -0.0758147 0)
(-3.85352 -0.0934569 0)
(-3.83403 -0.110431 5.4903e-20)
(-3.81116 -0.126735 1.08256e-19)
(-3.78495 -0.142369 0)
(-3.75548 -0.15733 -1.01803e-19)
(-3.72281 -0.171613 9.9974e-20)
(-3.68702 -0.185214 -9.70021e-20)
(-3.64819 -0.198129 0)
(-3.60641 -0.210352 0)
(-3.56177 -0.221877 0)
(-3.51437 -0.232702 0)
(-3.46431 -0.242832 0)
(-3.4117 -0.252266 -7.59288e-20)
(-3.35665 -0.261004 0)
(-3.29927 -0.26905 0)
(-3.23968 -0.276412 0)
(-3.17798 -0.283098 -1.22634e-19)
(-3.11431 -0.28912 -5.67092e-20)
(-3.04877 -0.294488 -5.2608e-20)
(-2.9815 -0.299217 9.8051e-20)
(-2.91261 -0.303323 -4.5368e-20)
(-2.84221 -0.306822 3.9816e-20)
(-2.77045 -0.309733 0)
(-2.69742 -0.312076 -3.08933e-20)
(-2.62325 -0.313872 0)
(-2.54805 -0.315142 0)
(-2.47194 -0.315908 0)
(-2.39504 -0.316195 -2.55001e-20)
(-2.31745 -0.316025 8.49017e-21)
(-2.23927 -0.315423 4.77272e-21)