/*--------------------------------*- C++ -*----------------------------------*\
| =========                 |                                                 |
| \\      /  F ield         | OpenFOAM: The Open Source CFD Toolbox           |
|  \\    /   O peration     | Version:  v2012                                 |
|   \\  /    A nd           | Website:  www.openfoam.com                      |
|    \\/     M anipulation  |                                                 |
\*---------------------------------------------------------------------------*/
FoamFile
{
    version     2.0;
    format      ascii;
    class       volVectorField;
    location    "1500";
    object      U;
}
// * * * * * * * * * * * * * * * * * * * * * * * * * * * * * * * * * * * * * //

dimensions      [0 1 -1 0 0 0 0];


internalField   nonuniform List<vector> 
12225
(
(9.2745 -4.73371 0)
(13.1094 -1.71343 0)
(12.4777 -0.395208 0)
(11.2768 -0.0422191 0)
(10.6311 0.0141971 0)
(10.2978 -0.000797879 0)
(10.074 -0.00370361 0)
(9.90491 -0.0201299 0)
(9.76636 -0.0507005 0)
(9.64488 -0.0479108 0)
(9.53129 -0.0364873 0)
(9.42449 -0.0318276 0)
(9.32632 -0.0300104 0)
(9.23617 -0.0240185 0)
(9.15475 -0.012988 0)
(9.08856 -0.00476575 0)
(9.02749 0.0083813 0)
(9.05045 0.0247769 0)
(10.2592 0.0928024 0)
(10.7814 0.199338 0)
(10.9593 0.245649 0)
(10.7468 0.229135 0)
(10.5874 0.172968 0)
(10.4522 0.115287 0)
(10.329 0.081869 0)
(10.2315 0.0692424 0)
(10.1585 0.065155 0)
(10.0983 0.0584853 0)
(10.0455 0.0523012 0)
(9.99834 0.049815 0)
(9.95533 0.0493799 0)
(9.91586 0.0485443 0)
(9.87838 0.0456065 0)
(9.84448 0.0404299 0)
(9.80898 0.0220814 0)
(9.77686 -0.00183832 0)
(9.87768 -0.24504 0)
(9.74284 0.00578982 0)
(10.1971 0.125736 0)
(10.3244 0.179354 0)
(10.3564 0.161537 0)
(10.3308 0.119965 0)
(10.2777 0.0911439 0)
(10.2264 0.075278 0)
(10.183 0.065736 0)
(10.1459 0.0604545 0)
(10.1137 0.0572207 0)
(10.0848 0.0545711 0)
(10.0579 0.0519204 0)
(10.0327 0.0489624 0)
(10.0089 0.0452214 0)
(9.98692 0.0400884 0)
(9.96331 0.0289985 0)
(9.9359 0.00989362 0)
(9.83416 -0.443933 0)
(9.57654 -0.16315 0)
(9.91602 0.0336607 0)
(10.0932 0.134211 0)
(10.1892 0.145454 0)
(10.2166 0.120703 0)
(10.2052 0.0984788 0)
(10.1835 0.0838724 0)
(10.161 0.0740146 0)
(10.1394 0.0682571 0)
(10.1196 0.0645633 0)
(10.1012 0.0616145 0)
(10.0837 0.0589742 0)
(10.067 0.0565296 0)
(10.0507 0.0536457 0)
(10.0344 0.0493051 0)
(10.0157 0.0410203 0)
(9.99143 0.0293012 0)
(9.87825 -0.387477 0)
(9.61653 -0.196152 0)
(9.81622 -0.018682 0)
(9.96135 0.0915966 0)
(10.0698 0.122174 0)
(10.1218 0.113625 0)
(10.1356 0.0995983 0)
(10.134 0.088316 0)
(10.1264 0.0798476 0)
(10.1162 0.0742223 0)
(10.1055 0.0703981 0)
(10.0946 0.0675538 0)
(10.0836 0.0652287 0)
(10.0725 0.0631489 0)
(10.061 0.0607287 0)
(10.0484 0.0573653 0)
(10.033 0.052014 0)
(10.0121 0.0459025 0)
(9.91439 -0.288041 0)
(9.68303 -0.185182 0)
(9.78717 -0.0532207 0)
(9.88916 0.0509807 0)
(9.98795 0.0936567 0)
(10.0476 0.0992069 0)
(10.0753 0.094033 0)
(10.0867 0.0873827 0)
(10.0896 0.0813949 0)
(10.088 0.0769207 0)
(10.084 0.0737171 0)
(10.0788 0.071369 0)
(10.0727 0.0695334 0)
(10.0657 0.0679665 0)
(10.0576 0.0663022 0)
(10.0479 0.0643067 0)
(10.0354 0.0618265 0)
(10.0183 0.0601436 0)
(9.93763 -0.214043 0)
(9.74856 -0.167541 0)
(9.79243 -0.0752279 0)
(9.85608 0.0162033 0)
(9.93595 0.064402 0)
(9.99284 0.0805941 0)
(10.0262 0.083608 0)
(10.045 0.0820944 0)
(10.0549 0.0792971 0)
(10.0593 0.0767001 0)
(10.0605 0.074665 0)
(10.0596 0.0731662 0)
(10.0571 0.0720776 0)
(10.0533 0.0712948 0)
(10.048 0.0706822 0)
(10.0409 0.0702783 0)
(10.0313 0.0703589 0)
(10.0182 0.0720893 0)
(9.95263 -0.167337 0)
(9.79947 -0.149685 0)
(9.81178 -0.0846594 0)
(9.84959 -0.00623838 0)
(9.91142 0.0418936 0)
(9.9611 0.0638556 0)
(9.9944 0.0724962 0)
(10.0157 0.0751178 0)
(10.0289 0.0752143 0)
(10.0368 0.0745331 0)
(10.041 0.0737809 0)
(10.0428 0.0732251 0)
(10.0427 0.0729474 0)
(10.041 0.0729899 0)
(10.0378 0.0733852 0)
(10.0328 0.0743192 0)
(10.0256 0.0762061 0)
(10.0158 0.0800117 0)
(9.96406 -0.132092 0)
(9.84003 -0.131998 0)
(9.83337 -0.0877082 0)
(9.85306 -0.0213607 0)
(9.89928 0.0243788 0)
(9.94105 0.0494724 0)
(9.97214 0.0620652 0)
(9.99396 0.067926 0)
(10.0087 0.0704262 0)
(10.0185 0.0714647 0)
(10.0247 0.0719724 0)
(10.0283 0.0724013 0)
(10.0299 0.0729763 0)
(10.0299 0.0738503 0)
(10.0283 0.0751752 0)
(10.025 0.0772282 0)
(10.0199 0.080473 0)
(10.0129 0.0857017 0)
(9.97418 -0.100208 0)
(9.87757 -0.112399 0)
(9.85857 -0.0853854 0)
(9.86388 -0.0323624 0)
(9.89488 0.00888935 0)
(9.92745 0.0351761 0)
(9.95445 0.0506444 0)
(9.97511 0.0593505 0)
(9.99023 0.0642065 0)
(10.001 0.0670635 0)
(10.0085 0.0689708 0)
(10.0136 0.0705236 0)
(10.0167 0.0720736 0)
(10.0182 0.0738805 0)
(10.0181 0.0761867 0)
(10.0166 0.0793182 0)
(10.0136 0.0837226 0)
(10.0094 0.09001 0)
(9.98253 -0.0727129 0)
(9.91035 -0.0922066 0)
(9.88508 -0.0782656 0)
(9.88002 -0.0386409 0)
(9.89747 -0.00342006 0)
(9.92045 0.0221079 0)
(9.94201 0.0390934 0)
(9.96006 0.0499309 0)
(9.97432 0.0568377 0)
(9.98524 0.0614327 0)
(9.99345 0.0647658 0)
(9.99948 0.0675061 0)
(10.0037 0.0701008 0)
(10.0065 0.0728841 0)
(10.0079 0.0761601 0)
(10.0081 0.0802618 0)
(10.0073 0.0855756 0)
(10.0057 0.0925335 0)
(9.98894 -0.0502609 0)
(9.93733 -0.072389 0)
(9.91073 -0.0674714 0)
(9.89917 -0.0400198 0)
(9.90567 -0.011702 0)
(9.91957 0.0113799 0)
(9.935 0.0284266 0)
(9.94939 0.0404272 0)
(9.96175 0.0488152 0)
(9.97193 0.0548517 0)
(9.98014 0.0594716 0)
(9.98664 0.0633444 0)
(9.99169 0.0669507 0)
(9.99549 0.0706664 0)
(9.99823 0.0748117 0)
(10.0001 0.0796989 0)
(10.0012 0.0856291 0)
(10.002 0.0928953 0)
(9.99348 -0.0329135 0)
(9.9582 -0.0538228 0)
(9.93369 -0.054309 0)
(9.91899 -0.0368278 0)
(9.91756 -0.0155116 0)
(9.92368 0.0039142 0)
(9.93304 0.0196631 0)
(9.94321 0.0317216 0)
(9.95293 0.0408073 0)
(9.96166 0.0477686 0)
(9.96925 0.0533459 0)
(9.97573 0.058129 0)
(9.9812 0.0625768 0)
(9.98579 0.0670557 0)
(9.98964 0.0718698 0)
(9.9929 0.0772795 0)
(9.99578 0.0835177 0)
(9.99854 0.0907456 0)
(9.99643 -0.0202081 0)
(9.97327 -0.0372227 0)
(9.95261 -0.0400731 0)
(9.93731 -0.0298546 0)
(9.9309 -0.0148865 0)
(9.93103 0.000280185 0)
(9.93505 0.0136577 0)
(9.94106 0.0246882 0)
(9.94784 0.0335618 0)
(9.95466 0.0407477 0)
(9.96119 0.0467582 0)
(9.96725 0.0520496 0)
(9.9728 0.0570096 0)
(9.97788 0.0619483 0)
(9.98256 0.0671243 0)
(9.98696 0.0727385 0)
(9.99122 0.0789476 0)
(9.99555 0.0858437 0)
(9.99816 -0.0112937 0)
(9.9833 -0.0229441 0)
(9.96682 -0.0257916 0)
(9.95243 -0.0201224 0)
(9.94344 -0.0103069 0)
(9.93953 0.000586301 0)
(9.93941 0.0109126 0)
(9.94183 0.0199924 0)
(9.94583 0.0277344 0)
(9.95069 0.0343386 0)
(9.95596 0.0401056 0)
(9.96138 0.0453469 0)
(9.96678 0.0503377 0)
(9.9721 0.0553137 0)
(9.97736 0.0604563 0)
(9.98258 0.0659082 0)
(9.98787 0.0717553 0)
(9.99333 0.0780456 0)
(9.99906 -0.00508702 0)
(9.98922 -0.0107947 0)
(9.97612 -0.0119457 0)
(9.96309 -0.0085285 0)
(9.9531 -0.00249955 0)
(9.94686 0.00449057 0)
(9.94399 0.0114424 0)
(9.94384 0.0178737 0)
(9.94569 0.0236565 0)
(9.94895 0.0288591 0)
(9.95315 0.0336374 0)
(9.95796 0.0381685 0)
(9.96315 0.0426173 0)
(9.96861 0.0471226 0)
(9.97425 0.0517889 0)
(9.98005 0.0566882 0)
(9.98605 0.0618563 0)
(9.99227 0.0672966 0)
(9.99942 -0.00037332 0)
(9.99181 0.000137109 0)
(9.98042 0.00180302 0)
(9.96821 0.00454943 0)
(9.9579 0.00785668 0)
(9.9506 0.0113176 0)
(9.94641 0.014707 0)
(9.94497 0.0179514 0)
(9.94574 0.021064 0)
(9.94822 0.0241148 0)
(9.95194 0.0271822 0)
(9.95655 0.0303466 0)
(9.96179 0.0336687 0)
(9.96748 0.0371957 0)
(9.97349 0.0409501 0)
(9.97978 0.0449398 0)
(9.98629 0.0491497 0)
(9.99303 0.0535512 0)
(9.99935 0.00407913 0)
(9.9911 0.0111559 0)
(9.97897 0.0161036 0)
(9.96616 0.0186927 0)
(9.95552 0.0195536 0)
(9.94818 0.0194687 0)
(9.94418 0.0190616 0)
(9.9431 0.01874 0)
(9.94435 0.0187466 0)
(9.94737 0.0191961 0)
(9.95169 0.020132 0)
(9.95692 0.0215477 0)
(9.96278 0.0234154 0)
(9.96908 0.0256896 0)
(9.9757 0.0283216 0)
(9.98253 0.031253 0)
(9.98955 0.0344296 0)
(9.9967 0.0377863 0)
(9.99882 0.00972466 0)
(9.98675 0.0240292 0)
(9.97122 0.0318165 0)
(9.95642 0.0332511 0)
(9.94558 0.0306495 0)
(9.93941 0.0262812 0)
(9.93733 0.0216646 0)
(9.93843 0.0176367 0)
(9.94183 0.0145719 0)
(9.94682 0.0125617 0)
(9.95285 0.0115537 0)
(9.95954 0.0114267 0)
(9.96664 0.0120464 0)
(9.97396 0.013276 0)
(9.98141 0.0149942 0)
(9.98892 0.0170895 0)
(9.99646 0.0194677 0)
(10.004 0.0220424 0)
(9.99757 0.0182055 0)
(9.97774 0.0404357 0)
(9.95664 0.0495472 0)
(9.93945 0.0474382 0)
(9.92961 0.0393727 0)
(9.92658 0.0295893 0)
(9.92848 0.0204209 0)
(9.93355 0.0128883 0)
(9.94051 0.00725252 0)
(9.9485 0.00340551 0)
(9.95696 0.00108473 0)
(9.96558 5.08866e-06 0)
(9.97416 -9.4946e-05 0)
(9.98263 0.000555074 0)
(9.99094 0.00177201 0)
(9.99908 0.0034025 0)
(10.0071 0.00532484 0)
(10.0149 0.00744077 0)
(9.99502 0.0318109 0)
(9.96177 0.0621152 0)
(9.93372 0.0695229 0)
(9.91535 0.0600756 0)
(9.90933 0.0439048 0)
(9.91249 0.0276096 0)
(9.92084 0.0139422 0)
(9.93161 0.00357667 0)
(9.94319 -0.00370533 0)
(9.95474 -0.00844692 0)
(9.96585 -0.0112223 0)
(9.9764 -0.0125191 0)
(9.98636 -0.012735 0)
(9.99579 -0.0121607 0)
(10.0047 -0.0110331 0)
(10.0133 -0.00951724 0)
(10.0215 -0.00775047 0)
(10.0294 -0.00582842 0)
(9.99018 0.053459 0)
(9.93561 0.090136 0)
(9.90098 0.0906014 0)
(9.88515 0.0687203 0)
(9.88781 0.0417769 0)
(9.90123 0.0186171 0)
(9.91856 0.00137452 0)
(9.93626 -0.0104364 0)
(9.95283 -0.0179783 0)
(9.9678 -0.0224145 0)
(9.98118 -0.024682 0)
(9.99316 -0.0254578 0)
(10.004 -0.0252196 0)
(10.0139 -0.0242919 0)
(10.023 -0.0229128 0)
(10.0316 -0.0212504 0)
(10.0397 -0.0194214 0)
(10.0473 -0.0175111 0)
(9.9819 0.0862451 0)
(9.89548 0.124244 0)
(9.85817 0.10986 0)
(9.8521 0.0697402 0)
(9.87036 0.030299 0)
(9.89845 0.00141105 0)
(9.9266 -0.0172332 0)
(9.95135 -0.0283469 0)
(9.9722 -0.0344053 0)
(9.98956 -0.0372779 0)
(10.0041 -0.0381591 0)
(10.0165 -0.037816 0)
(10.0274 -0.0366877 0)
(10.037 -0.0351171 0)
(10.0457 -0.0332817 0)
(10.0536 -0.0313253 0)
(10.0611 -0.0293212 0)
(10.0681 -0.0273381 0)
(9.96925 0.133988 0)
(9.83823 0.163079 0)
(9.80793 0.122571 0)
(9.82312 0.0587689 0)
(9.86515 0.00726909 0)
(9.91143 -0.0240624 0)
(9.95038 -0.0406145 0)
(9.98053 -0.0483674 0)
(10.0035 -0.0511867 0)
(10.0212 -0.0513874 0)
(10.0352 -0.0502712 0)
(10.0466 -0.0484355 0)
(10.0562 -0.0462789 0)
(10.0645 -0.0439485 0)
(10.0719 -0.0416088 0)
(10.0787 -0.0393112 0)
(10.0849 -0.037125 0)
(10.0908 -0.0350775 0)
(9.94951 0.20714 0)
(9.76128 0.207015 0)
(9.75726 0.12346 0)
(9.81043 0.0319816 0)
(9.88385 -0.0279022 0)
(9.94879 -0.0560375 0)
(9.99532 -0.0660899 0)
(10.0267 -0.0678252 0)
(10.0481 -0.0660034 0)
(10.063 -0.062947 0)
(10.0741 -0.0596415 0)
(10.0826 -0.056368 0)
(10.0896 -0.0532127 0)
(10.0955 -0.0502333 0)
(10.1006 -0.0474514 0)
(10.1053 -0.0449076 0)
(10.1096 -0.0425883 0)
(10.1137 -0.0405197 0)
(9.91094 0.322718 0)
(9.65922 0.254541 0)
(9.71886 0.107391 0)
(9.8333 -0.011953 0)
(9.94177 -0.0726998 0)
(10.0199 -0.090225 0)
(10.0662 -0.0893596 0)
(10.0918 -0.0832863 0)
(10.1061 -0.0763464 0)
(10.1143 -0.0702288 0)
(10.1194 -0.0651428 0)
(10.123 -0.0607515 0)
(10.1256 -0.056862 0)
(10.1277 -0.0534646 0)
(10.1294 -0.0504314 0)
(10.1309 -0.0478034 0)
(10.1323 -0.0454062 0)
(10.1338 -0.0434711 0)
(9.84404 0.43511 0)
(9.53797 0.261024 0)
(9.7269 0.0591209 0)
(9.92368 -0.0731448 0)
(10.0584 -0.121606 0)
(10.1345 -0.120271 0)
(10.1665 -0.105343 0)
(10.1757 -0.0910537 0)
(10.1757 -0.0798345 0)
(10.1724 -0.0717499 0)
(10.1684 -0.0660652 0)
(10.1644 -0.0612201 0)
(10.1605 -0.0568934 0)
(10.1567 -0.0530468 0)
(10.1532 -0.0499089 0)
(10.1501 -0.0474446 0)
(10.1474 -0.0450965 0)
(10.145 -0.0433576 0)
(9.83598 0.319666 0)
(9.5502 0.0912484 0)
(9.91738 -0.0687343 0)
(10.1507 -0.160134 0)
(10.2635 -0.17218 0)
(10.3033 -0.14281 0)
(10.2976 -0.112203 0)
(10.2753 -0.0909458 0)
(10.2514 -0.0770513 0)
(10.2303 -0.0683565 0)
(10.213 -0.0633679 0)
(10.1983 -0.0590986 0)
(10.1848 -0.0545812 0)
(10.1718 -0.049666 0)
(10.1599 -0.0456321 0)
(10.1498 -0.0430008 0)
(10.1409 -0.0400414 0)
(10.1324 -0.0375998 0)
(10.2049 -0.0633779 0)
(10.4095 -0.19171 0)
(10.7164 -0.282555 0)
(10.6879 -0.282292 0)
(10.6191 -0.230114 0)
(10.5417 -0.163739 0)
(10.4538 -0.117598 0)
(10.3752 -0.0935947 0)
(10.3137 -0.0805103 0)
(10.2655 -0.0698317 0)
(10.2262 -0.060522 0)
(10.1922 -0.0558982 0)
(10.1624 -0.0547677 0)
(10.1337 -0.0545457 0)
(10.1083 -0.0524882 0)
(10.0867 -0.0482227 0)
(10.0668 -0.0454898 0)
(10.0496 -0.0415759 0)
(9.41631 4.45107 0)
(12.7294 2.07612 0)
(12.5649 0.621223 0)
(11.5691 0.127666 0)
(10.9311 0.00343124 0)
(10.5863 -0.00224834 0)
(10.3631 0.0139347 0)
(10.2009 0.0313452 0)
(10.0783 0.0452804 0)
(9.97727 0.0452438 0)
(9.88473 0.0338133 0)
(9.79921 0.030415 0)
(9.72159 0.0329996 0)
(9.65681 0.0337438 0)
(9.59923 0.0256998 0)
(9.54381 0.0099382 0)
(9.49439 0.00549389 0)
(9.44621 -0.00561702 0)
(-0.0249095 0.0907401 0)
(0.137616 -0.182774 0)
(0.32597 -0.304523 0)
(0.525699 -0.313474 0)
(0.702257 -0.270655 0)
(0.831658 -0.209941 0)
(0.906934 -0.14521 -8.59748e-20)
(0.936591 -0.0813487 8.66847e-20)
(0.914579 -0.0191306 0)
(0.852988 0.0354932 9.20904e-20)
(0.765231 0.074567 0)
(0.665778 0.0921001 0)
(0.572162 0.0873236 0)
(0.499904 0.066023 -1.44098e-19)
(0.450027 0.0372004 0)
(0.405736 0.010016 0)
(0.344847 -0.0079815 1.89485e-19)
(0.25763 -0.00707189 0)
(0.123394 0.0149937 0)
(-0.0749732 0.111019 0)
(-0.307834 0.204622 -1.41205e-19)
(-0.602378 0.246951 0)
(-0.929885 0.269507 -7.48531e-20)
(-1.26498 0.2968 0)
(-1.60358 0.323562 0)
(-1.94245 0.336015 -4.11426e-20)
(-2.27391 0.335017 0)
(-2.5901 0.325704 3.44592e-20)
(-2.88785 0.309445 0)
(-3.16388 0.2886 -3.12992e-20)
(-3.41725 0.265474 0)
(-3.64765 0.241639 0)
(-3.85578 0.218117 0)
(-4.04277 0.195601 0)
(-4.21005 0.174462 0)
(-4.35918 0.1549 2.82114e-20)
(-4.49173 0.136947 0)
(-4.6092 0.120531 -5.55352e-20)
(-4.71294 0.105522 0)
(-4.80418 0.0917622 5.47359e-20)
(-4.88395 0.0790893 0)
(-4.95315 0.0673524 0)
(-5.01253 0.0564243 -5.35119e-20)
(-5.06271 0.0462096 0)
(-5.10418 0.0366496 -5.26188e-20)
(-5.13735 0.0277287 5.21402e-20)
(-5.16262 0.0194927 0)
(-5.18037 0.0120896 5.1112e-20)
(-5.19087 0.00578299 5.05595e-20)
(-5.1943 0.000711307 0)
(-5.19191 -0.00321053 0)
(-5.18494 -0.00645595 0)
(-5.17351 -0.00940488 0)
(-5.15794 -0.012113 0)
(-5.1384 -0.0146793 -4.61339e-20)
(-5.11501 -0.0171172 0)
(-5.0879 -0.0194383 4.42671e-20)
(-5.05717 -0.0216513 0)
(-5.02292 -0.0237583 0)
(-4.98525 -0.0257611 -4.10865e-20)
(-4.94427 -0.0276601 0)
(-4.90007 -0.0294551 3.8709e-20)
(-4.85278 -0.0311458 0)
(-4.80251 -0.0327322 0)
(-4.74937 -0.0342141 0)
(-4.69348 -0.0355911 -3.33257e-20)
(-4.63496 -0.0368636 0)
(-4.57395 -0.0380325 0)
(-4.51056 -0.0390981 -2.87252e-20)
(-4.44493 -0.0400613 0)
(-4.37719 -0.0409234 -2.53817e-20)
(-4.30747 -0.0416862 0)
(-4.2359 -0.0423519 0)
(-4.16262 -0.0429234 0)
(-4.08775 -0.0434039 1.79994e-20)
(-4.01142 -0.0437976 0)
(-3.93377 -0.0441086 0)
(-3.85491 -0.0443412 1.18131e-20)
(-3.77498 -0.0444987 9.61743e-21)
(-3.69409 -0.0445832 0)
(-3.61236 -0.0445949 5.01084e-21)
(-3.52991 -0.0445322 0)
(-3.44685 -0.0443931 1.93418e-22)
(-3.36328 -0.0441767 0)
(-3.27931 -0.0438863 -1.03096e-20)
(-3.19504 -0.0435313 0)
(-3.11056 -0.0431291 2.15648e-20)
(-3.02595 -0.0427051 0)
(-2.94128 -0.0422944 0)
(-2.8566 -0.0419436 0)
(-2.77196 -0.0417153 -4.67872e-20)
(-2.68738 -0.0416908 0)
(-2.60286 -0.0419577 6.10839e-20)
(-2.51836 -0.0425694 0)
(-2.43386 -0.0434626 -7.67787e-20)
(-2.34961 -0.0443604 -8.517e-20)
(-2.26584 -0.0448018 -9.38906e-20)
(-2.18283 -0.0445818 0)
(-2.10072 -0.0439727 0)
(-2.01954 -0.0432738 0)
(-1.93931 -0.0425689 0)
(-1.86003 -0.0418687 0)
(-1.78172 -0.0411745 0)
(-1.70442 -0.0404876 0)
(-1.62814 -0.0398122 0)
(-1.55291 -0.0391539 1.93178e-19)
(-1.47874 -0.03852 2.07529e-19)
(-1.40565 -0.0379155 0)
(-1.33365 -0.0373295 0)
(-1.26277 -0.0367033 0)
(-1.19305 -0.0360452 2.74952e-19)
(-1.12448 -0.0354119 0)
(-1.05708 -0.034797 0)
(-0.990842 -0.0342019 0)
(-0.925769 -0.0336286 0)
(-0.861861 -0.0330788 -3.91921e-19)
(-0.799117 -0.0325555 0)
(-0.737533 -0.0320614 0)
(-0.677101 -0.0316004 4.90435e-19)
(-0.617816 -0.0311735 -5.30283e-19)
(-0.559671 -0.030785 0)
(-0.502657 -0.0304449 -6.2428e-19)
(-0.446762 -0.0301782 0)
(-0.391967 -0.0300292 7.4382e-19)
(-0.338252 -0.0300075 0)
(-0.285601 -0.0300735 0)
(-0.234002 -0.0302166 0)
(-0.183422 -0.030447 0)
(-0.133839 -0.0307812 0)
(-0.0852991 -0.031238 -2.86095e-18)
(-0.038025 -0.0316946 -3.2958e-18)
(0.00806147 -0.0313563 0)
(0.0534924 -0.0298209 0)
(0.0982456 -0.0279697 0)
(0.142177 -0.0262569 2.67756e-18)
(0.185196 -0.024728 0)
(0.22728 -0.0233583 0)
(0.268454 -0.0221238 0)
(0.308752 -0.0210051 2.03635e-18)
(0.348207 -0.0199844 -1.93055e-18)
(0.386847 -0.019048 0)
(0.424696 -0.0181842 0)
(0.461777 -0.0173844 -1.68481e-18)
(0.498112 -0.0166405 -1.62037e-18)
(0.533726 -0.0159469 0)
(0.568641 -0.015298 0)
(0.602881 -0.0146899 1.46261e-18)
(0.636468 -0.0141185 -1.41924e-18)
(0.669425 -0.0135813 0)
(0.701776 -0.0130754 0)
(0.733544 -0.0125986 -1.30926e-18)
(0.764752 -0.012149 0)
(0.79542 -0.0117248 0)
(0.825572 -0.0113243 -1.22196e-18)
(0.85523 -0.0109465 0)
(0.884417 -0.0105898 -1.17298e-18)
(0.913157 -0.0102534 0)
(0.941472 -0.00993588 0)
(0.969386 -0.00963643 0)
(0.996922 -0.00935384 1.09111e-18)
(1.0241 -0.00908708 0)
(1.05095 -0.00883475 0)
(1.07747 -0.00859548 0)
(1.1037 -0.00836732 0)
(1.12963 -0.00814812 0)
(1.15528 -0.00793477 0)
(1.18062 -0.00772355 9.82448e-19)
(1.20565 -0.00750914 9.69548e-19)
(1.23032 -0.00728473 0)
(1.25456 -0.00704055 0)
(1.27827 -0.00676348 0)
(1.30128 -0.0064342 -9.24287e-19)
(1.32334 -0.00602467 0)
(1.34406 -0.00549201 1.81355e-18)
(1.36299 -0.00476014 -1.8002e-18)
(1.37869 -0.00371081 -1.7916e-18)
(1.39129 -0.00195898 1.78969e-18)
(1.39156 0.00137605 -1.79569e-18)
(1.38895 0.00810925 1.80795e-18)
(1.30947 0.019859 0)
(0.0970541 -0.272447 0)
(0.332989 -0.681658 0)
(0.512786 -0.704793 1.57258e-19)
(0.609833 -0.568861 0)
(0.66035 -0.406199 -1.11253e-19)
(0.680232 -0.25109 -1.08266e-19)
(0.673663 -0.10944 -5.6382e-20)
(0.642727 0.0182788 -5.63077e-20)
(0.59941 0.127895 0)
(0.539713 0.213989 -6.09937e-20)
(0.462368 0.268713 0)
(0.367279 0.28344 0)
(0.250611 0.255731 1.71574e-19)
(0.101931 0.211333 9.90038e-20)
(-0.0845224 0.20866 -1.83934e-19)
(-0.312324 0.27607 -1.42291e-19)
(-0.591439 0.387912 -5.66198e-20)
(-0.917214 0.516585 0)
(-1.27137 0.643348 0)
(-1.62882 0.755561 0)
(-1.98203 0.841422 -2.83468e-20)
(-2.3277 0.894728 0)
(-2.65719 0.917478 6.88451e-20)
(-2.96316 0.913463 0)
(-3.2418 0.886626 0)
(-3.49132 0.842172 1.98103e-20)
(-3.71056 0.785495 0)
(-3.90042 0.722094 -1.9762e-20)
(-4.06287 0.656136 -4.17952e-20)
(-4.20146 0.590303 2.01742e-20)
(-4.31908 0.526702 0)
(-4.41863 0.467078 0)
(-4.50279 0.412244 0)
(-4.57396 0.362539 -4.42572e-20)
(-4.63419 0.317916 -4.47608e-20)
(-4.68514 0.278098 -2.21885e-20)
(-4.72818 0.242676 0)
(-4.76442 0.211166 4.52973e-20)
(-4.79473 0.183072 0)
(-4.81984 0.157916 -4.58623e-20)
(-4.84031 0.13526 0)
(-4.85665 0.114711 0)
(-4.86927 0.0959314 4.6065e-20)
(-4.87854 0.0786324 0)
(-4.8848 0.0625752 1.38082e-19)
(-4.88836 0.0475672 -4.55797e-20)
(-4.8895 0.0334745 0)
(-4.88847 0.0202697 -4.49074e-20)
(-4.88551 0.00807071 -4.44487e-20)
(-4.88091 -0.00295923 0)
(-4.87372 -0.0128834 0)
(-4.86285 -0.0219985 0)
(-4.8483 -0.0305414 0)
(-4.82997 -0.038627 0)
(-4.80788 -0.0463247 4.01774e-20)
(-4.78211 -0.0536708 7.90838e-20)
(-4.75271 -0.0606863 -3.83987e-20)
(-4.71979 -0.0673822 0)
(-4.68342 -0.0737641 7.34015e-20)
(-4.6437 -0.0798346 -3.59237e-20)
(-4.60073 -0.0855943 0)
(-4.5546 -0.0910428 -3.32224e-20)
(-4.50544 -0.0961802 0)
(-4.45333 -0.101008 0)
(-4.3984 -0.105527 -5.97984e-20)
(-4.34076 -0.109738 2.8338e-20)
(-4.28054 -0.113641 -5.46036e-20)
(-4.21784 -0.11724 5.18832e-20)
(-4.15281 -0.120537 2.42439e-20)
(-4.08556 -0.123538 0)
(-4.01621 -0.126247 2.13092e-20)
(-3.94491 -0.12867 0)
(-3.87177 -0.130813 0)
(-3.79692 -0.132685 0)
(-3.7205 -0.134293 1.55782e-20)
(-3.64262 -0.135645 0)
(-3.56342 -0.13675 2.36504e-20)
(-3.48301 -0.137619 -2.97969e-20)
(-3.40153 -0.13826 -7.88123e-21)
(-3.31908 -0.138684 0)
(-3.23579 -0.138903 -4.07762e-21)
(-3.15177 -0.138929 0)
(-3.06712 -0.138774 -1.57561e-22)
(-2.98196 -0.138451 0)
(-2.89638 -0.137973 8.25577e-21)
(-2.81049 -0.137353 -2.38562e-20)
(-2.72436 -0.136601 -1.71167e-20)
(-2.6381 -0.135728 0)
(-2.5518 -0.134742 0)
(-2.46554 -0.133646 0)
(-2.37943 -0.13244 3.63533e-20)
(-2.29358 -0.131116 0)
(-2.20811 -0.129644 -4.68368e-20)
(-2.1232 -0.127969 0)
(-2.03896 -0.126038 1.72463e-19)
(-1.95548 -0.123879 6.3834e-20)
(-1.87276 -0.121595 6.98729e-20)
(-1.79075 -0.11929 0)
(-1.70942 -0.117022 0)
(-1.62883 -0.114788 0)
(-1.54905 -0.112566 0)
(-1.47012 -0.110341 0)
(-1.3921 -0.10811 2.20021e-19)
(-1.315 -0.105873 2.35536e-19)
(-1.23887 -0.103633 0)
(-1.16372 -0.101394 -1.35063e-19)
(-1.08959 -0.0991576 -1.43857e-19)
(-1.0165 -0.0969263 0)
(-0.944464 -0.0947021 -3.23732e-19)
(-0.873512 -0.092489 0)
(-0.80363 -0.0903013 1.81708e-19)
(-0.734829 -0.0881441 0)
(-0.667121 -0.0860179 0)
(-0.600508 -0.0839248 -4.35361e-19)
(-0.534995 -0.0818665 0)
(-0.470581 -0.0798444 2.45347e-19)
(-0.407266 -0.0778619 0)
(-0.345049 -0.0759243 0)
(-0.283925 -0.0740406 2.90393e-19)
(-0.223883 -0.0722084 3.09746e-19)
(-0.164918 -0.070423 0)
(-0.107023 -0.0686869 -3.47145e-19)
(-0.0502044 -0.0670005 0)
(0.00554275 -0.0653546 3.83074e-19)
(0.0602624 -0.0637434 7.66178e-19)
(0.113986 -0.062178 0)
(0.166711 -0.0606733 0)
(0.21844 -0.059233 0)
(0.269188 -0.0578555 0)
(0.318987 -0.056543 7.09274e-19)
(0.367908 -0.0552844 2.09657e-18)
(0.416038 -0.0539 0)
(0.463279 -0.0522458 0)
(0.509498 -0.05047 0)
(0.55477 -0.0487245 -6.65694e-19)
(0.599175 -0.0470584 0)
(0.642737 -0.0454804 0)
(0.685476 -0.043987 1.2881e-18)
(0.727411 -0.0425722 6.37035e-19)
(0.768567 -0.0412279 6.32513e-19)
(0.808964 -0.039948 0)
(0.848622 -0.0387265 0)
(0.887563 -0.0375598 6.15984e-19)
(0.925807 -0.0364436 -6.09753e-19)
(0.963375 -0.0353755 0)
(1.00029 -0.0343522 0)
(1.03657 -0.0333722 -5.96901e-19)
(1.07224 -0.032433 1.77673e-18)
(1.10732 -0.0315337 0)
(1.14183 -0.0306724 0)
(1.1758 -0.0298484 5.80439e-19)
(1.20924 -0.0290601 0)
(1.24218 -0.0283069 1.14517e-18)
(1.27464 -0.0275875 -5.68656e-19)
(1.30664 -0.0269012 0)
(1.3382 -0.0262468 5.62539e-19)
(1.36934 -0.0256237 1.11779e-18)
(1.40009 -0.0250305 0)
(1.43047 -0.0244661 0)
(1.4605 -0.0239291 -5.49695e-19)
(1.49019 -0.0234176 0)
(1.51958 -0.0229293 1.08667e-18)
(1.54866 -0.0224613 0)
(1.57746 -0.0220097 0)
(1.60599 -0.0215696 0)
(1.63423 -0.0211339 0)
(1.6622 -0.0206939 -5.29121e-19)
(1.68987 -0.0202374 -5.26356e-19)
(1.71719 -0.019748 0)
(1.74412 -0.019203 0)
(1.77056 -0.0185709 0)
(1.79637 -0.0178059 5.16283e-19)
(1.82134 -0.0168413 0)
(1.84515 -0.0155734 -1.02519e-18)
(1.86737 -0.0138266 1.02294e-18)
(1.8871 -0.0113131 1.02262e-18)
(1.90386 -0.00730148 1.02362e-18)
(1.91407 -0.00050595 1.02914e-18)
(1.92629 0.012466 1.02043e-18)
(1.90675 0.0362466 0)
(0.118548 -0.861567 0)
(0.266696 -1.05241 0)
(0.313578 -0.822604 -1.25692e-19)
(0.312659 -0.580706 -1.08201e-19)
(0.294936 -0.370231 1.00674e-19)
(0.263381 -0.185083 1.00948e-19)
(0.216791 -0.0196381 -6.43479e-22)
(0.154466 0.128037 0)
(0.0762556 0.258421 0)
(-0.0191011 0.369021 0)
(-0.135278 0.454222 0)
(-0.280481 0.514979 0)
(-0.467699 0.569249 -2.65842e-19)
(-0.707059 0.645134 0)
(-0.994184 0.758718 6.58347e-20)
(-1.31304 0.90073 5.6817e-20)
(-1.64579 1.04787 0)
(-1.97589 1.18036 0)
(-2.2885 1.2861 0)
(-2.57153 1.35903 0)
(-2.81916 1.39431 3.48284e-20)
(-3.03166 1.3908 0)
(-3.2105 1.35356 -3.22979e-20)
(-3.3587 1.2905 0)
(-3.48062 1.20886 0)
(-3.58084 1.11496 0)
(-3.66415 1.01479 -6.85781e-20)
(-3.73487 0.913634 0)
(-3.79652 0.815563 3.31293e-20)
(-3.85183 0.723314 -7.07059e-20)
(-3.90271 0.638374 0)
(-3.95042 0.561455 0)
(-3.99572 0.492591 0)
(-4.03896 0.431388 3.65681e-20)
(-4.08025 0.377197 3.7152e-20)
(-4.11953 0.329243 0)
(-4.15667 0.286736 0)
(-4.1915 0.248917 -7.77754e-20)
(-4.22384 0.215096 -7.81633e-20)
(-4.25352 0.184667 7.83916e-20)
(-4.28041 0.157115 0)
(-4.30438 0.132016 0)
(-4.32536 0.109023 0)
(-4.34326 0.0878541 0)
(-4.35802 0.0682779 -7.69594e-20)
(-4.3696 0.0500957 -7.68581e-20)
(-4.37792 0.0331243 7.62131e-20)
(-4.38284 0.017163 0)
(-4.38418 0.00195527 0)
(-4.3818 -0.0127858 0)
(-4.37564 -0.0271864 0)
(-4.36575 -0.0411581 -7.10399e-20)
(-4.35219 -0.0546133 0)
(-4.335 -0.0675391 0)
(-4.3142 -0.0799397 -6.69251e-20)
(-4.28987 -0.0918237 -6.48985e-20)
(-4.26206 -0.103198 0)
(-4.23084 -0.114068 1.24425e-19)
(-4.19629 -0.124434 -5.99575e-20)
(-4.1585 -0.134296 5.81799e-20)
(-4.11755 -0.143653 0)
(-4.07354 -0.152502 0)
(-4.02657 -0.160841 0)
(-3.97674 -0.16867 0)
(-3.92416 -0.175991 4.83431e-20)
(-3.86894 -0.182806 9.36152e-20)
(-3.8112 -0.189114 4.39755e-20)
(-3.75105 -0.194919 -4.17022e-20)
(-3.68862 -0.200225 0)
(-3.62402 -0.205041 7.52545e-20)
(-3.55738 -0.209374 7.0369e-20)
(-3.48882 -0.213233 6.53671e-20)
(-3.41846 -0.216627 -6.02494e-20)
(-3.34644 -0.21957 0)
(-3.27288 -0.222072 -7.38248e-20)
(-3.1979 -0.224149 0)
(-3.12162 -0.225814 2.00023e-20)
(-3.04416 -0.227083 1.57767e-20)
(-2.96566 -0.227973 0)
(-2.88621 -0.228499 0)
(-2.80595 -0.228679 1.51643e-20)
(-2.72497 -0.228531 0)
(-2.6434 -0.228073 2.72323e-21)
(-2.56134 -0.227323 0)
(-2.47889 -0.226301 1.02081e-20)
(-2.39615 -0.225025 3.5155e-20)
(-2.31323 -0.223516 0)
(-2.23021 -0.221792 0)
(-2.1472 -0.219874 0)
(-2.06429 -0.217777 4.48198e-20)
(-1.98158 -0.215518 0)
(-1.89916 -0.213107 5.96545e-20)
(-1.81713 -0.210545 0)
(-1.73559 -0.207817 0)
(-1.65459 -0.204897 -1.676e-19)
(-1.57419 -0.20177 0)
(-1.49438 -0.19845 -9.96022e-20)
(-1.41518 -0.194982 0)
(-1.33663 -0.191422 -1.16899e-19)
(-1.25877 -0.187809 0)
(-1.18166 -0.18416 0)
(-1.10537 -0.180483 0)
(-1.02992 -0.176784 -4.63728e-19)
(-0.955363 -0.173069 -1.65401e-19)
(-0.881716 -0.169346 0)
(-0.80901 -0.165621 0)
(-0.737271 -0.161901 0)
(-0.66652 -0.158189 0)
(-0.596774 -0.154491 2.19261e-19)
(-0.528045 -0.150812 -4.5934e-19)
(-0.460339 -0.147162 -2.43126e-19)
(-0.393668 -0.143548 5.08599e-19)
(-0.328042 -0.139978 5.34434e-19)
(-0.263466 -0.136456 2.81888e-19)
(-0.199942 -0.132984 0)
(-0.137473 -0.129564 6.17328e-19)
(-0.0760574 -0.126198 0)
(-0.0156984 -0.122889 -6.74384e-19)
(0.0436114 -0.119639 -3.45388e-19)
(0.101885 -0.116449 0)
(0.159129 -0.113322 6.93566e-19)
(0.215349 -0.11026 3.49049e-19)
(0.270555 -0.107265 0)
(0.324757 -0.104324 3.48935e-19)
(0.377964 -0.101429 -1.05344e-18)
(0.430184 -0.0985887 0)
(0.481431 -0.0958132 0)
(0.531722 -0.093105 0)
(0.581075 -0.0904653 0)
(0.629512 -0.0878991 -7.0814e-19)
(0.677068 -0.0854136 -7.10629e-19)
(0.723764 -0.0830243 0)
(0.769566 -0.0807157 0)
(0.814459 -0.0784478 0)
(0.8585 -0.0762216 0)
(0.901729 -0.0740534 0)
(0.944162 -0.071952 0)
(0.985811 -0.0699197 -7.14392e-19)
(1.02669 -0.0679563 -1.08743e-21)
(1.06683 -0.0660598 0)
(1.10624 -0.0642283 0)
(1.14493 -0.06246 -7.14228e-19)
(1.18294 -0.0607531 0)
(1.22028 -0.0591059 7.15274e-19)
(1.25697 -0.0575171 7.14414e-19)
(1.29303 -0.0559848 0)
(1.32848 -0.0545082 0)
(1.36334 -0.0530857 -7.14942e-19)
(1.39764 -0.0517168 -1.42809e-18)
(1.43139 -0.0504002 0)
(1.46462 -0.0491355 0)
(1.49735 -0.0479212 0)
(1.52959 -0.046757 -7.13624e-19)
(1.56137 -0.0456416 7.13238e-19)
(1.59271 -0.0445744 0)
(1.62363 -0.0435542 1.42358e-18)
(1.65416 -0.04258 7.10766e-19)
(1.68431 -0.0416503 -1.4215e-18)
(1.7141 -0.0407637 0)
(1.74356 -0.0399181 0)
(1.77271 -0.0391109 -1.41767e-18)
(1.80155 -0.0383387 -7.08541e-19)
(1.83012 -0.0375971 0)
(1.85842 -0.0368803 0)
(1.88646 -0.0361806 0)
(1.91425 -0.0354878 0)
(1.94178 -0.0347884 -1.40753e-18)
(1.96903 -0.0340637 0)
(1.99599 -0.0332891 0)
(2.0226 -0.03243 0)
(2.04878 -0.0314388 0)
(2.07442 -0.030247 0)
(2.09934 -0.028754 0)
(2.1233 -0.0268081 -1.39828e-18)
(2.14593 -0.0241579 0)
(2.1666 -0.0203976 0)
(2.18502 -0.0147364 -2.81793e-18)
(2.19846 -0.00585048 1.41916e-18)
(2.2131 0.00892031 -1.417e-18)
(2.208 0.0363221 1.41273e-18)
(0.0332111 -1.16424 0)
(0.068082 -1.02548 3.60367e-19)
(0.0320713 -0.742658 0)
(-0.0127396 -0.502201 1.10899e-19)
(-0.0685766 -0.279327 0)
(-0.136973 -0.0695811 0)
(-0.220779 0.127386 -8.26167e-20)
(-0.322378 0.310821 0)
(-0.443899 0.480296 0)
(-0.587978 0.636398 0)
(-0.758488 0.781734 0)
(-0.960624 0.922485 0)
(-1.19682 1.0667 2.03253e-19)
(-1.46114 1.21748 9.20365e-20)
(-1.73893 1.36827 -8.33643e-20)
(-2.0119 1.50565 0)
(-2.2646 1.61599 0)
(-2.48726 1.69024 0)
(-2.67526 1.72496 0)
(-2.82708 1.72168 0)
(-2.94518 1.68418 6.00771e-20)
(-3.03528 1.61741 5.87731e-20)
(-3.10362 1.52831 -5.7939e-20)
(-3.15655 1.42466 5.76581e-20)
(-3.19935 1.31312 0)
(-3.23633 1.19906 0)
(-3.27091 1.08679 5.58554e-20)
(-3.30538 0.97953 0)
(-3.34099 0.879358 0)
(-3.37824 0.78728 5.87113e-20)
(-3.41712 0.703516 6.15151e-20)
(-3.45728 0.62783 6.22244e-20)
(-3.49819 0.559684 0)
(-3.53924 0.498383 0)
(-3.57981 0.443166 -6.40245e-20)
(-3.61934 0.39328 0)
(-3.65735 0.348018 0)
(-3.69342 0.306741 6.42903e-20)
(-3.72722 0.268886 -6.6e-20)
(-3.75847 0.23397 6.60079e-20)
(-3.78693 0.20158 0)
(-3.81244 0.171368 0)
(-3.83484 0.143039 1.29938e-19)
(-3.854 0.116344 0)
(-3.86981 0.0910749 1.28541e-19)
(-3.88218 0.0670547 1.90904e-19)
(-3.89103 0.0441412 -1.89257e-19)
(-3.8963 0.0222148 1.25234e-19)
(-3.89794 0.00115898 0)
(-3.89595 -0.0191416 0)
(-3.89037 -0.0387634 1.19767e-19)
(-3.88125 -0.0577244 5.83516e-20)
(-3.86863 -0.0760209 0)
(-3.85254 -0.0936513 0)
(-3.83301 -0.110615 5.48429e-20)
(-3.8101 -0.12691 1.08135e-19)
(-3.78387 -0.142536 0)
(-3.75436 -0.157489 -1.01679e-19)
(-3.72166 -0.171766 9.98479e-20)
(-3.68584 -0.185361 -9.68745e-20)
(-3.64698 -0.19827 0)
(-3.60517 -0.210488 0)
(-3.5605 -0.222008 0)
(-3.51308 -0.232828 0)
(-3.46299 -0.242953 0)
(-3.41036 -0.252383 -7.57919e-20)
(-3.35528 -0.261116 0)
(-3.29788 -0.269158 0)
(-3.23826 -0.276515 0)
(-3.17654 -0.283197 -1.22347e-19)
(-3.11285 -0.289213 -5.6564e-20)
(-3.04729 -0.294577 -5.2461e-20)
(-2.98 -0.299301 9.77543e-20)
(-2.91108 -0.303402 -4.52184e-20)
(-2.84068 -0.306897 3.9664e-20)
(-2.76889 -0.309803 0)
(-2.69584 -0.312142 -3.07382e-20)
(-2.62166 -0.313933 0)
(-2.54645 -0.315199 0)
(-2.47033 -0.315961 0)