/*--------------------------------*- C++ -*----------------------------------*\
  =========                 |
  \\      /  F ield         | OpenFOAM: The Open Source CFD Toolbox
   \\    /   O peration     | Website:  https://openfoam.org
    \\  /    A nd           | Version:  8
     \\/     M anipulation  |
\*---------------------------------------------------------------------------*/
FoamFile
{
    version     2.0;
    format      ascii;
    class       volVectorField;
    location    "1500";
    object      wallShearStress;
}
// * * * * * * * * * * * * * * * * * * * * * * * * * * * * * * * * * * * * * //

dimensions      [0 2 -2 0 0 0 0];

internalField   uniform (0 0 0);

boundaryField
{
    inlet
    {
        type            calculated;
        value           uniform (0 0 0);
    }
    outlet
    {
        type            calculated;
        value           uniform (0 0 0);
    }
    upperWall
    {
        type            calculated;
        value           nonuniform List<vector> 
223
(
(-0.582193 -0.392359 0)
(-0.977814 -0.219377 0)
(-0.939336 -0.0567747 0)
(-0.81071 -0.00585779 0)
(-0.734594 0.00331369 0)
(-0.695452 0.0023154 0)
(-0.67094 0.0004243 0)
(-0.6535 -0.00144897 0)
(-0.640541 -0.00256682 0)
(-0.629801 -0.00217396 0)
(-0.620128 -0.00134621 0)
(-0.610876 -0.000985211 0)
(-0.603119 -0.00163202 0)
(-0.597042 -0.00155397 0)
(-0.590603 0.000492273 0)
(-0.584434 0.000986375 0)
(-0.579778 -0.000241674 0)
(-0.575269 0.00087082 0)
(-0.570772 0.00263074 0)
(-0.567432 0.00184028 4.23328e-22)
(-0.564756 0.00123548 0)
(-0.561951 0.00280866 0)
(-0.558577 0.00308048 0)
(-0.55551 0.0026044 4.46778e-22)
(-0.552861 0.00288846 0)
(-0.550044 0.00332082 0)
(-0.547175 0.0035276 0)
(-0.544236 0.00352749 -9.38415e-22)
(-0.541362 0.00306557 9.46591e-22)
(-0.538646 0.00261293 9.5698e-22)
(-0.535973 0.00248509 0)
(-0.533262 0.00219321 -9.78926e-22)
(-0.530612 0.00193281 0)
(-0.527977 0.00173289 1.00188e-21)
(-0.525334 0.00156353 1.01393e-21)
(-0.522682 0.00143378 -1.02646e-21)
(-0.52001 0.00132948 0)
(-0.517323 0.00124719 0)
(-0.514616 0.00118384 0)
(-0.511886 0.00113556 0)
(-0.509128 0.00109917 -1.09107e-21)
(-0.506342 0.00107239 0)
(-0.503523 0.00105348 0)
(-0.500669 0.00104092 1.13115e-21)
(-0.497778 0.00103386 0)
(-0.494844 0.00103129 1.15761e-21)
(-0.491867 0.0010325 -1.17059e-21)
(-0.488841 0.00103676 1.18334e-21)
(-0.485764 0.00104373 0)
(-0.482634 0.00105216 0)
(-0.479448 0.00106109 0)
(-0.47621 0.00106962 1.23085e-21)
(-0.472924 0.00107659 -1.24152e-21)
(-0.469602 0.0010821 0)
(-0.466259 0.00108727 0)
(-0.46291 0.00109266 0)
(-0.459565 0.00109732 0)
(-0.456231 0.00110005 0)
(-0.452907 0.0011002 0)
(-0.449589 0.0010978 0)
(-0.44627 0.00109352 0)
(-0.442938 0.00108839 1.29208e-21)
(-0.439583 0.0010836 -1.29185e-21)
(-0.436194 0.0010799 0)
(-0.43276 0.00107794 0)
(-0.42927 0.00107812 0)
(-0.425715 0.00108033 -1.27848e-21)
(-0.422087 0.00108441 0)
(-0.418379 0.00109021 0)
(-0.414586 0.0010973 0)
(-0.410703 0.00110533 0)
(-0.406726 0.00111382 0)
(-0.402654 0.0011222 -2.43459e-21)
(-0.398485 0.00113 0)
(-0.394222 0.00113665 0)
(-0.389867 0.00114165 0)
(-0.385425 0.00114477 0)
(-0.380906 0.00114592 0)
(-0.376321 0.00114492 0)
(-0.371681 0.0011416 0)
(-0.367 0.00113558 2.09555e-21)
(-0.362287 0.00112671 0)
(-0.35755 0.00111516 0)
(-0.352793 0.00110124 0)
(-0.34802 0.00108537 -1.8399e-21)
(-0.34323 0.0010682 0)
(-0.338421 0.00105039 -1.69047e-21)
(-0.333589 0.00103247 0)
(-0.32873 0.00101538 0)
(-0.323835 0.000999891 0)
(-0.319024 0.000992067 -1.35127e-21)
(-0.316383 0.00100121 0)
(-0.313659 0.0010151 1.1808e-21)
(-0.310854 0.00102974 1.0901e-21)
(-0.307974 0.00104291 0)
(-0.305029 0.00105387 8.96412e-22)
(-0.302032 0.00106252 0)
(-0.298995 0.00107022 0)
(-0.295934 0.00107647 0)
(-0.29286 0.00108647 -4.54939e-22)
(-0.289792 0.00109085 0)
(-0.286735 0.00110335 -2.05506e-22)
(-0.283712 0.00110551 7.34818e-23)
(-0.280723 0.00111132 0)
(-0.27779 0.00111612 0)
(-0.274909 0.00110849 0)
(-0.272095 0.00109187 0)
(-0.269335 0.00106355 0)
(-0.266663 0.000969418 0)
(-0.26397 0.000891373 0)
(-0.261438 0.000835013 1.15219e-21)
(-0.259146 0.000780257 0)
(-0.256704 0.000933778 0)
(-0.254646 0.0011238 0)
(-0.252444 0.00120379 0)
(-0.250362 0.00097073 0)
(-0.248171 0.0011344 0)
(-0.246318 0.00163284 0)
(-0.244617 0.000979569 0)
(-0.242467 0.000207414 0)
(-0.24064 0.000203516 0)
(-0.238609 0.000369961 0)
(-0.236959 0.000577363 0)
(-0.235251 0.000699081 7.18627e-21)
(-0.233459 0.000539173 0)
(-0.232009 0.000461787 0)
(-0.230272 0.000693377 0)
(-0.228429 0.00063866 -8.8446e-21)
(-0.227013 0.00057766 0)
(-0.225314 0.000697756 0)
(-0.2239 0.000825156 -1.00711e-20)
(-0.222639 0.000779824 0)
(-0.221335 0.000568372 1.08951e-20)
(-0.220098 0.000983865 0)
(-0.218888 0.00106695 0)
(-0.21784 0.000912318 0)
(-0.216592 0.00106999 -1.25384e-20)
(-0.215697 0.000846397 0)
(-0.214943 0.000751322 1.32958e-20)
(-0.213992 0.000665143 0)
(-0.213076 0.000505649 0)
(-0.212097 0.000441204 0)
(-0.211116 0.000586702 0)
(-0.209852 0.000115338 0)
(-0.208174 -0.000462274 0)
(-0.206953 -0.0002635 0)
(-0.206027 -3.79312e-06 0)
(-0.205062 -2.31473e-06 0)
(-0.204641 1.89799e-05 0)
(-0.203728 0.000252682 0)
(-0.202793 0.000274751 1.85454e-20)
(-0.202423 0.00024697 -1.88294e-20)
(-0.201638 0.000223721 0)
(-0.201065 0.000199541 0)
(-0.200406 0.000284212 0)
(-0.199838 0.000423311 0)
(-0.199108 0.00044462 -2.09436e-20)
(-0.198591 0.000369874 2.12871e-20)
(-0.198112 0.000736656 -2.16564e-20)
(-0.197515 0.000537185 0)
(-0.196615 -0.000102529 -2.27096e-20)
(-0.196187 -5.01757e-05 -4.61445e-20)
(-0.195729 0.00024803 0)
(-0.195184 0.000308544 -4.78151e-20)
(-0.19512 0.000352061 4.8278e-20)
(-0.19442 0.000703382 0)
(-0.194413 0.000849249 0)
(-0.194418 0.000255501 0)
(-0.193365 -0.000301135 0)
(-0.193279 -0.000124767 0)
(-0.192567 0.000110151 -5.36904e-20)
(-0.192112 8.47502e-05 0)
(-0.19212 9.4237e-05 -5.49466e-20)
(-0.191285 0.000268501 0)
(-0.190502 0.000208348 0)
(-0.190386 0.000152018 0)
(-0.189443 0.000236874 0)
(-0.188862 0.000275531 0)
(-0.188507 0.000251324 6.08026e-20)
(-0.188161 0.000249837 0)
(-0.187123 0.000334294 0)
(-0.186174 0.000376811 -6.42811e-20)
(-0.185729 0.000487505 0)
(-0.184977 0.000363187 0)
(-0.18396 0.000214469 0)
(-0.182658 0.000340105 6.9302e-20)
(-0.181619 0.000353405 0)
(-0.180641 0.000353779 0)
(-0.179289 0.000447895 0)
(-0.17696 0.000497176 0)
(-0.175099 0.00049113 -7.71633e-20)
(-0.172934 0.000651439 0)
(-0.16946 0.000810218 0)
(-0.165756 0.00108685 0)
(-0.161513 0.00143147 8.79075e-20)
(-0.15485 0.00136526 0)
(-0.147869 0.00205311 0)
(-0.122897 0.0022416 -1.08538e-19)
(-0.140848 0.00684007 -6.01853e-36)
(-0.169216 0.0134067 1.25169e-17)
(-0.186799 0.0171861 2.35442e-17)
(-0.193257 0.018947 2.26893e-17)
(-0.196761 0.0197344 2.19909e-17)
(-0.200932 0.0203432 2.11455e-17)
(-0.205407 0.0210276 -2.02258e-17)
(-0.209622 0.0215316 -1.95201e-17)
(-0.213811 0.02188 0)
(-0.218053 0.0220231 -3.66559e-17)
(-0.220201 0.0221851 -1.80747e-17)
(-0.224676 0.0227239 6.43983e-34)
(-0.227506 0.0229066 -1.20371e-35)
(-0.231053 0.0233657 -3.22777e-17)
(-0.235341 0.0239372 -3.06848e-17)
(-0.242341 0.0247805 -2.84652e-17)
(-0.249522 0.0254457 -2.40741e-35)
(-0.256864 0.0260688 4.94032e-17)
(-0.263914 0.0266482 2.2646e-17)
(-0.272756 0.0274469 1.20371e-35)
(-0.282661 0.0283577 -3.48617e-17)
(-0.291219 0.0289998 -1.58067e-20)
(-0.300885 0.0295781 -3.00927e-36)
(-0.30444 0.030417 1.34851e-17)
(-0.332564 0.0321499 -7.6289e-18)
)
;
    }
    lowerWall
    {
        type            calculated;
        value           nonuniform List<vector> 
250
(
(-0.653909 0.466638 0)
(-1.14095 0.204678 0)
(-1.03492 0.0379587 0)
(-0.869573 -0.000935979 0)
(-0.786941 -0.00419162 0)
(-0.746063 -0.00160781 0)
(-0.719878 0.00041618 0)
(-0.700645 -0.000651795 0)
(-0.685089 -0.00405593 0)
(-0.671318 -0.00471215 0)
(-0.658933 -0.00298816 0)
(-0.64772 -0.000864185 0)
(-0.637517 0.00142611 0)
(-0.628189 0.00210388 0)
(-0.61932 0.00136795 0)
(-0.611521 0.00135749 0)
(-0.60458 0.00169579 0)
(-0.605068 0.00194306 0)
(-0.00426037 -0.0228576 0)
(-0.0027588 -0.0176423 0)
(-0.000676836 -0.0144931 0)
(0.00194474 -0.0137777 9.02316e-20)
(0.00526912 -0.0151982 -7.8624e-20)
(0.00896182 -0.0208212 6.28532e-20)
(0.0127403 -0.0200863 -4.84767e-20)
(0.025628 -0.0633145 0)
(-0.084063 -0.144715 0)
(0.000872645 -0.00384048 0)
(-0.00766511 0.00954605 0)
(-0.00851608 0.0328207 0)
(-0.00254959 0.0448546 0)
(0.00295316 0.0442611 1.82236e-20)
(0.0061825 0.0360631 -1.89671e-20)
(0.00818698 0.0241613 0)
(0.00946027 0.010161 -5.42326e-20)
(0.00943151 -0.00404185 6.11482e-20)
(0.00793317 -0.0174218 0)
(0.00614115 -0.0291942 0)
(0.00438169 -0.0385617 0)
(0.00268721 -0.045139 0)
(0.000986041 -0.048879 0)
(-0.000885132 -0.0495141 0)
(-0.0028205 -0.0464076 0)
(-0.00437897 -0.0399021 0)
(-0.00492613 -0.0308265 0)
(0.00132855 -0.00151214 0)
(0.00133791 0.0065269 0)
(-0.00450907 0.00961824 0)
(-0.00959692 0.00975618 0)
(-0.0133828 0.0082993 0)
(-0.0158891 0.00623505 0)
(-0.017264 0.00409748 1.49585e-21)
(-0.0177827 0.002006 -1.52745e-21)
(-0.0173312 -7.1187e-06 0)
(-0.0160536 -0.00168637 -1.6532e-21)
(-0.0141882 -0.00283766 0)
(-0.0120501 -0.00329654 0)
(-0.0100504 -0.00303594 -0)
(-0.00855275 -0.0022803 2.57052e-21)
(-0.00761612 -0.00142303 0)
(-0.0069379 -0.000815811 0)
(-0.00612046 -0.000623378 -3.37848e-21)
(-0.00499289 -0.00100039 0)
(-0.00340859 -0.0023858 0)
(-0.000488821 -0.00505739 0)
(0.00436041 -0.00740349 3.03339e-21)
(0.00994531 -0.00889504 0)
(0.0158463 -0.00984991 1.46926e-21)
(0.0218917 -0.0106168 0)
(0.0280973 -0.0112689 -0)
(0.0344079 -0.0115143 8.44749e-22)
(0.0405404 -0.0113546 0)
(0.0491479 -0.0116032 -7.54077e-22)
(0.058938 -0.0117553 -0)
(0.0686323 -0.0115827 7.70737e-22)
(0.0780412 -0.0111689 0)
(0.0870142 -0.0105841 0)
(0.0954585 -0.00989006 0)
(0.103316 -0.00913659 -0)
(0.110563 -0.0083607 0)
(0.117196 -0.00758964 -8.1119e-22)
(0.123229 -0.00684046 -0)
(0.128685 -0.00612267 1.63315e-21)
(0.13359 -0.00544048 0)
(0.137973 -0.00479418 -1.63503e-21)
(0.141858 -0.00418211 -0)
(0.145271 -0.00360151 -0)
(0.148232 -0.00304951 1.62112e-21)
(0.150757 -0.00252411 0)
(0.152863 -0.00202412 1.6009e-21)
(0.154561 -0.00155031 -1.58759e-21)
(0.155863 -0.00110634 -0)
(0.156782 -0.000698899 -1.55497e-21)
(0.157328 -0.000337878 -1.53594e-21)
(0.157514 -3.98406e-05 -0)
(0.157408 0.000194786 0)
(0.157076 0.000391577 0)
(0.156522 0.00056822 0)
(0.155761 0.000731058 -0)
(0.1548 0.000884186 1.37587e-21)
(0.153648 0.00102831 0)
(0.152312 0.00116406 -1.30709e-21)
(0.150799 0.00129165 -0)
(0.149116 0.00141124 -0)
(0.147271 0.00152287 1.19064e-21)
(0.145272 0.0016264 0)
(0.143126 0.0017219 -1.10494e-21)
(0.140842 0.00180933 -0)
(0.138429 0.00188861 0)
(0.135895 0.00195981 -0)
(0.133249 0.00202308 9.16918e-22)
(0.130501 0.00207842 0)
(0.127659 0.00212595 -0)
(0.124733 0.00216588 7.63874e-22)
(0.121732 0.00219835 0)
(0.118665 0.00222354 6.57342e-22)
(0.115541 0.00224173 0)
(0.11237 0.00225318 0)
(0.10916 0.00225816 0)
(0.105919 0.00225691 -4.36263e-22)
(0.102656 0.00224981 -0)
(0.0993797 0.00223713 0)
(0.0960971 0.0022192 -2.65663e-22)
(0.0928156 0.00219634 -2.08211e-22)
(0.089543 0.0021689 -0)
(0.0862852 0.00213726 -9.27417e-23)
(0.0830494 0.00210172 -0)
(0.0798408 0.00206268 4.64315e-23)
(0.0766657 0.00202054 -0)
(0.0735287 0.00197576 2.78848e-22)
(0.0704347 0.00192876 0)
(0.0673881 0.00188022 -5.11528e-22)
(0.0643923 0.00183085 -0)
(0.0614508 0.00178161 0)
(0.0585661 0.00173384 -0)
(0.0557402 0.00168923 9.78289e-22)
(0.0529744 0.00164994 0)
(0.050269 0.00161814 -1.21373e-21)
(0.0476228 0.00159484 0)
(0.0457844 0.00160348 1.47549e-21)
(0.0442419 0.00162104 1.63399e-21)
(0.0427029 0.00162595 1.79891e-21)
(0.0411755 0.00161307 0)
(0.0396651 0.00158974 0)
(0.0381714 0.00156404 0)
(0.0366932 0.00153823 0)
(0.0352302 0.00151251 0)
(0.0337832 0.00148691 0)
(0.0323521 0.00146145 0)
(0.030938 0.0014362 0)
(0.029541 0.00141138 -3.69164e-21)
(0.0281616 0.00138718 -3.96728e-21)
(0.0268 0.00136374 0)
(0.0254561 0.00134076 0)
(0.0241307 0.00131669 0)
(0.0228249 0.00129179 -5.26718e-21)
(0.0215388 0.00126758 0)
(0.0202723 0.00124394 0)
(0.0190252 0.00122087 0)
(0.0177978 0.00119843 0)
(0.0165903 0.0011767 7.5357e-21)
(0.0154024 0.00115574 0)
(0.0142343 0.00113565 0)
(0.0130858 0.00111653 -9.4544e-21)
(0.0119568 0.00109841 1.02319e-20)
(0.0108472 0.0010814 0)
(0.00975712 0.00106578 1.2068e-20)
(0.00868636 0.00105218 0)
(0.00763456 0.0010418 -1.44062e-20)
(0.00660104 0.00103491 0)
(0.00558545 0.0010305 0)
(0.00458779 0.00102828 0)
(0.00360759 0.00102857 0)
(0.00264442 0.0010316 0)
(0.00169874 0.00103732 5.57033e-20)
(0.000772044 0.0010429 6.42113e-20)
(-0.000137709 0.00103022 0)
(-0.00103494 0.000987422 0)
(-0.00191671 0.000935043 0)
(-0.00278299 0.000885552 -5.28927e-20)
(-0.00363364 0.000840636 0)
(-0.00446851 0.000799891 0)
(-0.00528796 0.000762829 0)
(-0.00609257 0.000728956 -4.04179e-20)
(-0.00688289 0.000697813 3.83677e-20)
(-0.00765945 0.000669021 0)
(-0.00842268 0.000642272 0)
(-0.00917305 0.000617322 3.36196e-20)
(-0.00991099 0.000593977 3.23791e-20)
(-0.0106369 0.000572065 0)
(-0.0113513 0.000551458 0)
(-0.0120545 0.000532042 -2.93538e-20)
(-0.012747 0.000513716 2.85262e-20)
(-0.0134291 0.000496404 0)
(-0.0141014 0.000480036 0)
(-0.0147642 0.00046455 2.64365e-20)
(-0.0154181 0.000449892 0)
(-0.0160634 0.000436017 0)
(-0.0167005 0.00042288 2.47912e-20)
(-0.01733 0.000410447 0)
(-0.0179524 0.000398685 2.38753e-20)
(-0.018568 0.000387559 0)
(-0.0191773 0.000377041 0)
(-0.0197808 0.000367103 0)
(-0.020379 0.000357701 -2.23595e-20)
(-0.0209722 0.00034882 0)
(-0.021561 0.000340412 0)
(-0.0221457 0.000332416 0)
(-0.0227266 0.000324787 0)
(-0.0233039 0.000317408 0)
(-0.0238776 0.0003102 0)
(-0.0244477 0.000303021 -2.03862e-20)
(-0.0250136 0.000295642 -2.01559e-20)
(-0.0255747 0.000287821 0)
(-0.0261295 0.000279157 0)
(-0.0266757 0.000269109 0)
(-0.0272099 0.000256977 1.93611e-20)
(-0.0277273 0.000241505 0)
(-0.028219 0.000221268 -3.8136e-20)
(-0.0286759 0.00019222 3.79298e-20)
(-0.0290689 0.000152599 3.78207e-20)
(-0.0294001 7.78709e-05 -3.78593e-20)
(-0.0294818 -3.9397e-05 3.80462e-20)
(-0.0295065 -0.00035655 -3.83987e-20)
(-0.0279719 -0.00061687 0)
(-0.0293446 -0.000516185 -2.43322e-18)
(-0.0327682 -0.00134234 -2.2698e-18)
(-0.0364117 -0.00203331 0)
(-0.0395323 -0.00257598 -4.06093e-18)
(-0.0424822 -0.00301851 -7.75791e-18)
(-0.0455547 -0.00342141 -3.7196e-18)
(-0.0487782 -0.0038189 3.56822e-18)
(-0.052115 -0.00430342 -3.00927e-35)
(-0.0555934 -0.00476323 0)
(-0.0592927 -0.00507517 3.14831e-18)
(-0.0632348 -0.00539223 3.02948e-18)
(-0.0674237 -0.00581905 6.01853e-36)
(-0.0719152 -0.00627459 0)
(-0.0767367 -0.00671299 0)
(-0.0819321 -0.00719852 -1.52344e-35)
(-0.0875512 -0.00773939 9.65786e-35)
(-0.0936669 -0.00834083 1.08334e-34)
(-0.100335 -0.00900548 -4.158e-18)
(-0.107696 -0.00972733 -3.81227e-18)
(-0.116757 -0.0106215 0)
(-0.127572 -0.0116256 6.13672e-18)
(-0.138426 -0.0127329 1.03492e-17)
(-0.15365 -0.0139265 6.01853e-36)
(-0.162849 -0.0152936 -5.09794e-18)
(-0.191963 -0.0169814 -2.40741e-35)
)
;
    }
    frontAndBack
    {
        type            empty;
    }
}


// ************************************************************************* //
