/*--------------------------------*- C++ -*----------------------------------*\
  =========                 |
  \\      /  F ield         | OpenFOAM: The Open Source CFD Toolbox
   \\    /   O peration     | Website:  https://openfoam.org
    \\  /    A nd           | Version:  8
     \\/     M anipulation  |
\*---------------------------------------------------------------------------*/
FoamFile
{
    version     2.0;
    format      ascii;
    class       volScalarField;
    location    "1800";
    object      k;
}
// * * * * * * * * * * * * * * * * * * * * * * * * * * * * * * * * * * * * * //

dimensions      [0 2 -2 0 0 0 0];

internalField   nonuniform List<scalar> 
12225
(
1.57195
1.86942
1.87048
1.86028
1.92765
1.70541
1.66855
1.81412
1.36499
2.29611
2.06871
1.6473
1.7922
1.30388
2.35798
1.93938
2.00406
2.58482
0.62783
0.681803
0.697601
0.728168
0.731485
0.726624
0.755657
0.801558
0.783537
0.814977
0.839266
0.860503
0.882682
0.875285
0.908082
0.919419
0.939098
0.952882
0.557866
0.563414
0.563268
0.561567
0.555486
0.544827
0.536839
0.531167
0.523469
0.513244
0.506806
0.501331
0.497214
0.492634
0.490961
0.489979
0.490811
0.490103
0.549323
0.548621
0.547348
0.54442
0.539993
0.533706
0.527459
0.520163
0.513119
0.504472
0.496625
0.488265
0.481449
0.474429
0.469054
0.463424
0.45876
0.453797
0.548517
0.545788
0.543694
0.540893
0.537783
0.533642
0.529396
0.524285
0.519284
0.513481
0.507966
0.502059
0.496855
0.491465
0.48699
0.482201
0.478225
0.473735
0.548418
0.545149
0.542538
0.539817
0.53713
0.533938
0.530683
0.526946
0.523223
0.519124
0.515144
0.510968
0.507125
0.503188
0.499722
0.496102
0.492965
0.489531
0.54837
0.545005
0.542101
0.539322
0.536715
0.533943
0.531172
0.528182
0.525192
0.522042
0.518955
0.515791
0.512799
0.509787
0.507021
0.504208
0.501668
0.498989
0.548337
0.544987
0.54196
0.539105
0.536453
0.533807
0.531215
0.52855
0.52591
0.523211
0.520569
0.51791
0.515365
0.512835
0.510464
0.508091
0.505899
0.50364
0.548317
0.54498
0.541893
0.538982
0.536274
0.533655
0.531136
0.528635
0.526189
0.523748
0.521368
0.51901
0.516742
0.51451
0.512394
0.510301
0.50834
0.506356
0.548301
0.544976
0.541858
0.53891
0.536147
0.533514
0.53101
0.528586
0.526246
0.523962
0.521752
0.519593
0.517518
0.515496
0.513567
0.511681
0.509896
0.508121
0.548292
0.544968
0.541833
0.538864
0.536064
0.533407
0.53089
0.528484
0.526186
0.523974
0.521852
0.519805
0.517845
0.515952
0.514143
0.512392
0.510726
0.509097
0.548285
0.544959
0.541815
0.538834
0.536014
0.533338
0.530801
0.528388
0.526094
0.523902
0.521812
0.519811
0.517901
0.516071
0.514323
0.512644
0.511042
0.509498
0.548282
0.544953
0.5418
0.538812
0.53598
0.533293
0.530742
0.528319
0.526015
0.523822
0.521733
0.519743
0.517844
0.516033
0.514304
0.512653
0.511074
0.509565
0.54828
0.544947
0.541789
0.538796
0.535957
0.533261
0.530703
0.52827
0.525958
0.523757
0.521663
0.519668
0.517768
0.515955
0.514227
0.512578
0.511004
0.509501
0.548279
0.544944
0.541782
0.538784
0.53594
0.533239
0.530674
0.528236
0.525917
0.523711
0.52161
0.519609
0.517703
0.515886
0.514152
0.5125
0.510922
0.509417
0.548278
0.544941
0.541777
0.538776
0.535928
0.533224
0.530655
0.528212
0.525889
0.523678
0.521573
0.519568
0.517656
0.515835
0.514097
0.51244
0.510858
0.509349
0.548277
0.54494
0.541775
0.538772
0.535922
0.533215
0.530643
0.528198
0.525872
0.523658
0.521549
0.519541
0.517626
0.515802
0.514061
0.512401
0.510816
0.509304
0.548277
0.54494
0.541774
0.538771
0.53592
0.533213
0.530639
0.528194
0.525865
0.523651
0.52154
0.519531
0.517614
0.515789
0.514046
0.512385
0.510798
0.509284
0.548278
0.544941
0.541776
0.538773
0.535923
0.533215
0.530644
0.528197
0.525871
0.523655
0.521547
0.519535
0.517621
0.515793
0.514051
0.512388
0.510802
0.509287
0.548278
0.544943
0.541779
0.538778
0.53593
0.533225
0.530654
0.52821
0.525884
0.523671
0.52156
0.519551
0.517633
0.515806
0.514061
0.512398
0.510809
0.509295
0.548278
0.544945
0.541784
0.538786
0.535942
0.53324
0.530672
0.528229
0.5259
0.52368
0.521561
0.519541
0.51761
0.515771
0.514014
0.512341
0.510743
0.509224
0.54828
0.54495
0.541792
0.5388
0.535961
0.533262
0.530689
0.528226
0.525867
0.523602
0.521431
0.519349
0.517362
0.515467
0.513662
0.511952
0.51032
0.508785
0.54828
0.544962
0.541805
0.538822
0.535982
0.533262
0.530625
0.528059
0.525552
0.523113
0.52075
0.518483
0.516315
0.514275
0.512338
0.510546
0.50883
0.507273
0.548291
0.544996
0.541812
0.538827
0.535923
0.533061
0.53016
0.527235
0.524296
0.521394
0.518558
0.51586
0.513312
0.51098
0.508796
0.506866
0.505025
0.503444
0.54837
0.545064
0.541712
0.53865
0.535479
0.532139
0.528509
0.524702
0.520795
0.516934
0.51315
0.509667
0.50644
0.503622
0.500992
0.498849
0.496802
0.49503
0.548713
0.545153
0.541298
0.538007
0.534064
0.529524
0.524261
0.518579
0.512789
0.507093
0.501505
0.496679
0.492265
0.488474
0.48503
0.481084
0.479278
0.474447
0.549928
0.54537
0.540527
0.536763
0.530909
0.523692
0.514946
0.505401
0.495983
0.486647
0.477554
0.470404
0.463793
0.457367
0.45033
0.445578
0.443339
0.44266
0.554024
0.548772
0.543135
0.538117
0.529326
0.517087
0.501808
0.48612
0.470897
0.455765
0.442344
0.43186
0.422646
0.415366
0.412269
0.409728
0.411217
0.415329
0.580209
0.586919
0.59942
0.604114
0.61746
0.611713
0.613789
0.614416
0.614984
0.615064
0.610473
0.611991
0.61106
0.62144
0.622912
0.635083
0.655232
0.675288
1.01575
1.24155
1.42543
1.53107
1.58925
1.59265
1.58426
1.56163
1.52916
1.49445
1.45961
1.42703
1.39659
1.36931
1.34488
1.32346
1.30516
1.28958
1.98359e-08
4.86447e-07
2.48423e-06
9.81179e-06
3.27623e-05
9.95313e-05
0.000258808
0.000513717
0.000831187
0.00116503
0.00146491
0.00169762
0.00185375
0.00191454
0.00189225
0.00181872
0.0016774
0.00143942
0.001229
0.00104721
0.000874162
0.000705636
0.000542145
0.000390187
0.000254358
0.000148695
7.8565e-05
3.92582e-05
1.98376e-05
1.07762e-05
6.55532e-06
5.00651e-06
5.85968e-06
1.24583e-05
2.81673e-05
0.00016434
0.000377599
0.000821317
0.00121768
0.00129685
0.00119313
0.000951118
0.000797372
0.000795437
0.00087349
0.00119804
0.00163541
0.00344887
0.00786685
0.0241876
0.0586199
0.0902019
0.105467
0.112194
0.131089
0.135764
0.134677
0.149402
0.169489
0.142035
0.149684
0.157167
0.170385
0.179106
0.189248
0.197484
0.206597
0.214821
0.223321
0.231364
0.239501
0.247351
0.255224
0.262906
0.270567
0.278095
0.285573
0.292951
0.300261
0.307488
0.314634
0.321701
0.328678
0.335576
0.342372
0.349083
0.355679
0.362178
0.368552
0.37481
0.380933
0.386912
0.392731
0.398385
0.403859
0.409148
0.414248
0.41917
0.423941
0.428629
0.433173
0.437554
0.44179
0.445867
0.44979
0.453549
0.457146
0.460573
0.463831
0.466914
0.469821
0.472549
0.475097
0.477461
0.479643
0.481638
0.483448
0.485071
0.486508
0.487758
0.488821
0.489698
0.490392
0.490902
0.491234
0.491386
0.49136
0.491209
0.490949
0.490189
0.489608
0.488553
0.487597
0.486501
0.485242
0.4838
0.482068
0.480235
0.478221
0.476084
0.473815
0.471425
0.468921
0.466303
0.463589
0.460768
0.457897
0.454854
0.451819
0.448602
0.445422
0.442053
0.438752
0.43526
0.431871
0.428311
0.424813
0.421271
0.417735
0.414205
0.410686
0.407185
0.403704
0.400249
0.396823
0.393437
0.390094
0.386807
0.383579
0.380416
0.377313
0.374271
0.371266
0.368272
0.365234
0.362083
0.35869
0.354706
0.34952
0.332701
8.05404e-08
2.25563e-06
1.53562e-05
6.78418e-05
0.000253746
0.000779622
0.00180921
0.00329177
0.00500929
0.0067692
0.00837459
0.00969049
0.0106573
0.0112706
0.0115573
0.0115164
0.0113287
0.0109584
0.0103349
0.00948093
0.00839891
0.00714767
0.00577533
0.00439448
0.00304793
0.00201665
0.0012784
0.000790117
0.000479071
0.000293623
0.000188869
0.000140555
0.000113057
0.000187352
0.000266678
0.00169739
0.00381826
0.00768176
0.0109277
0.0125821
0.0125039
0.0120488
0.0121514
0.0137844
0.0180559
0.0244072
0.0361334
0.0560281
0.0822475
0.107494
0.131308
0.149211
0.163574
0.177534
0.195343
0.210775
0.229099
0.247958
0.267153
0.285068
0.305955
0.326428
0.347589
0.367459
0.38764
0.407101
0.426547
0.445543
0.464431
0.483039
0.501528
0.519837
0.538045
0.556133
0.574136
0.592049
0.609889
0.627653
0.645344
0.662961
0.680501
0.697962
0.715333
0.732614
0.749789
0.766855
0.783792
0.800597
0.81725
0.833743
0.850056
0.866162
0.882042
0.897671
0.913022
0.928066
0.942769
0.957093
0.970998
0.984456
0.997619
1.01051
1.02311
1.03543
1.04744
1.05913
1.0705
1.08153
1.09221
1.10253
1.11249
1.12206
1.13124
1.14003
1.14841
1.15638
1.16393
1.17106
1.17775
1.184
1.18981
1.19517
1.20008
1.20454
1.20853
1.21207
1.21515
1.21778
1.21994
1.22164
1.22291
1.22356
1.22392
1.22405
1.22378
1.22325
1.22252
1.22132
1.21971
1.2177
1.21531
1.21254
1.20942
1.20594
1.20213
1.19799
1.19352
1.18875
1.18364
1.17828
1.1726
1.16668
1.16047
1.15405
1.14738
1.14053
1.13349
1.1263
1.11899
1.11157
1.10405
1.09646
1.0888
1.08108
1.07331
1.0655
1.05768
1.04986
1.04207
1.0343
1.02656
1.01886
1.01114
1.00339
0.995507
0.987412
0.978856
0.969518
0.957495
0.929343
2.2284e-07
6.69979e-06
5.1517e-05
0.000251184
0.000741605
0.00211974
0.00428855
0.00680168
0.00931227
0.0115849
0.0134799
0.0149389
0.0159614
0.0165715
0.0168345
0.0167962
0.0166018
0.0162168
0.0156492
0.0149423
0.0140902
0.013086
0.0119103
0.0105667
0.00907287
0.00737695
0.0056304
0.00407233
0.00272912
0.00181475
0.00124733
0.00094452
0.000708092
0.00108962
0.00188117
0.00725555
0.0156044
0.0242993
0.0306427
0.0342495
0.0357258
0.038829
0.0477226
0.064762
0.0832446
0.102559
0.12417
0.145814
0.166362
0.187884
0.208914
0.230638
0.254246
0.28126
0.31007
0.339326
0.369323
0.399117
0.428966
0.458547
0.487883
0.516624
0.544629
0.571924
0.598653
0.624795
0.650486
0.675757
0.7007
0.725345
0.749758
0.773963
0.797999
0.821883
0.845635
0.869264
0.892778
0.916179
0.939468
0.962643
0.985699
1.00863
1.03143
1.05408
1.07658
1.09892
1.12107
1.14304
1.16479
1.18633
1.20764
1.22869
1.24946
1.26995
1.29014
1.31002
1.32957
1.34879
1.36768
1.38624
1.40446
1.4223
1.43977
1.45682
1.47346
1.48966
1.50541
1.5207
1.5355
1.54981
1.56361
1.5769
1.58965
1.60185
1.6135
1.62459
1.63511
1.64504
1.65438
1.66313
1.67127
1.67881
1.68573
1.69204
1.69773
1.70279
1.70723
1.71105
1.71424
1.71682
1.71878
1.72006
1.72076
1.72103
1.7208
1.71994
1.71855
1.71659
1.71405
1.71097
1.70735
1.70321
1.69857
1.69344
1.68783
1.68176
1.67522
1.66828
1.66087
1.6531
1.64489
1.63635
1.62741
1.61817
1.60858
1.59873
1.58862
1.57828
1.56775
1.55706
1.54623
1.53527
1.5242
1.51304
1.5018
1.4905
1.47916
1.46781
1.45648
1.44517
1.43391
1.42269
1.4115
1.40031
1.38906
1.37769
1.366
1.35377
1.33911
1.31305
8.3201e-07
2.49986e-05
0.000197454
0.000832555
0.00237686
0.00562603
0.00942939
0.0131231
0.0163276
0.0188615
0.020689
0.021848
0.0224565
0.022565
0.0224263
0.0220522
0.0214592
0.0207461
0.0199454
0.0190729
0.01813
0.0171121
0.0160013
0.0147752
0.0134156
0.0118995
0.0102515
0.00853903
0.0069327
0.00536697
0.00421597
0.00314285
0.00330874
0.00523273
0.0129208
0.0286384
0.0434713
0.0551685
0.0641674
0.0728595
0.0839339
0.0982568
0.114633
0.130797
0.147612
0.165908
0.187065
0.20937
0.233987
0.260744
0.289366
0.320135
0.352836
0.387115
0.422043
0.457179
0.492336
0.527201
0.561671
0.595667
0.629061
0.661831
0.69391
0.725396
0.756329
0.786777
0.816817
0.846502
0.875893
0.905034
0.933968
0.962724
0.99133
1.0198
1.04815
1.07639
1.10451
1.13252
1.16041
1.18818
1.21582
1.24331
1.27066
1.29784
1.32485
1.35166
1.37827
1.40466
1.43081
1.45671
1.48234
1.50769
1.53274
1.55747
1.58188
1.60595
1.62966
1.653
1.67596
1.69852
1.72064
1.74232
1.76352
1.78422
1.8044
1.82405
1.84315
1.86167
1.8796
1.89692
1.91363
1.92969
1.9451
1.95984
1.97391
1.98728
1.99996
2.01192
2.02316
2.03367
2.04345
2.05249
2.06079
2.06833
2.07511
2.08114
2.08641
2.09093
2.09468
2.09768
2.09993
2.10136
2.10204
2.10221
2.10165
2.10033
2.09832
2.09561
2.09223
2.08818
2.08347
2.07814
2.07218
2.06563
2.0585
2.0508
2.04254
2.03376
2.02445
2.01467
2.00439
1.99368
1.98251
1.97096
1.95899
1.94669
1.93406
1.92116
1.90801
1.89465
1.88111
1.8674
1.85356
1.83959
1.82552
1.81137
1.79716
1.78293
1.76871
1.75452
1.74039
1.72631
1.7123
1.69835
1.68443
1.67052
1.6565
1.64221
1.62604
1.60205
2.86184e-06
8.59106e-05
0.000643072
0.00244852
0.00671598
0.0124156
0.017693
0.0219038
0.0248856
0.0267439
0.027703
0.0279629
0.0278043
0.0273415
0.0266054
0.0257409
0.0248029
0.0238295
0.0228434
0.0218525
0.0208529
0.019834
0.0187768
0.0176572
0.0164483
0.0151176
0.0136644
0.0121421
0.0106661
0.00912781
0.00772452
0.00820633
0.0126729
0.0262032
0.047823
0.0682195
0.0850169
0.0981384
0.109351
0.120547
0.13258
0.14571
0.159933
0.176403
0.196146
0.218783
0.244399
0.272608
0.30322
0.335763
0.369926
0.405454
0.441977
0.47913
0.516544
0.554028
0.591454
0.628685
0.66562
0.702201
0.738363
0.774082
0.80934
0.844173
0.878618
0.912718
0.946519
0.980064
1.01339
1.04655
1.07955
1.11242
1.14519
1.17786
1.21044
1.24292
1.27532
1.30761
1.33979
1.37185
1.40378
1.43556
1.46718
1.49863
1.52988
1.56093
1.59174
1.62231
1.65262
1.68266
1.7124
1.74182
1.77091
1.79964
1.828
1.85598
1.88354
1.91067
1.93735
1.96354
1.98922
2.01437
2.03897
2.06298
2.08639
2.10917
2.13129
2.15275
2.17351
2.19355
2.21287
2.23144
2.24925
2.26627
2.2825
2.29792
2.31252
2.32629
2.33922
2.35129
2.36251
2.37286
2.38235
2.39095
2.39868
2.40552
2.41149
2.41656
2.42075
2.42407
2.42651
2.42799
2.4286
2.42858
2.42767
2.42589
2.4233
2.4199
2.41572
2.41076
2.40504
2.3986
2.39143
2.38357
2.37504
2.36584
2.356
2.34555
2.3345
2.32288
2.31071
2.29802
2.28482
2.27115
2.25702
2.24249
2.22758
2.21234
2.19681
2.18102
2.16501
2.14881
2.13243
2.11591
2.09925
2.0825
2.06568
2.04882
2.03197
2.01514
1.99839
1.98171
1.96514
1.94868
1.93234
1.91614
1.90001
1.88387
1.86634
1.84314
9.16964e-06
0.000268266
0.00190682
0.00674017
0.0150354
0.02226
0.0273767
0.0305179
0.0321503
0.0327498
0.032665
0.0321965
0.031326
0.0302688
0.0291129
0.0279239
0.0267468
0.0256084
0.024521
0.0234833
0.0224846
0.021508
0.0205275
0.0195114
0.0184266
0.0172056
0.0157877
0.0141322
0.0125013
0.0125182
0.015044
0.0244724
0.0441405
0.0694679
0.0931641
0.112166
0.125969
0.136145
0.145165
0.154846
0.166101
0.18055
0.198487
0.219804
0.244721
0.272705
0.303265
0.33581
0.369913
0.405246
0.44157
0.478678
0.516382
0.554519
0.592949
0.631578
0.670326
0.709103
0.747828
0.786434
0.824871
0.863103
0.901115
0.938907
0.976495
1.0139
1.05114
1.08825
1.12525
1.16217
1.19902
1.23582
1.27258
1.30929
1.34596
1.38258
1.41913
1.45561
1.492
1.52827
1.56443
1.60043
1.63628
1.67194
1.70739
1.74263
1.77761
1.81233
1.84677
1.8809
1.9147
1.94815
1.98122
2.0139
2.04615
2.07796
2.1093
2.14013
2.17044
2.20019
2.22936
2.25791
2.28583
2.31308
2.33963
2.36546
2.39055
2.41486
2.43838
2.46108
2.48295
2.50396
2.52409
2.54333
2.56165
2.57905
2.59551
2.61102
2.62557
2.63915
2.65174
2.66335
2.67397
2.68358
2.6922
2.6998
2.70641
2.712
2.71658
2.72017
2.72276
2.72425
2.7248
2.72454
2.72327
2.72104
2.71787
2.71379
2.70882
2.70297
2.69627
2.68874
2.6804
2.67126
2.66136
2.65072
2.63935
2.62728
2.61454
2.60115
2.58714
2.57255
2.55738
2.54168
2.52546
2.50878
2.49168
2.47419
2.45636
2.43824
2.41985
2.40124
2.38243
2.36344
2.3443
2.32504
2.3057
2.28631
2.26692
2.24756
2.22828
2.2091
2.19006
2.17118
2.1525
2.13407
2.11587
2.09784
2.07882
2.0554
2.96985e-05
0.000810081
0.00518669
0.0157185
0.025569
0.0318249
0.0352502
0.0368504
0.0372887
0.0370249
0.0362373
0.0350488
0.0336571
0.0321716
0.0306771
0.029233
0.0278768
0.0266258
0.0254812
0.024431
0.0234557
0.0225256
0.0216054
0.020647
0.0196985
0.0188426
0.0182897
0.0185556
0.0209184
0.02758
0.0418284
0.0648225
0.0901549
0.113588
0.132104
0.144889
0.153731
0.161285
0.169689
0.181314
0.196641
0.215794
0.238751
0.265103
0.294385
0.325843
0.358916
0.393195
0.428437
0.46449
0.501252
0.538649
0.57662
0.615109
0.654062
0.693426
0.733135
0.773114
0.813296
0.853619
0.89403
0.934487
0.974959
1.01543
1.0559
1.09636
1.13682
1.17731
1.21782
1.25836
1.29896
1.33959
1.38027
1.42099
1.46173
1.50247
1.5432
1.58388
1.6245
1.66503
1.70545
1.74573
1.78584
1.82577
1.86548
1.90496
1.94417
1.98309
2.02171
2.05998
2.0979
2.13542
2.17253
2.20918
2.24536
2.28104
2.31618
2.35075
2.38473
2.41807
2.45075
2.48274
2.514
2.54451
2.57423
2.60314
2.6312
2.65839
2.68468
2.71004
2.73445
2.7579
2.78035
2.8018
2.82221
2.84158
2.85989
2.87713
2.89328
2.90833
2.92228
2.93512
2.94684
2.95744
2.96691
2.97525
2.98246
2.98854
2.99349
2.99731
3.00002
3.0015
3.00196
3.00143
2.99979
2.99708
2.99333
2.98856
2.98279
2.97604
2.96834
2.95972
2.95019
2.93978
2.92851
2.91642
2.90351
2.88984
2.87541
2.86026
2.84443
2.82793
2.81081
2.79309
2.7748
2.75599
2.73671
2.71699
2.6969
2.67647
2.65573
2.63474
2.61352
2.5921
2.57051
2.54877
2.52693
2.50504
2.48314
2.46128
2.4395
2.41785
2.39635
2.37506
2.35405
2.33336
2.31303
2.29301
2.27227
2.24795
9.015e-05
0.00224181
0.0123083
0.0263343
0.0348532
0.0393172
0.0413889
0.0419707
0.0416291
0.0406109
0.0391041
0.0373414
0.035467
0.0335937
0.0318054
0.0301565
0.0286744
0.0273633
0.0262123
0.0251994
0.024296
0.0234655
0.022629
0.0218423
0.0212764
0.0214878
0.0235347
0.0293122
0.0414625
0.0605825
0.0835891
0.106634
0.12758
0.144248
0.15591
0.163999
0.171282
0.180394
0.192776
0.209063
0.229282
0.253129
0.280142
0.309667
0.341053
0.373737
0.407393
0.441852
0.477037
0.512917
0.54948
0.586728
0.62466
0.663273
0.70254
0.742421
0.78287
0.823832
0.865249
0.907061
0.949216
0.991665
1.03437
1.07731
1.12046
1.1638
1.20734
1.25108
1.295
1.3391
1.38339
1.42785
1.47246
1.5172
1.56205
1.60698
1.65195
1.69692
1.74186
1.78674
1.83152
1.87617
1.92065
1.96495
2.00902
2.05284
2.09638
2.1396
2.18248
2.225
2.26711
2.30879
2.35001
2.39072
2.43091
2.47052
2.50954
2.54793
2.58564
2.62264
2.6589
2.69438
2.72904
2.76286
2.79579
2.82781
2.85887
2.88896
2.91804
2.94608
2.97305
2.99894
3.02372
3.04736
3.06986
3.09118
3.11132
3.13025
3.14798
3.16448
3.17976
3.19379
3.20659
3.21813
3.22842
3.23745
3.24522
3.25174
3.257
3.26102
3.2638
3.26524
3.26556
3.26472
3.26267
3.25945
3.25507
3.24957
3.24297
3.23529
3.22657
3.21682
3.20607
3.19436
3.1817
3.16814
3.15369
3.13838
3.12225
3.10533
3.08766
3.06926
3.05017
3.03042
3.01005
2.98911
2.96765
2.94572
2.92336
2.90062
2.87755
2.85419
2.83057
2.80671
2.78267
2.75846
2.73414
2.70975
2.68535
2.66099
2.63672
2.61258
2.58863
2.56492
2.54153
2.51855
2.49599
2.47386
2.45121
2.42544
0.00023611
0.00530706
0.0223272
0.0357713
0.0426225
0.0458225
0.0469341
0.0467281
0.0456498
0.0439092
0.0417976
0.0395055
0.0371911
0.0349783
0.0329557
0.031176
0.0296652
0.0284273
0.0274559
0.0267303
0.0262788
0.0261969
0.0265786
0.0278782
0.030515
0.035479
0.0446167
0.059065
0.0771587
0.0971674
0.117113
0.134954
0.149469
0.160469
0.169093
0.177464
0.187699
0.201135
0.21831
0.239163
0.263315
0.290225
0.319301
0.349952
0.381713
0.414293
0.447573
0.481526
0.516167
0.551531
0.587655
0.624583
0.662342
0.700942
0.740375
0.780626
0.821663
0.863445
0.905925
0.94905
0.992771
1.03704
1.08182
1.12707
1.17276
1.21888
1.26541
1.31232
1.35962
1.40727
1.45526
1.50357
1.55217
1.60101
1.65006
1.69927
1.74859
1.79797
1.84736
1.89671
1.94597
1.99512
2.0441
2.09288
2.14143
2.18971
2.23767
2.2853
2.33255
2.3794
2.4258
2.47173
2.51714
2.56199
2.60625
2.64989
2.69285
2.73511
2.77661
2.81732
2.8572
2.8962
2.9343
2.97145
3.00761
3.04274
3.07682
3.1098
3.14166
3.17236
3.20187
3.23017
3.25724
3.28305
3.30758
3.33081
3.35272
3.3733
3.39254
3.41044
3.42697
3.44214
3.45593
3.46835
3.47938
3.48903
3.49729
3.50417
3.50967
3.51381
3.51659
3.51791
3.51802
3.51681
3.51429
3.51049
3.50543
3.49914
3.49165
3.48299
3.47318
3.46226
3.45026
3.4372
3.42312
3.40806
3.39203
3.37507
3.35722
3.33851
3.31897
3.29865
3.27758
3.25579
3.23333
3.21026
3.18662
3.16247
3.13786
3.11283
3.08743
3.0617
3.03568
3.0094
2.9829
2.95623
2.92943
2.90256
2.87567
2.84881
2.82205
2.79543
2.76901
2.74287
2.71708
2.69173
2.66689
2.64254
2.61782
2.59033
0.000527816
0.0107059
0.0323299
0.0442035
0.0497677
0.0520707
0.0524374
0.0515495
0.0497654
0.0474129
0.0447456
0.0419823
0.0393059
0.0368571
0.0347334
0.0329915
0.0316602
0.0307108
0.0302223
0.0300854
0.0304689
0.0317248
0.0344888
0.0395916
0.0477865
0.0593618
0.0737304
0.0897697
0.10671
0.123279
0.138292
0.151078
0.16176
0.171202
0.18093
0.192497
0.207003
0.224844
0.245922
0.269854
0.296144
0.324279
0.353783
0.384272
0.415498
0.447357
0.479843
0.513002
0.546897
0.5816
0.617181
0.653695
0.691181
0.729668
0.76917
0.809686
0.851201
0.893688
0.937112
0.981432
1.0266
1.07259
1.11934
1.16682
1.215
1.26385
1.31334
1.36344
1.41414
1.46538
1.51715
1.56939
1.62207
1.67512
1.72849
1.78211
1.83591
1.88983
1.9438
1.99775
2.05164
2.1054
2.15899
2.21238
2.26551
2.31834
2.37084
2.42295
2.47465
2.52591
2.57668
2.62691
2.67657
2.72562
2.774
2.82168
2.86862
2.91477
2.96008
3.00451
3.048
3.09052
3.13203
3.17248
3.21183
3.25005
3.28708
3.32291
3.35748
3.39076
3.42274
3.45337
3.48264
3.51052
3.53699
3.56202
3.5856
3.60771
3.62836
3.64752
3.6652
3.68138
3.69605
3.70923
3.72089
3.73103
3.73967
3.7468
3.75243
3.75658
3.75923
3.76037
3.76014
3.75847
3.75538
3.75091
3.74508
3.73793
3.72947
3.71976
3.7088
3.69665
3.68333
3.66888
3.65333
3.63672
3.61908
3.60044
3.58084
3.56031
3.5389
3.51664
3.49357
3.46973
3.44518
3.41997
3.39416
3.3678
3.34095
3.31364
3.28592
3.25784
3.22943
3.20074
3.17181
3.14269
3.11343
3.08409
3.05472
3.02538
2.99614
2.96705
2.93816
2.90957
2.88136
2.85363
2.82644
2.79981
2.77292
2.74375
0.00100284
0.0183222
0.0409493
0.0518406
0.0567041
0.0584182
0.0582359
0.0567584
0.0544169
0.0515526
0.0484583
0.0453862
0.0425473
0.0401025
0.0381708
0.0368192
0.0361807
0.0361057
0.0367802
0.0384477
0.0414438
0.0461391
0.0528207
0.061661
0.0725607
0.0851957
0.0989507
0.113031
0.126743
0.139513
0.151099
0.161664
0.17192
0.182931
0.195762
0.211141
0.229352
0.250279
0.273595
0.298888
0.32575
0.353813
0.382778
0.41244
0.442703
0.473563
0.505071
0.537313
0.570379
0.604364
0.639341
0.675383
0.712545
0.750871
0.790392
0.831122
0.873062
0.916204
0.960526
1.006
1.0526
1.10027
1.149
1.19872
1.24942
1.30104
1.35356
1.40694
1.46112
1.51608
1.57174
1.62805
1.68495
1.74234
1.80017
1.85833
1.91675
1.97534
2.03402
2.0927
2.15131
2.2098
2.26811
2.32619
2.38398
2.44145
2.49853
2.55518
2.61137
2.66705
2.72221
2.77676
2.83068
2.8839
2.93638
2.98808
3.03895
3.08895
3.138
3.18607
3.2331
3.27905
3.32386
3.36751
3.40993
3.4511
3.49096
3.52947
3.56661
3.60233
3.63661
3.66941
3.70071
3.73048
3.7587
3.78535
3.81041
3.83388
3.85574
3.87599
3.89463
3.91163
3.92701
3.94076
3.95287
3.96334
3.97218
3.9794
3.98499
3.98898
3.99137
3.99218
3.99147
3.98921
3.98543
3.98018
3.97347
3.96535
3.95584
3.94498
3.9328
3.91934
3.90464
3.88874
3.87167
3.85347
3.83418
3.81383
3.79246
3.77011
3.74681
3.7226
3.69752
3.67164
3.645
3.61768
3.58972
3.56118
3.53212
3.50256
3.47256
3.44217
3.41142
3.38035
3.34902
3.31749
3.28581
3.25404
3.22223
3.19046
3.15877
3.12723
3.0959
3.06487
3.03424
3.00412
2.97455
2.94561
2.9165
2.88546
0.00159573
0.0259752
0.0492292
0.059623
0.0639923
0.0652432
0.064618
0.0626835
0.0599257
0.0567442
0.0534808
0.0504221
0.0478081
0.0458282
0.0447176
0.0444005
0.0449169
0.0464252
0.0490698
0.0530056
0.0583706
0.0652349
0.0735722
0.0832518
0.094019
0.10548
0.117193
0.128773
0.140008
0.150846
0.16151
0.172532
0.184623
0.198426
0.214384
0.232641
0.253099
0.275498
0.299527
0.324879
0.351285
0.378526
0.406448
0.434969
0.464078
0.493826
0.524295
0.555593
0.587821
0.621079
0.655459
0.691043
0.7279
0.766091
0.805659
0.846638
0.889046
0.932891
0.978173
1.02488
1.07299
1.12246
1.17328
1.22538
1.27874
1.3333
1.38901
1.44583
1.50369
1.56254
1.6223
1.68287
1.74416
1.80607
1.8685
1.93136
1.99453
2.0579
2.12138
2.18487
2.2483
2.31158
2.37466
2.43747
2.49995
2.56204
2.62369
2.68485
2.74548
2.80554
2.865
2.9238
2.98187
3.03916
3.09562
3.15121
3.20586
3.25954
3.31217
3.3637
3.41407
3.46323
3.51113
3.55773
3.60299
3.64686
3.68929
3.73025
3.76968
3.80756
3.84386
3.87855
3.9116
3.94298
3.97268
4.00066
4.02692
4.05146
4.07426
4.09532
4.11464
4.13221
4.14803
4.16209
4.1744
4.18496
4.19377
4.20084
4.20618
4.2098
4.21173
4.212
4.21066
4.20764
4.20301
4.19683
4.18911
4.17989
4.16921
4.15711
4.14361
4.12877
4.11261
4.09519
4.07655
4.05672
4.03575
4.01368
3.99053
3.96636
3.94118
3.91503
3.88797
3.86007
3.83138
3.80199
3.77193
3.74128
3.71006
3.67833
3.64612
3.61348
3.58044
3.54706
3.5134
3.47953
3.44551
3.41139
3.37723
3.34309
3.30902
3.27508
3.24136
3.20795
3.17494
3.14245
3.11053
3.07926
3.04792
3.01498
0.0023762
0.0329185
0.0569572
0.0673745
0.0715729
0.0725845
0.0716485
0.0693788
0.0663744
0.0631305
0.0600459
0.0574256
0.0554937
0.0545583
0.0544073
0.0552658
0.0571765
0.0601809
0.0643084
0.0695727
0.0759555
0.083379
0.0917183
0.100802
0.11043
0.120406
0.130587
0.140897
0.151396
0.162304
0.173987
0.18686
0.201281
0.217467
0.235472
0.255202
0.276473
0.29906
0.322752
0.347361
0.372743
0.398793
0.425457
0.452729
0.480651
0.509304
0.538784
0.569206
0.600681
0.633317
0.667213
0.702468
0.739164
0.777376
0.81716
0.858564
0.901627
0.946379
0.992834
1.04099
1.09085
1.14238
1.19556
1.25034
1.30667
1.36449
1.42374
1.48434
1.54621
1.60928
1.67342
1.73851
1.80442
1.87101
1.93818
2.0058
2.07376
2.14194
2.21023
2.27852
2.34673
2.41476
2.48256
2.55004
2.61713
2.68375
2.74984
2.81535
2.88025
2.94451
3.00808
3.0709
3.1329
3.19401
3.25419
3.31337
3.37152
3.42856
3.48443
3.53907
3.59243
3.64443
3.69505
3.74423
3.79192
3.83809
3.88268
3.92565
3.96697
4.00659
4.04449
4.08065
4.11503
4.14761
4.17836
4.20726
4.23433
4.25954
4.28289
4.30438
4.32401
4.34177
4.35767
4.37171
4.38388
4.39419
4.40266
4.40929
4.41409
4.41709
4.4183
4.41781
4.4156
4.4116
4.40595
4.39866
4.38977
4.37932
4.36734
4.35388
4.33896
4.32264
4.30496
4.28597
4.2657
4.24421
4.22154
4.19773
4.17282
4.14685
4.11982
4.09177
4.06277
4.03291
4.00226
3.97087
3.93881
3.90612
3.87286
3.83905
3.80474
3.76995
3.73473
3.69915
3.66329
3.6272
3.59095
3.5546
3.5182
3.4818
3.44545
3.40923
3.37321
3.3375
3.3022
3.26741
3.2332
3.19967
3.16613
3.13133
0.00328618
0.0392853
0.0647697
0.0753844
0.0794816
0.0803173
0.0791347
0.0766065
0.0734499
0.0703391
0.0677558
0.0659602
0.0651134
0.0649887
0.0658775
0.0678121
0.0707311
0.0746003
0.0793856
0.0850464
0.0915133
0.0987065
0.106539
0.114935
0.123836
0.133205
0.143058
0.153495
0.164682
0.176825
0.190144
0.204802
0.220883
0.238375
0.257199
0.277221
0.298297
0.320287
0.343075
0.366573
0.390728
0.415518
0.440956
0.467084
0.493974
0.521726
0.550448
0.580253
0.611247
0.643546
0.67726
0.712496
0.749349
0.787908
0.828252
0.870452
0.914569
0.960652
1.00874
1.05884
1.11097
1.1651
1.22121
1.27925
1.33914
1.40081
1.46416
1.52908
1.59545
1.66314
1.73201
1.80187
1.87257
1.94392
2.01579
2.08808
2.16068
2.23349
2.3064
2.37929
2.45206
2.52464
2.59694
2.66888
2.74033
2.81117
2.88139
2.95093
3.01976
3.08785
3.15515
3.22159
3.28709
3.35158
3.415
3.4773
3.53841
3.59829
3.65686
3.71407
3.76983
3.8241
3.87684
3.92799
3.97751
4.02537
4.07151
4.1159
4.15848
4.19924
4.23814
4.27517
4.31029
4.34349
4.37474
4.40403
4.43136
4.45673
4.48012
4.50153
4.52098
4.53846
4.55397
4.56752
4.57912
4.58876
4.59647
4.60228
4.60619
4.60823
4.60844
4.60693
4.60353
4.59834
4.59144
4.58285
4.57261
4.56076
4.54734
4.53239
4.51596
4.49808
4.4788
4.45818
4.43626
4.41309
4.38871
4.36317
4.33653
4.3088
4.28
4.25012
4.21928
4.18758
4.15507
4.12181
4.08787
4.05328
4.01811
3.98238
3.94612
3.90934
3.87209
3.83447
3.79656
3.75842
3.72012
3.68171
3.64323
3.60474
3.56626
3.52789
3.48973
3.45187
3.41441
3.37745
3.34107
3.30537
3.26974
3.23319
0.00424648
0.0456314
0.0723666
0.0833134
0.0873948
0.0880909
0.0865381
0.0836951
0.080596
0.0779563
0.0761701
0.0753575
0.0752168
0.075923
0.0776173
0.0802309
0.0836922
0.0879477
0.0929528
0.098671
0.105066
0.112116
0.119803
0.128126
0.137105
0.146793
0.157275
0.16864
0.181001
0.194445
0.209022
0.224738
0.241561
0.259411
0.278206
0.297849
0.318266
0.339394
0.361199
0.383666
0.406805
0.430643
0.455236
0.480663
0.506994
0.534328
0.562779
0.592467
0.623509
0.65603
0.690148
0.725987
0.763657
0.803268
0.844916
0.888695
0.934687
0.982966
1.03359
1.08657
1.14192
1.19961
1.2596
1.32181
1.38616
1.45253
1.52075
1.59066
1.66205
1.73471
1.80848
1.88315
1.95855
2.03444
2.11063
2.1871
2.26381
2.34068
2.41766
2.49462
2.57144
2.64805
2.72435
2.80021
2.87548
2.95002
3.02385
3.0969
3.16911
3.24045
3.31088
3.38031
3.44866
3.51585
3.58181
3.64649
3.70983
3.77178
3.83227
3.89123
3.9486
4.00432
4.05834
4.11063
4.16114
4.20984
4.2567
4.30166
4.34468
4.38574
4.42482
4.46191
4.49698
4.53003
4.56105
4.59001
4.6169
4.64173
4.66448
4.68517
4.7038
4.72039
4.73493
4.74743
4.75789
4.76635
4.77281
4.77732
4.77991
4.78061
4.77953
4.77657
4.77168
4.76502
4.7566
4.74647
4.73467
4.72123
4.7062
4.68962
4.67154
4.652
4.63104
4.60873
4.5851
4.56021
4.53411
4.50684
4.47846
4.44901
4.4185
4.38694
4.35443
4.32104
4.28685
4.2519
4.21624
4.17994
4.14304
4.10557
4.06758
4.02901
3.98995
3.95051
3.91079
3.87083
3.83069
3.79044
3.75011
3.70973
3.66934
3.62904
3.58893
3.54912
3.5097
3.47076
3.43237
3.39468
3.3571
3.319
0.00524711
0.0519338
0.0797969
0.0909869
0.0950026
0.0955159
0.0935549
0.0905909
0.0878224
0.085851
0.084903
0.0846641
0.0851416
0.0864789
0.0887014
0.0917422
0.0955405
0.100059
0.105275
0.111185
0.11779
0.125106
0.133157
0.141986
0.15164
0.162172
0.173631
0.186054
0.19945
0.213806
0.229114
0.245327
0.26238
0.280207
0.298762
0.318007
0.337928
0.358524
0.379809
0.40181
0.424581
0.448203
0.472792
0.498399
0.525027
0.552815
0.58195
0.612537
0.644694
0.678552
0.714242
0.751901
0.791656
0.833626
0.877924
0.924655
0.973912
1.02577
1.08031
1.13754
1.19739
1.25981
1.32471
1.39201
1.46157
1.53325
1.60683
1.68206
1.75863
1.83614
1.91443
1.99338
2.07286
2.15265
2.23253
2.31262
2.39284
2.47314
2.55341
2.63349
2.71335
2.79302
2.87239
2.95122
3.02938
3.10681
3.18338
3.25902
3.33366
3.40728
3.47982
3.55121
3.62134
3.69013
3.7575
3.82342
3.88784
3.95069
4.01191
4.07145
4.12922
4.18518
4.23928
4.29151
4.34183
4.3902
4.43661
4.481
4.52333
4.56359
4.60176
4.63784
4.67183
4.7037
4.73346
4.7611
4.78661
4.80999
4.83125
4.8504
4.86746
4.88243
4.89534
4.90617
4.91495
4.92168
4.92643
4.92921
4.93007
4.92914
4.92632
4.92152
4.9149
4.9065
4.89635
4.88449
4.87097
4.85582
4.83909
4.82081
4.80104
4.77982
4.7572
4.73322
4.70795
4.68142
4.65369
4.62481
4.59482
4.56377
4.53171
4.4987
4.46476
4.42995
4.3943
4.35789
4.32077
4.28298
4.24458
4.2056
4.16611
4.12604
4.08548
4.04454
4.00329
3.96179
3.9201
3.87828
3.83637
3.79439
3.75236
3.71041
3.66864
3.62715