/*--------------------------------*- C++ -*----------------------------------*\
  =========                 |
  \\      /  F ield         | OpenFOAM: The Open Source CFD Toolbox
   \\    /   O peration     | Website:  https://openfoam.org
    \\  /    A nd           | Version:  8
     \\/     M anipulation  |
\*---------------------------------------------------------------------------*/
FoamFile
{
    version     2.0;
    format      ascii;
    class       volScalarField;
    location    "1800";
    object      p;
}
// * * * * * * * * * * * * * * * * * * * * * * * * * * * * * * * * * * * * * //

dimensions      [0 2 -2 0 0 0 0];

internalField   nonuniform List<scalar> 
12225
(
-4.18071
-5.07057
-5.46749
-5.59721
-5.72996
-5.87956
-6.00665
-6.10823
-6.19673
-6.27692
-6.34998
-6.42065
-6.48838
-6.55714
-6.63093
-6.70731
-6.79513
-6.88935
-4.41911
-5.09216
-5.43427
-5.564
-5.69725
-5.84418
-5.97301
-6.07636
-6.16917
-6.25321
-6.32599
-6.39291
-6.46094
-6.53162
-6.60688
-6.68989
-6.76874
-6.83003
-4.64027
-5.09978
-5.41859
-5.56887
-5.70437
-5.84776
-5.97404
-6.07666
-6.16786
-6.25034
-6.32244
-6.38981
-6.459
-6.52904
-6.60112
-6.6753
-6.74255
-6.79334
-4.80228
-5.13057
-5.42834
-5.58536
-5.71349
-5.84685
-5.96721
-6.06762
-6.15681
-6.23805
-6.31094
-6.37928
-6.44744
-6.51572
-6.58447
-6.65233
-6.71371
-6.76236
-4.94014
-5.18446
-5.44863
-5.60283
-5.72463
-5.85005
-5.96568
-6.06422
-6.1517
-6.23161
-6.30446
-6.37263
-6.43934
-6.50544
-6.57062
-6.63335
-6.68999
-6.7359
-5.06487
-5.24366
-5.4697
-5.6192
-5.73716
-5.85584
-5.96658
-6.06264
-6.1481
-6.22639
-6.29849
-6.36603
-6.43129
-6.49504
-6.55676
-6.61507
-6.66747
-6.71079
-5.17573
-5.30413
-5.49349
-5.63588
-5.7498
-5.86172
-5.96719
-6.06041
-6.14386
-6.22056
-6.29166
-6.35833
-6.42207
-6.48345
-6.54197
-6.59649
-6.64536
-6.68665
-5.26012
-5.35707
-5.51792
-5.65137
-5.76069
-5.86674
-5.9675
-6.05799
-6.13959
-6.21481
-6.28479
-6.35043
-6.41274
-6.4721
-6.52811
-6.5799
-6.62636
-6.66616
-5.32833
-5.40442
-5.54185
-5.66612
-5.77082
-5.87154
-5.96794
-6.05577
-6.13554
-6.20927
-6.27805
-6.34257
-6.40351
-6.46112
-6.51508
-6.56473
-6.60936
-6.64806
-5.39598
-5.45519
-5.56994
-5.68346
-5.78264
-5.87751
-5.96898
-6.05362
-6.13115
-6.20306
-6.27028
-6.33336
-6.3927
-6.44845
-6.50036
-6.548
-6.59094
-6.62859
-5.46228
-5.50798
-5.60201
-5.70354
-5.79621
-5.88487
-5.97092
-6.05179
-6.12664
-6.19635
-6.26167
-6.32297
-6.38048
-6.43425
-6.48415
-6.52988
-6.57124
-6.60789
-5.52601
-5.56132
-5.63733
-5.72625
-5.81147
-5.89364
-5.97393
-6.05049
-6.12221
-6.18934
-6.2524
-6.31161
-6.36707
-6.41879
-6.46668
-6.5106
-6.55049
-6.58617
-5.58603
-5.61346
-5.67451
-5.75099
-5.82811
-5.90362
-5.97795
-6.04982
-6.11795
-6.18216
-6.24264
-6.29951
-6.35275
-6.40236
-6.44828
-6.49049
-6.52899
-6.56372
-5.64079
-5.66242
-5.71154
-5.77658
-5.84542
-5.91425
-5.98268
-6.04962
-6.11387
-6.17487
-6.23255
-6.28688
-6.33782
-6.3853
-6.42934
-6.46991
-6.50713
-6.54095
-5.6884
-5.70579
-5.74584
-5.80111
-5.8621
-5.92457
-5.98738
-6.0495
-6.10977
-6.16744
-6.22223
-6.27399
-6.32262
-6.36806
-6.4103
-6.44938
-6.48539
-6.51836
-5.72613
-5.74059
-5.77415
-5.82181
-5.87614
-5.93302
-5.9909
-6.04867
-6.10521
-6.15972
-6.21175
-6.26107
-6.30754
-6.3511
-6.39173
-6.42946
-6.46439
-6.4966
-5.75013
-5.76276
-5.79227
-5.83492
-5.88454
-5.93728
-5.99144
-6.04584
-6.09942
-6.15133
-6.20107
-6.24835
-6.29302
-6.335
-6.37427
-6.41089
-6.44493
-6.4765
-5.75413
-5.76623
-5.7945
-5.83553
-5.88339
-5.93445
-5.98695
-6.0398
-6.09188
-6.14242
-6.19084
-6.23693
-6.28047
-6.32147
-6.35985
-6.39574
-6.42917
-6.46031
-5.73771
-5.75057
-5.78048
-5.82332
-5.87263
-5.92462
-5.9778
-6.03106
-6.0834
-6.13393
-6.18225
-6.22807
-6.27134
-6.31195
-6.35002
-6.38555
-6.41871
-6.4496
-5.706
-5.72079
-5.75488
-5.80246
-5.85561
-5.91052
-5.96606
-6.0213
-6.0751
-6.12671
-6.17572
-6.22203
-6.26552
-6.30627
-6.3443
-6.37978
-6.41282
-6.44364
-5.66215
-5.68029
-5.72135
-5.7763
-5.83504
-5.89418
-5.95334
-6.01159
-6.06771
-6.12101
-6.17126
-6.21844
-6.26251
-6.3036
-6.34179
-6.37732
-6.41033
-6.44108
-5.60804
-5.63143
-5.68287
-5.74756
-5.81296
-5.87714
-5.94076
-6.00275
-6.06168
-6.11701
-6.16881
-6.21706
-6.26189
-6.30338
-6.34181
-6.37737
-6.41036
-6.44101
-5.54446
-5.57617
-5.64219
-5.7185
-5.79084
-5.86048
-5.92919
-5.99527
-6.05716
-6.11468
-6.1681
-6.21755
-6.26312
-6.30507
-6.34368
-6.37928
-6.41213
-6.44264
-5.47154
-5.51628
-5.60212
-5.69089
-5.76951
-5.84482
-5.91905
-5.9893
-6.05404
-6.11366
-6.16868
-6.21926
-6.26556
-6.3079
-6.34665
-6.38222
-6.41494
-6.44525
-5.38845
-5.45306
-5.56496
-5.66581
-5.74925
-5.83021
-5.91019
-5.98448
-6.05187
-6.11349
-6.17003
-6.22166
-6.26857
-6.31119
-6.34999
-6.38541
-6.41791
-6.44797
-5.29399
-5.38693
-5.53035
-5.64243
-5.72976
-5.81644
-5.90202
-5.98009
-6.04997
-6.11355
-6.17164
-6.22437
-6.27192
-6.31483
-6.35362
-6.38889
-6.42116
-6.45111
-5.18712
-5.3221
-5.49561
-5.6155
-5.7087
-5.80338
-5.89517
-5.97688
-6.04911
-6.11451
-6.17392
-6.22747
-6.27544
-6.31831
-6.35689
-6.39178
-6.42362
-6.45314
-5.06099
-5.27829
-5.47242
-5.58569
-5.68304
-5.78839
-5.88853
-5.97563
-6.05193
-6.12051
-6.18226
-6.23736
-6.2861
-6.32919
-6.36741
-6.40173
-6.43312
-6.46276
-4.86941
-5.25438
-5.48479
-5.58113
-5.6723
-5.78069
-5.88333
-5.97153
-6.04901
-6.11915
-6.1825
-6.23895
-6.2888
-6.33266
-6.37117
-6.40495
-6.43523
-6.46327
-4.60332
-5.17268
-5.47251
-5.58156
-5.68166
-5.79891
-5.90697
-5.99749
-6.07591
-6.14685
-6.2108
-6.26755
-6.3176
-6.36133
-6.39904
-6.43038
-6.4563
-6.47734
-7.43096
-7.43107
-7.43112
-7.43112
-7.43084
-7.42961
-7.427
-7.42351
-7.42018
-7.41803
-7.41813
-7.42068
-7.42515
-7.43074
-7.43664
-7.44214
-7.44667
-7.44979
-7.45149
-7.45212
-7.45197
-7.45126
-7.45024
-7.4492
-7.44839
-7.44791
-7.44769
-7.44757
-7.44737
-7.44699
-7.44644
-7.44573
-7.4448
-7.44355
-7.44208
-7.44069
-7.44006
-7.44087
-7.44317
-7.4462
-7.44898
-7.45104
-7.45264
-7.45424
-7.45633
-7.45945
-7.46312
-7.46623
-7.46854
-7.47249
-7.48205
-7.50096
-7.52865
-7.56393
-7.60753
-7.66066
-7.72255
-7.79112
-7.86432
-7.93975
-8.01526
-8.0895
-8.16127
-8.22919
-8.29254
-8.35102
-8.40448
-8.4529
-8.49637
-8.53499
-8.5689
-8.59819
-8.62296
-8.64327
-8.65917
-8.67067
-8.67775
-8.68041
-8.67856
-8.6722
-8.66121
-8.64555
-8.62511
-8.59985
-8.56965
-8.53446
-8.49415
-8.44868
-8.39792
-8.34185
-8.28041
-8.21351
-8.14107
-8.063
-7.97926
-7.88983
-7.79475
-7.69415
-7.58803
-7.47599
-7.35779
-7.23356
-7.10345
-6.96752
-6.82579
-6.6783
-6.52509
-6.36621
-6.20172
-6.03166
-5.85613
-5.67519
-5.48895
-5.29751
-5.10098
-4.89949
-4.69317
-4.48216
-4.26662
-4.04671
-3.82261
-3.59448
-3.36253
-3.12694
-2.88792
-2.64567
-2.40042
-2.15239
-1.90181
-1.64891
-1.39396
-1.13717
-0.878805
-0.619126
-0.358476
-0.0970705
0.165165
0.428117
0.691393
0.95473
1.21787
1.48059
1.74267
2.00392
2.26413
2.52312
2.78072
3.03676
3.29108
3.5435
3.79388
4.04205
4.28787
4.5312
4.77191
5.0099
5.24505
5.47728
5.70652
5.9327
6.15577
6.37565
6.59229
6.80563
7.01561
7.22216
7.42524
7.62478
7.82075
8.01306
8.20168
8.38651
8.56749
8.74452
8.91755
9.08663
9.2521
9.41368
9.57474
9.72666
-7.43221
-7.4324
-7.43279
-7.43321
-7.43322
-7.43239
-7.4304
-7.42782
-7.42597
-7.42584
-7.42773
-7.43148
-7.43655
-7.44227
-7.448
-7.4532
-7.45749
-7.46069
-7.46257
-7.46293
-7.46188
-7.45976
-7.45702
-7.45416
-7.45163
-7.4497
-7.44842
-7.44758
-7.44691
-7.44628
-7.44567
-7.44506
-7.44439
-7.44356
-7.44255
-7.44182
-7.44213
-7.44396
-7.447
-7.45016
-7.45224
-7.45295
-7.45275
-7.45165
-7.45001
-7.44964
-7.45304
-7.45986
-7.46643
-7.47364
-7.4848
-7.5011
-7.52468
-7.55939
-7.60704
-7.66591
-7.73311
-7.80632
-7.88281
-7.96013
-8.03668
-8.11068
-8.18037
-8.24534
-8.3056
-8.361
-8.4116
-8.45748
-8.49876
-8.53554
-8.56793
-8.59601
-8.61984
-8.63945
-8.65483
-8.66599
-8.67287
-8.67545
-8.67365
-8.66741
-8.65663
-8.64125
-8.62116
-8.5963
-8.56656
-8.53186
-8.49212
-8.44724
-8.39714
-8.34177
-8.28108
-8.21498
-8.14338
-8.06619
-7.98334
-7.89478
-7.80042
-7.70016
-7.59391
-7.48184
-7.36414
-7.24074
-7.11154
-6.97655
-6.83578
-6.68926
-6.53702
-6.37911
-6.21557
-6.04648
-5.8719
-5.69191
-5.50661
-5.31609
-5.12047
-4.91987
-4.71442
-4.50427
-4.28957
-4.07047
-3.84715
-3.61978
-3.38856
-3.15367
-2.91532
-2.67372
-2.42907
-2.1816
-1.93154
-1.67913
-1.4246
-1.16816
-0.910032
-0.650406
-0.389498
-0.1276
0.134836
0.397632
0.660758
0.923963
1.187
1.44965
1.7117
1.97293
2.23317
2.49222
2.7499
3.00605
3.2605
3.51309
3.76365
4.01204
4.25809
4.50168
4.74267
4.98095
5.21641
5.44896
5.67853
5.90505
6.12846
6.34869
6.56569
6.77939
6.98973
7.19666
7.40011
7.60005
7.7964
7.98913
8.17816
8.36346
8.54499
8.72265
8.8964
9.06613
9.23211
9.39398
9.55712
9.70829
-7.43354
-7.43353
-7.43357
-7.43367
-7.43377
-7.43381
-7.43404
-7.43498
-7.43715
-7.44068
-7.44537
-7.45085
-7.45668
-7.46241
-7.46764
-7.47207
-7.47549
-7.47778
-7.47886
-7.47868
-7.47725
-7.47472
-7.47128
-7.46713
-7.46254
-7.4578
-7.45321
-7.44906
-7.44555
-7.44276
-7.44064
-7.43895
-7.43743
-7.43613
-7.43557
-7.43651
-7.43945
-7.44401
-7.44863
-7.45133
-7.45089
-7.44845
-7.44624
-7.44567
-7.44622
-7.44808
-7.45387
-7.46459
-7.47962
-7.4997
-7.52556
-7.55741
-7.59593
-7.64188
-7.69504
-7.75398
-7.81704
-7.88266
-7.94935
-8.0159
-8.08144
-8.14505
-8.20583
-8.26327
-8.31715
-8.36728
-8.41357
-8.45598
-8.49448
-8.52908
-8.55978
-8.58656
-8.60941
-8.62831
-8.64322
-8.65409
-8.66084
-8.66343
-8.66175
-8.65573
-8.64528
-8.63029
-8.61069
-8.58636
-8.55722
-8.52318
-8.48413
-8.43999
-8.39067
-8.33611
-8.27627
-8.21106
-8.14037
-8.06414
-7.9823
-7.8948
-7.8016
-7.70258
-7.59765
-7.48687
-7.37034
-7.24807
-7.12003
-6.98623
-6.84665
-6.70134
-6.55032
-6.39363
-6.23133
-6.06346
-5.89011
-5.71134
-5.52725
-5.33794
-5.14351
-4.94409
-4.7398
-4.53078
-4.31719
-4.09918
-3.87692
-3.65059
-3.42036
-3.18644
-2.94902
-2.70831
-2.46452
-2.21786
-1.96857
-1.71689
-1.46304
-1.20724
-0.949715
-0.690693
-0.430386
-0.169061
0.0929253
0.355369
0.618158
0.881055
1.14383
1.40624
1.6681
1.92919
2.18932
2.44829
2.70594
2.96209
3.21656
3.4692
3.71985
3.96835
4.21455
4.45831
4.6995
4.93799
5.17368
5.40647
5.63629
5.86306
6.08671
6.30719
6.52444
6.73838
6.94896
7.15612
7.35981
7.55996
7.75652
7.94944
8.13866
8.3241
8.50571
8.68345
8.85738
9.02748
9.19436
9.3569
9.52271
9.66963
-7.43468
-7.43439
-7.43401
-7.43403
-7.43527
-7.43813
-7.44239
-7.44769
-7.45365
-7.45997
-7.46634
-7.4725
-7.47822
-7.4833
-7.48757
-7.49089
-7.49316
-7.49431
-7.49431
-7.49313
-7.49079
-7.48736
-7.48294
-7.47761
-7.47148
-7.46469
-7.45743
-7.45002
-7.44283
-7.43624
-7.43052
-7.42591
-7.42269
-7.4214
-7.42281
-7.4271
-7.43304
-7.43845
-7.44187
-7.44297
-7.44244
-7.44203
-7.44328
-7.44696
-7.45364
-7.46412
-7.47922
-7.49957
-7.52529
-7.55606
-7.59138
-7.63098
-7.67464
-7.72216
-7.77322
-7.82727
-7.88367
-7.94164
-8.00033
-8.05894
-8.11679
-8.17319
-8.22759
-8.27953
-8.32868
-8.37482
-8.41778
-8.45743
-8.49369
-8.52648
-8.55574
-8.58141
-8.60342
-8.62171
-8.63621
-8.64683
-8.65348
-8.65609
-8.65455
-8.64876
-8.63861
-8.62402
-8.60487
-8.58107
-8.55251
-8.51908
-8.4807
-8.43727
-8.38869
-8.33491
-8.27587
-8.21148
-8.14163
-8.06624
-7.98526
-7.89862
-7.80628
-7.70817
-7.60425
-7.49455
-7.3791
-7.25791
-7.13095
-6.99823
-6.85977
-6.71557
-6.56567
-6.41011
-6.24894
-6.08221
-5.90999
-5.73235
-5.54939
-5.3612
-5.16787
-4.96954
-4.76633
-4.55838
-4.34583
-4.12884
-3.90757
-3.68221
-3.45293
-3.21991
-2.98337
-2.74351
-2.50053
-2.25465
-2.0061
-1.75511
-1.50191
-1.24672
-0.989775
-0.731306
-0.471553
-0.210774
0.0507646
0.312856
0.57532
0.83792
1.10043
1.36262
1.62429
1.88524
2.14526
2.40416
2.66176
2.9179
3.17239
3.42507
3.67579
3.92439
4.17072
4.41463
4.65598
4.89466
5.13055
5.36356
5.5936
5.82059
6.04447
6.26518
6.48264
6.6968
6.9076
7.11497
7.31884
7.51916
7.71588
7.90894
8.0983
8.2839
8.46568
8.64363
8.8178
8.98821
9.15557
9.3181
9.48452
9.62496
-7.43703
-7.43643
-7.43603
-7.43754
-7.44198
-7.44859
-7.45624
-7.4642
-7.472
-7.4793
-7.48595
-7.49188
-7.49705
-7.50137
-7.50476
-7.50715
-7.50846
-7.50864
-7.50767
-7.50551
-7.50219
-7.49773
-7.49219
-7.48562
-7.47809
-7.46966
-7.46044
-7.45065
-7.44064
-7.43094
-7.42219
-7.41526
-7.41118
-7.41093
-7.41434
-7.4194
-7.42438
-7.42856
-7.43183
-7.4347
-7.43804
-7.44301
-7.45064
-7.46197
-7.47785
-7.49846
-7.52329
-7.55182
-7.58382
-7.61892
-7.65691
-7.69773
-7.74131
-7.78752
-7.8361
-7.88662
-7.9386
-7.9915
-8.04474
-8.09776
-8.15006
-8.20114
-8.25058
-8.29805
-8.34325
-8.38594
-8.42595
-8.46311
-8.49728
-8.52835
-8.55621
-8.58076
-8.6019
-8.61954
-8.63355
-8.64386
-8.65033
-8.65288
-8.65138
-8.64572
-8.6358
-8.6215
-8.6027
-8.57931
-8.55121
-8.5183
-8.48047
-8.43762
-8.38965
-8.33653
-8.27815
-8.21445
-8.14531
-8.07065
-7.9904
-7.90451
-7.81294
-7.71563
-7.61256
-7.50373
-7.38916
-7.26883
-7.14275
-7.01092
-6.87334
-6.73004
-6.58105
-6.4264
-6.26614
-6.10032
-5.92901
-5.75229
-5.57023
-5.38293
-5.19049
-4.99304
-4.79069
-4.58358
-4.37187
-4.15569
-3.93522
-3.71062
-3.48208
-3.24979
-3.01395
-2.77475
-2.53242
-2.28715
-2.03918
-1.78875
-1.53606
-1.28135
-1.02486
-0.766811
-0.507466
-0.247066
0.0141411
0.275949
0.538147
0.800509
1.0628
1.32482
1.58633
1.84716
2.10708
2.36592
2.62349
2.87961
3.13411
3.38683
3.63761
3.88628
4.1327
4.37673
4.61821
4.85703
5.09308
5.32626
5.55647
5.78365
6.00772
6.22862
6.44627
6.66062
6.8716
7.07914
7.28319
7.4837
7.68059
7.87383
8.06335
8.24912
8.43109
8.60922
8.78356
8.95404
9.12135
9.28316
9.44893
9.58237
-7.44144
-7.4405
-7.44108
-7.44581
-7.45363
-7.4625
-7.47148
-7.48007
-7.48796
-7.49507
-7.50141
-7.50696
-7.51166
-7.51543
-7.51822
-7.51994
-7.52055
-7.52001
-7.5183
-7.5154
-7.51132
-7.5061
-7.49974
-7.49225
-7.48363
-7.47398
-7.46344
-7.45222
-7.44073
-7.42968
-7.41993
-7.41283
-7.40943
-7.40945
-7.41136
-7.41399
-7.41732
-7.42175
-7.42761
-7.4348
-7.44368
-7.45555
-7.47142
-7.49132
-7.51493
-7.54188
-7.57184
-7.60443
-7.63943
-7.67666
-7.71596
-7.75724
-7.80038
-7.84522
-7.89153
-7.939
-7.98731
-8.03607
-8.08492
-8.13347
-8.18135
-8.2282
-8.27372
-8.31759
-8.35957
-8.39942
-8.43695
-8.47198
-8.50435
-8.53391
-8.56053
-8.58407
-8.60441
-8.62141
-8.63497
-8.64494
-8.65121
-8.65365
-8.65215
-8.64657
-8.63679
-8.6227
-8.60418
-8.58111
-8.55337
-8.52086
-8.48347
-8.44108
-8.39361
-8.34098
-8.28314
-8.21998
-8.15138
-8.07728
-7.9976
-7.9123
-7.82132
-7.72463
-7.6222
-7.51403
-7.40011
-7.28043
-7.15501
-7.02383
-6.88691
-6.74428
-6.59596
-6.44198
-6.2824
-6.11726
-5.94663
-5.77058
-5.58919
-5.40255
-5.21077
-5.01396
-4.81225
-4.60577
-4.39466
-4.17908
-3.95918
-3.73515
-3.50716
-3.27539
-3.04006
-2.80135
-2.55947
-2.31465
-2.0671
-1.81706
-1.56474
-1.31039
-1.05422
-0.796485
-0.537436
-0.277308
-0.0163409
0.245251
0.507247
0.769423
1.03155
1.29342
1.55481
1.81553
2.07537
2.33415
2.59168
2.84778
3.10227
3.355
3.6058
3.85452
4.10099
4.34508
4.58663
4.82554
5.06168
5.29496
5.52529
5.75258
5.97677
6.19779
6.41557
6.63005
6.84116
7.04883
7.25301
7.45363
7.65065
7.84401
8.03365
8.21953
8.40159
8.5798
8.75415
8.92449
9.09143
9.25219
9.41705
9.54369
-7.44689
-7.44646
-7.44938
-7.45698
-7.4662
-7.47534
-7.48405
-7.49218
-7.49966
-7.50646
-7.51253
-7.51779
-7.52216
-7.52557
-7.52794
-7.52921
-7.52935
-7.52834
-7.52614
-7.52275
-7.5182
-7.51251
-7.50558
-7.49736
-7.48799
-7.47766
-7.46661
-7.4551
-7.44365
-7.43308
-7.42461
-7.41901
-7.41569
-7.41372
-7.41312
-7.41442
-7.41828
-7.42455
-7.43316
-7.44484
-7.4601
-7.47887
-7.50094
-7.52606
-7.55397
-7.58433
-7.61693
-7.65159
-7.68814
-7.7264
-7.76619
-7.80737
-7.84978
-7.89327
-7.93767
-7.98275
-8.02829
-8.07401
-8.11967
-8.16497
-8.20963
-8.25339
-8.29598
-8.33714
-8.37665
-8.4143
-8.44988
-8.48321
-8.51411
-8.54243
-8.568
-8.59068
-8.61032
-8.62677
-8.6399
-8.64957
-8.65563
-8.65796
-8.65642
-8.65088
-8.64121
-8.62727
-8.60895
-8.58613
-8.55867
-8.52647
-8.4894
-8.44737
-8.40026
-8.34802
-8.29057
-8.22779
-8.15959
-8.08589
-8.00662
-7.92172
-7.83116
-7.7349
-7.63291
-7.52519
-7.41171
-7.29248
-7.1675
-7.03677
-6.9003
-6.75812
-6.61025
-6.45674
-6.29761
-6.13294
-5.96277
-5.78718
-5.60625
-5.42007
-5.22873
-5.03237
-4.83109
-4.62503
-4.41434
-4.19916
-3.97966
-3.75601
-3.52838
-3.29697
-3.06197
-2.82359
-2.58202
-2.3375
-2.09023
-1.84046
-1.58839
-1.33427
-1.07833
-0.820815
-0.561974
-0.302042
-0.0412464
0.220183
0.48203
0.744062
1.00606
1.26781
1.52911
1.78974
2.04951
2.30823
2.56571
2.82177
3.07624
3.32896
3.57976
3.82848
4.07496
4.31906
4.56064
4.79957
5.03574
5.26905
5.49942
5.72676
5.95102
6.1721
6.38996
6.6045
6.81567
7.0234
7.22764
7.42833
7.62541
7.81882
8.00853
8.19444
8.37652
8.5547
8.72893
8.899
9.06543
9.22503
9.389
9.50935
-7.45113
-7.45206
-7.45778
-7.46649
-7.47535
-7.48383
-7.49195
-7.49965
-7.50683
-7.51342
-7.51929
-7.52436
-7.52852
-7.53171
-7.53386
-7.5349
-7.53479
-7.53353
-7.53108
-7.52747
-7.5227
-7.51669
-7.50935
-7.50085
-7.49145
-7.48128
-7.47058
-7.45984
-7.44984
-7.44135
-7.43467
-7.42917
-7.42433
-7.42093
-7.41989
-7.42157
-7.42653
-7.43525
-7.44773
-7.46385
-7.48327
-7.50578
-7.53111
-7.55897
-7.58911
-7.62132
-7.65539
-7.69115
-7.72841
-7.76701
-7.80679
-7.8476
-7.88932
-7.93177
-7.97482
-8.01826
-8.06194
-8.10564
-8.14915
-8.19225
-8.23471
-8.27631
-8.31684
-8.35606
-8.39378
-8.4298
-8.46392
-8.49596
-8.52574
-8.55308
-8.57782
-8.59981
-8.61887
-8.63486
-8.64763
-8.65703
-8.6629
-8.66512
-8.66353
-8.658
-8.64839
-8.63457
-8.6164
-8.59376
-8.56651
-8.53453
-8.49771
-8.45592
-8.40908
-8.35709
-8.29991
-8.23739
-8.16945
-8.096
-8.01698
-7.93234
-7.84203
-7.74603
-7.64429
-7.53682
-7.4236
-7.30463
-7.1799
-7.04943
-6.91322
-6.77131
-6.62371
-6.47047
-6.31163
-6.14724
-5.97735
-5.80204
-5.62139
-5.43548
-5.24443
-5.04833
-4.84732
-4.64153
-4.43109
-4.21616
-3.9969
-3.77348
-3.54607
-3.31488
-3.08008
-2.84189
-2.60052
-2.35617
-2.10908
-1.85946
-1.60754
-1.35358
-1.09779
-0.840416
-0.581716
-0.321916
-0.0612435
0.200069
0.461801
0.723724
0.985625
1.24728
1.5085
1.76905
2.02876
2.28741
2.54484
2.80085
3.05529
3.30797
3.55875
3.80745
4.05391
4.29798
4.53953
4.77843
5.01459
5.24789
5.47825
5.7056
5.92987
6.15098
6.36884
6.5834
6.79458
7.00232
7.20657
7.40727
7.60437
7.79781
7.98752
8.17344
8.35548
8.53356
8.70761
8.87732
9.04317
9.20161
9.36477
9.47945
-7.45246
-7.45515
-7.46249
-7.47086
-7.479
-7.48696
-7.49472
-7.50217
-7.5092
-7.51568
-7.52149
-7.52651
-7.53065
-7.53381
-7.53592
-7.53694
-7.53683
-7.53557
-7.53313
-7.52953
-7.52471
-7.5186
-7.5113
-7.50308
-7.49412
-7.48467
-7.4752
-7.46624
-7.45817
-7.45096
-7.44439
-7.43835
-7.43325
-7.43015
-7.42997
-7.4333
-7.44052
-7.45169
-7.46648
-7.48474
-7.50614
-7.53042
-7.5573
-7.5865
-7.61778
-7.65094
-7.68576
-7.72206
-7.75965
-7.79839
-7.83813
-7.87871
-7.91999
-7.96181
-8.00404
-8.04651
-8.08906
-8.13153
-8.17371
-8.21543
-8.2565
-8.29671
-8.33589
-8.37384
-8.41036
-8.44527
-8.47839
-8.50951
-8.53847
-8.56509
-8.5892
-8.61064
-8.62924
-8.64486
-8.65732
-8.66648
-8.67218
-8.67429
-8.67265
-8.66711
-8.65755
-8.6438
-8.62574
-8.60322
-8.57611
-8.54429
-8.50763
-8.46602
-8.41933
-8.36752
-8.31049
-8.24812
-8.18031
-8.10698
-8.02808
-7.94354
-7.85334
-7.75743
-7.65579
-7.54841
-7.43528
-7.3164
-7.19177
-7.06139
-6.92529
-6.78349
-6.63601
-6.48289
-6.32418
-6.15992
-5.99017
-5.815
-5.63449
-5.44871
-5.25779
-5.06183
-4.86096
-4.6553
-4.44499
-4.23019
-4.01105
-3.78773
-3.56044
-3.32934
-3.09465
-2.85656
-2.61527
-2.37102
-2.12401
-1.87447
-1.62264
-1.36876
-1.11305
-0.855774
-0.597166
-0.337452
-0.0768694
0.184358
0.445998
0.707836
0.969649
1.23123
1.49236
1.75284
2.01247
2.27106
2.52842
2.78437
3.03874
3.29137
3.5421
3.79077
4.03717
4.28119
4.52267
4.76151
4.9976
5.23085
5.46116
5.68847
5.91271
6.1338
6.35165
6.56617
6.77732
6.98504
7.18926
7.38994
7.58702
7.78045
7.97015
8.15602
8.33798
8.51592
8.68975
8.85905
9.02428
9.18161
9.34401
9.45376
-7.44929
-7.45343
-7.4609
-7.46867
-7.47646
-7.48423
-7.49187
-7.49929
-7.50635
-7.51293
-7.51888
-7.52408
-7.52841
-7.53177
-7.53409
-7.53531
-7.53538
-7.53427
-7.53198
-7.52848
-7.52376
-7.51785
-7.51095
-7.50333
-7.49529
-7.48715
-7.47916
-7.4714
-7.46394
-7.45689
-7.45039
-7.44483
-7.44088
-7.43932
-7.44081
-7.44574
-7.45437
-7.46671
-7.48261
-7.50186
-7.52418
-7.5493
-7.57691
-7.60677
-7.63864
-7.6723
-7.70754
-7.74419
-7.78207
-7.82101
-7.86085
-7.90144
-7.94261
-7.98423
-8.02614
-8.06821
-8.11026
-8.15213
-8.19366
-8.23468
-8.27501
-8.31448
-8.35291
-8.39012
-8.42594
-8.46018
-8.49265
-8.52318
-8.55158
-8.57767
-8.60129
-8.62229
-8.6405
-8.65577
-8.66795
-8.67689
-8.68244
-8.68444
-8.68276
-8.67723
-8.6677
-8.65402
-8.63604
-8.61361
-8.58661
-8.55489
-8.51834
-8.47682
-8.43023
-8.37848
-8.32151
-8.25919
-8.1914
-8.11808
-8.03916
-7.9546
-7.86436
-7.76841
-7.66673
-7.55931
-7.44613
-7.32721
-7.20255
-7.07214
-6.93602
-6.7942
-6.64672
-6.49361
-6.33491
-6.17067
-6.00094
-5.8258
-5.64532
-5.45958
-5.26868
-5.07276
-4.87192
-4.6663
-4.45603
-4.24127
-4.02216
-3.79888
-3.57161
-3.34054
-3.10587
-2.8678
-2.62655
-2.38232
-2.13533
-1.88581
-1.63402
-1.38019
-1.12454
-0.867313
-0.608764
-0.349113
-0.0885988
0.172554
0.434118
0.695878
0.957611
1.21911
1.48016
1.74056
2.0001
2.25861
2.51588
2.77175
3.02604
3.2786
3.52928
3.77787
4.02419
4.26811
4.50949
4.74823
4.98422
5.21737
5.4476
5.67483
5.89901
6.12006
6.33785
6.55231
6.76339
6.97104
7.17521
7.37584
7.57289
7.76629
7.95594
8.14174
8.32359
8.50136
8.67491
8.84377
9.00838
9.16464
9.32632
9.4319
-7.43953
-7.44433
-7.45146
-7.4592
-7.46717
-7.47512
-7.48295
-7.49058
-7.49791
-7.5048
-7.5111
-7.51665
-7.52133
-7.52502
-7.52765
-7.52915
-7.52948
-7.52863
-7.52658
-7.52336
-7.51902
-7.5137
-7.5076
-7.50092
-7.49382
-7.48645
-7.479
-7.47157
-7.4643
-7.45751
-7.45164
-7.44713
-7.44447
-7.44425
-7.447
-7.45308
-7.46268
-7.47583
-7.49243
-7.51228
-7.53512
-7.56069
-7.58871
-7.61897
-7.65122
-7.68527
-7.72091
-7.75796
-7.79622
-7.83553
-7.8757
-7.91657
-7.958
-7.99983
-8.0419
-8.08404
-8.12611
-8.16794
-8.20937
-8.25025
-8.29039
-8.32961
-8.36775
-8.40463
-8.44009
-8.47395
-8.50603
-8.53615
-8.56414
-8.58984
-8.61307
-8.6337
-8.65157
-8.66654
-8.67846
-8.68719
-8.6926
-8.69453
-8.6928
-8.68727
-8.67778
-8.66416
-8.64625
-8.6239
-8.59696
-8.56529
-8.52878
-8.4873
-8.44072
-8.38898
-8.33197
-8.2696
-8.20175
-8.12833
-8.0493
-7.96462
-7.87423
-7.77813
-7.6763
-7.56873
-7.45542
-7.33636
-7.21156
-7.08104
-6.9448
-6.80289
-6.65531
-6.50213
-6.34337
-6.17908
-6.0093
-5.83412
-5.6536
-5.46782
-5.27688
-5.08093
-4.88007
-4.67444
-4.46416
-4.24938
-4.03025
-3.80696
-3.57967
-3.34859
-3.11391
-2.87584
-2.63458
-2.39033
-2.14332
-1.8938
-1.64204
-1.38824
-1.13262
-0.875443
-0.616945
-0.35736
-0.0969136
0.16416
0.425644
0.687316
0.948962
1.21037
1.47133
1.73163
1.99109
2.24949
2.50666
2.76242
3.01661
3.26907
3.51968
3.76819
4.01439
4.25817
4.49941
4.738
4.97386
5.20688
5.43699
5.66412
5.88823
6.10921
6.32692
6.5413
6.75229
6.95985
7.16394
7.3645
7.5615
7.75486
7.94446
8.13017
8.31189
8.48946
8.6627
8.83111
8.99511
9.15037
9.31135
9.4135
-7.4215
-7.42626
-7.43356
-7.44209
-7.45078
-7.45922
-7.46742
-7.47541
-7.48317
-7.49055
-7.49737
-7.50342
-7.50854
-7.51265
-7.51569
-7.51759
-7.51833
-7.51791
-7.51633
-7.51365
-7.50993
-7.50528
-7.49983
-7.49373
-7.48711
-7.48011
-7.47286
-7.46561
-7.45867
-7.4524
-7.44718
-7.44343
-7.4417
-7.4425
-7.44625
-7.45326
-7.46368
-7.47753
-7.4947
-7.515
-7.53822
-7.56413
-7.59249
-7.62312
-7.65578
-7.69028
-7.72642
-7.764
-7.80282
-7.8427
-7.88347
-7.92497
-7.96703
-8.00946
-8.05209
-8.09473
-8.13724
-8.17944
-8.22118
-8.26227
-8.30255
-8.34186
-8.38003
-8.41688
-8.45224
-8.48594
-8.51781
-8.54766
-8.57535
-8.6007
-8.62358
-8.64386
-8.66139
-8.67602
-8.68765
-8.69614
-8.70137
-8.70318
-8.7014
-8.69587
-8.68642
-8.67285
-8.655
-8.6327
-8.60578
-8.57411
-8.53759
-8.4961
-8.4495
-8.39769
-8.34062
-8.27815
-8.21017
-8.13661
-8.05741
-7.97253
-7.88194
-7.78562
-7.68358
-7.5758
-7.4623
-7.34305
-7.21807
-7.08737
-6.95098
-6.80892
-6.66123
-6.50794
-6.34908
-6.18471
-6.01487
-5.83962
-5.65903
-5.47317
-5.28215
-5.08614
-4.88526
-4.67961
-4.46931
-4.25451
-4.03536
-3.81205
-3.58475
-3.35366
-3.11898
-2.88091
-2.63965
-2.39539
-2.14834
-1.89882
-1.64708
-1.39332
-1.13775
-0.880631
-0.622199
-0.362689
-0.102326
0.158659
0.420049
0.681622
0.943166
1.20447
1.46532
1.72551
1.98485
2.24313
2.50017
2.75581
3.00987
3.26222
3.51278
3.76121
4.00725
4.25085
4.49192
4.73034
4.96604
5.1989
5.42887
5.65588
5.8799
6.10082
6.31843
6.53268
6.74356
6.95101
7.15501
7.3555
7.55244
7.74577
7.93531
8.12092
8.30249
8.47983
8.65277
8.82073
8.98412
9.13846
9.29872
9.39818
-7.39475
-7.39934
-7.40759
-7.41757
-7.42729
-7.43631
-7.44495
-7.45348
-7.46194
-7.47012
-7.4777
-7.48441
-7.49012
-7.49476
-7.49832
-7.50076
-7.50206
-7.50221
-7.50122
-7.49912
-7.49598
-7.49186
-7.48687
-7.48112
-7.47472
-7.46785
-7.46076
-7.45373
-7.44706
-7.44111
-7.43633
-7.43321
-7.43225
-7.43389
-7.43849
-7.44629
-7.4574
-7.47182
-7.48945
-7.51012
-7.53366
-7.55989
-7.58862
-7.61967
-7.65284
-7.68794
-7.72476
-7.76308
-7.8027
-7.84342
-7.88506
-7.92744
-7.97038
-8.01367
-8.05714
-8.10058
-8.14384
-8.18672
-8.22904
-8.27062
-8.3113
-8.35092
-8.38932
-8.42632
-8.46175
-8.49543
-8.5272
-8.55684
-8.58417
-8.60908
-8.63145
-8.65121
-8.66823
-8.68238
-8.69356
-8.7017
-8.70669
-8.70838
-8.70657
-8.70109
-8.69174
-8.67828
-8.66053
-8.63829
-8.61132
-8.57955
-8.54301
-8.50153
-8.4549
-8.40305
-8.34588
-8.28331
-8.2152
-8.14149
-8.06212
-7.97702
-7.8862
-7.78964
-7.68738
-7.57939
-7.46568
-7.34624
-7.22107
-7.09019
-6.95364
-6.81145
-6.66364
-6.51026
-6.35134
-6.1869
-6.01701
-5.84172
-5.66109
-5.47517
-5.28408
-5.08802
-4.88714
-4.68149
-4.4712
-4.2564
-4.03727
-3.81397
-3.58669
-3.35563
-3.12099
-2.88298
-2.64178
-2.39757
-2.15055
-1.90104
-1.64936
-1.39567
-1.1402
-0.883182
-0.624867
-0.365474
-0.105243
0.15561
0.416859
0.67829
0.939686
1.20084
1.46154
1.72158
1.98075
2.23887
2.49574
2.7512
3.00509
3.25733
3.50791
3.75633
4.00219
4.24559
4.48645
4.72469
4.9602
5.1929
5.42272
5.64959
5.87356
6.09444
6.31195
6.52607
6.73681
6.94415
7.14806
7.34847
7.54536
7.73867
7.92816
8.11365
8.29506
8.47218
8.64481
8.81232
8.97513
9.12862
9.28812
9.38561
-7.36054
-7.36547
-7.3753
-7.38713
-7.39797
-7.40773
-7.41716
-7.42643
-7.43562
-7.44474
-7.45343
-7.46117
-7.4676
-7.47275
-7.47685
-7.47989
-7.48181
-7.48257
-7.48217
-7.4806
-7.47792
-7.47417
-7.46942
-7.4638
-7.45749
-7.45068
-7.44362
-7.43659
-7.43001
-7.42428
-7.41988
-7.41727
-7.41692
-7.41922
-7.42446
-7.43283
-7.44442
-7.45923
-7.47718
-7.49816
-7.52203
-7.54862
-7.57776
-7.6093
-7.64306
-7.67884
-7.71642
-7.75559
-7.79615
-7.83788
-7.88059
-7.92407
-7.96809
-8.01245
-8.05696
-8.10141
-8.1456
-8.18932
-8.23239
-8.27461
-8.31581
-8.35581
-8.39446
-8.43159
-8.46703
-8.50059
-8.53207
-8.56126
-8.58796
-8.61209
-8.63368
-8.6527
-8.66904
-8.68247
-8.69291
-8.70047
-8.70519
-8.70684
-8.70518
-8.69998
-8.69095
-8.67781
-8.66032
-8.63822
-8.61119
-8.57927
-8.54272
-8.50132
-8.45473
-8.40279
-8.34551
-8.28282
-8.21459
-8.14073
-8.06115
-7.97579
-7.88468
-7.78784
-7.6853
-7.57708
-7.46315
-7.34349
-7.21811
-7.08703
-6.9503
-6.80795
-6.66004
-6.50658
-6.3476
-6.18312
-6.01319
-5.83789
-5.6573
-5.47148
-5.28054
-5.08457
-4.88368
-4.67801
-4.46767
-4.25283
-4.03366
-3.81033
-3.58304
-3.35198
-3.11736
-2.8794
-2.63831
-2.3943
-2.14758
-1.89837
-1.6469
-1.3934
-1.13814
-0.881361
-0.623285
-0.364146
-0.104179
0.156401
0.417367
0.678507
0.939607
1.20046
1.46085
1.72057
1.97942
2.2372
2.49373
2.74884
3.00236
3.25428
3.50474
3.75307
3.99868
4.24181
4.48244
4.72045
4.95576
5.18827
5.41791
5.64465
5.86865
6.08961
6.30705
6.52102
6.73164
6.93887
7.14269
7.34304
7.53993
7.73326
7.92273
8.10811
8.28935
8.46625
8.63857
8.80565
8.96791
9.1206
9.2793
9.37549
-7.32202
-7.32789
-7.33984
-7.35393
-7.36596
-7.37602
-7.38586
-7.3962
-7.40671
-7.41701
-7.4268
-7.4356
-7.44286
-7.44858
-7.45319
-7.45682
-7.45934
-7.46069
-7.4608
-7.45966
-7.4573
-7.45374
-7.44911
-7.44349
-7.43708
-7.43009
-7.42286
-7.41572
-7.40912
-7.40348
-7.39929
-7.39699
-7.39698
-7.39961
-7.40513
-7.41372
-7.42547
-7.4404
-7.45845
-7.47957
-7.50362
-7.53048
-7.56001
-7.59206
-7.62643
-7.66292
-7.70131
-7.74141
-7.78299
-7.82584
-7.86971
-7.91439
-7.95963
-8.0052
-8.05087
-8.09638
-8.14152
-8.18604
-8.22975
-8.27243
-8.31393
-8.35406
-8.39269
-8.42964
-8.46476
-8.49785
-8.52869
-8.55702
-8.58255
-8.60534
-8.6257
-8.64376
-8.65931
-8.67178
-8.68092
-8.68734
-8.6915
-8.69315
-8.69188
-8.6873
-8.67896
-8.66647
-8.6496
-8.62829
-8.60237
-8.57166
-8.53593
-8.49494
-8.44848
-8.39656
-8.33921
-8.27638
-8.20796
-8.13385
-8.05395
-7.96822
-7.8767
-7.77945
-7.67651
-7.56791
-7.45361
-7.33361
-7.20788
-7.07649
-6.93947
-6.79689
-6.64877
-6.49513
-6.33601
-6.17142
-6.00141
-5.82606
-5.64547
-5.45974
-5.26894
-5.07305
-4.87216
-4.66645
-4.45607
-4.24118
-4.02196
-3.7986
-3.57129
-3.34023
-3.10562
-2.86771
-2.62671
-2.38291
-2.13652
-1.88763
-1.63641
-1.38318
-1.1282
-0.871715
-0.613946
-0.355139
-0.0955123
0.164703
0.425294
0.686039
0.946735
1.20716
1.46712
1.72638
1.98476
2.24204
2.49804
2.75257
3.00546
3.25654
3.5057
3.75285
3.99784
4.24051
4.48072
4.71834
4.95328
5.18544
5.41473
5.64114
5.86499
6.08594
6.30326
6.51707
6.72755
6.93469
7.13843
7.33875
7.53569
7.72918
7.91871
8.104
8.2851
8.4618
8.63384
8.80052
8.96227
9.11422
9.27209
9.36762
-7.28296
-7.29011
-7.30465
-7.32072
-7.33308
-7.3436
-7.35456
-7.36607
-7.37767
-7.38906
-7.3999
-7.40968
-7.41775
-7.42416
-7.42941
-7.4337
-7.43684
-7.43874
-7.4393
-7.4385
-7.43634
-7.43284
-7.4281
-7.42226
-7.41554
-7.40819
-7.40058
-7.39309
-7.38618
-7.38028
-7.37586
-7.37333
-7.37309
-7.37545
-7.38067
-7.38894
-7.40035
-7.41497
-7.43277
-7.45372
-7.47774
-7.50476
-7.53463
-7.5672
-7.60223
-7.63952
-7.67884
-7.71998
-7.76271
-7.80677
-7.85188
-7.89778
-7.94421
-7.99089
-8.03755
-8.08391
-8.12973
-8.17473
-8.21871
-8.26148
-8.30287
-8.34271
-8.38088
-8.41724
-8.45166
-8.48397
-8.51393
-8.54109
-8.56478
-8.58506
-8.60298
-8.61942
-8.63441
-8.6473
-8.6575
-8.66475
-8.66917
-8.67096
-8.66996
-8.66577
-8.65787
-8.64583
-8.62945
-8.60885
-8.58406
-8.55459
-8.5197
-8.47916
-8.43297
-8.3812
-8.32393
-8.26109
-8.19256
-8.11825
-8.03809
-7.95207
-7.86026
-7.76271
-7.65947
-7.55056
-7.43597
-7.31569
-7.18972
-7.0581
-6.92091
-6.77819
-6.62995
-6.47624
-6.31707
-6.15246
-5.98245
-5.80713
-5.62658
-5.44088
-5.2501