/*--------------------------------*- C++ -*----------------------------------*\
  =========                 |
  \\      /  F ield         | OpenFOAM: The Open Source CFD Toolbox
   \\    /   O peration     | Website:  https://openfoam.org
    \\  /    A nd           | Version:  8
     \\/     M anipulation  |
\*---------------------------------------------------------------------------*/
FoamFile
{
    version     2.0;
    format      ascii;
    class       volVectorField;
    location    "1800";
    object      wallShearStress;
}
// * * * * * * * * * * * * * * * * * * * * * * * * * * * * * * * * * * * * * //

dimensions      [0 2 -2 0 0 0 0];

internalField   uniform (0 0 0);

boundaryField
{
    inlet
    {
        type            calculated;
        value           uniform (0 0 0);
    }
    outlet
    {
        type            calculated;
        value           uniform (0 0 0);
    }
    upperWall
    {
        type            calculated;
        value           nonuniform List<vector> 
223
(
(-0.467703 0.0029292 0)
(-0.49527 0.00549007 0)
(-0.510618 0.00671015 0)
(-0.512005 0.00722666 0)
(-0.506595 0.00724065 0)
(-0.494952 0.00687498 0)
(-0.482947 0.00636173 0)
(-0.470355 0.00577609 0)
(-0.457701 0.00518006 0)
(-0.445815 0.0045903 0)
(-0.434931 0.00403485 0)
(-0.425162 0.00353899 0)
(-0.416411 0.00308629 0)
(-0.408703 0.00266037 0)
(-0.401968 0.00225572 0)
(-0.396158 0.00189415 0)
(-0.39118 0.00159782 0)
(-0.386912 0.00141588 0)
(-0.383673 0.00132713 0)
(-0.381188 0.0012767 5.78936e-22)
(-0.378792 0.00121126 0)
(-0.376472 0.00114182 0)
(-0.374214 0.00107386 0)
(-0.372004 0.0010093 5.89766e-22)
(-0.369845 0.000948652 0)
(-0.367732 0.000892567 0)
(-0.365667 0.000840919 0)
(-0.363648 0.000793202 -1.19827e-21)
(-0.361674 0.000749596 1.20281e-21)
(-0.359745 0.000709566 1.20734e-21)
(-0.35786 0.000672767 0)
(-0.356016 0.000638268 -1.21646e-21)
(-0.354217 0.000603956 0)
(-0.352463 0.00056998 1.22552e-21)
(-0.350757 0.000536534 1.23001e-21)
(-0.349099 0.000503614 -1.23448e-21)
(-0.347495 0.00047132 0)
(-0.345939 0.000439727 0)
(-0.344439 0.000409275 0)
(-0.342986 0.000380653 0)
(-0.341585 0.000354238 -1.25679e-21)
(-0.340227 0.000330184 0)
(-0.338913 0.000308416 0)
(-0.337638 0.000288915 1.2703e-21)
(-0.336399 0.000271163 0)
(-0.335197 0.000254752 1.27936e-21)
(-0.334026 0.000239685 -1.28389e-21)
(-0.332888 0.000226035 1.28846e-21)
(-0.331782 0.000213669 0)
(-0.330706 0.000202305 0)
(-0.329661 0.000191861 0)
(-0.328643 0.000182377 1.30707e-21)
(-0.327656 0.000173781 -1.31179e-21)
(-0.326695 0.000166299 0)
(-0.32576 0.000160012 0)
(-0.324849 0.000154954 0)
(-0.323959 0.000151152 0)
(-0.323089 0.000148816 0)
(-0.322233 0.000147787 0)
(-0.321392 0.000147998 0)
(-0.32056 0.00014957 0)
(-0.319738 0.00015214 1.35524e-21)
(-0.31892 0.00015574 -1.36016e-21)
(-0.31811 0.000160199 0)
(-0.317295 0.000165298 0)
(-0.316494 0.000170889 0)
(-0.315673 0.000176868 -1.37992e-21)
(-0.314881 0.00018302 0)
(-0.314043 0.000189688 0)
(-0.313267 0.000196262 0)
(-0.312396 0.00020365 0)
(-0.311618 0.00021131 0)
(-0.310782 0.000218985 -2.81682e-21)
(-0.309772 0.000230512 0)
(-0.309131 0.000223662 0)
(-0.346885 0.000335612 0)
(-0.335322 0.000161389 0)
(-0.354081 0.000634471 0)
(-0.341179 0.00113159 0)
(-0.337522 0.000766553 0)
(-0.323078 0.000686047 3.06903e-21)
(-0.317913 0.000684569 0)
(-0.313332 0.000627608 0)
(-0.31015 0.000633622 0)
(-0.307435 0.000470618 -3.04302e-21)
(-0.308706 0.000206668 0)
(-0.313136 -6.52303e-05 -3.15451e-21)
(-0.303172 -0.000211324 0)
(-0.332954 -0.000208064 0)
(-0.344318 -2.46369e-05 0)
(-0.343868 0.000120027 -3.54106e-21)
(-0.37193 5.52312e-05 0)
(-0.384823 0.000138853 3.99908e-21)
(-0.355826 0.000199365 3.71077e-21)
(-0.373172 0.00020348 0)
(-0.347449 0.000290847 3.64538e-21)
(-0.347692 0.000340032 0)
(-0.350389 0.000330559 0)
(-0.340915 0.000323044 0)
(-0.368413 0.000929061 -3.89854e-21)
(-0.341534 0.00104564 0)
(-0.324292 0.000633636 -3.41461e-21)
(-0.313235 0.000410899 3.30236e-21)
(-0.298558 8.54863e-05 0)
(-0.318698 -2.43506e-06 0)
(-0.358374 0.000473781 0)
(-0.331199 0.000642166 0)
(-0.312257 0.000646819 0)
(-0.299502 0.000422589 0)
(-0.333213 0.000402174 0)
(-0.317893 0.00128679 -3.2653e-21)
(-0.295362 0.00120985 0)
(-0.299877 0.000659689 0)
(-0.293542 0.00090431 0)
(-0.292677 0.000808497 0)
(-0.292107 7.54981e-06 0)
(-0.338514 0.000415994 0)
(-0.310545 0.00088554 0)
(-0.289986 0.000201808 0)
(-0.342807 9.14755e-05 0)
(-0.310882 0.000283116 0)
(-0.332582 0.000280283 0)
(-0.348034 7.37702e-06 0)
(-0.342813 0.000360459 -6.67353e-21)
(-0.307016 0.000587088 0)
(-0.319894 0.000117542 0)
(-0.335827 0.000709834 0)
(-0.307681 0.00123832 5.53643e-21)
(-0.281071 0.00118095 0)
(-0.279604 0.00091479 0)
(-0.278498 0.000301868 4.74418e-21)
(-0.290957 0.000154635 0)
(-0.296561 0.000190025 -4.8802e-21)
(-0.2911 0.000239807 0)
(-0.280929 0.000345672 0)
(-0.291654 0.000605708 0)
(-0.293561 0.00151444 4.3729e-21)
(-0.267171 0.0013282 0)
(-0.290868 0.00133053 -3.97128e-21)
(-0.264812 0.00109423 0)
(-0.290253 0.00104435 0)
(-0.262459 0.000847034 0)
(-0.285808 0.000794436 0)
(-0.259797 0.000772156 0)
(-0.280211 7.77785e-05 0)
(-0.27733 0.000606399 0)
(-0.254829 0.000705922 0)
(-0.262926 0.000742899 0)
(-0.251468 0.000734195 0)
(-0.254 0.000816687 0)
(-0.248062 0.00116941 -8.51375e-22)
(-0.260466 0.00075953 5.92861e-22)
(-0.273268 0.000619147 0)
(-0.278296 0.000849097 0)
(-0.275912 0.000435638 0)
(-0.259729 0.000660094 0)
(-0.23602 0.00196315 -1.03288e-21)
(-0.234915 0.00144304 1.36546e-21)
(-0.232556 0.000662965 -1.81222e-21)
(-0.245894 0.000639558 0)
(-0.248641 -0.000120632 -2.81152e-21)
(-0.242517 -0.000408383 -6.49072e-21)
(-0.223057 -0.000369797 0)
(-0.220398 0.000191748 -7.945e-21)
(-0.216596 0.000960511 9.01706e-21)
(-0.214669 0.001936 0)
(-0.215242 0.00108824 0)
(-0.212879 -0.000359072 0)
(-0.209742 0.000717514 0)
(-0.211134 0.00170575 0)
(-0.208561 0.0016791 -1.40615e-20)
(-0.208726 0.000649549 0)
(-0.205044 -4.6572e-05 -1.69752e-20)
(-0.202671 -0.00035792 0)
(-0.19869 0.000339839 0)
(-0.198981 0.000723068 0)
(-0.195099 -1.6844e-05 0)
(-0.192259 0.000425747 0)
(-0.189076 0.000513583 2.45707e-20)
(-0.186413 0.00118865 0)
(-0.186862 0.000240809 0)
(-0.183065 0.00041259 -2.96367e-20)
(-0.183678 0.00169948 0)
(-0.180846 0.000658969 0)
(-0.17487 -7.5623e-05 0)
(-0.167637 -0.000112989 3.7845e-20)
(-0.163939 0.00131507 0)
(-0.165437 0.00206163 0)
(-0.16629 0.00167802 0)
(-0.163129 0.00111967 0)
(-0.155415 0.000649304 -4.76348e-20)
(-0.142624 0.000906291 0)
(-0.126826 0.0014048 0)
(-0.110048 0.00180825 0)
(-0.0949155 0.00192764 8.63437e-20)
(-0.0798625 0.00181263 0)
(-0.0714817 0.00215562 0)
(-0.0399611 0.00163785 -1.35866e-19)
(-0.0729 0.000723827 1.20371e-35)
(-0.10866 0.00620909 1.16806e-17)
(-0.133196 0.0108031 2.08433e-17)
(-0.146217 0.0135306 1.95343e-17)
(-0.153894 0.0150526 1.87461e-17)
(-0.159616 0.0159796 1.81231e-17)
(-0.164077 0.0166345 -1.76003e-17)
(-0.167186 0.0170889 -1.71271e-17)
(-0.16949 0.0173946 0)
(-0.171532 0.0176277 -3.27386e-17)
(-0.173444 0.0178222 -1.60252e-17)
(-0.175376 0.0179967 4.81482e-34)
(-0.177614 0.0181777 1.20371e-35)
(-0.180326 0.0183975 -2.9636e-17)
(-0.183703 0.0186729 -2.85687e-17)
(-0.187729 0.0190166 -2.73142e-17)
(-0.192556 0.019432 -4.81482e-35)
(-0.198085 0.0199225 4.83396e-17)
(-0.204587 0.0204977 2.22246e-17)
(-0.211709 0.0211446 1.20371e-35)
(-0.220473 0.0219255 -3.47978e-17)
(-0.228617 0.0226982 -1.23586e-20)
(-0.242521 0.0238745 3.00927e-36)
(-0.246327 0.0245832 1.31001e-17)
(-0.272934 0.0261547 -7.25809e-18)
)
;
    }
    lowerWall
    {
        type            calculated;
        value           nonuniform List<vector> 
250
(
(-0.623833 -0.00748934 0)
(-0.603046 -0.0106769 0)
(-0.577228 -0.0103611 0)
(-0.551193 -0.00949449 0)
(-0.537857 -0.00724222 0)
(-0.507331 -0.00651254 0)
(-0.492351 -0.00598597 0)
(-0.48081 -0.00452667 0)
(-0.469489 -0.00303835 0)
(-0.50702 -0.00285853 0)
(-0.479104 -0.00340088 0)
(-0.44756 -0.00246035 0)
(-0.442114 -0.00176396 0)
(-0.437338 -0.00145028 0)
(-0.481507 -0.00125589 0)
(-0.442388 -0.000308964 0)
(-0.445954 0.000634098 0)
(-0.491737 0.000381132 0)
(0.0021886 0.000204036 0)
(0.00242515 -0.00266879 0)
(0.00267199 -0.00562495 0)
(0.00297387 -0.00871376 1.12073e-19)
(0.00332422 -0.0117479 -9.42343e-20)
(0.0036974 -0.0154849 8.14324e-20)
(0.00352033 -0.0153964 -7.38228e-20)
(0.010013 -0.0352907 0)
(-0.0460592 -0.108399 0)
(0.000226608 -0.000284184 0)
(5.40756e-05 -0.000809059 0)
(-1.30287e-05 -0.000892553 0)
(5.70572e-05 -0.00089389 0)
(3.79064e-05 -0.000873629 1.53454e-19)
(-0.000140172 -0.000306246 -1.49529e-19)
(-0.00059158 0.00115782 0)
(-0.00121186 0.00393187 -1.70165e-19)
(-0.00159797 0.00746409 1.29746e-19)
(-0.0015317 0.0107831 0)
(-0.00111896 0.0132147 0)
(-0.000568719 0.0144748 0)
(-4.73634e-05 0.0145473 0)
(0.000363541 0.0136391 0)
(0.000705561 0.012034 0)
(0.00104141 0.00978108 0)
(0.00141143 0.00691898 0)
(0.00183045 0.00349459 0)
(-0.000147974 -0.000284919 0)
(0.000171881 -0.000458874 0)
(0.000487859 -0.000513058 0)
(0.000817314 -0.00044275 0)
(0.00108106 -0.000203471 -0)
(0.0011315 0.000194152 -0)
(0.00088051 0.000671437 1.42109e-20)
(0.00035782 0.00111943 -1.62362e-20)
(-0.00036743 0.00144541 0)
(-0.00119839 0.00160861 -9.27892e-21)
(-0.00205541 0.00162334 0)
(-0.00287259 0.00152008 0)
(-0.00360362 0.00133619 0)
(-0.0042229 0.00110305 4.52742e-21)
(-0.0047188 0.000842067 0)
(-0.00508701 0.000565164 0)
(-0.00532505 0.000280891 -3.92248e-21)
(-0.00543759 -1.6927e-05 -0)
(-0.00539929 -0.000325966 0)
(-0.00520817 -0.000624649 -0)
(-0.0048733 -0.000892165 4.22365e-21)
(-0.00440686 -0.00110783 -0)
(-0.00382734 -0.00124986 5.00737e-21)
(-0.00316291 -0.00129848 0)
(-0.00245247 -0.00123894 -0)
(-0.00174642 -0.00106841 8.16167e-21)
(-0.00110357 -0.000803867 0)
(-0.000581668 -0.000491491 -1.3588e-20)
(-0.000213645 -0.000204437 0)
(1.74034e-05 -6.1191e-06 2.35795e-20)
(0.00016251 0.000110277 0)
(0.000245665 0.000208799 0)
(0.000231933 0.000325112 0)
(0.00011388 0.000481346 0)
(-0.000146541 0.000689095 0)
(-0.000576179 0.000903527 -1.43173e-20)
(-0.0011514 0.00104261 0)
(-0.0017773 0.00103254 1.70807e-20)
(-0.00233161 0.000866054 0)
(-0.00271556 0.000596433 -1.37259e-20)
(-0.00289477 0.000313468 0)
(-0.00290094 9.18871e-05 0)
(-0.00279439 -2.38407e-05 1.36476e-20)
(-0.0026522 -6.72774e-06 0)
(-0.0025456 0.000134313 1.42252e-20)
(-0.00247923 0.000332798 -1.4347e-20)
(-0.00238983 0.000422509 0)
(-0.00210724 0.000163163 -1.58889e-20)
(-0.00139808 -0.000505082 -1.89616e-20)
(-3.1966e-05 -0.00123284 0)
(0.00172114 -0.00191762 0)
(0.0036922 -0.00264849 0)
(0.00601893 -0.00331035 0)
(0.00855091 -0.00355845 -0)
(0.0111097 -0.00369798 3.49015e-21)
(0.0136165 -0.00380364 0)
(0.0161309 -0.00382262 -2.64752e-21)
(0.018676 -0.00376126 -0)
(0.0220603 -0.00368284 -0)
(0.0229841 -0.00319096 2.08905e-21)
(0.0250556 -0.00296838 0)
(0.0273859 -0.00273437 -1.92975e-21)
(0.0299934 -0.00253903 -0)
(0.0322013 -0.00236269 0)
(0.0344335 -0.00219863 -0)
(0.0364459 -0.00204533 1.82303e-21)
(0.0384493 -0.00190965 0)
(0.0403193 -0.0017874 -0)
(0.0421506 -0.00168003 1.77779e-21)
(0.043894 -0.0015842 0)
(0.0455966 -0.00149921 1.75622e-21)
(0.0472343 -0.00142286 0)
(0.0488343 -0.00135374 0)
(0.0503834 -0.0012906 0)
(0.0518969 -0.00123219 -1.72335e-21)
(0.0533685 -0.00117773 -0)
(0.0548057 -0.0011261 0)
(0.0562054 -0.00107699 -1.70212e-21)
(0.0575713 -0.00102966 -1.69517e-21)
(0.058902 -0.000983746 -0)
(0.0601981 -0.000938909 -1.68098e-21)
(0.0614599 -0.000894924 0)
(0.0626862 -0.000851482 -3.33207e-21)
(0.0638777 -0.000808358 -0)
(0.0650321 -0.000765514 -3.29988e-21)
(0.0661505 -0.000722605 -0)
(0.06723 -0.000679554 3.26449e-21)
(0.0682709 -0.000636034 0)
(0.0692703 -0.000591945 0)
(0.0702276 -0.000547216 0)
(0.0711411 -0.000501611 -3.18144e-21)
(0.0720097 -0.000454605 -0)
(0.0728302 -0.000405795 3.13253e-21)
(0.0736006 -0.000354982 0)
(0.0743183 -0.000301938 -3.07794e-21)
(0.0749805 -0.000246504 -3.04844e-21)
(0.0755847 -0.000189315 -3.01744e-21)
(0.076129 -0.000131736 0)
(0.0766124 -7.69529e-05 0)
(0.0770389 -2.94161e-05 0)
(0.0774138 1.09683e-05 0)
(0.07774 4.86455e-05 0)
(0.0780182 8.5652e-05 0)
(0.0782475 0.00012231 0)
(0.0784278 0.000158825 0)
(0.0785581 0.000195129 2.65898e-21)
(0.0786386 0.000231195 2.6088e-21)
(0.0786686 0.000267126 0)
(0.0786471 0.000302807 0)
(0.0785747 0.000338123 0)
(0.0784508 0.000373167 2.38584e-21)
(0.0782751 0.000407786 0)
(0.0780478 0.000441983 0)
(0.077769 0.000475737 0)
(0.0774385 0.000509045 0)
(0.0770564 0.000541733 -2.0546e-21)
(0.0766235 0.000573881 0)
(0.0761396 0.000605445 0)
(0.0756056 0.000636344 1.82596e-21)
(0.0750216 0.000666609 -1.74449e-21)
(0.0743883 0.000696174 0)
(0.0737066 0.000724982 -1.57341e-21)
(0.072977 0.000753102 0)
(0.0722003 0.000780383 1.3911e-21)
(0.0713778 0.000806894 0)
(0.0705101 0.000832548 0)
(0.0695982 0.000857245 0)
(0.0686463 0.000880771 0)
(0.0676559 0.000903677 0)
(0.0666069 0.000924937 -1.54541e-21)
(0.065538 0.000945181 -1.3175e-21)
(0.0644142 0.00096323 0)
(0.063268 0.000977355 0)
(0.0620885 0.000985395 0)
(0.0608777 0.000984385 3.37867e-22)
(0.0596397 0.000977172 0)
(0.0583676 0.000982103 0)
(0.0570654 0.000997354 0)
(0.0557319 0.00100886 -7.59285e-22)
(0.0543735 0.00101944 1.05473e-21)
(0.0529915 0.00102898 0)
(0.0515877 0.00103759 0)
(0.0501645 0.00104544 1.997e-21)
(0.048723 0.00105256 2.33113e-21)
(0.0472649 0.00105903 0)
(0.0457915 0.00106465 0)
(0.0443057 0.00106979 -3.40076e-21)
(0.042805 0.00107388 3.78208e-21)
(0.0412963 0.00107767 0)
(0.0397745 0.00108051 0)
(0.0382476 0.00108296 5.00956e-21)
(0.0367104 0.00108439 0)
(0.0351715 0.00108556 0)
(0.033625 0.00108584 6.38444e-21)
(0.0320799 0.00108598 0)
(0.0305306 0.00108557 7.39839e-21)
(0.0289833 0.00108513 0)
(0.0274365 0.00108476 0)
(0.0258915 0.00108452 0)
(0.0243486 0.00108458 -9.72443e-21)
(0.022808 0.001085 0)
(0.0212699 0.00108582 0)
(0.0197343 0.00108705 0)
(0.0182014 0.00108874 0)
(0.0166713 0.00109097 0)
(0.015144 0.0010939 0)
(0.0136194 0.00109766 -1.52582e-20)
(0.0120972 0.00110242 -1.62803e-20)
(0.010577 0.00110826 0)
(0.00905813 0.00111523 0)
(0.00754035 0.00112325 0)
(0.00602351 0.0011328 2.1319e-20)
(0.00450792 0.00114346 0)
(0.0029955 0.00115319 -4.9286e-20)
(0.0014905 0.00115793 5.31787e-20)
(3.70037e-06 0.00114461 5.57957e-20)
(-0.00146375 0.00109114 -5.49946e-20)
(-0.00280952 0.00101218 5.27538e-20)
(-0.00429807 0.000841768 -5.10087e-20)
(-0.00456873 0.000437322 0)
(-0.00654757 0.000994597 -3.05703e-18)
(-0.00971527 0.000756569 -2.78135e-18)
(-0.0128579 0.00039746 -3.00927e-36)
(-0.0160604 6.33659e-05 -4.75629e-18)
(-0.0194624 -0.000282459 -8.86334e-18)
(-0.0230776 -0.000645115 -4.14295e-18)
(-0.0269167 -0.00102659 3.88192e-18)
(-0.031001 -0.00143139 -4.81482e-35)
(-0.0353594 -0.00186328 -3.00927e-36)
(-0.0400073 -0.00232723 3.22195e-18)
(-0.0449644 -0.00280993 3.03229e-18)
(-0.050241 -0.00329533 3.00927e-36)
(-0.0558659 -0.0038241 0)
(-0.0618877 -0.00442596 0)
(-0.0683628 -0.00508605 -4.40105e-35)
(-0.0752924 -0.00579917 -1.46231e-35)
(-0.082831 -0.00656806 3.00927e-36)
(-0.0908276 -0.00739734 -3.77015e-18)
(-0.0998671 -0.00829846 -3.43587e-18)
(-0.108991 -0.00927315 0)
(-0.120633 -0.0103455 5.41014e-18)
(-0.130252 -0.0115216 8.98243e-18)
(-0.147795 -0.0127627 6.01853e-36)
(-0.155228 -0.0142827 -4.33448e-18)
(-0.190075 -0.0166358 3.00927e-36)
)
;
    }
    frontAndBack
    {
        type            empty;
    }
}


// ************************************************************************* //
