/*--------------------------------*- C++ -*----------------------------------*\
  =========                 |
  \\      /  F ield         | OpenFOAM: The Open Source CFD Toolbox
   \\    /   O peration     | Website:  https://openfoam.org
    \\  /    A nd           | Version:  8
     \\/     M anipulation  |
\*---------------------------------------------------------------------------*/
FoamFile
{
    version     2.0;
    format      ascii;
    class       volScalarField;
    location    "1000";
    object      nuTilda;
}
// * * * * * * * * * * * * * * * * * * * * * * * * * * * * * * * * * * * * * //

dimensions      [0 2 -1 0 0 0 0];

internalField   nonuniform List<scalar> 
12225
(
0.0122671
0.00158833
0.000666932
0.000412201
0.000298001
0.000234419
0.000192049
0.000186518
0.000141364
0.000110263
9.73202e-05
9.07194e-05
8.20035e-05
7.63425e-05
7.1708e-05
7.01742e-05
6.81338e-05
7.40042e-05
0.0323823
0.00744533
0.00330642
0.00204338
0.00146818
0.00114477
0.000936743
0.000800567
0.000680244
0.00057806
0.000507247
0.000453562
0.000411868
0.000380374
0.000352023
0.000329998
0.000313759
0.000295894
0.0490123
0.01515
0.00728196
0.00457856
0.00330642
0.00258059
0.00211241
0.00178924
0.00154196
0.00134781
0.00119795
0.00107898
0.000982393
0.000902879
0.000836445
0.000781456
0.000736173
0.000687908
0.063054
0.0237783
0.0122894
0.00788815
0.00573398
0.004485
0.00367415
0.00310736
0.00268476
0.00235812
0.00210119
0.00189468
0.00172543
0.00158465
0.00146631
0.00136625
0.00128169
0.00119817
0.074932
0.0328517
0.0181452
0.0119262
0.00874549
0.00686413
0.00563081
0.00476256
0.0041175
0.00362033
0.00322735
0.00290997
0.00264905
0.0024315
0.00224808
0.00209198
0.00195837
0.0018364
0.0849536
0.0420208
0.0246655
0.0166359
0.0123325
0.00972587
0.0079954
0.00676786
0.00585347
0.00514771
0.00458846
0.0041359
0.00376338
0.00345244
0.00318988
0.00296602
0.00277367
0.0026048
0.0933822
0.0510219
0.0316642
0.0219415
0.016474
0.0130717
0.0107779
0.00913552
0.00790571
0.00695341
0.00619691
0.00558369
0.0050784
0.00465635
0.0042998
0.00399565
0.0037342
0.00350825
0.0993794
0.0583363
0.0378386
0.0268568
0.0204171
0.0163053
0.0134892
0.011453
0.00991892
0.0087263
0.00777636
0.00700499
0.00636869
0.00583688
0.00538743
0.00500402
0.00467456
0.00439132
0.104023
0.0645454
0.0433804
0.0314239
0.0241571
0.0194092
0.0161097
0.0137018
0.0118766
0.0104521
0.00931444
0.00838906
0.00762487
0.00698577
0.00644547
0.00598453
0.00558862
0.00524881
0.108368
0.0708939
0.0493756
0.0365496
0.0284517
0.0230231
0.0191863
0.0163548
0.0141926
0.0124968
0.011138
0.0100304
0.00911436
0.00834762
0.00769913
0.00714582
0.00667072
0.00626302
0.112368
0.0772557
0.0557282
0.0421918
0.0332976
0.0271652
0.0227468
0.0194432
0.0168984
0.0148904
0.0132749
0.0119545
0.0108605
0.00994381
0.00916799
0.00850588
0.00793739
0.00744918
0.115994
0.0834975
0.0623053
0.0482611
0.0386474
0.0318167
0.026789
0.0229739
0.0200046
0.0176452
0.0157379
0.0141736
0.0128749
0.011785
0.0108618
0.0100736
0.00939673
0.00881467
0.119234
0.0894856
0.0689377
0.0546109
0.0443919
0.0369007
0.0312597
0.0269088
0.0234836
0.02074
0.0185097
0.0166735
0.0151449
0.01386
0.0127704
0.0118396
0.0110397
0.0103508
0.122086
0.095084
0.075415
0.0610223
0.0503361
0.0422534
0.0360231
0.0311353
0.0272402
0.024093
0.021519
0.0193909
0.017614
0.0161174
0.0148466
0.0137601
0.0128257
0.0120196
0.124546
0.100135
0.0814619
0.0671725
0.056158
0.047577
0.0408126
0.0354174
0.031066
0.0275196
0.0246012
0.0221777
0.0201481
0.0184349
0.0169782
0.0157314
0.0146583
0.0137312
0.126578
0.104396
0.0866605
0.0725515
0.0613228
0.0523526
0.0451453
0.0393148
0.0345631
0.0306611
0.0274325
0.0247409
0.0224806
0.020569
0.0189413
0.0175468
0.0163454
0.0153061
0.128011
0.107322
0.0902141
0.0762353
0.0648743
0.0556509
0.0481493
0.0420254
0.0370012
0.0328553
0.0294126
0.0265352
0.0241143
0.0220643
0.0203172
0.0188191
0.0175275
0.0164083
0.128006
0.107313
0.0902048
0.0762269
0.0648674
0.0556454
0.048145
0.0420222
0.0369988
0.0328537
0.0294117
0.0265349
0.0241147
0.0220652
0.0203185
0.0188206
0.0175286
0.0164083
0.126509
0.104255
0.0864922
0.0723807
0.0611613
0.052205
0.0450128
0.0391967
0.0344584
0.0305686
0.0273506
0.0246684
0.0224163
0.0205118
0.0188903
0.0175006
0.0163024
0.0152631
0.124267
0.0995604
0.0807712
0.0664676
0.0554886
0.0469631
0.0402594
0.0349228
0.0306248
0.0271258
0.0242488
0.0218611
0.0198626
0.0181762
0.0167426
0.0155152
0.0144575
0.0135405
0.12136
0.0936399
0.0737261
0.0593348
0.0487592
0.0408249
0.0347467
0.0300003
0.0262308
0.0231928
0.0207127
0.018665
0.0169572
0.0155198
0.0142999
0.0132567
0.0123583
0.0115798
0.117686
0.0865903
0.0656967
0.0514791
0.0415374
0.0343608
0.0290184
0.0249322
0.0217348
0.0191848
0.0171184
0.0154211
0.0140106
0.0128263
0.0118228
0.0109656
0.010228
0.00958894
0.11305
0.0784122
0.056921
0.0432687
0.0342296
0.0279652
0.0234365
0.0200435
0.0174263
0.0153597
0.0136966
0.0123369
0.0112106
0.010267
0.00946865
0.00878718
0.00820101
0.00769346
0.107169
0.0691009
0.0476372
0.035029
0.0271566
0.021922
0.0182437
0.0155401
0.0134817
0.0118706
0.0105816
0.00953197
0.00866487
0.00793964
0.0073267
0.00680377
0.00635412
0.00596494
0.0996761
0.0587036
0.0381279
0.0270699
0.0205782
0.0164329
0.0135949
0.0115438
0.00999923
0.00879908
0.00784342
0.00706755
0.00642793
0.00589353
0.00544235
0.00505735
0.00472642
0.00444005
0.0901097
0.0473665
0.0287363
0.0196847
0.0146976
0.0116312
0.00957853
0.00811528
0.00702332
0.00617995
0.00551059
0.00496791
0.00452125
0.00414797
0.00383352
0.00356461
0.00333369
0.00313361
0.0779076
0.0353826
0.0198606
0.0131383
0.00966107
0.00759298
0.00623353
0.00527431
0.00456401
0.00401884
0.00358703
0.00323602
0.00294756
0.0027053
0.00250302
0.0023283
0.00217892
0.00204806
0.06238
0.0232554
0.0119461
0.00765494
0.00556339
0.00435258
0.00356726
0.00301643
0.00261313
0.00230799
0.00206674
0.001867
0.00170321
0.00156265
0.00144906
0.00134692
0.00126216
0.00118215
0.0426105
0.0117794
0.00546931
0.00341388
0.00246077
0.00192015
0.0015729
0.00132905
0.0011597
0.00103885
0.000944563
0.000858184
0.000786156
0.0007215
0.000667129
0.000615629
0.000585513
0.000536472
0.0168348
0.0025599
0.00110031
0.000684192
0.000495179
0.000389151
0.00032166
0.000270752
0.000280901
0.000338982
0.000384497
0.000373985
0.000343813
0.000314928
0.000284447
0.000257143
0.000317308
0.000270971
3.78283e-06
1.43237e-05
2.60308e-05
3.85409e-05
4.60178e-05
4.96738e-05
5.01616e-05
4.78384e-05
4.46476e-05
3.95789e-05
3.42402e-05
2.94618e-05
2.67586e-05
2.74186e-05
2.95912e-05
3.14334e-05
3.12808e-05
2.84063e-05
2.36578e-05
1.94765e-05
1.94413e-05
2.62703e-05
3.92484e-05
6.37004e-05
8.71425e-05
0.000100543
0.000113283
0.000124295
0.00013429
0.000142798
0.000150395
0.000157018
0.000162883
0.00016804
0.000172575
0.000176603
0.000180192
0.000183412
0.00018631
0.000188922
0.000191272
0.000193379
0.000195257
0.00019692
0.000198381
0.000199649
0.000200735
0.000201644
0.000202376
0.0002028
0.000203292
0.000203375
0.000203434
0.000203319
0.000203041
0.000202628
0.000202072
0.000201379
0.000200551
0.00019959
0.000198497
0.000197276
0.00019593
0.00019446
0.00019287
0.000191163
0.00018934
0.000187403
0.000185358
0.000183207
0.000180952
0.000178596
0.000176143
0.000173595
0.000170955
0.000168225
0.000165407
0.000162503
0.000159514
0.000156441
0.000153283
0.000150042
0.000146715
0.000143303
0.000139801
0.000136207
0.000132514
0.000128714
0.000124795
0.00012074
0.000116533
0.00011216
0.000107619
0.000102963
9.83994e-05
9.44174e-05
9.15944e-05
8.9838e-05
8.85237e-05
8.73189e-05
8.61356e-05
8.49568e-05
8.37809e-05
8.26085e-05
8.14405e-05
8.02779e-05
7.91219e-05
7.79769e-05
7.68639e-05
7.59092e-05
7.49753e-05
7.40474e-05
7.31275e-05
7.22158e-05
7.13128e-05
7.04187e-05
6.9534e-05
6.8659e-05
6.7794e-05
6.69391e-05
6.60945e-05
6.52605e-05
6.44374e-05
6.36256e-05
6.28251e-05
6.20357e-05
6.12585e-05
6.0519e-05
5.98418e-05
5.91732e-05
5.85099e-05
5.78599e-05
5.7228e-05
5.66014e-05
5.59795e-05
5.53657e-05
5.47609e-05
5.41658e-05
5.35804e-05
5.30047e-05
5.24384e-05
5.18814e-05
5.13336e-05
5.07948e-05
5.0265e-05
4.97439e-05
4.92316e-05
4.87279e-05
4.82327e-05
4.77459e-05
4.72676e-05
4.67975e-05
4.63357e-05
4.58821e-05
4.54368e-05
4.49998e-05
4.45711e-05
4.41509e-05
4.37392e-05
4.33362e-05
4.29421e-05
4.25571e-05
4.21815e-05
4.18155e-05
4.14594e-05
4.11132e-05
4.07768e-05
4.04503e-05
4.01328e-05
3.9824e-05
3.95216e-05
3.9226e-05
3.89283e-05
3.86416e-05
3.83127e-05
3.80569e-05
3.75492e-05
3.73543e-05
3.63036e-05
3.49093e-05
5.89528e-06
4.05833e-05
9.24519e-05
0.000153692
0.000192556
0.000214581
0.000223393
0.000221978
0.000214151
0.000198599
0.000179572
0.000161569
0.000152392
0.000156818
0.000169068
0.000177026
0.000179114
0.000180197
0.000185098
0.000193801
0.000208052
0.00022437
0.000240279
0.000256121
0.000267015
0.000276605
0.000285154
0.000297605
0.000316282
0.000329952
0.000342475
0.000353226
0.00036301
0.000371988
0.000379789
0.000386915
0.000393553
0.000399925
0.000406158
0.000412319
0.000418402
0.000424365
0.000430156
0.000435732
0.000441067
0.000446144
0.000450947
0.000455463
0.000459695
0.00046364
0.00046734
0.000470758
0.000473934
0.000476857
0.000479531
0.000481957
0.000484137
0.00048607
0.000487758
0.0004892
0.000490397
0.00049135
0.000492061
0.000492535
0.000492782
0.000492807
0.000492604
0.00049217
0.000491521
0.00049066
0.000489594
0.00048833
0.000486873
0.000485231
0.00048341
0.000481419
0.000479264
0.000476953
0.000474493
0.000471893
0.000469159
0.0004663
0.000463324
0.000460239
0.000457053
0.000453775
0.000450413
0.000446975
0.000443469
0.000439902
0.000436281
0.000432611
0.000428892
0.000425116
0.000421265
0.000417313
0.000413244
0.000409086
0.00040489
0.000400678
0.00039646
0.00039224
0.00038802
0.000383804
0.000379596
0.000375399
0.000371215
0.000367048
0.000362898
0.000358761
0.000354649
0.000350566
0.000346514
0.000342495
0.000338511
0.000334563
0.000330653
0.000326782
0.000322952
0.000319164
0.000315419
0.000311718
0.000308061
0.00030445
0.000300886
0.000297369
0.000293898
0.000290472
0.00028709
0.000283755
0.000280464
0.000277228
0.000274046
0.000270902
0.000267797
0.000264735
0.000261719
0.00025875
0.000255828
0.000252952
0.000250123
0.000247339
0.0002446
0.000241905
0.000239253
0.000236645
0.000234079
0.000231556
0.000229074
0.000226633
0.000224233
0.000221874
0.000219554
0.000217275
0.000215037
0.000212838
0.00021068
0.000208563
0.000206488
0.000204456
0.000202467
0.000200524
0.000198627
0.000196779
0.00019498
0.000193232
0.000191536
0.000189891
0.000188297
0.000186753
0.000185252
0.000183798
0.000182361
0.000180998
0.000179514
0.000178391
0.000176295
0.000175972
0.000172992
0.00017213
1.28725e-05
7.40493e-05
0.000174291
0.000251889
0.000303699
0.000333434
0.000344307
0.000341503
0.000328912
0.000310023
0.000290691
0.000278243
0.000275977
0.000282393
0.00029243
0.000302968
0.000315426
0.000332051
0.00035332
0.000378183
0.000405318
0.000433397
0.000471162
0.000517304
0.000562765
0.000606777
0.000649764
0.00069334
0.000732644
0.000763914
0.00078891
0.000808727
0.000824436
0.0008369
0.0008469
0.000855211
0.000862535
0.000869514
0.000876687
0.000884409
0.000892788
0.000901702
0.000910912
0.00092018
0.00092933
0.000938242
0.00094684
0.000955075
0.000962912
0.000970322
0.000977282
0.000983764
0.000989764
0.000995276
0.0010003
0.00100483
0.00100886
0.00101241
0.00101546
0.00101803
0.00102009
0.00102167
0.00102275
0.0010233
0.00102345
0.00102317
0.00102238
0.00102113
0.00101945
0.00101733
0.00101479
0.00101185
0.00100852
0.00100481
0.00100073
0.0009963
0.000991537
0.000986453
0.000981064
0.000975384
0.000969428
0.000963213
0.000956752
0.000950061
0.000943156
0.000936051
0.000928761
0.0009213
0.000913682
0.00090592
0.000898025
0.00089001
0.000881883
0.000873653
0.000865328
0.000856917
0.000848433
0.000839892
0.000831311
0.000822701
0.000814076
0.000805442
0.000796808
0.000788183
0.000779572
0.000770983
0.000762423
0.000753897
0.000745411
0.000736971
0.000728581
0.000720249
0.000711978
0.000703772
0.000695634
0.000687569
0.00067958
0.000671669
0.000663838
0.000656091
0.000648429
0.000640854
0.000633369
0.000625974
0.000618671
0.000611461
0.000604343
0.000597319
0.00059039
0.000583555
0.000576815
0.000570171
0.00056362
0.000557158
0.000550783
0.000544497
0.000538302
0.0005322
0.00052619
0.000520271
0.000514443
0.000508704
0.000503054
0.000497492
0.000492016
0.000486626
0.000481319
0.000476096
0.000470954
0.000465893
0.000460912
0.000456009
0.000451184
0.000446434
0.000441761
0.000437161
0.000432634
0.000428179
0.000423795
0.00041948
0.000415233
0.000411052
0.000406936
0.000402883
0.000398889
0.000394951
0.000391066
0.000387229
0.000383432
0.000379667
0.000375922
0.000372184
0.000368427
0.000364634
0.000360732
0.000356754
0.000352334
0.000348032
0.000341574
0.000330423
2.17683e-05
0.000106427
0.000220248
0.000312862
0.000375565
0.000412573
0.00042802
0.000428411
0.000418478
0.000405169
0.000397032
0.000396155
0.000405232
0.00042225
0.000444802
0.000472353
0.000505508
0.00054464
0.000588943
0.000650792
0.000724461
0.000804089
0.000888307
0.000958963
0.00102139
0.00107751
0.00112793
0.00117284
0.00121212
0.00124601
0.00127526
0.0013006
0.00132273
0.00134227
0.00135981
0.00137583
0.00139076
0.00140492
0.00141858
0.00143193
0.00144509
0.00145814
0.0014711
0.00148395
0.00149664
0.0015091
0.00152123
0.00153293
0.00154412
0.00155472
0.00156467
0.00157394
0.00158252
0.00159038
0.00159751
0.00160392
0.00160959
0.00161453
0.00161873
0.00162219
0.00162491
0.00162689
0.00162805
0.00162849
0.00162836
0.00162745
0.00162582
0.0016235
0.00162051
0.00161685
0.00161255
0.00160763
0.00160212
0.00159602
0.00158936
0.00158217
0.00157446
0.00156627
0.00155761
0.0015485
0.00153897
0.00152904
0.00151874
0.00150809
0.00149711
0.00148582
0.00147425
0.00146241
0.00145034
0.00143804
0.00142555
0.00141287
0.00140002
0.00138703
0.0013739
0.00136065
0.0013473
0.00133388
0.00132039
0.00130686
0.00129331
0.00127974
0.00126617
0.00125261
0.00123908
0.00122559
0.00121213
0.00119874
0.0011854
0.00117214
0.00115895
0.00114586
0.00113286
0.00111996
0.00110717
0.00109448
0.00108192
0.00106948
0.00105716
0.00104497
0.00103291
0.00102099
0.0010092
0.000997559
0.000986055
0.000974694
0.000963476
0.000952404
0.000941476
0.000930696
0.000920062
0.000909574
0.00089923
0.000889025
0.000878959
0.000869033
0.000859248
0.000849603
0.0008401
0.000830738
0.000821514
0.000812429
0.00080348
0.000794665
0.000785984
0.000777433
0.000769013
0.00076072
0.000752553
0.00074451
0.000736589
0.000728789
0.000721108
0.000713543
0.000706094
0.000698758
0.000691533
0.000684417
0.000677409
0.000670506
0.000663705
0.000657005
0.000650402
0.000643893
0.000637473
0.000631138
0.000624882
0.000618696
0.000612572
0.000606498
0.000600456
0.000594427
0.000588379
0.000582277
0.000576056
0.000569661
0.00056291
0.000555749
0.000547528
0.000531431
2.6968e-05
0.000122006
0.000241116
0.000357856
0.0004359
0.000483081
0.000506586
0.000514996
0.000516536
0.000517471
0.00052426
0.000540294
0.000566198
0.000601024
0.00064399
0.000695116
0.000755025
0.00083827
0.000933789
0.00103
0.00111899
0.00120338
0.00128273
0.00135545
0.00142222
0.00148365
0.00154013
0.001592
0.00163961
0.00168339
0.00172383
0.0017614
0.00179654
0.00182963
0.00186096
0.00189081
0.00191935
0.00194674
0.00197307
0.0019984
0.00202276
0.00204616
0.00206861
0.00209007
0.00211054
0.00212997
0.00214834
0.00216562
0.00218177
0.00219679
0.00221067
0.00222339
0.00223499
0.00224546
0.00225483
0.00226311
0.00227033
0.00227649
0.00228162
0.00228572
0.00228882
0.00229087
0.00229179
0.00229188
0.002291
0.00228912
0.00228629
0.00228252
0.00227783
0.00227225
0.0022658
0.00225852
0.00225042
0.00224154
0.00223191
0.00222156
0.00221052
0.00219882
0.00218649
0.00217356
0.00216006
0.00214603
0.0021315
0.00211649
0.00210104
0.00208518
0.00206893
0.00205234
0.00203542
0.0020182
0.00200072
0.001983
0.00196506
0.00194692
0.00192862
0.00191016
0.00189158
0.00187291
0.00185415
0.00183534
0.0018165
0.00179764
0.00177879
0.00175995
0.00174115
0.0017224
0.00170372
0.00168511
0.00166659
0.00164817
0.00162986
0.00161168
0.00159362
0.0015757
0.00155793
0.00154032
0.00152286
0.00150557
0.00148846
0.00147152
0.00145476
0.00143818
0.0014218
0.0014056
0.0013896
0.0013738
0.00135819
0.00134277
0.00132756
0.00131255
0.00129774
0.00128312
0.00126871
0.00125448
0.00124045
0.00122661
0.00121296
0.00119951
0.00118625
0.00117317
0.00116029
0.0011476
0.00113509
0.00112276
0.00111061
0.00109865
0.00108686
0.00107524
0.00106379
0.00105251
0.0010414
0.00103045
0.00101966
0.00100904
0.000998561
0.00098824
0.000978069
0.000968046
0.000958167
0.000948431
0.000938832
0.000929369
0.000920037
0.000910832
0.000901748
0.00089278
0.000883919
0.000875157
0.000866482
0.00085788
0.000849331
0.00084081
0.000832283
0.000823707
0.000815015
0.000806136
0.000796905
0.000787175
0.000777219
0.000757434
3.07976e-05
0.000135318
0.00026151
0.000392486
0.000488774
0.000550386
0.000588099
0.000611465
0.000629134
0.000648356
0.000674382
0.000709866
0.000755554
0.000811722
0.000878758
0.000969129
0.00107416
0.00117584
0.00127504
0.00137055
0.00146126
0.00154727
0.00162853
0.001705
0.00177698
0.00184481
0.00190884
0.0019694
0.00202683
0.00208145
0.00213358
0.00218351
0.0022315
0.00227775
0.00232242
0.00236564
0.00240749
0.00244803
0.00248729
0.00252528
0.00256199
0.00259741
0.0026315
0.00266424
0.00269558
0.00272548
0.00275391
0.00278082
0.00280618
0.00282995
0.0028521
0.00287262
0.00289149
0.00290869
0.00292423
0.0029381
0.0029503
0.00296084
0.00296973
0.00297699
0.00298265
0.00298673
0.00298916
0.00299006
0.00298959
0.00298762
0.00298428
0.00297958
0.00297358
0.00296632
0.00295788
0.00294829
0.0029376
0.00292588
0.00291316
0.00289949
0.00288493
0.00286952
0.00285329
0.0028363
0.00281859
0.0028002
0.00278117
0.00276154
0.00274135
0.00272064
0.00269945
0.00267783
0.00265579
0.0026334
0.00261067
0.00258764
0.00256434
0.00254081
0.00251708
0.00249317
0.00246912
0.00244495
0.00242069
0.00239636
0.002372
0.00234763
0.00232327
0.00229893
0.00227465
0.00225043
0.0022263
0.00220227
0.00217836
0.00215458
0.00213094
0.00210746
0.00208415
0.00206102
0.00203807
0.00201533
0.00199279
0.00197046
0.00194835
0.00192647
0.00190482
0.00188341
0.00186223
0.0018413
0.00182062
0.00180018
0.00177999
0.00176005
0.00174037
0.00172094
0.00170176
0.00168284
0.00166416
0.00164574
0.00162755
0.00160961
0.00159192
0.00157447
0.00155726
0.0015403
0.00152357
0.00150708
0.00149082
0.0014748
0.001459
0.00144343
0.00142808
0.00141294
0.00139803
0.00138332
0.00136883
0.00135454
0.00134045
0.00132656
0.00131287
0.00129937
0.00128605
0.00127293
0.00125998
0.00124721
0.00123462
0.0012222
0.00120994
0.00119785
0.0011859
0.00117411
0.00116245
0.00115092
0.00113951
0.00112819
0.00111696
0.00110577
0.00109461
0.00108341
0.00107211
0.00106064
0.00104883
0.00103662
0.00102444
0.00100198
3.23483e-05
0.000142504
0.000273981
0.00040988
0.000527825
0.000609041
0.000665078
0.000706967
0.000743915
0.000783173
0.000829797
0.00088674
0.000955613
0.00104782
0.00115473
0.00126129
0.00136737
0.00147073
0.0015708
0.00166717
0.00175958
0.00184803
0.00193261
0.00201348
0.00209088
0.00216509
0.00223638
0.00230503
0.00237127
0.00243535
0.00249749
0.00255785
0.00261659
0.00267382
0.00272964
0.00278408
0.0028372
0.00288901
0.00293949
0.00298863
0.0030364
0.00308276
0.00312767
0.00317108
0.00321294
0.00325319
0.00329178
0.00332867
0.00336379
0.00339711
0.00342858
0.00345816
0.00348581
0.00351151
0.00353524
0.00355696
0.00357667
0.00359435
0.00361001
0.00362363
0.00363523
0.00364481
0.00365239
0.003658
0.00366166
0.00366327
0.00366319
0.0036612
0.00365743
0.00365191
0.0036447
0.00363586
0.00362545
0.00361352
0.00360013
0.00358537
0.00356928
0.00355193
0.00353341
0.00351376
0.00349306
0.00347137
0.00344877
0.00342531
0.00340106
0.00337608
0.00335044
0.00332419
0.00329738
0.00327007
0.00324232
0.00321417
0.00318566
0.00315685
0.00312777
0.00309846
0.00306896
0.00303931
0.00300954
0.0029797
0.0029498
0.00291988
0.00288996
0.00286008
0.00283026
0.00280051
0.00277087
0.00274135
0.00271198
0.00268276
0.00265371
0.00262486
0.00259621
0.00256777
0.00253956
0.0025116
0.00248388
0.00245642
0.00242923
0.0024023
0.00237566
0.0023493
0.00232324
0.00229746
0.00227198
0.0022468
0.00222192
0.00219735
0.00217308
0.00214911
0.00212545
0.00210209
0.00207904
0.00205628
0.00203382
0.00201165
0.00198978
0.0019682
0.00194692
0.00192592
0.00190521
0.00188478
0.00186464
0.00184477
0.00182518
0.00180585
0.0017868
0.001768
0.00174947
0.00173118
0.00171315
0.00169537
0.00167783
0.00166053
0.00164346
0.00162663
0.00161002
0.00159363
0.00157747
0.00156152
0.00154578
0.00153024
0.00151491
0.00149977
0.00148481
0.00147004
0.00145544
0.001441
0.0014267
0.00141253
0.00139847
0.00138449
0.00137055
0.0013566
0.00134258
0.00132841
0.00131394
0.00129919
0.00128418
0.00125994
3.27975e-05
0.000144135
0.000275338
0.000409479
0.000539409
0.000642712
0.000719778
0.000781095
0.000836781
0.000894518
0.000961947
0.00105376
0.00116327
0.00128497
0.00140052
0.00151178
0.0016196
0.00172418
0.00182544
0.00192332
0.00201783
0.00210905
0.00219712
0.00228222
0.00236459
0.00244443
0.00252198
0.00259745
0.00267102
0.00274287
0.00281314
0.00288194
0.00294938
0.00301551
0.00308038
0.003144
0.00320637
0.00326749
0.00332732
0.00338581
0.00344294
0.00349863
0.00355284
0.00360549
0.00365652
0.00370587
0.00375348
0.00379927
0.00384319
0.00388518
0.00392519
0.00396315
0.00399904
0.0040328
0.00406439
0.00409379
0.00412096
0.0041459
0.00416857
0.00418897
0.0042071
0.00422295
0.00423653
0.00424786
0.00425694
0.00426381
0.00426854
0.00427099
0.00427142
0.00426978
0.00426611
0.00426047
0.0042529
0.00424347
0.00423224
0.00421927
0.00420462
0.00418837
0.00417057
0.00415131
0.00413064
0.00410865
0.0040854
0.00406097
0.00403543
0.00400886
0.00398131
0.00395287
0.0039236
0.00389357
0.00386284
0.00383148
0.00379955
0.00376711
0.00373421
0.00370091
0.00366727
0.00363333
0.00359915
0.00356478
0.00353025
0.00349562
0.00346091
0.00342617
0.00339144
0.00335674
0.00332211
0.00328757
0.00325316
0.00321889
0.00318478
0.00315087
0.00311716
0.00308368
0.00305045
0.00301747
0.00298476
0.00295233
0.0029202
0.00288836
0.00285684
0.00282564
0.00279477
0.00276422
0.00273401
0.00270414
0.00267462
0.00264544
0.0026166
0.00258811
0.00255998
0.00253218
0.00250474
0.00247764
0.00245088
0.00242447
0.00239839
0.00237265
0.00234725
0.00232218
0.00229744
0.00227303
0.00224894
0.00222518
0.00220173
0.0021786
0.00215577
0.00213325
0.00211102
0.0020891
0.00206746
0.00204612
0.00202505
0.00200426
0.00198375
0.00196351
0.00194353
0.00192381
0.00190435
0.00188515
0.00186618
0.00184746
0.00182898
0.00181072
0.00179269
0.00177487
0.00175725
0.00173983
0.00172258
0.00170549
0.00168854
0.00167169
0.00165491
0.00163815
0.00162135
0.00160442
0.00158722
0.00156982
0.00155189
0.00152575
3.224e-05
0.000141211
0.00026894
0.00039808
0.000521951
0.000634094
0.000727865
0.00080889
0.000891721
0.000986899
0.00109599
0.00122058
0.00135692
0.00148442
0.00160471
0.00171973
0.00183044
0.00193722
0.00204037
0.00214026
0.0022371
0.00233108
0.0024224
0.00251128
0.00259791
0.0026825
0.00276523
0.00284629
0.00292582
0.00300395
0.0030808
0.00315643
0.00323091
0.00330427
0.00337652
0.00344766
0.00351766
0.00358649
0.0036541
0.00372043
0.00378541
0.00384899
0.00391107
0.00397159
0.00403047
0.00408764
0.004143
0.00419649
0.00424804
0.00429757
0.00434503
0.00439035
0.00443347
0.00447434
0.00451292
0.00454916
0.00458304
0.00461452
0.00464359
0.00467021
0.00469439
0.00471612
0.0047354
0.00475223
0.00476663
0.00477862
0.00478823
0.00479546
0.00480039
0.00480296
0.00480335
0.00480153
0.00479757
0.00479151
0.00478341
0.00477332
0.00476132
0.00474747
0.00473183
0.00471447
0.00469546
0.00467488
0.00465279
0.00462926
0.00460438
0.00457821
0.00455082
0.00452229
0.0044927
0.0044621
0.00443058
0.00439819
0.00436502
0.00433111
0.00429654
0.00426137
0.00422566
0.00418948
0.00415287
0.00411589
0.00407861
0.00404106
0.0040033
0.00396538
0.00392734
0.00388922
0.00385106
0.00381289
0.00377476
0.0037367
0.00369873
0.00366088
0.00362319
0.00358568
0.00354836
0.00351127
0.00347441
0.00343781
0.00340149
0.00336546
0.00332972
0.00329431
0.00325921
0.00322445
0.00319003
0.00315596
0.00312224
0.00308889
0.0030559
0.00302327
0.00299102
0.00295913
0.00292762
0.00289648
0.00286571
0.00283531
0.00280528
0.00277561
0.00274632
0.00271739
0.00268882
0.00266061
0.00263276
0.00260527
0.00257813
0.00255133
0.00252487
0.00249876
0.00247298
0.00244753
0.00242241
0.0023976
0.00237312
0.00234895
0.00232509
0.00230153
0.00227827
0.0022553
0.00223263
0.00221024
0.00218813
0.0021663
0.00214473
0.00212343
0.00210238
0.00208157
0.002061
0.00204066
0.00202052
0.00200057
0.00198078
0.00196112
0.00194155
0.00192202
0.00190247
0.00188282
0.00186293
0.00184287
0.00182212
0.0017938
3.08711e-05
0.000135126
0.00025814
0.000383438
0.000505399
0.000621462
0.000732077
0.000840969
0.000955712
0.00108146
0.00121946
0.00136915
0.00151143
0.00164341
0.00176767
0.0018861
0.00199982
0.00210947
0.00221544
0.00231793
0.00241735
0.00251406
0.00260838
0.00270054
0.00279079
0.00287933
0.00296633
0.00305195
0.00313633
0.00321958
0.00330177
0.00338297
0.00346322
0.00354252
0.00362087
0.00369823
0.00377459
0.00384987
0.00392401
0.00399694
0.00406859
0.00413886
0.00420767
0.00427492
0.00434054
0.00440441
0.00446647
0.00452661
0.00458476
0.00464084
0.00469477
0.00474649
0.00479593
0.00484303
0.00488773
0.00493
0.00496979
0.00500706
0.0050418
0.00507397
0.00510356
0.00513057
0.00515499
0.00517683
0.00519609
0.0052128
0.00522696
0.00523862
0.00524779
0.00525451
0.00525883
0.00526077
0.00526043
0.00525782
0.005253
0.00524604
0.00523699
0.00522591
0.00521287
0.00519793
0.00518117
0.00516265
0.00514245
0.00512063
0.00509727
0.00507244
0.00504622
0.00501867
0.00498988
0.0049599
0.00492882
0.00489669
0.0048636
0.0048296
0.00479477
0.00475917
0.00472286
0.0046859
0.00464837
0.00461031
0.00457179
0.00453286
0.00449358
0.00445399
0.00441415
0.00437411
0.0043339
0.00429357
0.00425316
0.00421272
0.00417227
0.00413185
0.0040915
0.00405124
0.00401111
0.00397112
0.00393131
0.0038917
0.0038523
0.00381314
0.00377424
0.00373562
0.00369728
0.00365924
0.00362152
0.00358412
0.00354706
0.00351034
0.00347397
0.00343796
0.00340231
0.00336703
0.00333212
0.00329758
0.00326341
0.00322962
0.0031962
0.00316317
0.00313051
0.00309823
0.00306632
0.00303479
0.00300363
0.00297284
0.00294243
0.00291237
0.00288269
0.00285336
0.00282438
0.00279576
0.00276749
0.00273956
0.00271198
0.00268473
0.00265781
0.00263123
0.00260496
0.00257902
0.0025534
0.00252808
0.00250307
0.00247837
0.00245395
0.00242983
0.00240599
0.00238242
0.00235911
0.00233605
0.00231322
0.0022906
0.00226816
0.00224588
0.00222372
0.00220161
0.00217949
0.00215729
0.00213489
0.00211232
0.00208902
0.00205836
2.93197e-05
0.000128803
0.000248259
0.000372496
0.000497116
0.000621016
0.000745618
0.000874894
0.00101209
0.00115927
0.00131659
0.00147836
0.00162616
0.00176261
0.00189071
0.00201247
0.00212917
0.00224161
0.00235035
0.00245577
0.00255816
0.00265773
0.00275491
0.00285005
0.00294344
0.00303532
0.00312589
0.0032153
0.00330369
0.00339115
0.00347777
0.00356358
0.00364862
0.00373287
0.00381632
0.00389892
0.00398063
0.00406137
0.00414107
0.00421963
0.00429697
0.00437298
0.00444756
0.00452062
0.00459204
0.00466173
0.00472959
0.00479551
0.00485941
0.0049212
0.0049808
0.00503812
0.0050931
0.00514567
0.00519577
0.00524335
0.00528837
0.00533078
0.00537055
0.00540767
0.00544211
0.00547385
0.00550291
0.00552927
0.00555294
0.00557394
0.00559229
0.00560802
0.00562114
0.0056317
0.00563972
0.00564527
0.00564838
0.0056491
0.0056475
0.00564362
0.00563753
0.00562928
0.00561894
0.00560658
0.00559226
0.00557604
0.00555801
0.00553823
0.00551677
0.00549371
0.00546912
0.00544307
0.00541564
0.00538689
0.00535689
0.00532572
0.00529344
0.00526012
0.00522584
0.00519064
0.00515461
0.00511781
0.00508029
0.00504212
0.00500336
0.00496406
0.00492429
0.0048841
0.00484353
0.00480264
0.00476147
0.00472008
0.0046785
0.00463679
0.00459496
0.00455308
0.00451117
0.00446926
0.00442739
0.0043856
0.0043439
0.00430232
0.0042609
0.00421964
0.00417859
0.00413775
0.00409714
0.00405679
0.0040167
0.0039769
0.00393739
0.00389819
0.0038593
0.00382074
0.00378252
0.00374464
0.00370711
0.00366993
0.00363311
0.00359665
0.00356056
0.00352483
0.00348947
0.00345448
0.00341987
0.00338563
0.00335176
0.00331826
0.00328513
0.00325237
0.00321998
0.00318796
0.00315629
0.00312499
0.00309405
0.00306346
0.00303322
0.00300333
0.00297379
0.00294459
0.00291573
0.00288721
0.00285901
0.00283115
0.0028036
0.00277638
0.00274947
0.00272286
0.00269655
0.00267054
0.0026448
0.00261934
0.00259412
0.00256913
0.00254435
0.00251974
0.00249526
0.00247086
0.00244647
0.00242202
0.0023974
0.0023726
0.00234709
0.00231428
2.76255e-05
0.000122201
0.000238228
0.000361779
0.000489213
0.0006199
0.000756098
0.000899586
0.00105205
0.00121399
0.00138591
0.00155187
0.00170366
0.00184397
0.00197557
0.00210045
0.00221995
0.00233501
0.00244628
0.00255427
0.00265935
0.00276183
0.00286198
0.00295999
0.00305628
0.00315114
0.00324481
0.00333748
0.00342929
0.00352034
0.00361071
0.00370044
0.00378954
0.003878
0.0039658
0.00405288
0.00413917
0.0042246
0.00430906
0.00439248
0.00447472
0.0045557
0.00463528
0.00471337
0.00478984
0.00486459
0.0049375
0.00500847
0.00507739
0.00514418
0.00520874
0.00527099
0.00533084
0.00538823
0.0054431
0.00549539
0.00554505
0.00559203
0.00563631
0.00567785
0.00571664
0.00575265
0.00578589
0.00581635
0.00584405
0.00586898
0.00589118
0.00591066
0.00592745
0.00594158
0.0059531
0.00596204
0.00596844
0.00597237
0.00597386
0.00597299
0.00596982
0.00596439
0.00595677
0.00594702
0.00593521
0.00592141
0.00590569
0.00588811
0.00586876
0.0058477
0.00582501
0.00580075
0.005775
0.00574783
0.00571931
0.00568951
0.00565849
0.00562633
0.0055931
0.00555885
0.00552365
0.00548758
0.00545068
0.00541304
0.00537469
0.00533571
0.00529616
0.00525607
0.00521552
0.00517454
0.00513319
0.00509152
0.00504957
0.00500738
0.004965
0.00492248
0.00487984
0.00483712
0.00479436
0.00475159
0.00470884
0.00466615
0.00462353
0.00458103
0.00453865
0.00449642
0.00445437
0.00441252
0.00437088
0.00432947
0.00428831
0.0042474
0.00420677
0.00416643
0.00412639
0.00408665
0.00404722