/*--------------------------------*- C++ -*----------------------------------*\
  =========                 |
  \\      /  F ield         | OpenFOAM: The Open Source CFD Toolbox
   \\    /   O peration     | Website:  https://openfoam.org
    \\  /    A nd           | Version:  8
     \\/     M anipulation  |
\*---------------------------------------------------------------------------*/
FoamFile
{
    version     2.0;
    format      ascii;
    class       volVectorField;
    location    "1000";
    object      U;
}
// * * * * * * * * * * * * * * * * * * * * * * * * * * * * * * * * * * * * * //

dimensions      [0 1 -1 0 0 0 0];

internalField   nonuniform List<vector> 
12225
(
(9.2745 -4.73371 0)
(13.1094 -1.71343 0)
(12.4778 -0.395198 0)
(11.2771 -0.0422048 0)
(10.6314 0.0141375 0)
(10.2979 -9.51966e-05 0)
(10.0776 -0.0165249 0)
(9.9123 -0.00289042 0)
(9.77912 0.0348723 0)
(9.66235 0.04289 0)
(9.5558 0.0248796 0)
(9.45775 0.00213747 0)
(9.36685 -0.0227997 0)
(9.28224 -0.0302364 0)
(9.2025 -0.021799 0)
(9.13277 -0.0212552 0)
(9.07059 -0.0210688 0)
(9.0899 -0.0278416 0)
(10.2592 0.0928019 0)
(10.7814 0.199338 0)
(10.9594 0.245655 0)
(10.7469 0.229142 0)
(10.5875 0.172967 0)
(10.4527 0.115533 0)
(10.33 0.0823288 0)
(10.2327 0.0647263 0)
(10.1551 0.0524716 0)
(10.0894 0.0472271 0)
(10.0324 0.0469843 0)
(9.98217 0.0489793 0)
(9.93791 0.0517828 0)
(9.89841 0.0519208 0)
(9.86161 0.0482919 0)
(9.82898 0.0437834 0)
(9.79447 0.0299982 0)
(9.76851 0.010064 0)
(9.87768 -0.24504 0)
(9.74285 0.00579065 0)
(10.1971 0.125743 0)
(10.3245 0.179363 0)
(10.3564 0.161546 0)
(10.3311 0.120074 0)
(10.2777 0.0904901 0)
(10.2252 0.0746604 0)
(10.1813 0.065868 0)
(10.1438 0.0600195 0)
(10.1103 0.0561963 0)
(10.08 0.053635 0)
(10.052 0.0511146 0)
(10.0261 0.048731 0)
(10.0024 0.0460299 0)
(9.9813 0.041693 0)
(9.95931 0.0315507 0)
(9.93476 0.0133414 0)
(9.83416 -0.443933 0)
(9.57654 -0.163147 0)
(9.91603 0.0336694 0)
(10.0933 0.134223 0)
(10.1892 0.14547 0)
(10.2168 0.120735 0)
(10.205 0.0978899 0)
(10.1825 0.0839023 0)
(10.1599 0.0756202 0)
(10.1389 0.0696999 0)
(10.1191 0.0651183 0)
(10.1002 0.0616162 0)
(10.0822 0.0585843 0)
(10.0649 0.0561886 0)
(10.0484 0.0537963 0)
(10.0326 0.0500549 0)
(10.0149 0.0422818 0)
(9.99191 0.0303906 0)
(9.87825 -0.387476 0)
(9.61653 -0.196148 0)
(9.81623 -0.0186716 0)
(9.96136 0.0916106 0)
(10.0698 0.122193 0)
(10.1219 0.113623 0)
(10.1354 0.0992576 0)
(10.1332 0.0884121 0)
(10.1257 0.0809367 0)
(10.1162 0.0753812 0)
(10.1056 0.0711041 0)
(10.0946 0.0678553 0)
(10.0833 0.0652185 0)
(10.0719 0.0631074 0)
(10.0602 0.0609758 0)
(10.0478 0.0580069 0)
(10.0329 0.0529388 0)
(10.0125 0.046698 0)
(9.91439 -0.28804 0)
(9.68304 -0.185177 0)
(9.78717 -0.0532092 0)
(9.88917 0.0509964 0)
(9.98797 0.0936758 0)
(10.0476 0.099198 0)
(10.0751 0.0938663 0)
(10.0861 0.0875074 0)
(10.0892 0.0821065 0)
(10.0879 0.0777463 0)
(10.0842 0.074327 0)
(10.079 0.0717288 0)
(10.0726 0.0697003 0)
(10.0654 0.0681161 0)
(10.0572 0.0666497 0)
(10.0477 0.0649387 0)
(10.0354 0.0626419 0)
(10.0186 0.0609825 0)
(9.93763 -0.214041 0)
(9.74856 -0.167537 0)
(9.79244 -0.0752174 0)
(9.85609 0.0162173 0)
(9.93595 0.0644172 0)
(9.99282 0.0805884 0)
(10.0261 0.083552 0)
(10.0447 0.0822311 0)
(10.0546 0.0797632 0)
(10.0593 0.0772664 0)
(10.0606 0.0751486 0)
(10.0596 0.0735236 0)
(10.0571 0.0723429 0)
(10.0531 0.0715743 0)
(10.0477 0.0711103 0)
(10.0407 0.0709101 0)
(10.0312 0.0711417 0)
(10.0183 0.0729808 0)
(9.95263 -0.167335 0)
(9.79947 -0.149678 0)
(9.81177 -0.0846436 0)
(9.84959 -0.00621397 0)
(9.91141 0.0419265 0)
(9.96107 0.0638895 0)
(9.99432 0.0725396 0)
(10.0156 0.0752724 0)
(10.0289 0.0755119 0)
(10.0367 0.0748803 0)
(10.041 0.074118 0)
(10.0427 0.0735433 0)
(10.0426 0.0732736 0)
(10.0408 0.0733847 0)
(10.0375 0.0739236 0)
(10.0325 0.0750315 0)
(10.0254 0.0770738 0)
(10.0157 0.0810459 0)
(9.96406 -0.13209 0)
(9.84003 -0.13199 0)
(9.83337 -0.0876924 0)
(9.85306 -0.0213367 0)
(9.89927 0.0244097 0)
(9.94103 0.0495047 0)
(9.97207 0.0621121 0)
(9.99386 0.0680619 0)
(10.0087 0.0706766 0)
(10.0184 0.0717698 0)
(10.0246 0.0722858 0)
(10.0282 0.072713 0)
(10.0298 0.0733088 0)
(10.0297 0.0742535 0)
(10.028 0.0757046 0)
(10.0248 0.0779053 0)
(10.0197 0.0812863 0)
(10.0129 0.086661 0)
(9.97418 -0.100205 0)
(9.87757 -0.112391 0)
(9.85857 -0.085369 0)
(9.86388 -0.0323372 0)
(9.89487 0.00892246 0)
(9.92743 0.035215 0)
(9.9544 0.0507049 0)
(9.97503 0.059481 0)
(9.99015 0.0644235 0)
(10.001 0.067333 0)
(10.0085 0.0692646 0)
(10.0135 0.0708356 0)
(10.0166 0.0724234 0)
(10.018 0.0743031 0)
(10.018 0.0767203 0)
(10.0165 0.0799774 0)
(10.0136 0.0845006 0)
(10.0095 0.0909081 0)
(9.98253 -0.0727096 0)
(9.91035 -0.0921978 0)
(9.88507 -0.0782472 0)
(9.88002 -0.0386123 0)
(9.89746 -0.00338089 0)
(9.92043 0.0221593 0)
(9.94196 0.0391714 0)
(9.96 0.0500642 0)
(9.97426 0.0570345 0)
(9.98519 0.0616774 0)
(9.9934 0.0650448 0)
(9.99943 0.0678201 0)
(10.0037 0.0704628 0)
(10.0064 0.073319 0)
(10.0078 0.0766906 0)
(10.0081 0.080898 0)
(10.0073 0.0863155 0)
(10.0058 0.0933803 0)
(9.98894 -0.0502571 0)
(9.93733 -0.0723798 0)
(9.91073 -0.0674513 0)
(9.89917 -0.0399878 0)
(9.90566 -0.0116571 0)
(9.91955 0.011442 0)
(9.93497 0.0285171 0)
(9.94934 0.0405627 0)
(9.9617 0.049002 0)
(9.97189 0.0550832 0)
(9.9801 0.0597443 0)
(9.98659 0.0636593 0)
(9.99164 0.0673183 0)
(9.99545 0.0711006 0)
(9.9982 0.0753277 0)
(10.0001 0.0803025 0)
(10.0013 0.0863261 0)
(10.0021 0.0936826 0)
(9.99348 -0.0329092 0)
(9.9582 -0.0538128 0)
(9.93368 -0.0542869 0)
(9.91898 -0.0367926 0)
(9.91755 -0.0154611 0)
(9.92366 0.0039843 0)
(9.93301 0.0197615 0)
(9.94318 0.0318585 0)
(9.9529 0.0409877 0)
(9.96163 0.0479918 0)
(9.96922 0.0536119 0)
(9.9757 0.0584406 0)
(9.98118 0.0629408 0)
(9.98578 0.0674804 0)
(9.98964 0.0723634 0)
(9.99293 0.0778501 0)
(9.99585 0.0841631 0)
(9.99867 0.0914742 0)
(9.99643 -0.0202031 0)
(9.97327 -0.0372117 0)
(9.95261 -0.040049 0)
(9.93731 -0.0298162 0)
(9.9309 -0.0148315 0)
(9.93102 0.000355699 0)
(9.93504 0.01376 0)
(9.94105 0.0248245 0)
(9.94782 0.0337359 0)
(9.95465 0.0409627 0)
(9.96117 0.047015 0)
(9.96724 0.0523532 0)
(9.9728 0.0573624 0)
(9.9779 0.0623578 0)
(9.9826 0.0675938 0)
(9.98703 0.0732729 0)
(9.99133 0.0795463 0)
(9.9957 0.0865076 0)
(9.99816 -0.0112883 0)
(9.9833 -0.0229325 0)
(9.96682 -0.0257663 0)
(9.95243 -0.0200823 0)
(9.94344 -0.0102497 0)
(9.93952 0.000664203 0)
(9.9394 0.0110159 0)
(9.94183 0.0201259 0)
(9.94582 0.0279027 0)
(9.95069 0.0345442 0)
(9.95597 0.0403523 0)
(9.96139 0.0456368 0)
(9.9668 0.0506759 0)
(9.97214 0.0557016 0)
(9.97742 0.0608983 0)
(9.98268 0.0664028 0)
(9.988 0.0723046 0)
(9.9935 0.0786447 0)
(9.99906 -0.00508149 0)
(9.98922 -0.0107825 0)
(9.97612 -0.0119203 0)
(9.96309 -0.00848805 0)
(9.9531 -0.00244222 0)
(9.94685 0.00456843 0)
(9.94399 0.0115441 0)
(9.94384 0.0180036 0)
(9.94569 0.0238178 0)
(9.94896 0.029055 0)
(9.95316 0.0338708 0)
(9.95799 0.0384421 0)
(9.9632 0.0429336 0)
(9.96867 0.0474828 0)
(9.97433 0.0521941 0)
(9.98017 0.0571375 0)
(9.9862 0.0623484 0)
(9.99246 0.0678295 0)
(9.99942 -0.000367845 0)
(9.9918 0.000150338 0)
(9.98042 0.00182939 0)
(9.96821 0.00458904 0)
(9.9579 0.00791345 0)
(9.9506 0.0113926 0)
(9.94642 0.0148049 0)
(9.94498 0.0180736 0)
(9.94576 0.0212153 0)
(9.94824 0.0242962 0)
(9.95197 0.0273977 0)
(9.9566 0.0305968 0)
(9.96185 0.0339561 0)
(9.96755 0.0375196 0)
(9.9736 0.0413115 0)
(9.97991 0.0453364 0)
(9.98645 0.0495806 0)
(9.99322 0.0540139 0)
(9.99935 0.00408423 0)
(9.9911 0.0111721 0)
(9.97897 0.016131 0)
(9.96616 0.0187329 0)
(9.95552 0.0196075 0)
(9.94818 0.0195392 0)
(9.94419 0.0191502 0)
(9.94311 0.0188504 0)
(9.94437 0.0188804 0)
(9.9474 0.0193574 0)
(9.95173 0.020322 0)
(9.95697 0.0217692 0)
(9.96285 0.023668 0)
(9.96917 0.0259742 0)
(9.97581 0.0286359 0)
(9.98267 0.0315973 0)
(9.98971 0.0348 0)
(9.99689 0.0381836 0)
(9.99882 0.00972926 0)
(9.98675 0.0240479 0)
(9.97122 0.0318446 0)
(9.95641 0.0332907 0)
(9.94558 0.0306999 0)
(9.93942 0.0263446 0)
(9.93734 0.0217405 0)
(9.93844 0.0177299 0)
(9.94186 0.0146834 0)
(9.94686 0.0126966 0)
(9.95291 0.0117138 0)
(9.95961 0.0116159 0)
(9.96672 0.0122641 0)
(9.97406 0.0135227 0)
(9.98153 0.015267 0)
(9.98906 0.0173876 0)
(9.99662 0.019788 0)
(10.0042 0.022384 0)
(9.99757 0.0182095 0)
(9.97773 0.0404544 0)
(9.95664 0.0495757 0)
(9.93945 0.0474762 0)
(9.92961 0.0394204 0)
(9.92658 0.0296429 0)
(9.92848 0.020485 0)
(9.93356 0.0129603 0)
(9.94054 0.00734078 0)
(9.94855 0.0035077 0)
(9.95703 0.0012103 0)
(9.96566 0.000158364 0)
(9.97426 8.87245e-05 0)
(9.98274 0.000767695 0)
(9.99107 0.00201007 0)
(9.99923 0.00366374 0)
(10.0072 0.00560681 0)
(10.0151 0.00774105 0)
(9.99502 0.0318141 0)
(9.96177 0.0621328 0)
(9.93372 0.0695498 0)
(9.91534 0.0601127 0)
(9.90932 0.0439479 0)
(9.91249 0.0276567 0)
(9.92084 0.0139899 0)
(9.93162 0.00363495 0)
(9.94322 -0.00364713 0)
(9.95479 -0.00838015 0)
(9.96593 -0.0111388 0)
(9.9765 -0.0124054 0)
(9.98649 -0.012586 0)
(9.99592 -0.0119816 0)
(10.0049 -0.0108259 0)
(10.0135 -0.00928825 0)
(10.0217 -0.00749832 0)
(10.0296 -0.00555693 0)
(9.99018 0.0534615 0)
(9.93561 0.0901512 0)
(9.90098 0.0906263 0)
(9.88515 0.0687546 0)
(9.8878 0.0418161 0)
(9.90121 0.0186555 0)
(9.91856 0.00141447 0)
(9.93626 -0.0103984 0)
(9.95284 -0.0179424 0)
(9.96785 -0.0223945 0)
(9.98127 -0.024652 0)
(9.9933 -0.0253952 0)
(10.0042 -0.0251062 0)
(10.0141 -0.0241431 0)
(10.0232 -0.0227402 0)
(10.0318 -0.0210533 0)
(10.0399 -0.0191964 0)
(10.0475 -0.0172554 0)
(9.9819 0.0862468 0)
(9.89548 0.124257 0)
(9.85817 0.109882 0)
(9.85209 0.0697718 0)
(9.87033 0.0303355 0)
(9.89842 0.00144639 0)
(9.92658 -0.017206 0)
(9.95134 -0.0283202 0)
(9.9722 -0.0344168 0)
(9.98959 -0.0373248 0)
(10.0042 -0.038201 0)
(10.0167 -0.0377988 0)
(10.0276 -0.0366198 0)
(10.0372 -0.0350074 0)
(10.0458 -0.0331597 0)
(10.0538 -0.031176 0)
(10.0613 -0.0291256 0)
(10.0684 -0.0270872 0)
(9.96925 0.133989 0)
(9.83823 0.163088 0)
(9.80793 0.122589 0)
(9.82311 0.0587981 0)
(9.86512 0.00730603 0)
(9.91138 -0.0240284 0)
(9.95035 -0.0405909 0)
(9.98049 -0.0483684 0)
(10.0034 -0.0512276 0)
(10.0212 -0.0515254 0)
(10.0353 -0.0504009 0)
(10.0468 -0.0485017 0)
(10.0565 -0.0462459 0)
(10.0648 -0.043889 0)
(10.0721 -0.0415659 0)
(10.0789 -0.0392557 0)
(10.0852 -0.0369757 0)
(10.0911 -0.0348072 0)
(9.94951 0.20714 0)
(9.76128 0.207021 0)
(9.75726 0.123477 0)
(9.81042 0.0320095 0)
(9.88382 -0.0278628 0)
(9.94874 -0.0559963 0)
(9.99526 -0.0660725 0)
(10.0266 -0.0677971 0)
(10.048 -0.0659604 0)
(10.063 -0.063172 0)
(10.0742 -0.0598596 0)
(10.083 -0.0564751 0)
(10.0899 -0.0531244 0)
(10.0957 -0.0501564 0)
(10.1008 -0.0474867 0)
(10.1056 -0.0449642 0)
(10.1101 -0.042513 0)
(10.1142 -0.0402458 0)
(9.91094 0.322718 0)
(9.65923 0.254544 0)
(9.71887 0.107406 0)
(9.83329 -0.0119244 0)
(9.94173 -0.0726541 0)
(10.0199 -0.0901639 0)
(10.0662 -0.089322 0)
(10.0918 -0.0831342 0)
(10.1058 -0.0760224 0)
(10.1141 -0.0695951 0)
(10.1197 -0.0644481 0)
(10.1236 -0.0600858 0)
(10.1261 -0.0563467 0)
(10.1278 -0.0531294 0)
(10.1295 -0.0505523 0)
(10.1313 -0.0482103 0)
(10.133 -0.0458114 0)
(10.1346 -0.0434835 0)
(9.84404 0.43511 0)
(9.53798 0.261026 0)
(9.7269 0.0591343 0)
(9.92367 -0.0731165 0)
(10.0584 -0.121554 0)
(10.1344 -0.120193 0)
(10.1665 -0.105281 0)
(10.1758 -0.0906139 0)
(10.1759 -0.078467 0)
(10.1726 -0.0703491 0)
(10.1686 -0.0643988 0)
(10.1647 -0.0597974 0)
(10.1605 -0.0555199 0)
(10.1564 -0.0521423 0)
(10.1528 -0.0501522 0)
(10.1504 -0.0485026 0)
(10.1483 -0.0464208 0)
(10.1462 -0.0438415 0)
(9.83598 0.319666 0)
(9.55021 0.0912513 0)
(9.91739 -0.0687257 0)
(10.1507 -0.160113 0)
(10.2634 -0.172137 0)
(10.3032 -0.142728 0)
(10.2978 -0.112096 0)
(10.276 -0.0899531 0)
(10.2517 -0.0753719 0)
(10.2302 -0.0674471 0)
(10.2132 -0.0619026 0)
(10.1985 -0.0575023 0)
(10.1843 -0.0523249 0)
(10.1703 -0.0481725 0)
(10.159 -0.0466266 0)
(10.1498 -0.0442915 0)
(10.1416 -0.0406467 0)
(10.1331 -0.0376568 0)
(10.2049 -0.0633775 0)
(10.4095 -0.191706 0)
(10.7164 -0.282557 0)
(10.6879 -0.282287 0)
(10.6191 -0.230103 0)
(10.5417 -0.163668 0)
(10.4546 -0.117043 0)
(10.3763 -0.0924959 0)
(10.3136 -0.0798652 0)
(10.2654 -0.0678517 0)
(10.2261 -0.0589642 0)
(10.1924 -0.0539083 0)
(10.1596 -0.0537072 0)
(10.1304 -0.0529622 0)
(10.1082 -0.0480413 0)
(10.0861 -0.0440958 0)
(10.0634 -0.04402 0)
(10.0435 -0.046404 0)
(9.41631 4.45107 0)
(12.7294 2.07612 0)
(12.5649 0.621213 0)
(11.569 0.127657 0)
(10.9309 0.00343477 0)
(10.5866 -0.00206718 0)
(10.3638 0.0123121 0)
(10.2022 0.0302305 0)
(10.0796 0.041246 0)
(9.97716 0.035698 0)
(9.88541 0.0255411 0)
(9.79807 0.020738 0)
(9.72374 0.0274951 0)
(9.66246 0.026364 0)
(9.60149 0.00307052 0)
(9.54348 -0.00593464 0)
(9.49312 -0.0120835 0)
(9.44939 -0.00523336 0)
(-0.0276552 0.0935775 0)
(0.136918 -0.183495 0)
(0.324885 -0.305977 0)
(0.525427 -0.315252 0)
(0.703014 -0.272227 0)
(0.833691 -0.211239 0)
(0.910135 -0.14649 -8.59932e-20)
(0.940818 -0.0826276 8.66079e-20)
(0.920055 -0.0202854 0)
(0.859438 0.0344677 9.18181e-20)
(0.77229 0.0739611 0)
(0.672968 0.09209 0)
(0.578914 0.0878697 0)
(0.505967 0.0668177 -1.43159e-19)
(0.455977 0.0378003 0)
(0.412769 0.0099118 0)
(0.353521 -0.0092979 1.87795e-19)
(0.263684 -0.00942084 0)
(0.136414 0.028116 0)
(-0.0425476 0.112178 0)
(-0.298797 0.18621 -1.65614e-19)
(-0.592416 0.23518 0)
(-0.913736 0.266855 -7.63636e-20)
(-1.25015 0.295929 0)
(-1.58963 0.323613 0)
(-1.92943 0.336502 -4.13447e-20)
(-2.26198 0.335681 0)
(-2.57922 0.326591 3.45494e-20)
(-2.87813 0.310471 0)
(-3.15527 0.289678 -3.1345e-20)
(-3.40975 0.26654 0)
(-3.64117 0.242654 0)
(-3.85025 0.219054 0)
(-4.03809 0.196449 0)
(-4.20612 0.175216 0)
(-4.35591 0.155563 2.82296e-20)
(-4.48904 0.137525 0)
(-4.60701 0.121031 -5.55704e-20)
(-4.71118 0.105954 0)
(-4.80279 0.0921347 5.47716e-20)
(-4.88288 0.0794111 0)
(-4.95237 0.067631 0)
(-5.01199 0.0566662 -5.35495e-20)
(-5.06237 0.04642 0)
(-5.10403 0.0368329 -5.26577e-20)
(-5.13736 0.0278877 5.21799e-20)
(-5.16278 0.0196286 0)
(-5.18065 0.0122031 5.1153e-20)
(-5.19127 0.005859 5.06006e-20)
(-5.1948 0.000807025 0)
(-5.19249 -0.00314806 0)
(-5.18557 -0.00644702 0)
(-5.17419 -0.00936995 0)
(-5.15867 -0.0120811 0)
(-5.13917 -0.01465 -4.61812e-20)
(-5.11583 -0.0170903 0)
(-5.08876 -0.0194134 4.4316e-20)
(-5.05807 -0.0216282 0)
(-5.02386 -0.0237371 0)
(-4.98622 -0.0257418 -4.11379e-20)
(-4.94527 -0.0276428 0)
(-4.90111 -0.0294401 3.87622e-20)
(-4.85385 -0.0311334 0)
(-4.80361 -0.0327227 0)
(-4.7505 -0.0342081 0)
(-4.69464 -0.0355893 -3.33827e-20)
(-4.63615 -0.0368668 0)
(-4.57516 -0.0380415 0)
(-4.5118 -0.0391139 -2.87854e-20)
(-4.4462 -0.0400849 0)
(-4.37848 -0.0409559 -2.54441e-20)
(-4.30878 -0.0417281 0)
(-4.23723 -0.0424032 0)
(-4.16396 -0.0429831 0)
(-4.08911 -0.0434697 1.80667e-20)
(-4.0128 -0.0438654 0)
(-3.93515 -0.0441723 0)
(-3.85631 -0.0443929 1.18848e-20)
(-3.77639 -0.0445299 9.69101e-21)
(-3.69551 -0.0445858 0)
(-3.6138 -0.0445636 5.08928e-21)
(-3.53137 -0.0444665 0)
(-3.44833 -0.0442983 3.62703e-22)
(-3.36479 -0.0440639 0)
(-3.28084 -0.0437698 -1.0127e-20)
(-3.19659 -0.0434253 0)
(-3.11213 -0.0430433 2.13695e-20)
(-3.02754 -0.0426429 0)
(-2.94288 -0.0422529 0)
(-2.85821 -0.0419156 0)
(-2.77357 -0.0416931 -4.65617e-20)
(-2.68899 -0.041668 0)
(-2.60448 -0.04193 6.08369e-20)
(-2.51999 -0.0425354 0)
(-2.4355 -0.0434253 -7.65067e-20)
(-2.35125 -0.0443279 -8.48853e-20)
(-2.26749 -0.0447825 -9.35936e-20)
(-2.18447 -0.0445743 0)
(-2.10235 -0.0439693 0)
(-2.02118 -0.043271 0)
(-1.94094 -0.042566 0)
(-1.86165 -0.0418658 0)
(-1.78334 -0.0411714 0)
(-1.70603 -0.0404845 0)
(-1.62974 -0.0398088 0)
(-1.5545 -0.0391501 1.92705e-19)
(-1.48032 -0.0385156 2.07026e-19)
(-1.40722 -0.0379106 0)
(-1.33522 -0.0373241 0)
(-1.26433 -0.0366989 0)
(-1.1946 -0.0360412 2.74295e-19)
(-1.12602 -0.0354072 0)
(-1.05861 -0.0347916 0)
(-0.992364 -0.034196 0)
(-0.927281 -0.033622 0)
(-0.863364 -0.0330715 -3.90935e-19)
(-0.800611 -0.0325472 0)
(-0.739019 -0.0320521 0)
(-0.678579 -0.0315899 4.89114e-19)
(-0.619286 -0.0311619 -5.28813e-19)
(-0.561133 -0.0307717 0)
(-0.504113 -0.0304298 -6.22422e-19)
(-0.448211 -0.0301599 0)
(-0.39341 -0.0300067 7.41398e-19)
(-0.339688 -0.029981 0)
(-0.28703 -0.0300444 0)
(-0.235423 -0.0301839 0)
(-0.184837 -0.0304104 0)
(-0.135246 -0.0307395 0)
(-0.0866955 -0.03119 -2.84644e-18)
(-0.0393956 -0.0316437 -3.27707e-18)
(0.00670559 -0.0313447 0)
(0.0521176 -0.0298477 0)
(0.0968516 -0.0279974 0)
(0.140767 -0.0262794 2.685e-18)
(0.18377 -0.0247466 0)
(0.225841 -0.0233731 0)
(0.267003 -0.0221356 0)
(0.307288 -0.0210141 2.0401e-18)
(0.346726 -0.0199915 -1.93381e-18)
(0.385346 -0.0190534 0)
(0.423173 -0.0181885 0)
(0.460234 -0.0173876 -1.68702e-18)
(0.496552 -0.016643 -1.62235e-18)
(0.53215 -0.0159487 0)
(0.567052 -0.0152996 0)
(0.601281 -0.0146912 1.46405e-18)
(0.634858 -0.0141201 -1.42056e-18)
(0.667807 -0.0135832 0)
(0.700149 -0.0130777 0)
(0.731907 -0.0126013 -1.31026e-18)
(0.763105 -0.0121522 0)
(0.793765 -0.0117284 0)
(0.823909 -0.0113284 -1.22273e-18)
(0.853562 -0.0109509 0)
(0.882747 -0.0105946 -1.17363e-18)
(0.911486 -0.0102582 0)
(0.939803 -0.00994085 0)
(0.967722 -0.00964133 0)
(0.995264 -0.00935863 1.09161e-18)
(1.02245 -0.00909162 0)
(1.0493 -0.00883903 0)
(1.07584 -0.00859942 0)
(1.10207 -0.00837099 0)
(1.12801 -0.00815148 0)
(1.15366 -0.00793798 0)
(1.17901 -0.00772663 9.82778e-19)
(1.20405 -0.00751227 9.69854e-19)
(1.22872 -0.00728792 0)
(1.25297 -0.00704403 0)
(1.27668 -0.0067671 0)
(1.2997 -0.00643854 -9.24499e-19)
(1.32178 -0.00602861 0)
(1.34252 -0.00549857 1.81388e-18)
(1.36146 -0.00476144 -1.80051e-18)
(1.3772 -0.00372572 -1.79177e-18)
(1.38979 -0.00195438 1.79007e-18)
(1.39021 0.0013272 -1.79545e-18)
(1.38752 0.00807468 1.80877e-18)
(1.30826 0.0198886 0)
(0.0962944 -0.268586 0)
(0.334142 -0.68117 0)
(0.514369 -0.706737 1.5734e-19)
(0.61212 -0.571691 0)
(0.663213 -0.40927 -1.11111e-19)
(0.683743 -0.25419 -1.08068e-19)
(0.677801 -0.112517 -5.6232e-20)
(0.647515 0.015278 -5.61759e-20)
(0.604599 0.125159 0)
(0.545482 0.211775 -6.07728e-20)
(0.468758 0.267389 0)
(0.374385 0.283364 0)
(0.258755 0.256708 1.70385e-19)
(0.11167 0.211515 9.82412e-20)
(-0.0731169 0.20585 -1.84767e-19)
(-0.29916 0.271045 -1.44234e-19)
(-0.577014 0.382551 -5.73483e-20)
(-0.902988 0.512473 0)
(-1.25669 0.642001 0)
(-1.6149 0.756059 0)
(-1.97062 0.841862 -2.86012e-20)
(-2.31615 0.895606 0)
(-2.64616 0.919199 6.90876e-20)
(-2.95304 0.915708 0)
(-3.2327 0.889334 0)
(-3.48351 0.845213 1.982e-20)
(-3.70405 0.788664 0)
(-3.89514 0.725226 -1.9761e-20)
(-4.05866 0.659136 -4.17963e-20)
(-4.19815 0.593112 2.0167e-20)
(-4.31653 0.529256 0)
(-4.4167 0.469354 0)
(-4.50137 0.414241 0)
(-4.57294 0.36427 -4.4257e-20)
(-4.63349 0.319402 -4.47635e-20)
(-4.6847 0.279366 -2.21888e-20)
(-4.72795 0.243752 0)
(-4.76436 0.212077 4.5306e-20)
(-4.79481 0.183843 0)
(-4.82002 0.158569 -4.58783e-20)
(-4.84059 0.135814 0)
(-4.85701 0.115184 0)
(-4.86969 0.0963366 4.60893e-20)
(-4.87901 0.0789817 0)
(-4.88532 0.0628784 1.3817e-19)
(-4.88892 0.0478322 -4.56102e-20)
(-4.89009 0.0337075 0)
(-4.88908 0.0204735 -4.49412e-20)
(-4.88615 0.00824626 -4.44846e-20)
(-4.88156 -0.00281211 0)
(-4.87441 -0.0127571 0)
(-4.86359 -0.0218845 0)
(-4.84909 -0.0304378 0)
(-4.8308 -0.0385318 0)
(-4.80876 -0.046236 4.02187e-20)
(-4.78302 -0.0535874 7.91678e-20)
(-4.75367 -0.0606073 -3.84414e-20)
(-4.72078 -0.0673069 0)
(-4.68444 -0.073692 7.34894e-20)
(-4.64476 -0.0797652 -3.59684e-20)
(-4.60182 -0.0855273 0)
(-4.55573 -0.090978 -3.32683e-20)
(-4.50659 -0.0961173 0)
(-4.45452 -0.100947 0)
(-4.39962 -0.105467 -5.98949e-20)
(-4.34201 -0.10968 2.83868e-20)
(-4.28181 -0.113584 -5.47032e-20)
(-4.21915 -0.117184 5.19844e-20)
(-4.15414 -0.120482 2.42951e-20)
(-4.08691 -0.123483 0)
(-4.01759 -0.126192 2.13621e-20)
(-3.94631 -0.128615 0)
(-3.8732 -0.130759 0)
(-3.79838 -0.13263 0)
(-3.72198 -0.134238 1.56356e-20)
(-3.64413 -0.135591 0)
(-3.56495 -0.136697 2.37684e-20)
(-3.48457 -0.137567 -2.99768e-20)
(-3.4031 -0.138211 -7.94256e-21)
(-3.32068 -0.13864 0)
(-3.23741 -0.138866 -4.14189e-21)
(-3.1534 -0.138898 0)
(-3.06876 -0.13875 -2.92942e-22)
(-2.98361 -0.138434 0)
(-2.89804 -0.137961 8.11297e-21)
(-2.81215 -0.137343 -2.3568e-20)
(-2.72603 -0.136593 -1.69662e-20)
(-2.63977 -0.13572 0)
(-2.55347 -0.134733 0)
(-2.46722 -0.133637 0)
(-2.38111 -0.132431 3.61845e-20)
(-2.29526 -0.131107 0)
(-2.2098 -0.129637 -4.66561e-20)
(-2.12488 -0.127965 0)
(-2.04064 -0.126039 1.71881e-19)
(-1.95715 -0.123884 6.36324e-20)
(-1.87443 -0.121601 6.96638e-20)
(-1.79242 -0.119296 0)
(-1.71109 -0.117028 0)
(-1.6305 -0.114794 0)
(-1.55071 -0.112572 0)
(-1.47178 -0.110348 0)
(-1.39375 -0.108117 2.19493e-19)
(-1.31665 -0.10588 2.34985e-19)
(-1.24051 -0.103641 0)
(-1.16536 -0.101402 -1.34761e-19)
(-1.09122 -0.0991661 -1.43541e-19)
(-1.01812 -0.0969352 0)
(-0.946079 -0.0947111 -3.23037e-19)
(-0.875118 -0.0924983 0)
(-0.805229 -0.0903103 1.81324e-19)
(-0.736421 -0.0881528 0)
(-0.668706 -0.0860263 0)
(-0.602086 -0.0839329 -4.34451e-19)
(-0.536566 -0.0818742 0)
(-0.472145 -0.0798516 2.44832e-19)
(-0.408824 -0.0778684 0)
(-0.346601 -0.07593 0)
(-0.285471 -0.0740454 2.89768e-19)
(-0.225425 -0.0722125 3.09072e-19)
(-0.166455 -0.0704261 0)
(-0.108557 -0.068689 -3.46365e-19)
(-0.0517344 -0.0670014 0)
(0.00401453 -0.0653548 3.82633e-19)
(0.0587316 -0.0637422 7.66182e-19)
(0.11245 -0.0621751 0)
(0.165171 -0.060668 0)
(0.216895 -0.0592256 0)
(0.267636 -0.0578454 0)
(0.317427 -0.0565299 7.09236e-19)
(0.366338 -0.0552678 2.09644e-18)
(0.414457 -0.0538891 0)
(0.461694 -0.0522436 0)
(0.507911 -0.0504696 0)
(0.553176 -0.0487228 -6.65628e-19)
(0.597572 -0.0470552 0)
(0.641125 -0.0454751 0)
(0.683854 -0.04398 1.28793e-18)
(0.72578 -0.0425636 6.36948e-19)
(0.766924 -0.0412182 6.32423e-19)
(0.807307 -0.0399374 0)
(0.846952 -0.0387156 0)
(0.885879 -0.0375483 6.15879e-19)
(0.92411 -0.036432 -6.09642e-19)
(0.961667 -0.0353636 0)
(0.99857 -0.0343407 0)
(1.03484 -0.033361 -5.96782e-19)
(1.0705 -0.0324229 1.77636e-18)
(1.10557 -0.0315246 0)
(1.14008 -0.0306647 0)
(1.17404 -0.029842 5.80311e-19)
(1.20747 -0.0290553 0)
(1.2404 -0.0283036 1.14491e-18)
(1.27285 -0.0275857 -5.68522e-19)
(1.30485 -0.0269007 0)
(1.3364 -0.0262476 5.62407e-19)
(1.36755 -0.0256254 1.11753e-18)
(1.3983 -0.0250331 0)
(1.42868 -0.0244692 0)
(1.45871 -0.0239325 -5.49569e-19)
(1.4884 -0.0234211 0)
(1.51779 -0.0229328 1.08643e-18)
(1.54688 -0.0224645 0)
(1.57568 -0.0220127 0)
(1.6042 -0.0215722 0)
(1.63246 -0.0211365 0)
(1.66042 -0.0206965 -5.2899e-19)
(1.68809 -0.0202402 -5.26221e-19)
(1.71542 -0.0197513 0)
(1.74236 -0.019207 0)
(1.7688 -0.0185757 0)
(1.79462 -0.0178119 5.16127e-19)
(1.8196 -0.0168484 0)
(1.84342 -0.0155823 -1.02484e-18)
(1.86566 -0.0138365 1.02258e-18)
(1.88539 -0.0113264 1.02219e-18)
(1.9022 -0.00731148 1.02328e-18)
(1.91241 -0.000520998 1.02845e-18)
(1.92471 0.0124225 1.02034e-18)
(1.90515 0.0361843 0)
(0.116525 -0.859605 0)
(0.269254 -1.05723 0)
(0.316469 -0.826569 -1.26292e-19)
(0.315849 -0.584795 -1.08134e-19)
(0.298482 -0.374307 1.00447e-19)
(0.267341 -0.189156 1.0062e-19)
(0.221233 -0.0236678 -6.46877e-22)
(0.159416 0.12411 0)
(0.081767 0.254699 0)
(-0.0129425 0.365682 0)
(-0.12825 0.451466 0)
(-0.272207 0.51254 0)
(-0.457733 0.566249 -2.67649e-19)
(-0.695387 0.640779 0)
(-0.981524 0.753181 6.63556e-20)
(-1.30029 0.895153 5.72353e-20)
(-1.63369 1.04339 0)
(-1.9648 1.17758 0)
(-2.27833 1.28515 0)
(-2.5624 1.35903 0)
(-2.81164 1.39496 3.49132e-20)
(-3.02571 1.39269 0)
(-3.206 1.35686 -3.23499e-20)
(-3.35531 1.29469 0)
(-3.47812 1.21354 0)
(-3.57902 1.11978 0)
(-3.66283 1.01952 -6.85852e-20)
(-3.73391 0.918096 0)
(-3.7958 0.819642 3.31142e-20)
(-3.85128 0.726966 -7.06968e-20)
(-3.90227 0.641583 0)
(-3.95006 0.564236 0)
(-3.99543 0.494975 0)
(-4.03872 0.433418 3.65618e-20)
(-4.08006 0.378916 3.71495e-20)
(-4.1194 0.330696 0)
(-4.15661 0.287963 0)
(-4.1915 0.249954 -7.77985e-20)
(-4.2239 0.215974 -7.81919e-20)
(-4.25364 0.185413 7.84252e-20)
(-4.28059 0.157752 0)
(-4.30463 0.132561 0)
(-4.32567 0.109491 0)
(-4.34362 0.0882581 0)
(-4.35845 0.0686281 -7.70098e-20)
(-4.37008 0.050401 -7.69119e-20)
(-4.37844 0.0333924 7.62691e-20)
(-4.38342 0.0174013 0)
(-4.38481 0.00217145 0)
(-4.38248 -0.0125838 0)
(-4.37637 -0.0269979 0)
(-4.36652 -0.0409845 -7.11058e-20)
(-4.35301 -0.0544514 0)
(-4.33585 -0.0673876 0)
(-4.3151 -0.0797971 -6.69941e-20)
(-4.2908 -0.091689 -6.49684e-20)
(-4.26303 -0.10307 0)
(-4.23184 -0.113946 1.24568e-19)
(-4.19733 -0.124317 -6.00304e-20)
(-4.15957 -0.134184 5.82538e-20)
(-4.11865 -0.143545 0)
(-4.07467 -0.152397 0)
(-4.02773 -0.16074 0)
(-3.97793 -0.168572 0)
(-3.92538 -0.175897 4.84222e-20)
(-3.87019 -0.182715 9.37753e-20)
(-3.81248 -0.189026 4.40569e-20)
(-3.75236 -0.194833 -4.17848e-20)
(-3.68995 -0.200143 0)
(-3.62537 -0.204962 7.54241e-20)
(-3.55875 -0.209298 7.05411e-20)
(-3.49022 -0.21316 6.55416e-20)
(-3.41989 -0.216558 -6.04265e-20)
(-3.34789 -0.219504 0)
(-3.27435 -0.22201 -7.40984e-20)
(-3.19939 -0.22409 0)
(-3.12313 -0.225759 2.00951e-20)
(-3.0457 -0.227032 1.58722e-20)
(-2.96721 -0.227924 0)
(-2.88778 -0.228453 0)
(-2.80753 -0.228636 1.53616e-20)
(-2.72657 -0.228491 0)
(-2.64501 -0.228035 2.92733e-21)
(-2.56296 -0.227288 0)
(-2.48051 -0.226269 9.99537e-21)
(-2.39778 -0.224996 3.47182e-20)
(-2.31486 -0.22349 0)
(-2.23186 -0.22177 0)
(-2.14885 -0.219854 0)
(-2.06594 -0.21776 4.45793e-20)
(-1.98323 -0.215502 0)
(-1.90082 -0.213093 5.94004e-20)
(-1.81879 -0.210533 0)
(-1.73725 -0.207808 0)
(-1.65625 -0.204892 -1.67045e-19)
(-1.57584 -0.201769 0)
(-1.49603 -0.198453 -9.93085e-20)
(-1.41684 -0.194987 0)
(-1.33828 -0.191429 -1.16587e-19)
(-1.26042 -0.187818 0)
(-1.18331 -0.18417 0)
(-1.10701 -0.180494 0)
(-1.03156 -0.176796 -4.62673e-19)
(-0.956997 -0.173082 -1.65037e-19)
(-0.883345 -0.16936 0)
(-0.810633 -0.165635 0)
(-0.738887 -0.161915 0)
(-0.66813 -0.158204 0)
(-0.598378 -0.154506 2.1883e-19)
(-0.529643 -0.150827 -4.58449e-19)
(-0.461931 -0.147177 -2.42663e-19)
(-0.395254 -0.143563 5.07639e-19)
(-0.329622 -0.139992 5.33436e-19)
(-0.26504 -0.13647 2.81367e-19)
(-0.201512 -0.132998 0)
(-0.139037 -0.129577 6.16199e-19)
(-0.0776174 -0.12621 0)
(-0.0172546 -0.122901 -6.73529e-19)
(0.0420576 -0.119649 -3.45148e-19)
(0.100333 -0.116458 0)
(0.157577 -0.11333 6.93103e-19)
(0.213797 -0.110266 3.4882e-19)
(0.269001 -0.107269 0)
(0.323201 -0.104328 3.48715e-19)
(0.376405 -0.101432 -1.05279e-18)
(0.428622 -0.0985897 0)
(0.479865 -0.0958127 0)
(0.530152 -0.0931032 0)
(0.579499 -0.0904619 0)
(0.62793 -0.0878934 -7.07734e-19)
(0.675478 -0.0854048 -7.10226e-19)
(0.722167 -0.0830109 0)
(0.767963 -0.0806992 0)
(0.812851 -0.0784305 0)
(0.856883 -0.0762036 0)
(0.900102 -0.0740346 0)
(0.942526 -0.0719322 0)
(0.984166 -0.0698989 -7.14001e-19)
(1.02504 -0.0679346 -1.08873e-21)
(1.06517 -0.0660376 0)
(1.10456 -0.064206 0)
(1.14325 -0.0624376 -7.13833e-19)
(1.18124 -0.0607308 0)
(1.21857 -0.0590838 7.1488e-19)
(1.25525 -0.0574952 7.14018e-19)
(1.2913 -0.0559636 0)
(1.32674 -0.054488 0)
(1.3616 -0.0530671 -7.1455e-19)
(1.39589 -0.0516999 -1.4273e-18)
(1.42964 -0.0503854 0)
(1.46286 -0.0491226 0)
(1.49557 -0.0479106 0)
(1.52781 -0.0467485 -7.13239e-19)
(1.55958 -0.0456353 7.12857e-19)
(1.59092 -0.04457 0)
(1.62184 -0.0435516 1.42283e-18)
(1.65236 -0.0425789 7.10397e-19)
(1.68251 -0.0416506 -1.42077e-18)
(1.7123 -0.0407649 0)
(1.74176 -0.0399199 0)
(1.7709 -0.0391129 -1.41696e-18)
(1.79975 -0.0383408 -7.08193e-19)
(1.82831 -0.0375991 0)
(1.85661 -0.0368821 0)
(1.88465 -0.0361823 0)
(1.91244 -0.0354895 0)
(1.93997 -0.0347903 -1.40683e-18)
(1.96723 -0.0340662 0)
(1.99419 -0.0332923 0)
(2.0208 -0.0324345 0)
(2.04698 -0.0314448 0)
(2.07262 -0.0302549 0)
(2.09756 -0.0287639 0)
(2.12152 -0.0268205 -1.39748e-18)
(2.14417 -0.024173 0)
(2.16484 -0.0204163 0)
(2.1833 -0.0147579 -2.81619e-18)
(2.19674 -0.00588057 1.41812e-18)
(2.21143 0.00887324 -1.41624e-18)
(2.20634 0.0362517 1.41169e-18)
(0.0334419 -1.1664 0)
(0.0699295 -1.03045 3.59808e-19)
(0.0342489 -0.747468 0)
(-0.010145 -0.506984 1.10865e-19)
(-0.0654046 -0.28427 0)
(-0.133186 -0.0746835 0)
(-0.21634 0.122175 -8.2842e-20)
(-0.317242 0.305571 0)
(-0.438016 0.475058 0)
(-0.581265 0.631186 0)
(-0.750842 0.77648 0)
(-0.951967 0.917033 0)
(-1.1873 1.06097 2.04336e-19)
(-1.45131 1.21175 9.2493e-20)
(-1.72952 1.36315 -8.37314e-20)
(-2.00356 1.50182 0)
(-2.25765 1.61389 0)
(-2.48171 1.68999 0)
(-2.67094 1.7264 0)
(-2.82394 1.72437 0)
(-2.94323 1.68776 6.01698e-20)
(-3.03435 1.62182 5.88506e-20)
(-3.10342 1.53335 -5.7995e-20)
(-3.15675 1.43001 5.76909e-20)
(-3.19976 1.31851 0)
(-3.23679 1.20428 0)
(-3.27131 1.09168 5.58393e-20)
(-3.30568 0.983999 0)
(-3.34118 0.883365 0)
(-3.37832 0.790824 5.86934e-20)
(-3.41712 0.706622 6.15129e-20)
(-3.45722 0.630531 6.22247e-20)
(-3.4981 0.562024 0)
(-3.53914 0.500403 0)
(-3.57972 0.444909 -6.40356e-20)
(-3.61928 0.394785 0)
(-3.65733 0.349318 0)
(-3.69346 0.307865 6.43089e-20)
(-3.72731 0.269861 -6.603e-20)
(-3.75862 0.234818 6.60407e-20)
(-3.78715 0.202319 0)
(-3.81272 0.172014 0)
(-3.83517 0.143607 1.30015e-19)
(-3.85439 0.116846 0)
(-3.87026 0.0915199 1.28627e-19)
(-3.88268 0.0674517 1.91037e-19)
(-3.89159 0.0444975 -1.89396e-19)
(-3.89691 0.0225368 1.25329e-19)
(-3.89859 0.00145256 0)
(-3.89665 -0.0188713 0)
(-3.89112 -0.0385131 1.19874e-19)
(-3.88204 -0.0574918 5.84059e-20)
(-3.86946 -0.0758034 0)
(-3.8534 -0.0934468 0)
(-3.83391 -0.110421 5.48997e-20)
(-3.81104 -0.126727 1.0825e-19)
(-3.78484 -0.142361 0)
(-3.75537 -0.157322 -1.01797e-19)
(-3.7227 -0.171606 9.99676e-20)
(-3.68691 -0.185207 -9.69957e-20)
(-3.64808 -0.198122 0)
(-3.6063 -0.210345 0)
(-3.56166 -0.221869 0)
(-3.51426 -0.232694 0)
(-3.46421 -0.242824 0)
(-3.4116 -0.252258 -7.59228e-20)
(-3.35655 -0.260996 0)
(-3.29917 -0.269042 0)
(-3.23958 -0.276403 0)
(-3.17788 -0.283089 -1.22622e-19)
(-3.11421 -0.28911 -5.67035e-20)
(-3.04868 -0.294478 -5.26023e-20)
(-2.98141 -0.299207 9.80396e-20)
(-2.91252 -0.303313 -4.53623e-20)
(-2.84213 -0.306812 3.98105e-20)
(-2.77036 -0.309723 0)
(-2.69733 -0.312066 -3.08879e-20)
(-2.62317 -0.313861 0)
(-2.54797 -0.31513 0)
(-2.47187 -0.315897 0)
(-2.39497 -0.316183 -2.549e-20)
(-2.31738 -0.316013 8.48516e-21)
(-2.2392 -0.315411 4.7677e-21)
(-2.16055 -0.314402 -2.98154e-21)
(-2.08153 -0.313009 -2.1006e-20)