/*--------------------------------*- C++ -*----------------------------------*\
  =========                 |
  \\      /  F ield         | OpenFOAM: The Open Source CFD Toolbox
   \\    /   O peration     | Website:  https://openfoam.org
    \\  /    A nd           | Version:  8
     \\/     M anipulation  |
\*---------------------------------------------------------------------------*/
FoamFile
{
    version     2.0;
    format      ascii;
    class       volScalarField;
    location    "1600";
    object      p;
}
// * * * * * * * * * * * * * * * * * * * * * * * * * * * * * * * * * * * * * //

dimensions      [0 2 -2 0 0 0 0];

internalField   nonuniform List<scalar> 
12225
(
514.676
55.528
2.36367
0.28156
-1.89891
-3.37446
-3.81169
-4.0221
-4.23185
-4.36875
-4.4159
-4.42551
-4.42851
-4.45647
-4.50985
-4.5763
-4.72166
-4.94419
-122.179
0.238763
-2.71855
-0.765235
-2.2166
-3.52505
-3.95277
-4.13687
-4.28055
-4.38454
-4.45947
-4.51779
-4.56873
-4.6011
-4.62204
-4.64757
-4.71418
-4.80817
-200.646
-16.1485
-2.34656
-0.358458
-1.90094
-3.24492
-3.77233
-4.02257
-4.19526
-4.31952
-4.4122
-4.47941
-4.52804
-4.55327
-4.56831
-4.58386
-4.61572
-4.59888
-110.616
-10.9742
-2.17727
-0.432166
-1.78787
-3.02894
-3.60143
-3.90861
-4.11789
-4.26368
-4.36606
-4.43674
-4.48545
-4.51403
-4.53136
-4.53918
-4.53813
-4.46943
-61.5729
-8.14599
-3.62273
-1.21017
-2.01539
-2.9985
-3.52939
-3.84916
-4.07167
-4.22635
-4.33399
-4.40863
-4.46
-4.49111
-4.50638
-4.50376
-4.47755
-4.38739
-45.7309
-8.78543
-5.25894
-2.20051
-2.43014
-3.10128
-3.53675
-3.83372
-4.0497
-4.20353
-4.31258
-4.38931
-4.44175
-4.47267
-4.48421
-4.47346
-4.43337
-4.33882
-35.7948
-9.27668
-6.38073
-3.12495
-2.92216
-3.29024
-3.60415
-3.85505
-4.05047
-4.19565
-4.30164
-4.37743
-4.42904
-4.45877
-4.46769
-4.45308
-4.4091
-4.32203
-27.7783
-8.90746
-6.97419
-3.80321
-3.36223
-3.49907
-3.70114
-3.90062
-4.06998
-4.20225
-4.30202
-4.37477
-4.42468
-4.45352
-4.46185
-4.44754
-4.40656
-4.33181
-21.6903
-8.52042
-7.1349
-4.31108
-3.72953
-3.70668
-3.81697
-3.96533
-4.10563
-4.2219
-4.31297
-4.38103
-4.42849
-4.45643
-4.46513
-4.45317
-4.41816
-4.35717
-16.613
-8.1411
-7.08856
-4.75597
-4.08384
-3.93505
-3.95993
-4.05338
-4.15975
-4.25595
-4.33542
-4.39703
-4.44126
-4.46844
-4.47862
-4.47113
-4.4452
-4.40071
-12.6393
-7.6813
-6.90658
-5.10228
-4.40747
-4.17103
-4.12263
-4.16219
-4.23239
-4.30575
-4.37135
-4.42507
-4.46557
-4.49238
-4.50538
-4.50453
-4.49026
-4.46409
-9.69945
-7.14922
-6.62968
-5.32712
-4.67933
-4.39784
-4.29517
-4.28745
-4.32263
-4.37229
-4.42281
-4.46784
-4.5045
-4.53156
-4.54872
-4.55632
-4.55542
-4.54813
-7.6665
-6.60517
-6.30646
-5.4321
-4.88377
-4.59799
-4.46437
-4.42122
-4.42651
-4.45429
-4.49028
-4.52688
-4.56019
-4.58838
-4.61089
-4.6281
-4.64117
-4.65208
-6.37142
-6.11351
-5.98619
-5.44084
-5.01643
-4.75826
-4.61682
-4.55317
-4.53716
-4.54776
-4.57183
-4.60168
-4.63293
-4.66336
-4.69213
-4.71937
-4.74595
-4.77331
-5.62318
-5.72286
-5.70951
-5.39135
-5.08644
-4.87353
-4.74231
-4.67276
-4.64576
-4.64597
-4.66262
-4.68872
-4.71999
-4.75402
-4.78966
-4.8267
-4.86551
-4.90684
-5.24387
-5.46067
-5.5086
-5.32805
-5.11552
-4.94846
-4.83618
-4.77119
-4.74251
-4.73966
-4.75433
-4.78061
-4.81455
-4.85369
-4.89667
-4.94286
-4.99216
-5.04472
-5.10264
-5.34477
-5.41744
-5.29944
-5.13541
-4.99629
-4.89864
-4.84074
-4.81563
-4.81543
-4.83328
-4.86388
-4.90347
-4.94952
-5.00042
-5.05521
-5.11338
-5.17471
-5.14037
-5.40057
-5.47467
-5.34851
-5.17469
-5.02896
-4.92869
-4.87147
-4.84955
-4.85439
-4.87859
-4.91643
-4.9638
-5.01789
-5.0768
-5.13932
-5.2047
-5.27251
-5.39265
-5.65501
-5.6907
-5.47556
-5.22633
-5.03594
-4.91482
-4.85174
-4.83269
-4.84497
-4.87862
-4.92647
-4.98362
-5.04683
-5.114
-5.18379
-5.25541
-5.32842
-6.00204
-6.13684
-6.04259
-5.63507
-5.24706
-4.98728
-4.84074
-4.77579
-4.76628
-4.79265
-4.84122
-4.90308
-4.97264
-5.04647
-5.12253
-5.19962
-5.27708
-5.3547
-7.24966
-6.88948
-6.49414
-5.76181
-5.18303
-4.85289
-4.69626
-4.6461
-4.66003
-4.71056
-4.78081
-4.86087
-4.9452
-5.03077
-5.11603
-5.20024
-5.28313
-5.36482
-9.64116
-7.96454
-6.98256
-5.77183
-4.97949
-4.61207
-4.48184
-4.4736
-4.52845
-4.6138
-4.71159
-4.81277
-4.91292
-5.01024
-5.10417
-5.19476
-5.28225
-5.36722
-13.9823
-9.39102
-7.40313
-5.56949
-4.59469
-4.26413
-4.21497
-4.27959
-4.39174
-4.51923
-4.64737
-4.76995
-4.8851
-4.99269
-5.09372
-5.1892
-5.28001
-5.36717
-20.8899
-10.954
-7.55416
-5.0572
-4.01581
-3.83578
-3.92989
-4.09402
-4.27212
-4.44296
-4.59956
-4.7409
-4.86812
-4.98317
-5.08875
-5.18713
-5.2796
-5.36758
-29.7365
-11.9494
-7.0335
-4.12609
-3.26402
-3.37793
-3.671
-3.94675
-4.18904
-4.39705
-4.57566
-4.73006
-4.86477
-4.98367
-5.091
-5.19024
-5.28256
-5.36992
-43.1065
-12.6139
-5.47278
-2.72894
-2.41324
-2.96341
-3.48423
-3.86232
-4.15354
-4.3858
-4.57754
-4.73773
-4.87451
-4.99259
-5.09897
-5.19745
-5.28841
-5.37446
-84.5994
-17.3734
-3.66409
-1.26543
-1.69601
-2.72182
-3.43616
-3.8699
-4.17338
-4.41044
-4.60635
-4.76772
-4.89974
-5.00962
-5.11149
-5.20664
-5.29236
-5.37692
-177.886
-26.8496
-3.68016
-0.770216
-1.5351
-2.84306
-3.61407
-4.01522
-4.271
-4.46697
-4.65069
-4.81551
-4.95265
-5.0528
-5.14177
-5.22885
-5.3028
-5.37975
-154.79
-9.62728
-3.27239
-1.0683
-1.84311
-3.22088
-3.91368
-4.22499
-4.41743
-4.55887
-4.70184
-4.85368
-5.00561
-5.12061
-5.21555
-5.30425
-5.36914
-5.44079
428.057
66.6055
7.05596
1.59941
-0.915608
-2.85693
-3.65296
-3.99466
-4.31022
-4.57684
-4.70727
-4.75491
-4.80025
-4.9007
-5.01483
-5.11925
-5.24138
-5.34072
-8.5256
-8.51277
-8.50213
-8.5435
-8.63654
-8.74024
-8.82016
-8.86017
-8.86382
-8.84615
-8.81874
-8.79016
-8.7685
-8.75969
-8.7647
-8.77734
-8.78856
-8.79369
-8.79292
-8.79086
-8.79535
-8.82806
-8.91828
-9.08964
-9.34265
-9.66043
-10.0316
-10.4454
-10.8864
-11.3384
-11.7864
-12.2184
-12.6251
-12.9999
-13.3386
-13.6385
-13.8989
-14.1196
-14.3013
-14.4452
-14.5523
-14.6242
-14.6621
-14.6674
-14.6414
-14.5855
-14.5013
-14.3911
-14.2562
-14.0943
-13.9029
-13.6832
-13.4381
-13.169
-12.8774
-12.5644
-12.2309
-11.878
-11.5067
-11.118
-10.7131
-10.293
-9.85896
-9.41203
-8.95342
-8.48432
-8.00593
-7.51945
-7.02607
-6.52698
-6.02334
-5.5163
-5.00696
-4.49641
-3.98569
-3.47579
-2.96769
-2.46229
-1.96045
-1.46297
-0.970627
-0.484108
-0.00406342
0.468916
0.934293
1.39159
1.84037
2.28028
2.71098
3.13223
3.54383
3.94558
4.33732
4.71903
5.09095
5.45308
5.80496
6.14621
6.4768
6.79697
7.10697
7.40699
7.69723
7.97786
8.24907
8.51106
8.76404
9.00823
9.24385
9.4711
9.69021
9.90142
10.105
10.3011
10.4901
10.6722
10.8476
11.0166
11.1793
11.3361
11.4871
11.6325
11.7727
11.9077
12.0379
12.1633
12.2842
12.4008
12.5132
12.6217
12.7263
12.8274
12.9253
13.02
13.1115
13.1998
13.2851
13.3676
13.4473
13.5245
13.5992
13.6715
13.7416
13.8095
13.8752
13.939
14.0008
14.0608
14.119
14.1754
14.2301
14.2832
14.3348
14.3848
14.4332
14.4803
14.5258
14.57
14.6128
14.6542
14.6943
14.733
14.7705
14.8066
14.8415
14.8751
14.9075
14.9387
14.9689
14.9981
15.0264
15.0541
15.0816
15.1093
15.138
15.1687
15.2042
15.2458
15.3037
15.3641
-8.58304
-8.6143
-8.68825
-8.78186
-8.88532
-8.97753
-9.03877
-9.06316
-9.0461
-8.98565
-8.89589
-8.79907
-8.71745
-8.66617
-8.64411
-8.64091
-8.65048
-8.67592
-8.7112
-8.73144
-8.75578
-8.83374
-8.9935
-9.23307
-9.53995
-9.91093
-10.3367
-10.7968
-11.2697
-11.7375
-12.1877
-12.6108
-13.0006
-13.3531
-13.6666
-13.9409
-14.1762
-14.3738
-14.5346
-14.6599
-14.7508
-14.8085
-14.8339
-14.828
-14.7915
-14.7252
-14.6293
-14.504
-14.3498
-14.1698
-13.9676
-13.7437
-13.497
-13.2278
-12.9365
-12.6241
-12.2913
-11.9392
-11.5687
-11.1808
-10.7766
-10.3572
-9.92365
-9.47724
-9.01908
-8.55034
-8.07223
-7.58595
-7.0927
-6.59365
-6.08996
-5.58279
-5.07324
-4.56239
-4.0513
-3.54096
-3.03233
-2.52633
-2.02382
-1.52562
-1.03247
-0.545093
-0.0641334
0.40981
0.876191
1.33452
1.78435
2.2253
2.65701
3.07918
3.49154
3.89386
4.28591
4.66759
5.03898
5.40029
5.75172
6.09329
6.42487
6.74633
7.05771
7.35916
7.6508
7.93283
8.20541
8.46875
8.72304
8.96851
9.20539
9.4339
9.65428
9.86674
10.0715
10.2689
10.4591
10.6423
10.8188
10.9889
11.1527
11.3105
11.4625
11.609
11.7501
11.8861
12.0173
12.1438
12.2658
12.3835
12.497
12.6065
12.7123
12.8141
12.9122
13.0069
13.0985
13.187
13.2726
13.3553
13.4353
13.5128
13.5878
13.6604
13.7308
13.799
13.8651
13.9291
13.9913
14.0515
14.11
14.1667
14.2217
14.275
14.3268
14.377
14.4257
14.473
14.5188
14.5631
14.6061
14.6477
14.688
14.7269
14.7645
14.8008
14.8358
14.8696
14.9021
14.9335
14.9638
14.9931
15.0215
15.0494
15.0769
15.1047
15.1334
15.1641
15.1989
15.2385
15.2922
15.342
-8.71007
-8.7919
-8.90986
-9.01568
-9.09858
-9.15242
-9.17304
-9.15923
-9.10965
-9.02656
-8.91902
-8.80364
-8.70388
-8.63934
-8.6106
-8.60577
-8.62478
-8.6815
-8.78511
-8.93216
-9.1225
-9.36325
-9.65729
-9.99641
-10.3685
-10.7642
-11.1736
-11.5849
-11.9875
-12.3741
-12.74
-13.0815
-13.3959
-13.6815
-13.9373
-14.1627
-14.3577
-14.5222
-14.6565
-14.7609
-14.8358
-14.8815
-14.8986
-14.8874
-14.8483
-14.7819
-14.6884
-14.5678
-14.4202
-14.2465
-14.0482
-13.8262
-13.5812
-13.3135
-13.0241
-12.7134
-12.3825
-12.0322
-11.6635
-11.2772
-10.8746
-10.4566
-10.0244
-9.57922
-9.12209
-8.65425
-8.17689
-7.69121
-7.19841
-6.69967
-6.19615
-5.68901
-5.17936
-4.66829
-4.15684
-3.64603
-3.13682
-2.63014
-2.12684
-1.62775
-1.13364
-0.645222
-0.163146
0.311983
0.779614
1.23925
1.69046
2.13285
2.56607
2.98985
3.40394
3.80814
4.20231
4.58635
4.96023
5.32398
5.67761
6.02113
6.35452
6.67778
6.99098
7.29423
7.58768
7.87149
8.14585
8.41093
8.66695
8.91411
9.15265
9.38279
9.60476
9.81878
10.0251
10.2239
10.4156
10.6002
10.7781
10.9495
11.1146
11.2737
11.427
11.5747
11.717
11.8541
11.9862
12.1135
12.2363
12.3547
12.4689
12.579
12.6853
12.7879
12.887
12.9827
13.0754
13.1648
13.2513
13.3349
13.4158
13.494
13.5698
13.6431
13.7141
13.7829
13.8496
13.9142
13.9769
14.0377
14.0966
14.1538
14.2092
14.263
14.3152
14.3658
14.4149
14.4625
14.5086
14.5533
14.5966
14.6385
14.679
14.7182
14.756
14.7925
14.8278
14.8617
14.8945
14.926
14.9565
14.9859
15.0145
15.0424
15.07
15.0976
15.1261
15.1562
15.1898
15.2264
15.2737
15.3073
-8.74948
-8.84692
-8.94819
-9.03471
-9.09915
-9.13885
-9.15131
-9.1339
-9.08664
-9.01452
-8.92879
-8.84624
-8.78504
-8.75806
-8.77018
-8.82348
-8.92187
-9.06898
-9.26542
-9.50619
-9.78245
-10.087
-10.4139
-10.7567
-11.1101
-11.4689
-11.8277
-12.1813
-12.5252
-12.8552
-13.1682
-13.4612
-13.7324
-13.9798
-14.2024
-14.3992
-14.5696
-14.7132
-14.8298
-14.9193
-14.9818
-15.0174
-15.0261
-15.008
-14.9633
-14.8923
-14.7951
-14.6722
-14.524
-14.3511
-14.1542
-13.9338
-13.6903
-13.4243
-13.1365
-12.8276
-12.4984
-12.1497
-11.7824
-11.3976
-10.9963
-10.5795
-10.1483
-9.70394
-9.2475
-8.78021
-8.30324
-7.8178
-7.32507
-6.82624
-6.32249
-5.81495
-5.30477
-4.79302
-4.28076
-3.76901
-3.25873
-2.75087
-2.24629
-1.74581
-1.25021
-0.760217
-0.276484
0.200376
0.669807
1.13131
1.58444
2.02879
2.46404
2.88989
3.30609
3.71246
4.10885
4.49517
4.87138
5.23744
5.59333
5.93902
6.27452
6.59987
6.91514
7.22046
7.51596
7.8018
8.07816
8.34522
8.60319
8.85227
9.09269
9.32467
9.54843
9.76421
9.97224
10.1728
10.3661
10.5523
10.7318
10.9047
11.0713
11.2318
11.3864
11.5354
11.6789
11.8173
11.9506
12.0791
12.2031
12.3226
12.4378
12.549
12.6564
12.76
12.8601
12.9569
13.0505
13.1409
13.2283
13.3127
13.3944
13.4734
13.5499
13.624
13.6957
13.7651
13.8325
13.8977
13.9609
14.0222
14.0817
14.1394
14.1953
14.2496
14.3022
14.3532
14.4027
14.4507
14.4972
14.5422
14.5859
14.6281
14.6689
14.7084
14.7465
14.7833
14.8188
14.853
14.8859
14.9176
14.9482
14.9777
15.0063
15.0342
15.0616
15.0889
15.1168
15.1457
15.1771
15.2096
15.2489
15.2675
-8.53761
-8.62252
-8.72262
-8.81972
-8.89707
-8.9498
-8.97688
-8.97915
-8.96108
-8.93096
-8.90088
-8.88481
-8.89555
-8.94268
-9.03238
-9.16779
-9.34901
-9.57146
-9.82672
-10.1068
-10.406
-10.7203
-11.0453
-11.3761
-11.7081
-12.0378
-12.3617
-12.6767
-12.9801
-13.2694
-13.5426
-13.798
-14.0343
-14.2501
-14.4445
-14.6166
-14.7657
-14.8912
-14.9928
-15.0699
-15.1224
-15.1501
-15.1526
-15.1301
-15.0823
-15.0094
-14.9114
-14.7884
-14.6409
-14.469
-14.2733
-14.0542
-13.8121
-13.5476
-13.2613
-12.9539
-12.6261
-12.2788
-11.9128
-11.5293
-11.129
-10.7132
-10.2829
-9.83916
-9.38328
-8.91639
-8.43968
-7.95433
-7.46155
-6.96253
-6.45843
-5.95041
-5.4396
-4.9271
-4.41395
-3.9012
-3.3898
-2.8807
-2.37477
-1.87285
-1.37571
-0.884088
-0.398641
0.0800109
0.551309
1.01475
1.46988
1.9163
2.35366
2.78168
3.2001
3.60873
4.00741
4.39604
4.77455
5.1429
5.50104
5.84898
6.18671
6.51428
6.83178
7.13931
7.43701
7.72503
8.00354
8.27274
8.53281
8.78396
9.02642
9.26042
9.48616
9.70388
9.91382
10.1162
10.3113
10.4993
10.6804
10.855
11.0232
11.1853
11.3415
11.492
11.637
11.7768
11.9116
12.0415
12.1667
12.2875
12.404
12.5165
12.625
12.7297
12.8309
12.9287
13.0233
13.1146
13.2029
13.2883
13.3708
13.4507
13.5279
13.6028
13.6752
13.7454
13.8134
13.8793
13.9432
14.0051
14.0652
14.1234
14.1799
14.2346
14.2878
14.3393
14.3892
14.4377
14.4846
14.53
14.574
14.6166
14.6578
14.6976
14.736
14.7731
14.8088
14.8432
14.8764
14.9083
14.9389
14.9685
14.9971
15.0248
15.0519
15.0787
15.1056
15.1329
15.1615
15.1893
15.2209
15.227
-8.11766
-8.20606
-8.32699
-8.44968
-8.55491
-8.63533
-8.69364
-8.73572
-8.7692
-8.80386
-8.85066
-8.9199
-9.01961
-9.15461
-9.3271
-9.53609
-9.77691
-10.044
-10.3319
-10.6352
-10.9481
-11.266
-11.585
-11.9016
-12.2129
-12.5168
-12.8114
-13.0952
-13.3666
-13.6243
-13.8672
-14.0941
-14.304
-14.4959
-14.6688
-14.8219
-14.9546
-15.0659
-15.1555
-15.2226
-15.2669
-15.2879
-15.2853
-15.2589
-15.2083
-15.1336
-15.0346
-14.9114
-14.7641
-14.593
-14.3982
-14.1802
-13.9394
-13.6763
-13.3914
-13.0854
-12.759
-12.4131
-12.0484
-11.6661
-11.267
-10.8522
-10.4227
-9.97977
-9.52448
-9.05804
-8.58163
-8.09643
-7.60365
-7.10447
-6.60007
-6.0916
-5.5802
-5.06697
-4.55297
-4.03922
-3.52672
-3.0164
-2.50915
-2.0058
-1.50713
-1.01389
-0.526738
-0.0462995
0.426862
0.892236
1.34937
1.79785
2.23734
2.66753
3.08818
3.49907
3.90004
4.29098
4.6718
5.04245
5.40289
5.7531
6.09312
6.42298
6.74275
7.05256
7.35252
7.64279
7.92355
8.19497
8.45723
8.71056
8.95515
9.19122
9.41902
9.63875
9.85067
10.055
10.252
10.4419
10.6249
10.8012
10.9712
11.135
11.2929
11.445
11.5916
11.7329
11.8692
12.0005
12.1272
12.2494
12.3672
12.4809
12.5907
12.6967
12.799
12.8979
12.9935
13.0859
13.1752
13.2615
13.345
13.4258
13.5039
13.5796
13.6529
13.7238
13.7926
13.8592
13.9238
13.9864
14.0471
14.106
14.1631
14.2184
14.2721
14.3241
14.3746
14.4235
14.4709
14.5168
14.5612
14.6042
14.6458
14.686
14.7247
14.7621
14.7981
14.8328
14.8661
14.8981
14.9289
14.9585
14.987
15.0145
15.0411
15.0672
15.0929
15.1182
15.1437
15.1667
15.191
15.1865
-7.65265
-7.75133
-7.89338
-8.04217
-8.18011
-8.29874
-8.40164
-8.49814
-8.59763
-8.70904
-8.84
-8.99538
-9.17794
-9.38813
-9.62424
-9.88416
-10.1649
-10.4619
-10.7697
-11.0833
-11.3985
-11.7118
-12.0204
-12.3223
-12.6159
-12.8999
-13.1732
-13.4351
-13.6845
-13.9206
-14.1426
-14.3497
-14.5411
-14.7158
-14.8731
-15.0122
-15.1322
-15.2326
-15.3126
-15.3716
-15.4089
-15.4242
-15.417
-15.3868
-15.3334
-15.2566
-15.1562
-15.0322
-14.8845
-14.7134
-14.5189
-14.3015
-14.0615
-13.7992
-13.5154
-13.2105
-12.8853
-12.5405
-12.1771
-11.796
-11.398
-10.9843
-10.5559
-10.1139
-9.65942
-9.19372
-8.71792
-8.23323
-7.74083
-7.24191
-6.73763
-6.22916
-5.71761
-5.2041
-4.68968
-4.17539
-3.66222
-3.15109
-2.64292
-2.13852
-1.6387
-1.14418
-0.655646
-0.173724
0.301016
0.768061
1.22695
1.67727
2.11867
2.55085
2.97353
3.38652
3.78963
4.18274
4.56575
4.9386
5.30125
5.65369
5.99594
6.32804
6.65007
6.96213
7.26434
7.55686
7.83984
8.11347
8.37793
8.63343
8.88017
9.11838
9.34827
9.57008
9.78403
9.99037
10.1893
10.3811
10.566
10.7443
10.9161
11.0816
11.2412
11.3951
11.5433
11.6863
11.8241
11.9569
12.0851
12.2087
12.328
12.443
12.5541
12.6614
12.765
12.8651
12.9618
13.0553
13.1456
13.233
13.3175
13.3992
13.4783
13.5549
13.6291
13.7009
13.7704
13.8379
13.9032
13.9665
14.0279
14.0875
14.1452
14.2012
14.2555
14.3081
14.3591
14.4085
14.4564
14.5028
14.5477
14.5912
14.6331
14.6737
14.7128
14.7505
14.7868
14.8218
14.8553
14.8875
14.9183
14.9479
14.9762
15.0034
15.0295
15.0546
15.0789
15.1021
15.1242
15.1424
15.1601
15.1462
-7.297
-7.39048
-7.54251
-7.70823
-7.87506
-8.03604
-8.19064
-8.34675
-8.51261
-8.69403
-8.89506
-9.11691
-9.35815
-9.61791
-9.89562
-10.189
-10.4942
-10.8069
-11.123
-11.4387
-11.7512
-12.0581
-12.3578
-12.6487
-12.9299
-13.2005
-13.4599
-13.7073
-13.9422
-14.1639
-14.372
-14.5656
-14.7441
-14.9069
-15.0531
-15.182
-15.2928
-15.385
-15.4576
-15.5102
-15.542
-15.5525
-15.5413
-15.5077
-15.4516
-15.3725
-15.2704
-15.145
-14.9964
-14.8246
-14.6298
-14.4121
-14.1721
-13.91
-13.6264
-13.322
-12.9973
-12.6532
-12.2904
-11.91
-11.5128
-11.0998
-10.6722
-10.231
-9.77743
-9.31252
-8.83748
-8.35352
-7.8618
-7.36349
-6.85978
-6.35178
-5.84064
-5.32743
-4.81323
-4.29906
-3.78589
-3.27466
-2.76625
-2.26152
-1.76124
-1.26614
-0.776917
-0.294184
0.181485
0.64957
1.10961
1.56118
2.00394
2.43756
2.86179
3.27639
3.68118
4.07603
4.46084
4.83553
5.20006
5.55442
5.89862
6.23271
6.55675
6.87086
7.17514
7.46973
7.7548
8.03052
8.29707
8.55465
8.80347
9.04374
9.27568
9.49952
9.71548
9.92381
10.1247
10.3185
10.5053
10.6854
10.859
11.0263
11.1877
11.3432
11.4932
11.6377
11.7771
11.9116
12.0413
12.1664
12.287
12.4035
12.516
12.6245
12.7294
12.8307
12.9287
13.0233
13.1148
13.2032
13.2888
13.3715
13.4516
13.5292
13.6042
13.6769
13.7474
13.8156
13.8817
13.9458
14.008
14.0682
14.1266
14.1833
14.2382
14.2914
14.343
14.393
14.4415
14.4884
14.5338
14.5777
14.6201
14.661
14.7006
14.7386
14.7752
14.8104
14.8442
14.8765
14.9074
14.9369
14.965
14.9918
15.0172
15.0413
15.064
15.0848
15.1037
15.1171
15.1288
15.1068
-7.10668
-7.19279
-7.3469
-7.51927
-7.70266
-7.89496
-8.09275
-8.29802
-8.51532
-8.74709
-8.99364
-9.25492
-9.53087
-9.8211
-10.1237
-10.4355
-10.7528
-11.0722
-11.3907
-11.7056
-12.015
-12.3169
-12.6103
-12.8939
-13.167
-13.4291
-13.6795
-13.9178
-14.1436
-14.3562
-14.5554
-14.7403
-14.9105
-15.0654
-15.2041
-15.3261
-15.4306
-15.5168
-15.5842
-15.6319
-15.6595
-15.6662
-15.6516
-15.6151
-15.5565
-15.4752
-15.3712
-15.2443
-15.0943
-14.9214
-14.7257
-14.5074
-14.2667
-14.0042
-13.7204
-13.4158
-13.091
-12.747
-12.3844
-12.0042
-11.6073
-11.1948
-10.7677
-10.3271
-9.87406
-9.40981
-8.93548
-8.45224
-7.96125
-7.4637
-6.96073
-6.45347
-5.94305
-5.43054
-4.91698
-4.4034
-3.89077
-3.38001
-2.87199
-2.36757
-1.8675
-1.37252
-0.883307
-0.400482
0.0753845
0.543777
1.00423
1.45633
1.89971
2.33406
2.75911
3.17463
3.58045
3.97641
4.36242
4.73838
5.10425
5.46002
5.8057
6.14132
6.46697
6.78272
7.08869
7.38501
7.67185
7.94936
8.21773
8.47714
8.7278
8.96992
9.20372
9.42941
9.64722
9.85738
10.0601
10.2557
10.4443
10.6261
10.8015
10.9706
11.1336
11.2908
11.4424
11.5886
11.7296
11.8656
11.9967
12.1233
12.2454
12.3633
12.4771
12.587
12.6932
12.7957
12.8949
12.9907
13.0833
13.1728
13.2595
13.3433
13.4243
13.5028
13.5788
13.6525
13.7238
13.7928
13.8598
13.9247
13.9876
14.0486
14.1077
14.165
14.2206
14.2745
14.3267
14.3773
14.4263
14.4737
14.5196
14.564
14.6069
14.6483
14.6882
14.7266
14.7635
14.799
14.8329
14.8654
14.8963
14.9258
14.9536
14.9799
15.0046
15.0275
15.0485
15.0669
15.0824
15.0913
15.0976
15.0686
-7.0788
-7.16564
-7.31334
-7.48212
-7.66886
-7.87342
-8.09264
-8.32455
-8.56937
-8.82772
-9.09909
-9.38265
-9.67813
-9.9844
-10.2987
-10.6182
-10.9398
-11.2609
-11.579
-11.8922
-12.1986
-12.497
-12.7862
-13.0653
-13.3337
-13.5909
-13.8363
-14.0696
-14.2903
-14.4979
-14.692
-14.8721
-15.0375
-15.1877
-15.3219
-15.4396
-15.54
-15.6224
-15.6862
-15.7306
-15.7551
-15.7589
-15.7416
-15.7028
-15.6419
-15.5587
-15.4528
-15.3242
-15.1728
-14.9986
-14.8017
-14.5823
-14.3408
-14.0776
-13.7931
-13.488
-13.1629
-12.8186
-12.456
-12.0758
-11.6791
-11.2668
-10.8401
-10.3999
-9.94752
-9.48393
-9.01035
-8.52793
-8.03784
-7.54122
-7.03922
-6.53296
-6.02355
-5.51206
-4.99952
-4.48694
-3.97528
-3.46544
-2.95831
-2.45471
-1.9554
-1.46111
-0.972509
-0.490207
-0.0147682
0.453296
0.913526
1.36551
1.80889
2.24335
2.66861
3.08446
3.49069
3.88717
4.27378
4.65043
5.01709
5.37373
5.72036
6.05701
6.38376
6.70069
7.00791
7.30554
7.59374
7.87266
8.14248
8.40338
8.65557
8.89924
9.1346
9.36188
9.5813
9.79307
9.99743
10.1946
10.3848
10.5683
10.7452
10.9159
11.0805
11.2393
11.3924
11.5401
11.6826
11.82
11.9526
12.0806
12.2041
12.3233
12.4384
12.5496
12.657
12.7608
12.8611
12.9581
13.0518
13.1424
13.2301
13.3149
13.397
13.4765
13.5534
13.6279
13.7001
13.7701
13.8378
13.9035
13.9672
14.0289
14.0888
14.1468
14.203
14.2575
14.3103
14.3615
14.4111
14.4591
14.5055
14.5504
14.5937
14.6356
14.6759
14.7147
14.7519
14.7877
14.8218
14.8544
14.8854
14.9146
14.9422
14.968
14.9919
15.0136
15.0328
15.0488
15.061
15.0657
15.067
15.0319
-7.18972
-7.26808
-7.39902
-7.55491
-7.73356
-7.93465
-8.15549
-8.39349
-8.64701
-8.91472
-9.19496
-9.48661
-9.78871
-10.0993
-10.416
-10.7361
-11.0571
-11.3768
-11.693
-12.0039
-12.308
-12.604
-12.8909
-13.1679
-13.4342
-13.6894
-13.933
-14.1643
-14.3831
-14.5889
-14.781
-14.959
-15.1224
-15.2704
-15.4026
-15.5181
-15.6163
-15.6965
-15.7581
-15.8004
-15.8227
-15.8245
-15.8053
-15.7645
-15.7017
-15.6167
-15.5092
-15.379
-15.2261
-15.0506
-14.8524
-14.632
-14.3895
-14.1254
-13.8402
-13.5346
-13.2091
-12.8646
-12.5019
-12.1218
-11.7253
-11.3134
-10.8872
-10.4477
-9.99609
-9.53342
-9.06088
-8.5796
-8.09073
-7.59542
-7.0948
-6.58997
-6.08203
-5.57204
-5.06101
-4.54995
-4.03979
-3.53143
-3.02573
-2.5235
-2.02551
-1.53245
-1.045
-0.563766
-0.0892975
0.377895
0.837356
1.28868
1.7315
2.16551
2.59043
3.00605
3.41216
3.80863
4.19532
4.57217
4.93913
5.29616
5.64328
5.98052
6.30794
6.62563
6.93369
7.23224
7.52142
7.80139
8.07231
8.33438
8.58777
8.8327
9.06935
9.29796
9.51872
9.73187
9.93762
10.1362
10.3278
10.5127
10.6911
10.8632
11.0292
11.1894
11.3439
11.493
11.6368
11.7756
11.9096
12.0389
12.1637
12.2842
12.4006
12.513
12.6215
12.7265
12.8279
12.926
13.0208
13.1125
13.2012
13.287
13.3701
13.4505
13.5283
13.6037
13.6768
13.7475
13.8161
13.8826
13.947
14.0095
14.0701
14.1288
14.1857
14.2408
14.2943
14.346
14.3962
14.4447
14.4917
14.5371
14.5809
14.6232
14.6639
14.7031
14.7407
14.7767
14.811
14.8437
14.8747
14.9038
14.9311
14.9563
14.9793
14.9997
15.0172
15.0308
15.0399
15.0406
15.0374
14.9971
-7.36623
-7.4308
-7.54171
-7.68014
-7.84397
-8.03271
-8.24401
-8.47522
-8.72386
-8.98761
-9.26424
-9.55258
-9.8514
-10.1585
-10.4714
-10.7878
-11.1054
-11.4219
-11.7354
-12.0441
-12.3466
-12.6416
-12.928
-13.2048
-13.4713
-13.7269
-13.971
-14.203
-14.4224
-14.6286
-14.8211
-14.9994
-15.1628
-15.3107
-15.4424
-15.5574
-15.6549
-15.7342
-15.7947
-15.8358
-15.8568
-15.8572
-15.8365
-15.7942
-15.7299
-15.6434
-15.5344
-15.4028
-15.2486
-15.0717
-14.8725
-14.651
-14.4077
-14.1429
-13.8572
-13.5512
-13.2256
-12.8811
-12.5185
-12.1389
-11.743
-11.3319
-10.9067
-10.4683
-10.018
-9.55676
-9.0858
-8.60622
-8.11917
-7.62577
-7.12714
-6.62436
-6.11851
-5.61064
-5.10174
-4.5928
-4.08475
-3.57848
-3.07483
-2.57459
-2.07852
-1.58732
-1.10163
-0.622064
-0.149163
0.31657
0.774686
1.22478
1.66649
2.09952
2.52358
2.93846
3.34396
3.73993
4.12625
4.50284
4.86966
5.22666
5.57386
5.9113
6.23901
6.55709
6.86564
7.16476
7.45461
7.73531
8.00705
8.26999
8.52433
8.77024
9.00794
9.23763
9.45953
9.67384
9.88078
10.0806
10.2734
10.4596
10.6392
10.8126
10.9799
11.1414
11.2972
11.4475
11.5926
11.7327
11.8679
11.9984
12.1244
12.2461
12.3637
12.4772
12.587
12.693
12.7955
12.8946
12.9905
13.0832
13.1729
13.2597
13.3437
13.425
13.5038
13.58
13.6539
13.7255
13.7949
13.8621
13.9273
13.9905
14.0518
14.1112
14.1687
14.2245
14.2786
14.331
14.3817
14.4308
14.4783
14.5242
14.5685
14.6112
14.6524
14.6919
14.7298
14.7661
14.8006
14.8334
14.8644
14.8934
14.9203
14.945
14.9671
14.9862
15.002
15.0133
15.0194
15.0165
15.0092
14.9645
-7.54013
-7.59162
-7.68419
-7.80477
-7.9514
-8.12354
-8.31913
-8.53579
-8.77106
-9.02239
-9.28775
-9.56603
-9.85582
-10.1549
-10.4609
-10.7713
-11.084
-11.3968
-11.7076
-12.0148
-12.3167
-12.612
-12.8994
-13.1779
-13.4466
-13.7046
-13.9512
-14.1857
-14.4077
-14.6163
-14.811
-14.9911
-15.1561
-15.3053
-15.438
-15.5535
-15.6513
-15.7306
-15.7908
-15.8314
-15.8516
-15.8511
-15.8294
-15.7859
-15.7205
-15.6328
-15.5226
-15.3899
-15.2346
-15.0568
-14.8567
-14.6346
-14.3907
-14.1257
-13.8399
-13.534
-13.2087
-12.8647
-12.503
-12.1243
-11.7296
-11.3199
-10.8963
-10.4598
-10.0115
-9.55242
-9.08379
-8.60667
-8.1222
-7.63148
-7.13561
-6.63566
-6.13268
-5.6277
-5.12172
-4.61568
-4.1105
-3.60707
-3.1062
-2.60868
-2.11524
-1.62657
-1.14332
-0.666071
-0.195371
0.268289
0.724463
1.17275
1.6128
2.04431
2.46699
2.88063
3.28503
3.68004
4.06555
4.44146
4.80772
5.1643
5.51121
5.84848
6.17615
6.49429
6.80301
7.10242
7.39263
7.67381
7.94609
8.20967
8.4647
8.71139
8.94992
9.1805
9.40333
9.61862
9.82659
10.0274
10.2214
10.4086
10.5894
10.7639
10.9324
11.095
11.252
11.4035
11.5498
11.6911
11.8274
11.9591
12.0863
12.2091
12.3278
12.4424
12.5532
12.6604
12.7639
12.8641
12.9609
13.0546
13.1452
13.233
13.3179
13.4001
13.4797
13.5569
13.6316
13.704
13.7741
13.8422
13.9081
13.972
14.0339
14.094
14.1522
14.2087
14.2634
14.3164
14.3677
14.4173
14.4653
14.5118
14.5566
14.5998
14.6413
14.6813
14.7195
14.7561
14.7908
14.8237
14.8547
14.8835
14.9101
14.9342
14.9554
14.9734
14.9874
14.9965
14.9998
14.9936
14.9826
14.9341
-7.66693
-7.70911
-7.7863
-7.89025
-8.01948
-8.17354
-8.3507
-8.54898
-8.76637
-9.00069
-9.25053
-9.51518
-9.79321
-10.0823
-10.38
-10.684
-10.9918
-11.3013
-11.6104
-11.9172
-12.2199
-12.517
-12.807
-13.0889
-13.3613
-13.6234
-13.8742
-14.113
-14.3389
-14.5512
-14.7493
-14.9325
-15.1001
-15.2514
-15.3858
-15.5027
-15.6013
-15.6812
-15.7416
-15.782
-15.8019
-15.8008
-15.7784
-15.7341
-15.6678
-15.5792
-15.4682
-15.3347
-15.1787
-15.0004
-14.8
-14.5777
-14.3339
-14.0691
-13.7839
-13.4788
-13.1546
-12.8119
-12.4518
-12.0749
-11.6824
-11.275
-10.854
-10.4203
-9.97489
-9.51899
-9.05366
-8.57999
-8.09907
-7.612
-7.11986
-6.62369
-6.12452
-5.62337
-5.12119
-4.61894
-4.11749
-3.61773
-3.12047
-2.62645
-2.13641
-1.65102
-1.17092
-0.696687
-0.228854
0.232092
0.68571
1.1316
1.56942
1.99886
2.41964
2.83154
3.23437
3.62798
4.01223
4.38705
4.75237
5.10817
5.45443
5.7912
6.1185
6.43641
6.74502
7.04443
7.33476
7.61616
7.88877
8.15276
8.40829
8.65555
8.89474
9.12603
9.34964
9.56576
9.77461
9.97638
10.1713
10.3595
10.5413
10.7169
10.8864
11.0501
11.2082
11.3608
11.5082
11.6506
11.788
11.9208
12.0491
12.173
12.2927
12.4084
12.5203
12.6284
12.733
12.8341
12.932
13.0266
13.1182
13.2068
13.2927
13.3758
13.4562
13.5342
13.6097
13.6829
13.7539
13.8226
13.8893
13.9539
14.0166
14.0773
14.1362
14.1933
14.2486
14.3022
14.3541
14.4043
14.4529
14.4998
14.5451
14.5888
14.6308
14.6711
14.7098
14.7466
14.7816
14.8146
14.8456
14.8743
14.9005
14.924
14.9444
14.9612
14.9737
14.9807
14.9814
14.9722
14.9579
14.9062
-7.72239
-7.76064
-7.82623
-7.91522
-8.02744
-8.16284
-8.32038
-8.49873
-8.69634
-8.91166
-9.14419
-9.39384
-9.65925
-9.93805
-10.2277
-10.5256
-10.8293
-11.1366
-11.4451
-11.7528
-12.0577
-12.3581
-12.6522
-12.9387
-13.2162
-13.4836
-13.7398
-13.9837
-14.2145
-14.4315
-14.6337
-14.8205
-14.9912
-15.1452
-15.2817
-15.4002
-15.5
-15.5806
-15.6414
-15.6819
-15.7017
-15.7004
-15.6775
-15.6327
-15.5659
-15.4769
-15.3655
-15.2318
-15.0758
-14.8976
-14.6976
-14.4759
-14.233
-13.9694
-13.6857
-13.3824
-13.0602
-12.72
-12.3625
-11.9887
-11.5993
-11.1955
-10.7782
-10.3484
-9.9072
-9.45562
-8.99476
-8.52568
-8.04946
-7.56717
-7.07985
-6.58854
-6.09425
-5.59794
-5.10059
-4.60309
-4.10633
-3.61114
-3.11834
-2.62869
-2.14287
-1.66155
-1.18535
-0.714842
-0.250563
0.207012
0.657446
1.10035
1.53537
1.96219
2.38056
2.79023
3.19103
3.58278
3.96537
4.3387
4.70272
5.05737
5.40267
5.73862
6.06526
6.38266
6.6909
6.99007
7.28029
7.5617
7.83442
8.09863
8.35449
8.60216
8.84184
9.07371
9.29795
9.51478
9.72438
9.92697
10.1227
10.3119
10.4946
10.6712
10.8417
11.0064
11.1655
11.3191
11.4676
11.611
11.7495
11.8833
12.0126
12.1376
12.2584
12.3751
12.488
12.5971
12.7027
12.8048
12.9036
12.9991
13.0917
13.1812
13.2679
13.3519
13.4332
13.512
13.5883
13.6623
13.734
13.8035
13.8709
13.9363
13.9996
14.0611
14.1206
14.1783
14.2343
14.2885
14.341
14.3918
14.4409
14.4884
14.5342
14.5784
14.6208
14.6616
14.7006
14.7377
14.7729
14.8061
14.8371
14.8657
14.8917
14.9147
14.9343
14.9499
14.9609
14.966
14.9644
14.9525
14.9352
14.8808
-7.70799
-7.74268
-7.7995
-7.87465
-7.96965
-8.08535
-8.22175
-8.37848
-8.55477
-8.74991
-8.96435
-9.19858
-9.45139
-9.72033
-10.0027
-10.2957
-10.5969
-10.9035
-11.2131
-11.5233
-11.832
-12.137
-12.4365
-12.7288
-13.0123
-13.2857
-13.5478
-13.7973
-14.0334
-14.2551
-14.4616
-14.6521
-14.826
-14.9825
-15.121
-15.2411
-15.3421
-15.4235
-15.4848
-15.5256
-15.5455
-15.5442
-15.5213
-15.4765
-15.4097
-15.3209
-15.2099
-15.0767
-14.9214
-14.7444
-14.5456
-14.3257
-14.0848
-13.8236
-13.5425
-13.2423
-12.9235
-12.587
-12.2335
-11.864
-11.4793
-11.0804
-10.6681
-10.2437
-9.80796
-9.36204
-8.90697
-8.44378
-7.97354
-7.49727
-7.016
-6.53073
-6.04244
-5.5521
-5.06063
-4.56893
-4.07784
-3.5882
-3.10079
-2.61635
-2.1356
-1.65916
-1.18764
-0.721594
-0.261557
0.191993
0.638621
1.07794
1.50959
1.93328
2.34873
2.75571
3.15402
3.5435
3.92404
4.29551
4.65787
5.01106
5.35508
5.68993
6.01565
6.33229
6.63992
6.93864
7.22854
7.50977
7.78244
8.0467
8.30273
8.55067
8.79071
9.02302
9.24779
9.46522
9.67548
9.87879
10.0753
10.2653
10.4489
10.6263
10.7978
10.9634
11.1235
11.2782
11.4276
11.572
11.7115
11.8464
11.9767
12.1027
12.2245
12.3422
12.4561
12.5662
12.6728
12.7758
12.8755
12.9721
13.0655
13.1559
13.2435
13.3283
13.4105
13.4901
13.5673
13.642
13.7145
13.7848
13.8529
13.919
13.9831
14.0452
14.1054
14.1638
14.2204
14.2752
14.3283
14.3797
14.4294
14.4774
14.5238
14.5684
14.6114
14.6525
14.6919
14.7294
14.7649
14.7983
14.8293
14.8579
14.8836
14.9062
14.9251
14.9397
14.9493
14.9526
14.9489
14.9345
14.9145
14.858
-7.64428
-7.66998
-7.71609
-7.77471
-7.84946
-7.94234
-8.05457
-8.18702
-8.33994
-8.51361
-8.7094
-8.92836
-9.16929
-9.42952
-9.70606
-9.99593
-10.2962
-10.6039
-10.9162
-11.2304
-11.544
-11.8547
-12.1603
-12.4589
-12.7487
-13.0283
-13.2962
-13.5512
-13.7922
-14.0184
-14.2287
-14.4226
-14.5992
-14.758
-14.8984
-15.0199
-15.122
-15.2042
-15.2662
-15.3076
-15.328
-15.3271