/*--------------------------------*- C++ -*----------------------------------*\
| =========                 |                                                 |
| \\      /  F ield         | OpenFOAM: The Open Source CFD Toolbox           |
|  \\    /   O peration     | Version:  v2012                                 |
|   \\  /    A nd           | Website:  www.openfoam.com                      |
|    \\/     M anipulation  |                                                 |
\*---------------------------------------------------------------------------*/
FoamFile
{
    version     2.0;
    format      ascii;
    class       surfaceScalarField;
    location    "1600";
    object      phi;
}
// * * * * * * * * * * * * * * * * * * * * * * * * * * * * * * * * * * * * * //

dimensions      [0 3 -1 0 0 0 0];
oriented        oriented;


internalField   nonuniform List<scalar> 
24170
(
3.92539e-06
-7.91497e-07
3.76462e-06
1.60756e-07
3.63337e-06
1.31208e-07
3.4332e-06
2.00139e-07
3.28008e-06
1.53079e-07
3.18942e-06
9.06278e-08
3.12907e-06
6.02424e-08
3.08117e-06
4.75993e-08
3.04128e-06
3.94549e-08
3.00439e-06
3.63432e-08
2.96979e-06
3.40798e-08
2.93779e-06
3.15253e-08
2.9085e-06
2.89043e-08
2.882e-06
2.62159e-08
2.85825e-06
2.3545e-08
2.83868e-06
1.95119e-08
2.83062e-06
8.14955e-09
-9.32378e-09
2.84007e-06
3.58444e-06
-9.19498e-07
3.80423e-06
-5.90409e-08
3.7428e-06
1.9262e-07
3.69054e-06
2.52363e-07
3.63725e-06
2.06336e-07
3.58984e-06
1.37982e-07
3.55258e-06
9.73791e-08
3.52379e-06
7.61652e-08
3.50039e-06
6.25203e-08
3.48092e-06
5.53734e-08
3.46384e-06
5.0668e-08
3.44835e-06
4.65437e-08
3.43405e-06
4.27808e-08
3.42059e-06
3.93268e-08
3.40797e-06
3.58861e-08
3.39619e-06
3.11223e-08
3.38452e-06
1.97646e-08
3.92528e-09
3.37099e-06
3.68518e-06
-7.92482e-07
3.83638e-06
-2.10251e-07
3.91492e-06
1.14076e-07
3.94499e-06
2.22288e-07
3.94406e-06
2.07263e-07
3.92722e-06
1.54823e-07
3.9078e-06
1.16799e-07
3.89027e-06
9.3743e-08
3.87466e-06
7.82267e-08
3.86142e-06
6.87425e-08
3.84986e-06
6.23458e-08
3.83926e-06
5.72236e-08
3.8293e-06
5.27804e-08
3.81988e-06
4.87305e-08
3.81116e-06
4.45493e-08
3.80304e-06
3.91495e-08
3.79319e-06
2.95271e-08
1.76619e-08
3.77917e-06
4.05359e-06
-6.41511e-07
4.11459e-06
-2.71264e-07
4.20798e-06
2.06782e-08
4.26634e-06
1.63916e-07
4.29068e-06
1.82905e-07
4.29272e-06
1.5275e-07
4.28601e-06
1.23487e-07
4.27704e-06
1.0274e-07
4.2676e-06
8.7751e-08
4.25883e-06
7.76234e-08
4.25083e-06
7.04406e-08
4.24331e-06
6.47928e-08
4.23611e-06
5.99903e-08
4.22913e-06
5.56561e-08
4.22235e-06
5.12413e-08
4.21537e-06
4.60144e-08
4.20614e-06
3.86139e-08
3.04481e-08
4.19307e-06
4.50491e-06
-5.09115e-07
4.51536e-06
-2.81713e-07
4.58528e-06
-4.92455e-08
4.64664e-06
1.02553e-07
4.68257e-06
1.46981e-07
4.6968e-06
1.38516e-07
4.69972e-06
1.20602e-07
4.69774e-06
1.04789e-07
4.69352e-06
9.20922e-08
4.6886e-06
8.26849e-08
4.68358e-06
7.56078e-08
4.67853e-06
6.99653e-08
4.67341e-06
6.51901e-08
4.66816e-06
6.09321e-08
4.66263e-06
5.67548e-08
4.65631e-06
5.2267e-08
4.64779e-06
4.70407e-08
4.22032e-08
4.63586e-06
5.00014e-06
-3.94666e-07
4.98614e-06
-2.67712e-07
5.03068e-06
-9.37956e-08
5.08505e-06
4.81762e-08
5.12452e-06
1.07493e-07
5.14606e-06
1.16957e-07
5.15605e-06
1.10617e-07
5.15976e-06
1.01111e-07
5.16001e-06
9.19204e-08
5.15853e-06
8.42696e-08
5.15617e-06
7.80691e-08
5.15326e-06
7.29566e-08
5.14989e-06
6.86037e-08
5.14604e-06
6.47775e-08
5.14154e-06
6.12163e-08
5.13594e-06
5.77977e-08
5.12833e-06
5.4563e-08
5.24257e-08
5.11793e-06
5.54382e-06
-2.97478e-07
5.51664e-06
-2.40535e-07
5.54055e-06
-1.17699e-07
5.58387e-06
4.8527e-09
5.62165e-06
6.97159e-08
5.64657e-06
9.2046e-08
5.66123e-06
9.59801e-08
5.6693e-06
9.30815e-08
5.67327e-06
8.80169e-08
5.6748e-06
8.28186e-08
5.67484e-06
7.81086e-08
5.67386e-06
7.39999e-08
5.67207e-06
7.04387e-08
5.66951e-06
6.73565e-08
5.66604e-06
6.46764e-08
5.66134e-06
6.2453e-08
5.65492e-06
6.09213e-08
6.08438e-08
5.64643e-06
4.34788e-06
-2.39245e-07
4.32251e-06
-2.15172e-07
4.33078e-06
-1.2597e-07
4.35419e-06
-1.85621e-08
4.3784e-06
4.54967e-08
4.39647e-06
7.39638e-08
4.40846e-06
8.39911e-08
4.41604e-06
8.55172e-08
4.42063e-06
8.34594e-08
4.42326e-06
8.02334e-08
4.42457e-06
7.68422e-08
4.42493e-06
7.36741e-08
4.42454e-06
7.08593e-08
4.42345e-06
6.84528e-08
4.42162e-06
6.6494e-08
4.41892e-06
6.51265e-08
4.41518e-06
6.46485e-08
6.56226e-08
4.41033e-06
5.08622e-06
-1.85603e-07
5.05777e-06
-1.86727e-07
5.0584e-06
-1.26597e-07
5.07686e-06
-3.70296e-08
5.09918e-06
2.31811e-08
5.11774e-06
5.54035e-08
5.13129e-06
7.04519e-08
5.14065e-06
7.61715e-08
5.14691e-06
7.72275e-08
5.15097e-06
7.62001e-08
5.15347e-06
7.43684e-08
5.15481e-06
7.23566e-08
5.15521e-06
7.0471e-08
5.15477e-06
6.88888e-08
5.1535e-06
6.77545e-08
5.15134e-06
6.72713e-08
5.14822e-06
6.77258e-08
6.95803e-08
5.14425e-06
5.94839e-06
-1.38198e-07
5.91832e-06
-1.5666e-07
5.91161e-06
-1.19888e-07
5.924e-06
-4.94289e-08
5.94286e-06
4.31737e-09
5.9606e-06
3.76665e-08
5.97484e-06
5.62115e-08
5.98552e-06
6.54996e-08
5.99325e-06
6.95176e-08
5.9987e-06
7.07573e-08
6.00245e-06
7.06329e-08
6.00488e-06
6.99384e-08
6.00623e-06
6.91228e-08
6.00664e-06
6.84815e-08
6.00616e-06
6.82313e-08
6.00482e-06
6.86034e-08
6.00267e-06
6.98703e-08
7.23088e-08
5.99991e-06
6.95439e-06
-9.8318e-08
6.92401e-06
-1.26289e-07
6.91113e-06
-1.07008e-07
6.9168e-06
-5.51026e-08
6.93088e-06
-9.76009e-09
6.94637e-06
2.21732e-08
6.96019e-06
4.23949e-08
6.97145e-06
5.42456e-08
6.98022e-06
6.07584e-08
6.98688e-06
6.41051e-08
6.99183e-06
6.56833e-08
6.99541e-06
6.636e-08
6.99784e-06
6.66923e-08
6.99929e-06
6.70344e-08
6.99985e-06
6.76657e-08
6.99965e-06
6.88181e-08
6.9988e-06
7.06968e-08
7.35089e-08
6.99759e-06
8.12719e-06
-6.64932e-08
8.09793e-06
-9.70326e-08
8.08056e-06
-8.96353e-08
8.07955e-06
-5.41e-08
8.08794e-06
-1.81466e-08
8.09987e-06
1.0244e-08
8.11202e-06
3.02483e-08
8.1229e-06
4.33697e-08
8.13206e-06
5.15983e-08
8.13954e-06
5.66346e-08
8.14551e-06
5.97063e-08
8.15021e-06
6.16708e-08
8.1538e-06
6.309e-08
8.15647e-06
6.43761e-08
8.15833e-06
6.58021e-08
8.15955e-06
6.75931e-08
8.16035e-06
6.99118e-08
7.28581e-08
8.16097e-06
9.49368e-06
-4.24454e-08
9.4668e-06
-7.01558e-08
9.44683e-06
-6.96699e-08
9.43991e-06
-4.71781e-08
9.44229e-06
-2.05335e-08
9.44967e-06
2.86782e-09
9.45898e-06
2.09471e-08
9.46843e-06
3.39166e-08
9.47719e-06
4.28464e-08
9.48493e-06
4.8894e-08
9.49161e-06
5.30349e-08
9.49728e-06
5.59945e-08
9.50206e-06
5.83169e-08
9.50606e-06
6.03664e-08
9.50944e-06
6.24247e-08
9.51237e-06
6.46647e-08
9.51505e-06
6.72227e-08
7.01358e-08
9.51776e-06
1.10854e-05
-2.51664e-08
1.10618e-05
-4.65169e-08
1.1041e-05
-4.8839e-08
1.10294e-05
-3.56019e-08
1.10261e-05
-1.72392e-08
1.10284e-05
5.11917e-10
1.1034e-05
1.53548e-08
1.10411e-05
2.68201e-08
1.10487e-05
3.53078e-08
1.10561e-05
4.14991e-08
1.1063e-05
4.60622e-08
1.10695e-05
4.95589e-08
1.10754e-05
5.2414e-08
1.10808e-05
5.49477e-08
1.10858e-05
5.73745e-08
1.10907e-05
5.98476e-08
1.10954e-05
6.24391e-08
6.51846e-08
1.11004e-05
1.29396e-05
-1.31264e-08
1.29194e-05
-2.62936e-08
1.28988e-05
-2.82846e-08
1.28839e-05
-2.07386e-08
1.28758e-05
-9.06722e-09
1.28732e-05
3.05135e-09
1.28748e-05
1.38208e-08
1.2879e-05
2.2641e-08
1.28847e-05
2.95672e-08
1.28913e-05
3.49353e-08
1.28982e-05
3.91438e-08
1.29052e-05
4.25563e-08
1.29121e-05
4.54651e-08
1.2919e-05
4.80886e-08
1.29258e-05
5.05761e-08
1.29326e-05
5.30212e-08
1.29395e-05
5.54672e-08
5.79177e-08
1.29468e-05
1.50998e-05
-4.49053e-09
1.50822e-05
-8.69216e-09
1.50621e-05
-8.14617e-09
1.50448e-05
-3.50949e-09
1.50327e-05
3.03988e-09
1.50259e-05
9.84577e-09
1.50237e-05
1.60455e-08
1.5025e-05
2.13213e-08
1.50289e-05
2.56836e-08
1.50346e-05
2.92867e-08
1.50414e-05
3.23281e-08
1.5049e-05
3.4988e-08
1.5057e-05
3.74106e-08
1.50654e-05
3.96982e-08
1.5074e-05
4.19138e-08
1.5083e-05
4.40881e-08
1.50922e-05
4.62242e-08
4.83031e-08
1.51018e-05
1.76171e-05
2.88575e-09
1.75999e-05
8.50449e-09
1.75787e-05
1.29939e-08
1.7559e-05
1.6229e-08
1.75436e-05
1.8402e-08
1.75336e-05
1.98713e-08
1.75287e-05
2.09411e-08
1.75282e-05
2.18629e-08
1.75311e-05
2.27822e-08
1.75366e-05
2.38058e-08
1.75439e-05
2.49707e-08
1.75526e-05
2.62984e-08
1.75622e-05
2.77719e-08
1.75726e-05
2.93719e-08
1.75834e-05
3.10577e-08
1.75947e-05
3.27934e-08
1.76064e-05
3.45292e-08
3.62235e-08
1.76185e-05
1.78181e-05
1.0994e-08
1.77994e-05
2.71872e-08
1.77768e-05
3.55887e-08
1.7756e-05
3.70053e-08
1.77402e-05
3.42643e-08
1.77302e-05
2.98649e-08
1.77257e-05
2.54068e-08
1.77259e-05
2.16619e-08
1.77298e-05
1.89441e-08
1.77363e-05
1.72438e-08
1.77449e-05
1.64578e-08
1.77547e-05
1.64037e-08
1.77656e-05
1.69237e-08
1.77771e-05
1.78503e-08
1.77891e-05
1.90625e-08
1.78015e-05
2.04362e-08
1.78141e-05
2.18939e-08
2.33474e-08
1.7827e-05
1.58702e-05
2.21273e-08
1.58478e-05
4.95546e-08
1.58233e-05
6.00934e-08
1.58032e-05
5.71866e-08
1.57899e-05
4.75492e-08
1.57834e-05
3.6304e-08
1.57827e-05
2.6119e-08
1.57863e-05
1.80583e-08
1.5793e-05
1.226e-08
1.58018e-05
8.49217e-09
1.58119e-05
6.35447e-09
1.58229e-05
5.46622e-09
1.58343e-05
5.47923e-09
1.5846e-05
6.12554e-09
1.58579e-05
7.17924e-09
1.58699e-05
8.48436e-09
1.58819e-05
9.90491e-09
1.13601e-08
1.58939e-05
1.41313e-05
3.9534e-08
1.41021e-05
7.86806e-08
1.40745e-05
8.77498e-08
1.40557e-05
7.59892e-08
1.40469e-05
5.63585e-08
1.40462e-05
3.69844e-08
1.40512e-05
2.11475e-08
1.40597e-05
9.5194e-09
1.40703e-05
1.68729e-09
1.40819e-05
-3.13019e-09
1.4094e-05
-5.70308e-09
1.41062e-05
-6.6828e-09
1.41182e-05
-6.5635e-09
1.41301e-05
-5.73146e-09
1.41417e-05
-4.4512e-09
1.41531e-05
-2.92794e-09
1.41643e-05
-1.29194e-09
3.52642e-10
1.41753e-05
1.25772e-05
6.73515e-08
1.25392e-05
1.16715e-07
1.25091e-05
1.17854e-07
1.24942e-05
9.08447e-08
1.24928e-05
5.77647e-08
1.25002e-05
2.96328e-08
1.25122e-05
9.09657e-09
1.25263e-05
-4.54882e-09
1.25409e-05
-1.28647e-08
1.25552e-05
-1.73823e-08
1.25688e-05
-1.93251e-08
1.25817e-05
-1.95737e-08
1.25939e-05
-1.87595e-08
1.26055e-05
-1.72891e-08
1.26165e-05
-1.54691e-08
1.26271e-05
-1.34831e-08
1.26372e-05
-1.14646e-08
-9.48917e-09
1.26471e-05
1.11862e-05
1.10913e-07
1.11384e-05
1.6455e-07
1.11088e-05
1.47487e-07
1.11022e-05
9.74418e-08
1.11117e-05
4.82673e-08
1.1129e-05
1.23697e-08
1.11486e-05
-1.05031e-08
1.11678e-05
-2.3733e-08
1.11855e-05
-3.05208e-08
1.12013e-05
-3.32483e-08
1.12156e-05
-3.35178e-08
1.12283e-05
-3.23421e-08
1.124e-05
-3.03534e-08
1.12506e-05
-2.79472e-08
1.12606e-05
-2.53752e-08
1.12699e-05
-2.28037e-08
1.12788e-05
-2.03149e-08
-1.79647e-08
1.12872e-05
9.93908e-06
1.7645e-07
9.88248e-06
2.21147e-07
9.85874e-06
1.71235e-07
9.86595e-06
9.02347e-08
9.88964e-06
2.4595e-08
9.91762e-06
-1.56007e-08
9.94394e-06
-3.6794e-08
9.96669e-06
-4.6432e-08
9.98574e-06
-4.95112e-08
1.00016e-05
-4.91421e-08
1.00151e-05
-4.69649e-08
1.00267e-05
-4.39323e-08
1.00369e-05
-4.04955e-08
1.0046e-05
-3.70223e-08
1.00544e-05
-3.36537e-08
1.00621e-05
-3.04968e-08
1.00693e-05
-2.75666e-08
-2.48653e-08
1.00762e-05
8.81963e-06
2.69915e-07
8.75785e-06
2.82933e-07
8.74788e-06
1.812e-07
8.77483e-06
6.32842e-08
8.81461e-06
-1.51807e-08
8.85217e-06
-5.31241e-08
8.8827e-06
-6.72706e-08
8.90631e-06
-6.99631e-08
8.92433e-06
-6.75678e-08
8.93838e-06
-6.31235e-08
8.94963e-06
-5.81612e-08
8.95901e-06
-5.3104e-08
8.96698e-06
-4.83998e-08
8.97399e-06
-4.39447e-08
8.98026e-06
-3.98958e-08
8.98604e-06
-3.62391e-08
8.99146e-06
-3.29631e-08
-3.00278e-08
8.9966e-06
7.81391e-06
3.96675e-07
7.7539e-06
3.42935e-07
7.76868e-06
1.66417e-07
7.82055e-06
1.14205e-08
7.87571e-06
-7.03304e-08
7.91917e-06
-9.65686e-08
7.94973e-06
-9.78253e-08
7.97063e-06
-9.07769e-08
7.985e-06
-8.17401e-08
7.9952e-06
-7.32441e-08
8.00296e-06
-6.57415e-08
8.00906e-06
-5.92275e-08
8.0142e-06
-5.33569e-08
8.01857e-06
-4.82333e-08
8.02246e-06
-4.36553e-08
8.026e-06
-3.97646e-08
8.02935e-06
-3.63262e-08
-3.32553e-08
8.03258e-06
6.90424e-06
5.66768e-07
6.86137e-06
3.85802e-07
6.91717e-06
1.10612e-07
6.99676e-06
-6.81778e-08
7.06257e-06
-1.36148e-07
7.10536e-06
-1.39363e-07
7.13033e-06
-1.22675e-07
7.14451e-06
-1.04908e-07
7.15243e-06
-8.96557e-08
7.15707e-06
-7.77293e-08
7.16009e-06
-6.86457e-08
7.16229e-06
-6.11553e-08
7.16392e-06
-5.49427e-08
7.16529e-06
-4.95517e-08
7.16638e-06
-4.47691e-08
7.16744e-06
-4.08157e-08
7.16852e-06
-3.73719e-08
-3.43823e-08
7.16959e-06
6.07162e-06
7.97663e-07
6.08525e-06
3.7216e-07
6.19865e-06
-2.79261e-09
6.29991e-06
-1.6944e-07
6.3653e-06
-2.01542e-07
6.3976e-06
-1.71644e-07
6.41008e-06
-1.35269e-07
6.41332e-06
-1.07857e-07
6.41231e-06
-8.8694e-08
6.40987e-06
-7.52761e-08
6.40734e-06
-6.60637e-08
6.40483e-06
-5.87145e-08
6.40236e-06
-5.26203e-08
6.40016e-06
-4.72553e-08
6.39804e-06
-4.26392e-08
6.39628e-06
-3.90836e-08
6.39474e-06
-3.59083e-08
-3.29938e-08
6.3934e-06
5.35805e-06
1.05451e-06
5.50649e-06
2.23711e-07
5.64777e-06
-1.4409e-07
5.73566e-06
-2.57337e-07
5.77649e-06
-2.42399e-07
5.7833e-06
-1.78554e-07
5.77504e-06
-1.26875e-07
5.76263e-06
-9.55316e-08
5.75012e-06
-7.63703e-08
5.73921e-06
-6.46306e-08
5.73031e-06
-5.73363e-08
5.72234e-06
-5.10219e-08
5.71478e-06
-4.52955e-08
5.70783e-06
-4.04902e-08
5.7016e-06
-3.65037e-08
5.6964e-06
-3.39977e-08
5.69184e-06
-3.138e-08
-2.86067e-08
5.68742e-06
5.04576e-06
1.01105e-06
5.36491e-06
-9.54598e-08
5.35252e-06
-1.31741e-07
5.33288e-06
-2.37719e-07
5.29604e-06
-2.05634e-07
5.25014e-06
-1.32742e-07
5.20833e-06
-8.50777e-08
5.17425e-06
-6.16089e-08
5.14684e-06
-4.93179e-08
5.12474e-06
-4.29517e-08
5.10677e-06
-3.97208e-08
5.0909e-06
-3.56428e-08
5.07603e-06
-3.09508e-08
5.06234e-06
-2.7101e-08
5.05017e-06
-2.45345e-08
5.04016e-06
-2.41333e-08
5.03138e-06
-2.26552e-08
-2.11006e-08
5.02388e-06
5.4676e-06
5.37214e-06
5.24039e-06
5.00267e-06
4.79702e-06
4.66428e-06
4.57918e-06
4.51751e-06
4.46812e-06
4.42511e-06
4.38529e-06
4.34953e-06
4.31851e-06
4.29136e-06
4.26679e-06
4.24264e-06
4.21998e-06
4.1989e-06
2.47841e-08
-2.47985e-08
2.38681e-07
-2.13882e-07
4.9003e-07
-2.51384e-07
7.09344e-07
-2.19317e-07
8.76034e-07
-1.66721e-07
9.86145e-07
-1.10114e-07
1.04067e-06
-5.45606e-08
1.04194e-06
-1.26308e-09
9.95298e-07
4.66208e-08
9.111e-07
8.42224e-08
8.0466e-07
1.0643e-07
6.95391e-07
1.09332e-07
6.02951e-07
9.2506e-08
5.3682e-07
6.60588e-08
4.85329e-07
5.16002e-08
4.24022e-07
6.0972e-08
3.3627e-07
8.78737e-08
2.07863e-07
1.28315e-07
3.14934e-08
1.7653e-07
-2.13974e-07
2.45788e-07
-5.18952e-07
3.05049e-07
-8.60222e-07
3.41419e-07
-1.22376e-06
3.63519e-07
-1.60032e-06
3.76574e-07
-1.9811e-06
3.80737e-07
-2.356e-06
3.74892e-07
-2.71709e-06
3.61055e-07
-3.05915e-06
3.42039e-07
-3.3784e-06
3.19236e-07
-3.67254e-06
2.94127e-07
-3.94075e-06
2.68198e-07
-4.18336e-06
2.42606e-07
-4.40141e-06
2.1805e-07
-4.59639e-06
1.94978e-07
-4.77001e-06
1.73611e-07
-4.92403e-06
1.54028e-07
-5.06022e-06
1.36188e-07
-5.18019e-06
1.19972e-07
-5.28541e-06
1.05219e-07
-5.37716e-06
9.175e-08
-5.45654e-06
7.93824e-08
-5.52449e-06
6.79454e-08
-5.58177e-06
5.7284e-08
-5.62903e-06
4.72654e-08
-5.66682e-06
3.77811e-08
-5.69556e-06
2.87449e-08
-5.71564e-06
2.00856e-08
-5.72742e-06
1.17746e-08
-5.73136e-06
3.94748e-09
-5.72834e-06
-3.02428e-09
-5.71944e-06
-8.90154e-09
-5.70543e-06
-1.40082e-08
-5.6867e-06
-1.87292e-08
-5.6635e-06
-2.31924e-08
-5.63602e-06
-2.74864e-08
-5.60438e-06
-3.16381e-08
-5.56872e-06
-3.56625e-08
-5.52915e-06
-3.9566e-08
-5.4858e-06
-4.33497e-08
-5.43879e-06
-4.70124e-08
-5.38824e-06
-5.05514e-08
-5.33427e-06
-5.39633e-08
-5.27703e-06
-5.72447e-08
-5.21663e-06
-6.03921e-08
-5.15323e-06
-6.34033e-08
-5.08696e-06
-6.62749e-08
-5.01795e-06
-6.90036e-08
-4.94636e-06
-7.1587e-08
-4.87234e-06
-7.40235e-08
-4.79603e-06
-7.6312e-08
-4.71758e-06
-7.84515e-08
-4.63713e-06
-8.04418e-08
-4.55485e-06
-8.22831e-08
-4.47087e-06
-8.39762e-08
-4.38535e-06
-8.55222e-08
-4.29843e-06
-8.69228e-08
-4.21025e-06
-8.81801e-08
-4.12095e-06
-8.92966e-08
-4.03068e-06
-9.02752e-08
-3.93956e-06
-9.11194e-08
-3.84772e-06
-9.1833e-08
-3.7553e-06
-9.24204e-08
-3.66242e-06
-9.28866e-08
-3.56918e-06
-9.32373e-08
-3.4757e-06
-9.34788e-08
-3.38208e-06
-9.36186e-08
-3.28841e-06
-9.36653e-08
-3.19478e-06
-9.36295e-08
-3.10126e-06
-9.35238e-08
-3.00789e-06
-9.33638e-08
-2.91472e-06
-9.31705e-08
-2.82175e-06
-9.29689e-08
-2.72897e-06
-9.27768e-08
-2.6364e-06
-9.2573e-08
-2.54413e-06
-9.22709e-08
-2.45236e-06
-9.17696e-08
-2.36138e-06
-9.09845e-08
-2.27144e-06
-8.99363e-08
-2.18266e-06
-8.87825e-08
-2.09504e-06
-8.76282e-08
-2.00856e-06
-8.6472e-08
-1.92327e-06
-8.52984e-08
-1.83917e-06
-8.40999e-08
-1.75629e-06
-8.28762e-08
-1.67467e-06
-8.16291e-08
-1.5943e-06
-8.03632e-08
-1.51522e-06
-7.90816e-08
-1.43744e-06
-7.77877e-08
-1.36096e-06
-7.64785e-08
-1.28583e-06
-7.51337e-08
-1.21206e-06
-7.37654e-08
-1.13966e-06
-7.24024e-08
-1.06862e-06
-7.10379e-08
-9.98948e-07
-6.96746e-08
-9.30636e-07
-6.83122e-08
-8.63684e-07
-6.69534e-08
-7.98084e-07
-6.55993e-08
-7.33831e-07
-6.4254e-08
-6.70913e-07
-6.29178e-08
-6.09322e-07
-6.15915e-08
-5.49047e-07
-6.02744e-08
-4.90077e-07
-5.89709e-08
-4.3239e-07
-5.76859e-08
-3.75964e-07
-5.64266e-08
-3.20776e-07
-5.51866e-08
-2.66812e-07
-5.39637e-08
-2.14049e-07
-5.27608e-08
-1.62469e-07
-5.15782e-08
-1.12064e-07
-5.04026e-08
-6.28244e-08
-4.92354e-08
-1.48805e-08
-4.79369e-08
3.19128e-08
-4.67866e-08
7.78573e-08
-4.59401e-08
1.2283e-07
-4.4973e-08
1.66741e-07
-4.3912e-08
2.09589e-07
-4.28487e-08
2.51394e-07
-4.18024e-08
2.92184e-07
-4.07865e-08
3.31987e-07
-3.98017e-08
3.70832e-07
-3.88479e-08
4.08751e-07
-3.79223e-08
4.4577e-07
-3.70245e-08
4.8192e-07
-3.6152e-08
5.17224e-07
-3.53055e-08
5.5171e-07
-3.44828e-08
5.85398e-07
-3.36853e-08
6.18317e-07
-3.29108e-08
6.50487e-07
-3.21609e-08
6.81931e-07
-3.14341e-08
7.12669e-07
-3.07316e-08
7.42726e-07
-3.00527e-08
7.72123e-07
-2.93982e-08
8.00888e-07
-2.87674e-08
8.29042e-07
-2.8161e-08
8.56612e-07
-2.75785e-08
8.8362e-07
-2.70202e-08
9.10092e-07
-2.6486e-08
9.3605e-07
-2.59753e-08
9.61521e-07
-2.54882e-08
9.86525e-07
-2.50229e-08
1.01109e-06
-2.45794e-08
1.03522e-06
-2.41543e-08
1.05895e-06
-2.37466e-08
1.08228e-06
-2.33501e-08
1.10523e-06
-2.29615e-08
1.12778e-06
-2.257e-08
1.14994e-06
-2.21672e-08
1.17166e-06
-2.1734e-08
1.1929e-06
-2.12516e-08
1.21358e-06
-2.06856e-08
1.23356e-06
-1.99947e-08
1.25267e-06
-1.91119e-08
1.27061e-06
-1.79428e-08
1.28694e-06
-1.63398e-08
1.30096e-06
-1.40319e-08
1.31156e-06
-1.05994e-08
1.31608e-06
-4.53216e-09
1.30917e-06
6.90259e-09
1.27954e-06
2.96202e-08
7.24569e-08
1.20707e-06
2.53734e-07
-2.7854e-07
4.88976e-07
-4.49122e-07
6.38145e-07
-4.00566e-07
7.2232e-07
-3.03494e-07
7.61285e-07
-2.05699e-07
7.66654e-07
-1.15485e-07
7.45153e-07
-3.30723e-08
7.02472e-07
4.14173e-08
6.41578e-07
1.07505e-07
5.62428e-07
1.63379e-07
4.64231e-07
2.04627e-07
3.45291e-07
2.28275e-07
1.9936e-07
2.38463e-07
1.46451e-08
2.50712e-07
-2.19243e-07
2.85492e-07
-5.06556e-07
3.48209e-07
-8.45262e-07
4.2658e-07
-1.22416e-06
5.07227e-07
-1.62932e-06
5.8173e-07
-2.02967e-06
6.46193e-07
-2.4175e-06
6.9291e-07
-2.79238e-06
7.1633e-07
-3.14723e-06
7.18368e-07
-3.47395e-06
7.03296e-07
-3.76771e-06
6.74487e-07
-4.02771e-06
6.34883e-07
-4.2545e-06
5.87831e-07
-4.44946e-06
5.36991e-07
-4.61554e-06
4.85312e-07
-4.75626e-06
4.34835e-07
-4.87496e-06
3.86899e-07
-4.97482e-06
3.42456e-07
-5.05868e-06
3.01911e-07
-5.12904e-06
2.65341e-07
-5.18801e-06
2.32579e-07
-5.23731e-06
2.03323e-07
-5.27832e-06
1.77203e-07
-5.31217e-06
1.53827e-07
-5.33977e-06
1.32816e-07
-5.36184e-06
1.13821e-07
-5.37899e-06
9.65323e-08
-5.39173e-06
8.0686e-08
-5.40051e-06
6.60617e-08
-5.40572e-06
5.24792e-08
-5.40773e-06
3.97929e-08
-5.40687e-06
2.78889e-08
-5.40348e-06
1.66904e-08
-5.39787e-06
6.16353e-09
-5.39018e-06
-3.73593e-09
-5.38e-06
-1.32017e-08
-5.36644e-06
-2.24678e-08
-5.34888e-06
-3.15618e-08
-5.32719e-06
-4.04226e-08
-5.30134e-06
-4.90428e-08
-5.27139e-06
-5.74297e-08
-5.23744e-06
-6.55896e-08
-5.19958e-06
-7.35254e-08
-5.15791e-06
-8.12362e-08
-5.11254e-06
-8.87188e-08
-5.06358e-06
-9.59675e-08
-5.01116e-06
-1.02975e-07
-4.95539e-06
-1.09735e-07
-4.89639e-06
-1.16237e-07
-4.83431e-06
-1.22477e-07
-4.76926e-06
-1.28448e-07
-4.70139e-06
-1.34145e-07
-4.63084e-06
-1.39559e-07
-4.55774e-06
-1.44687e-07
-4.48224e-06
-1.49525e-07
-4.40448e-06
-1.5407e-07
-4.32461e-06
-1.58321e-07
-4.24277e-06
-1.62278e-07
-4.15911e-06
-1.6594e-07
-4.07378e-06
-1.69309e-07
-3.98692e-06
-1.72388e-07
-3.89866e-06
-1.75179e-07
-3.80915e-06
-1.77688e-07
-3.71853e-06
-1.79919e-07
-3.62693e-06
-1.81877e-07
-3.53448e-06
-1.8357e-07
-3.4413e-06
-1.85006e-07
-3.34753e-06
-1.86192e-07
-3.25328e-06
-1.87138e-07
-3.15866e-06
-1.87855e-07
-3.06379e-06
-1.88352e-07
-2.96876e-06
-1.88641e-07
-2.87369e-06
-1.88735e-07
-2.77868e-06
-1.88647e-07
-2.68381e-06
-1.88388e-07
-2.5892e-06
-1.87973e-07
-2.49496e-06
-1.87412e-07
-2.40121e-06
-1.86713e-07
-2.30812e-06
-1.8587e-07
-2.21583e-06
-1.84855e-07
-2.12448e-06
-1.83624e-07
-2.03411e-06
-1.82147e-07
-1.94467e-06
-1.80423e-07
-1.85611e-06
-1.78492e-07
-1.76847e-06
-1.76433e-07
-1.6818e-06
-1.74297e-07
-1.59617e-06
-1.72097e-07
-1.51164e-06
-1.69836e-07
-1.42823e-06
-1.67513e-07
-1.34597e-06
-1.65133e-07
-1.2649e-06
-1.62702e-07
-1.18504e-06
-1.60224e-07
-1.10641e-06
-1.57706e-07
-1.02905e-06
-1.5515e-07
-9.52971e-07
-1.52559e-07
-8.78172e-07
-1.49933e-07
-8.04653e-07
-1.47285e-07
-7.32427e-07
-1.44629e-07
-6.61497e-07
-1.41968e-07
-5.91866e-07
-1.39306e-07
-5.23533e-07
-1.36646e-07
-4.56496e-07
-1.33991e-07
-3.90752e-07
-1.31344e-07
-3.26294e-07
-1.28712e-07
-2.63114e-07
-1.26099e-07
-2.01199e-07
-1.23506e-07
-1.40542e-07
-1.20931e-07
-8.11319e-08
-1.18381e-07
-2.29617e-08
-1.15856e-07
3.39823e-08
-1.1337e-07
8.97279e-08
-1.10932e-07
1.44293e-07
-1.08528e-07
1.97688e-07
-1.06155e-07
2.49929e-07
-1.03818e-07
3.01043e-07
-1.01516e-07
3.51061e-07
-9.92503e-08
4.00147e-07
-9.70201e-08
4.48262e-07
-9.48985e-08
4.95187e-07
-9.28638e-08
5.41001e-07
-9.07869e-08
5.85777e-07
-8.86884e-08
6.29547e-07
-8.66189e-08
6.72342e-07
-8.45962e-08
7.14185e-07
-8.26271e-08
7.55096e-07
-8.07128e-08
7.951e-07
-7.88525e-08
8.34219e-07
-7.70442e-08
8.72479e-07
-7.52867e-08
9.09903e-07
-7.3578e-08
9.46516e-07
-7.19179e-08
9.82339e-07
-7.0305e-08
1.0174e-06
-6.87396e-08
1.05171e-06
-6.72205e-08
1.0853e-06
-6.57484e-08
1.11819e-06
-6.43222e-08
1.15041e-06
-6.29434e-08
1.18197e-06
-6.16106e-08
1.21289e-06
-6.03254e-08
1.24321e-06
-5.90861e-08
1.27293e-06
-5.78946e-08
1.3021e-06
-5.67486e-08
1.33072e-06
-5.56505e-08
1.35882e-06
-5.45972e-08
1.38642e-06
-5.35907e-08
1.41354e-06
-5.26271e-08
1.44021e-06
-5.17073e-08
1.46644e-06
-5.08261e-08
1.49225e-06
-4.99819e-08
1.51766e-06
-4.91669e-08
1.54267e-06
-4.83755e-08
1.56729e-06
-4.75945e-08
1.59151e-06
-4.68105e-08
1.61534e-06
-4.60006e-08
1.63873e-06
-4.51363e-08
1.66165e-06
-4.41758e-08
1.68402e-06
-4.30617e-08
1.70573e-06
-4.17122e-08
1.72662e-06
-4.00088e-08
1.74645e-06
-3.77752e-08
1.76485e-06
-3.4741e-08
1.78126e-06
-3.04464e-08
1.79479e-06
-2.41338e-08
1.80448e-06
-1.42259e-08
1.80931e-06
2.07335e-09
1.80739e-06
3.15412e-08
8.8199e-08
1.79165e-06
2.45048e-07
-5.23591e-07
3.40238e-07
-5.44311e-07
3.55997e-07
-4.16331e-07
3.44633e-07
-2.92128e-07
3.16593e-07
-1.77666e-07
2.72135e-07
-7.10251e-08
2.10523e-07
2.85298e-08
1.3074e-07
1.21201e-07
3.16796e-08
2.06558e-07
-8.88449e-08
2.83902e-07
-2.36674e-07
3.52453e-07
-4.22459e-07
4.14047e-07
-6.59557e-07
4.7556e-07
-9.54453e-07
5.45581e-07
-1.29634e-06
6.27377e-07
-1.66332e-06
7.1517e-07
-2.03476e-06
7.98021e-07
-2.39418e-06
8.66661e-07
-2.72827e-06
9.15839e-07
-3.02562e-06
9.43571e-07
-3.28187e-06
9.49171e-07
-3.49901e-06
9.33488e-07
-3.68051e-06
8.99862e-07
-3.83013e-06
8.52922e-07
-3.95255e-06
7.96902e-07
-4.05313e-06
7.35468e-07
-4.13719e-06
6.71883e-07
-4.20907e-06
6.0887e-07
-4.27219e-06
5.48428e-07
-4.32914e-06
4.91781e-07
-4.38177e-06
4.39524e-07
-4.43119e-06
3.91878e-07
-4.47803e-06
3.48752e-07
-4.52255e-06
3.09863e-07
-4.56479e-06
2.74818e-07
-4.60465e-06
2.43179e-07
-4.64195e-06
2.14509e-07
-4.67652e-06
1.88393e-07
-4.70816e-06
1.64457e-07
-4.73671e-06
1.42372e-07
-4.76203e-06
1.21857e-07
-4.78402e-06
1.02676e-07
-4.80259e-06
8.46323e-08
-4.81767e-06
6.75624e-08
-4.82921e-06
5.1327e-08
-4.83713e-06
3.58079e-08
-4.84134e-06
2.09039e-08
-4.8417e-06
6.52166e-09
-4.83799e-06
-7.4455e-09
-4.83008e-06
-2.11113e-08
-4.81801e-06
-3.45338e-08
-4.80187e-06
-4.76999e-08
-4.78171e-06
-6.05879e-08
-4.75756e-06
-7.3189e-08
-4.72949e-06
-8.54966e-08
-4.69758e-06
-9.75046e-08
-4.66189e-06
-1.09206e-07
-4.62254e-06
-1.20593e-07
-4.5796e-06
-1.31654e-07
-4.53319e-06
-1.42377e-07
-4.48342e-06
-1.52751e-07
-4.43039e-06
-1.62763e-07
-4.37423e-06
-1.72399e-07
-4.31506e-06
-1.81647e-07
-4.253e-06
-1.90501e-07
-4.1882e-06
-1.9895e-07
-4.12077e-06
-2.06983e-07
-4.05087e-06
-2.14593e-07
-3.97862e-06
-2.21774e-07
-3.90416e-06
-2.28524e-07
-3.82765e-06
-2.34838e-07
-3.74921e-06
-2.40716e-07
-3.66899e-06
-2.46158e-07
-3.58713e-06
-2.51166e-07
-3.50378e-06
-2.55743e-07
-3.41906e-06
-2.59894e-07
-3.33312e-06
-2.63625e-07
-3.2461e-06
-2.66943e-07
-3.15812e-06
-2.69856e-07
-3.06932e-06
-2.72374e-07
-2.97981e-06
-2.74508e-07
-2.88974e-06
-2.76268e-07
-2.79921e-06
-2.77669e-07
-2.70834e-06
-2.78723e-07
-2.61725e-06
-2.79444e-07
-2.52604e-06
-2.79847e-07
-2.43483e-06
-2.79948e-07
-2.34371e-06
-2.7976e-07
-2.2528e-06
-2.79298e-07
-2.1622e-06
-2.78576e-07
-2.072e-06
-2.77604e-07
-1.98233e-06
-2.76388e-07
-1.89327e-06
-2.74928e-07
-1.80492e-06
-2.7321e-07
-1.71732e-06
-2.71219e-07
-1.63052e-06
-2.68954e-07
-1.54451e-06
-2.6643e-07
-1.45932e-06
-2.63685e-07
-1.37499e-06
-2.60764e-07
-1.29159e-06
-2.57701e-07
-1.20917e-06
-2.54516e-07
-1.12778e-06
-2.51222e-07
-1.04747e-06
-2.47828e-07
-9.68256e-07
-2.44344e-07
-8.9018e-07
-2.40779e-07
-8.13263e-07
-2.37141e-07
-7.3753e-07
-2.3344e-07
-6.63e-07
-2.29682e-07
-5.89685e-07
-2.25874e-07
-5.17593e-07
-2.22026e-07
-4.46731e-07
-2.18148e-07
-3.7711e-07
-2.14251e-07
-3.08736e-07
-2.10343e-07
-2.4161e-07
-2.06432e-07
-1.75732e-07
-2.02524e-07
-1.11102e-07
-1.98622e-07
-4.77141e-08
-1.94733e-07
1.4437e-08
-1.90863e-07
7.53555e-08
-1.87018e-07
1.3505e-07
-1.83201e-07
1.93534e-07
-1.79415e-07
2.50819e-07
-1.75666e-07
3.06921e-07
-1.71959e-07
3.61853e-07
-1.68302e-07
4.15619e-07
-1.64698e-07
4.68236e-07
-1.61146e-07
5.19725e-07
-1.57644e-07
5.70103e-07
-1.54196e-07
6.19394e-07
-1.50806e-07
6.67628e-07
-1.47483e-07
7.14847e-07
-1.44238e-07
7.61032e-07
-1.41081e-07
8.06148e-07
-1.37979e-07
8.50247e-07
-1.34886e-07
8.93372e-07
-1.31814e-07
9.35546e-07
-1.28793e-07
9.76788e-07
-1.25837e-07
1.01712e-06
-1.22954e-07
1.05655e-06
-1.20145e-07
1.09511e-06
-1.1741e-07
1.13281e-06
-1.14749e-07
1.16968e-06
-1.1216e-07
1.20574e-06
-1.09641e-07
1.24102e-06
-1.07194e-07
1.27553e-06
-1.04815e-07
1.3093e-06
-1.02506e-07
1.34234e-06
-1.00265e-07
1.37469e-06
-9.80926e-08
1.40636e-06
-9.59888e-08
1.43738e-06
-9.3954e-08
1.46776e-06
-9.19876e-08
1.49752e-06
-9.00903e-08
1.5267e-06
-8.82613e-08
1.5553e-06
-8.65015e-08
1.58336e-06
-8.48097e-08
1.61089e-06
-8.31867e-08
1.63792e-06
-8.16308e-08
1.66447e-06
-8.01421e-08
1.69055e-06
-7.87175e-08
1.7162e-06
-7.73558e-08
1.74142e-06
-7.60518e-08
1.76623e-06
-7.48011e-08
1.79065e-06
-7.35946e-08
1.81469e-06
-7.24222e-08
1.83836e-06
-7.12673e-08
1.86165e-06
-7.01091e-08
1.88457e-06
-6.8917e-08
1.90708e-06
-6.76502e-08
1.92915e-06
-6.62509e-08
1.95072e-06
-6.46389e-08
1.97171e-06
-6.27011e-08
1.99197e-06
-6.02739e-08
2.01131e-06
-5.71172e-08
2.02944e-06
-5.28666e-08
2.04592e-06
-4.69317e-08
2.06015e-06
-3.83716e-08
2.07135e-06
-2.54335e-08
2.07866e-06
-5.24208e-09
2.08253e-06
2.76714e-08
8.56857e-08
2.08504e-06
9.23517e-08
-6.15943e-07
6.09182e-08
-5.12873e-07
1.1889e-08
-3.67305e-07
-4.57586e-08
-2.34474e-07
-1.15826e-07
-1.07604e-07
-2.01774e-07
1.49276e-08
-3.06622e-07
1.33373e-07
-4.32781e-07
2.4736e-07
-5.82853e-07
3.56628e-07
-7.60241e-07
4.61284e-07
-9.69705e-07
5.61916e-07
-1.21548e-06
6.59814e-07
-1.49607e-06
7.56145e-07
-1.80039e-06
8.4989e-07
-2.10963e-06
9.36612e-07
-2.40436e-06
1.0099e-06
-2.67042e-06
1.06408e-06
-2.89977e-06
1.09603e-06
-3.08928e-06
1.10535e-06
-3.23952e-06
1.09383e-06
-3.35482e-06
1.06447e-06
-3.44195e-06
1.02063e-06
-3.5082e-06
9.66107e-07
-3.56e-06
9.04724e-07
-3.60277e-06
8.39675e-07
-3.64088e-06
7.73577e-07
-3.67752e-06
7.08521e-07
-3.71468e-06
6.46029e-07
-3.75334e-06
5.87086e-07
-3.79375e-06
5.32195e-07
-3.83573e-06
4.81501e-07
-3.87877e-06
4.3492e-07
-3.92224e-06
3.92217e-07
-3.96544e-06
3.53068e-07
-4.00774e-06
3.17113e-07
-4.04854e-06
2.83982e-07
-4.08735e-06
2.53319e-07
-4.12375e-06
2.24794e-07
-4.1574e-06
1.98109e-07
-4.18803e-06
1.73003e-07
-4.21542e-06
1.49245e-07
-4.23938e-06
1.26642e-07
-4.25978e-06
1.05028e-07
-4.27648e-06
8.42628e-08
-4.28938e-06
6.4227e-08
-4.29839e-06
4.48199e-08
-4.30344e-06
2.59559e-08
-4.30448e-06
7.55869e-09
-4.30148e-06
-1.04451e-08
-4.29447e-06
-2.8116e-08
-4.28353e-06
-4.54811e-08
-4.26869e-06
-6.25369e-08
-4.25001e-06
-7.92705e-08
-4.22753e-06
-9.56691e-08
-4.2013e-06
-1.11719e-07
-4.1714e-06
-1.27406e-07
-4.13789e-06
-1.42713e-07
-4.10086e-06
-1.57625e-07
-4.06039e-06
-1.72123e-07
-4.01658e-06
-1.86189e-07
-3.96953e-06
-1.99805e-07
-3.91934e-06
-2.12953e-07
-3.86612e-06
-2.25612e-07
-3.81e-06
-2.37766e-07
-3.7511e-06
-2.49405e-07
-3.68953e-06
-2.60514e-07
-3.62544e-06
-2.7108e-07
-3.55894e-06
-2.81092e-07
-3.49017e-06
-2.90543e-07
-3.41927e-06
-2.99427e-07
-3.34636e-06
-3.0774e-07
-3.2716e-06
-3.15481e-07
-3.19511e-06
-3.22649e-07
-3.11703e-06
-3.29247e-07
-3.03749e-06
-3.35278e-07
-2.95664e-06
-3.40748e-07
-2.8746e-06
-3.45665e-07
-2.7915e-06
-3.50038e-07
-2.70748e-06
-3.53878e-07
-2.62266e-06
-3.57196e-07
-2.53716e-06
-3.60006e-07
-2.4511e-06
-3.62323e-07
-2.36461e-06
-3.64163e-07
-2.27779e-06
-3.65541e-07
-2.19076e-06
-3.66476e-07
-2.10362e-06
-3.66984e-07
-2.01649e-06
-3.67084e-07
-1.92945e-06
-3.66795e-07
-1.84262e-06
-3.66131e-07
-1.75608e-06
-3.65111e-07
-1.66994e-06
-3.63746e-07
-1.58428e-06
-3.62049e-07
-1.49918e-06
-3.60026e-07
-1.41471e-06
-3.57679e-07
-1.33092e-06
-3.55009e-07
-1.24785e-06
-3.52028e-07
-1.16552e-06
-3.48755e-07
-1.08399e-06
-3.45221e-07
-1.00329e-06
-3.41462e-07
-9.23485e-07
-3.37508e-07
-8.4462e-07
-3.33382e-07
-7.66741e-07
-3.29102e-07
-6.89885e-07
-3.24685e-07
-6.14085e-07
-3.20144e-07
-5.39371e-07
-3.15494e-07
-4.65767e-07
-3.10745e-07
-3.93296e-07
-3.05911e-07