/*--------------------------------*- C++ -*----------------------------------*\
  =========                 |
  \\      /  F ield         | OpenFOAM: The Open Source CFD Toolbox
   \\    /   O peration     | Website:  https://openfoam.org
    \\  /    A nd           | Version:  8
     \\/     M anipulation  |
\*---------------------------------------------------------------------------*/
FoamFile
{
    version     2.0;
    format      ascii;
    class       volScalarField;
    location    "1100";
    object      nut;
}
// * * * * * * * * * * * * * * * * * * * * * * * * * * * * * * * * * * * * * //

dimensions      [0 2 -1 0 0 0 0];

internalField   nonuniform List<scalar> 
12225
(
0.0122671
0.00158819
0.000666129
0.000410105
0.000294025
0.00022806
0.000183261
0.000170805
0.000132697
0.000106844
9.46735e-05
8.80085e-05
7.89855e-05
7.22329e-05
6.77317e-05
6.45069e-05
6.12103e-05
6.46337e-05
0.0323823
0.00744532
0.00330638
0.00204329
0.00146801
0.0011445
0.000936338
0.000799975
0.00067951
0.000577234
0.000506286
0.000452432
0.000410539
0.000378806
0.000350181
0.000327766
0.000311172
0.000292817
0.0490123
0.01515
0.00728196
0.00457854
0.00330639
0.00258054
0.00211233
0.00178913
0.00154181
0.00134762
0.00119772
0.0010787
0.000982056
0.000902481
0.000835978
0.000780909
0.000735546
0.000687169
0.063054
0.0237783
0.0122894
0.00788814
0.00573397
0.00448498
0.00367412
0.00310733
0.00268471
0.00235805
0.00210111
0.00189458
0.0017253
0.00158451
0.00146613
0.00136604
0.00128146
0.00119789
0.074932
0.0328517
0.0181452
0.0119262
0.00874548
0.00686412
0.0056308
0.00476254
0.00411748
0.00362029
0.00322731
0.00290992
0.00264899
0.00243143
0.00224799
0.00209188
0.00195826
0.00183626
0.0849536
0.0420208
0.0246655
0.0166359
0.0123325
0.00972587
0.00799539
0.00676785
0.00585345
0.00514769
0.00458844
0.00413587
0.00376334
0.00345239
0.00318983
0.00296596
0.0027736
0.00260471
0.0933822
0.0510219
0.0316642
0.0219415
0.016474
0.0130717
0.0107778
0.00913551
0.0079057
0.0069534
0.0061969
0.00558367
0.00507837
0.00465632
0.00429976
0.0039956
0.00373414
0.00350818
0.0993794
0.0583363
0.0378386
0.0268568
0.0204171
0.0163053
0.0134891
0.011453
0.00991891
0.00872629
0.00777635
0.00700497
0.00636866
0.00583685
0.0053874
0.00500397
0.00467451
0.00439126
0.104023
0.0645454
0.0433804
0.0314239
0.0241571
0.0194092
0.0161097
0.0137018
0.0118766
0.0104521
0.00931443
0.00838904
0.00762485
0.00698574
0.00644544
0.00598449
0.00558858
0.00524877
0.108368
0.0708939
0.0493756
0.0365496
0.0284517
0.0230231
0.0191863
0.0163547
0.0141926
0.0124968
0.011138
0.0100303
0.00911434
0.00834759
0.0076991
0.00714579
0.00667068
0.00626297
0.112368
0.0772557
0.0557282
0.0421918
0.0332976
0.0271652
0.0227467
0.0194432
0.0168984
0.0148903
0.0132749
0.0119544
0.0108605
0.00994378
0.00916796
0.00850586
0.00793736
0.00744915
0.115994
0.0834975
0.0623053
0.0482611
0.0386474
0.0318167
0.026789
0.0229739
0.0200046
0.0176452
0.0157378
0.0141736
0.0128749
0.011785
0.0108618
0.0100736
0.00939671
0.00881464
0.119234
0.0894856
0.0689377
0.0546109
0.0443919
0.0369007
0.0312597
0.0269088
0.0234836
0.02074
0.0185096
0.0166735
0.0151449
0.01386
0.0127704
0.0118396
0.0110397
0.0103508
0.122086
0.095084
0.075415
0.0610223
0.0503361
0.0422534
0.0360231
0.0311353
0.0272402
0.024093
0.021519
0.0193909
0.017614
0.0161174
0.0148466
0.01376
0.0128257
0.0120196
0.124546
0.100135
0.0814619
0.0671725
0.056158
0.047577
0.0408126
0.0354174
0.031066
0.0275196
0.0246012
0.0221777
0.0201481
0.0184349
0.0169782
0.0157314
0.0146583
0.0137311
0.126578
0.104396
0.0866605
0.0725515
0.0613228
0.0523526
0.0451453
0.0393148
0.0345631
0.0306611
0.0274325
0.0247409
0.0224806
0.020569
0.0189413
0.0175468
0.0163454
0.0153061
0.128011
0.107322
0.0902141
0.0762353
0.0648743
0.0556509
0.0481493
0.0420254
0.0370012
0.0328553
0.0294126
0.0265352
0.0241143
0.0220643
0.0203172
0.0188191
0.0175275
0.0164083
0.128006
0.107313
0.0902048
0.0762269
0.0648674
0.0556454
0.048145
0.0420222
0.0369988
0.0328537
0.0294117
0.0265349
0.0241147
0.0220652
0.0203185
0.0188206
0.0175287
0.0164083
0.126509
0.104255
0.0864922
0.0723807
0.0611613
0.052205
0.0450128
0.0391967
0.0344584
0.0305686
0.0273506
0.0246684
0.0224163
0.0205118
0.0188903
0.0175006
0.0163024
0.0152631
0.124267
0.0995604
0.0807712
0.0664676
0.0554886
0.0469631
0.0402594
0.0349228
0.0306248
0.0271258
0.0242488
0.0218611
0.0198626
0.0181762
0.0167426
0.0155152
0.0144575
0.0135405
0.12136
0.0936399
0.0737261
0.0593348
0.0487592
0.0408249
0.0347467
0.0300003
0.0262308
0.0231928
0.0207127
0.018665
0.0169572
0.0155198
0.0142999
0.0132567
0.0123583
0.0115798
0.117686
0.0865903
0.0656967
0.0514791
0.0415374
0.0343608
0.0290184
0.0249322
0.0217348
0.0191848
0.0171184
0.0154211
0.0140106
0.0128263
0.0118229
0.0109657
0.010228
0.00958895
0.11305
0.0784122
0.056921
0.0432687
0.0342296
0.0279652
0.0234365
0.0200435
0.0174263
0.0153597
0.0136966
0.0123369
0.0112106
0.0102671
0.00946866
0.00878719
0.00820102
0.00769347
0.107169
0.0691009
0.0476372
0.035029
0.0271566
0.021922
0.0182437
0.0155401
0.0134817
0.0118706
0.0105816
0.00953197
0.00866487
0.00793965
0.0073267
0.00680378
0.00635414
0.00596495
0.0996761
0.0587036
0.0381279
0.0270699
0.0205782
0.0164329
0.0135949
0.0115438
0.00999922
0.00879908
0.00784341
0.00706756
0.0064279
0.00589357
0.0054423
0.00505734
0.00472643
0.00444008
0.0901097
0.0473665
0.0287363
0.0196847
0.0146976
0.0116312
0.00957853
0.00811528
0.00702331
0.00617994
0.00551057
0.00496793
0.00452113
0.00414813
0.0038333
0.00356445
0.00333366
0.00313368
0.0779076
0.0353826
0.0198606
0.0131383
0.00966107
0.00759298
0.00623352
0.00527429
0.00456399
0.00401883
0.00358696
0.00323611
0.00294716
0.00270592
0.00250233
0.00232747
0.00217869
0.00204817
0.06238
0.0232554
0.0119461
0.00765493
0.00556337
0.00435256
0.00356724
0.00301639
0.00261307
0.00230794
0.00206655
0.00186719
0.00170218
0.00156416
0.00144769
0.00134441
0.0012608
0.00118219
0.0426105
0.0117794
0.0054693
0.00341385
0.00246071
0.00192006
0.00157275
0.00132885
0.00115942
0.00103848
0.000943994
0.000857685
0.000784587
0.00072151
0.000667762
0.000612319
0.000581062
0.000536615
0.0168348
0.00255985
0.00110002
0.000683428
0.000493724
0.000386804
0.000318219
0.00026631
0.000272591
0.000322006
0.000354515
0.000337161
0.000302488
0.0002618
0.000237263
0.000183811
0.00023452
0.000235735
3.99374e-09
5.91177e-07
2.00093e-06
6.28951e-06
1.08028e-05
1.35321e-05
1.32573e-05
1.17923e-05
9.06429e-06
5.94822e-06
3.52417e-06
2.02509e-06
1.40999e-06
1.50298e-06
2.06709e-06
2.56601e-06
2.45446e-06
2.06915e-06
2.54288e-06
8.67681e-06
9.02526e-06
5.55436e-06
6.75201e-06
2.6513e-05
5.67527e-05
7.4426e-05
9.09794e-05
0.000104827
0.000117048
0.000127208
0.000136112
0.000143759
0.00015045
0.000156276
0.000161358
0.000165844
0.000169819
0.000173369
0.000176552
0.00017941
0.000181975
0.000184268
0.000186309
0.000188112
0.000189692
0.000191063
0.000192235
0.000193215
0.000194004
0.000194476
0.000194974
0.000195083
0.000195144
0.000195019
0.000194721
0.000194275
0.000193676
0.000192929
0.000192035
0.000190997
0.000189816
0.000188494
0.000187035
0.000185439
0.000183711
0.000181851
0.000179861
0.000177744
0.000175502
0.000173137
0.000170653
0.000168049
0.000165329
0.000162494
0.000159545
0.000156482
0.000153306
0.000150017
0.000146612
0.000143092
0.000139452
0.000135691
0.000131804
0.000127787
0.000123632
0.00011933
0.000114869
0.000110232
0.000105399
0.000100346
9.50455e-05
8.94704e-05
8.36142e-05
7.75435e-05
7.15328e-05
6.62506e-05
6.24913e-05
6.01495e-05
5.83969e-05
5.6791e-05
5.52148e-05
5.36464e-05
5.20842e-05
5.05299e-05
4.89852e-05
4.74523e-05
4.59337e-05
4.44358e-05
4.29865e-05
4.17496e-05
4.05455e-05
3.93557e-05
3.81832e-05
3.70286e-05
3.58927e-05
3.47765e-05
3.36805e-05
3.26057e-05
3.15526e-05
3.05216e-05
2.9513e-05
2.85275e-05
2.75655e-05
2.66275e-05
2.57136e-05
2.48236e-05
2.39587e-05
2.31466e-05
2.24124e-05
2.16968e-05
2.09962e-05
2.03188e-05
1.96695e-05
1.90346e-05
1.84136e-05
1.78097e-05
1.72238e-05
1.66561e-05
1.61065e-05
1.55745e-05
1.50598e-05
1.45619e-05
1.40803e-05
1.36147e-05
1.31647e-05
1.27298e-05
1.23097e-05
1.19039e-05
1.15122e-05
1.1134e-05
1.07691e-05
1.04171e-05
1.00777e-05
9.75044e-06
9.43515e-06
9.13149e-06
8.83919e-06
8.55801e-06
8.2877e-06
8.02808e-06
7.77893e-06
7.54009e-06
7.31139e-06
7.09263e-06
6.88362e-06
6.6841e-06
6.49375e-06
6.31214e-06
6.13874e-06
5.97276e-06
5.81344e-06
5.65917e-06
5.50953e-06
5.35953e-06
5.21379e-06
5.04775e-06
4.89377e-06
4.64741e-06
4.48923e-06
3.59416e-06
1.68176e-07
6.14258e-06
6.38836e-05
0.000139687
0.000183242
0.000207007
0.000216381
0.000214888
0.000206543
0.000189839
0.000169047
0.000148912
0.000138498
0.000143712
0.000157681
0.000166603
0.000169022
0.000170206
0.00017561
0.000185312
0.000200067
0.000217506
0.00023434
0.000250842
0.000262143
0.000272046
0.000280862
0.000293708
0.000312804
0.00032675
0.000339493
0.000350417
0.000360347
0.000369445
0.000377346
0.000384558
0.000391273
0.000397715
0.000404015
0.000410238
0.00041638
0.000422399
0.000428241
0.000433865
0.000439244
0.000444361
0.000449201
0.000453752
0.000458014
0.000461988
0.000465713
0.000469155
0.000472352
0.000475294
0.000477985
0.000480427
0.00048262
0.000484565
0.000486263
0.000487714
0.000488918
0.000489877
0.000490593
0.00049107
0.000491318
0.000491343
0.000491138
0.000490702
0.000490049
0.000489183
0.000488111
0.000486839
0.000485374
0.000483722
0.000481891
0.000479888
0.00047772
0.000475394
0.000472919
0.000470301
0.000467549
0.00046467
0.000461672
0.000458564
0.000455355
0.000452051
0.000448663
0.000445197
0.000441662
0.000438065
0.000434413
0.000430711
0.000426959
0.000423149
0.000419262
0.000415272
0.000411163
0.000406963
0.000402722
0.000398465
0.0003942
0.000389931
0.000385661
0.000381394
0.000377132
0.00037288
0.00036864
0.000364415
0.000360204
0.000356006
0.00035183
0.000347682
0.000343563
0.000339475
0.00033542
0.0003314
0.000327415
0.000323469
0.000319561
0.000315694
0.000311867
0.000308082
0.00030434
0.000300642
0.000296989
0.00029338
0.000289816
0.000286296
0.000282816
0.000279382
0.000275991
0.000272652
0.000269365
0.000266115
0.000262901
0.000259728
0.000256599
0.000253515
0.000250476
0.000247482
0.000244532
0.000241625
0.000238761
0.00023594
0.00023316
0.000230422
0.000227724
0.000225067
0.000222449
0.000219871
0.000217331
0.000214831
0.000212369
0.000209946
0.000207561
0.000205216
0.000202909
0.000200642
0.000198416
0.000196232
0.000194091
0.000191995
0.000189945
0.000187944
0.000185993
0.000184093
0.000182246
0.000180451
0.000178709
0.000177018
0.000175373
0.000173773
0.000172195
0.000170681
0.00016907
0.000167747
0.000165615
0.000164899
0.000162092
0.00016072
7.68611e-07
4.45424e-05
0.00016429
0.000246526
0.00029986
0.000330182
0.000341221
0.000338352
0.000325519
0.000306245
0.000286469
0.000273746
0.000271486
0.000278166
0.000288523
0.000299353
0.000312116
0.000329071
0.000350671
0.000375833
0.000403223
0.000431579
0.000469795
0.000516182
0.000561837
0.000605994
0.000649096
0.00069277
0.00073211
0.0007634
0.000788409
0.000808234
0.000823949
0.000836418
0.000846422
0.000854739
0.000862069
0.000869055
0.000876236
0.000883967
0.000892356
0.000901279
0.000910498
0.000919774
0.000928932
0.000937851
0.000946455
0.000954697
0.000962539
0.000969955
0.00097692
0.000983406
0.000989411
0.000994926
0.000999951
0.00100448
0.00100852
0.00101207
0.00101513
0.00101769
0.00101976
0.00102134
0.00102242
0.00102296
0.00102312
0.00102284
0.00102204
0.0010208
0.00101911
0.00101699
0.00101446
0.00101151
0.00100818
0.00100446
0.00100038
0.00099595
0.000991183
0.000986096
0.000980702
0.000975018
0.000969057
0.000962837
0.00095637
0.000949674
0.000942763
0.000935652
0.000928355
0.000920887
0.000913262
0.000905492
0.000897589
0.000889566
0.000881431
0.000873192
0.000864858
0.000856437
0.000847944
0.000839393
0.0008308
0.000822181
0.000813543
0.000804898
0.000796253
0.000787614
0.000778991
0.000770389
0.000761815
0.000753275
0.000744775
0.00073632
0.000727916
0.000719568
0.00071128
0.000703058
0.000694904
0.000686821
0.000678814
0.000670884
0.000663035
0.000655269
0.000647587
0.000639992
0.000632486
0.00062507
0.000617745
0.000610513
0.000603373
0.000596326
0.000589372
0.000582513
0.000575748
0.000569079
0.000562502
0.000556013
0.000549611
0.000543298
0.000537075
0.000530944
0.000524904
0.000518955
0.000513096
0.000507327
0.000501645
0.00049605
0.000490541
0.000485117
0.000479777
0.000474519
0.000469342
0.000464245
0.000459228
0.000454288
0.000449425
0.000444638
0.000439926
0.000435287
0.00043072
0.000426225
0.0004218
0.000417444
0.000413155
0.000408933
0.000404774
0.000400676
0.000396639
0.000392657
0.000388726
0.000384843
0.000380999
0.000377186
0.000373393
0.000369604
0.000365796
0.000361948
0.000357989
0.000353948
0.000349466
0.000345073
0.000338582
0.000327124
5.07096e-07
8.12906e-05
0.000212973
0.000309208
0.000372992
0.000410405
0.000425979
0.000426369
0.000416357
0.000402953
0.000394796
0.000393959
0.000403186
0.000420398
0.000443154
0.000470909
0.000504263
0.000543574
0.000588031
0.000650271
0.000724136
0.000803928
0.000888191
0.000958852
0.00102128
0.00107741
0.00112782
0.00117272
0.00121199
0.00124587
0.00127512
0.00130045
0.00132257
0.00134211
0.00135965
0.00137567
0.0013906
0.00140476
0.00141842
0.00143178
0.00144494
0.00145799
0.00147095
0.00148381
0.0014965
0.00150896
0.0015211
0.0015328
0.00154399
0.00155459
0.00156454
0.00157382
0.00158239
0.00159025
0.00159739
0.0016038
0.00160947
0.00161441
0.00161861
0.00162207
0.00162479
0.00162677
0.00162793
0.00162837
0.00162824
0.00162733
0.0016257
0.00162338
0.00162039
0.00161673
0.00161243
0.00160751
0.00160199
0.00159589
0.00158923
0.00158204
0.00157433
0.00156614
0.00155747
0.00154836
0.00153883
0.0015289
0.0015186
0.00150795
0.00149696
0.00148567
0.0014741
0.00146226
0.00145018
0.00143788
0.00142538
0.0014127
0.00139985
0.00138685
0.00137372
0.00136047
0.00134712
0.00133369
0.0013202
0.00130666
0.0012931
0.00127953
0.00126596
0.0012524
0.00123886
0.00122536
0.0012119
0.0011985
0.00118516
0.00117189
0.0011587
0.0011456
0.00113259
0.00111969
0.00110689
0.0010942
0.00108163
0.00106918
0.00105685
0.00104465
0.00103259
0.00102066
0.00100887
0.000997211
0.000985699
0.000974329
0.000963102
0.00095202
0.000941083
0.000930293
0.000919649
0.000909151
0.000898796
0.00088858
0.000878503
0.000868566
0.000858769
0.000849113
0.000839597
0.000830222
0.000820986
0.000811887
0.000802925
0.000794097
0.000785402
0.000776838
0.000768403
0.000760095
0.000751914
0.000743856
0.00073592
0.000728105
0.000720408
0.000712827
0.000705362
0.00069801
0.000690769
0.000683637
0.000676612
0.000669692
0.000662874
0.000656157
0.000649537
0.00064301
0.000636572
0.000630219
0.000623945
0.000617741
0.000611599
0.000605505
0.000599444
0.000593394
0.000587326
0.000581203
0.000574959
0.00056854
0.000561763
0.000554571
0.000546328
0.000530137
1.49348e-06
0.00010206
0.000235126
0.000355063
0.00043398
0.000481489
0.000505127
0.000513596
0.00051517
0.000516158
0.000523037
0.0005392
0.000565258
0.000600245
0.000643373
0.000694658
0.000754745
0.000838166
0.00093384
0.00103006
0.00111907
0.00120346
0.00128281
0.00135551
0.00142227
0.00148368
0.00154015
0.001592
0.0016396
0.00168337
0.0017238
0.00176137
0.0017965
0.00182958
0.00186092
0.00189076
0.0019193
0.00194669
0.00197302
0.00199834
0.00202271
0.00204611
0.00206856
0.00209002
0.00211049
0.00212992
0.00214829
0.00216557
0.00218172
0.00219674
0.00221062
0.00222335
0.00223494
0.00224541
0.00225478
0.00226306
0.00227028
0.00227645
0.00228157
0.00228568
0.00228877
0.00229082
0.00229174
0.00229183
0.00229095
0.00228907
0.00228624
0.00228247
0.00227778
0.0022722
0.00226575
0.00225847
0.00225037
0.00224149
0.00223186
0.00222151
0.00221046
0.00219876
0.00218643
0.0021735
0.00216
0.00214597
0.00213143
0.00211643
0.00210097
0.00208511
0.00206886
0.00205227
0.00203535
0.00201813
0.00200065
0.00198292
0.00196498
0.00194684
0.00192853
0.00191008
0.0018915
0.00187282
0.00185406
0.00183525
0.0018164
0.00179754
0.00177869
0.00175985
0.00174105
0.0017223
0.00170361
0.001685
0.00166648
0.00164805
0.00162974
0.00161155
0.00159349
0.00157557
0.0015578
0.00154018
0.00152272
0.00150543
0.00148831
0.00147137
0.0014546
0.00143803
0.00142164
0.00140544
0.00138943
0.00137362
0.00135801
0.00134259
0.00132737
0.00131235
0.00129754
0.00128292
0.00126849
0.00125426
0.00124022
0.00122638
0.00121273
0.00119926
0.00118599
0.00117292
0.00116003
0.00114732
0.00113481
0.00112247
0.00111032
0.00109834
0.00108654
0.00107492
0.00106346
0.00105218
0.00104106
0.0010301
0.0010193
0.00100866
0.000998181
0.000987851
0.000977671
0.000967639
0.000957751
0.000948006
0.000938399
0.000928927
0.000919586
0.000910371
0.000901279
0.000892301
0.000883431
0.00087466
0.000865976
0.000857364
0.000848805
0.000840274
0.000831737
0.000823151
0.000814448
0.000805557
0.000796313
0.000786569
0.000776601
0.00075678
2.27175e-06
0.000118203
0.000256371
0.000390156
0.000487245
0.000549164
0.000587029
0.000610493
0.000628252
0.000647578
0.000673722
0.000709335
0.000755154
0.00081145
0.000878629
0.000969134
0.00107427
0.00117599
0.00127521
0.00137071
0.00146142
0.00154741
0.00162866
0.00170511
0.00177708
0.00184489
0.00190891
0.00196946
0.00202687
0.00208148
0.0021336
0.00218353
0.00223152
0.00227776
0.00232243
0.00236564
0.00240749
0.00244803
0.00248729
0.00252527
0.00256198
0.0025974
0.00263149
0.00266423
0.00269557
0.00272547
0.0027539
0.00278081
0.00280616
0.00282993
0.00285209
0.00287261
0.00289148
0.00290868
0.00292422
0.00293808
0.00295028
0.00296082
0.00296972
0.00297698
0.00298264
0.00298672
0.00298914
0.00299004
0.00298958
0.00298761
0.00298427
0.00297956
0.00297356
0.00296631
0.00295786
0.00294827
0.00293758
0.00292586
0.00291314
0.00289947
0.00288491
0.00286949
0.00285327
0.00283628
0.00281857
0.00280017
0.00278114
0.00276151
0.00274132
0.00272061
0.00269942
0.00267779
0.00265576
0.00263336
0.00261063
0.0025876
0.0025643
0.00254077
0.00251704
0.00249313
0.00246908
0.0024449
0.00242064
0.00239632
0.00237196
0.00234758
0.00232322
0.00229888
0.0022746
0.00225038
0.00222625
0.00220222
0.0021783
0.00215452
0.00213088
0.0021074
0.00208408
0.00206095
0.002038
0.00201526
0.00199272
0.00197039
0.00194828
0.00192639
0.00190474
0.00188332
0.00186215
0.00184121
0.00182052
0.00180008
0.00177989
0.00175995
0.00174027
0.00172083
0.00170165
0.00168272
0.00166404
0.00164561
0.00162742
0.00160948
0.00159178
0.00157433
0.00155712
0.00154015
0.00152341
0.00150692
0.00149066
0.00147463
0.00145882
0.00144324
0.00142789
0.00141275
0.00139783
0.00138312
0.00136861
0.00135432
0.00134022
0.00132633
0.00131263
0.00129912
0.0012858
0.00127267
0.00125972
0.00124695
0.00123435
0.00122192
0.00120966
0.00119756
0.00118561
0.00117381
0.00116215
0.00115061
0.00113919
0.00112788
0.00111663
0.00110544
0.00109427
0.00108306
0.00107176
0.00106028
0.00104847
0.00103625
0.00102407
0.00100159
2.80562e-06
0.000126822
0.000269282
0.00040773
0.000526506
0.000608042
0.000664248
0.000706258
0.000743317
0.00078269
0.000829434
0.000886499
0.000955508
0.00104784
0.00115484
0.00126145
0.00136756
0.00147093
0.001571
0.00166736
0.00175975
0.00184819
0.00193275
0.00201361
0.002091
0.0021652
0.00223648
0.00230511
0.00237134
0.00243542
0.00249754
0.0025579
0.00261663
0.00267386
0.00272967
0.00278411
0.00283723
0.00288903
0.00293951
0.00298864
0.00303641
0.00308277
0.00312768
0.00317109
0.00321295
0.0032532
0.00329179
0.00332868
0.0033638
0.00339712
0.00342858
0.00345816
0.00348582
0.00351152
0.00353524
0.00355697
0.00357667
0.00359436
0.00361001
0.00362363
0.00363523
0.00364481
0.00365239
0.00365801
0.00366166
0.00366328
0.00366319
0.0036612
0.00365743
0.00365191
0.0036447
0.00363586
0.00362545
0.00361352
0.00360013
0.00358536
0.00356928
0.00355193
0.0035334
0.00351375
0.00349305
0.00347136
0.00344876
0.0034253
0.00340105
0.00337607
0.00335043
0.00332417
0.00329737
0.00327006
0.00324231
0.00321415
0.00318565
0.00315683
0.00312775
0.00309844
0.00306894
0.00303929
0.00300952
0.00297967
0.00294977
0.00291985
0.00288994
0.00286006
0.00283023
0.00280049
0.00277085
0.00274133
0.00271195
0.00268273
0.00265368
0.00262482
0.00259617
0.00256774
0.00253953
0.00251156
0.00248384
0.00245638
0.00242919
0.00240226
0.00237562
0.00234926
0.00232319
0.00229741
0.00227193
0.00224675
0.00222187
0.00219729
0.00217302
0.00214905
0.00212538
0.00210202
0.00207896
0.0020562
0.00203374
0.00201157
0.00198969
0.00196811
0.00194682
0.00192582
0.00190511
0.00188468
0.00186453
0.00184465
0.00182506
0.00180573
0.00178667
0.00176787
0.00174932
0.00173104
0.001713
0.00169521
0.00167767
0.00166036
0.00164329
0.00162645
0.00160984
0.00159345
0.00157728
0.00156133
0.00154558
0.00153004
0.0015147
0.00149956
0.0014846
0.00146983
0.00145522
0.00144078
0.00142648
0.00141231
0.00139824
0.00138426
0.00137031
0.00135636
0.00134234
0.00132817
0.00131369
0.00129894
0.00128392
0.00125967
2.94251e-06
0.000128736
0.00027067
0.000407309
0.000538111
0.000641782
0.000719047
0.000780501
0.000836306
0.000894165
0.000961773
0.00105374
0.00116338
0.00128511
0.00140069
0.00151197
0.0016198
0.00172438
0.00182563
0.00192351
0.002018
0.0021092
0.00219726
0.00228236
0.00236471
0.00244454
0.00252208
0.00259754
0.0026711
0.00274294
0.0028132
0.002882
0.00294944
0.00301556
0.00308042
0.00314404
0.00320641
0.00326752
0.00332735
0.00338584
0.00344297
0.00349866
0.00355286
0.00360551
0.00365654
0.00370589
0.0037535
0.00379929
0.00384321
0.0038852
0.0039252
0.00396317
0.00399905
0.00403281
0.00406441
0.0040938
0.00412098
0.00414591
0.00416858
0.00418899
0.00420711
0.00422296
0.00423654
0.00424787
0.00425696
0.00426383
0.00426855
0.00427101
0.00427144
0.00426979
0.00426612
0.00426048
0.00425291
0.00424349
0.00423225
0.00421928
0.00420463
0.00418838
0.00417058
0.00415131
0.00413065
0.00410865
0.00408541
0.00406098
0.00403544
0.00400886
0.00398132
0.00395287
0.0039236
0.00389357
0.00386284
0.00383148
0.00379955
0.0037671
0.0037342
0.00370091
0.00366726
0.00363333
0.00359915
0.00356477
0.00353024
0.00349561
0.0034609
0.00342616
0.00339143
0.00335673
0.0033221
0.00328756
0.00325314
0.00321887
0.00318477
0.00315085
0.00311715
0.00308367
0.00305043
0.00301745
0.00298474
0.00295231
0.00292018
0.00288834
0.00285682
0.00282562
0.00279474
0.0027642
0.00273399
0.00270411
0.00267459
0.0026454
0.00261657
0.00258808
0.00255993
0.00253214
0.00250469
0.00247759
0.00245083
0.00242441
0.00239833
0.00237259
0.00234718
0.00232211
0.00229737
0.00227295
0.00224886
0.00222509
0.00220164
0.0021785
0.00215567
0.00213314
0.00211092
0.00208899
0.00206735
0.00204599
0.00202493
0.00200413
0.00198362
0.00196337
0.00194339
0.00192367
0.00190421
0.00188499
0.00186603
0.00184731
0.00182882
0.00181056
0.00179252
0.0017747
0.00175708
0.00173966
0.00172241
0.00170532
0.00168836
0.00167152
0.00165474
0.00163797
0.00162116
0.00160423
0.00158703
0.00156963
0.0015517
0.00152555
2.75944e-06
0.000125269
0.000264045
0.00039577
0.000520543
0.000633075
0.000727064
0.000808271
0.000891339
0.000986689
0.00109594
0.00122064
0.00135705
0.00148458
0.00160488
0.00171991
0.00183062
0.0019374
0.00204055
0.00214042
0.00223725
0.00233122
0.00242254
0.0025114
0.00259802
0.0026826
0.00276533
0.00284637
0.0029259
0.00300403
0.00308086
0.00315649
0.00323097
0.00330432
0.00337657
0.0034477
0.0035177
0.00358653
0.00365413
0.00372046
0.00378544
0.00384902
0.0039111
0.00397162
0.0040305
0.00408766
0.00414303
0.00419652
0.00424806
0.0042976
0.00434505
0.00439037
0.00443349
0.00447436
0.00451294
0.00454919
0.00458306
0.00461455
0.00464361
0.00467023
0.00469441
0.00471614
0.00473542
0.00475225
0.00476665
0.00477864
0.00478825
0.00479548
0.00480041
0.00480298
0.00480337
0.00480155
0.00479759
0.00479152
0.00478342
0.00477334
0.00476134
0.00474748
0.00473184
0.00471449
0.00469548
0.00467489
0.0046528
0.00462927
0.00460439
0.00457821
0.00455083
0.0045223
0.0044927
0.00446211
0.00443058
0.0043982
0.00436502
0.00433111
0.00429655
0.00426138
0.00422567
0.00418948
0.00415287
0.00411589
0.00407861
0.00404106
0.00400331
0.00396538
0.00392734
0.00388922
0.00385106
0.00381289
0.00377476
0.0037367
0.00369873
0.00366088
0.00362319
0.00358568
0.00354836
0.00351126
0.00347441
0.00343781
0.00340149
0.00336545
0.00332972
0.0032943
0.0032592
0.00322444
0.00319002
0.00315595
0.00312223
0.00308887
0.00305588
0.00302325
0.00299099
0.00295911
0.00292759
0.00289645
0.00286567
0.00283527
0.00280524
0.00277557
0.00274627
0.00271734
0.00268876
0.00266055
0.0026327
0.0026052
0.00257805
0.00255125
0.00252479
0.00249868
0.00247289
0.00244744
0.00242231
0.0023975
0.00237302
0.00234884
0.00232497
0.00230141
0.00227815
0.00225518
0.0022325
0.00221011
0.002188
0.00216616
0.0021446
0.00212329
0.00210224
0.00208143
0.00206086
0.00204052
0.00202038
0.00200042
0.00198063
0.00196097
0.0019414
0.00192188
0.00190232
0.00188267
0.00186278
0.00184272
0.00182197
0.00179364
2.34439e-06
0.00011799
0.000252849
0.000380975
0.000503948
0.000620484
0.000731379
0.000840495
0.00095543
0.00108134
0.00121946
0.00136925
0.00151156
0.00164355
0.00176782
0.00188625
0.00199997
0.00210962
0.00221559
0.00231808
0.00241748
0.00251419
0.00260849
0.00270065
0.00279089
0.00287942
0.00296641
0.00305203
0.0031364
0.00321964
0.00330183
0.00338303
0.00346327
0.00354257
0.00362091
0.00369828
0.00377463
0.00384991
0.00392405
0.00399698
0.00406862
0.00413889
0.0042077
0.00427496
0.00434057
0.00440444
0.00446649
0.00452664
0.00458479
0.00464087
0.0046948
0.00474652
0.00479596
0.00484305
0.00488776
0.00493003
0.00496981
0.00500709
0.00504182
0.00507399
0.00510359
0.0051306
0.00515502
0.00517685
0.00519612
0.00521282
0.00522699
0.00523864
0.00524781
0.00525454
0.00525886
0.00526079
0.00526045
0.00525784
0.00525302
0.00524606
0.00523701
0.00522593
0.00521289
0.00519795
0.00518119
0.00516267
0.00514246
0.00512064
0.00509728
0.00507246
0.00504623
0.00501869
0.00498989
0.00495991
0.00492883
0.0048967
0.00486361
0.00482961
0.00479478
0.00475918
0.00472287
0.00468591
0.00464838
0.00461032
0.0045718
0.00453287
0.00449359
0.004454
0.00441416
0.00437411
0.00433391
0.00429358
0.00425317
0.00421273
0.00417228
0.00413186
0.00409151
0.00405125
0.00401111
0.00397113
0.00393132
0.0038917
0.00385231
0.00381315
0.00377425
0.00373562
0.00369728
0.00365924
0.00362152
0.00358412
0.00354706
0.00351034
0.00347397
0.00343795
0.0034023
0.00336701
0.0033321
0.00329756
0.00326339
0.00322959
0.00319618
0.00316314
0.00313047
0.00309819
0.00306628
0.00303474
0.00300358
0.00297279
0.00294237
0.00291231
0.00288262
0.00285329
0.00282431
0.00279569
0.00276741
0.00273948
0.00271189
0.00268464
0.00265772
0.00263113
0.00260486
0.00257892
0.00255329
0.00252797
0.00250296
0.00247825
0.00245384
0.00242972
0.00240587
0.0023823
0.00235899
0.00233593
0.0023131
0.00229048
0.00226804
0.00224576
0.00222359
0.00220149
0.00217937
0.00215717
0.00213477
0.00211219
0.00208889
0.00205823
1.9269e-06
0.000110308
0.000242564
0.000369909
0.000495651
0.000620085
0.000745014
0.00087451
0.00101188
0.00115922
0.00131665
0.00147846
0.00162627
0.00176272
0.00189083
0.00201259
0.00212929
0.00224173
0.00235047
0.00245588
0.00255827
0.00265783
0.002755
0.00285014
0.00294353
0.0030354
0.00312596
0.00321536
0.00330375
0.00339121
0.00347782
0.00356363
0.00364866
0.00373291
0.00381636
0.00389896
0.00398067
0.00406141
0.0041411
0.00421966
0.004297
0.00437301
0.00444759
0.00452065
0.00459207
0.00466176
0.00472962
0.00479554
0.00485944
0.00492123
0.00498083
0.00503815
0.00509313
0.0051457
0.0051958
0.00524338
0.00528839
0.00533081
0.00537058
0.0054077
0.00544213
0.00547388
0.00550293
0.00552929
0.00555297
0.00557397
0.00559232
0.00560804
0.00562116
0.00563172
0.00563975
0.00564529
0.0056484
0.00564912
0.00564752
0.00564364
0.00563755
0.0056293
0.00561896
0.0056066
0.00559227
0.00557606
0.00555803
0.00553825
0.00551679
0.00549373
0.00546914
0.00544309
0.00541565
0.0053869
0.0053569
0.00532573
0.00529345
0.00526014
0.00522585
0.00519066
0.00515462
0.00511782
0.0050803
0.00504213
0.00500337
0.00496407
0.0049243
0.00488411
0.00484354
0.00480265
0.00476149
0.00472009
0.00467852
0.0046368
0.00459498
0.00455309
0.00451118
0.00446927
0.00442741
0.00438561
0.00434391
0.00430233
0.00426091
0.00421966
0.0041786
0.00413776
0.00409715
0.0040568
0.00401671
0.00397691
0.0039374
0.00389819
0.0038593
0.00382074
0.00378252
0.00374464
0.0037071
0.00366992
0.0036331
0.00359663
0.00356054
0.00352481
0.00348945
0.00345446
0.00341984
0.00338559
0.00335172
0.00331822
0.00328508
0.00325232
0.00321993
0.0031879
0.00315623
0.00312493
0.00309398
0.00306339
0.00303315
0.00300326
0.00297371
0.00294451
0.00291565
0.00288712
0.00285892
0.00283105
0.00280351
0.00277628
0.00274937
0.00272276
0.00269645
0.00267044
0.0026447
0.00261923
0.00259402
0.00256903
0.00254425
0.00251964
0.00249516
0.00247076
0.00244637
0.00242192
0.0023973
0.00237249
0.00234699
0.00231417
1.54351e-06
0.000102168
0.000232073
0.000359055
0.000487723
0.000618993
0.000755528
0.000899244
0.00105187
0.00121394
0.00138596
0.00155194
0.00170373
0.00184405
0.00197566
0.00210054
0.00222005
0.0023351
0.00244637
0.00255435
0.00265943
0.0027619
0.00286205
0.00296005
0.00305634
0.0031512
0.00324487
0.00333753
0.00342933
0.00352038
0.00361075
0.00370048
0.00378958
0.00387804
0.00396583
0.00405291
0.0041392
0.00422463
0.00430909
0.0043925
0.00447475
0.00455573
0.00463531
0.0047134
0.00478987
0.00486462
0.00493753
0.0050085
0.00507742
0.00514421
0.00520877
0.00527101
0.00533087
0.00538826
0.00544313
0.00549542
0.00554508
0.00559206
0.00563634
0.00567788
0.00571666
0.00575268
0.00578592
0.00581638
0.00584407
0.00586901
0.0058912
0.00591068
0.00592747
0.00594161
0.00595312
0.00596206
0.00596847
0.00597239
0.00597388
0.00597301
0.00596984
0.00596441
0.00595679
0.00594704
0.00593523
0.00592143
0.0059057
0.00588813
0.00586878
0.00584772
0.00582502
0.00580077
0.00577502
0.00574785
0.00571932
0.00568952
0.00565851
0.00562635
0.00559311
0.00555886
0.00552366
0.00548759
0.0054507
0.00541305
0.00537471
0.00533573
0.00529617
0.00525609
0.00521553
0.00517455
0.0051332
0.00509153
0.00504958
0.0050074
0.00496502
0.00492249
0.00487985
0.00483713
0.00479438
0.00475161
0.00470886
0.00466617
0.00462355
0.00458104
0.00453866
0.00449644
0.00445439
0.00441254
0.00437089
0.00432948
0.00428832
0.00424741
0.00420678
0.00416644