/*--------------------------------*- C++ -*----------------------------------*\
  =========                 |
  \\      /  F ield         | OpenFOAM: The Open Source CFD Toolbox
   \\    /   O peration     | Website:  https://openfoam.org
    \\  /    A nd           | Version:  8
     \\/     M anipulation  |
\*---------------------------------------------------------------------------*/
FoamFile
{
    version     2.0;
    format      ascii;
    class       volScalarField;
    location    "1100";
    object      p;
}
// * * * * * * * * * * * * * * * * * * * * * * * * * * * * * * * * * * * * * //

dimensions      [0 2 -2 0 0 0 0];

internalField   nonuniform List<scalar> 
12225
(
514.676
55.5282
2.36386
0.281748
-1.89872
-3.37427
-3.8115
-4.02191
-4.23165
-4.36854
-4.41568
-4.42529
-4.42828
-4.45622
-4.50959
-4.57602
-4.72137
-4.94385
-122.179
0.23895
-2.71836
-0.765047
-2.21641
-3.52486
-3.95258
-4.13667
-4.28035
-4.38434
-4.45925
-4.51756
-4.56849
-4.60086
-4.62178
-4.64729
-4.71389
-4.80784
-200.645
-16.1483
-2.34638
-0.35827
-1.90075
-3.24473
-3.77213
-4.02237
-4.19505
-4.31931
-4.41199
-4.47918
-4.5278
-4.55302
-4.56806
-4.58359
-4.61544
-4.59858
-110.616
-10.974
-2.17708
-0.431977
-1.78768
-3.02875
-3.60124
-3.90842
-4.11768
-4.26348
-4.36584
-4.43651
-4.48522
-4.51378
-4.5311
-4.53891
-4.53785
-4.46914
-61.5728
-8.1458
-3.62254
-1.20998
-2.0152
-2.99831
-3.52919
-3.84896
-4.07146
-4.22614
-4.33377
-4.40841
-4.45976
-4.49086
-4.50613
-4.50349
-4.47728
-4.38712
-45.7308
-8.78524
-5.25875
-2.20032
-2.42994
-3.10109
-3.53655
-3.83352
-4.0495
-4.20332
-4.31236
-4.38908
-4.44152
-4.47243
-4.48397
-4.4732
-4.43311
-4.33855
-35.7946
-9.27649
-6.38054
-3.12476
-2.92196
-3.29005
-3.60396
-3.85485
-4.05026
-4.19544
-4.30142
-4.3772
-4.42881
-4.45853
-4.46745
-4.45283
-4.40884
-4.32177
-27.7781
-8.90727
-6.974
-3.80302
-3.36203
-3.49887
-3.70093
-3.90042
-4.06978
-4.20204
-4.3018
-4.37454
-4.42445
-4.45328
-4.46161
-4.44729
-4.4063
-4.33156
-21.6901
-8.52023
-7.1347
-4.31088
-3.72933
-3.70648
-3.81677
-3.96512
-4.10542
-4.22169
-4.31275
-4.38081
-4.42826
-4.4562
-4.46489
-4.45292
-4.41792
-4.35692
-16.6128
-8.14091
-7.08836
-4.75577
-4.08363
-3.93485
-3.95972
-4.05317
-4.15953
-4.25574
-4.33519
-4.3968
-4.44102
-4.4682
-4.47838
-4.47089
-4.44496
-4.40047
-12.6391
-7.6811
-6.90638
-5.10207
-4.40726
-4.17082
-4.12242
-4.16197
-4.23217
-4.30553
-4.37112
-4.42484
-4.46534
-4.49214
-4.50514
-4.50429
-4.49002
-4.46385
-9.69924
-7.14901
-6.62948
-5.32691
-4.67912
-4.39763
-4.29495
-4.28723
-4.3224
-4.37206
-4.42258
-4.46761
-4.50426
-4.53132
-4.54848
-4.55608
-4.55518
-4.54789
-7.6663
-6.60496
-6.30625
-5.43189
-4.88356
-4.59777
-4.46415
-4.421
-4.42628
-4.45406
-4.49005
-4.52664
-4.55995
-4.58814
-4.61065
-4.62785
-4.64093
-4.65184
-6.37121
-6.1133
-5.98598
-5.44062
-5.01621
-4.75803
-4.6166
-4.55294
-4.53693
-4.54752
-4.57159
-4.60143
-4.63269
-4.66312
-4.69188
-4.71912
-4.74571
-4.77307
-5.62296
-5.72264
-5.70929
-5.39113
-5.08621
-4.8733
-4.74208
-4.67252
-4.64552
-4.64572
-4.66237
-4.68847
-4.71974
-4.75376
-4.7894
-4.82644
-4.86525
-4.90659
-5.24365
-5.46045
-5.50837
-5.32782
-5.11529
-4.94822
-4.83594
-4.77094
-4.74225
-4.73939
-4.75406
-4.78034
-4.81427
-4.85342
-4.8964
-4.94259
-4.99188
-5.04445
-5.10241
-5.34454
-5.41721
-5.29921
-5.13517
-4.99605
-4.89839
-4.84048
-4.81536
-4.81516
-4.833
-4.86359
-4.90318
-4.94922
-5.00012
-5.05491
-5.11309
-5.17442
-5.14013
-5.40034
-5.47443
-5.34827
-5.17445
-5.02871
-4.92843
-4.87121
-4.84928
-4.85411
-4.8783
-4.91613
-4.96349
-5.01757
-5.07648
-5.139
-5.20439
-5.27221
-5.39241
-5.65477
-5.69046
-5.47532
-5.22608
-5.03569
-4.91457
-4.85148
-4.83242
-4.84469
-4.87833
-4.92616
-4.9833
-5.04649
-5.11366
-5.18345
-5.25508
-5.3281
-6.00179
-6.13659
-6.04235
-5.63482
-5.24681
-4.98703
-4.84049
-4.77553
-4.76601
-4.79237
-4.84092
-4.90276
-4.9723
-5.04612
-5.12217
-5.19926
-5.27674
-5.35438
-7.24941
-6.88923
-6.49389
-5.76157
-5.18278
-4.85264
-4.69601
-4.64585
-4.65977
-4.71028
-4.7805
-4.86053
-4.94483
-5.03038
-5.11563
-5.19986
-5.28278
-5.36452
-9.64091
-7.96429
-6.9823
-5.77158
-4.97924
-4.61182
-4.48159
-4.47335
-4.52819
-4.61351
-4.71126
-4.8124
-4.9125
-5.00978
-5.10372
-5.19433
-5.28191
-5.36697
-13.9821
-9.39077
-7.40288
-5.56924
-4.59444
-4.26388
-4.21472
-4.27935
-4.39148
-4.51894
-4.64704
-4.76954
-4.88461
-4.99215
-5.09315
-5.18875
-5.27973
-5.36706
-20.8897
-10.9537
-7.5539
-5.05695
-4.01556
-3.83553
-3.92965
-4.09378
-4.27187
-4.44269
-4.59923
-4.74046
-4.86755
-4.98251
-5.08809
-5.18664
-5.27945
-5.36769
-29.7363
-11.9491
-7.03324
-4.12584
-3.26376
-3.37768
-3.67075
-3.94651
-4.18881
-4.3968
-4.57535
-4.7296
-4.86417
-4.98291
-5.09021
-5.18971
-5.28265
-5.3704
-43.1062
-12.6137
-5.47252
-2.72868
-2.41298
-2.96316
-3.48398
-3.86209
-4.15332
-4.38558
-4.57728
-4.73732
-4.87382
-4.99167
-5.09802
-5.19704
-5.28892
-5.37526
-84.5992
-17.3732
-3.66383
-1.26517
-1.69575
-2.72156
-3.43591
-3.86967
-4.17317
-4.41025
-4.60618
-4.76729
-4.89911
-5.0084
-5.10905
-5.20579
-5.29499
-5.37908
-177.885
-26.8493
-3.6799
-0.769953
-1.53483
-2.8428
-3.61382
-4.01498
-4.27079
-4.4668
-4.65055
-4.81526
-4.95222
-5.05058
-5.13798
-5.22908
-5.30733
-5.38187
-154.79
-9.62702
-3.27213
-1.06803
-1.84284
-3.22061
-3.91343
-4.22475
-4.41722
-4.55869
-4.70179
-4.85353
-5.00586
-5.11961
-5.21011
-5.3027
-5.37689
-5.44273
428.057
66.6058
7.05622
1.59968
-0.915342
-2.85667
-3.65271
-3.99443
-4.31
-4.5767
-4.7071
-4.75526
-4.80101
-4.90459
-5.02431
-5.11946
-5.22581
-5.33237
-8.52533
-8.5125
-8.50186
-8.54324
-8.63628
-8.73998
-8.8199
-8.85992
-8.86357
-8.8459
-8.81848
-8.78991
-8.76824
-8.75943
-8.76444
-8.77707
-8.78829
-8.79342
-8.79265
-8.79059
-8.79508
-8.82779
-8.91802
-9.08939
-9.34241
-9.66019
-10.0313
-10.4451
-10.8862
-11.3382
-11.7862
-12.2182
-12.6249
-12.9997
-13.3383
-13.6383
-13.8986
-14.1194
-14.3011
-14.445
-14.5521
-14.6239
-14.6618
-14.6672
-14.6412
-14.5853
-14.5011
-14.3909
-14.256
-14.0941
-13.9027
-13.683
-13.4378
-13.1688
-12.8772
-12.5642
-12.2307
-11.8778
-11.5065
-11.1178
-10.7129
-10.2928
-9.85872
-9.41178
-8.95317
-8.48406
-8.00567
-7.51919
-7.02581
-6.52672
-6.02308
-5.51603
-5.00669
-4.49613
-3.98541
-3.47551
-2.9674
-2.462
-1.96015
-1.46268
-0.970328
-0.483805
-0.00375709
0.469225
0.934605
1.3919
1.84069
2.2806
2.71131
3.13256
3.54416
3.94591
4.33766
4.71937
5.09128
5.45342
5.8053
6.14655
6.47714
6.79732
7.10731
7.40734
7.69758
7.97821
8.24942
8.51142
8.7644
9.00859
9.24421
9.47146
9.69057
9.90178
10.1053
10.3015
10.4905
10.6726
10.848
11.0169
11.1797
11.3364
11.4874
11.6329
11.7731
11.9081
12.0383
12.1637
12.2846
12.4012
12.5136
12.6221
12.7267
12.8278
12.9257
13.0204
13.1119
13.2002
13.2855
13.368
13.4477
13.5249
13.5996
13.6719
13.7419
13.8098
13.8756
13.9394
14.0012
14.0612
14.1193
14.1757
14.2305
14.2836
14.3351
14.3851
14.4336
14.4806
14.5261
14.5703
14.6131
14.6545
14.6946
14.7333
14.7707
14.8069
14.8417
14.8753
14.9077
14.939
14.9691
14.9983
15.0266
15.0543
15.0818
15.1094
15.1381
15.1689
15.2043
15.2459
15.3038
15.3643
-8.58278
-8.61404
-8.68799
-8.7816
-8.88507
-8.97728
-9.03853
-9.06291
-9.04586
-8.9854
-8.89564
-8.79881
-8.71719
-8.66591
-8.64384
-8.64064
-8.6502
-8.67565
-8.71093
-8.73117
-8.75551
-8.83348
-8.99324
-9.23282
-9.5397
-9.9107
-10.3365
-10.7966
-11.2695
-11.7373
-12.1874
-12.6106
-13.0004
-13.3529
-13.6664
-13.9406
-14.176
-14.3735
-14.5343
-14.6596
-14.7506
-14.8083
-14.8337
-14.8278
-14.7913
-14.7249
-14.6291
-14.5037
-14.3495
-14.1695
-13.9674
-13.7435
-13.4968
-13.2275
-12.9363
-12.6239
-12.2911
-11.939
-11.5685
-11.1805
-10.7763
-10.3569
-9.92341
-9.477
-9.01883
-8.55009
-8.07198
-7.5857
-7.09244
-6.59338
-6.0897
-5.58252
-5.07297
-4.56212
-4.05102
-3.54068
-3.03205
-2.52604
-2.02353
-1.52532
-1.03217
-0.54479
-0.0638268
0.410119
0.876504
1.33484
1.78467
2.22562
2.65733
3.0795
3.49187
3.89419
4.28625
4.66793
5.03932
5.40063
5.75206
6.09364
6.42521
6.74667
7.05806
7.3595
7.65115
7.93318
8.20576
8.4691
8.7234
8.96887
9.20574
9.43426
9.65464
9.86711
10.0719
10.2693
10.4594
10.6427
10.8192
10.9892
11.153
11.3109
11.4629
11.6094
11.7505
11.8865
12.0177
12.1442
12.2662
12.3839
12.4974
12.6069
12.7126
12.8145
12.9126
13.0073
13.0989
13.1874
13.2729
13.3557
13.4357
13.5132
13.5882
13.6608
13.7312
13.7994
13.8654
13.9295
13.9916
14.0519
14.1103
14.167
14.222
14.2754
14.3271
14.3773
14.426
14.4733
14.5191
14.5634
14.6064
14.648
14.6883
14.7272
14.7648
14.801
14.8361
14.8698
14.9023
14.9337
14.964
14.9933
15.0217
15.0496
15.0771
15.1049
15.1336
15.1643
15.1991
15.2387
15.2923
15.3422
-8.70981
-8.79164
-8.90961
-9.01544
-9.09833
-9.15217
-9.1728
-9.15898
-9.1094
-9.02631
-8.91877
-8.80339
-8.70363
-8.63908
-8.61033
-8.6055
-8.62451
-8.68124
-8.78485
-8.9319
-9.12224
-9.363
-9.65705
-9.99618
-10.3682
-10.7639
-11.1734
-11.5847
-11.9872
-12.3738
-12.7398
-13.0813
-13.3957
-13.6813
-13.9371
-14.1625
-14.3575
-14.522
-14.6563
-14.7607
-14.8356
-14.8813
-14.8984
-14.8871
-14.8481
-14.7816
-14.6881
-14.5676
-14.42
-14.2463
-14.048
-13.826
-13.5809
-13.3133
-13.0238
-12.7132
-12.3823
-12.032
-11.6632
-11.277
-10.8744
-10.4564
-10.0242
-9.57897
-9.12184
-8.65399
-8.17663
-7.69095
-7.19815
-6.6994
-6.19589
-5.68874
-5.17909
-4.66801
-4.15656
-3.64575
-3.13654
-2.62985
-2.12655
-1.62746
-1.13334
-0.644919
-0.162839
0.312292
0.779927
1.23957
1.69078
2.13317
2.5664
2.99018
3.40427
3.80848
4.20264
4.58668
4.96057
5.32432
5.67795
6.02147
6.35487
6.67813
6.99133
7.29458
7.58803
7.87184
8.1462
8.41128
8.6673
8.91447
9.15301
9.38315
9.60512
9.81914
10.0255
10.2243
10.4159
10.6006
10.7784
10.9498
11.115
11.2741
11.4274
11.575
11.7173
11.8545
11.9866
12.1139
12.2367
12.355
12.4692
12.5794
12.6857
12.7883
12.8873
12.9831
13.0757
13.1652
13.2517
13.3353
13.4162
13.4944
13.5701
13.6435
13.7145
13.7833
13.85
13.9146
13.9773
14.038
14.0969
14.1541
14.2095
14.2633
14.3155
14.3661
14.4152
14.4628
14.5089
14.5536
14.5968
14.6387
14.6792
14.7184
14.7563
14.7928
14.828
14.862
14.8947
14.9262
14.9567
14.9861
15.0147
15.0426
15.0701
15.0978
15.1263
15.1564
15.1899
15.2265
15.2739
15.3074
-8.74922
-8.84666
-8.94793
-9.03446
-9.0989
-9.1386
-9.15106
-9.13365
-9.08639
-9.01428
-8.92854
-8.84599
-8.78478
-8.7578
-8.76993
-8.82323
-8.92162
-9.06873
-9.26518
-9.50595
-9.78222
-10.0868
-10.4137
-10.7565
-11.1099
-11.4687
-11.8274
-12.1811
-12.525
-12.855
-13.1679
-13.461
-13.7321
-13.9796
-14.2022
-14.399
-14.5694
-14.713
-14.8296
-14.9191
-14.9816
-15.0171
-15.0258
-15.0077
-14.9631
-14.892
-14.7949
-14.672
-14.5237
-14.3509
-14.154
-13.9336
-13.6901
-13.4241
-13.1363
-12.8274
-12.4981
-12.1494
-11.7822
-11.3974
-10.996
-10.5792
-10.1481
-9.70369
-9.24726
-8.77996
-8.30299
-7.81754
-7.32481
-6.82598
-6.32222
-5.81468
-5.30449
-4.79274
-4.28048
-3.76872
-3.25845
-2.75058
-2.24599
-1.74551
-1.24991
-0.759913
-0.276177
0.200686
0.67012
1.13163
1.58476
2.02912
2.46437
2.89021
3.30642
3.71279
4.10918
4.49551
4.87172
5.23778
5.59367
5.93936
6.27487
6.60021
6.91549
7.22081
7.51631
7.80215
8.07851
8.34558
8.60355
8.85263
9.09305
9.32503
9.54879
9.76457
9.9726
10.1731
10.3664
10.5527
10.7321
10.9051
11.0716
11.2321
11.3868
11.5357
11.6793
11.8176
11.951
12.0795
12.2034
12.3229
12.4382
12.5494
12.6567
12.7603
12.8605
12.9573
13.0509
13.1413
13.2286
13.3131
13.3948
13.4738
13.5503
13.6243
13.696
13.7655
13.8328
13.898
13.9613
14.0226
14.0821
14.1397
14.1956
14.2499
14.3025
14.3535
14.403
14.451
14.4975
14.5425
14.5862
14.6284
14.6692
14.7087
14.7468
14.7835
14.819
14.8532
14.8861
14.9178
14.9484
14.9779
15.0065
15.0344
15.0618
15.0891
15.117
15.1459
15.1772
15.2097
15.2491
15.2677
-8.53734
-8.62226
-8.72236
-8.81945
-8.89681
-8.94954
-8.97663
-8.9789
-8.96082
-8.93071
-8.90062
-8.88456
-8.8953
-8.94243
-9.03213
-9.16754
-9.34877
-9.57123
-9.82649
-10.1065
-10.4058
-10.7201
-11.0451
-11.3758
-11.7079
-12.0376
-12.3615
-12.6765
-12.9798
-13.2691
-13.5424
-13.7978
-14.034
-14.2499
-14.4442
-14.6163
-14.7655
-14.891
-14.9926
-15.0697
-15.1222
-15.1498
-15.1524
-15.1298
-15.0821
-15.0092
-14.9112
-14.7882
-14.6406
-14.4688
-14.2731
-14.054
-13.8119
-13.5474
-13.2611
-12.9536
-12.6259
-12.2785
-11.9126
-11.529
-11.1288
-10.7129
-10.2826
-9.83892
-9.38303
-8.91614
-8.43942
-7.95407
-7.46129
-6.96227
-6.45817
-5.95014
-5.43933
-4.92682
-4.41367
-3.90091
-3.38951
-2.88041
-2.37448
-1.87255
-1.37541
-0.883784
-0.398334
0.0803216
0.551623
1.01506
1.4702
1.91662
2.35399
2.78201
3.20043
3.60906
4.00775
4.39638
4.77489
5.14324
5.50139
5.84932
6.18705
6.51463
6.83213
7.13966
7.43736
7.72538
8.0039
8.27309
8.53316
8.78431
9.02678
9.26078
9.48652
9.70424
9.91418
10.1166
10.3116
10.4996
10.6808
10.8554
11.0236
11.1857
11.3419
11.4924
11.6374
11.7772
11.9119
12.0418
12.1671
12.2879
12.4044
12.5168
12.6253
12.7301
12.8313
12.9291
13.0236
13.115
13.2033
13.2886
13.3712
13.451
13.5283
13.6031
13.6756
13.7458
13.8137
13.8796
13.9435
14.0054
14.0655
14.1237
14.1802
14.235
14.2881
14.3396
14.3895
14.438
14.4849
14.5303
14.5743
14.6169
14.6581
14.6979
14.7363
14.7733
14.8091
14.8435
14.8766
14.9085
14.9391
14.9687
14.9973
15.025
15.0521
15.0789
15.1058
15.1331
15.1617
15.1895
15.221
15.2272
-8.11737
-8.20577
-8.32671
-8.44941
-8.55464
-8.63506
-8.69338
-8.73546
-8.76894
-8.8036
-8.85041
-8.91965
-9.01936
-9.15437
-9.32686
-9.53586
-9.77667
-10.0437
-10.3317
-10.6349
-10.9479
-11.2658
-11.5848
-11.9013
-12.2126
-12.5165
-12.8112
-13.0949
-13.3663
-13.6241
-13.867
-14.0939
-14.3038
-14.4957
-14.6686
-14.8217
-14.9543
-15.0657
-15.1552
-15.2224
-15.2667
-15.2877
-15.2851
-15.2586
-15.2081
-15.1334
-15.0344
-14.9112
-14.7639
-14.5927
-14.398
-14.18
-13.9392
-13.676
-13.3911
-13.0851
-12.7588
-12.4128
-12.0482
-11.6658
-11.2667
-10.8519
-10.4225
-9.97952
-9.52423
-9.05779
-8.58138
-8.09618
-7.60339
-7.10421
-6.5998
-6.09133
-5.57993
-5.06669
-4.55269
-4.03894
-3.52644
-3.01611
-2.50885
-2.0055
-1.50683
-1.01358
-0.52643
-0.0459878
0.427177
0.892554
1.34969
1.79818
2.23767
2.66786
3.08851
3.4994
3.90038
4.29132
4.67214
5.04279
5.40323
5.75345
6.09346
6.42332
6.7431
7.05291
7.35287
7.64315
7.92391
8.19532
8.45759
8.71091
8.9555
9.19158
9.41938
9.63911
9.85103
10.0554
10.2523
10.4422
10.6252
10.8016
10.9716
11.1354
11.2932
11.4454
11.592
11.7333
11.8695
12.0009
12.1276
12.2497
12.3676
12.4813
12.5911
12.697
12.7994
12.8983
12.9939
13.0863
13.1756
13.2619
13.3454
13.4261
13.5043
13.58
13.6532
13.7242
13.7929
13.8596
13.9241
13.9868
14.0475
14.1063
14.1634
14.2187
14.2724
14.3245
14.3749
14.4238
14.4712
14.5171
14.5615
14.6045
14.6461
14.6862
14.725
14.7623
14.7983
14.833
14.8663
14.8984
14.9291
14.9587
14.9872
15.0147
15.0413
15.0674
15.093
15.1184
15.1439
15.1668
15.1912
15.1866
-7.65235
-7.75104
-7.89309
-8.04189
-8.17984
-8.29847
-8.40137
-8.49787
-8.59737
-8.70879
-8.83975
-8.99514
-9.17771
-9.3879
-9.62401
-9.88393
-10.1647
-10.4617
-10.7694
-11.0831
-11.3983
-11.7116
-12.0202
-12.3221
-12.6156
-12.8996
-13.173
-13.4348
-13.6842
-13.9204
-14.1424
-14.3495
-14.5409
-14.7156
-14.8729
-15.0119
-15.132
-15.2324
-15.3124
-15.3713
-15.4087
-15.424
-15.4168
-15.3866
-15.3332
-15.2564
-15.156
-15.0319
-14.8843
-14.7131
-14.5187
-14.3013
-14.0612
-13.799
-13.5151
-13.2102
-12.885
-12.5403
-12.1769
-11.7957
-11.3978
-10.984
-10.5556
-10.1136
-9.65917
-9.19347
-8.71767
-8.23297
-7.74058
-7.24165
-6.73737
-6.22889
-5.71734
-5.20382
-4.6894
-4.17511
-3.66193
-3.1508
-2.64262
-2.13822
-1.63839
-1.14387
-0.655336
-0.173411
0.301333
0.768381
1.22727
1.6776
2.119
2.55118
2.97387
3.38685
3.78997
4.18308
4.5661
4.93895
5.3016
5.65404
5.99628
6.32839
6.65042
6.96248
7.2647
7.55722
7.8402
8.11383
8.37829
8.63379
8.88053
9.11874
9.34863
9.57044
9.7844
9.99074
10.1897
10.3815
10.5664
10.7446
10.9164
11.082
11.2416
11.3954
11.5437
11.6866
11.8244
11.9573
12.0855
12.2091
12.3283
12.4434
12.5545
12.6617
12.7653
12.8654
12.9622
13.0556
13.146
13.2334
13.3179
13.3996
13.4787
13.5553
13.6294
13.7012
13.7708
13.8382
13.9035
13.9669
14.0283
14.0878
14.1455
14.2015
14.2558
14.3084
14.3594
14.4088
14.4567
14.5031
14.548
14.5914
14.6334
14.6739
14.7131
14.7508
14.7871
14.822
14.8555
14.8877
14.9186
14.9481
14.9764
15.0036
15.0297
15.0548
15.0791
15.1022
15.1244
15.1425
15.1602
15.1464
-7.29671
-7.39018
-7.54222
-7.70795
-7.87479
-8.03576
-8.19037
-8.34648
-8.51236
-8.69378
-8.89482
-9.11667
-9.35792
-9.61768
-9.89539
-10.1887
-10.494
-10.8067
-11.1228
-11.4385
-11.751
-12.0579
-12.3576
-12.6485
-12.9297
-13.2003
-13.4596
-13.707
-13.9419
-14.1637
-14.3717
-14.5654
-14.7439
-14.9067
-15.0528
-15.1817
-15.2926
-15.3847
-15.4574
-15.51
-15.5418
-15.5523
-15.541
-15.5075
-15.4514
-15.3723
-15.2702
-15.1448
-14.9962
-14.8244
-14.6295
-14.4119
-14.1719
-13.9098
-13.6262
-13.3217
-12.9971
-12.6529
-12.2902
-11.9097
-11.5125
-11.0996
-10.672
-10.2308
-9.77718
-9.31227
-8.83723
-8.35327
-7.86154
-7.36323
-6.85951
-6.35151
-5.84037
-5.32716
-4.81295
-4.29877
-3.7856
-3.27436
-2.76596
-2.26122
-1.76093
-1.26584
-0.776606
-0.293869
0.181803
0.649892
1.10993
1.56151
2.00427
2.4379
2.86212
3.27672
3.68152
4.07638
4.46119
4.83588
5.20041
5.55477
5.89897
6.23306
6.55711
6.87121
7.17549
7.47009
7.75516
8.03088
8.29743
8.55501
8.80383
9.04411
9.27605
9.49989
9.71585
9.92417
10.1251
10.3188
10.5056
10.6857
10.8593
11.0267
11.1881
11.3436
11.4935
11.6381
11.7775
11.912
12.0416
12.1667
12.2874
12.4039
12.5163
12.6249
12.7298
12.8311
12.929
13.0237
13.1151
13.2036
13.2891
13.3719
13.452
13.5295
13.6046
13.6773
13.7477
13.8159
13.8821
13.9462
14.0083
14.0686
14.127
14.1836
14.2385
14.2917
14.3433
14.3933
14.4418
14.4887
14.534
14.5779
14.6203
14.6613
14.7008
14.7389
14.7755
14.8106
14.8444
14.8767
14.9076
14.9371
14.9652
14.992
15.0174
15.0415
15.0641
15.085
15.1038
15.1172
15.1289
15.1069
-7.10639
-7.1925
-7.34662
-7.51899
-7.70238
-7.89469
-8.09249
-8.29776
-8.51507
-8.74685
-8.9934
-9.25469
-9.53064
-9.82087
-10.1235
-10.4352
-10.7525
-11.072
-11.3904
-11.7054
-12.0147
-12.3167
-12.61
-12.8937
-13.1668
-13.4289
-13.6793
-13.9176
-14.1433
-14.356
-14.5551
-14.7401
-14.9103
-15.0652
-15.2039
-15.3259
-15.4303
-15.5166
-15.584
-15.6317
-15.6593
-15.666
-15.6514
-15.6149
-15.5562
-15.475
-15.371
-15.244
-15.0941
-14.9212
-14.7255
-14.5071
-14.2665
-14.004
-13.7202
-13.4155
-13.0908
-12.7467
-12.3842
-12.004
-11.6071
-11.1946
-10.7675
-10.3268
-9.87381
-9.40956
-8.93522
-8.45198
-7.96099
-7.46344
-6.96046
-6.4532
-5.94278
-5.43026
-4.9167
-4.40312
-3.89048
-3.37971
-2.8717
-2.36726
-1.86719
-1.37221
-0.882994
-0.400166
0.0757051
0.544101
1.00456
1.45666
1.90004
2.3344
2.75945
3.17497
3.58079
3.97676
4.36276
4.73873
5.1046
5.46037
5.80605
6.14168
6.46732
6.78307
7.08905
7.38537
7.67221
7.94972
8.21809
8.4775
8.72817
8.97029
9.20408
9.42978
9.64759
9.85775
10.0605
10.256
10.4446
10.6265
10.8019
10.971
11.134
11.2912
11.4428
11.589
11.73
11.8659
11.9971
12.1237
12.2458
12.3637
12.4775
12.5874
12.6936
12.7961
12.8952
12.991
13.0836
13.1732
13.2598
13.3436
13.4247
13.5032
13.5792
13.6528
13.7241
13.7932
13.8601
13.925
13.9879
14.0489
14.108
14.1653
14.2209
14.2748
14.327
14.3776
14.4265
14.474
14.5199
14.5642
14.6071
14.6485
14.6884
14.7268
14.7638
14.7992
14.8332
14.8656
14.8965
14.9259
14.9538
14.9801
15.0048
15.0277
15.0487
15.0671
15.0826
15.0915
15.0977
15.0687
-7.07852
-7.16536
-7.31306
-7.48185
-7.66859
-7.87316
-8.09239
-8.3243
-8.56913
-8.82748
-9.09886
-9.38242
-9.67791
-9.98418
-10.2985
-10.6179
-10.9396
-11.2607
-11.5788
-11.892
-12.1984
-12.4968
-12.7859
-13.0651
-13.3335
-13.5907
-13.8361
-14.0694
-14.2901
-14.4977
-14.6918
-14.8719
-15.0373
-15.1874
-15.3217
-15.4394
-15.5398
-15.6222
-15.686
-15.7304
-15.7548
-15.7587
-15.7414
-15.7026
-15.6417
-15.5584
-15.4526
-15.324
-15.1726
-14.9984
-14.8015
-14.5821
-14.3406
-14.0773
-13.7929
-13.4878
-13.1627
-12.8184
-12.4557
-12.0756
-11.6789
-11.2666
-10.8399
-10.3997
-9.94727
-9.48368
-9.0101
-8.52768
-8.03758
-7.54096
-7.03895
-6.53269
-6.02328
-5.51178
-4.99924
-4.48665
-3.97499
-3.46515
-2.95801
-2.4544
-1.95509
-1.4608
-0.972193
-0.489887
-0.0144448
0.453623
0.913856
1.36584
1.80923
2.24369
2.66896
3.0848
3.49104
3.88752
4.27413
4.65079
5.01745
5.37409
5.72072
6.05737
6.38413
6.70106
7.00827
7.30591
7.5941
7.87302
8.14284
8.40375
8.65593
8.89961
9.13497
9.36225
9.58167
9.79344
9.9978
10.195
10.3852
10.5687
10.7456
10.9163
11.0809
11.2397
11.3928
11.5405
11.6829
11.8204
11.953
12.081
12.2045
12.3237
12.4388
12.55
12.6574
12.7612
12.8615
12.9584
13.0522
13.1428
13.2305
13.3153
13.3974
13.4768
13.5538
13.6283
13.7005
13.7704
13.8382
13.9038
13.9675
14.0292
14.0891
14.1471
14.2033
14.2578
14.3106
14.3618
14.4114
14.4594
14.5058
14.5506
14.594
14.6358
14.6761
14.7149
14.7522
14.7879
14.822
14.8546
14.8856
14.9148
14.9424
14.9682
14.992
15.0137
15.033
15.049
15.0612
15.0658
15.0671
15.032
-7.18945
-7.26781
-7.39876
-7.55465
-7.7333
-7.9344
-8.15524
-8.39325
-8.64677
-8.91449
-9.19473
-9.48638
-9.7885
-10.0991
-10.4158
-10.7358
-11.0569
-11.3766
-11.6928
-12.0037
-12.3078
-12.6038
-12.8907
-13.1677
-13.434
-13.6892
-13.9327
-14.1641
-14.3829
-14.5886
-14.7808
-14.9588
-15.1222
-15.2702
-15.4023
-15.5179
-15.6161
-15.6963
-15.7579
-15.8002
-15.8225
-15.8243
-15.8051
-15.7643
-15.7015
-15.6165
-15.509
-15.3788
-15.2259
-15.0503
-14.8522
-14.6317
-14.3892
-14.1252
-13.84
-13.5344
-13.2089
-12.8644
-12.5016
-12.1215
-11.7251
-11.3132
-10.887
-10.4475
-9.99584
-9.53317
-9.06063
-8.57934
-8.09047
-7.59516
-7.09453
-6.5897
-6.08175
-5.57176
-5.06073
-4.54966
-4.03949
-3.53113
-3.02543
-2.5232
-2.0252
-1.53214
-1.04469
-0.563443
-0.0889708
0.378226
0.83769
1.28901
1.73184
2.16585
2.59078
3.0064
3.41252
3.80898
4.19568
4.57253
4.93949
5.29652
5.64364
5.98089
6.30831
6.626
6.93406
7.2326
7.52179
7.80176
8.07268
8.33475
8.58815
8.83307
9.06973
9.29833
9.51909
9.73224
9.93799
10.1366
10.3282
10.5131
10.6915
10.8636
11.0296
11.1898
11.3443
11.4934
11.6372
11.776
11.91
12.0393
12.1641
12.2846
12.4009
12.5133
12.6219
12.7269
12.8283
12.9263
13.0211
13.1128
13.2015
13.2874
13.3704
13.4508
13.5287
13.6041
13.6771
13.7479
13.8165
13.8829
13.9474
14.0098
14.0704
14.1291
14.186
14.2411
14.2946
14.3463
14.3965
14.445
14.4919
14.5373
14.5812
14.6234
14.6641
14.7033
14.7409
14.7769
14.8112
14.8439
14.8748
14.904
14.9312
14.9565
14.9794
14.9999
15.0173
15.031
15.0401
15.0408
15.0376
14.9972
-7.36597
-7.43054
-7.54145
-7.67989
-7.84372
-8.03246
-8.24377
-8.47498
-8.72363
-8.98738
-9.26402
-9.55236
-9.85119
-10.1583
-10.4712
-10.7876
-11.1052
-11.4217
-11.7352
-12.0439
-12.3464
-12.6414
-12.9278
-13.2046
-13.4711
-13.7267
-13.9708
-14.2028
-14.4222
-14.6284
-14.8209
-14.9992
-15.1626
-15.3105
-15.4422
-15.5572
-15.6546
-15.734
-15.7945
-15.8356
-15.8566
-15.857
-15.8362
-15.7939
-15.7297
-15.6432
-15.5342
-15.4026
-15.2484
-15.0715
-14.8723
-14.6508
-14.4075
-14.1427
-13.857
-13.551
-13.2254
-12.8809
-12.5183
-12.1386
-11.7428
-11.3317
-10.9064
-10.4681
-10.0177
-9.55651
-9.08555
-8.60597
-8.11892
-7.62551
-7.12687
-6.62409
-6.11824
-5.61035
-5.10145
-4.59251
-4.08446
-3.57818
-3.07453
-2.57428
-2.07821
-1.587
-1.10131
-0.621738
-0.148833
0.316905
0.775024
1.22512
1.66684
2.09987
2.52394
2.93881
3.34432
3.74029
4.12661
4.50321
4.87002
5.22703
5.57423
5.91167
6.23939
6.55747
6.86601
7.16514
7.45498
7.73569
8.00743
8.27037
8.5247
8.77062
9.00832
9.23801
9.4599
9.67421
9.88115
10.0809
10.2738
10.46
10.6396
10.813
10.9803
11.1417
11.2975
11.4479
11.593
11.7331
11.8683
11.9988
12.1248
12.2465
12.364
12.4776
12.5873
12.6934
12.7959
12.895
12.9908
13.0836
13.1732
13.26
13.344
13.4254
13.5041
13.5804
13.6543
13.7258
13.7952
13.8625
13.9276
13.9908
14.0521
14.1115
14.169
14.2248
14.2789
14.3312
14.382
14.4311
14.4785
14.5244
14.5687
14.6115
14.6526
14.6921
14.73
14.7663
14.8009
14.8336
14.8646
14.8936
14.9205
14.9451
14.9672
14.9864
15.0021
15.0134
15.0196
15.0166
15.0093
14.9646
-7.53988
-7.59137
-7.68394
-7.80453
-7.95116
-8.1233
-8.3189
-8.53556
-8.77084
-9.02217
-9.28754
-9.56581
-9.85561
-10.1547
-10.4607
-10.7711
-11.0838
-11.3966
-11.7074
-12.0146
-12.3165
-12.6118
-12.8992
-13.1777
-13.4464
-13.7043
-13.951
-14.1855
-14.4074
-14.6161
-14.8108
-14.9909
-15.1559
-15.3051
-15.4378
-15.5533
-15.6511
-15.7304
-15.7906
-15.8311
-15.8514
-15.8509
-15.8291
-15.7857
-15.7203
-15.6325
-15.5224
-15.3896
-15.2344
-15.0566
-14.8565
-14.6343
-14.3905
-14.1254
-13.8396
-13.5337
-13.2084
-12.8645
-12.5027
-12.124
-11.7294
-11.3197
-10.8961
-10.4596
-10.0112
-9.55218
-9.08354
-8.60642
-8.12194
-7.63122
-7.13534
-6.63538
-6.1324
-5.62742
-5.12143
-4.61538
-4.1102
-3.60677
-3.1059
-2.60837
-2.11492
-1.62625
-1.14299
-0.665741
-0.195037
0.268628
0.724807
1.1731
1.61316
2.04466
2.46735
2.88099
3.28539
3.68041
4.06591
4.44183
4.80809
5.16468
5.51159
5.84886
6.17653
6.49467
6.80339
7.1028
7.39301
7.67419
7.94648
8.21005
8.46508
8.71177
8.9503
9.18088
9.40371
9.619
9.82697
10.0278
10.2218
10.409
10.5898
10.7643
10.9328
11.0954
11.2524
11.4039
11.5502
11.6914
11.8278
11.9595
12.0867
12.2095
12.3281
12.4428
12.5536
12.6607
12.7643
12.8644
12.9613
13.055
13.1456
13.2333
13.3182
13.4005
13.4801
13.5572
13.6319
13.7043
13.7745
13.8425
13.9084
13.9723
14.0343
14.0943
14.1525
14.209
14.2637
14.3166
14.3679
14.4176
14.4656
14.512
14.5568
14.6
14.6416
14.6815
14.7197
14.7563
14.791
14.8239
14.8549
14.8837
14.9103
14.9343
14.9556
14.9735
14.9876
14.9966
15
14.9937
14.9828
14.9342
-7.66669
-7.70887
-7.78606
-7.89001
-8.01924
-8.17331
-8.35046
-8.54875
-8.76615
-9.00047
-9.25032
-9.51497
-9.79299
-10.0821
-10.3798
-10.6838
-10.9916
-11.3011
-11.6102
-11.917
-12.2197
-12.5168
-12.8068
-13.0887
-13.3611
-13.6232
-13.874
-14.1128
-14.3387
-14.551
-14.7491
-14.9323
-15.0999
-15.2512
-15.3856
-15.5025
-15.6011
-15.681
-15.7414
-15.7818
-15.8017
-15.8006
-15.7781
-15.7339
-15.6676
-15.579
-15.4679
-15.3345
-15.1785
-15.0002
-14.7998
-14.5775
-14.3337
-14.0689
-13.7837
-13.4786
-13.1543
-12.8117
-12.4515
-12.0747
-11.6821
-11.2748
-10.8538
-10.42
-9.97464
-9.51874
-9.05341
-8.57973
-8.09881
-7.61174
-7.11959
-6.62341
-6.12424
-5.62308
-5.1209
-4.61864
-4.11719
-3.61743
-3.12016
-2.62614
-2.13609
-1.6507
-1.17059
-0.696352
-0.228514
0.232436
0.686058
1.13196
1.56978
1.99922
2.42
2.83191
3.23474
3.62835
4.01261
4.38743
4.75275
5.10855
5.45482
5.79158
6.11888
6.4368
6.7454
7.04481
7.33515
7.61655
7.88916
8.15314
8.40868
8.65594
8.89512
9.12642
9.35002
9.56615
9.77499
9.97676
10.1717
10.3599
10.5417
10.7173
10.8868
11.0505
11.2086
11.3612
11.5086
11.651
11.7884
11.9212
12.0495
12.1734
12.2931
12.4088
12.5207
12.6288
12.7334
12.8345
12.9323
13.027
13.1186
13.2072
13.293
13.3761
13.4566
13.5345
13.6101
13.6833
13.7542
13.823
13.8896
13.9542
14.0169
14.0776
14.1365
14.1936
14.2489
14.3025
14.3544
14.4046
14.4531
14.5001
14.5454
14.589
14.631
14.6714
14.71
14.7468
14.7818
14.8148
14.8457
14.8745
14.9007
14.9242
14.9446
14.9614
14.9738
14.9808
14.9816
14.9723
14.958
14.9063
-7.72215
-7.7604
-7.82599
-7.91499
-8.0272
-8.1626
-8.32014
-8.4985
-8.69611
-8.91144
-9.14397
-9.39362
-9.65904
-9.93784
-10.2275
-10.5254
-10.8291
-11.1364
-11.4449
-11.7526
-12.0575
-12.3579
-12.652
-12.9385
-13.216
-13.4834
-13.7396
-13.9835
-14.2143
-14.4313
-14.6335
-14.8203
-14.991
-15.1449
-15.2815
-15.3999
-15.4998
-15.5804
-15.6412
-15.6817
-15.7015
-15.7002
-15.6773
-15.6325
-15.5657
-15.4767
-15.3653
-15.2316
-15.0756
-14.8974
-14.6973
-14.4757
-14.2328
-13.9692
-13.6854
-13.3821
-13.06
-12.7198
-12.3623
-11.9884
-11.5991
-11.1953
-10.778
-10.3482
-9.90696
-9.45538
-8.9945
-8.52542
-8.0492
-7.5669
-7.07958
-6.58827
-6.09396
-5.59766
-5.10029
-4.60279
-4.10602
-3.61083
-3.11803
-2.62837
-2.14255
-1.66122
-1.18501
-0.714503
-0.250219
0.207361
0.6578
1.10071
1.53573
1.96256
2.38093
2.79061
3.1914
3.58316
3.96576
4.33909
4.70311
5.05776
5.40306
5.73901
6.06565
6.38305
6.69129
6.99046
7.28069
7.56209
7.83482
8.09903
8.35488
8.60256
8.84223
9.0741
9.29834
9.51517
9.72477
9.92735
10.1231
10.3123
10.495
10.6715
10.8421
11.0068
11.1659
11.3195
11.468
11.6114
11.7499
11.8837
12.013
12.138
12.2587
12.3755
12.4884
12.5975
12.7031
12.8051
12.9039
12.9995
13.092
13.1816
13.2683
13.3522
13.4335
13.5123
13.5887
13.6626
13.7344
13.8039
13.8713
13.9366
13.9999
14.0614
14.1209
14.1786
14.2346
14.2888
14.3412
14.392
14.4412
14.4886
14.5344
14.5786
14.621
14.6618
14.7008
14.7379
14.7731
14.8063
14.8373
14.8659
14.8918
14.9148
14.9345
14.9501
14.961
14.9661
14.9645
14.9526
14.9353
14.881
-7.70774
-7.74243
-7.79926
-7.87441
-7.96941
-8.08511
-8.22151
-8.37825
-8.55454
-8.74969
-8.96413
-9.19836
-9.45118
-9.72012
-10.0025
-10.2955
-10.5967
-10.9033
-11.2129
-11.5231
-11.8318
-12.1368
-12.4363
-12.7286
-13.0121
-13.2855
-13.5476
-13.7971
-14.0332
-14.2549
-14.4614
-14.6519
-14.8257
-14.9823
-15.1208
-15.2409
-15.3419
-15.4233
-15.4846
-15.5254
-15.5453
-15.544
-15.521
-15.4763
-15.4095
-15.3207
-15.2096
-15.0765
-14.9212
-14.7441
-14.5454
-14.3254
-14.0846
-13.8233
-13.5423
-13.242
-12.9233
-12.5868
-12.2333
-11.8638
-11.4791
-11.0801
-10.6679
-10.2434
-9.80772
-9.36179
-8.90671
-8.44353
-7.97328
-7.497
-7.01572
-6.53045
-6.04216
-5.55181
-5.06034
-4.56863
-4.07754
-3.58789
-3.10047
-2.61603
-2.13527
-1.65883
-1.1873
-0.721249
-0.261207
0.192348
0.638981
1.0783
1.50996
1.93365
2.34911
2.75609
3.1544
3.54389
3.92443
4.29591
4.65827
5.01146
5.35548
5.69034
6.01606
6.33269
6.64033
6.93904
7.22895
7.51017
7.78284
8.0471
8.30313
8.55107
8.7911
9.02342
9.24819
9.46561
9.67588
9.87918
10.0757
10.2657
10.4493
10.6267
10.7982
10.9638
11.1239
11.2786
11.428
11.5724
11.7119
11.8468
11.9771
12.1031
12.2249
12.3426
12.4565
12.5666
12.6731
12.7762
12.8759
12.9724
13.0658
13.1563
13.2439
13.3287
13.4108
13.4905
13.5676
13.6424
13.7149
13.7851
13.8532
13.9193
13.9833
14.0455
14.1057
14.164
14.2206
14.2754
14.3285
14.3799
14.4296
14.4776
14.524
14.5686
14.6116
14.6527
14.6921
14.7296
14.7651
14.7984
14.8295
14.858
14.8838
14.9063
14.9252
14.9398
14.9494
14.9527
14.949
14.9346
14.9146
14.8582
-7.64403
-7.66973
-7.71584
-7.77447
-7.84922
-7.9421
-8.05433
-8.18679
-8.33971
-8.51338
-8.70918
-8.92814
-9.16907
-9.42931
-9.70585
-9.99572
-10.296
-10.6037
-10.916
-11.2302
-11.5438
-11.8545
-12.1601
-12.4587
-12.7485
-13.0281
-13.296
-13.551
-13.792
-14.0182
-14.2285
-14.4224
-14.599
-14.7578
-14.8982
-15.0197
-15.1218
-15.204
-15.266
-15.3074
-15.3278
-15.3269
-15.3045
-15.2605