/*--------------------------------*- C++ -*----------------------------------*\
| =========                 |                                                 |
| \\      /  F ield         | OpenFOAM: The Open Source CFD Toolbox           |
|  \\    /   O peration     | Version:  v2012                                 |
|   \\  /    A nd           | Website:  www.openfoam.com                      |
|    \\/     M anipulation  |                                                 |
\*---------------------------------------------------------------------------*/
FoamFile
{
    version     2.0;
    format      ascii;
    class       volVectorField;
    location    "1100";
    object      U;
}
// * * * * * * * * * * * * * * * * * * * * * * * * * * * * * * * * * * * * * //

dimensions      [0 1 -1 0 0 0 0];


internalField   nonuniform List<vector> 
12225
(
(9.2745 -4.73371 0)
(13.1094 -1.71343 0)
(12.4777 -0.395209 0)
(11.2768 -0.0422197 0)
(10.6311 0.0141959 0)
(10.2978 -0.000794625 0)
(10.074 -0.0037612 0)
(9.90496 -0.0202356 0)
(9.76645 -0.0507174 0)
(9.64502 -0.0478239 0)
(9.53144 -0.0363221 0)
(9.42463 -0.031562 0)
(9.3264 -0.0296589 0)
(9.2362 -0.023659 0)
(9.15468 -0.0127019 0)
(9.08839 -0.00439508 0)
(9.02737 0.00883901 0)
(9.05028 0.0244863 0)
(10.2592 0.0928023 0)
(10.7814 0.199338 0)
(10.9593 0.245649 0)
(10.7468 0.229135 0)
(10.5874 0.172968 0)
(10.4522 0.115287 0)
(10.3291 0.0818761 0)
(10.2315 0.0692536 0)
(10.1586 0.0651571 0)
(10.0984 0.0584832 0)
(10.0456 0.0523096 0)
(9.99848 0.0498247 0)
(9.95547 0.0493868 0)
(9.91597 0.0485419 0)
(9.87845 0.045586 0)
(9.84449 0.0403319 0)
(9.80892 0.0219747 0)
(9.77679 -0.00179296 0)
(9.87768 -0.24504 0)
(9.74284 0.00578975 0)
(10.1971 0.125736 0)
(10.3244 0.179354 0)
(10.3564 0.161537 0)
(10.3308 0.119965 0)
(10.2777 0.0911412 0)
(10.2264 0.0752728 0)
(10.1831 0.0657365 0)
(10.1459 0.0604666 0)
(10.1137 0.0572423 0)
(10.0848 0.0545999 0)
(10.0579 0.0519469 0)
(10.0327 0.0489865 0)
(10.009 0.0452425 0)
(9.98693 0.040119 0)
(9.96334 0.0290766 0)
(9.93598 0.010022 0)
(9.83416 -0.443933 0)
(9.57654 -0.16315 0)
(9.91602 0.0336605 0)
(10.0932 0.134211 0)
(10.1892 0.145454 0)
(10.2166 0.120702 0)
(10.2052 0.0984731 0)
(10.1836 0.0838622 0)
(10.161 0.074009 0)
(10.1394 0.0682614 0)
(10.1196 0.0645802 0)
(10.1012 0.0616446 0)
(10.0837 0.0590168 0)
(10.067 0.0565808 0)
(10.0507 0.0537102 0)
(10.0344 0.0493963 0)
(10.0157 0.0411371 0)
(9.99153 0.0294176 0)
(9.87825 -0.387477 0)
(9.61653 -0.196152 0)
(9.81622 -0.0186823 0)
(9.96135 0.0915961 0)
(10.0698 0.122173 0)
(10.1218 0.113623 0)
(10.1356 0.099592 0)
(10.134 0.0883063 0)
(10.1264 0.0798434 0)
(10.1162 0.074231 0)
(10.1054 0.0704243 0)
(10.0946 0.0675981 0)
(10.0836 0.0652887 0)
(10.0725 0.0632196 0)
(10.061 0.0608103 0)
(10.0485 0.0574599 0)
(10.0331 0.0521172 0)
(10.0122 0.0459988 0)
(9.91439 -0.288042 0)
(9.68303 -0.185182 0)
(9.78717 -0.0532211 0)
(9.88916 0.0509801 0)
(9.98795 0.0936556 0)
(10.0476 0.0992046 0)
(10.0753 0.0940271 0)
(10.0867 0.0873752 0)
(10.0896 0.0813937 0)
(10.088 0.0769331 0)
(10.084 0.0737472 0)
(10.0788 0.0714166 0)
(10.0726 0.0695958 0)
(10.0657 0.068039 0)
(10.0576 0.0663835 0)
(10.048 0.0643959 0)
(10.0355 0.0619175 0)
(10.0184 0.0602275 0)
(9.93763 -0.214043 0)
(9.74856 -0.167542 0)
(9.79243 -0.0752282 0)
(9.85608 0.0162028 0)
(9.93595 0.0644011 0)
(9.99283 0.0805919 0)
(10.0262 0.0836034 0)
(10.045 0.0820898 0)
(10.0549 0.0792989 0)
(10.0593 0.0767142 0)
(10.0605 0.0746946 0)
(10.0596 0.0732109 0)
(10.0571 0.0721351 0)
(10.0533 0.0713614 0)
(10.048 0.0707562 0)
(10.0409 0.0703574 0)
(10.0314 0.0704374 0)
(10.0183 0.0721615 0)
(9.95263 -0.167337 0)
(9.79947 -0.149686 0)
(9.81178 -0.0846596 0)
(9.84959 -0.0062387 0)
(9.91142 0.0418928 0)
(9.9611 0.0638535 0)
(9.9944 0.0724923 0)
(10.0157 0.0751146 0)
(10.0289 0.075217 0)
(10.0367 0.0745462 0)
(10.041 0.0738068 0)
(10.0428 0.0732636 0)
(10.0427 0.0729969 0)
(10.041 0.0730479 0)
(10.0378 0.0734498 0)
(10.0328 0.0743874 0)
(10.0256 0.0762735 0)
(10.0159 0.0800745 0)
(9.96406 -0.132092 0)
(9.84003 -0.131998 0)
(9.83337 -0.0877084 0)
(9.85306 -0.0213609 0)
(9.89928 0.0243783 0)
(9.94105 0.0494713 0)
(9.97213 0.0620633 0)
(9.99395 0.0679254 0)
(10.0087 0.0704313 0)
(10.0184 0.0714789 0)
(10.0246 0.0719977 0)
(10.0283 0.0724375 0)
(10.0299 0.0730222 0)
(10.0299 0.0739037 0)
(10.0283 0.0752342 0)
(10.025 0.07729 0)
(10.0199 0.0805335 0)
(10.0129 0.0857572 0)
(9.97418 -0.100208 0)
(9.87757 -0.112399 0)
(9.85857 -0.0853854 0)
(9.86388 -0.0323622 0)
(9.89488 0.00888948 0)
(9.92745 0.035176 0)
(9.95445 0.0506442 0)
(9.9751 0.0593521 0)
(9.99022 0.064213 0)
(10.001 0.0670775 0)
(10.0085 0.0689939 0)
(10.0136 0.0705558 0)
(10.0167 0.0721142 0)
(10.0182 0.0739275 0)
(10.0181 0.0762385 0)
(10.0166 0.0793719 0)
(10.0137 0.0837749 0)
(10.0095 0.090058 0)
(9.98253 -0.0727129 0)
(9.91035 -0.0922067 0)
(9.88507 -0.0782654 0)
(9.88002 -0.0386404 0)
(9.89747 -0.00341928 0)
(9.92045 0.0221089 0)
(9.942 0.0390948 0)
(9.96005 0.0499342 0)
(9.97431 0.0568452 0)
(9.98523 0.0614465 0)
(9.99344 0.0647868 0)
(9.99948 0.0675346 0)
(10.0037 0.070136 0)
(10.0065 0.0729245 0)
(10.0079 0.0762042 0)
(10.0081 0.0803072 0)
(10.0073 0.0856197 0)
(10.0058 0.0925746 0)
(9.98894 -0.0502609 0)
(9.93733 -0.072389 0)
(9.91073 -0.0674709 0)
(9.89917 -0.0400187 0)
(9.90567 -0.0117005 0)
(9.91957 0.011382 0)
(9.935 0.0284294 0)
(9.94938 0.040432 0)
(9.96174 0.0488235 0)
(9.97192 0.054865 0)
(9.98013 0.0594905 0)
(9.98663 0.0633691 0)
(9.99169 0.0669804 0)
(9.9955 0.0707003 0)
(9.99825 0.074848 0)
(10.0001 0.0797364 0)
(10.0013 0.0856653 0)
(10.0021 0.0929298 0)
(9.99348 -0.0329133 0)
(9.9582 -0.0538226 0)
(9.93368 -0.0543081 0)
(9.91899 -0.0368262 0)
(9.91756 -0.0155093 0)
(9.92367 0.00391721 0)
(9.93303 0.0196671 0)
(9.94321 0.0317274 0)
(9.95293 0.0408159 0)
(9.96165 0.0477809 0)
(9.96924 0.0533624 0)
(9.97573 0.0581495 0)
(9.9812 0.0626012 0)
(9.9858 0.0670829 0)
(9.98965 0.071899 0)
(9.99292 0.0773092 0)
(9.9958 0.0835472 0)
(9.99857 0.090774 0)
(9.99643 -0.0202078 0)
(9.97327 -0.0372222 0)
(9.95261 -0.0400717 0)
(9.93731 -0.0298523 0)
(9.9309 -0.0148834 0)
(9.93103 0.000283993 0)
(9.93505 0.0136625 0)
(9.94106 0.0246944 0)
(9.94783 0.0335701 0)
(9.95466 0.0407585 0)
(9.96118 0.0467719 0)
(9.96724 0.0520659 0)
(9.9728 0.0570285 0)
(9.97789 0.0619692 0)
(9.98257 0.0671467 0)
(9.98698 0.0727615 0)
(9.99124 0.0789708 0)
(9.99558 0.085867 0)
(9.99816 -0.0112932 0)
(9.9833 -0.0229435 0)
(9.96682 -0.0257898 0)
(9.95243 -0.0201196 0)
(9.94344 -0.0103032 0)
(9.93953 0.000590681 0)
(9.9394 0.0109178 0)
(9.94183 0.0199985 0)
(9.94582 0.0277418 0)
(9.95068 0.0343477 0)
(9.95596 0.0401162 0)
(9.96138 0.0453592 0)
(9.96678 0.0503515 0)
(9.97211 0.0553289 0)
(9.97736 0.0604725 0)
(9.9826 0.0659253 0)
(9.98789 0.0717726 0)
(9.99335 0.078064 0)
(9.99906 -0.00508622 0)
(9.98922 -0.0107941 0)
(9.97612 -0.0119436 0)
(9.96309 -0.00852524 0)
(9.9531 -0.00249539 0)
(9.94685 0.00449532 0)
(9.94399 0.0114477 0)
(9.94383 0.0178795 0)
(9.94568 0.0236629 0)
(9.94894 0.0288662 0)
(9.95314 0.0336451 0)
(9.95796 0.0381769 0)
(9.96316 0.0426263 0)
(9.96861 0.0471323 0)
(9.97425 0.0517993 0)
(9.98007 0.0566992 0)
(9.98606 0.061868 0)
(9.99229 0.0673098 0)
(9.99942 -0.000372264 0)
(9.9918 0.000137766 0)
(9.98042 0.00180548 0)
(9.96821 0.00455329 0)
(9.9579 0.00786136 0)
(9.9506 0.011323 0)
(9.94641 0.0147126 0)
(9.94496 0.0179571 0)
(9.94574 0.0210694 0)
(9.94821 0.02412 0)
(9.95194 0.0271867 0)
(9.95655 0.0303508 0)
(9.96179 0.0336724 0)
(9.96748 0.0371994 0)
(9.9735 0.0409538 0)
(9.97979 0.0449443 0)
(9.98631 0.0491548 0)
(9.99305 0.0535584 0)
(9.99935 0.00408049 0)
(9.9911 0.0111569 0)
(9.97897 0.016107 0)
(9.96615 0.0186975 0)
(9.95552 0.0195595 0)
(9.94817 0.0194752 0)
(9.94417 0.0190683 0)
(9.94309 0.018746 0)
(9.94434 0.0187518 0)
(9.94736 0.0191995 0)
(9.95168 0.0201336 0)
(9.95691 0.0215472 0)
(9.96278 0.0234133 0)
(9.96908 0.0256859 0)
(9.9757 0.0283175 0)
(9.98254 0.0312487 0)
(9.98956 0.0344266 0)
(9.99672 0.0377859 0)
(9.99882 0.00972628 0)
(9.98675 0.0240313 0)
(9.97122 0.0318211 0)
(9.95641 0.0332575 0)
(9.94558 0.0306574 0)
(9.93941 0.0262899 0)
(9.93732 0.0216732 0)
(9.93841 0.0176444 0)
(9.94181 0.0145777 0)
(9.9468 0.0125644 0)
(9.95284 0.0115527 0)
(9.95953 0.0114215 0)
(9.96663 0.0120372 0)
(9.97396 0.0132633 0)
(9.98141 0.0149794 0)
(9.98893 0.0170743 0)
(9.99647 0.019454 0)
(10.004 0.0220327 0)
(9.99757 0.0182074 0)
(9.97774 0.0404389 0)
(9.95664 0.0495533 0)
(9.93945 0.0474466 0)
(9.92961 0.039383 0)
(9.92658 0.0296009 0)
(9.92846 0.0204328 0)
(9.93353 0.0128993 0)
(9.94049 0.00726056 0)
(9.94848 0.00340927 0)
(9.95694 0.00108194 0)
(9.96555 -4.5931e-06 0)
(9.97414 -0.000112264 0)
(9.98262 0.000531742 0)
(9.99093 0.0017438 0)
(9.99909 0.00337363 0)
(10.0071 0.00529806 0)
(10.0149 0.00742051 0)
(9.99502 0.0318128 0)
(9.96177 0.0621193 0)
(9.93372 0.0695303 0)
(9.91534 0.0600861 0)
(9.90932 0.0439181 0)
(9.91249 0.0276251 0)
(9.92082 0.0139589 0)
(9.93158 0.00359262 0)
(9.94316 -0.0036921 0)
(9.9547 -0.00844035 0)
(9.96581 -0.0112246 0)
(9.97636 -0.012533 0)
(9.98633 -0.0127599 0)
(9.99577 -0.0121976 0)
(10.0047 -0.0110771 0)
(10.0133 -0.00956465 0)
(10.0215 -0.00779158 0)
(10.0295 -0.00585957 0)
(9.99018 0.0534608 0)
(9.93561 0.0901407 0)
(9.90098 0.0906098 0)
(9.88515 0.0687325 0)
(9.88781 0.041793 0)
(9.90122 0.0186371 0)
(9.91855 0.0013973 0)
(9.93623 -0.0104129 0)
(9.95279 -0.0179578 0)
(9.96775 -0.0224014 0)
(9.98112 -0.0246813 0)
(9.99311 -0.0254734 0)
(10.0039 -0.0252518 0)
(10.0139 -0.024343 0)
(10.023 -0.0229822 0)
(10.0316 -0.0213205 0)
(10.0397 -0.0194798 0)
(10.0474 -0.0175513 0)
(9.9819 0.0862468 0)
(9.89548 0.124249 0)
(9.85817 0.109869 0)
(9.8521 0.0697536 0)
(9.87035 0.0303178 0)
(9.89844 0.00143556 0)
(9.92658 -0.0172034 0)
(9.95133 -0.0283141 0)
(9.97216 -0.0343734 0)
(9.9895 -0.0372542 0)
(10.004 -0.038151 0)
(10.0165 -0.0378309 0)
(10.0273 -0.0367242 0)
(10.0369 -0.0351851 0)
(10.0456 -0.0333844 0)
(10.0537 -0.0314345 0)
(10.0612 -0.0294058 0)
(10.0682 -0.027386 0)
(9.96925 0.13399 0)
(9.83823 0.163084 0)
(9.80793 0.122579 0)
(9.82312 0.0587828 0)
(9.86515 0.00728958 0)
(9.91142 -0.0240339 0)
(9.95037 -0.0405774 0)
(9.9805 -0.0483237 0)
(10.0035 -0.0511412 0)
(10.0211 -0.051348 0)
(10.0351 -0.05025 0)
(10.0465 -0.0484481 0)
(10.0561 -0.046309 0)
(10.0644 -0.0440265 0)
(10.0719 -0.041772 0)
(10.0787 -0.0394881 0)
(10.085 -0.0372499 0)
(10.0909 -0.035132 0)
(9.94951 0.207141 0)
(9.76128 0.207019 0)
(9.75726 0.123469 0)
(9.81043 0.0319953 0)
(9.88385 -0.0278812 0)
(9.94879 -0.0560066 0)
(9.99532 -0.0660471 0)
(10.0267 -0.0677714 0)
(10.048 -0.0659414 0)
(10.063 -0.0628875 0)
(10.0739 -0.0595968 0)
(10.0825 -0.0563746 0)
(10.0894 -0.0532177 0)
(10.0953 -0.0502987 0)
(10.1005 -0.0477 0)
(10.1053 -0.0451959 0)
(10.1098 -0.0427699 0)
(10.1139 -0.0406024 0)
(9.91094 0.322719 0)
(9.65922 0.254544 0)
(9.71887 0.107399 0)
(9.8333 -0.0119404 0)
(9.94177 -0.0726798 0)
(10.02 -0.0901941 0)
(10.0662 -0.089314 0)
(10.0918 -0.0832252 0)
(10.1061 -0.0762668 0)
(10.1142 -0.070144 0)
(10.1193 -0.0650524 0)
(10.1229 -0.0607409 0)
(10.1255 -0.0567877 0)
(10.1273 -0.0534355 0)
(10.1291 -0.0508169 0)
(10.131 -0.0482545 0)
(10.1326 -0.0456618 0)
(10.1342 -0.0435876 0)
(9.84404 0.43511 0)
(9.53797 0.261027 0)
(9.7269 0.0591271 0)
(9.92369 -0.0731341 0)
(10.0584 -0.121589 0)
(10.1345 -0.120242 0)
(10.1665 -0.105298 0)
(10.1757 -0.0909894 0)
(10.1758 -0.0797415 0)
(10.1724 -0.0716339 0)
(10.1683 -0.0659055 0)
(10.1644 -0.0611671 0)
(10.1603 -0.056623 0)
(10.156 -0.0527003 0)
(10.1527 -0.0503999 0)
(10.1504 -0.0481058 0)
(10.1479 -0.0453557 0)
(10.1454 -0.0434544 0)
(9.83598 0.319667 0)
(9.5502 0.0912505 0)
(9.91739 -0.0687295 0)
(10.1507 -0.160126 0)
(10.2635 -0.172166 0)
(10.3033 -0.142786 0)
(10.2976 -0.112164 0)
(10.2753 -0.0908859 0)
(10.2515 -0.0769529 0)
(10.2304 -0.0682489 0)
(10.213 -0.0631587 0)
(10.1985 -0.0590896 0)
(10.1846 -0.053842 0)
(10.1707 -0.0491078 0)
(10.1595 -0.0473592 0)
(10.1504 -0.0440173 0)
(10.1412 -0.0396871 0)
(10.1325 -0.0384624 0)
(10.2049 -0.0633775 0)
(10.4095 -0.191709 0)
(10.7164 -0.282552 0)
(10.6879 -0.282286 0)
(10.6191 -0.230105 0)
(10.5417 -0.163723 0)
(10.4538 -0.117568 0)
(10.3752 -0.0935404 0)
(10.3138 -0.080438 0)
(10.2658 -0.0696968 0)
(10.2263 -0.0605429 0)
(10.1932 -0.0553916 0)
(10.1612 -0.0549717 0)
(10.1323 -0.0537912 0)
(10.1104 -0.0479574 0)
(10.0866 -0.0463196 0)
(10.0647 -0.0481607 0)
(10.0479 -0.0441359 0)
(9.41631 4.45107 0)
(12.7294 2.07612 0)
(12.5649 0.621226 0)
(11.5691 0.127671 0)
(10.9311 0.0034392 0)
(10.5863 -0.00223648 0)
(10.3632 0.0139527 0)
(10.201 0.0313465 0)
(10.0786 0.0453831 0)
(9.97757 0.0451679 0)
(9.88612 0.0346333 0)
(9.79878 0.0290438 0)
(9.72488 0.0365507 0)
(9.66347 0.0338541 0)
(9.5987 0.00630448 0)
(9.54203 0.00277779 0)
(9.49397 0.0171921 0)
(9.44527 0.0025897 0)
(-0.0249316 0.0907395 0)
(0.137573 -0.182734 0)
(0.325927 -0.304539 0)
(0.525672 -0.313507 0)
(0.702263 -0.270707 0)
(0.831704 -0.210007 0)
(0.907014 -0.145264 -8.59441e-20)
(0.936693 -0.0813895 8.66531e-20)
(0.914694 -0.0191535 0)
(0.853098 0.0354944 9.20583e-20)
(0.765315 0.074598 0)
(0.665813 0.0921588 0)
(0.57213 0.0873961 0)
(0.49982 0.066087 -1.44094e-19)
(0.449952 0.0372332 0)
(0.405727 0.0100046 0)
(0.344969 -0.00803738 1.89464e-19)
(0.25793 -0.00717306 0)
(0.123645 0.014624 0)
(-0.074767 0.11099 0)
(-0.307195 0.204766 -1.41107e-19)
(-0.60178 0.24699 0)
(-0.92933 0.269488 -7.48712e-20)
(-1.26441 0.296731 0)
(-1.60301 0.323522 0)
(-1.94188 0.336013 -4.11432e-20)
(-2.27336 0.335024 0)
(-2.58958 0.325727 3.44564e-20)
(-2.88738 0.309476 0)
(-3.16344 0.288635 -3.12953e-20)
(-3.41686 0.26551 0)
(-3.64729 0.241675 0)
(-3.85546 0.21815 0)
(-4.04248 0.195632 0)
(-4.20978 0.174489 0)
(-4.35894 0.154925 2.8207e-20)
(-4.49151 0.13697 0)
(-4.609 0.120551 -5.55265e-20)
(-4.71276 0.10554 0)
(-4.80401 0.0917786 5.47273e-20)
(-4.8838 0.0791044 0)
(-4.95301 0.0673665 0)
(-5.0124 0.0564376 -5.35035e-20)
(-5.06259 0.0462222 0)
(-5.10407 0.0366616 -5.26104e-20)
(-5.13725 0.0277401 5.21319e-20)
(-5.16253 0.0195035 0)
(-5.18029 0.0120994 5.11037e-20)
(-5.1908 0.00579092 5.05513e-20)
(-5.19424 0.000717521 0)
(-5.19186 -0.00320506 0)
(-5.1849 -0.0064508 0)
(-5.17347 -0.00940017 0)
(-5.15791 -0.0121085 0)
(-5.13837 -0.0146749 -4.61265e-20)
(-5.115 -0.0171132 0)
(-5.0879 -0.0194346 4.426e-20)
(-5.05717 -0.021648 0)
(-5.02293 -0.0237556 0)
(-4.98527 -0.0257593 -4.108e-20)
(-4.94429 -0.0276593 0)
(-4.90011 -0.0294557 3.8703e-20)
(-4.85282 -0.0311481 0)
(-4.80256 -0.0327367 0)
(-4.74942 -0.0342211 0)
(-4.69354 -0.0356015 -3.33208e-20)
(-4.63503 -0.036878 0)
(-4.57403 -0.0380518 0)
(-4.51065 -0.0391232 -2.87212e-20)
(-4.44503 -0.0400932 0)
(-4.37729 -0.040963 -2.53782e-20)
(-4.30757 -0.0417341 0)
(-4.23601 -0.0424083 0)
(-4.16273 -0.0429877 0)
(-4.08786 -0.0434742 1.79969e-20)
(-4.01153 -0.0438705 0)
(-3.93387 -0.0441788 0)
(-3.85502 -0.0444019 1.18114e-20)
(-3.77508 -0.044542 9.6162e-21)
(-3.6942 -0.0446014 0)
(-3.61247 -0.0445823 5.01134e-21)
(-3.53002 -0.044487 0)
(-3.44697 -0.0443186 1.99787e-22)
(-3.36341 -0.0440817 0)
(-3.27946 -0.0437831 -1.02975e-20)
(-3.1952 -0.0434329 0)
(-3.11073 -0.0430453 2.15485e-20)
(-3.02613 -0.0426409 0)
(-2.94146 -0.0422489 0)
(-2.85679 -0.0419123 0)
(-2.77214 -0.0416937 -4.6763e-20)
(-2.68756 -0.0416753 0)
(-2.60303 -0.0419459 6.10535e-20)
(-2.51854 -0.0425598 0)
(-2.43403 -0.0434549 -7.67414e-20)
(-2.34978 -0.0443549 -8.51292e-20)
(-2.26601 -0.0447989 -9.38465e-20)
(-2.183 -0.044581 0)
(-2.10089 -0.0439727 0)
(-2.01971 -0.0432743 0)
(-1.93947 -0.0425697 0)
(-1.86018 -0.04187 0)
(-1.78187 -0.041176 0)
(-1.70456 -0.0404896 0)
(-1.62827 -0.0398146 0)
(-1.55303 -0.0391567 1.93104e-19)
(-1.47885 -0.0385231 2.07452e-19)
(-1.40575 -0.0379192 0)
(-1.33373 -0.0373336 0)
(-1.26284 -0.036708 0)
(-1.19311 -0.0360505 2.74863e-19)
(-1.12453 -0.0354176 0)
(-1.05711 -0.0348032 0)
(-0.990854 -0.0342086 0)
(-0.925763 -0.0336359 0)
(-0.861837 -0.0330867 -3.91827e-19)
(-0.799074 -0.0325639 0)
(-0.737471 -0.0320704 0)
(-0.67702 -0.03161 4.90353e-19)
(-0.617715 -0.0311838 -5.30211e-19)
(-0.559549 -0.0307959 0)
(-0.502515 -0.0304566 -6.24241e-19)
(-0.446599 -0.0301908 0)
(-0.391784 -0.0300429 7.43842e-19)
(-0.338047 -0.0300223 0)
(-0.285376 -0.0300893 0)
(-0.233755 -0.0302334 0)
(-0.183155 -0.0304649 0)
(-0.133552 -0.0308004 0)
(-0.0849916 -0.0312588 -2.86241e-18)
(-0.0377011 -0.0317158 -3.29796e-18)
(0.00840401 -0.0313697 0)
(0.0538562 -0.0298262 0)
(0.0986284 -0.0279738 0)
(0.142578 -0.026261 2.675e-18)
(0.185613 -0.024732 0)
(0.227711 -0.023362 0)
(0.268897 -0.0221271 0)
(0.309206 -0.021008 2.03461e-18)
(0.348671 -0.0199868 -1.92893e-18)
(0.38732 -0.0190497 0)
(0.425177 -0.018185 0)
(0.462263 -0.0173842 -1.68347e-18)
(0.498603 -0.0166393 -1.61912e-18)
(0.534218 -0.0159448 0)
(0.569132 -0.015295 0)
(0.603366 -0.0146863 1.46155e-18)
(0.636943 -0.0141147 -1.41825e-18)
(0.669886 -0.0135775 0)
(0.702222 -0.0130716 0)
(0.733972 -0.012595 -1.3084e-18)
(0.765161 -0.0121455 0)
(0.79581 -0.0117215 0)
(0.825942 -0.0113212 -1.22121e-18)
(0.855579 -0.0109436 0)
(0.884747 -0.0105871 -1.1723e-18)
(0.913467 -0.0102508 0)
(0.941765 -0.00993335 0)
(0.969663 -0.00963403 0)
(0.997184 -0.00935133 1.0906e-18)
(1.02435 -0.00908457 0)
(1.05118 -0.008832 0)
(1.0777 -0.0085926 0)
(1.10392 -0.00836411 0)
(1.12984 -0.00814469 0)
(1.15548 -0.00793099 0)
(1.18082 -0.00771952 9.82254e-19)
(1.20585 -0.00750477 9.69393e-19)
(1.23052 -0.00728005 0)
(1.25475 -0.00703554 0)
(1.27846 -0.0067581 0)
(1.30146 -0.00642853 -9.2425e-19)
(1.32352 -0.00601854 0)
(1.34423 -0.00548589 1.81354e-18)
(1.36315 -0.00475286 -1.80022e-18)
(1.37884 -0.00370337 -1.79157e-18)
(1.39142 -0.0019521 1.78975e-18)
(1.39168 0.00138314 -1.79569e-18)
(1.38904 0.00811631 1.80793e-18)
(1.30954 0.019864 0)
(0.0970437 -0.27232 0)
(0.332998 -0.681617 0)
(0.512859 -0.704875 1.57212e-19)
(0.609953 -0.568998 0)
(0.660501 -0.406339 -1.11214e-19)
(0.680412 -0.251206 -1.08226e-19)
(0.673873 -0.109526 -5.6361e-20)
(0.642967 0.0182276 -5.62843e-20)
(0.599674 0.127882 0)
(0.54 0.214019 -6.0965e-20)
(0.462679 0.268797 0)
(0.367621 0.283585 0)
(0.251005 0.255898 1.7152e-19)
(0.102388 0.211386 9.89868e-20)
(-0.0840245 0.208505 -1.84021e-19)
(-0.311763 0.275806 -1.42393e-19)
(-0.59081 0.387634 -5.66469e-20)
(-0.91656 0.516316 0)
(-1.27073 0.643107 0)
(-1.62817 0.755387 0)
(-1.98135 0.84133 -2.8345e-20)
(-2.32705 0.894695 0)
(-2.6566 0.917484 6.88398e-20)
(-2.96264 0.913503 0)
(-3.24134 0.886693 0)
(-3.49091 0.842264 1.98068e-20)
(-3.71021 0.785598 0)
(-3.90012 0.7222 -1.97581e-20)
(-4.06262 0.656241 -4.17871e-20)
(-4.20124 0.590403 2.01699e-20)
(-4.31889 0.526795 0)
(-4.41846 0.467162 0)
(-4.50265 0.412318 0)
(-4.57383 0.362604 -4.42488e-20)
(-4.63407 0.317973 -4.47525e-20)
(-4.68503 0.278148 -2.21843e-20)
(-4.72808 0.242719 0)
(-4.76433 0.211203 4.52889e-20)
(-4.79465 0.183104 0)
(-4.81976 0.157945 -4.58541e-20)
(-4.84024 0.135285 0)
(-4.85659 0.114735 0)
(-4.86921 0.0959529 4.60569e-20)
(-4.87848 0.0786526 0)
(-4.88475 0.0625944 1.38059e-19)
(-4.88831 0.0475858 -4.55719e-20)
(-4.88946 0.0334927 0)
(-4.88842 0.0202873 -4.48998e-20)
(-4.88547 0.00808758 -4.44413e-20)
(-4.88087 -0.00294333 0)
(-4.87369 -0.012868 0)
(-4.86282 -0.0219834 0)
(-4.84828 -0.0305262 0)
(-4.82995 -0.0386116 0)
(-4.80788 -0.046309 4.01708e-20)
(-4.78211 -0.0536549 7.90709e-20)
(-4.75272 -0.0606702 -3.83925e-20)
(-4.7198 -0.0673658 0)
(-4.68344 -0.0737475 7.33898e-20)
(-4.64373 -0.0798178 -3.59182e-20)
(-4.60077 -0.0855773 0)
(-4.55465 -0.0910257 -3.32172e-20)
(-4.50549 -0.0961629 0)
(-4.45339 -0.10099 0)
(-4.39847 -0.105509 -5.97899e-20)
(-4.34084 -0.10972 2.83339e-20)
(-4.28063 -0.113623 -5.45964e-20)
(-4.21794 -0.117221 5.18766e-20)
(-4.15291 -0.120518 2.42406e-20)
(-4.08567 -0.123518 0)
(-4.01633 -0.126226 2.13066e-20)
(-3.94503 -0.128648 0)
(-3.8719 -0.13079 0)
(-3.79707 -0.132661 0)
(-3.72065 -0.134267 1.55777e-20)
(-3.64278 -0.135619 0)
(-3.56359 -0.136724 2.36496e-20)
(-3.4832 -0.137592 -2.97962e-20)
(-3.40172 -0.138235 -7.88141e-21)
(-3.31928 -0.138662 0)
(-3.236 -0.138885 -4.07893e-21)
(-3.15198 -0.138916 0)
(-3.06734 -0.138767 -1.63006e-22)
(-2.98217 -0.138449 0)
(-2.89659 -0.137975 8.24722e-21)
(-2.81069 -0.137357 -2.38407e-20)
(-2.72456 -0.136607 -1.71052e-20)
(-2.6383 -0.135734 0)
(-2.55199 -0.134746 0)
(-2.46573 -0.133649 0)
(-2.37962 -0.132443 3.6335e-20)
(-2.29376 -0.131118 0)
(-2.2083 -0.129645 -4.68135e-20)
(-2.12338 -0.12797 0)
(-2.03914 -0.12604 1.72378e-19)
(-1.95566 -0.123882 6.38029e-20)
(-1.87294 -0.121598 6.98392e-20)
(-1.79092 -0.119294 0)
(-1.70959 -0.117027 0)
(-1.629 -0.114794 0)
(-1.54921 -0.112572 0)
(-1.47028 -0.110349 0)
(-1.39225 -0.108118 2.19924e-19)
(-1.31515 -0.105882 2.35434e-19)
(-1.23901 -0.103643 0)
(-1.16385 -0.101405 -1.35007e-19)
(-1.08971 -0.0991693 -1.43798e-19)
(-1.0166 -0.0969389 0)
(-0.94456 -0.0947154 -3.23604e-19)
(-0.873595 -0.0925033 0)
(-0.8037 -0.0903162 1.81639e-19)
(-0.734885 -0.0881597 0)
(-0.667161 -0.0860342 0)
(-0.600533 -0.0839418 -4.35208e-19)
(-0.535003 -0.0818841 0)
(-0.470571 -0.0798626 2.45267e-19)
(-0.407239 -0.0778805 0)
(-0.345004 -0.0759434 0)
(-0.283861 -0.0740601 2.90309e-19)
(-0.2238 -0.0722281 3.09661e-19)
(-0.164815 -0.070443 0)
(-0.1069 -0.068707 -3.4706e-19)
(-0.0500615 -0.0670207 0)
(0.00570573 -0.0653749 3.82951e-19)
(0.0604457 -0.0637638 7.65848e-19)
(0.114189 -0.0621986 0)
(0.166935 -0.0606941 0)
(0.218684 -0.0592539 0)
(0.269451 -0.0578765 0)
(0.319269 -0.0565642 7.08952e-19)
(0.36821 -0.0553057 2.09561e-18)
(0.416358 -0.0539198 0)
(0.463617 -0.0522631 0)
(0.50985 -0.0504856 0)
(0.555138 -0.0487388 -6.65382e-19)
(0.599557 -0.0470715 0)
(0.643132 -0.0454921 0)
(0.685882 -0.0439975 1.28749e-18)
(0.727828 -0.0425813 6.36734e-19)
(0.768994 -0.0412355 6.32217e-19)
(0.8094 -0.0399537 0)
(0.849066 -0.0387302 0)
(0.888013 -0.0375615 6.15697e-19)
(0.926261 -0.0364433 -6.09469e-19)
(0.963832 -0.0353732 0)
(1.00075 -0.0343483 0)
(1.03702 -0.0333671 -5.9663e-19)
(1.07269 -0.0324272 1.77593e-18)
(1.10776 -0.0315276 0)
(1.14226 -0.0306663 0)
(1.17622 -0.0298421 5.80192e-19)
(1.20965 -0.0290538 0)
(1.24257 -0.0283005 1.14471e-18)
(1.27502 -0.027581 -5.68434e-19)
(1.307 -0.0268946 0)
(1.33854 -0.0262402 5.6234e-19)
(1.36967 -0.0256169 1.11742e-18)
(1.40041 -0.0250235 0)
(1.43077 -0.024459 0)
(1.46079 -0.0239216 -5.49556e-19)
(1.49047 -0.0234099 0)
(1.51984 -0.0229212 1.08647e-18)
(1.54891 -0.022453 0)
(1.5777 -0.0220009 0)
(1.60621 -0.0215604 0)
(1.63445 -0.0211243 0)
(1.66241 -0.0206841 -5.29102e-19)
(1.69006 -0.0202271 -5.26351e-19)
(1.71738 -0.0197376 0)
(1.7443 -0.019192 0)
(1.77073 -0.0185595 0)
(1.79653 -0.0177939 5.16313e-19)
(1.82149 -0.0168286 0)
(1.84529 -0.0155603 -1.02525e-18)
(1.86749 -0.0138125 1.02301e-18)
(1.88721 -0.0112989 1.02266e-18)
(1.90395 -0.00728745 1.02371e-18)
(1.91415 -0.000490138 1.02918e-18)
(1.92635 0.0124813 1.02044e-18)
(1.9068 0.0362596 0)
(0.118567 -0.861529 0)
(0.266782 -1.05257 0)
(0.313714 -0.822823 -1.25642e-19)
(0.312822 -0.580917 -1.08159e-19)
(0.29512 -0.370416 1.00631e-19)
(0.26359 -0.185241 1.00905e-19)
(0.217028 -0.0197703 -6.45212e-22)
(0.154733 0.12793 0)
(0.0765587 0.258343 0)
(-0.0187549 0.368978 0)
(-0.134874 0.454205 0)
(-0.280006 0.514954 0)
(-0.467145 0.56916 -2.65919e-19)
(-0.706442 0.644952 0)
(-0.993545 0.758466 6.58465e-20)
(-1.3124 0.900457 5.68212e-20)
(-1.64518 1.04761 0)
(-1.97534 1.18013 0)
(-2.28802 1.28595 0)
(-2.57112 1.35897 0)
(-2.8188 1.39432 3.48232e-20)
(-3.03135 1.39087 0)
(-3.21024 1.35368 -3.22922e-20)
(-3.35848 1.29065 0)
(-3.48044 1.20902 0)
(-3.58069 1.11512 0)
(-3.66402 1.01496 -6.85644e-20)
(-3.73476 0.913795 0)
(-3.79642 0.815711 3.31222e-20)
(-3.85174 0.723449 -7.06918e-20)
(-3.90262 0.638494 0)
(-3.95034 0.56156 0)
(-3.99564 0.492682 0)
(-4.03889 0.431467 3.65608e-20)
(-4.08017 0.377265 3.71448e-20)
(-4.11946 0.329302 0)
(-4.1566 0.286786 0)
(-4.19143 0.248961 -7.77615e-20)
(-4.22377 0.215134 -7.81494e-20)
(-4.25346 0.184701 7.83778e-20)
(-4.28034 0.157147 0)
(-4.30432 0.132044 0)
(-4.3253 0.109049 0)
(-4.3432 0.0878787 0)
(-4.35797 0.0683012 -7.69463e-20)
(-4.36955 0.0501181 -7.68451e-20)
(-4.37787 0.0331462 7.62002e-20)
(-4.3828 0.0171846 0)
(-4.38415 0.0019771 0)
(-4.38178 -0.0127632 0)
(-4.37562 -0.0271631 0)
(-4.36573 -0.0411342 -7.10281e-20)
(-4.35218 -0.054589 0)
(-4.33499 -0.0675143 0)
(-4.31421 -0.0799144 -6.69142e-20)
(-4.28988 -0.091798 -6.4888e-20)
(-4.26207 -0.103172 0)
(-4.23086 -0.114041 1.24405e-19)
(-4.19632 -0.124407 -5.9948e-20)
(-4.15853 -0.134269 5.81709e-20)
(-4.11759 -0.143626 0)
(-4.07359 -0.152475 0)
(-4.02663 -0.160814 0)
(-3.97681 -0.168643 0)
(-3.92423 -0.175965 4.83363e-20)
(-3.86903 -0.18278 9.36025e-20)
(-3.81129 -0.189089 4.39698e-20)
(-3.75115 -0.194893 -4.16971e-20)
(-3.68872 -0.200201 0)
(-3.62413 -0.205018 7.52463e-20)
(-3.5575 -0.209351 7.0362e-20)
(-3.48895 -0.213211 6.53612e-20)
(-3.4186 -0.216606 -6.02446e-20)
(-3.34659 -0.21955 0)
(-3.27303 -0.222054 -7.38209e-20)
(-3.19805 -0.224132 0)
(-3.12178 -0.225799 2.00012e-20)
(-3.04434 -0.227069 1.5777e-20)
(-2.96583 -0.227959 0)
(-2.8864 -0.228486 0)
(-2.80614 -0.228667 1.51657e-20)
(-2.72516 -0.22852 0)
(-2.6436 -0.228062 2.72698e-21)
(-2.56153 -0.227313 0)
(-2.47908 -0.226292 1.02007e-20)
(-2.39634 -0.225018 3.51343e-20)
(-2.31342 -0.22351 0)
(-2.2304 -0.221788 0)
(-2.14739 -0.219871 0)
(-2.06448 -0.217775 4.47986e-20)
(-1.98177 -0.215516 0)
(-1.89935 -0.213106 5.96259e-20)
(-1.81732 -0.210545 0)
(-1.73577 -0.207818 0)
(-1.65478 -0.204899 -1.67519e-19)
(-1.57437 -0.201773 0)
(-1.49456 -0.198455 -9.95548e-20)
(-1.41536 -0.194989 0)
(-1.3368 -0.19143 -1.16845e-19)
(-1.25894 -0.187819 0)
(-1.18183 -0.184171 0)
(-1.10553 -0.180495 0)
(-1.03008 -0.176798 -4.63529e-19)
(-0.955511 -0.173084 -1.65331e-19)
(-0.881856 -0.169363 0)
(-0.809141 -0.165639 0)
(-0.737392 -0.16192 0)
(-0.66663 -0.15821 0)
(-0.596874 -0.154513 2.19176e-19)
(-0.528132 -0.150835 -4.59165e-19)
(-0.460414 -0.147186 -2.43036e-19)
(-0.393729 -0.143574 5.08412e-19)
(-0.328088 -0.140005 5.34241e-19)
(-0.263497 -0.136484 2.81789e-19)
(-0.199958 -0.133013 0)
(-0.137471 -0.129594 6.1712e-19)
(-0.076039 -0.126228 0)
(-0.0156625 -0.12292 -6.74158e-19)
(0.0436654 -0.11967 -3.4527e-19)
(0.101958 -0.116481 0)
(0.15922 -0.113354 6.93324e-19)
(0.215459 -0.110293 3.48927e-19)
(0.270684 -0.107297 0)
(0.324906 -0.104357 3.48811e-19)
(0.378131 -0.101462 -1.05307e-18)
(0.43037 -0.0986211 0)
(0.481636 -0.0958451 0)
(0.531945 -0.0931364 0)
(0.581316 -0.090496 0)
(0.629771 -0.0879291 -7.07885e-19)
(0.677343 -0.085443 -7.10374e-19)
(0.724055 -0.0830531 0)
(0.769872 -0.0807435 0)
(0.814779 -0.0784739 0)
(0.858833 -0.0762457 0)
(0.902075 -0.0740755 0)
(0.944519 -0.0719721 0)
(0.986179 -0.0699377 -7.14134e-19)
(1.02707 -0.0679721 -1.08862e-21)
(1.06722 -0.0660731 0)
(1.10663 -0.0642389 0)
(1.14533 -0.0624677 -7.13969e-19)
(1.18335 -0.0607579 0)
(1.22069 -0.0591077 7.15018e-19)
(1.25738 -0.057516 7.14158e-19)
(1.29344 -0.0559814 0)
(1.32889 -0.0545029 0)
(1.36375 -0.0530792 -7.14693e-19)
(1.39804 -0.0517094 -1.4276e-18)
(1.43179 -0.0503922 0)
(1.46501 -0.0491267 0)
(1.49772 -0.047912 0)
(1.52995 -0.0467471 -7.13405e-19)
(1.56172 -0.0456313 7.13029e-19)
(1.59305 -0.0445636 0)
(1.62396 -0.0435429 1.42321e-18)
(1.65447 -0.0425682 7.10596e-19)
(1.68461 -0.0416381 -1.4212e-18)
(1.71439 -0.0407509 0)
(1.74383 -0.0399047 0)
(1.77296 -0.0390969 -1.41747e-18)
(1.80179 -0.038324 -7.08466e-19)
(1.83035 -0.0375818 0)
(1.85863 -0.0368643 0)
(1.88666 -0.0361642 0)
(1.91443 -0.0354708 0)
(1.94195 -0.0347711 -1.40757e-18)
(1.9692 -0.0340458 0)
(1.99614 -0.033271 0)
(2.02274 -0.0324114 0)
(2.0489 -0.0314198 0)
(2.07453 -0.0302273 0)
(2.09944 -0.0287337 0)
(2.12338 -0.0267871 -1.39842e-18)
(2.14601 -0.0241364 0)
(2.16665 -0.0203756 0)
(2.18507 -0.0147143 -2.81822e-18)
(2.19849 -0.00582855 1.41926e-18)
(2.21312 0.00894154 -1.41706e-18)
(2.20801 0.0363414 1.41278e-18)
(0.033245 -1.16437 0)
(0.0681701 -1.02573 3.60226e-19)
(0.0321813 -0.742906 0)
(-0.0126104 -0.502442 1.10867e-19)
(-0.0684225 -0.279561 0)
(-0.136788 -0.0698052 0)
(-0.220561 0.127175 -8.26111e-20)
(-0.322121 0.310625 0)
(-0.443601 0.480117 0)
(-0.587635 0.636231 0)
(-0.758097 0.781572 0)
(-0.960186 0.922316 0)
(-1.19635 1.06652 2.03262e-19)
(-1.46066 1.21729 9.20388e-20)
(-1.73848 1.36809 -8.33619e-20)
(-2.01149 1.50549 0)
(-2.26424 1.61585 0)
(-2.48697 1.69013 0)
(-2.67505 1.72491 0)
(-2.82692 1.72171 0)
(-2.94507 1.68427 6.00645e-20)
(-3.0352 1.61756 5.87609e-20)
(-3.10357 1.52848 -5.79268e-20)
(-3.15651 1.42485 5.76457e-20)
(-3.19931 1.31331 0)
(-3.2363 1.19925 0)
(-3.27087 1.08697 5.58429e-20)
(-3.30533 0.979691 0)
(-3.34094 0.879504 0)
(-3.37819 0.78741 5.86988e-20)
(-3.41707 0.703631 6.1503e-20)
(-3.45723 0.62793 6.22122e-20)
(-3.49813 0.559772 0)
(-3.53917 0.498459 0)
(-3.57974 0.443233 -6.40126e-20)
(-3.61928 0.393339 0)
(-3.65729 0.34807 0)
(-3.69336 0.306787 6.42786e-20)
(-3.72716 0.268928 -6.59885e-20)
(-3.75841 0.234008 6.59965e-20)
(-3.78688 0.201615 0)
(-3.81239 0.171401 0)
(-3.83479 0.14307 1.29916e-19)
(-3.85395 0.116375 0)
(-3.86976 0.0911045 1.28519e-19)
(-3.88214 0.0670839 1.90872e-19)
(-3.891 0.0441703 -1.89225e-19)
(-3.89627 0.0222442 1.25212e-19)
(-3.89791 0.00118879 0)
(-3.89593 -0.0191111 0)
(-3.89035 -0.0387321 1.19747e-19)
(-3.88124 -0.0576924 5.8342e-20)
(-3.86862 -0.0759881 0)
(-3.85254 -0.0936177 0)
(-3.83302 -0.11058 5.48339e-20)
(-3.81012 -0.126875 1.08117e-19)
(-3.78389 -0.1425 0)
(-3.75439 -0.157453 -1.01662e-19)
(-3.7217 -0.171729 9.98321e-20)
(-3.68588 -0.185324 -9.68594e-20)
(-3.64703 -0.198233 0)
(-3.60523 -0.210451 0)
(-3.56057 -0.221971 0)
(-3.51315 -0.232792 0)
(-3.46307 -0.242918 0)
(-3.41045 -0.252348 -7.57818e-20)
(-3.35538 -0.261082 0)
(-3.29798 -0.269125 0)
(-3.23837 -0.276483 0)
(-3.17666 -0.283166 -1.22334e-19)
(-3.11297 -0.289184 -5.65585e-20)
(-3.04742 -0.294548 -5.24564e-20)
(-2.98013 -0.299274 9.77463e-20)
(-2.91123 -0.303377 -4.52148e-20)
(-2.84082 -0.306873 3.96619e-20)
(-2.76904 -0.309781 0)
(-2.696 -0.31212 -3.07375e-20)
(-2.62182 -0.313913 0)
(-2.54662 -0.315179 0)
(-2.4705 -0.315943 0)