/*--------------------------------*- C++ -*----------------------------------*\
  =========                 |
  \\      /  F ield         | OpenFOAM: The Open Source CFD Toolbox
   \\    /   O peration     | Website:  https://openfoam.org
    \\  /    A nd           | Version:  8
     \\/     M anipulation  |
\*---------------------------------------------------------------------------*/
FoamFile
{
    version     2.0;
    format      ascii;
    class       volScalarField;
    location    "461";
    object      p;
}
// * * * * * * * * * * * * * * * * * * * * * * * * * * * * * * * * * * * * * //

dimensions      [0 2 -2 0 0 0 0];

internalField   nonuniform List<scalar> 
12225
(
-1.33503
-3.5994
-4.71741
-5.03202
-5.21057
-5.37974
-5.51186
-5.60725
-5.68395
-5.75175
-5.81239
-5.86837
-5.91999
-5.96932
-6.01715
-6.06038
-6.11575
-6.1078
-4.55667
-5.36368
-5.52138
-5.41863
-5.40314
-5.47163
-5.55014
-5.61648
-5.6767
-5.7347
-5.79017
-5.84237
-5.89223
-5.94026
-5.98775
-6.03245
-6.08413
-6.12969
-4.97112
-4.94872
-5.07261
-5.15593
-5.25687
-5.38141
-5.49157
-5.57844
-5.65165
-5.71808
-5.7794
-5.83583
-5.88901
-5.93951
-5.98907
-6.03616
-6.08924
-6.13677
-4.84884
-4.78212
-5.02893
-5.19825
-5.30381
-5.41043
-5.50873
-5.58955
-5.65881
-5.7224
-5.78173
-5.83691
-5.88913
-5.93898
-5.98784
-6.0352
-6.08547
-6.13309
-4.84258
-4.8652
-5.09496
-5.24284
-5.32697
-5.41772
-5.50923
-5.58785
-5.65603
-5.71882
-5.77771
-5.8328
-5.88502
-5.935
-5.98385
-6.03154
-6.08021
-6.12804
-4.90765
-4.95678
-5.12628
-5.25283
-5.33535
-5.4224
-5.51071
-5.58804
-5.65556
-5.71772
-5.77611
-5.83093
-5.88292
-5.93271
-5.98116
-6.02847
-6.07571
-6.1223
-4.97573
-5.01896
-5.14608
-5.26284
-5.34805
-5.43136
-5.51476
-5.5896
-5.65594
-5.71717
-5.77479
-5.82909
-5.88062
-5.92999
-5.97784
-6.02443
-6.07029
-6.11513
-5.028
-5.06443
-5.16938
-5.27715
-5.36083
-5.43981
-5.51863
-5.59106
-5.6562
-5.71651
-5.77336
-5.82708
-5.87812
-5.92699
-5.9742
-6.02
-6.06465
-6.10795
-5.07167
-5.10421
-5.19341
-5.29141
-5.37214
-5.44749
-5.52248
-5.59265
-5.65657
-5.71595
-5.77201
-5.82511
-5.87561
-5.92394
-5.97049
-6.01547
-6.05905
-6.10099
-5.11713
-5.14622
-5.22082
-5.30802
-5.38479
-5.45646
-5.52745
-5.59493
-5.65728
-5.71547
-5.77051
-5.82279
-5.87256
-5.92015
-5.96587
-6.00987
-6.05225
-6.09276
-5.16375
-5.18916
-5.25097
-5.32739
-5.39921
-5.46689
-5.53368
-5.59806
-5.65843
-5.71514
-5.76893
-5.82014
-5.86896
-5.91561
-5.96031
-6.00316
-6.04422
-6.08326
-5.21055
-5.23226
-5.28332
-5.34947
-5.41539
-5.47871
-5.5412
-5.60214
-5.66014
-5.71506
-5.76733
-5.81722
-5.86484
-5.91033
-5.95383
-5.99538
-6.03503
-6.07259
-5.25642
-5.2747
-5.31692
-5.37362
-5.43311
-5.49171
-5.54989
-5.60717
-5.66244
-5.71525
-5.76574
-5.81405
-5.86023
-5.90436
-5.94647
-5.98661
-6.0248
-6.06088
-5.30005
-5.31533
-5.35037
-5.3988
-5.45181
-5.50551
-5.55938
-5.61292
-5.6652
-5.71563
-5.7641
-5.8106
-5.85515
-5.89772
-5.93833
-5.97697
-6.01366
-6.0483
-5.33978
-5.3526
-5.38195
-5.42344
-5.47043
-5.51932
-5.56903
-5.6189
-5.6681
-5.71598
-5.76225
-5.8068
-5.84956
-5.89046
-5.92948
-5.9666
-6.00182
-6.03508
-5.37344
-5.38435
-5.40941
-5.44545
-5.48731
-5.53186
-5.57778
-5.62427
-5.67051
-5.71586
-5.75992
-5.80248
-5.84341
-5.88262
-5.92005
-5.95567
-5.98948
-6.02146
-5.39805
-5.40762
-5.42973
-5.46193
-5.49999
-5.54114
-5.58401
-5.62771
-5.67144
-5.71455
-5.75659
-5.79731
-5.83654
-5.87416
-5.91012
-5.94436
-5.9769
-6.00773
-5.40849
-5.41744
-5.4382
-5.46862
-5.50484
-5.54422
-5.58539
-5.62746
-5.66963
-5.71126
-5.75191
-5.7913
-5.82926
-5.86568
-5.90049
-5.93367
-5.96522
-5.99515
-5.40383
-5.41285
-5.4338
-5.46453
-5.50104
-5.54052
-5.58157
-5.62336
-5.66514
-5.70629
-5.74636
-5.78512
-5.82241
-5.85815
-5.89229
-5.92481
-5.95573
-5.98508
-5.38796
-5.39751
-5.4198
-5.45257
-5.49115
-5.53219
-5.57432
-5.61689
-5.6592
-5.70062
-5.74075
-5.77941
-5.8165
-5.85197
-5.88578
-5.91795
-5.94851
-5.97752
-5.36393
-5.37423
-5.39884
-5.43535
-5.47748
-5.52106
-5.5651
-5.60927
-5.65278
-5.69494
-5.73549
-5.77438
-5.81156
-5.84699
-5.8807
-5.91272
-5.9431
-5.97192
-5.33403
-5.34472
-5.37261
-5.41502
-5.46204
-5.50859
-5.55498
-5.60131
-5.64647
-5.68968
-5.73089
-5.7702
-5.80762
-5.84316
-5.87686
-5.90882
-5.9391
-5.96781
-5.30028
-5.31014
-5.342
-5.39292
-5.44617
-5.49607
-5.54519
-5.59394
-5.64078
-5.68506
-5.72702
-5.76686
-5.80461
-5.84031
-5.87408
-5.90604
-5.93628
-5.96494
-5.26417
-5.27169
-5.30958
-5.37039
-5.42917
-5.48295
-5.53617
-5.58794
-5.63634
-5.68148
-5.72408
-5.76437
-5.80237
-5.83818
-5.87197
-5.90391
-5.93411
-5.9627
-5.22552
-5.22544
-5.28127
-5.3547
-5.41346
-5.46857
-5.52649
-5.58207
-5.63236
-5.67856
-5.72195
-5.76277
-5.80104
-5.83695
-5.87076
-5.90267
-5.93284
-5.96142
-5.19049
-5.1492
-5.24539
-5.34824
-5.40789
-5.46094
-5.52017
-5.57712
-5.62804
-5.67479
-5.71875
-5.76002
-5.79856
-5.83463
-5.86853
-5.90049
-5.93069
-5.95929
-5.20761
-5.05136
-5.16354
-5.3049
-5.38923
-5.45679
-5.52255
-5.58109
-5.632
-5.67857
-5.7223
-5.7632
-5.8013
-5.83695
-5.87044
-5.90202
-5.93192
-5.96039
-5.32683
-5.14517
-5.15288
-5.21986
-5.30119
-5.39302
-5.47825
-5.54847
-5.60756
-5.66047
-5.70891
-5.75315
-5.79363
-5.83101
-5.86577
-5.89828
-5.92901
-5.95857
-5.06115
-5.5946
-5.6776
-5.5643
-5.51125
-5.53407
-5.57718
-5.6176
-5.65669
-5.69669
-5.73636
-5.77425
-5.81
-5.8437
-5.87549
-5.90539
-5.93363
-5.96227
-2.17743
-3.8088
-4.77351
-5.0757
-5.22496
-5.36521
-5.47724
-5.55692
-5.61956
-5.67484
-5.72473
-5.7696
-5.81028
-5.84762
-5.88205
-5.91363
-5.94208
-5.9656
-6.80711
-6.80711
-6.80743
-6.80812
-6.80902
-6.81004
-6.8112
-6.81251
-6.81401
-6.81575
-6.81778
-6.82015
-6.8229
-6.82607
-6.82972
-6.83388
-6.8386
-6.84391
-6.84986
-6.8565
-6.86388
-6.87205
-6.88109
-6.89108
-6.90207
-6.91415
-6.92733
-6.94169
-6.95722
-6.97385
-6.99129
-7.00966
-7.0295
-7.05033
-7.0715
-7.09467
-7.12009
-7.1461
-7.17192
-7.19765
-7.22581
-7.25429
-7.2809
-7.30403
-7.32772
-7.35551
-7.38396
-7.4133
-7.44317
-7.47343
-7.5039
-7.53447
-7.56501
-7.59542
-7.62559
-7.65542
-7.68481
-7.71365
-7.74183
-7.76923
-7.79575
-7.82124
-7.8456
-7.86867
-7.89033
-7.91042
-7.92879
-7.94528
-7.95973
-7.97197
-7.98183
-7.98912
-7.99367
-7.99528
-7.99377
-7.98894
-7.9806
-7.96856
-7.95261
-7.93257
-7.90823
-7.87941
-7.84591
-7.80754
-7.76413
-7.71549
-7.66145
-7.60184
-7.5365
-7.46528
-7.38804
-7.30465
-7.21499
-7.11895
-7.01644
-6.90749
-6.79218
-6.67048
-6.54185
-6.40603
-6.26321
-6.1135
-5.95693
-5.79353
-5.62334
-5.4464
-5.26278
-5.07255
-4.8758
-4.67264
-4.46318
-4.24757
-4.02594
-3.79847
-3.56533
-3.32672
-3.08285
-2.83392
-2.58017
-2.32185
-2.0592
-1.79248
-1.52197
-1.24796
-0.970712
-0.690537
-0.407729
-0.122591
0.164572
0.453457
0.743767
1.03519
1.32739
1.62003
1.91286
2.20559
2.4979
2.78949
3.08008
3.36938
3.65712
3.94304
4.22688
4.5084
4.78736
5.06355
5.33674
5.60674
5.87336
6.13642
6.39576
6.65123
6.90269
7.15001
7.39307
7.63177
7.86602
8.09573
8.32083
8.54127
8.75699
8.96794
9.17411
9.37547
9.57217
9.76406
9.95086
10.1325
10.309
10.4805
10.6468
10.8081
10.9644
11.1156
11.262
11.4039
11.5424
11.6785
11.8227
11.9715
-6.80623
-6.80644
-6.80686
-6.80749
-6.80815
-6.80872
-6.80928
-6.80995
-6.81085
-6.81205
-6.81358
-6.81548
-6.81778
-6.82051
-6.8237
-6.82737
-6.83159
-6.83637
-6.84177
-6.84783
-6.8546
-6.86214
-6.8705
-6.87974
-6.8899
-6.901
-6.91306
-6.92605
-6.9399
-6.95455
-6.97013
-6.98711
-7.00498
-7.02339
-7.04369
-7.06504
-7.08565
-7.10619
-7.1274
-7.1512
-7.17612
-7.20238
-7.23141
-7.26542
-7.30121
-7.3323
-7.36277
-7.39311
-7.42348
-7.45393
-7.48442
-7.5149
-7.5453
-7.57554
-7.60553
-7.63519
-7.66441
-7.6931
-7.72115
-7.74845
-7.77489
-7.80034
-7.82469
-7.84779
-7.86951
-7.8897
-7.90822
-7.9249
-7.93958
-7.95209
-7.96226
-7.96992
-7.97488
-7.97695
-7.97595
-7.97168
-7.96395
-7.95257
-7.93733
-7.91805
-7.89452
-7.86657
-7.83398
-7.79659
-7.7542
-7.70664
-7.65373
-7.59531
-7.53122
-7.46132
-7.38546
-7.30351
-7.21535
-7.12086
-7.01992
-6.91242
-6.79818
-6.677
-6.54904
-6.41446
-6.27316
-6.12504
-5.97011
-5.80838
-5.63986
-5.4646
-5.28266
-5.0941
-4.89902
-4.69752
-4.48971
-4.27572
-4.05571
-3.82982
-3.59825
-3.36117
-3.11878
-2.87131
-2.61898
-2.36203
-2.1007
-1.83526
-1.56598
-1.29313
-1.01699
-0.737865
-0.456045
-0.171833
0.114468
0.402558
0.692141
0.982907
1.27451
1.56664
1.85902
2.15136
2.44336
2.73471
3.02513
3.31433
3.60205
3.888
4.17195
4.45363
4.73283
5.00931
5.28285
5.55326
5.82035
6.08393
6.34383
6.59992
6.85203
7.10005
7.34385
7.58334
7.8184
8.04896
8.27495
8.4963
8.71296
8.92492
9.13216
9.33462
9.53198
9.72407
9.91102
10.0929
10.2697
10.4414
10.6081
10.7698
10.9265
11.0783
11.2254
11.3682
11.5082
11.6461
11.7933
11.9378
-6.80296
-6.80373
-6.80482
-6.80583
-6.8065
-6.8069
-6.80723
-6.80765
-6.80828
-6.80922
-6.81052
-6.81221
-6.81433
-6.81689
-6.81993
-6.82348
-6.82758
-6.83226
-6.83758
-6.84357
-6.85028
-6.85777
-6.86606
-6.87522
-6.88527
-6.89623
-6.90812
-6.92097
-6.93477
-6.94954
-6.96536
-6.98235
-7.00044
-7.01945
-7.03961
-7.0608
-7.08267
-7.1054
-7.12921
-7.15411
-7.17932
-7.20465
-7.23096
-7.2591
-7.28873
-7.31811
-7.34771
-7.37747
-7.40733
-7.43728
-7.46725
-7.4972
-7.52707
-7.55679
-7.58627
-7.61543
-7.64418
-7.67243
-7.70007
-7.72701
-7.75312
-7.77828
-7.80238
-7.82528
-7.84685
-7.86693
-7.88539
-7.90206
-7.91679
-7.9294
-7.93973
-7.9476
-7.95283
-7.95524
-7.95463
-7.95082
-7.94361
-7.93281
-7.91822
-7.89965
-7.87691
-7.8498
-7.81813
-7.78172
-7.74037
-7.69392
-7.64218
-7.585
-7.52221
-7.45365
-7.3792
-7.29871
-7.21205
-7.11912
-7.0198
-6.914
-6.80156
-6.68231
-6.55627
-6.42355
-6.28411
-6.13789
-5.9849
-5.82513
-5.65859
-5.48534
-5.30541
-5.11888
-4.92583
-4.72636
-4.52057
-4.3086
-4.09059
-3.8667
-3.63709
-3.40196
-3.16149
-2.9159
-2.66542
-2.41028
-2.15072
-1.887
-1.61938
-1.34814
-1.07357
-0.795941
-0.515559
-0.232721
0.0522707
0.339117
0.627528
0.917185
1.20776
1.49893
1.79044
2.08197
2.37323
2.66392
2.95376
3.24245
3.52973
3.81532
4.09898
4.38045
4.65949
4.93589
5.20941
5.47986
5.74705
6.01078
6.2709
6.52724
6.77967
7.02804
7.27223
7.51214
7.74766
7.97871
8.20521
8.42708
8.64426
8.85668
9.06429
9.2671
9.46505
9.65809
9.84617
10.0292
10.2071
10.38
10.5479
10.7107
10.8686
11.0216
11.1702
11.3147
11.4569
11.5965
11.7464
11.8801
-6.79745
-6.79889
-6.80105
-6.80287
-6.80404
-6.8048
-6.80538
-6.80596
-6.80669
-6.80766
-6.80896
-6.81063
-6.81272
-6.81526
-6.81828
-6.82182
-6.82591
-6.83059
-6.8359
-6.84189
-6.8486
-6.85607
-6.86434
-6.87346
-6.88345
-6.89433
-6.9061
-6.91879
-6.93241
-6.94698
-6.96255
-6.97916
-6.99683
-7.01555
-7.03531
-7.05607
-7.07781
-7.10061
-7.12448
-7.14931
-7.1748
-7.20078
-7.22739
-7.25474
-7.28277
-7.31121
-7.34001
-7.36908
-7.39835
-7.42775
-7.45722
-7.48669
-7.51611
-7.54539
-7.57447
-7.60325
-7.63166
-7.6596
-7.68696
-7.71365
-7.73956
-7.76456
-7.78853
-7.81134
-7.83286
-7.85294
-7.87143
-7.88818
-7.90303
-7.91582
-7.92636
-7.93449
-7.94003
-7.94278
-7.94257
-7.9392
-7.93248
-7.92222
-7.90822
-7.89028
-7.86821
-7.84183
-7.81093
-7.77533
-7.73484
-7.68929
-7.6385
-7.5823
-7.52053
-7.45304
-7.37968
-7.3003
-7.21479
-7.12302
-7.02487
-6.92024
-6.80903
-6.69113
-6.56654
-6.43525
-6.29725
-6.1525
-6.00099
-5.84271
-5.67769
-5.50596
-5.32757
-5.14258
-4.95107
-4.75313
-4.54888
-4.33844
-4.12196
-3.89957
-3.67145
-3.43779
-3.19878
-2.95462
-2.70554
-2.45177
-2.19355
-1.93114
-1.66479
-1.39478
-1.12138
-0.844894
-0.565604
-0.283811
0.000182617
0.286087
0.573609
0.862418
1.15219
1.44264
1.73348
2.0244
2.3151
2.60529
2.89468
3.18298
3.46993
3.75525
4.03868
4.31998
4.59891
4.87524
5.14875
5.41923
5.6865
5.95035
6.21063
6.46718
6.71984
6.96848
7.21297
7.45321
7.68908
7.92048
8.14735
8.36962
8.58723
8.8001
9.00818
9.21144
9.4099
9.60357
9.79234
9.9761
10.1548
10.3284
10.497
10.6606
10.8193
10.9733
11.1228
11.2682
11.4113
11.5509
11.6995
11.8202
-6.7909
-6.79309
-6.79653
-6.79943
-6.80134
-6.80266
-6.8037
-6.80467
-6.80571
-6.80694
-6.80845
-6.81031
-6.81258
-6.81528
-6.81847
-6.82216
-6.82642
-6.83126
-6.83674
-6.84289
-6.84977
-6.85741
-6.86586
-6.87516
-6.88533
-6.89639
-6.90836
-6.92123
-6.93502
-6.94975
-6.96546
-6.98216
-6.99988
-7.01862
-7.03837
-7.0591
-7.08077
-7.10337
-7.12689
-7.15123
-7.17632
-7.20206
-7.22846
-7.25548
-7.283
-7.31092
-7.33917
-7.36771
-7.39647
-7.4254
-7.45443
-7.48349
-7.51252
-7.54145
-7.5702
-7.59868
-7.62681
-7.65451
-7.68166
-7.70817
-7.73393
-7.75881
-7.7827
-7.80546
-7.82696
-7.84706
-7.8656
-7.88244
-7.89741
-7.91035
-7.92108
-7.92943
-7.93521
-7.93825
-7.93836
-7.93534
-7.929
-7.91915
-7.9056
-7.88814
-7.86658
-7.84073
-7.8104
-7.77539
-7.73553
-7.69063
-7.64052
-7.58502
-7.52398
-7.45723
-7.38464
-7.30606
-7.22136
-7.13041
-7.03311
-6.92935
-6.81904
-6.7021
-6.5785
-6.44821
-6.31121
-6.16746
-6.01696
-5.8597
-5.69571
-5.52501
-5.34765
-5.16369
-4.97322
-4.77632
-4.57311
-4.36369
-4.14823
-3.92685
-3.69974
-3.46706
-3.22902
-2.98582
-2.73768
-2.48482
-2.2275
-1.96595
-1.70045
-1.43125
-1.15865
-0.882914
-0.60435
-0.323252
-0.0399181
0.245369
0.5323
0.820541
1.10978
1.39977
1.69018
1.98071
2.27105
2.56092
2.85003
3.13809
3.42483
3.70999
3.99331
4.27452
4.55341
4.82973
5.10326
5.37381
5.64117
5.90515
6.16559
6.42233
6.67521
6.92409
7.16884
7.40936
7.64553
7.87728
8.10451
8.32715
8.54513
8.75839
8.96687
9.17051
9.3693
9.56325
9.75231
9.93639
10.1154
10.2894
10.4584
10.6224
10.7815
10.9359
11.0857
11.2315
11.3744
11.5127
11.6582
11.7669
-6.78466
-6.78754
-6.79224
-6.79622
-6.79894
-6.80091
-6.80252
-6.80398
-6.80545
-6.80708
-6.80895
-6.81115
-6.81374
-6.81676
-6.82025
-6.82426
-6.82883
-6.83398
-6.83978
-6.84625
-6.85345
-6.86141
-6.87019
-6.87981
-6.8903
-6.9017
-6.914
-6.92722
-6.94135
-6.95641
-6.97241
-6.98935
-7.00726
-7.02611
-7.0459
-7.06661
-7.08819
-7.11063
-7.13387
-7.15787
-7.18257
-7.20792
-7.23389
-7.26042
-7.28744
-7.31487
-7.34266
-7.37076
-7.39911
-7.42764
-7.45631
-7.48504
-7.51376
-7.54241
-7.5709
-7.59917
-7.62711
-7.65464
-7.68165
-7.70805
-7.73373
-7.75856
-7.78243
-7.8052
-7.82673
-7.84689
-7.86552
-7.88247
-7.89758
-7.91068
-7.92159
-7.93015
-7.93617
-7.93946
-7.93984
-7.93712
-7.9311
-7.92158
-7.90838
-7.89129
-7.87012
-7.84467
-7.81476
-7.78019
-7.74078
-7.69635
-7.64672
-7.59171
-7.53118
-7.46495
-7.39289
-7.31486
-7.23071
-7.14033
-7.04362
-6.94046
-6.83077
-6.71448
-6.59155
-6.46192
-6.32558
-6.1825
-6.03267
-5.87608
-5.71276
-5.54274
-5.36607
-5.18279
-4.99301
-4.79679
-4.59425
-4.38552
-4.17073
-3.95002
-3.72357
-3.49156
-3.25416
-3.0116
-2.76409
-2.51185
-2.25512
-1.99416
-1.72923
-1.46059
-1.18852
-0.913306
-0.635241
-0.354624
-0.0717426
0.213114
0.499621
0.787455
1.07633
1.36598
1.65609
1.94632
2.2364
2.52604
2.81493
3.10281
3.3894
3.67443
3.95764
4.23879
4.51762
4.79392
5.06746
5.33804
5.60545
5.86952
6.13006
6.38691
6.63992
6.88896
7.13391
7.37463
7.61103
7.84301
8.07049
8.29338
8.51162
8.72514
8.93387
9.13776
9.33678
9.53091
9.72014
9.9044
10.0836
10.2579
10.4271
10.5913
10.7506
10.9051
11.0551
11.2007
11.343
11.4793
11.6216
11.7198
-6.77974
-6.78327
-6.78901
-6.79395
-6.79745
-6.80008
-6.80228
-6.80427
-6.80623
-6.80832
-6.81062
-6.81324
-6.81624
-6.81966
-6.82355
-6.82796
-6.83293
-6.83849
-6.84469
-6.85156
-6.85916
-6.86752
-6.87668
-6.88668
-6.89754
-6.90929
-6.92193
-6.93548
-6.94994
-6.96529
-6.98155
-6.99871
-7.01676
-7.0357
-7.05551
-7.07616
-7.09763
-7.1199
-7.14291
-7.16665
-7.19106
-7.2161
-7.24173
-7.26789
-7.29454
-7.32162
-7.34907
-7.37683
-7.40487
-7.43312
-7.46152
-7.49001
-7.51852
-7.54698
-7.57532
-7.60344
-7.63128
-7.65872
-7.68569
-7.71206
-7.73773
-7.76258
-7.78648
-7.80931
-7.83093
-7.8512
-7.86995
-7.88704
-7.90231
-7.91558
-7.92668
-7.93544
-7.94168
-7.9452
-7.94581
-7.94334
-7.93757
-7.92832
-7.91538
-7.89857
-7.87769
-7.85253
-7.82292
-7.78865
-7.74954
-7.70542
-7.6561
-7.60142
-7.54121
-7.47531
-7.40358
-7.32588
-7.24208
-7.15205
-7.05569
-6.9529
-6.8436
-6.72771
-6.60517
-6.47595
-6.34001
-6.19733
-6.04791
-5.89173
-5.72882
-5.55921
-5.38295
-5.2001
-5.01073
-4.81493
-4.61282
-4.40451
-4.19014
-3.96985
-3.74382
-3.51222
-3.27525
-3.0331
-2.78599
-2.53415
-2.27783
-2.01726
-1.75271
-1.48444
-1.21274
-0.937881
-0.660164
-0.379882
-0.0973191
0.187219
0.473408
0.760941
1.04955
1.33894
1.62881
1.91882
2.20868
2.49812
2.78684
3.07455
3.361
3.6459
3.929
4.21005
4.48881
4.76506
5.03856
5.30912
5.57652
5.8406
6.10116
6.35806
6.61115
6.86027
7.10531
7.34614
7.58266
7.81478
8.04239
8.26543
8.48382
8.6975
8.90639
9.11044
9.30961
9.50388
9.69323
9.87762
10.057
10.2314
10.4008
10.5651
10.7245
10.8791
11.0289
11.174
11.3154
11.4496
11.589
11.6779
-6.77687
-6.78091
-6.78744
-6.79312
-6.79729
-6.80053
-6.80328
-6.8058
-6.80825
-6.8108
-6.81356
-6.81662
-6.82004
-6.82389
-6.82822
-6.83306
-6.83845
-6.84444
-6.85107
-6.85837
-6.86638
-6.87515
-6.8847
-6.89507
-6.90628
-6.91835
-6.9313
-6.94512
-6.95983
-6.97542
-6.99187
-7.00919
-7.02735
-7.04635
-7.06616
-7.08677
-7.10815
-7.13028
-7.15312
-7.17665
-7.20083
-7.22563
-7.25101
-7.27691
-7.30331
-7.33013
-7.35735
-7.3849
-7.41274
-7.4408
-7.46904
-7.49739
-7.52579
-7.55416
-7.58243
-7.61051
-7.63833
-7.66578
-7.69276
-7.71917
-7.74491
-7.76984
-7.79384
-7.81679
-7.83853
-7.85893
-7.87784
-7.89509
-7.91053
-7.92398
-7.93526
-7.94421
-7.95063
-7.95435
-7.95516
-7.95287
-7.9473
-7.93824
-7.9255
-7.90888
-7.88818
-7.86321
-7.83378
-7.79969
-7.76076
-7.71681
-7.66766
-7.61314
-7.55309
-7.48736
-7.41579
-7.33825
-7.25461
-7.16475
-7.06856
-6.96595
-6.85682
-6.74111
-6.61877
-6.48974
-6.354
-6.21151
-6.06228
-5.9063
-5.74359
-5.57418
-5.39813
-5.21549
-5.02633
-4.83076
-4.62887
-4.42079
-4.20664
-3.9866
-3.7608
-3.52945
-3.29271
-3.05081
-2.80394
-2.55235
-2.29627
-2.03595
-1.77165
-1.50363
-1.23217
-0.957552
-0.680073
-0.400021
-0.117686
0.166612
0.452562
0.73987
1.02827
1.31746
1.60713
1.89695
2.18664
2.4759
2.76446
3.05202
3.33832
3.62309
3.90607
4.18702
4.46568
4.74183
5.01526
5.28575
5.5531
5.81714
6.07769
6.33458
6.58767
6.83681
7.08187
7.32274
7.55931
7.79148
8.01916
8.24227
8.46075
8.67451
8.88349
9.08764
9.2869
9.48126
9.6707
9.85518
10.0347
10.2091
10.3786
10.543
10.7024
10.8568
11.0064
11.1509
11.2911
11.4232
11.5599
11.6409
-6.77642
-6.7808
-6.78782
-6.79403
-6.79871
-6.80246
-6.8057
-6.80868
-6.81158
-6.81456
-6.81774
-6.82121
-6.82504
-6.8293
-6.83402
-6.83926
-6.84506
-6.85146
-6.85848
-6.86618
-6.87458
-6.88372
-6.89362
-6.90432
-6.91583
-6.92817
-6.94136
-6.9554
-6.97029
-6.98603
-7.00261
-7.02002
-7.03824
-7.05727
-7.07708
-7.09765
-7.11896
-7.14099
-7.16371
-7.1871
-7.21113
-7.23577
-7.26098
-7.28672
-7.31295
-7.33963
-7.36671
-7.39414
-7.42188
-7.44987
-7.47804
-7.50636
-7.53473
-7.5631
-7.59139
-7.61952
-7.64739
-7.67491
-7.70199
-7.72851
-7.75436
-7.77942
-7.80357
-7.82666
-7.84857
-7.86913
-7.8882
-7.90562
-7.92122
-7.93484
-7.94629
-7.9554
-7.96198
-7.96584
-7.96679
-7.96464
-7.9592
-7.95026
-7.93763
-7.92111
-7.9005
-7.87561
-7.84624
-7.81221
-7.77334
-7.72943
-7.68031
-7.62582
-7.5658
-7.50008
-7.42853
-7.351
-7.26737
-7.17751
-7.08133
-6.97873
-6.86962
-6.75393
-6.63161
-6.5026
-6.36688
-6.22442
-6.07522
-5.91928
-5.75661
-5.58725
-5.41124
-5.22866
-5.03957
-4.84406
-4.64225
-4.43425
-4.22021
-4.00026
-3.77457
-3.54332
-3.30671
-3.06493
-2.8182
-2.56675
-2.31082
-2.05065
-1.7865
-1.51863
-1.24733
-0.972883
-0.695569
-0.415681
-0.133524
0.150585
0.43635
0.723479
1.0117
1.30073
1.59023
1.87988
2.1694
2.4585
2.74689
3.0343
3.32044
3.60507
3.88791
4.16871
4.44725
4.72329
4.99661
5.267
5.53427
5.79823
6.05871
6.31554
6.56858
6.81767
7.06271
7.30356
7.54012
7.77229
7.99998
8.22311
8.44161
8.6554
8.86443
9.06862
9.26794
9.46235
9.65184
9.83637
10.0159
10.1904
10.3599
10.5242
10.6836
10.8378
10.9869
11.1307
11.2697
11.3996
11.534
11.6082
-6.77845
-6.78299
-6.79023
-6.79674
-6.80178
-6.80591
-6.80953
-6.81289
-6.81616
-6.81951
-6.82305
-6.82686
-6.83104
-6.83564
-6.84071
-6.8463
-6.85244
-6.85917
-6.86653
-6.87455
-6.88326
-6.89269
-6.90286
-6.91381
-6.92554
-6.93808
-6.95144
-6.96562
-6.98062
-6.99645
-7.01309
-7.03054
-7.04878
-7.06781
-7.0876
-7.10814
-7.1294
-7.15137
-7.17402
-7.19734
-7.22128
-7.24584
-7.27097
-7.29664
-7.32281
-7.34944
-7.37648
-7.40389
-7.43162
-7.45962
-7.48783
-7.51619
-7.54464
-7.57309
-7.60148
-7.62971
-7.65771
-7.68537
-7.71259
-7.73926
-7.76527
-7.7905
-7.81481
-7.83807
-7.86014
-7.88086
-7.90009
-7.91767
-7.93341
-7.94716
-7.95874
-7.96796
-7.97464
-7.97859
-7.97962
-7.97753
-7.97213
-7.96322
-7.95061
-7.93409
-7.91347
-7.88855
-7.85914
-7.82506
-7.78612
-7.74213
-7.69293
-7.63834
-7.57821
-7.51238
-7.44071
-7.36306
-7.2793
-7.18933
-7.09302
-6.9903
-6.88107
-6.76527
-6.64283
-6.51372
-6.3779
-6.23534
-6.08605
-5.93001
-5.76727
-5.59784
-5.42177
-5.23914
-5.05
-4.85447
-4.65263
-4.44462
-4.23058
-4.01064
-3.78497
-3.55376
-3.31719
-3.07546
-2.8288
-2.57742
-2.32157
-2.06149
-1.79744
-1.52969
-1.25851
-0.984186
-0.707001
-0.427251
-0.14525
0.138697
0.424301
0.711264
0.999321
1.28818
1.57751
1.86698
2.15632
2.44524
2.73346
3.02069
3.30666
3.59111
3.87379
4.15443
4.43281
4.7087
4.98187
5.25213
5.51926
5.7831
6.04346
6.30019
6.55312
6.80213
7.04709
7.28787
7.52437
7.75649
7.98415
8.20725
8.42573
8.63951
8.84854
9.05274
9.25207
9.44651
9.63602
9.82056
10.0001
10.1746
10.344
10.5083
10.6675
10.8214
10.9701
11.113
11.2507
11.3786
11.5107
11.5793
-6.78281
-6.78736
-6.79458
-6.80117
-6.8064
-6.81077
-6.81466
-6.81829
-6.82184
-6.82546
-6.82927
-6.83335
-6.8378
-6.84265
-6.84797
-6.8538
-6.86018
-6.86715
-6.87473
-6.88296
-6.89187
-6.90149
-6.91183
-6.92293
-6.9348
-6.94745
-6.9609
-6.97515
-6.99021
-7.00607
-7.02274
-7.0402
-7.05844
-7.07746
-7.09723
-7.11775
-7.13899
-7.16094
-7.18357
-7.20687
-7.2308
-7.25535
-7.28048
-7.30616
-7.33235
-7.35901
-7.38611
-7.41358
-7.44139
-7.46949
-7.49781
-7.52629
-7.55487
-7.58348
-7.61202
-7.64041
-7.66858
-7.69641
-7.7238
-7.75065
-7.77683
-7.80222
-7.82669
-7.85011
-7.87232
-7.89318
-7.91253
-7.93021
-7.94605
-7.95988
-7.97151
-7.98077
-7.98748
-7.99143
-7.99245
-7.99033
-7.98488
-7.9759
-7.9632
-7.94657
-7.92583
-7.90077
-7.87121
-7.83696
-7.79784
-7.75366
-7.70426
-7.64946
-7.58911
-7.52305
-7.45115
-7.37327
-7.28928
-7.19908
-7.10254
-6.99959
-6.89015
-6.77413
-6.65149
-6.52217
-6.38615
-6.24341
-6.09394
-5.93774
-5.77484
-5.60526
-5.42907
-5.24631
-5.05707
-4.86144
-4.65953
-4.45145
-4.23735
-4.01738
-3.79169
-3.56047
-3.3239
-3.0822
-2.83557
-2.58424
-2.32845
-2.06845
-1.80448
-1.53683
-1.26576
-0.991559
-0.714507
-0.434907
-0.15307
0.130711
0.416141
0.702921
0.990794
1.27947
1.5686
1.85787
2.14701
2.43572
2.72373
3.01075
3.29651
3.58076
3.86322
4.14366
4.42184
4.69753
4.97051
5.24058
5.50753
5.7712
6.0314
6.28796
6.54075
6.78963
7.03446
7.27512
7.51152
7.74355
7.97113
8.19416
8.41258
8.62631
8.8353
9.03948
9.2388
9.43323
9.62273
9.80726
9.98678
10.1612
10.3306
10.4948
10.6537
10.8073
10.9554
11.0975
11.2339
11.3598
11.4899
11.5538
-6.78922
-6.79365
-6.80065
-6.80713
-6.81239
-6.81686
-6.82088
-6.82467
-6.82839
-6.83218
-6.83615
-6.84039
-6.84498
-6.84997
-6.85542
-6.86138
-6.86787
-6.87494
-6.88262
-6.89094
-6.89994
-6.90963
-6.92004
-6.9312
-6.94311
-6.95581
-6.96928
-6.98355
-6.99862
-7.01448
-7.03114
-7.04859
-7.06683
-7.08584
-7.1056
-7.12612
-7.14737
-7.16933
-7.19199
-7.21533
-7.23931
-7.26391
-7.28911
-7.31486
-7.34113
-7.36788
-7.39509
-7.4227
-7.45067
-7.47893
-7.50742
-7.53608
-7.56484
-7.59363
-7.62235
-7.65092
-7.67926
-7.70726
-7.73482
-7.76182
-7.78815
-7.81367
-7.83826
-7.86178
-7.88408
-7.90501
-7.9244
-7.94211
-7.95795
-7.97176
-7.98335
-7.99256
-7.99918
-8.00303
-8.00392
-8.00166
-7.99604
-7.98688
-7.97398
-7.95713
-7.93615
-7.91085
-7.88103
-7.8465
-7.80709
-7.76261
-7.71291
-7.6578
-7.59713
-7.53076
-7.45854
-7.38034
-7.29604
-7.20552
-7.10869
-7.00544
-6.8957
-6.7794
-6.65649
-6.52692
-6.39065
-6.24767
-6.09797
-5.94157
-5.77847
-5.60871
-5.43235
-5.24945
-5.06008
-4.86433
-4.66232
-4.45417
-4.24
-4.01998
-3.79427
-3.56304
-3.32649
-3.08481
-2.83823
-2.58696
-2.33125
-2.07134
-1.8075
-1.53997
-1.26904
-0.994984
-0.718099
-0.438684
-0.157035
0.126553
0.411772
0.698331
0.985989
1.27444
1.56331
1.85234
2.14122
2.42968
2.71742
3.00418
3.28968
3.57367
3.85587
4.13605
4.41397
4.68941
4.96215
5.23197
5.4987
5.76213
6.02211
6.27848
6.53107
6.77976
7.02442
7.26492
7.50117
7.73307
7.96052
8.18344
8.40177
8.61542
8.82434
9.02847
9.22775
9.42215
9.61162
9.79612
9.9756
10.15
10.3193
10.4833
10.642
10.7952
10.9427
11.0839
11.219
11.343
11.4712
11.5313
-6.79732
-6.80154
-6.80816
-6.81438
-6.81952
-6.82395
-6.82799
-6.8318
-6.83555
-6.83937
-6.84337
-6.84763
-6.85222
-6.85721
-6.86265
-6.86859
-6.87507
-6.88212
-6.88978
-6.89809
-6.90706
-6.91673
-6.92712
-6.93825
-6.95014
-6.9628
-6.97624
-6.99048
-7.00552
-7.02135
-7.03799
-7.05542
-7.07364
-7.09265
-7.11243
-7.13297
-7.15426
-7.17627
-7.19899
-7.22239
-7.24645
-7.27114
-7.29643
-7.32229
-7.3487
-7.37561
-7.40299
-7.43078
-7.45893
-7.48739
-7.51608
-7.54493
-7.57387
-7.60282
-7.6317
-7.66043
-7.6889
-7.71702
-7.74468
-7.77176
-7.79815
-7.82373
-7.84834
-7.87186
-7.89413
-7.91501
-7.93433
-7.95194
-7.96766
-7.98132
-7.99275
-8.00176
-8.00817
-8.01179
-8.01243
-8.00989
-8.00399
-7.99452
-7.9813
-7.96412
-7.9428
-7.91714
-7.88695
-7.85205
-7.81226
-7.76741
-7.71731
-7.66182
-7.60076
-7.53401
-7.46141
-7.38284
-7.29818
-7.20731
-7.11012
-7.00654
-6.89648
-6.77988
-6.65667
-6.52682
-6.39029
-6.24706
-6.09714
-5.94053
-5.77724
-5.60731
-5.4308
-5.24776
-5.05828
-4.86244
-4.66036
-4.45216
-4.23796
-4.01794
-3.79223
-3.56103
-3.32453
-3.08292
-2.83643
-2.58527
-2.32969
-2.06992
-1.80623
-1.53889
-1.26815
-0.994303
-0.717654
-0.438483
-0.157075
0.126256
0.411194
0.697473
0.984857
1.273
1.56156
1.85026
2.13882
2.42696
2.71438
3.00081
3.28598
3.56963
3.85151
4.13136
4.40897
4.68409
4.95651
5.22604
5.49247
5.75562
6.01533
6.27143
6.52378
6.77223
7.01666
7.25696
7.49302
7.72474
7.95203
8.17482
8.39302
8.60656
8.81539
9.01944
9.21866
9.41301
9.60244
9.78689
9.96632
10.1406
10.3098
10.4736
10.6321
10.7848
10.9317
11.0719
11.2058
11.3281
11.4544
11.5116
-6.80677
-6.81069
-6.81684
-6.82268
-6.82757
-6.83182
-6.8357
-6.83938
-6.843
-6.84669
-6.85055
-6.85467
-6.85913
-6.86398
-6.86928
-6.87508
-6.88142
-6.88833
-6.89587
-6.90405
-6.9129
-6.92246
-6.93274
-6.94377
-6.95557
-6.96815
-6.98151
-6.99568
-7.01066
-7.02645
-7.04305
-7.06047
-7.07868
-7.0977
-7.11749
-7.13805
-7.15937
-7.18143
-7.2042
-7.22767
-7.25182
-7.27661
-7.30204
-7.32805
-7.35463
-7.38171
-7.40926
-7.43722
-7.46554
-7.49415
-7.52299
-7.55197
-7.58102
-7.61006
-7.63901
-7.66778
-7.69627
-7.72439
-7.75202
-7.77906
-7.80537
-7.83084
-7.85532
-7.87868
-7.90077
-7.92144
-7.94053
-7.95787
-7.97331
-7.98668
-7.99778
-8.00645
-8.0125
-8.01575
-8.01601
-8.01307
-8.00676
-7.99688
-7.98323
-7.96563
-7.94387
-7.91778
-7.88715
-7.85182
-7.81159
-7.7663
-7.71577
-7.65985
-7.59838
-7.53122
-7.45823
-7.37929
-7.29425
-7.20302
-7.1055
-7.0016
-6.89123
-6.77433
-6.65085
-6.52075
-6.38399
-6.24055
-6.09044
-5.93365
-5.77022
-5.60017
-5.42355
-5.24043
-5.05089
-4.85502
-4.65293
-4.44473
-4.23058
-4.01061
-3.78499
-3.55389
-3.31751
-3.07605
-2.82973
-2.57876
-2.32339
-2.06385
-1.80041
-1.53333
-1.26288
-0.989343
-0.713019
-0.434163
-0.153083
0.129891
0.414453
0.700381
0.987407
1.27515
1.5633
1.85159
2.13975
2.42747
2.71448
3.00049
3.28526
3.5685
3.84997
4.12942
4.40663
4.68137
4.95341
5.22257
5.48864
5.75145
6.01082
6.2666
6.51864
6.76681
7.01097
7.25102
7.48684
7.71835
7.94545
8.16805
8.3861
8.59951
8.80822
9.01218
9.21133
9.40561
9.59498
9.77938
9.95874
10.133
10.302
10.4656
10.6238
10.7761
10.9223
11.0616
11.1942
11.315
11.4394
11.4946
-6.81725
-6.82084
-6.82646
-6.83182
-6.83631
-6.84022
-6.84378
-6.84714
-6.85045
-6.85383
-6.85739
-6.86122
-6.86538
-6.86995
-6.87498
-6.88052
-6.88661
-6.89329
-6.9006
-6.90857
-6.91722
-6.92659
-6.9367
-6.94757
-6.95922
-6.97167
-6.98492
-6.99898
-7.01385
-7.02956
-7.04608
-7.06343
-7.0816
-7.10058
-7.12036
-7.14091
-7.16224
-7.18432
-7.20714
-7.23069
-7.25494
-7.27985
-7.30539
-7.33152
-7.35819
-7.38536
-7.41297
-7.44099
-7.46935
-7.49799
-7.52683
-7.55579
-7.58479
-7.61374
-7.64257
-7.67119
-7.69952
-7.72744
-7.75486
-7.78164
-7.80769
-7.83285
-7.85701
-7.88002
-7.90173
-7.92201
-7.94068
-7.9576
-7.9726
-7.9855
-7.99614
-8.00434
-8.00991
-8.01267
-8.01244
-8.00901
-8.00221
-7.99184
-7.9777
-7.95961
-7.93737
-7.9108
-7.8797
-7.8439
-7.80322
-7.75748
-7.70652
-7.65018
-7.58831
-7.52077
-7.44741
-7.36811
-7.28274
-7.1912
-7.09338
-6.9892
-6.87858
-6.76145
-6.63777
-6.50748
-6.37056
-6.22699
-6.07677
-5.9199
-5.7564
-5.58632
-5.40969
-5.22659
-5.03709
-4.84128
-4.63928
-4.43121
-4.2172
-3.9974
-3.77197
-3.54109
-3.30495
-3.06375
-2.81771
-2.56705
-2.31201
-2.05282
-1.78975
-1.52305
-1.25301
-0.979909
-0.703997
-0.425568
-0.144944
0.13755
0.421631
0.707113
0.993663
1.28088
1.56851
1.8563
2.14395
2.43115
2.71765
3.00316
3.28741
3.57015
3.85113
4.1301
4.40683
4.68109
4.95268
5.22139
5.48703
5.74943
6.0084
6.26381
6.51549
6.76331
7.00715
7.2469
7.48245
7.7137
7.94057
8.16297
8.38084
8.59409
8.80267
9.00652
9.20558
9.39979
9.5891
9.77344
9.95273
10.1269
10.2957
10.4592
10.617
10.7689
10.9144
11.0529
11.1843
11.3036
11.4261
11.4799
-6.82858
-6.83187
-6.83696
-6.84176
-6.84572
-6.84909
-6.85211
-6.85495
-6.85773
-6.86061
-6.86368
-6.86704
-6.87075
-6.8749
-6.87953
-6.88468
-6.89042
-6.89676
-6.90375
-6.91142
-6.91979
-6.9289
-6.93875
-6.94938
-6.9608
-6.97303
-6.98608
-6.99996
-7.01467
-7.03021
-7.04659
-7.06379
-7.08183
-7.1007
-7.1204
-7.1409
-7.16218
-7.18424
-7.20704
-7.23056
-7.25477
-7.27964
-7.30511
-7.33116
-7.35773
-7.38477
-7.41224
-7.44009
-7.46825
-7.49666
-7.52527
-7.55399
-7.58271
-7.61135
-7.63983
-7.66807
-7.69599
-7.72349
-7.75045
-7.77677
-7.80231
-7.82696
-7.85058
-7.87304
-7.8942
-7.9139
-7.932
-7.94834
-7.96276
-7.97508
-7.98515
-7.99277
-7.99778
-7.99998
-7.99919
-7.99523
-7.9879
-7.97701
-7.96237
-7.94379
-7.92107
-7.89404
-7.8625
-7.82627
-7.78517
-7.73904
-7.6877
-7.63102
-7.56882
-7.50097
-7.42732
-7.34775
-7.26213
-7.17037
-7.07235
-6.968
-6.85724
-6.74
-6.61623
-6.48587
-6.34892
-6.20534
-6.05513
-5.89831
-5.73488
-5.56489
-5.38839
-5.20544
-5.01612
-4.82053
-4.61876
-4.41095
-4.19723
-3.97774
-3.75265
-3.52214
-3.28639
-3.0456
-2.8
-2.54979
-2.29522
-2.03654
-1.77398
-1.50784
-1.23835
-0.965792
-0.69043
-0.412583
-0.132562
0.14931
0.432803