/*--------------------------------*- C++ -*----------------------------------*\
  =========                 |
  \\      /  F ield         | OpenFOAM: The Open Source CFD Toolbox
   \\    /   O peration     | Website:  https://openfoam.org
    \\  /    A nd           | Version:  8
     \\/     M anipulation  |
\*---------------------------------------------------------------------------*/
FoamFile
{
    version     2.0;
    format      ascii;
    class       volScalarField;
    location    "1900";
    object      omega;
}
// * * * * * * * * * * * * * * * * * * * * * * * * * * * * * * * * * * * * * //

dimensions      [0 0 -1 0 0 0 0];

internalField   nonuniform List<scalar> 
12225
(
32582.3
32582.3
43627.9
51980.1
53921.7
46378.4
38884
50100.8
43701
44738.9
41568.6
40343.9
32582.3
32582.3
32582.3
32582.3
32582.3
32582.3
10247.5
9539.7
12176.6
14872.2
20126.5
18876.3
15775
19306
17813.3
18986.3
18206.5
17416.9
16907.9
17483.3
17702.6
17912.1
17097.5
16725.2
2303.35
1926.02
2162.88
3017.02
4010.98
4798.89
5002.76
5590.34
6003.55
6304.28
6569.25
6722.02
6999.24
7158.71
7359.13
7537.19
7656.72
7780.96
851.261
792.293
801.913
966.824
1182.94
1411.98
1573.68
1750.03
1897.24
2033.99
2141.35
2252.47
2336.62
2438.84
2505.45
2602.93
2649.21
2739.15
558.766
553.818
559.6
594.866
649.526
718.659
774.893
836.978
885.853
940.955
980.665
1029.96
1062.49
1108.74
1135.66
1179.15
1199.43
1240.31
506.555
507.815
507.216
513.198
526.08
547.154
564.474
586.5
603.224
624.917
640.453
661.567
675.585
696.256
708.552
728.576
738.353
757.313
499.432
496.975
495.226
495.072
495.762
499.532
503.45
509.558
513.839
520.805
525.735
533.531
538.753
547.115
552.203
560.8
565.185
573.59
498.652
495.877
493.265
491.265
489.825
488.985
489.04
489.585
490.413
491.593
492.764
494.981
496.559
499.629
501.495
504.986
506.836
510.564
498.529
495.708
492.989
490.544
488.348
486.456
484.816
483.566
482.438
481.681
481.012
480.726
480.653
480.804
481.034
481.666
482.072
483.172
498.51
495.68
492.95
490.422
488.007
485.803
483.686
481.8
479.992
478.42
476.909
475.662
474.446
473.549
472.575
472.008
471.225
470.94
498.514
495.667
492.937
490.389
487.937
485.655
483.451
481.408
479.432
477.618
475.853
474.261
472.697
471.323
469.949
468.778
467.579
466.582
498.514
495.658
492.933
490.368
487.917
485.609
483.399
481.318
479.323
477.446
475.642
473.95
472.32
470.797
469.328
467.959
466.637
465.407
498.517
495.652
492.929
490.354
487.905
485.586
483.376
481.283
479.286
477.393
475.586
473.871
472.232
470.676
469.188
467.777
466.426
465.143
498.517
495.647
492.925
490.345
487.895
485.57
483.36
481.26
479.263
477.363
475.553
473.832
472.19
470.626
469.134
467.714
466.356
465.063
498.517
495.646
492.921
490.339
487.887
485.559
483.346
481.243
479.243
477.34
475.527
473.802
472.157
470.591
469.096
467.672
466.312
465.015
498.516
495.642
492.917
490.33
487.875
485.544
483.328
481.221
479.217
477.311
475.495
473.766
472.118
470.549
469.051
467.624
466.26
464.961
498.508
495.619
492.88
490.282
487.816
485.474
483.25
481.135
479.124
477.211
475.389
473.655
472.002
470.427
468.926
467.494
466.128
464.825
498.508
495.62
492.88
490.282
487.815
485.474
483.248
481.134
479.121
477.208
475.385
473.651
471.997
470.422
468.92
467.487
466.121
464.817
498.517
495.643
492.917
490.329
487.874
485.539
483.323
481.214
479.209
477.3
475.483
473.752
472.103
470.53
469.032
467.601
466.237
464.935
498.517
495.645
492.921
490.336
487.882
485.551
483.336
481.23
479.226
477.32
475.505
473.776
472.128
470.558
469.061
467.633
466.27
464.97
498.518
495.646
492.924
490.339
487.888
485.557
483.345
481.24
479.24
477.335
475.523
473.795
472.151
470.583
469.089
467.664
466.306
465.01
498.52
495.646
492.929
490.342
487.897
485.565
483.361
481.259
479.27
477.372
475.576
473.859
472.235
470.681
469.215
467.812
466.492
465.226
498.523
495.647
492.938
490.343
487.912
485.582
483.429
481.377
479.488
477.683
476.013
474.408
472.933
471.515
470.241
469.019
467.943
466.894
498.536
495.644
492.963
490.38
488.019
485.889
484.163
482.665
481.545
480.461
479.608
478.741
478.115
477.501
477.206
476.946
476.926
476.903
498.562
495.769
493.446
491.412
490.066
490.043
490.885
492.888
495.702
498.028
500.807
502.969
505.796
508.175
511.42
514.169
517.826
520.725
499.221
500.24
499.757
504.721
511.498
521.68
536.464
550.679
566.238
579.483
593.676
605.475
618.708
629.712
642.608
653.111
665.755
675.499
520.591
524.547
561.898
595.165
643.322
697.764
759.019
815.237
872.094
919.962
968.444
1007.92
1049.93
1083.44
1121.41
1150.71
1185.82
1211.47
703.933
800.283
1025.09
1239.81
1466.03
1697.66
1926.29
2126.83
2311.21
2461.08
2599.26
2708.18
2814.14
2896.73
2985.32
3052.82
3132.81
3190.9
2325.23
3931.8
5304.22
6435.05
7374.52
8082.75
8588.78
8941.81
9170.86
9303.51
9373.72
9390.52
9382.45
9358.93
9330.35
9293
9273.4
9249.01
16112.1
21595.8
23389.2
24393.2
24919.8
25036.1
24982
24842.6
24601.5
24334.4
24063.3
23799.8
23551.3
23320.6
23109
22916.2
22741
22584.3
11463.3
2494.65
2496.87
2499.12
2501.38
2503.67
2505.98
2508.3
2510.65
2513.02
2515.42
2517.83
2520.27
2522.73
2525.21
2527.72
2530.25
2532.8
2535.37
2537.97
2540.6
2543.25
2545.92
2548.62
2551.34
2554.09
2556.87
2559.67
2562.5
2565.35
2568.23
2571.14
2574.08
2577.04
2580.04
2583.06
2586.11
2589.19
2592.3
2595.43
2598.6
2601.8
2605.03
2608.29
2611.59
2614.91
2618.27
2621.66
2625.08
2628.54
2632.03
2635.55
2639.11
2642.71
2646.33
2650
2653.7
2657.44
3330.68
3231.73
2668.88
3139.63
3297.76
3397.03
3476.06
3569.28
3645.64
3725.71
3799.41
3872.58
3942.33
4010.98
4077.2
4142.33
4205.56
4267.73
4328.36
4387.93
4446.22
4503.44
4559.53
4614.58
4668.58
4721.54
4773.52
4824.46
4874.43
4923.36
4971.29
5018.16
5063.97
5108.66
5152.21
5194.56
5235.67
5275.48
5314
5351.25
5387.38
5422.69
5457.45
5490.97
5523.61
5555.28
5585.97
5615.7
5644.43
5672.17
5698.9
5724.63
5749.34
5773.01
5795.68
5817.3
5837.9
5857.46
5876.01
5893.5
5910
5925.45
5939.91
5953.32
5965.75
5977.12
5987.49
5996.77
6004.98
6012.33
6019.33
6025.49
6031.04
6034.63
6038.29
6040.91
6043.18
6045.06
6045.99
6045.03
6043.41
6040.91
6037.54
6033.42
6028.44
6022.82
6016.38
6009.37
6001.62
5993.45
5984.79
5975.63
5966.22
5955.92
5945.65
5934.33
5923.3
5911.13
5899.4
5886.79
5874.41
5861.75
5848.95
5836.05
5823.03
5809.93
5796.77
5783.61
5770.5
5757.49
5744.66
5732.02
5719.61
5707.35
5695.23
5682.92
5670.22
5656.32
5640.34
5619.54
5588.69
5467.36
11463.3
1992.53
996.319
808.835
690.907
625.158
632.485
628.197
615.96
592.851
568.382
544.619
522.858
504.881
492.632
483.888
483.301
485.263
510.863
559.084
642.957
743.955
853.988
963.279
1061.97
1137.92
1184.09
1179.39
1140.74
1064.94
942.879
792.146
657.302
570.836
502.615
463.916
456.236
463.565
483.962
515.347
546.494
580.058
667.526
795.162
997.152
1315.03
1629.33
1846.45
1987.9
2058.41
2078.78
2070.31
2025.76
1982.56
1933.61
1857.66
1802.74
1763.22
1763.36
1717.07
1677.22
1690.21
1677.05
1671.24
1666.83
1664.4
1663.7
1665.11
1668.16
1672.31
1677.29
1683.1
1689.36
1696.15
1703.19
1710.55
1718.02
1725.66
1733.34
1741.07
1748.8
1756.51
1764.16
1771.76
1779.26
1786.65
1793.91
1801.03
1807.98
1814.74
1821.31
1827.68
1833.85
1839.84
1845.69
1851.48
1857.33
1863.45
1870.16
1877.89
1886.61
1894.57
1902.58
1910.25
1917.75
1925.01
1932.06
1938.88
1945.48
1951.85
1958
1963.93
1969.64
1975.13
1980.39
1985.44
1990.27
1994.89
1999.28
2003.47
2007.44
2011.19
2014.74
2018.08
2021.21
2024.15
2026.91
2029.54
2032.03
2034.32
2036.44
2038.32
2040.16
2041.81
2043.31
2044.51
2045.05
2044.57
2044.19
2043.61
2042.83
2041.86
2040.71
2039.39
2037.9
2036.25
2034.45
2032.54
2030.55
2028.53
2025.8
2023.93
2020.63
2018.61
2014.92
2012.63
2009.19
2006.31
2003.14
1999.9
1996.63
1993.29
1989.9
1986.47
1983.01
1979.53
1976.03
1972.55
1969.07
1965.63
1962.23
1958.89
1955.59
1952.38
1949.31
1946.48
1943.97
1942.32
1940.64
1949.08
11463.3
2006.84
814.454
645.244
686.338
685.867
655.897
599.454
539.208
482.863
433.165
391.122
358.125
332.273
312.395
297.131
286.488
278.413
276.182
278.434
288.672
306.946
338.9
382.34
437.201
497.022
558.942
605.772
638.925
637.565
617.475
577.265
515.515
446.887
394.729
383.872
394.742
419.072
456.464
527.766
637.475
789.99
987.337
1166.31
1315.66
1448.36
1535.53
1565.66
1564.57
1517.25
1463.68
1402.27
1343.33
1290.54
1244.73
1204.05
1174.94
1152.85
1137.67
1124.02
1114.63
1109.38
1104.31
1102.03
1100.73
1100.42
1101.2
1102.95
1105.24
1108.02
1111.16
1114.6
1118.27
1122.13
1126.12
1130.22
1134.4
1138.63
1142.91
1147.2
1151.5
1155.8
1160.08
1164.33
1168.55
1172.73
1176.86
1180.93
1184.95
1188.91
1192.81
1196.67
1200.5
1204.32
1208.14
1212.02
1215.98
1220.07
1224.33
1228.72
1233.06
1237.21
1241.29
1245.23
1249.05
1252.75
1256.33
1259.78
1263.11
1266.32
1269.39
1272.35
1275.18
1277.89
1280.47
1282.92
1285.25
1287.46
1289.54
1291.5
1293.34
1295.05
1296.64
1298.11
1299.45
1300.69
1301.82
1302.84
1303.76
1304.55
1305.23
1305.79
1306.26
1306.6
1306.82
1306.84
1306.59
1306.14
1305.67
1305.04
1304.3
1303.44
1302.49
1301.43
1300.27
1299.02
1297.67
1296.25
1294.74
1293.15
1291.38
1289.72
1287.7
1285.91
1283.69
1281.78
1279.53
1277.38
1275.12
1272.8
1270.43
1268.01
1265.55
1263.05
1260.52
1257.96
1255.38
1252.78
1250.17
1247.55
1244.96
1242.39
1239.87
1237.44
1235.18
1233.2
1231.69
1231.31
1232.45
1242.59
11463.3
2039.83
1019.9
983.8
907.075
775.724
657.628
549.971
465.398
402.489
355.224
318.279
289.601
267.631
250.857
238.1
228.529
221.592
216.994
215.265
216.313
219.297
227.481
241.483
262.814
291.057
325.507
360.351
392.174
415.588
423.12
417.579
395.039
394.773
429.101
519.46
589.619
649.131
721.18
821.956
955.351
1073.84
1152.86
1220.44
1273.09
1294.58
1259.87
1213.42
1168.88
1114.55
1069.16
1026.54
991.459
961.806
938.256
919.697
906.218
896.289
888.983
883.662
880.29
878.594
877.463
877.392
878.064
879.381
881.191
883.399
885.898
888.639
891.574
894.667
897.885
901.205
904.606
908.072
911.586
915.139
918.719
922.316
925.921
929.528
933.129
936.719
940.293
943.845
947.373
950.875
954.348
957.793
961.214
964.615
968.004
971.386
974.77
978.163
981.568
984.984
988.397
991.771
995.058
998.243
1001.34
1004.35
1007.26
1010.07
1012.78
1015.4
1017.92
1020.33
1022.65
1024.87
1026.98
1028.99
1030.89
1032.69
1034.39
1035.98
1037.46
1038.84
1040.12
1041.28
1042.35
1043.31
1044.16
1044.92
1045.57
1046.12
1046.58
1046.92
1047.16
1047.3
1047.34
1047.27
1047.08
1046.75
1046.28
1045.69
1045.02
1044.25
1043.39
1042.43
1041.38
1040.24
1039.02
1037.71
1036.31
1034.84
1033.29
1031.66
1029.93
1028.17
1026.27
1024.38
1022.34
1020.33
1018.18
1016.02
1013.8
1011.51
1009.18
1006.8
1004.39
1001.93
999.442
996.923
994.376
991.809
989.227
986.634
984.048
981.485
978.97
976.54
974.26
972.237
970.636
969.97
970.815
976.981
11463.3
2322.55
1480.49
1189.66
942.523
726.969
560.265
449.007
373.231
320.284
282.505
255.579
236.021
221.286
209.942
201.188
194.586
189.803
186.62
185.131
185.441
186.725
190.568
197.304
208.01
223.634
244.525
268.155
292.148
310.841
327.383
351.786
416.155
518.112
610.82
681.861
752.753
829.782
902.922
966.276
1021.31
1068.83
1099.12
1107.68
1077.47
1029.62
992.685
950.179
913.387
878.796
851.082
826.998
807.864
792.382
780.553
771.721
765.492
761.245
758.514
757.123
756.743
756.993
758.005
759.559
761.546
763.882
766.492
769.321
772.324
775.47
778.734
782.096
785.538
789.048
792.612
796.221
799.864
803.535
807.226
810.928
814.636
818.345
822.047
825.74
829.418
833.077
836.715
840.329
843.917
847.478
851.013
854.522
858.007
861.469
864.906
868.314
871.689
875.02
878.294
881.498
884.618
887.652
890.6
893.458
896.226
898.901
901.483
903.969
906.358
908.65
910.844
912.936
914.926
916.813
918.595
920.272
921.843
923.307
924.663
925.91
927.049
928.079
929.001
929.815
930.52
931.118
931.609
931.992
932.267
932.434
932.48
932.423
932.264
931.992
931.605
931.1
930.474
929.74
928.914
927.99
926.969
925.854
924.649
923.353
921.966
920.493
918.934
917.291
915.57
913.763
911.878
909.925
907.886
905.794
903.614
901.395
899.095
896.747
894.339
891.877
889.366
886.809
884.211
881.575
878.904
876.202
873.471
870.718
867.95
865.18
862.417
859.677
856.981
854.363
851.877
849.614
847.706
846.499
846.572
849.591
11463.3
2945.24
1738.27
1209.88
831.811
586.156
443.481
355.267
300.534
265.014
240.384
222.305
208.418
197.509
188.793
181.851
176.494
172.583
170.04
168.969
169.298
170.65
173.886
179.074
186.911
198.559
215.013
236.503
264.832
306.727
361.613
451.133
563.796
657.292
727.404
790.836
843.906
884.613
919.016
952.1
969.18
971.419
942.332
910.682
877.887
843.271
813.624
785.001
761.43
741
724.552
710.969
700.405
692.298
686.455
682.487
680.217
679.296
679.1
679.79
681.208
683.137
685.53
688.272
691.29
694.53
697.945
701.502
705.175
708.946
712.797
716.718
720.696
724.724
728.792
732.894
737.02
741.166
745.323
749.486
753.648
757.804
761.949
766.079
770.187
774.272
778.328
782.352
786.342
790.295
794.209
798.084
801.919
805.71
809.454
813.146
816.779
820.342
823.83
827.237
830.557
833.788
836.928
839.974
842.925
845.777
848.529
851.178
853.722
856.161
858.493
860.716
862.826
864.824
866.705
868.471
870.118
871.647
873.056
874.344
875.511
876.557
877.481
878.284
878.966
879.526
879.966
880.285
880.479
880.544
880.488
880.322
880.036
879.627
879.099
878.45
877.681
876.8
875.813
874.721
873.525
872.226
870.83
869.335
867.742
866.054
864.273
862.401
860.442
858.396
856.267
854.061
851.774
849.417
846.983
844.486
841.919
839.292
836.605
833.861
831.067
828.225
825.341
822.418
819.458
816.466
813.445
810.402
807.342
804.278
801.221
798.185
795.19
792.266
789.458
786.837
784.511
782.724
781.853
782.775
11463.3
3446.68
1779.34
1033.76
648.959
456.584
357.803
302.333
267.123
242.6
224.157
209.725
198.014
188.283
180.188
173.577
168.39
164.624
162.405
161.831
162.701
165.279
170.054
177.404
188.081
202.636
224.558
259.172
313.18
397.362
503.581
595.816
667.331
728.69
776.619
812.255
840.555
862.308
871.224
867.354
844.177
821.212
794.422
768.647
743.327
719.601
699.159
681.134
666.333
653.999
644.179
636.483
630.799
626.839
624.586
623.686
623.594
624.532
626.182
628.459
631.25
634.44
637.958
641.734
645.715
649.858
654.133
658.516
662.988
667.535
672.146
676.812
681.524
686.276
691.059
695.867
700.692
705.528
710.366
715.202
720.027
724.838
729.627
734.39
739.123
743.819
748.475
753.087
757.649
762.16
766.616
771.015
775.355
779.634
783.845
787.987
792.055
796.045
799.95
803.764
807.48
811.097
814.613
818.023
821.325
824.517
827.595
830.557
833.399
836.117
838.707
841.169
843.504
845.708
847.781
849.72
851.524
853.193
854.724
856.118
857.374
858.491
859.471
860.312
861.015
861.581
862.009
862.299
862.437
862.448
862.322
862.067
861.678
861.156
860.503
859.721
858.811
857.778
856.628
855.362
853.98
852.484
850.868
849.137
847.297
845.352
843.305
841.158
838.913
836.575
834.146
831.632
829.034
826.355
823.597
820.765
817.862
814.892
811.859
808.766
805.619
802.422
799.181
795.9
792.58
789.226
785.844
782.438
779.018
775.592
772.174
768.776
765.416
762.121
758.927
755.891
753.098
750.716
748.926
748.252
11463.3
3584.81
1559.75
813.454
515.379
381.705
313.224
273.497
247.967
229.926
216.003
204.212
193.951
185.087
177.578
171.49
167.008
164.292
163.258
163.86
166.341
171.342
179.294
192.32
212.847
242.988
289.318
362.7
450.625
532.365
598.528
654.767
702.115
739.561
769.344
787.847
794.101
786.536
769.064
750.905
729.809
709.916
689.756
670.715
652.808
636.864
623.263
611.747
602.375
594.872
589.154
585.041
582.516
581.403
581.212
582.05
583.734
586.166
589.201
592.742
596.699
600.993
605.56
610.346
615.307
620.412
625.632
630.949
636.345
641.808
647.328
652.894
658.5
664.137
669.801
675.481
681.169
686.857
692.538
698.203
703.846
709.461
715.04
720.579
726.073
731.517
736.904
742.228
747.486
752.672
757.784
762.819
767.776
772.649
777.436
782.134
786.74
791.254
795.662
799.96
804.144
808.21
812.156
815.979
819.677
823.246
826.683
829.985
833.149
836.172
839.054
841.79
844.378
846.818
849.105
851.24
853.22
855.043
856.71
858.218
859.568
860.76
861.794
862.67
863.388
863.95
864.355
864.592
864.671
864.605
864.386
864.016
863.498
862.832
862.02
861.066
859.972
858.742
857.381
855.89
854.273
852.53
850.666
848.68
846.574
844.354
842.022
839.581
837.033
834.384
831.637
828.796
825.866
822.847
819.743
816.559
813.3
809.969
806.571
803.109
799.591
796.02
792.402
788.741
785.041
781.306
777.542
773.756
769.955
766.149
762.351
758.574
754.833
751.151
747.559
744.101
740.809
737.83
735.244
733.229
11463.3
3400.66
1277.53
659.394
441.16
346.408
296.167
265.648
244.456
228.443
215.721
205.205
196.237
188.564
182.235
177.468
174.609
173.801
175.368
179.229
186.49
198.495
216.489
245.688
289.896
349.139
416.879
479.718
537.191
587.333
630.299
666.205
696.953
718.093
725.512
721.53
708.353
693.659
677.022
661.152
645.393
630.472
615.915
602.284
589.884
579.119
570.072
562.656
556.825
552.463
549.482
547.985
547.544
548.057
549.537
551.864
554.924
558.62
562.853
567.541
572.609
577.992
583.634
589.486
595.511
601.68
607.966
614.352
620.817
627.347
633.928
640.549
647.2
653.872
660.566
667.264
673.957
680.636
687.292
693.917
700.503
707.043
713.529
719.954
726.305
732.577
738.774
744.893
750.928
756.874
762.727
768.485
774.144
779.701
785.15
790.488
795.709
800.806
805.777
810.616
815.322
819.89
824.317
828.601
832.739
836.728
840.564
844.245
847.765
851.124
854.318
857.344
860.2
862.884
865.394
867.727
869.883
871.859
873.655
875.269
876.703
877.955
879.027
879.919
880.633
881.167
881.522
881.683
881.682
881.506
881.159
880.643
879.96
879.113
878.105
876.939
875.619
874.148
872.531
870.771
868.871
866.833
864.659
862.353
859.917
857.355
854.671
851.867
848.947
845.916
842.778
839.539
836.202
832.769
829.245
825.635
821.944
818.178
814.34
810.435
806.469
802.448
798.378
794.262
790.105
785.913
781.692
777.45
773.194
768.936
764.685
760.456
756.262
752.124
748.068
744.13
740.349
736.827
733.579
730.52
11463.3
2968.3
1029.31
559.898
399.649
327.87
289.007
263.723
246.47
233.798
223.638
215.08
207.868
202.096
198.207
196.749
198.002
202.673
210.886
222.971
241.215
267.344
302.982
346.479
394.015
442.346
488.312
529.863
567.257
599.42
627.737
651.144
661.735
662.857
655.441
644.806
631.818
619.122
606.746
595.108
583.824
572.956
562.51
552.86
544.297
537.028
531.093
526.464
523.1
521.079
520.28
520.326
521.441
523.469
526.342
529.975
534.282
539.181
544.594
550.453
556.694
563.257
570.086
577.136
584.369
591.753
599.268
606.901
614.613
622.386
630.203
638.049
645.903
653.741
661.522
669.283
677.032
684.761
692.457
700.11
707.713
715.257
722.735
730.141
737.471
744.723
751.874
758.914
765.836
772.637
779.314
785.863
792.282
798.567
804.714
810.719
816.576
822.284
827.841
833.242
838.485
843.567
848.483
853.232
857.811
862.216
866.445
870.493
874.357
878.034
881.52
884.814
887.913
890.814
893.516
896.016
898.313
900.404
902.29
903.969
905.443
906.71
907.774
908.634
909.293
909.75
909.996
910.044
909.9
909.561
909.031
908.312
907.409
906.324
905.061
903.625
902.02
900.249
898.317
896.229
893.987
891.594
889.054
886.369
883.544
880.582
877.488
874.265
870.916
867.447
863.862
860.167
856.366
852.464
848.464
844.374
840.198
835.943
831.613
827.213
822.748
818.224
813.649
809.026
804.361
799.661
794.933
790.186
785.427
780.667
775.916
771.188
766.495
761.855
757.291
752.833
748.513
744.405
740.494
736.472
11463.3
2489.48
886.011
518.212
385.215
323.793
289.957
269.869
256.521
246.745
239.128
233.195
229.131
227.5
228.466
233.193
241.722
253.261
268.334
288.975
315.193
346.068
380.1
415.327
450.149
483.426
514.249
541.553
566.458
589.28
602.937
607.009
605.3
599.666
590.968
581.485
571.944
562.964
554.391
546.137
538.049
530.198
522.76
516.024
510.215
505.467
501.828
499.302
498.045
497.735
498.405
500.034
502.599
506.031
510.264
515.224
520.838
527.035
533.75
540.922
548.514
556.456
564.683
573.148
581.807
590.612
599.501
608.412
617.405
626.472
635.593
644.747
653.909
663.06
672.205
681.313
690.375
699.384
708.319
717.173
725.939
734.611
743.184
751.651
760.001
768.222
776.304
784.242
792.028
799.661
807.135
814.452
821.607
828.597
835.417
842.065
848.538
854.833
860.949
866.882
872.628
878.184
883.547
888.714
893.684
898.454
903.02
907.378
911.526
915.459
919.174
922.669
925.941
928.99
931.812
934.406
936.769
938.901
940.8
942.466
943.9
945.104
946.078
946.826
947.349
947.642
947.711
947.559
947.19
946.607
945.812
944.81
943.606
942.204
940.609
938.825
936.857
934.71
932.389
929.898
927.241
924.422
921.444
918.311
915.028
911.599
908.028
904.321
900.479
896.509
892.415
888.203
883.879
879.448
874.916
870.29
865.576
860.779
855.905
850.958
845.942
840.866
835.735
830.555
825.333
820.077
814.795
809.497
804.189
798.883
793.588
788.316
783.08
777.897
772.786
767.774
762.884
758.175
753.623
748.728
11463.3
2075.5
786.225
487.627
377.859
325.573
298.159
282.146
271.943
265.057
260.487
258.317
258.079
260.846
267.025
276.663
289.223
304.548
323.249
345.098
369.251
394.745
420.644
446.143
470.476
492.902
514.001
534.059
548.779
555.291
556.766
555.879
551.747
546.026
539.547
533.08
526.821
520.807
514.913
509.079
503.322
497.78
492.662
488.197
484.562
481.86
480.276
479.712
480.056
481.405
483.706
486.93
491.049
496.033
501.848
508.379
515.562
523.331
531.616
540.328
549.336
558.642
568.27
578.191
588.363
598.745
609.311
620.046
630.874
641.751
652.642
663.534
674.368
685.112
695.747
706.253
716.611
726.819
736.896
746.849
756.681
766.39
775.975
785.427
794.733
803.878
812.847
821.633
830.229
838.633
846.843
854.858
862.677
870.294
877.706
884.912
891.91
898.698
905.275
911.637
917.782
923.706
929.405
934.88
940.127
945.145
949.932
954.482
958.794
962.862
966.685
970.26
973.584
976.657
979.477
982.043
984.352
986.402
988.193
989.725
991
992.018
992.785
993.301
993.569
993.589
993.362
992.894
992.189
991.249
990.08
988.688
987.078
985.255
983.226
980.995
978.567
975.949
973.145
970.16
966.999
963.666
960.165
956.501
952.68
948.705
944.582
940.315
935.91
931.369
926.7
921.905
916.994
911.973
906.85
901.631
896.324
890.932
885.462
879.916
874.301
868.623
862.887
857.102
851.277
845.42
839.541
833.649
827.752
821.857
815.977
810.121
804.303
798.538
792.845
787.247
781.761
776.436
771.253
765.55
11463.3
1942.27
769.199
484.689
380.989
334.474
310.959
297.942
290.341
286.256
284.712
285.061
288.153
294.033
302.646
313.725
326.958
342.367
359.59
378.03
397.08
416.152
434.682
452.458
469.744
486.44
500.142
508.218
512.042
513.412
513.323
511.376
508.215
504.507
500.595
496.675
492.768
488.856
484.921
481.003
477.212
473.714
470.699
468.346
466.912
466.399
466.804
468.339
470.813
474.216
478.524
483.703
489.694
496.381
503.666
511.682
520.413
529.805
539.796
550.328
561.381
572.887
584.769
596.977
609.464
622.172
635.047
648.057
661.107
674.099
686.963
699.624
712.064
724.263
736.208
747.89
759.316
770.508
781.504
792.339
803.025
813.571
823.982
834.246
844.341
854.241
863.924
873.382
882.61
891.606
900.37
908.9
917.194
925.249
933.062
940.63
947.954
955.035
961.872
968.462
974.802
980.89
986.723
992.301
997.622
1002.69
1007.49
1012.04
1016.31
1020.32
1024.06
1027.52
1030.7
1033.61
1036.25
1038.6
1040.67
1042.46
1043.97
1045.2
1046.14
1046.81
1047.2
1047.32
1047.18
1046.77
1046.09
1045.15
1043.97
1042.53
1040.84
1038.92
1036.77
1034.4
1031.81
1029.01
1026
1022.79
1019.39
1015.81
1012.03
1008.08
1003.96
999.67
995.216
990.605
985.842
980.933
975.883
970.695
965.377
959.929
954.363
948.689
942.915
937.048
931.091
925.051
918.931
912.737
906.473
900.144
893.757
887.321
880.849
874.351
867.836
861.312
854.786
848.267
841.764
835.288
828.852
822.472
816.167
809.956
803.851
797.894
792.089
785.629
11463.3
1883.74
746.49
482.697
388.406
346.532
325.972
315.096
309.406
306.991
306.583
308.72
313.393
320.285
329.1
339.522
351.296
364.163
377.764
391.696
405.557
419.316
433.111
446.428
457.707
465.602
471.069
474.829
476.763
477.523
477.618
476.841
475.514
473.897
472.109
470.209
468.232
466.218
464.252
462.478
461.138
460.341
460.099
460.55
461.839
463.945
466.789
470.16
474.441
479.705
485.954
493.166
501.307
510.369
520.358
531.192
542.835
555.208
568.234
581.844
595.984
610.565
625.495
640.704
656.16
671.758
687.355
702.817
718.056
733.011
747.608
761.787
775.509
788.757
801.528
813.824
825.689
837.197
848.453
859.567
870.542
881.4
892.163
902.808
913.288
923.549
933.544
943.282
952.761
961.973
970.918
979.592
987.995
996.122
1003.97
1011.54
1018.83
1025.85
1032.59
1039.06
1045.25
1051.16
1056.79
1062.14
1067.22
1072.01
1076.52
1080.74
1084.68
1088.34
1091.7
1094.76
1097.53
1100
1102.18
1104.06
1105.65
1106.93
1107.92
1108.61
1109
1109.09
1108.91
1108.43
1107.66
1106.61
1105.28
1103.68
1101.81
1099.69
1097.32
1094.7
1091.85
1088.77
1085.47
1081.95
1078.22
1074.29
1070.16
1065.84
1061.33
1056.65
1051.79
1046.76
1041.57
1036.22
1030.72
1025.07
1019.29
1013.37
1007.32
1001.15
994.859
988.47
981.986
975.411
968.749
962.006
955.184
948.291
941.33
934.305
927.22
920.094
912.938
905.763
898.577
891.387
884.2
877.024
869.865
862.737
855.653
848.631
841.689
834.843
828.106
821.508
815.087
807.913
11463.3
1851.17
744.555
489.421
399.767
360.273
340.925
330.768
325.638
323.614
323.421
325.928
330.61
336.984
344.633
353.232
362.574
372.441
382.597
392.929
403.561
413.646
422.272
429.406
435.279
440.32
444.292
447.437
449.905
451.918
453.63
455.123
456.353
457.354
458.19
458.916
459.595
460.289
461.06
461.927
462.767
464.05
466.083
469.119
473.21
478.285
484.356
491.554
499.814
509.165
519.62
531.133
543.654
557.151
571.592
586.921
603.177
620.122
637.612
655.537
673.79
692.258
710.826
729.376
747.754
765.868
783.65
800.993
817.79
833.932
849.315
863.908
877.702
890.726
903.01
914.529
925.399
935.768
945.895
956.144
966.328
976.496
986.747
996.985
1007.11
1017.04
1026.75
1036.2
1045.37
1054.25
1062.83
1071.11
1079.09
1086.76
1094.12
1101.16
1107.9
1114.34
1120.48
1126.33
1131.88
1137.13
1142.08
1146.73
1151.08
1155.15
1158.92
1162.4
1165.58
1168.47
1171.05
1173.33
1175.3
1176.96
1178.32
1179.38
1180.14
1180.58
1180.71
1180.55
1180.1
1179.31
1178.24
1176.87
1175.2
1173.25
1171.02
1168.5
1165.72
1162.68
1159.4
1155.86
1152.09
1148.09
1143.87
1139.44
1134.79
1129.94
1124.9
1119.68
1114.27
1108.68
1102.93
1097.01
1090.93
1084.7
1078.33
1071.82
1065.17
1058.4
1051.51
1044.53
1037.46
1030.3
1023.04
1015.71
1008.28
1000.78
993.205
985.562
977.857
970.093
962.274
954.424
946.555
938.673
930.786
922.901
915.024
907.163
899.322
891.516
883.765
876.086
868.493
861.003
853.626
846.383
839.353
831.507
11463.3
1827.75
743.692
497.606
409.729
371.248
352.582
342.339
336.924
334.685
334.314
336.336
340.236
345.472
351.636
358.479
365.891
373.768
381.805
389.627
397.039
404.106
410.948
417.354
423.404
429.167
434.612
439.778
444.625
449.12
453.186
456.6
459.736
462.778
465.815
468.923
472.19
475.705
479.571
483.914
488.991
494.938
501.988
510.416
520.077
530.818
542.684
555.739
569.934
585.281
601.918
619.631
638.241
657.614
677.621
698.106
718.847
739.821
760.927
782.052
803.082
823.909
844.432
864.557
884.192
903.264
921.708
939.452
956.412
972.481
987.451
1001.42
1014.46
1026.67
1038.12
1048.87
1058.95
1068.38
1077.29
1085.88
1094.23
1102.66
1111.62
1120.69
1129.67
1138.48
1147.1
1155.43
1163.46
1171.18
1178.57
1185.65
1192.4
1198.83
1204.91
1210.67
1216.09
1221.22
1226.04
1230.56
1234.77
1238.69
1242.3
1245.61
1248.63
1251.37
1253.82
1255.99
1257.86
1259.46
1260.76
1261.76
1262.45
1262.86
1262.95
1262.79
1262.32
1261.52
1260.43
1259.05
1257.37
1255.38
1253.11
1250.56
1247.72
1244.61
1241.23
1237.59
1233.69
1229.53
1225.13
1220.5
1215.64
1210.56
1205.26
1199.76
1194.07
1188.18
1182.11
1175.87
1169.46
1162.88
1156.14
1149.25
1142.21
1135.03
1127.71
1120.27
1112.7
1105.02
1097.24
1089.37
1081.43
1073.41
1065.3
1057.11
1048.85
1040.5
1032.09
1023.62
1015.1
1006.54
997.966
989.375
980.771
972.161
963.55
954.946
946.357
937.792
929.253
920.76
912.336
903.994
895.749
887.613
879.597
871.712
864.083
855.607
11463.3
1814.64
746.044
503.054
416.303
378.771
360.243
349.757
344.099
341.665
341.159
342.869
346.409
351.28
357.042
363.499
370.469
377.782
385.421
393.385
401.339
409.193
417.041
424.855
432.683
440.562
448.506
456.532
464.506
472.412
480.317
488.359
496.571
505.019
513.794
522.981
532.687
543.01
554.061
565.957
578.844
592.744
607.653
623.411
640.037
657.65
676.302
696.05
716.805
738.394
760.558
783.476
806.894
830.566
854.307
877.935
901.289
924.25
946.704
968.541
989.693
1010.1
1029.74
1048.56
1066.56
1083.72
1100.05
1115.54
1130.18
1143.99
1157
1169.13
1180.39
1190.99
1201.01
1210.57
1219.56
1227.9
1235.58
1242.48
1249.08
1255.98
1263.04
1269.98
1276.69
1283.14
1289.31
1295.18
1300.75
1306.01
1310.97
1315.64
1320.01
1324.06
1327.8
1331.24
1334.38
1337.27
1339.89
1342.25
1344.35
1346.18
1347.74
1349.05
1350.1
1350.92
1351.49
1351.82
1351.89
1351.74
1351.32
1350.62
1349.67
1348.46
1346.99
1345.27
1343.28
1341.01
1338.48
1335.67
1332.6
1329.27
1325.67
1321.83
1317.73
1313.39
1308.82
1304
1298.96
1293.69
1288.19
1282.49
1276.58
1270.47
1264.18
1257.7
1251.05
1244.22
1237.23
1230.09
1222.79
1215.34
1207.75
1200.02
1192.16
1184.17
1176.05
1167.82
1159.47
1151.01
1142.44
1133.78
1125.02
1116.19
1107.26
1098.26
1089.17
1080.02
1070.8
1061.53
1052.21
1042.86
1033.51
1024.14
1014.77
1005.4
996.028
986.671
977.337
968.037
958.796
949.629
940.543
931.551
922.661
913.891
905.248
896.739
888.524
879.475
11463.3
1802.05
747.629
506.066
419.818
384.322
366.283
356.386
352.082
350.578
351.078
354.064
358.758
364.721
371.987
380.692
390.065
399.896
410.723
422.67
435.297
448.238
461.851
476.17
491.172
506.847
523.158
540.055
557.547
575.638
594.344
613.674
633.541
653.905
674.8
696.261
718.394
741.333
765.059
789.465
814.472
839.945
865.745
891.703
917.778
944.029
970.529
997.687
1025.21
1052.47
1079.02
1104.49
1128.91
1152.3
1174.58
1195.7
1215.58
1234.17
1251.47
1267.52
1282.34
1296
1308.54
1320.05
1330.56
1340.13
1348.85
1356.77
1363.97
1370.58
1376.92
1383
1388.85
1394.4
1399.58
1404.39
1408.71
1412.51
1416.12
1419.81
1423.87
1427.93
1431.35
1434.28
1436.86
1439.17
1441.24
1443.11
1444.77
1446.24
1447.49
1448.53
1449.36
1449.96
1450.36
1450.55
1450.54
1450.41
1450.1
1449.6
1448.93
1448.07
1447.04
1445.84
1444.47
1442.95
1441.26
1439.4
1437.35
1435.13
1432.72
1430.11
1427.31
1424.31
1421.12
1417.72