/*--------------------------------*- C++ -*----------------------------------*\
  =========                 |
  \\      /  F ield         | OpenFOAM: The Open Source CFD Toolbox
   \\    /   O peration     | Website:  https://openfoam.org
    \\  /    A nd           | Version:  8
     \\/     M anipulation  |
\*---------------------------------------------------------------------------*/
FoamFile
{
    version     2.0;
    format      ascii;
    class       volScalarField;
    location    "1900";
    object      p;
}
// * * * * * * * * * * * * * * * * * * * * * * * * * * * * * * * * * * * * * //

dimensions      [0 2 -2 0 0 0 0];

internalField   nonuniform List<scalar> 
12225
(
-4.13979
-5.02437
-5.41356
-5.5409
-5.67429
-5.8275
-5.96132
-6.06827
-6.15724
-6.24106
-6.32142
-6.39132
-6.45342
-6.51315
-6.57743
-6.65092
-6.73974
-6.83524
-4.409
-5.04787
-5.37592
-5.50381
-5.63681
-5.79295
-5.9258
-6.02959
-6.12538
-6.21218
-6.29128
-6.36453
-6.43099
-6.49452
-6.56208
-6.63435
-6.70935
-6.77397
-4.62062
-5.04912
-5.36028
-5.51173
-5.64807
-5.7988
-5.92821
-6.03151
-6.12612
-6.21245
-6.29084
-6.36245
-6.42812
-6.49219
-6.5581
-6.62469
-6.68923
-6.74054
-4.76678
-5.07707
-5.37055
-5.52936
-5.65819
-5.79639
-5.92003
-6.02254
-6.11516
-6.1998
-6.27692
-6.3478
-6.41392
-6.47779
-6.54112
-6.603
-6.6608
-6.70761
-4.89185
-5.12598
-5.38817
-5.54556
-5.66845
-5.79755
-5.91712
-6.01872
-6.10934
-6.19223
-6.26829
-6.33847
-6.40403
-6.46645
-6.52692
-6.58475
-6.63778
-6.68155
-5.00837
-5.18171
-5.40649
-5.56018
-5.6798
-5.80142
-5.91608
-6.01545
-6.10382
-6.18485
-6.25959
-6.32864
-6.39298
-6.4537
-6.51163
-6.56615
-6.61556
-6.65705
-5.11525
-5.24091
-5.42912
-5.57577
-5.69166
-5.80574
-5.91462
-6.01113
-6.09738
-6.1766
-6.24986
-6.31762
-6.38064
-6.43976
-6.49542
-6.5471
-6.59364
-6.63336
-5.19799
-5.29366
-5.45352
-5.59104
-5.70254
-5.81022
-5.91381
-6.00737
-6.09157
-6.16901
-6.24075
-6.30721
-6.36895
-6.42659
-6.48038
-6.52995
-6.57452
-6.61302
-5.2655
-5.3411
-5.47784
-5.60581
-5.71287
-5.81496
-5.9137
-6.00429
-6.08644
-6.16211
-6.23233
-6.29747
-6.35796
-6.41422
-6.46642
-6.51431
-6.5574
-6.59503
-5.33274
-5.39207
-5.50652
-5.62318
-5.72483
-5.82102
-5.91442
-6.00146
-6.08114
-6.15472
-6.22312
-6.28668
-6.34567
-6.40039
-6.45095
-6.49721
-6.53894
-6.57571
-5.39888
-5.44509
-5.5392
-5.64331
-5.73841
-5.82844
-5.91611
-5.99904
-6.0758
-6.14696
-6.21324
-6.27493
-6.33223
-6.38525
-6.43414
-6.47883
-6.51926
-6.55524
-5.46263
-5.49869
-5.57512
-5.66609
-5.75358
-5.83719
-5.91889
-5.99719
-6.07055
-6.13894
-6.20281
-6.26239
-6.31775
-6.36899
-6.41618
-6.45936
-6.49858
-6.53375
-5.52291
-5.55112
-5.61282
-5.69095
-5.77005
-5.84702
-5.92263
-5.99594
-6.06546
-6.13078
-6.19197
-6.2492
-6.30247
-6.35182
-6.39731
-6.43904
-6.4771
-6.51149
-5.57801
-5.60037
-5.65026
-5.71665
-5.78715
-5.85738
-5.92699
-5.99513
-6.06056
-6.1225
-6.18085
-6.23556
-6.28664
-6.33405
-6.3779
-6.41823
-6.45518
-6.48881
-5.62601
-5.64404
-5.68486
-5.74126
-5.80362
-5.86734
-5.93122
-5.99438
-6.05563
-6.11414
-6.16956
-6.22174
-6.27061
-6.31615
-6.35839
-6.39741
-6.43333
-6.46623
-5.66412
-5.6791
-5.71338
-5.76199
-5.81744
-5.87539
-5.93422
-5.99289
-6.05029
-6.10555
-6.1582
-6.20799
-6.2548
-6.2986
-6.33937
-6.37719
-6.41218
-6.44443
-5.68841
-5.70147
-5.73161
-5.77505
-5.82557
-5.87921
-5.9342
-5.9894
-6.04376
-6.09638
-6.14674
-6.19454
-6.23964
-6.28197
-6.32153
-6.35837
-6.39259
-6.42432
-5.69254
-5.705
-5.73379
-5.77547
-5.82407
-5.87591
-5.92913
-5.98273
-6.03552
-6.08678
-6.13584
-6.18251
-6.22657
-6.26802
-6.30681
-6.34305
-6.37679
-6.40821
-5.6761
-5.68926
-5.71959
-5.76294
-5.8129
-5.86555
-5.91941
-5.97335
-6.02642
-6.07766
-6.12667
-6.17313
-6.217
-6.25817
-6.29676
-6.33276
-6.36636
-6.39765
-5.6443
-5.65937
-5.69372
-5.7417
-5.79542
-5.85094
-5.90707
-5.96299
-6.01753
-6.06989
-6.11962
-6.16663
-6.2108
-6.25221
-6.29087
-6.32695
-6.36055
-6.3919
-5.60045
-5.61877
-5.65989
-5.71512
-5.7744
-5.83405
-5.89373
-5.95266
-6.00956
-6.06365
-6.11466
-6.16259
-6.20743
-6.24927
-6.28822
-6.32448
-6.35819
-6.38961
-5.54644
-5.56989
-5.62106
-5.68597
-5.75187
-5.81643
-5.88051
-5.94321
-6.00298
-6.05914
-6.11172
-6.16078
-6.20645
-6.24879
-6.28809
-6.32453
-6.35838
-6.38986
-5.48318
-5.51459
-5.57997
-5.65651
-5.72931
-5.79918
-5.86833
-5.93523
-5.99803
-6.05642
-6.11067
-6.16098
-6.20746
-6.25034
-6.28991
-6.32652
-6.3604
-6.39191
-5.41076
-5.45469
-5.53939
-5.62843
-5.7075
-5.783
-5.85782
-5.92907
-5.99485
-6.05541
-6.11133
-6.16283
-6.21008
-6.25339
-6.29317
-6.32982
-6.36369
-6.39517
-5.32858
-5.39207
-5.50226
-5.60318
-5.68693
-5.76817
-5.84902
-5.92461
-5.99322
-6.05589
-6.11341
-6.16599
-6.21385
-6.25742
-6.2972
-6.33371
-6.36738
-6.39867
-5.23611
-5.32859
-5.47015
-5.58135
-5.66835
-5.75507
-5.8415
-5.92084
-5.99197
-6.05666
-6.11579
-6.1695
-6.21805
-6.26194
-6.30178
-6.33816
-6.37164
-6.40289
-5.13383
-5.26849
-5.4408
-5.55847
-5.64977
-5.74348
-5.83534
-5.91777
-5.99092
-6.05725
-6.11759
-6.17208
-6.22102
-6.26498
-6.30463
-6.34073
-6.37391
-6.40495
-5.0125
-5.22375
-5.41738
-5.5299
-5.6259
-5.73012
-5.82985
-5.9171
-5.99388
-6.06314
-6.12566
-6.18155
-6.23124
-6.2754
-6.31472
-6.35019
-6.38294
-6.41439
-4.82835
-5.2007
-5.42578
-5.52167
-5.61312
-5.72146
-5.82428
-5.91292
-5.99102
-6.06179
-6.12575
-6.18279
-6.23325
-6.27773
-6.31679
-6.3511
-6.3819
-6.41056
-4.57062
-5.12672
-5.4161
-5.52175
-5.62075
-5.7376
-5.84603
-5.93746
-6.01692
-6.08846
-6.15284
-6.21003
-6.26033
-6.3043
-6.34238
-6.37426
-6.40064
-6.42197
-7.36228
-7.36239
-7.36244
-7.36241
-7.36207
-7.36083
-7.35829
-7.35496
-7.35182
-7.34986
-7.35009
-7.35268
-7.3571
-7.36259
-7.36838
-7.37377
-7.37822
-7.38131
-7.38302
-7.38368
-7.38357
-7.38289
-7.38187
-7.3808
-7.37992
-7.37935
-7.37906
-7.3789
-7.37868
-7.37831
-7.37777
-7.37707
-7.37615
-7.37495
-7.37351
-7.37209
-7.37129
-7.37176
-7.37363
-7.37632
-7.37898
-7.38111
-7.38288
-7.38468
-7.38692
-7.39007
-7.39382
-7.39706
-7.39931
-7.40243
-7.41007
-7.42623
-7.45128
-7.4846
-7.52658
-7.57752
-7.63669
-7.7028
-7.7738
-7.84732
-7.92139
-7.99428
-8.06477
-8.13192
-8.19475
-8.25285
-8.30609
-8.3544
-8.39784
-8.43649
-8.47046
-8.49982
-8.52467
-8.54505
-8.561
-8.57253
-8.57964
-8.58231
-8.58052
-8.57421
-8.56336
-8.54792
-8.52785
-8.50307
-8.47354
-8.43917
-8.39991
-8.3557
-8.3065
-8.25226
-8.19288
-8.12833
-8.05858
-7.9836
-7.90336
-7.81781
-7.72695
-7.6308
-7.52944
-7.42277
-7.31041
-7.19222
-7.06839
-6.93897
-6.80399
-6.66347
-6.51744
-6.36593
-6.20898
-6.04665
-5.87902
-5.70615
-5.52814
-5.3451
-5.15715
-4.96441
-4.76702
-4.56513
-4.35891
-4.1485
-3.93409
-3.71586
-3.49397
-3.26863
-3.04
-2.8083
-2.57372
-2.33647
-2.09671
-1.85461
-1.61034
-1.36413
-1.11622
-0.866825
-0.616127
-0.364352
-0.111651
0.142001
0.396545
0.651648
0.907155
1.16289
1.41875
1.67451
1.93007
2.18523
2.43988
2.69378
2.94677
3.19866
3.44935
3.69868
3.94653
4.19274
4.43716
4.67965
4.92007
5.15829
5.39419
5.62764
5.85852
6.08671
6.31208
6.53449
6.75381
6.96992
7.18266
7.39194
7.5976
7.79954
7.99762
8.19171
8.38166
8.56735
8.74863
8.92542
9.09802
9.26629
9.43329
9.59031
-7.3635
-7.36368
-7.36404
-7.3644
-7.36436
-7.36352
-7.3616
-7.35917
-7.35747
-7.35746
-7.35941
-7.36314
-7.36815
-7.37377
-7.37938
-7.38448
-7.3887
-7.39185
-7.39373
-7.39414
-7.39318
-7.39116
-7.38852
-7.38573
-7.38322
-7.38126
-7.37991
-7.37901
-7.37831
-7.37765
-7.37702
-7.3764
-7.37572
-7.3749
-7.37387
-7.37302
-7.37303
-7.37441
-7.377
-7.37992
-7.38204
-7.38295
-7.3831
-7.3825
-7.38121
-7.38075
-7.38358
-7.39024
-7.39689
-7.40324
-7.41285
-7.42757
-7.4494
-7.48174
-7.52603
-7.58141
-7.64598
-7.7169
-7.79128
-7.86691
-7.94169
-8.01431
-8.08349
-8.14802
-8.20784
-8.263
-8.31346
-8.35929
-8.40059
-8.43745
-8.46994
-8.49812
-8.52204
-8.54173
-8.55717
-8.56836
-8.57527
-8.57785
-8.57606
-8.56984
-8.55916
-8.54393
-8.52413
-8.49967
-8.47052
-8.43657
-8.39779
-8.35411
-8.30549
-8.25186
-8.19315
-8.12931
-8.06031
-7.98611
-7.90667
-7.82192
-7.7318
-7.63623
-7.53509
-7.42831
-7.31611
-7.19858
-7.07558
-6.94706
-6.81299
-6.6734
-6.52829
-6.3777
-6.22167
-6.06025
-5.89351
-5.72153
-5.54439
-5.36221
-5.17509
-4.98317
-4.78657
-4.58545
-4.37997
-4.17029
-3.95658
-3.73901
-3.51776
-3.29303
-3.065
-2.83386
-2.59982
-2.36308
-2.1238
-1.88214
-1.63829
-1.39246
-1.14489
-0.895745
-0.645156
-0.393196
-0.140041
0.113872
0.36829
0.623215
0.878548
1.13415
1.38987
1.64553
1.90099
2.15609
2.41068
2.66455
2.91752
3.16942
3.42013
3.66952
3.91744
4.16376
4.4083
4.65094
4.89153
5.12993
5.36602
5.59969
5.83079
6.05922
6.28484
6.50753
6.72714
6.94355
7.15662
7.36624
7.57226
7.77457
7.97305
8.16757
8.35803
8.54434
8.72637
8.90402
9.07744
9.24609
9.41517
9.57155
-7.36481
-7.3648
-7.36483
-7.3649
-7.36497
-7.36501
-7.36527
-7.36625
-7.36843
-7.37193
-7.37656
-7.38195
-7.38767
-7.39328
-7.39841
-7.40276
-7.40613
-7.4084
-7.40951
-7.40938
-7.40806
-7.40566
-7.40236
-7.39836
-7.39391
-7.3893
-7.38481
-7.38073
-7.37726
-7.3745
-7.37237
-7.37067
-7.36914
-7.36781
-7.36711
-7.36769
-7.37006
-7.37404
-7.37832
-7.38112
-7.38104
-7.3789
-7.37682
-7.3764
-7.37714
-7.37877
-7.38382
-7.39384
-7.40798
-7.42657
-7.45057
-7.4804
-7.51686
-7.56052
-7.61105
-7.66743
-7.72833
-7.79209
-7.8572
-7.92246
-7.9868
-8.04936
-8.10945
-8.1664
-8.21992
-8.26984
-8.31603
-8.35843
-8.397
-8.4317
-8.46253
-8.48944
-8.51242
-8.53142
-8.5464
-8.5573
-8.56407
-8.56665
-8.56496
-8.55894
-8.54852
-8.53363
-8.51421
-8.4902
-8.46153
-8.42813
-8.38994
-8.34691
-8.29898
-8.24608
-8.18813
-8.12509
-8.05693
-7.98361
-7.90506
-7.82126
-7.73215
-7.63767
-7.53771
-7.43221
-7.32121
-7.2048
-7.0829
-6.95551
-6.82259
-6.68415
-6.5402
-6.39078
-6.23592
-6.07566
-5.91008
-5.73925
-5.56324
-5.38218
-5.19616
-5.00532
-4.80978
-4.60969
-4.40522
-4.19651
-3.98375
-3.76711
-3.54676
-3.32289
-3.0957
-2.86536
-2.6321
-2.39609
-2.15751
-1.91653
-1.67333
-1.42812
-1.18114
-0.932561
-0.682537
-0.431154
-0.178589
0.0748177
0.328819
0.583362
0.83833
1.0936
1.349
1.60439
1.85958
2.11445
2.36882
2.6225
2.87529
3.12706
3.37766
3.62698
3.87486
4.12116
4.36571
4.60839
4.84903
5.0875
5.32369
5.55745
5.78867
6.01722
6.24297
6.46579
6.68555
6.90212
7.11535
7.32513
7.53131
7.73379
7.93245
8.12716
8.31777
8.5042
8.68641
8.86437
9.0386
9.20796
9.37983
9.53223
-7.36597
-7.36569
-7.36532
-7.36535
-7.36656
-7.36936
-7.37353
-7.37871
-7.38453
-7.39071
-7.39693
-7.40294
-7.40853
-7.4135
-7.41769
-7.42096
-7.42321
-7.42438
-7.42444
-7.42336
-7.42116
-7.4179
-7.41368
-7.40858
-7.4027
-7.39616
-7.38917
-7.38202
-7.37505
-7.36865
-7.36306
-7.35851
-7.35525
-7.35374
-7.35469
-7.35832
-7.36363
-7.36869
-7.37202
-7.37325
-7.37291
-7.3725
-7.37362
-7.37708
-7.38331
-7.39301
-7.40703
-7.42613
-7.45042
-7.47953
-7.51302
-7.55068
-7.59241
-7.63801
-7.68713
-7.73931
-7.79396
-7.85034
-7.90764
-7.96509
-8.02196
-8.07757
-8.13136
-8.18287
-8.23175
-8.27775
-8.32068
-8.36039
-8.39677
-8.42972
-8.45916
-8.485
-8.50717
-8.52558
-8.54016
-8.55083
-8.55749
-8.56006
-8.55847
-8.55262
-8.54245
-8.52787
-8.50881
-8.4852
-8.45698
-8.42408
-8.38643
-8.34398
-8.29667
-8.24442
-8.18717
-8.12487
-8.05747
-7.98492
-7.90719
-7.8242
-7.73591
-7.64226
-7.54321
-7.4387
-7.32875
-7.21337
-7.09253
-6.96618
-6.83433
-6.69696
-6.5541
-6.40576
-6.25197
-6.09279
-5.92828
-5.75851
-5.58356
-5.40353
-5.21853
-5.02868
-4.83412
-4.63499
-4.43145
-4.22365
-4.01178
-3.79599
-3.57648
-3.35343
-3.12702
-2.89745
-2.66491
-2.42961
-2.1917
-1.95137
-1.7088
-1.46421
-1.2178
-0.969774
-0.720266
-0.469419
-0.21743
0.0354578
0.289027
0.543186
0.797797
1.05273
1.30782
1.56291
1.81785
2.07247
2.3266
2.58007
2.83267
3.08428
3.33477
3.584
3.83182
4.07808
4.32263
4.56532
4.80599
5.04452
5.28077
5.51462
5.74592
5.97457
6.20043
6.42337
6.64326
6.85995
7.07331
7.28321
7.48952
7.69212
7.8909
8.08575
8.27653
8.46318
8.64568
8.82396
8.9987
9.16814
9.3408
9.48705
-7.36832
-7.36773
-7.36735
-7.36885
-7.37319
-7.37961
-7.38704
-7.39478
-7.40235
-7.40945
-7.41592
-7.4217
-7.42675
-7.43098
-7.43432
-7.43669
-7.43801
-7.43825
-7.43738
-7.43537
-7.43222
-7.42799
-7.42271
-7.41643
-7.40923
-7.40116
-7.39232
-7.38293
-7.3733
-7.36393
-7.35543
-7.34858
-7.34434
-7.34363
-7.3464
-7.35088
-7.35543
-7.35934
-7.36246
-7.3652
-7.36831
-7.37293
-7.38004
-7.39061
-7.40544
-7.42483
-7.44839
-7.47554
-7.50605
-7.53958
-7.57589
-7.61499
-7.65683
-7.70131
-7.7482
-7.79713
-7.84765
-7.89923
-7.95131
-8.00335
-8.05483
-8.10529
-8.15428
-8.20146
-8.2465
-8.28917
-8.32924
-8.36654
-8.40091
-8.43221
-8.46032
-8.4851
-8.50644
-8.52423
-8.53834
-8.54868
-8.55514
-8.55761
-8.556
-8.55022
-8.54018
-8.52578
-8.50696
-8.48364
-8.45574
-8.4232
-8.38596
-8.34395
-8.29712
-8.24539
-8.1887
-8.12698
-8.0602
-7.98831
-7.91125
-7.82898
-7.74143
-7.64854
-7.55029
-7.44662
-7.33754
-7.22302
-7.10303
-6.97756
-6.84658
-6.71009
-6.56811
-6.42064
-6.26774
-6.10943
-5.94577
-5.77685
-5.60273
-5.42352
-5.23933
-5.05027
-4.85648
-4.6581
-4.45529
-4.24821
-4.03703
-3.82192
-3.60307
-3.38066
-3.15487
-2.92591
-2.69396
-2.45922
-2.22185
-1.98205
-1.74
-1.49592
-1.25
-1.00242
-0.753333
-0.502913
-0.251353
0.00111208
0.254322
0.508136
0.762448
1.01708
1.2719
1.52672
1.78142
2.0358
2.28972
2.54298
2.79541
3.04688
3.29726
3.5464
3.79417
4.0404
4.28494
4.52763
4.76834
5.00691
5.24323
5.47715
5.70856
5.93731
6.16329
6.38635
6.60636
6.82318
7.03668
7.24673
7.45321
7.65598
7.85494
8.04997
8.24097
8.42784
8.61056
8.78899
8.96377
9.13261
9.3048
9.44433
-7.37266
-7.37175
-7.37233
-7.37694
-7.38453
-7.39313
-7.40182
-7.41014
-7.4178
-7.42471
-7.43088
-7.43628
-7.44087
-7.44458
-7.44733
-7.44906
-7.44971
-7.44926
-7.44768
-7.44496
-7.44111
-7.43615
-7.4301
-7.42295
-7.41471
-7.40547
-7.39539
-7.38463
-7.37359
-7.36291
-7.3534
-7.34629
-7.34259
-7.34215
-7.3436
-7.34582
-7.34876
-7.35279
-7.35819
-7.36491
-7.37324
-7.38434
-7.39921
-7.41797
-7.44036
-7.46598
-7.49455
-7.5257
-7.55919
-7.59485
-7.63255
-7.67223
-7.71378
-7.75708
-7.80192
-7.84803
-7.89509
-7.94276
-7.99065
-8.0384
-8.08564
-8.13204
-8.17725
-8.22098
-8.26294
-8.30288
-8.3406
-8.37589
-8.40857
-8.43846
-8.4654
-8.48924
-8.50982
-8.52701
-8.54066
-8.55066
-8.55687
-8.55918
-8.55748
-8.55167
-8.54165
-8.52734
-8.50864
-8.48548
-8.45778
-8.42548
-8.38851
-8.34681
-8.30032
-8.24897
-8.19268
-8.1314
-8.06509
-7.9937
-7.91718
-7.83546
-7.74849
-7.65622
-7.5586
-7.4556
-7.34718
-7.23333
-7.11402
-6.98922
-6.85891
-6.72309
-6.58177
-6.43497
-6.28272
-6.12505
-5.96204
-5.79373
-5.62023
-5.44161
-5.258
-5.0695
-4.87626
-4.67842
-4.47612
-4.26955
-4.05886
-3.84423
-3.62585
-3.4039
-3.17857
-2.95005
-2.71853
-2.4842
-2.24724
-2.00784
-1.76619
-1.52251
-1.27697
-1.02975
-0.781013
-0.530945
-0.279743
-0.0276219
0.225274
0.478803
0.732839
0.987206
1.24177
1.49636
1.75082
2.00499
2.25869
2.51174
2.764
3.01532
3.26558
3.51464
3.76234
4.00852
4.25304
4.49572
4.73643
4.97503
5.21139
5.44537
5.67684
5.90567
6.13175
6.35491
6.57503
6.79198
7.00562
7.21581
7.42243
7.62535
7.82447
8.01965
8.2108
8.3978
8.58061
8.75899
8.93353
9.10144
9.27286
9.40586
-7.378
-7.37758
-7.38041
-7.38777
-7.39668
-7.40553
-7.41396
-7.42184
-7.42909
-7.4357
-7.44161
-7.44674
-7.45102
-7.45437
-7.45672
-7.45803
-7.45824
-7.45733
-7.45529
-7.45211
-7.44781
-7.4424
-7.4358
-7.42795
-7.41899
-7.4091
-7.39851
-7.38746
-7.37644
-7.36618
-7.35781
-7.35207
-7.34849
-7.34624
-7.34536
-7.34629
-7.34966
-7.35536
-7.36333
-7.37419
-7.38848
-7.40617
-7.42706
-7.45092
-7.47749
-7.50645
-7.53759
-7.57075
-7.60577
-7.64247
-7.68071
-7.72036
-7.7613
-7.80339
-7.84647
-7.89035
-7.9348
-7.97959
-8.02446
-8.06914
-8.11334
-8.15681
-8.19926
-8.24043
-8.28008
-8.31797
-8.35389
-8.38762
-8.41896
-8.44773
-8.47373
-8.49678
-8.51673
-8.53339
-8.54663
-8.55629
-8.56223
-8.56434
-8.5625
-8.55659
-8.54652
-8.53219
-8.51352
-8.49041
-8.4628
-8.43061
-8.39378
-8.35226
-8.30598
-8.25487
-8.19884
-8.13787
-8.07189
-8.00085
-7.92471
-7.84339
-7.75685
-7.66503
-7.56788
-7.46537
-7.35744
-7.24409
-7.12526
-7.00095
-6.87112
-6.73579
-6.59494
-6.4486
-6.2968
-6.13958
-5.97699
-5.8091
-5.636
-5.45778
-5.27453
-5.0864
-4.89351
-4.696
-4.49403
-4.28778
-4.0774
-3.86309
-3.64501
-3.42336
-3.19832
-2.9701
-2.73888
-2.50484
-2.26817
-2.02906
-1.78772
-1.54434
-1.29911
-1.05217
-0.803728
-0.553959
-0.303074
-0.0512367
0.201379
0.454665
0.708441
0.962579
1.2169
1.47127
1.72551
1.97946
2.23294
2.48579
2.73787
2.98905
3.23919
3.48816
3.73578
3.98191
4.22636
4.46901
4.7097
4.9483
5.18467
5.41868
5.6502
5.8791
6.10525
6.3285
6.54871
6.76576
6.97949
7.18979
7.39652
7.59957
7.79881
7.99411
8.18534
8.37239
8.55517
8.73338
8.90751
9.07439
9.24508
9.372
-7.38212
-7.38302
-7.38851
-7.3969
-7.40547
-7.41368
-7.42154
-7.429
-7.43598
-7.44238
-7.4481
-7.45305
-7.45714
-7.46029
-7.46243
-7.46352
-7.4635
-7.46236
-7.46009
-7.45669
-7.45218
-7.44646
-7.43946
-7.43134
-7.42234
-7.41259
-7.40233
-7.39198
-7.38229
-7.37396
-7.36729
-7.36169
-7.35674
-7.35318
-7.35191
-7.35321
-7.35758
-7.36552
-7.3771
-7.39219
-7.41049
-7.43178
-7.45581
-7.48229
-7.51101
-7.54174
-7.57429
-7.60851
-7.64422
-7.68127
-7.71952
-7.75886
-7.79917
-7.8403
-7.88212
-7.92447
-7.96719
-8.01008
-8.05295
-8.09558
-8.13774
-8.17922
-8.21978
-8.2592
-8.29724
-8.33369
-8.36833
-8.40094
-8.43131
-8.45925
-8.48454
-8.507
-8.52644
-8.54268
-8.55555
-8.5649
-8.57058
-8.57246
-8.57043
-8.56437
-8.55417
-8.53975
-8.521
-8.49785
-8.47022
-8.43803
-8.40123
-8.35976
-8.31357
-8.26257
-8.20669
-8.14588
-8.08009
-8.00928
-7.93338
-7.85234
-7.76609
-7.67457
-7.57775
-7.47555
-7.36796
-7.25494
-7.13645
-7.01246
-6.88296
-6.74793
-6.60739
-6.46134
-6.30982
-6.15287
-5.99053
-5.82289
-5.65002
-5.47201
-5.28897
-5.10103
-4.90832
-4.71098
-4.50918
-4.30309
-4.09288
-3.87873
-3.66081
-3.43933
-3.21447
-2.98643
-2.75539
-2.52154
-2.28507
-2.04617
-1.80506
-1.56191
-1.31691
-1.07021
-0.82201
-0.572507
-0.321894
-0.0703143
0.182064
0.435115
0.688661
0.94257
1.19667
1.45082
1.70484
1.95856
2.21182
2.46447
2.71637
2.9674
3.21743
3.4663
3.71383
3.95987
4.20425
4.44684
4.68749
4.92606
5.16242
5.39645
5.62799
5.85695
6.08316
6.30648
6.52676
6.74388
6.9577
7.16809
7.37491
7.57806
7.77739
7.97277
8.16406
8.35111
8.5338
8.71176
8.88543
9.05129
9.22132
9.34278
-7.38332
-7.38589
-7.39293
-7.401
-7.40887
-7.41659
-7.42411
-7.43134
-7.43817
-7.44448
-7.45015
-7.45507
-7.45914
-7.46226
-7.46439
-7.46546
-7.46544
-7.46432
-7.46206
-7.45867
-7.45411
-7.44829
-7.44133
-7.43346
-7.42487
-7.41582
-7.40671
-7.39803
-7.39015
-7.38305
-7.37653
-7.3705
-7.36536
-7.36212
-7.36164
-7.36447
-7.371
-7.38129
-7.39509
-7.41222
-7.4324
-7.45536
-7.48084
-7.50858
-7.53835
-7.56995
-7.60319
-7.63789
-7.6739
-7.71107
-7.74928
-7.78839
-7.82828
-7.86882
-7.90988
-7.95133
-7.99302
-8.03478
-8.07645
-8.11785
-8.15878
-8.19905
-8.23845
-8.27678
-8.31383
-8.34938
-8.38322
-8.41513
-8.44488
-8.47227
-8.49708
-8.51911
-8.53817
-8.55407
-8.56664
-8.5757
-8.58111
-8.58274
-8.58048
-8.57421
-8.56382
-8.54923
-8.53033
-8.50704
-8.47928
-8.44699
-8.41012
-8.3686
-8.32239
-8.2714
-8.21555
-8.15479
-8.0891
-8.01839
-7.94262
-7.86172
-7.77564
-7.6843
-7.58765
-7.48565
-7.37826
-7.26543
-7.14713
-7.02333
-6.89402
-6.75917
-6.61879
-6.4729
-6.32152
-6.16469
-6.00247
-5.83492
-5.66214
-5.48421
-5.30124
-5.11335
-4.92068
-4.72338
-4.52162
-4.31557
-4.1054
-3.8913
-3.67345
-3.45204
-3.22726
-2.99931
-2.76837
-2.53463
-2.29829
-2.05955
-1.8186
-1.57563
-1.33081
-1.08431
-0.83633
-0.587074
-0.336687
-0.0853489
0.166823
0.419638
0.672974
0.926651
1.18054
1.43446
1.68825
1.94174
2.19478
2.44722
2.69895
2.94982
3.19972
3.44847
3.69591
3.94184
4.18614
4.42865
4.66925
4.90777
5.14412
5.37814
5.60971
5.8387
6.06497
6.28834
6.50868
6.72585
6.93974
7.15019
7.3571
7.56033
7.75974
7.95518
8.1465
8.33351
8.51607
8.69372
8.8669
9.03177
9.2012
9.3179
-7.38
-7.38396
-7.39115
-7.39867
-7.40623
-7.41376
-7.42119
-7.4284
-7.43528
-7.44169
-7.4475
-7.4526
-7.45685
-7.46019
-7.46251
-7.46378
-7.46394
-7.46297
-7.46085
-7.45757
-7.4531
-7.44749
-7.44092
-7.43365
-7.42595
-7.41814
-7.41043
-7.4029
-7.39564
-7.38873
-7.38234
-7.37682
-7.3728
-7.37104
-7.37215
-7.37653
-7.38441
-7.39584
-7.41068
-7.42873
-7.44975
-7.47346
-7.4996
-7.52791
-7.55817
-7.59019
-7.62378
-7.65876
-7.69498
-7.7323
-7.77057
-7.80966
-7.84943
-7.88977
-7.93054
-7.97163
-8.01288
-8.05414
-8.09528
-8.13611
-8.17647
-8.21617
-8.25503
-8.29285
-8.32943
-8.36455
-8.39801
-8.42956
-8.45898
-8.48605
-8.51056
-8.53229
-8.55105
-8.56666
-8.57892
-8.5877
-8.59283
-8.59419
-8.59167
-8.58515
-8.57453
-8.55971
-8.5406
-8.5171
-8.48914
-8.45667
-8.41963
-8.37797
-8.33165
-8.28058
-8.22466
-8.16387
-8.09815
-8.02745
-7.95171
-7.87085
-7.78482
-7.69354
-7.59697
-7.49505
-7.38774
-7.27501
-7.15679
-7.03308
-6.90384
-6.76905
-6.62873
-6.48288
-6.33153
-6.17472
-6.0125
-5.84495
-5.67215
-5.49419
-5.31118
-5.12324
-4.93051
-4.73315
-4.53132
-4.32522
-4.11501
-3.90088
-3.68302
-3.46161
-3.23685
-3.00892
-2.77803
-2.54437
-2.30812
-2.06949
-1.82866
-1.58582
-1.34116
-1.09485
-0.847074
-0.598038
-0.347873
-0.0967466
0.155206
0.407801
0.660911
0.914368
1.16802
1.4217
1.67523
1.92847
2.18127
2.4335
2.68503
2.93573
3.1855
3.43414
3.68145
3.92727
4.17147
4.41388
4.6544
4.89287
5.12917
5.36318
5.59476
5.8238
6.05011
6.27352
6.4939
6.71112
6.92506
7.13558
7.34255
7.54586
7.74534
7.94083
8.13214
8.31909
8.50148
8.67881
8.85148
9.01541
9.18428
9.29695
-7.37022
-7.37483
-7.38173
-7.38925
-7.397
-7.40473
-7.41234
-7.41977
-7.4269
-7.43362
-7.43977
-7.4452
-7.4498
-7.45345
-7.45607
-7.45761
-7.45803
-7.45731
-7.45544
-7.45244
-7.44837
-7.44334
-7.43756
-7.43121
-7.42442
-7.41737
-7.4102
-7.40303
-7.396
-7.3894
-7.38365
-7.37917
-7.37642
-7.37596
-7.37829
-7.38377
-7.39258
-7.40477
-7.42026
-7.43886
-7.46033
-7.48442
-7.51087
-7.53949
-7.57004
-7.60235
-7.63622
-7.67149
-7.708
-7.74559
-7.7841
-7.82342
-7.86339
-7.90391
-7.94482
-7.986
-8.02732
-8.06862
-8.10976
-8.15059
-8.19093
-8.2306
-8.2694
-8.30715
-8.34365
-8.37868
-8.41203
-8.44346
-8.47276
-8.49969
-8.52402
-8.54555
-8.56408
-8.57943
-8.59141
-8.59989
-8.60472
-8.60578
-8.60295
-8.59614
-8.58524
-8.57014
-8.55075
-8.52699
-8.49876
-8.46601
-8.42872
-8.38686
-8.34035
-8.28911
-8.23305
-8.17214
-8.10633
-8.03556
-7.95976
-7.87886
-7.7928
-7.70151
-7.60493
-7.50301
-7.39571
-7.28298
-7.16478
-7.04108
-6.91183
-6.77704
-6.63669
-6.4908
-6.3394
-6.18254
-6.02025
-5.85262
-5.67973
-5.50167
-5.31854
-5.13048
-4.93762
-4.74014
-4.5382
-4.332
-4.12171
-3.90752
-3.68961
-3.46816
-3.24339
-3.01547
-2.7846
-2.55099
-2.31482
-2.07626
-1.83553
-1.59283
-1.34833
-1.1022
-0.854643
-0.605813
-0.355881
-0.104963
0.146745
0.39912
0.65198
0.905199
1.15859
1.412
1.66527
1.91825
2.1708
2.42281
2.67413
2.92466
3.17429
3.42282
3.66999
3.91567
4.15973
4.40204
4.64246
4.88087
5.11713
5.35111
5.58271
5.81179
6.03814
6.26159
6.482
6.69926
6.91324
7.12381
7.33085
7.53423
7.73378
7.92931
8.1206
8.30746
8.48966
8.66665
8.83882
9.00187
9.17017
9.27954
-7.35244
-7.35705
-7.36413
-7.37242
-7.38087
-7.38908
-7.39705
-7.40482
-7.41237
-7.41956
-7.42621
-7.43212
-7.43715
-7.4412
-7.44422
-7.44616
-7.44698
-7.44668
-7.44528
-7.44281
-7.43935
-7.435
-7.42987
-7.4241
-7.41783
-7.41116
-7.40425
-7.39731
-7.39065
-7.38461
-7.37953
-7.37582
-7.374
-7.37453
-7.37784
-7.38421
-7.39382
-7.40667
-7.42267
-7.44166
-7.46344
-7.48778
-7.51448
-7.54334
-7.57417
-7.6068
-7.64103
-7.6767
-7.71363
-7.75166
-7.79066
-7.83048
-7.87099
-7.91204
-7.95348
-7.99516
-8.03694
-8.07868
-8.12023
-8.16143
-8.20211
-8.24209
-8.28119
-8.3192
-8.35593
-8.39114
-8.42462
-8.45615
-8.48547
-8.51236
-8.53658
-8.55794
-8.57625
-8.59131
-8.60296
-8.61106
-8.61549
-8.61616
-8.61296
-8.60579
-8.59456
-8.57914
-8.55944
-8.53534
-8.50676
-8.47366
-8.43606
-8.39394
-8.34722
-8.29579
-8.23955
-8.17847
-8.11252
-8.04163
-7.96574
-7.88477
-7.79863
-7.70728
-7.61064
-7.50868
-7.40135
-7.2886
-7.17038
-7.04664
-6.91735
-6.78251
-6.6421
-6.49614
-6.34466
-6.18771
-6.02532
-5.85758
-5.68456
-5.50635
-5.32308
-5.13486
-4.94187
-4.74425
-4.5422
-4.3359
-4.12553
-3.91128
-3.69331
-3.47184
-3.24705
-3.01914
-2.78832
-2.55477
-2.31867
-2.08018
-1.83955
-1.597
-1.35269
-1.10677
-0.859445
-0.610852
-0.361151
-0.110478
0.140981
0.393097
0.645698
0.898639
1.15175
1.40486
1.65784
1.91054
2.16283
2.4146
2.66571
2.91604
3.16557
3.41399
3.661
3.90653
4.15044
4.39262
4.63294
4.87127
5.10747
5.34143
5.57303
5.80216
6.02857
6.25204
6.47248
6.68977
6.90379
7.11442
7.32152
7.52497
7.72461
7.92016
8.11143
8.29818
8.48019
8.65683
8.82851
8.99075
9.15847
9.26525
-7.3263
-7.33075
-7.33875
-7.34844
-7.3579
-7.36667
-7.37506
-7.38334
-7.39157
-7.39954
-7.40692
-7.41348
-7.41906
-7.42363
-7.42715
-7.4296
-7.43096
-7.43123
-7.4304
-7.42851
-7.42562
-7.42181
-7.41716
-7.41177
-7.40576
-7.3993
-7.39261
-7.38597
-7.37964
-7.37397
-7.36938
-7.36633
-7.36527
-7.36665
-7.37079
-7.37794
-7.38821
-7.40158
-7.41799
-7.43728
-7.45928
-7.48384
-7.51077
-7.53992
-7.57111
-7.60416
-7.6389
-7.67514
-7.71268
-7.75138
-7.79108
-7.83164
-7.8729
-7.91471
-7.95691
-7.99937
-8.04191
-8.0844
-8.12666
-8.16852
-8.20982
-8.25039
-8.29003
-8.32854
-8.3657
-8.40129
-8.43508
-8.4668
-8.49618
-8.52296
-8.54694
-8.56797
-8.58589
-8.60051
-8.61164
-8.61917
-8.62307
-8.62327
-8.61965
-8.61212
-8.60059
-8.58489
-8.56489
-8.54046
-8.51148
-8.47793
-8.43995
-8.39759
-8.3507
-8.29908
-8.24266
-8.18141
-8.11531
-8.04431
-7.96834
-7.8873
-7.80109
-7.70966
-7.61297
-7.51096
-7.4036
-7.29083
-7.17259
-7.04883
-6.91951
-6.78462
-6.64416
-6.49814
-6.3466
-6.18957
-6.02711
-5.85927
-5.68613
-5.50778
-5.32437
-5.13602
-4.94291
-4.7452
-4.54308
-4.33671
-4.1263
-3.91201
-3.69402
-3.47254
-3.24776
-3.0199
-2.78914
-2.5557
-2.31972
-2.08137
-1.84091
-1.59857
-1.35449
-1.10885
-0.861791
-0.613489
-0.364057
-0.113692
0.137483
0.389282
0.64158
0.894187
1.14696
1.39974
1.65239
1.90478
2.15679
2.40829
2.65915
2.90929
3.15879
3.40719
3.65403
3.89937
4.14312
4.38516
4.62538
4.86362
5.09978
5.33371
5.56536
5.79459
6.02107
6.24456
6.46501
6.68233
6.8964
7.10708
7.31424
7.51779
7.71751
7.91309
8.10433
8.29097
8.47276
8.64906
8.82026
8.98176
9.14884
9.25372
-7.29304
-7.29781
-7.30732
-7.31881
-7.32935
-7.33885
-7.348
-7.35698
-7.36591
-7.37478
-7.38324
-7.3908
-7.3971
-7.40215
-7.40617
-7.40919
-7.41113
-7.41198
-7.41171
-7.41035
-7.40793
-7.40449
-7.40012
-7.39493
-7.38909
-7.38277
-7.3762
-7.36966
-7.36351
-7.35814
-7.35399
-7.35149
-7.35109
-7.35313
-7.35792
-7.36563
-7.37634
-7.39006
-7.40672
-7.42623
-7.44845
-7.47324
-7.50043
-7.5299
-7.56149
-7.59503
-7.63032
-7.66718
-7.70544
-7.74493
-7.78549
-7.82696
-7.86915
-7.9119
-7.95506
-7.99848
-8.04198
-8.0854
-8.12856
-8.17127
-8.21335
-8.25462
-8.29487
-8.33391
-8.3715
-8.40741
-8.44138
-8.47312
-8.50233
-8.52873
-8.55217
-8.57259
-8.5899
-8.60386
-8.61417
-8.62082
-8.62403
-8.62375
-8.61982
-8.61212
-8.60051
-8.58475
-8.56465
-8.54003
-8.51069
-8.47662
-8.43825
-8.39571
-8.34869
-8.2969
-8.24026
-8.17881
-8.11255
-8.04144
-7.96538
-7.88425
-7.79795
-7.70641
-7.60962
-7.50754
-7.40014
-7.28736
-7.16911
-7.04533
-6.91596
-6.78102
-6.6405
-6.49444
-6.34285
-6.18578
-6.02326
-5.85535
-5.68214
-5.50374
-5.32029
-5.13191
-4.93878
-4.74103
-4.53887
-4.33244
-4.12194
-3.90756
-3.6895
-3.46797
-3.24319
-3.01536
-2.78469
-2.55141
-2.3157
-2.07774
-1.83768
-1.59571
-1.352
-1.10674
-0.86008
-0.612172
-0.363156
-0.113216
0.13752
0.388877
0.640708
0.89284
1.14512
1.39741
1.64959
1.90152
2.15309
2.40415
2.65459
2.90436
3.15369
3.40197
3.64857
3.89365
4.13721
4.37909
4.61918
4.85734
5.09344
5.32735
5.55908
5.78853
6.01517
6.23868
6.45915
6.67651
6.89063
7.10139
7.30864
7.51233
7.71219
7.90781
8.099
8.28552
8.46711
8.64307
8.81382
8.97462
9.14102
9.24466
-7.25569
-7.26135
-7.27291
-7.28658
-7.29827
-7.30805
-7.3176
-7.32766
-7.33788
-7.34789
-7.35741
-7.36599
-7.37308
-7.37867
-7.38316
-7.38671
-7.38921
-7.39059
-7.39081
-7.38986
-7.38775
-7.38456
-7.38035
-7.37524
-7.36939
-7.36302
-7.3564
-7.34987
-7.34382
-7.33865
-7.33481
-7.33268
-7.33267
-7.33508
-7.34017
-7.34809
-7.35894
-7.37272
-7.38943
-7.40897
-7.43125
-7.45615
-7.48356
-7.51333
-7.54531
-7.57933
-7.61517
-7.6527
-7.69174
-7.73209
-7.77358
-7.81603
-7.85926
-7.90308
-7.94732
-7.99179
-8.03629
-8.08062
-8.1246
-8.16803
-8.21072
-8.25248
-8.29311
-8.3324
-8.37013
-8.40604
-8.43986
-8.4713
-8.49997
-8.52545
-8.54779
-8.56723
-8.58371
-8.59686
-8.60593
-8.61111
-8.61324
-8.61239
-8.60831
-8.60075
-8.58942
-8.57398
-8.55413
-8.52978
-8.50098
-8.46774
-8.43002
-8.38773
-8.3407
-8.28877
-8.23192
-8.17025
-8.10379
-8.03248
-7.95622
-7.87489
-7.78838
-7.69664
-7.59966
-7.49744
-7.38991
-7.27702
-7.15867
-7.03479
-6.90533
-6.77028
-6.62966
-6.48351
-6.33182
-6.17465
-6.01203
-5.84402
-5.6707
-5.49223
-5.30872
-5.12031
-4.92712
-4.72933
-4.52709
-4.32058
-4.10998
-3.89549
-3.67735
-3.45577
-3.23097
-3.00316
-2.77258
-2.53946
-2.30402
-2.06645
-1.82682
-1.58522
-1.34192
-1.09708
-0.850875
-0.603413
-0.354901
-0.105453
0.144745
0.395571
0.646831
0.898389
1.15008
1.40177
1.65335
1.90468
2.15564
2.40608
2.65585
2.90482
3.15288
3.39996
3.64589
3.89054
4.13371
4.37529
4.6151
4.85302
5.08889
5.32261
5.55425
5.7838
6.01053
6.23402
6.4545
6.6719
6.88609
7.09694
7.3043
7.50823
7.70833
7.90404
8.09519
8.2816
8.46299
8.63864
8.80896
8.96911
9.13478
9.23781
-7.21789
-7.22477
-7.23882
-7.25442
-7.26643
-7.27666
-7.28732
-7.29853
-7.30983
-7.32091
-7.33145
-7.34097
-7.34883
-7.35504
-7.36011
-7.36423
-7.36728
-7.36914
-7.36976
-7.36913
-7.36723
-7.36412
-7.35988
-7.35465
-7.34862
-7.34203
-7.3352
-7.32847
-7.32227
-7.31699
-7.31305
-7.31081
-7.31066
-7.31287
-7.3177
-7.32531
-7.3358
-7.34923
-7.3656
-7.38486
-7.40697
-7.43186
-7.4594
-7.48946
-7.52186
-7.5564
-7.5929
-7.6312
-7.67109
-7.71239
-7.75488
-7.79833
-7.84256
-7.88735
-7.93251
-7.97782
-8.02306
-8.06802
-8.11249
-8.15629
-8.19922
-8.24109
-8.28169
-8.32084
-8.35833
-8.39393
-8.42736
-8.45828
-8.48606
-8.50978
-8.5298
-8.54726
-8.56253
-8.57537
-8.58515
-8.59139
-8.59397
-8.59307
-8.58888
-8.58128
-8.56997
-8.55458
-8.53478
-8.51058
-8.4823
-8.44991
-8.41285
-8.37078
-8.32375
-8.27175
-8.21482
-8.15305
-8.08647
-8.015
-7.93858
-7.8571
-7.77045
-7.67861
-7.58156
-7.4793
-7.37174
-7.25882
-7.14047
-7.01659
-6.88714
-6.75211
-6.61153
-6.4654
-6.31374
-6.15658
-5.99396
-5.82594
-5.6526
-5.47409
-5.29053
-5.10208
-4.90887
-4.71108