/*--------------------------------*- C++ -*----------------------------------*\
  =========                 |
  \\      /  F ield         | OpenFOAM: The Open Source CFD Toolbox
   \\    /   O peration     | Website:  https://openfoam.org
    \\  /    A nd           | Version:  8
     \\/     M anipulation  |
\*---------------------------------------------------------------------------*/
FoamFile
{
    version     2.0;
    format      ascii;
    class       surfaceScalarField;
    location    "1900";
    object      phi;
}
// * * * * * * * * * * * * * * * * * * * * * * * * * * * * * * * * * * * * * //

dimensions      [0 3 -1 0 0 0 0];

internalField   nonuniform List<scalar> 
24170
(
3.0052e-06
1.28663e-07
2.85958e-06
1.45557e-07
2.72756e-06
1.31917e-07
2.60985e-06
1.17661e-07
2.51011e-06
9.96056e-08
2.42855e-06
8.13335e-08
2.35875e-06
6.95697e-08
2.30085e-06
5.80537e-08
2.25503e-06
4.59545e-08
2.21606e-06
3.90868e-08
2.18327e-06
3.27338e-08
2.15509e-06
2.81175e-08
2.131e-06
2.39748e-08
2.11127e-06
1.96262e-08
2.09496e-06
1.62005e-08
2.082e-06
1.28656e-08
2.07377e-06
8.13289e-09
1.48016e-09
2.0722e-06
3.50816e-06
7.68906e-08
3.53905e-06
1.14243e-07
3.55042e-06
1.20038e-07
3.54594e-06
1.21683e-07
3.53084e-06
1.14276e-07
3.51004e-06
1.01766e-07
3.48457e-06
9.48533e-08
3.4551e-06
8.76442e-08
3.42401e-06
7.72273e-08
3.39447e-06
6.88155e-08
3.36563e-06
6.1676e-08
3.33805e-06
5.58022e-08
3.31227e-06
4.9836e-08
3.28772e-06
4.42332e-08
3.26494e-06
3.90196e-08
3.24324e-06
3.45775e-08
3.22227e-06
2.91099e-08
2.36204e-08
3.20014e-06
3.83273e-06
5.63469e-08
3.8505e-06
9.66003e-08
3.86549e-06
1.05119e-07
3.87937e-06
1.07836e-07
3.88959e-06
1.04053e-07
3.89527e-06
9.60086e-08
3.8994e-06
9.06921e-08
3.90177e-06
8.53873e-08
3.90104e-06
7.80722e-08
3.89862e-06
7.12847e-08
3.89479e-06
6.54642e-08
3.89009e-06
6.04602e-08
3.88453e-06
5.53214e-08
3.87831e-06
5.03936e-08
3.87162e-06
4.5633e-08
3.86492e-06
4.12086e-08
3.85769e-06
3.62905e-08
3.10201e-08
3.85027e-06
4.21667e-06
4.42047e-08
4.22928e-06
8.36654e-08
4.23991e-06
9.41563e-08
4.24991e-06
9.75023e-08
4.25823e-06
9.54422e-08
4.26426e-06
8.97603e-08
4.26992e-06
8.49494e-08
4.27531e-06
8.00479e-08
4.27948e-06
7.4019e-08
4.28273e-06
6.81078e-08
4.28535e-06
6.29159e-08
4.28756e-06
5.83012e-08
4.28928e-06
5.36626e-08
4.29059e-06
4.91326e-08
4.2915e-06
4.47529e-08
4.29221e-06
4.05215e-08
4.29243e-06
3.60809e-08
3.14564e-08
4.29203e-06
4.64625e-06
3.52501e-08
4.65698e-06
7.31403e-08
4.66641e-06
8.48204e-08
4.67515e-06
8.88153e-08
4.68261e-06
8.8014e-08
4.68842e-06
8.39738e-08
4.69378e-06
7.96352e-08
4.69888e-06
7.50306e-08
4.70324e-06
6.97148e-08
4.70698e-06
6.43767e-08
4.71031e-06
5.95426e-08
4.71345e-06
5.51344e-08
4.7163e-06
5.07719e-08
4.71888e-06
4.65048e-08
4.72122e-06
4.23729e-08
4.72337e-06
3.83426e-08
4.72517e-06
3.42518e-08
3.01132e-08
4.7265e-06
5.12164e-06
2.81849e-08
5.13126e-06
6.32193e-08
5.1402e-06
7.55977e-08
5.14859e-06
8.01642e-08
5.15596e-06
8.04336e-08
5.16202e-06
7.77679e-08
5.16749e-06
7.41082e-08
5.17258e-06
6.99556e-08
5.17708e-06
6.52557e-08
5.18102e-06
6.047e-08
5.18462e-06
5.5989e-08
5.18801e-06
5.17973e-08
5.19117e-06
4.76733e-08
5.19409e-06
4.36366e-08
5.19679e-06
3.972e-08
5.19929e-06
3.58922e-08
5.20149e-06
3.20859e-08
2.83487e-08
5.20332e-06
5.64655e-06
2.26534e-08
5.65539e-06
5.45917e-08
5.66399e-06
6.71147e-08
5.67217e-06
7.20259e-08
5.6796e-06
7.30553e-08
5.68599e-06
7.14093e-08
5.69176e-06
6.83985e-08
5.69708e-06
6.46913e-08
5.70184e-06
6.05188e-08
5.70607e-06
5.62109e-08
5.70997e-06
5.20815e-08
5.71362e-06
4.81265e-08
5.71703e-06
4.42579e-08
5.72019e-06
4.04687e-08
5.72312e-06
3.67887e-08
5.72581e-06
3.3204e-08
5.72823e-06
2.96934e-08
2.62693e-08
5.7303e-06
4.40936e-06
1.94261e-08
4.4152e-06
4.85281e-08
4.42123e-06
6.0902e-08
4.42696e-06
6.61077e-08
4.43228e-06
6.76028e-08
4.43706e-06
6.6541e-08
4.44141e-06
6.40186e-08
4.44541e-06
6.06901e-08
4.44903e-06
5.68998e-08
4.4523e-06
5.29344e-08
4.45532e-06
4.9072e-08
4.45815e-06
4.53242e-08
4.46079e-06
4.16512e-08
4.46323e-06
3.80489e-08
4.46548e-06
3.45555e-08
4.46755e-06
3.11546e-08
4.46941e-06
2.78434e-08
2.46925e-08
4.47104e-06
5.14284e-06
1.64328e-08
5.14873e-06
4.28393e-08
5.15503e-06
5.46792e-08
5.16115e-06
6.00107e-08
5.16695e-06
6.18217e-08
5.17226e-06
6.12599e-08
5.17714e-06
5.9171e-08
5.18163e-06
5.62213e-08
5.18573e-06
5.27946e-08
5.18947e-06
4.91868e-08
5.19293e-06
4.56091e-08
5.19616e-06
4.21039e-08
5.19917e-06
3.86575e-08
5.20195e-06
3.52892e-08
5.20453e-06
3.2e-08
5.20688e-06
2.88202e-08
5.20902e-06
2.57464e-08
2.28063e-08
5.2109e-06
5.99852e-06
1.37615e-08
6.00435e-06
3.69524e-08
6.01087e-06
4.80715e-08
6.01735e-06
5.34544e-08
6.02359e-06
5.55219e-08
6.02944e-06
5.53869e-08
6.03485e-06
5.37426e-08
6.03986e-06
5.12051e-08
6.04446e-06
4.81718e-08
6.0487e-06
4.49419e-08
6.05263e-06
4.16753e-08
6.05629e-06
3.84468e-08
6.05971e-06
3.5271e-08
6.06286e-06
3.21255e-08
6.06578e-06
2.90964e-08
6.06846e-06
2.61478e-08
6.07089e-06
2.3314e-08
2.06515e-08
6.07306e-06
6.99671e-06
1.12962e-08
7.00242e-06
3.13389e-08
7.00909e-06
4.14289e-08
7.01587e-06
4.66523e-08
7.02254e-06
4.88486e-08
7.0289e-06
4.9026e-08
7.03485e-06
4.78004e-08
7.04039e-06
4.56512e-08
7.04552e-06
4.30389e-08
7.05028e-06
4.01773e-08
7.05471e-06
3.7262e-08
7.05885e-06
3.43387e-08
7.06268e-06
3.14145e-08
7.06625e-06
2.85693e-08
7.06953e-06
2.57871e-08
7.07256e-06
2.31151e-08
7.07531e-06
2.05595e-08
1.81639e-08
7.0778e-06
8.16123e-06
9.13454e-09
8.1667e-06
2.58893e-08
8.17343e-06
3.47013e-08
8.18048e-06
3.95962e-08
8.18753e-06
4.17949e-08
8.19438e-06
4.2194e-08
8.20086e-06
4.12833e-08
8.20697e-06
3.95747e-08
8.21265e-06
3.73235e-08
8.21797e-06
3.48834e-08
8.22293e-06
3.22999e-08
8.22756e-06
2.96998e-08
8.23186e-06
2.70966e-08
8.23585e-06
2.45489e-08
8.23954e-06
2.20679e-08
8.24295e-06
1.97021e-08
8.24605e-06
1.74347e-08
1.53425e-08
8.24888e-06
9.51971e-06
7.1398e-09
9.52495e-06
2.0682e-08
9.53165e-06
2.8004e-08
9.5389e-06
3.23321e-08
9.54631e-06
3.43921e-08
9.5536e-06
3.4859e-08
9.56064e-06
3.42645e-08
9.5673e-06
3.28623e-08
9.5736e-06
3.10572e-08
9.57949e-06
2.89524e-08
9.58504e-06
2.6771e-08
9.59019e-06
2.45017e-08
9.595e-06
2.22651e-08
9.59945e-06
2.00424e-08
9.60361e-06
1.79266e-08
9.60742e-06
1.58743e-08
9.61093e-06
1.39485e-08
1.21542e-08
9.61413e-06
1.11045e-05
5.34076e-09
1.11095e-05
1.57635e-08
1.11161e-05
2.14092e-08
1.11235e-05
2.49457e-08
1.11313e-05
2.66565e-08
1.1139e-05
2.71112e-08
1.11465e-05
2.66548e-08
1.11538e-05
2.55946e-08
1.11607e-05
2.41129e-08
1.11673e-05
2.24234e-08
1.11734e-05
2.05964e-08
1.11792e-05
1.87361e-08
1.11845e-05
1.68643e-08
1.11896e-05
1.50519e-08
1.11942e-05
1.32866e-08
1.11985e-05
1.16115e-08
1.12024e-05
1.00174e-08
8.56288e-09
1.12061e-05
1.29533e-05
3.66213e-09
1.29581e-05
1.10757e-08
1.29646e-05
1.49557e-08
1.29722e-05
1.74138e-08
1.29802e-05
1.86333e-08
1.29884e-05
1.88956e-08
1.29965e-05
1.8515e-08
1.30044e-05
1.76731e-08
1.3012e-05
1.65252e-08
1.30192e-05
1.51991e-08
1.30261e-05
1.37753e-08
1.30325e-05
1.23206e-08
1.30385e-05
1.08702e-08
1.30441e-05
9.45793e-09
1.30493e-05
8.09456e-09
1.30542e-05
6.80011e-09
1.30586e-05
5.57946e-09
4.4706e-09
1.30627e-05
1.51101e-05
2.05515e-09
1.51147e-05
6.52408e-09
1.51213e-05
8.45475e-09
1.51291e-05
9.69179e-09
1.51375e-05
1.0207e-08
1.51462e-05
1.01612e-08
1.5155e-05
9.74527e-09
1.51636e-05
9.05314e-09
1.51719e-05
8.19074e-09
1.51799e-05
7.21939e-09
1.51875e-05
6.20172e-09
1.51947e-05
5.16983e-09
1.52014e-05
4.15502e-09
1.52077e-05
3.17196e-09
1.52136e-05
2.2343e-09
1.52191e-05
1.35134e-09
1.52242e-05
5.29955e-10
-2.05213e-10
1.52288e-05
1.76261e-05
4.32458e-10
1.76308e-05
1.80279e-09
1.76376e-05
1.65341e-09
1.76459e-05
1.49428e-09
1.76549e-05
1.13127e-09
1.76644e-05
6.95973e-10
1.76739e-05
1.2206e-10
1.76835e-05
-4.44892e-10
1.76927e-05
-1.08299e-09
1.77016e-05
-1.6813e-09
1.77102e-05
-2.30289e-09
1.77182e-05
-2.87135e-09
1.77258e-05
-3.43402e-09
1.7733e-05
-3.94083e-09
1.77397e-05
-4.4247e-09
1.77459e-05
-4.85211e-09
1.77517e-05
-5.24516e-09
-5.56872e-09
1.7757e-05
1.78278e-05
-1.12903e-09
1.78323e-05
-2.83591e-09
1.78389e-05
-4.95338e-09
1.78468e-05
-6.56504e-09
1.78557e-05
-7.70419e-09
1.78649e-05
-8.65138e-09
1.78744e-05
-9.29543e-09
1.78837e-05
-9.85797e-09
1.7893e-05
-1.0203e-08
1.79017e-05
-1.0523e-08
1.79102e-05
-1.06985e-08
1.79181e-05
-1.08743e-08
1.79258e-05
-1.09508e-08
1.79328e-05
-1.1033e-08
1.79395e-05
-1.10446e-08
1.79456e-05
-1.10594e-08
1.79515e-05
-1.10181e-08
-1.09653e-08
1.79568e-05
1.58828e-05
-2.6007e-09
1.5887e-05
-7.12587e-09
1.58931e-05
-1.11267e-08
1.59004e-05
-1.39124e-08
1.59084e-05
-1.58289e-08
1.59169e-05
-1.70599e-08
1.59253e-05
-1.78759e-08
1.59338e-05
-1.82593e-08
1.5942e-05
-1.8441e-08
1.59499e-05
-1.83744e-08
1.59574e-05
-1.82335e-08
1.59646e-05
-1.79569e-08
1.59712e-05
-1.76662e-08
1.59776e-05
-1.73008e-08
1.59834e-05
-1.69453e-08
1.5989e-05
-1.6546e-08
1.59941e-05
-1.61634e-08
-1.57435e-08
1.59989e-05
1.41501e-05
-4.09708e-09
1.41544e-05
-1.1401e-08
1.41604e-05
-1.71561e-08
1.41674e-05
-2.10155e-08
1.41751e-05
-2.34799e-08
1.41829e-05
-2.50096e-08
1.41909e-05
-2.58005e-08
1.41986e-05
-2.60814e-08
1.42062e-05
-2.59475e-08
1.42133e-05
-2.55795e-08
1.42202e-05
-2.50306e-08
1.42266e-05
-2.43915e-08
1.42327e-05
-2.36845e-08
1.42383e-05
-2.29567e-08
1.42436e-05
-2.22128e-08
1.42485e-05
-2.14808e-08
1.42531e-05
-2.07514e-08
-2.00415e-08
1.42574e-05
1.26067e-05
-5.72252e-09
1.26111e-05
-1.58923e-08
1.26173e-05
-2.3323e-08
1.26243e-05
-2.80381e-08
1.26317e-05
-3.09233e-08
1.26393e-05
-3.25969e-08
1.26468e-05
-3.33476e-08
1.26541e-05
-3.33912e-08
1.26611e-05
-3.2952e-08
1.26677e-05
-3.22201e-08
1.2674e-05
-3.12825e-08
1.26798e-05
-3.02604e-08
1.26853e-05
-2.91593e-08
1.26904e-05
-2.80732e-08
1.26952e-05
-2.6972e-08
1.26996e-05
-2.59226e-08
1.27038e-05
-2.48847e-08
-2.38986e-08
1.27076e-05
1.12317e-05
-7.59902e-09
1.12367e-05
-2.08532e-08
1.12431e-05
-2.97899e-08
1.12502e-05
-3.5087e-08
1.12575e-05
-3.82325e-08
1.12648e-05
-3.99625e-08
1.1272e-05
-4.05595e-08
1.12789e-05
-4.03103e-08
1.12855e-05
-3.95206e-08
1.12916e-05
-3.83896e-08
1.12974e-05
-3.70755e-08
1.13028e-05
-3.56364e-08
1.13078e-05
-3.41861e-08
1.13124e-05
-3.2715e-08
1.13167e-05
-3.13119e-08
1.13208e-05
-2.99299e-08
1.13245e-05
-2.8639e-08
-2.73754e-08
1.1328e-05
1.00069e-05
-9.88739e-09
1.00126e-05
-2.64947e-08
1.00194e-05
-3.66249e-08
1.00265e-05
-4.22028e-08
1.00338e-05
-4.54659e-08
1.0041e-05
-4.71473e-08
1.00479e-05
-4.74924e-08
1.00545e-05
-4.68866e-08
1.00606e-05
-4.57021e-08
1.00664e-05
-4.41722e-08
1.00717e-05
-4.24436e-08
1.00767e-05
-4.06274e-08
1.00813e-05
-3.87889e-08
1.00855e-05
-3.69947e-08
1.00895e-05
-3.52541e-08
1.00931e-05
-3.36112e-08
1.00966e-05
-3.20349e-08
-3.05643e-08
1.00997e-05
8.91604e-06
-1.2822e-08
8.92257e-06
-3.29989e-08
8.92977e-06
-4.38116e-08
8.93695e-06
-4.93747e-08
8.94415e-06
-5.2665e-08
8.9512e-06
-5.41974e-08
8.95791e-06
-5.41992e-08
8.9642e-06
-5.31813e-08
8.97007e-06
-5.15785e-08
8.97551e-06
-4.9626e-08
8.98054e-06
-4.74867e-08
8.98517e-06
-4.52753e-08
8.98944e-06
-4.30757e-08
8.99338e-06
-4.09446e-08
8.99701e-06
-3.89132e-08
9.00039e-06
-3.69873e-08
9.00351e-06
-3.51814e-08
-3.34801e-08
9.00643e-06
7.94457e-06
-1.67188e-08
7.95211e-06
-4.05206e-08
7.95962e-06
-5.1304e-08
7.96689e-06
-5.6642e-08
7.97415e-06
-5.9921e-08
7.98117e-06
-6.12113e-08
7.98776e-06
-6.07846e-08
7.99389e-06
-5.93121e-08
7.99958e-06
-5.72607e-08
8.00481e-06
-5.48711e-08
8.00962e-06
-5.23049e-08
8.01403e-06
-4.96914e-08
8.01807e-06
-4.71248e-08
8.02177e-06
-4.46623e-08
8.02518e-06
-4.23291e-08
8.02832e-06
-4.01451e-08
8.03123e-06
-3.81065e-08
-3.61999e-08
8.03393e-06
7.0796e-06
-2.19832e-08
7.08834e-06
-4.9243e-08
7.09634e-06
-5.92948e-08
7.104e-06
-6.42951e-08
7.11156e-06
-6.74833e-08
7.11878e-06
-6.84128e-08
7.12548e-06
-6.74844e-08
7.13168e-06
-6.54917e-08
7.13739e-06
-6.29821e-08
7.14262e-06
-6.01046e-08
7.14739e-06
-5.70792e-08
7.15172e-06
-5.40357e-08
7.15566e-06
-5.10658e-08
7.15924e-06
-4.82536e-08
7.1625e-06
-4.56013e-08
7.16548e-06
-4.31354e-08
7.16822e-06
-4.08611e-08
-3.87598e-08
7.17076e-06
6.31005e-06
-2.95172e-08
6.32065e-06
-5.98568e-08
6.33001e-06
-6.86238e-08
6.33899e-06
-7.32627e-08
6.34769e-06
-7.61778e-08
6.35581e-06
-7.65297e-08
6.36328e-06
-7.49307e-08
6.37009e-06
-7.23415e-08
6.37632e-06
-6.91753e-08
6.38193e-06
-6.57138e-08
6.38694e-06
-6.21034e-08
6.3914e-06
-5.84973e-08
6.39533e-06
-5.50309e-08
6.39881e-06
-5.17217e-08
6.40186e-06
-4.86552e-08
6.40455e-06
-4.58303e-08
6.40691e-06
-4.32422e-08
-4.08738e-08
6.40901e-06
5.62924e-06
-4.38612e-08
5.64476e-06
-7.53728e-08
5.65886e-06
-8.26917e-08
5.67241e-06
-8.68022e-08
5.68501e-06
-8.87722e-08
5.69625e-06
-8.7756e-08
5.70604e-06
-8.47357e-08
5.71439e-06
-8.07026e-08
5.72137e-06
-7.61272e-08
5.72697e-06
-7.13098e-08
5.73131e-06
-6.64404e-08
5.73447e-06
-6.16956e-08
5.7366e-06
-5.71699e-08
5.73782e-06
-5.29447e-08
5.73825e-06
-4.90851e-08
5.73804e-06
-4.56248e-08
5.73732e-06
-4.25363e-08
-4.002e-08
5.73645e-06
5.04926e-06
-9.08182e-08
5.08535e-06
-1.11455e-07
5.11207e-06
-1.09381e-07
5.1308e-06
-1.05523e-07
5.14193e-06
-9.9887e-08
5.14626e-06
-9.20847e-08
5.14494e-06
-8.34234e-08
5.13908e-06
-7.48511e-08
5.1297e-06
-6.67178e-08
5.11761e-06
-5.92114e-08
5.10353e-06
-5.23704e-08
5.08802e-06
-4.6212e-08
5.07155e-06
-4.07198e-08
5.05448e-06
-3.58799e-08
5.03709e-06
-3.16937e-08
5.01969e-06
-2.82341e-08
5.00266e-06
-2.55128e-08
-2.38304e-08
4.98645e-06
4.36573e-06
4.25428e-06
4.1449e-06
4.03938e-06
3.93949e-06
3.84741e-06
3.76398e-06
3.68913e-06
3.62242e-06
3.56321e-06
3.51083e-06
3.46461e-06
3.42389e-06
3.38801e-06
3.35632e-06
3.32808e-06
3.30256e-06
3.27873e-06
-8.26963e-09
8.25615e-09
-2.24333e-08
1.41541e-08
-3.78113e-08
1.53595e-08
-5.09106e-08
1.31021e-08
-5.65636e-08
5.63975e-09
-4.8701e-08
-7.8552e-09
-2.53861e-08
-2.33221e-08
1.09742e-08
-3.6358e-08
5.61929e-08
-4.52247e-08
1.0545e-07
-4.92587e-08
1.54289e-07
-4.88516e-08
1.99657e-07
-4.53711e-08
2.39528e-07
-3.98898e-08
2.72716e-07
-3.31892e-08
2.98481e-07
-2.57912e-08
3.16475e-07
-1.79903e-08
3.26366e-07
-9.92215e-09
3.27909e-07
-1.53285e-09
3.20821e-07
7.05912e-09
3.05353e-07
1.54808e-08
2.82013e-07
2.33107e-08
2.51848e-07
3.01723e-08
2.16169e-07
3.56548e-08
1.76861e-07
3.93033e-08
1.36177e-07
4.0661e-08
9.67627e-08
3.9396e-08
6.12874e-08
3.54555e-08
3.19848e-08
2.92771e-08
1.00773e-08
2.18895e-08
-4.53849e-09
1.45941e-08
-1.2729e-08
8.18244e-09
-1.50132e-08
2.27493e-09
-1.1209e-08
-3.79829e-09
-2.54413e-10
-1.09596e-08
1.93303e-08
-1.95663e-08
4.7659e-08
-2.83491e-08
8.13514e-08
-3.36676e-08
1.14348e-07
-3.30226e-08
1.41187e-07
-2.68221e-08
1.58394e-07
-1.72139e-08
1.65913e-07
-7.49993e-09
1.66497e-07
-5.42331e-10
1.63497e-07
3.01223e-09
1.60325e-07
3.26615e-09
1.58954e-07
1.36133e-09
1.54234e-07
4.87877e-09
1.36468e-07
1.76815e-08
9.81977e-08
3.84838e-08
3.3203e-08
6.47835e-08
-5.5516e-08
8.88983e-08
-1.63743e-07
1.08094e-07
-2.87479e-07
1.23815e-07
-4.24144e-07
1.36634e-07
-5.70407e-07
1.4624e-07
-7.19138e-07
1.48725e-07
-8.66285e-07
1.47086e-07
-1.0096e-06
1.43326e-07
-1.14644e-06
1.36796e-07
-1.27567e-06
1.29257e-07
-1.39619e-06
1.20507e-07
-1.50668e-06
1.10517e-07
-1.60765e-06
1.00961e-07
-1.70027e-06
9.26369e-08
-1.78541e-06
8.51378e-08
-1.86349e-06
7.8095e-08
-1.9353e-06
7.18071e-08
-2.0016e-06
6.63173e-08
-2.06307e-06
6.14692e-08
-2.12028e-06
5.7225e-08
-2.17376e-06
5.34803e-08
-2.22391e-06
5.01667e-08
-2.27111e-06
4.72045e-08
-2.31564e-06
4.45368e-08
-2.35774e-06
4.2106e-08
-2.39759e-06
3.98705e-08
-2.43537e-06
3.77914e-08
-2.4712e-06
3.58408e-08
-2.50518e-06
3.39938e-08
-2.53741e-06
3.22311e-08
-2.56793e-06
3.0538e-08
-2.59683e-06
2.89001e-08
-2.62412e-06
2.731e-08
-2.64988e-06
2.57558e-08
-2.6741e-06
2.42359e-08
-2.69684e-06
2.27398e-08
-2.71809e-06
2.12696e-08
-2.7379e-06
1.9813e-08
-2.75626e-06
1.83727e-08
-2.7732e-06
1.69379e-08
-2.78872e-06
1.55015e-08
-2.80279e-06
1.4063e-08
-2.8154e-06
1.26147e-08
-2.82654e-06
1.11467e-08
-2.83616e-06
9.65196e-09
-2.84426e-06
8.11665e-09
-2.85076e-06
6.53437e-09
-2.85562e-06
4.88862e-09
-2.85876e-06
3.17411e-09
-2.86014e-06
1.40364e-09
-2.85981e-06
-3.10245e-10
-2.85799e-06
-1.80782e-09
-2.85484e-06
-3.13487e-09
-2.85041e-06
-4.43031e-09
-2.84469e-06
-5.71153e-09
-2.83769e-06
-6.99405e-09
-2.82941e-06
-8.27632e-09
-2.81984e-06
-9.56104e-09
-2.80899e-06
-1.08446e-08
-2.79686e-06
-1.21284e-08
-2.78344e-06
-1.34079e-08
-2.76875e-06
-1.46851e-08
-2.75278e-06
-1.59539e-08
-2.73555e-06
-1.72178e-08
-2.71706e-06
-1.84688e-08
-2.69734e-06
-1.97128e-08
-2.67638e-06
-2.09393e-08
-2.65422e-06
-2.21566e-08
-2.63084e-06
-2.33522e-08
-2.6063e-06
-2.45368e-08
-2.58059e-06
-2.5696e-08
-2.55375e-06
-2.68422e-08
-2.52578e-06
-2.796e-08
-2.49673e-06
-2.9063e-08
-2.46659e-06
-3.01358e-08
-2.43542e-06
-3.11925e-08
-2.40322e-06
-3.22196e-08
-2.37002e-06
-3.32298e-08
-2.33584e-06
-3.42093e-08
-2.30073e-06
-3.51626e-08
-2.26469e-06
-3.60812e-08
-2.22777e-06
-3.69727e-08
-2.18997e-06
-3.78363e-08
-2.15135e-06
-3.86712e-08
-2.11195e-06
-3.94643e-08
-2.07182e-06
-4.02002e-08
-2.03102e-06
-4.08738e-08
-1.98961e-06
-4.14532e-08
-1.94752e-06
-4.21409e-08
-1.90467e-06
-4.29045e-08
-1.86121e-06
-4.35872e-08
-1.81712e-06
-4.42259e-08
-1.77244e-06
-4.48451e-08
-1.72714e-06
-4.54057e-08
-1.68131e-06
-4.59503e-08
-1.63491e-06
-4.64408e-08
-1.58801e-06
-4.69215e-08
-1.54056e-06
-4.73478e-08
-1.49263e-06
-4.77673e-08
-1.44425e-06
-4.81624e-08
-1.39547e-06
-4.85647e-08
-1.3463e-06
-4.89597e-08
-1.29677e-06
-4.93545e-08
-1.24686e-06
-4.97238e-08
-1.19662e-06
-5.00798e-08
-1.14605e-06
-5.0408e-08
-1.09519e-06
-5.07257e-08
-1.04403e-06
-5.1026e-08
-9.9261e-07
-5.13157e-08
-9.40906e-07
-5.1603e-08
-8.88939e-07
-5.18836e-08
-8.36698e-07
-5.21631e-08
-7.84198e-07
-5.24391e-08
-7.31432e-07
-5.27108e-08
-6.78419e-07
-5.29731e-08
-6.25158e-07
-5.32283e-08
-5.71665e-07
-5.34732e-08
-5.1794e-07
-5.37156e-08
-4.63988e-07
-5.39524e-08
-4.0981e-07
-5.41921e-08
-3.55406e-07
-5.44244e-08
-3.00791e-07
-5.46505e-08
-2.45989e-07
-5.48386e-08
-1.91075e-07
-5.49677e-08
-1.36151e-07
-5.49726e-08
-8.14278e-08
-5.47886e-08
-2.73201e-08
-5.41603e-08
2.55159e-08
-5.29068e-08
7.53982e-08
-4.99329e-08
1.21442e-07
-4.61043e-08
-2.09733e-08
1.42418e-07
-3.51955e-09
1.17532e-08
-9.75778e-09
2.03828e-08
-1.2658e-08
1.82233e-08
-4.94628e-09
5.39379e-09
1.83233e-08
-1.76537e-08
5.63013e-08
-4.58299e-08
1.04343e-07
-7.13724e-08
1.56826e-07
-8.88423e-08
2.08606e-07
-9.70098e-08
2.56479e-07
-9.71346e-08
2.98983e-07
-9.13636e-08
3.35461e-07
-8.18521e-08
3.65806e-07
-7.02467e-08
3.90244e-07
-5.76286e-08
4.09085e-07
-4.46471e-08
4.22747e-07
-3.16528e-08
4.3162e-07
-1.88128e-08
4.363e-07
-6.20968e-09
4.37148e-07
6.19308e-09
4.3412e-07
1.85105e-08
4.26709e-07
3.07045e-08
4.14345e-07
4.25352e-08
3.9642e-07
5.35648e-08
3.72577e-07
6.31383e-08
3.428e-07
7.04241e-08
3.07669e-07
7.45161e-08
2.68475e-07
7.46369e-08
2.27332e-07
7.04068e-08
1.87182e-07
6.2029e-08
1.51559e-07
5.02054e-08
1.23976e-07
3.57588e-08
1.0698e-07
1.92689e-08
1.02123e-07
1.06551e-09
1.09103e-07
-1.79387e-08
1.2614e-07
-3.6588e-08
1.48329e-07
-5.05489e-08
1.68678e-07
-5.40016e-08
1.8182e-07
-4.61813e-08
1.85776e-07
-3.07678e-08
1.80283e-07
-1.17261e-08
1.66573e-07
6.22175e-09
1.46404e-07
1.96653e-08
1.15161e-07
3.42718e-08
6.29499e-08
5.55566e-08
-1.96903e-08
8.40166e-08
-1.33926e-07
1.19197e-07
-2.72018e-07
1.55775e-07
-4.23629e-07
1.90136e-07
-5.80769e-07
2.21916e-07
-7.40428e-07
2.48589e-07
-9.00286e-07
2.6795e-07
-1.05657e-06
2.80112e-07
-1.20506e-06
2.85125e-07
-1.34197e-06
2.83134e-07
-1.46742e-06
2.74176e-07
-1.58038e-06
2.60026e-07
-1.68034e-06
2.43289e-07
-1.76873e-06
2.25181e-07
-1.84651e-06
2.07041e-07
-1.91529e-06
1.89289e-07
-1.97701e-06
1.72244e-07
-2.03277e-06
1.56724e-07
-2.08327e-06
1.4314e-07
-2.1294e-06
1.31271e-07
-2.17212e-06
1.2083e-07
-2.21202e-06
1.11707e-07
-2.24946e-06
1.03762e-07
-2.28479e-06
9.6803e-08
-2.31823e-06
9.06767e-08
-2.34998e-06
8.52334e-08
-2.38016e-06
8.03525e-08
-2.40888e-06
7.59273e-08
-2.4362e-06
7.18714e-08
-2.4622e-06
6.81123e-08
-2.48692e-06
6.45928e-08
-2.51038e-06
6.12653e-08
-2.53262e-06
5.80933e-08
-2.55367e-06
5.50466e-08
-2.57353e-06
5.21017e-08
-2.59222e-06
4.924e-08
-2.60976e-06
4.64457e-08
-2.62616e-06
4.37075e-08
-2.64141e-06
4.10142e-08
-2.65553e-06
3.83594e-08
-2.66852e-06
3.57346e-08
-2.68037e-06
3.31359e-08
-2.69111e-06
3.0555e-08
-2.70071e-06
2.7988e-08
-2.70921e-06
2.54258e-08
-2.71659e-06
2.28657e-08
-2.72283e-06
2.03017e-08
-2.72794e-06
1.77305e-08
-2.73193e-06
1.51483e-08
-2.73481e-06
1.25512e-08
-2.73661e-06
9.93869e-09
-2.73736e-06
7.31353e-09
-2.73713e-06
4.68228e-09
-2.736e-06
2.06252e-09
-2.73406e-06
-5.15374e-10
-2.73133e-06
-3.03018e-09
-2.7276e-06
-5.52343e-09
-2.7227e-06
-8.03315e-09
-2.71657e-06
-1.05508e-08
-2.70921e-06
-1.30733e-08
-2.70059e-06
-1.56025e-08
-2.69073e-06
-1.81375e-08
-2.67961e-06
-2.06761e-08
-2.66723e-06
-2.32165e-08
-2.6536e-06
-2.5755e-08
-2.63871e-06
-2.82895e-08
-2.62257e-06
-3.08158e-08
-2.60519e-06
-3.33313e-08
-2.58656e-06
-3.58318e-08
-2.56671e-06
-3.83141e-08
-2.54563e-06
-4.07747e-08
-2.52335e-06
-4.32097e-08
-2.49988e-06
-4.56168e-08
-2.47523e-06
-4.79913e-08
-2.44942e-06
-5.03326e-08
-2.42248e-06
-5.26347e-08
-2.39442e-06
-5.48992e-08
-2.36526e-06
-5.71188e-08
-2.33503e-06
-5.9297e-08
-2.30374e-06
-6.14261e-08
-2.27143e-06
-6.35114e-08
-2.23812e-06
-6.55453e-08
-2.20384e-06
-6.7534e-08
-2.16861e-06
-6.94677e-08
-2.13245e-06
-7.13487e-08
-2.0954e-06
-7.3167e-08
-2.05747e-06
-7.49305e-08
-2.0187e-06
-7.66354e-08
-1.97912e-06
-7.82873e-08
-1.93875e-06
-7.98736e-08
-1.89761e-06
-8.13929e-08
-1.85568e-06
-8.28339e-08
-1.81295e-06
-8.42103e-08
-1.76951e-06
-8.56058e-08
-1.72546e-06
-8.70057e-08
-1.68078e-06
-8.83413e-08
-1.63548e-06
-8.96168e-08
-1.58959e-06
-9.08319e-08
-1.5431e-06
-9.19726e-08
-1.49605e-06
-9.30553e-08
-1.44845e-06
-9.40719e-08
-1.40031e-06
-9.50321e-08
-1.35165e-06
-9.59324e-08
-1.30249e-06
-9.67913e-08
-1.25288e-06
-9.7624e-08
-1.20285e-06
-9.84463e-08
-1.15243e-06
-9.92582e-08
-1.10162e-06
-1.00047e-07
-1.05043e-06
-1.008e-07
-9.98892e-07
-1.0151e-07
-9.47025e-07
-1.02179e-07
-8.94851e-07
-1.02813e-07
-8.42379e-07
-1.0342e-07
-7.89625e-07
-1.04002e-07
-7.36593e-07
-1.04574e-07
-6.83292e-07
-1.05135e-07
-6.29718e-07
-1.05691e-07
-5.7588e-07
-1.06243e-07
-5.21775e-07
-1.06784e-07
-4.67418e-07
-1.07312e-07
-4.1281e-07
-1.07821e-07
-3.57963e-07
-1.08317e-07
-3.02879e-07
-1.088e-07
-2.47563e-07
-1.09282e-07
-1.92014e-07
-1.09758e-07
-1.36237e-07
-1.1023e-07
-8.02403e-08
-1.10678e-07
-2.40471e-08
-1.11074e-07
3.22986e-08
-1.11357e-07
8.87018e-08
-1.11427e-07
1.44957e-07
-1.11094e-07
2.00782e-07
-1.10042e-07
2.55521e-07
-1.07702e-07
3.08557e-07
-1.03029e-07
3.56527e-07
-9.41315e-08
-6.67727e-08
4.02299e-07
3.78229e-10
1.13626e-08
4.09157e-09
1.66619e-08
1.92244e-08
3.07124e-09
5.35406e-08
-2.89238e-08
1.05213e-07
-6.93338e-08
1.64296e-07
-1.04913e-07
2.20946e-07
-1.28025e-07
2.69736e-07
-1.37633e-07
3.09115e-07
-1.36391e-07
3.3984e-07
-1.2786e-07
3.63514e-07
-1.15042e-07
3.8168e-07
-1.00019e-07
3.95503e-07
-8.40769e-08
4.05806e-07
-6.79314e-08
4.13105e-07
-5.19565e-08
4.17786e-07
-3.63325e-08
4.20104e-07
-2.11417e-08
4.20322e-07
-6.42652e-09
4.18707e-07
7.79503e-09
4.15649e-07
2.15673e-08
4.11396e-07
3.49444e-08
4.06015e-07
4.7913e-08
3.99225e-07
6.03411e-08
3.90457e-07
7.19008e-08
3.78853e-07
8.20163e-08
3.63518e-07
8.98442e-08
3.43816e-07
9.43296e-08
3.19848e-07
9.43667e-08
2.9277e-07
8.91014e-08
2.64853e-07
7.81181e-08
2.39045e-07
6.15666e-08
2.18153e-07
4.01637e-08
2.03898e-07
1.53331e-08
1.96418e-07
-1.04538e-08
1.91724e-07
-3.18782e-08
1.82328e-07
-4.11576e-08
1.63788e-07
-3.54505e-08
1.35881e-07
-1.82807e-08
9.94074e-08
5.71606e-09
5.24738e-08
3.52017e-08
-1.04107e-08
6.91259e-08
-9.63813e-08
1.05654e-07
-2.07539e-07
1.45448e-07
-3.40504e-07
1.88541e-07
-4.88977e-07
2.32502e-07
-6.43909e-07
2.74149e-07
-7.98945e-07
3.10818e-07
-9.4918e-07
3.40398e-07
-1.08933e-06
3.62074e-07
-1.21626e-06
3.75544e-07
-1.32897e-06
3.80678e-07
-1.42691e-06
3.78057e-07
-1.51041e-06
3.68627e-07
-1.58093e-06
3.53655e-07
-1.6413e-06
3.34542e-07
-1.6942e-06
3.12924e-07
-1.74138e-06
2.9047e-07
-1.78446e-06
2.68253e-07
-1.82445e-06
2.47041e-07
-1.86236e-06
2.27203e-07
-1.89906e-06
2.08944e-07
-1.93481e-06
1.92477e-07
-1.96955e-06
1.77886e-07
-2.00329e-06
1.6502e-07
-2.03611e-06
1.53656e-07
-2.06802e-06
1.43614e-07
-2.09897e-06
1.34719e-07
-2.12895e-06
1.26792e-07
-2.15795e-06
1.19675e-07
-2.18594e-06
1.13228e-07
-2.21291e-06
1.07332e-07
-2.23886e-06
1.01883e-07
-2.26378e-06
9.6799e-08
-2.28767e-06
9.20081e-08
-2.31053e-06
8.74535e-08
-2.33235e-06
8.30893e-08
-2.35312e-06
7.88786e-08
-2.37286e-06
7.47919e-08
-2.39156e-06
7.08059e-08
-2.40922e-06
6.69021e-08
-2.42583e-06
6.30652e-08
-2.4414e-06
5.92834e-08
-2.45593e-06
5.55467e-08
-2.46942e-06
5.18474e-08
-2.48186e-06
4.81781e-08
-2.49325e-06
4.45336e-08
-2.50359e-06
4.0907e-08
-2.51289e-06
3.72929e-08
-2.52116e-06
3.36853e-08
-2.52838e-06
3.00773e-08
-2.53455e-06
2.64684e-08
-2.53967e-06
2.28536e-08
-2.54374e-06
1.92318e-08
-2.54677e-06
1.56007e-08
-2.54878e-06
1.19629e-08
-2.54976e-06
8.31983e-09
-2.54974e-06
4.67891e-09
-2.54871e-06
1.04592e-09
-2.54664e-06
-2.57164e-09
-2.54347e-06
-6.18591e-09
-2.53917e-06
-9.82437e-09
-2.5337e-06
-1.34991e-08
-2.52704e-06
-1.71987e-08
-2.5192e-06
-2.09175e-08
-2.51015e-06
-2.46515e-08
-2.49988e-06
-2.83975e-08
-2.48841e-06
-3.21511e-08
-2.47571e-06
-3.59088e-08
-2.4618e-06
-3.96654e-08
-2.44667e-06
-4.34171e-08
-2.43032e-06
-4.71577e-08
-2.41276e-06
-5.08835e-08
-2.394e-06
-5.45875e-08
-2.37404e-06
-5.8266e-08
-2.35289e-06
-6.19118e-08
-2.33057e-06
-6.55216e-08
-2.30709e-06
-6.9088e-08
-2.28246e-06
-7.26088e-08
-2.25671e-06
-7.60769e-08
-2.22985e-06
-7.94908e-08
-2.2019e-06
-8.28442e-08
-2.17288e-06
-8.6136e-08
-2.14281e-06
-8.93612e-08
-2.11172e-06
-9.25189e-08
-2.07963e-06
-9.56056e-08
-2.04657e-06
-9.86209e-08
-2.01255e-06
-1.01563e-07
-1.97761e-06
-1.04428e-07
-1.94176e-06
-1.07214e-07
-1.90504e-06
-1.09915e-07
-1.86745e-06
-1.12533e-07
-1.82904e-06
-1.15069e-07
-1.78983e-06
-1.17524e-07
-1.74984e-06
-1.19894e-07
-1.7091e-06
-1.22175e-07
-1.66759e-06
-1.24367e-07
-1.62534e-06
-1.26482e-07
-1.58241e-06
-1.28563e-07
-1.53886e-06
-1.30603e-07
-1.49469e-06
-1.32575e-07
-1.44991e-06
-1.34469e-07
-1.40454e-06
-1.36277e-07
-1.35859e-06
-1.37992e-07
-1.31207e-06
-1.39621e-07
-1.265e-06
-1.41164e-07
-1.2174e-06
-1.42624e-07
-1.16929e-06
-1.44006e-07
-1.12068e-06
-1.45326e-07
-1.07162e-06
-1.46603e-07
-1.02215e-06
-1.4786e-07
-9.72261e-07
-1.49088e-07
-9.21986e-07
-1.50278e-07
-8.71333e-07
-1.5141e-07
-8.20328e-07
-1.52481e-07
-7.68988e-07
-1.53487e-07
-7.17336e-07
-1.54441e-07
-6.65385e-07
-1.5535e-07
-6.13149e-07
-1.56223e-07
-5.60637e-07
-1.57072e-07
-5.07856e-07
-1.57908e-07
-4.54807e-07
-1.58731e-07
-4.01497e-07
-1.59549e-07
-3.47927e-07
-1.60349e-07
-2.94106e-07
-1.6113e-07
-2.4004e-07
-1.61884e-07
-1.85737e-07
-1.62618e-07
-1.31202e-07
-1.63334e-07
-7.64376e-08
-1.64044e-07
-2.14445e-08
-1.6475e-07
3.37774e-08
-1.65449e-07
8.92155e-08
-1.66114e-07
1.44846e-07
-1.66699e-07
2.00612e-07
-1.67118e-07
2.56424e-07
-1.67229e-07
3.12132e-07
-1.66795e-07
3.67515e-07
-1.65414e-07
4.222e-07
-1.6238e-07
4.75742e-07
-1.56561e-07
5.27187e-07
-1.45568e-07
-1.19604e-07
5.80042e-07
-9.46539e-11
1.14526e-08
1.34736e-08
3.09186e-09
5.43819e-08
-3.78392e-08
1.17331e-07
-9.18747e-08
1.84643e-07
-1.36646e-07
2.42236e-07
-1.62505e-07
2.84766e-07
-1.70555e-07
3.13319e-07
-1.66185e-07
3.31562e-07
-1.54635e-07
3.43161e-07
-1.3946e-07
3.50765e-07
-1.22649e-07
3.55953e-07
-1.05206e-07
3.59503e-07
-8.76324e-08
3.61762e-07
-7.019e-08
3.62829e-07
-5.30287e-08
3.62744e-07
-3.62474e-08
3.61512e-07
-1.99177e-08
3.59187e-07
-4.10047e-09
3.55824e-07
1.11481e-08
3.51587e-07
2.58041e-08
3.46674e-07
3.98457e-08
3.41346e-07
5.32392e-08
3.35759e-07
6.59159e-08
3.29945e-07
7.77121e-08
3.23647e-07
8.83029e-08
3.16367e-07
9.71198e-08
3.07365e-07
1.03323e-07
2.95932e-07
1.05799e-07
2.8166e-07
1.03368e-07
2.64696e-07
9.50862e-08
2.4594e-07
8.03269e-08
2.26755e-07
5.93603e-08
2.07739e-07
3.43658e-08
1.85548e-07
1.17465e-08
1.53095e-07
5.93376e-10
1.07179e-07
4.75704e-09
4.8809e-08
2.29344e-08
-2.27946e-08
5.33164e-08
-1.10303e-07
9.32348e-08
-2.14687e-07
1.39589e-07
-3.34712e-07
1.89156e-07
-4.68106e-07
2.39058e-07
-6.09941e-07
2.87289e-07
-7.53629e-07
3.32242e-07
-8.93047e-07
3.71926e-07
-1.02268e-06
4.03801e-07
-1.13858e-06
4.26723e-07
-1.23915e-06
4.40992e-07
-1.32394e-06
4.46875e-07
-1.39357e-06
4.4519e-07
-1.44988e-06
4.37001e-07
-1.49524e-06
4.23423e-07
-1.53233e-06
4.0573e-07
-1.56386e-06
3.85178e-07
-1.59224e-06
3.62921e-07
-1.6193e-06
3.39991e-07
-1.64612e-06
3.17287e-07
-1.6733e-06
2.95433e-07
-1.70108e-06
2.7482e-07
-1.72953e-06
2.55659e-07
-1.75864e-06
2.38052e-07
-1.7882e-06
2.22042e-07
-1.81793e-06
2.07615e-07
-1.84757e-06
1.94664e-07
-1.87694e-06
1.83036e-07
-1.9059e-06
1.72576e-07
-1.93431e-06
1.63131e-07
-1.96207e-06
1.54552e-07
-1.98909e-06
1.46705e-07
-2.01533e-06
1.39468e-07
-2.04073e-06
1.32733e-07
-2.06525e-06
1.26411e-07
-2.08887e-06
1.20424e-07
-2.11157e-06
1.14709e-07
-2.13332e-06
1.09212e-07
-2.15412e-06
1.03891e-07
-2.17394e-06
9.87132e-08
-2.1928e-06
9.36502e-08
-2.21067e-06
8.86806e-08
-2.22755e-06
8.37875e-08
-2.24344e-06
7.89569e-08
-2.25833e-06
7.41778e-08
-2.27222e-06
6.94411e-08
-2.28511e-06
6.47396e-08
-2.297e-06
6.00668e-08
-2.30788e-06
5.54169e-08
-2.31775e-06
5.07844e-08
-2.32661e-06
4.61633e-08
-2.33448e-06
4.15467e-08
-2.34134e-06
3.69319e-08
-2.34719e-06
3.23116e-08
-2.35202e-06
2.76849e-08
-2.35582e-06
2.30495e-08
-2.35861e-06
1.84024e-08
-2.36037e-06
1.37445e-08
-2.36111e-06
9.07442e-09
-2.36081e-06
4.39486e-09
-2.35946e-06
-2.95337e-10
-2.35702e-06
-4.99758e-09
-2.35348e-06
-9.72471e-09
-2.3488e-06
-1.44907e-08
-2.343e-06
-1.93004e-08
-2.33605e-06
-2.41457e-08
-2.32795e-06
-2.90202e-08
-2.31868e-06
-3.39182e-08
-2.30824e-06
-3.88342e-08
-2.29663e-06
-4.37628e-08
-2.28384e-06
-4.86978e-08
-2.26987e-06
-5.36335e-08
-2.25472e-06
-5.85634e-08
-2.23839e-06
-6.34808e-08
-2.22089e-06
-6.8379e-08
-2.20222e-06
-7.32505e-08
-2.18239e-06
-7.80887e-08
-2.16141e-06
-8.2885e-08
-2.13929e-06
-8.76343e-08
-2.11604e-06