/*--------------------------------*- C++ -*----------------------------------*\
  =========                 |
  \\      /  F ield         | OpenFOAM: The Open Source CFD Toolbox
   \\    /   O peration     | Website:  https://openfoam.org
    \\  /    A nd           | Version:  8
     \\/     M anipulation  |
\*---------------------------------------------------------------------------*/
FoamFile
{
    version     2.0;
    format      ascii;
    class       volVectorField;
    location    "1900";
    object      wallShearStress;
}
// * * * * * * * * * * * * * * * * * * * * * * * * * * * * * * * * * * * * * //

dimensions      [0 2 -2 0 0 0 0];

internalField   uniform (0 0 0);

boundaryField
{
    inlet
    {
        type            calculated;
        value           uniform (0 0 0);
    }
    outlet
    {
        type            calculated;
        value           uniform (0 0 0);
    }
    upperWall
    {
        type            calculated;
        value           nonuniform List<vector> 
223
(
(-0.450817 0.00307881 0)
(-0.489006 0.00566346 0)
(-0.505176 0.00685348 0)
(-0.506869 0.00730709 0)
(-0.501361 0.00730898 0)
(-0.490694 0.00697178 0)
(-0.478721 0.00647255 0)
(-0.466519 0.00590297 0)
(-0.454064 0.0053049 0)
(-0.44236 0.00472564 0)
(-0.431621 0.00418292 0)
(-0.421892 0.00368426 0)
(-0.413173 0.00323202 0)
(-0.405396 0.00282708 0)
(-0.398486 0.00246905 0)
(-0.392346 0.00216702 0)
(-0.386842 0.00192448 0)
(-0.381932 0.00178153 0)
(-0.377989 0.00170475 0)
(-0.374878 0.0016583 5.75151e-22)
(-0.371835 0.00159145 0)
(-0.368874 0.00151252 0)
(-0.365993 0.00142788 0)
(-0.363197 0.0013401 5.87648e-22)
(-0.360491 0.00125242 0)
(-0.357876 0.00116522 0)
(-0.355355 0.00108077 0)
(-0.352924 0.000998623 -1.19752e-21)
(-0.350587 0.000920016 1.2028e-21)
(-0.34834 0.000844545 1.20797e-21)
(-0.346183 0.000773157 0)
(-0.344115 0.00070515 -1.21805e-21)
(-0.342133 0.000641494 0)
(-0.340234 0.000581469 1.22782e-21)
(-0.338416 0.000525536 1.2326e-21)
(-0.336677 0.000473564 -1.23732e-21)
(-0.335013 0.000425733 0)
(-0.33342 0.000381839 0)
(-0.331894 0.000341596 0)
(-0.330432 0.000304851 0)
(-0.329032 0.000271457 -1.26043e-21)
(-0.32769 0.000241165 0)
(-0.326402 0.000213623 0)
(-0.325167 0.000188743 1.27412e-21)
(-0.323981 0.000166196 0)
(-0.322845 0.000145765 1.28329e-21)
(-0.321753 0.000127336 -1.28791e-21)
(-0.320707 0.000110865 1.29255e-21)
(-0.319701 9.65144e-05 0)
(-0.318736 8.40431e-05 0)
(-0.317806 7.36947e-05 0)
(-0.316913 6.52112e-05 1.31148e-21)
(-0.316047 5.8747e-05 -1.31632e-21)
(-0.315215 5.41809e-05 0)
(-0.314403 5.15147e-05 0)
(-0.313618 5.05004e-05 0)
(-0.312848 5.13028e-05 0)
(-0.3121 5.3532e-05 0)
(-0.311357 5.72911e-05 0)
(-0.310636 6.23937e-05 0)
(-0.309906 6.87603e-05 0)
(-0.309205 7.62e-05 1.36225e-21)
(-0.308475 8.49535e-05 -1.36757e-21)
(-0.307777 9.49182e-05 0)
(-0.307052 0.000105268 0)
(-0.306323 0.000118457 0)
(-0.30559 0.000130421 -1.38981e-21)
(-0.304888 7.72759e-05 0)
(-0.304028 0.000122827 0)
(-0.304089 0.000298434 0)
(-0.304474 0.000389333 0)
(-0.302846 0.000518709 0)
(-0.308303 0.00064241 -2.93174e-21)
(-0.305601 0.000502361 0)
(-0.307119 0.000315057 0)
(-0.303359 0.000271333 0)
(-0.304709 0.000263592 0)
(-0.301192 0.000206703 0)
(-0.300737 0.000119053 0)
(-0.303184 3.95454e-05 0)
(-0.299115 1.70688e-05 2.98641e-21)
(-0.316185 1.95555e-05 0)
(-0.360531 -8.10219e-05 0)
(-0.37026 0.000306559 0)
(-0.343382 0.000849377 -3.41454e-21)
(-0.330212 0.000920665 0)
(-0.313026 0.000661136 -3.11586e-21)
(-0.306728 0.000817542 0)
(-0.304254 0.000885973 0)
(-0.310664 0.000429036 0)
(-0.317658 0.000110217 -3.25258e-21)
(-0.296497 -0.000169478 0)
(-0.349806 -0.000235827 3.64957e-21)
(-0.329275 -6.78539e-05 3.45284e-21)
(-0.353174 0.000330398 0)
(-0.330807 0.00047759 3.48408e-21)
(-0.31476 0.000479075 0)
(-0.303546 0.000322663 0)
(-0.294912 -2.87255e-07 0)
(-0.316051 -5.84897e-06 -3.38677e-21)
(-0.352815 0.000312098 0)
(-0.327793 0.00108649 -3.50249e-21)
(-0.302813 0.00110514 3.21044e-21)
(-0.308641 0.000624992 0)
(-0.292484 0.000185894 0)
(-0.341631 0.000189226 0)
(-0.320455 0.000924122 0)
(-0.295051 0.00086741 0)
(-0.299434 0.000245625 0)
(-0.290261 -1.8153e-05 0)
(-0.31476 -6.50774e-05 -3.4112e-21)
(-0.349695 -5.30747e-06 0)
(-0.319274 4.54312e-05 0)
(-0.315912 -7.47505e-06 0)
(-0.343968 0.000289558 0)
(-0.313073 0.000578616 0)
(-0.313739 0.000430758 0)
(-0.334003 0.00103269 0)
(-0.303697 0.00116257 0)
(-0.283622 0.000486472 0)
(-0.333118 0.000330851 0)
(-0.301064 0.000248922 0)
(-0.306877 0.000253637 0)
(-0.310999 0.000309656 -6.24648e-21)
(-0.300722 0.000412324 0)
(-0.319027 0.000342897 0)
(-0.315425 0.000945533 0)
(-0.291908 0.00156222 5.48307e-21)
(-0.274724 0.00140434 0)
(-0.273524 0.000957373 0)
(-0.272668 0.000246051 4.84535e-21)
(-0.285981 -3.96505e-06 0)
(-0.284761 0.000108494 -4.87409e-21)
(-0.292354 0.000932164 0)
(-0.267673 0.00105573 0)
(-0.293472 0.00126986 0)
(-0.265236 0.00110221 3.96817e-21)
(-0.293335 0.00113105 0)
(-0.262688 0.000915553 -3.62538e-21)
(-0.289377 0.000903462 0)
(-0.259933 0.000751271 0)
(-0.282904 0.000879804 0)
(-0.256836 0.00125593 0)
(-0.255162 0.00049646 0)
(-0.264613 -9.08438e-05 0)
(-0.265893 0.000434764 0)
(-0.249981 0.000628684 0)
(-0.25254 0.000755673 0)
(-0.246507 0.00110192 0)
(-0.244817 0.00125751 0)
(-0.243113 0.00216585 -1.01218e-21)
(-0.241532 0.00244938 7.26904e-22)
(-0.239708 0.00136867 0)
(-0.237989 -0.000170077 0)
(-0.238378 -0.000927199 0)
(-0.233323 -0.00065075 0)
(-0.229736 -0.00023972 -8.57359e-22)
(-0.226139 0.000141453 1.21213e-21)
(-0.222664 0.000834605 -1.56865e-21)
(-0.227155 0.00165966 0)
(-0.220511 0.000908451 -2.20974e-21)
(-0.217984 5.13261e-05 -5.41315e-21)
(-0.21622 -5.14454e-05 0)
(-0.213289 0.000925135 -7.07801e-21)
(-0.213487 0.00174119 7.59533e-21)
(-0.21207 0.00163944 0)
(-0.211393 0.000691749 0)
(-0.208638 -0.000839257 0)
(-0.204617 0.000814957 0)
(-0.203774 0.00189857 0)
(-0.20765 0.000768772 -1.3937e-20)
(-0.198299 5.99103e-05 0)
(-0.195516 0.00115356 -1.60765e-20)
(-0.201178 0.00129997 0)
(-0.192007 0.000283775 0)
(-0.188569 0.000374677 0)
(-0.184986 -0.000124176 0)
(-0.179824 7.29785e-05 0)
(-0.178973 0.00176605 2.42037e-20)
(-0.18105 0.00198525 0)
(-0.180469 0.00122105 0)
(-0.177705 0.000741429 -2.77977e-20)
(-0.173186 0.000505451 0)
(-0.168413 0.000448498 0)
(-0.164966 0.000602936 0)
(-0.163304 0.000618669 3.55258e-20)
(-0.161328 0.000429278 0)
(-0.157583 0.000363877 0)
(-0.151519 0.000332386 0)
(-0.142108 0.00061938 0)
(-0.129941 0.00111156 -5.60083e-20)
(-0.115961 0.0015973 0)
(-0.102131 0.00181005 0)
(-0.0893233 0.00171526 0)
(-0.0788935 0.00150684 9.51551e-20)
(-0.0679487 0.00136221 0)
(-0.0627709 0.00173372 0)
(-0.0341165 0.00142422 -1.41474e-19)
(-0.066805 0.00036112 0)
(-0.10066 0.00569365 1.20071e-17)
(-0.123845 0.0100796 2.15535e-17)
(-0.136169 0.0126466 2.02632e-17)
(-0.143474 0.0140425 1.94798e-17)
(-0.148965 0.014907 1.88508e-17)
(-0.153291 0.0155164 -1.8321e-17)
(-0.156385 0.0159577 -1.78353e-17)
(-0.15879 0.0162606 -6.01853e-36)
(-0.16096 0.0164995 -3.40404e-17)
(-0.163148 0.0167141 -1.66269e-17)
(-0.165381 0.0169234 7.70372e-34)
(-0.167895 0.0171377 1.20371e-35)
(-0.170887 0.017385 -3.05583e-17)
(-0.174433 0.0176852 -2.93995e-17)
(-0.178692 0.0180447 -2.80639e-17)
(-0.183593 0.0184786 0)
(-0.189319 0.0189773 4.94978e-17)
(-0.195814 0.0195656 2.26956e-17)
(-0.203133 0.0202175 1.20371e-35)
(-0.211782 0.0210028 -3.53878e-17)
(-0.220216 0.021784 -1.22627e-20)
(-0.233705 0.0229489 -3.00927e-36)
(-0.238172 0.0236782 1.33616e-17)
(-0.263743 0.0252441 -7.10455e-18)
)
;
    }
    lowerWall
    {
        type            calculated;
        value           nonuniform List<vector> 
250
(
(-0.625207 -0.00604132 0)
(-0.648457 -0.0111505 0)
(-0.596838 -0.0121954 0)
(-0.577817 -0.0122138 0)
(-0.529176 -0.00931266 0)
(-0.516265 -0.00634684 0)
(-0.487247 -0.00575792 0)
(-0.473624 -0.00530126 0)
(-0.463429 -0.00343045 0)
(-0.454977 -0.00233271 0)
(-0.447553 -0.00175459 0)
(-0.441684 -0.00151589 0)
(-0.462033 -0.000857251 0)
(-0.478975 -9.50906e-05 0)
(-0.46066 0.000352423 0)
(-0.486968 0.000133456 0)
(-0.50936 6.82136e-05 0)
(-0.510989 0.00020868 0)
(0.00209025 0.000123237 0)
(0.00231211 -0.00270454 0)
(0.00255164 -0.00561945 0)
(0.0028363 -0.00868249 1.14315e-19)
(0.00311047 -0.011629 -9.63075e-20)
(0.00334653 -0.0152183 8.42575e-20)
(0.00292301 -0.0149087 -7.61248e-20)
(0.00925588 -0.0338699 0)
(-0.0521201 -0.123949 0)
(0.000224427 -0.000275054 0)
(6.17893e-05 -0.000790254 0)
(-5.24084e-06 -0.000878594 0)
(5.49322e-05 -0.000879764 0)
(2.91442e-05 -0.000841593 1.5273e-19)
(-0.000148354 -0.000265213 -1.48154e-19)
(-0.000587062 0.00119015 0)
(-0.00118168 0.00390465 -1.69804e-19)
(-0.00155201 0.00733982 1.30128e-19)
(-0.00149084 0.0105665 0)
(-0.00109491 0.0129353 0)
(-0.000561838 0.0141654 0)
(-5.25113e-05 0.0142354 0)
(0.000349535 0.0133408 0)
(0.000683269 0.0117588 0)
(0.00100737 0.00953905 0)
(0.00136075 0.00672178 0)
(0.00175687 0.00335654 0)
(-0.000142569 -0.000278501 0)
(0.000170691 -0.000448275 0)
(0.000482261 -0.000498762 0)
(0.000802311 -0.000425966 0)
(0.00105436 -0.000188297 -0)
(0.00109417 0.00020252 -0)
(0.000840257 0.000670047 1.44179e-20)
(0.000320528 0.00110689 -1.61585e-20)
(-0.000395792 0.00142268 0)
(-0.00121464 0.00157941 -9.1702e-21)
(-0.00205661 0.00159053 0)
(-0.00285769 0.00148707 0)
(-0.00357332 0.00130552 0)
(-0.00417902 0.00107636 4.53074e-21)
(-0.00466363 0.000820396 0)
(-0.00502313 0.000549164 0)
(-0.00525518 0.000270884 -3.93146e-21)
(-0.00536418 -2.04128e-05 -0)
(-0.00532585 -0.000322449 0)
(-0.00513803 -0.000614568 -0)
(-0.00480943 -0.000876717 4.22748e-21)
(-0.00435148 -0.00108896 -0)
(-0.00378212 -0.00123028 5.0005e-21)
(-0.00312815 -0.00128148 0)
(-0.00242711 -0.00122798 -0)
(-0.00172731 -0.0010661 8.10993e-21)
(-0.00108582 -0.000810545 0)
(-0.000560496 -0.000503525 -1.34854e-20)
(-0.00018779 -0.000216052 0)
(4.61802e-05 -1.50041e-05 2.31941e-20)
(0.000194908 0.00010315 0)
(0.000283121 0.000200121 0)
(0.000281872 0.000312605 0)
(0.000176765 0.000461109 0)
(-6.14614e-05 0.000656292 0)
(-0.0004596 0.000862727 -1.54673e-20)
(-0.00100285 0.00100751 0)
(-0.00160901 0.00101691 1.80953e-20)
(-0.00216179 0.000875086 0)
(-0.00256161 0.000626203 -1.42204e-20)
(-0.00276541 0.000355863 0)
(-0.00280174 0.000138708 0)
(-0.00272608 1.81423e-05 1.39075e-20)
(-0.00260875 1.834e-05 0)
(-0.00251395 0.000139736 1.43274e-20)
(-0.00245485 0.000331127 -1.43923e-20)
(-0.00238032 0.000451191 0)
(-0.00215584 0.000258148 -1.55953e-20)
(-0.00152901 -0.000386268 -1.82235e-20)
(-0.000253063 -0.00112391 0)
(0.00148837 -0.00177568 0)
(0.003392 -0.00244831 0)
(0.00557121 -0.00313168 0)
(0.00803532 -0.00367343 -0)
(0.0106341 -0.00378295 3.56051e-21)
(0.0131774 -0.00374205 0)
(0.0156091 -0.00371027 -2.72858e-21)
(0.0180166 -0.00360704 -0)
(0.0202426 -0.00346865 -0)
(0.0232457 -0.00337663 2.19008e-21)
(0.0259337 -0.00311457 0)
(0.0261542 -0.00261912 -1.90361e-21)
(0.0291998 -0.00251243 -0)
(0.0310539 -0.00232985 0)
(0.0332754 -0.00217161 -0)
(0.0353122 -0.0020184 1.80947e-21)
(0.0372238 -0.00188299 0)
(0.0391029 -0.00176274 -0)
(0.0408753 -0.00165519 1.76226e-21)
(0.0426052 -0.00156013 0)
(0.0442642 -0.00147503 1.74155e-21)
(0.0458801 -0.00139868 0)
(0.0474424 -0.00132936 0)
(0.0489657 -0.00126592 0)
(0.0504445 -0.0012071 -1.71057e-21)
(0.0518873 -0.00115215 -0)
(0.0532913 -0.00110017 0)
(0.0546604 -0.00105059 -1.69059e-21)
(0.0559934 -0.00100297 -1.68389e-21)
(0.0572922 -0.000956886 -0)
(0.0585561 -0.000911991 -1.67005e-21)
(0.0597851 -0.00086815 0)
(0.0609796 -0.000825094 -3.31036e-21)
(0.0621385 -0.000782637 -0)
(0.0632619 -0.000740631 -3.27777e-21)
(0.0643488 -0.000698975 -0)
(0.065399 -0.00065738 3.24173e-21)
(0.066411 -0.000615933 0)
(0.0673852 -0.000574292 0)
(0.0683194 -0.00053212 0)
(0.0692124 -0.000489294 -3.15676e-21)
(0.0700626 -0.000445482 -0)
(0.0708678 -0.000400507 3.10678e-21)
(0.0716266 -0.000354104 0)
(0.0723367 -0.000305724 -3.05145e-21)
(0.072995 -0.000255292 -3.02177e-21)
(0.0735996 -0.000202839 -2.99077e-21)
(0.0741483 -0.000149026 -0)
(0.07464 -9.56018e-05 0)
(0.075075 -4.67218e-05 0)
(0.0754595 -6.24528e-06 0)
(0.0757974 2.9426e-05 0)
(0.07609 6.46299e-05 0)
(0.0763367 9.92986e-05 0)
(0.0765371 0.000133921 0)
(0.0766907 0.000168454 2.64391e-21)
(0.0767967 0.000202916 2.59606e-21)
(0.076855 0.000237241 0)
(0.0768648 0.000271421 0)
(0.0768259 0.000305329 0)
(0.076738 0.000338971 2.38351e-21)
(0.076601 0.000372229 0)
(0.0764148 0.000405103 0)
(0.0761795 0.000437435 0)
(0.0758954 0.000469308 0)
(0.0755622 0.000500483 -2.06639e-21)
(0.0751809 0.000531134 0)
(0.074751 0.000560943 0)
(0.0742742 0.000590057 1.84661e-21)
(0.0737502 0.000618315 -1.76824e-21)
(0.07318 0.000645834 0)
(0.0725642 0.000672347 -1.60367e-21)
(0.0719036 0.000698127 0)
(0.0711988 0.000722804 1.42856e-21)
(0.0704512 0.000746781 0)
(0.0696604 0.000769752 0)
(0.0688284 0.000791938 0)
(0.0679584 0.000813179 0)
(0.0670535 0.000833349 0)
(0.0661139 0.000852231 -1.67806e-21)
(0.0651256 0.000869892 -1.46222e-21)
(0.0641141 0.000886693 0)
(0.0630607 0.000901854 0)
(0.0619813 0.000914113 0)
(0.0608728 0.000921525 5.42429e-22)
(0.0597387 0.000920732 0)
(0.0585792 0.000910653 0)
(0.0573878 0.000911005 0)
(0.0561685 0.000923981 -4.75245e-22)
(0.0549205 0.000934179 7.47273e-22)
(0.0536485 0.000943444 0)
(0.0523533 0.000952091 0)
(0.0510352 0.000959625 1.61132e-21)
(0.0496965 0.000966708 1.91682e-21)
(0.0483372 0.000972771 0)
(0.0469601 0.000978704 0)
(0.0455639 0.000983921 -2.89396e-21)
(0.0441518 0.000989048 3.24221e-21)
(0.0427253 0.000993758 0)
(0.0412867 0.000998704 0)
(0.0398352 0.00100363 4.36464e-21)
(0.0383737 0.00100879 0)
(0.0368994 0.00101356 0)
(0.0354178 0.00101848 5.62369e-21)
(0.0339247 0.00102296 0)
(0.032427 0.00102774 6.55587e-21)
(0.0309194 0.00103231 0)
(0.0294081 0.00103728 0)
(0.0278903 0.00104254 0)
(0.0263679 0.00104813 -8.70465e-21)
(0.0248403 0.00105415 0)
(0.023308 0.00106056 0)
(0.0217711 0.00106735 0)
(0.0202299 0.00107451 0)
(0.0186849 0.00108206 0)
(0.0171364 0.00109006 0)
(0.0155848 0.00109868 -1.38555e-20)
(0.0140302 0.00110798 -1.48091e-20)
(0.0124727 0.0011181 0)
(0.0109121 0.00112902 0)
(0.00934846 0.00114071 0)
(0.00778224 0.00115284 1.95026e-20)
(0.00621437 0.00116555 0)
(0.0046467 0.00117774 -4.51701e-20)
(0.00308343 0.00118671 4.87676e-20)
(0.00153379 0.00118705 5.27863e-20)
(8.95228e-07 0.0011558 -5.52861e-20)
(-0.00142297 0.00108868 5.44096e-20)
(-0.00299805 0.000918326 -5.23814e-20)
(-0.00336484 0.000522313 0)
(-0.00539183 0.0011165 -3.11826e-18)
(-0.00855441 0.00088154 -2.825e-18)
(-0.0116936 0.000528376 0)
(-0.0149189 0.000197419 -4.80498e-18)
(-0.0183494 -0.000148665 -8.93728e-18)
(-0.0219901 -0.000513718 -4.17123e-18)
(-0.0258488 -0.000898018 3.90397e-18)
(-0.0299497 -0.00130584 1.20371e-35)
(-0.0343162 -0.00173969 0)
(-0.0389622 -0.00220493 3.23311e-18)
(-0.0439064 -0.00269298 3.04114e-18)
(-0.0491648 -0.00318007 3.00927e-36)
(-0.0547535 -0.00370286 0)
(-0.0607316 -0.00430083 0)
(-0.0671519 -0.00495747 -4.65026e-35)
(-0.0740219 -0.005666 -3.70046e-35)
(-0.08149 -0.00642934 3.61112e-35)
(-0.0894165 -0.00725244 -3.77295e-18)
(-0.0983638 -0.00814609 -3.4368e-18)
(-0.107414 -0.00911294 1.20371e-35)
(-0.118928 -0.0101759 5.40504e-18)
(-0.128485 -0.0113426 8.9703e-18)
(-0.145807 -0.0125723 0)
(-0.153265 -0.0140798 -4.32566e-18)
(-0.187649 -0.0164203 -2.10649e-35)
)
;
    }
    frontAndBack
    {
        type            empty;
    }
}


// ************************************************************************* //
