/*--------------------------------*- C++ -*----------------------------------*\
  =========                 |
  \\      /  F ield         | OpenFOAM: The Open Source CFD Toolbox
   \\    /   O peration     | Website:  https://openfoam.org
    \\  /    A nd           | Version:  8
     \\/     M anipulation  |
\*---------------------------------------------------------------------------*/
FoamFile
{
    version     2.0;
    format      ascii;
    class       volVectorField;
    location    "461";
    object      wallShearStress;
}
// * * * * * * * * * * * * * * * * * * * * * * * * * * * * * * * * * * * * * //

dimensions      [0 2 -2 0 0 0 0];

internalField   uniform (0 0 0);

boundaryField
{
    inlet
    {
        type            calculated;
        value           uniform (0 0 0);
    }
    outlet
    {
        type            calculated;
        value           uniform (0 0 0);
    }
    upperWall
    {
        type            calculated;
        value           nonuniform List<vector> 
223
(
(-0.442435 -0.0385673 0)
(-0.444903 -0.0344908 0)
(-0.441294 -0.0215286 0)
(-0.435487 -0.0121772 0)
(-0.429514 -0.0065286 0)
(-0.424092 -0.00329706 0)
(-0.419301 -0.00147221 0)
(-0.415075 -0.000436523 0)
(-0.411345 0.000154463 0)
(-0.408057 0.00049333 0)
(-0.40514 0.000686312 0)
(-0.402538 0.000795481 0)
(-0.400198 0.000854847 0)
(-0.398087 0.000886252 0)
(-0.396166 0.000900863 0)
(-0.394411 0.000909675 0)
(-0.392787 0.000919839 0)
(-0.39128 0.000964438 0)
(-0.390131 0.00103617 0)
(-0.389334 0.00109542 3.82709e-22)
(-0.388545 0.00112091 0)
(-0.387779 0.00112291 0)
(-0.387036 0.00111026 0)
(-0.386319 0.00108887 3.93917e-22)
(-0.38563 0.00106276 0)
(-0.384971 0.0010349 0)
(-0.384339 0.00100716 0)
(-0.383734 0.00098058 -8.08475e-22)
(-0.383154 0.000955876 8.13541e-22)
(-0.382597 0.000933421 8.18593e-22)
(-0.382061 0.000913226 0)
(-0.381546 0.000895373 -8.28656e-22)
(-0.381048 0.000879718 0)
(-0.380568 0.000865995 8.38685e-22)
(-0.380103 0.000854192 8.43691e-22)
(-0.379652 0.000843888 -8.48699e-22)
(-0.379215 0.000834889 0)
(-0.37879 0.000827174 0)
(-0.378376 0.000820338 0)
(-0.377973 0.000814217 0)
(-0.377579 0.00080877 -8.73777e-22)
(-0.377194 0.000803745 0)
(-0.376817 0.000799034 0)
(-0.376447 0.000794536 8.88901e-22)
(-0.376085 0.000790063 0)
(-0.375729 0.000785698 8.99022e-22)
(-0.375378 0.000781288 -9.04096e-22)
(-0.375034 0.000776728 9.09185e-22)
(-0.374695 0.000772143 0)
(-0.374359 0.000767366 0)
(-0.374029 0.000762332 0)
(-0.373702 0.000757185 9.29619e-22)
(-0.373379 0.000751879 -9.34749e-22)
(-0.373059 0.000746371 0)
(-0.372742 0.000740726 0)
(-0.372428 0.000734911 0)
(-0.372116 0.00072895 0)
(-0.371806 0.000722864 0)
(-0.371498 0.000716772 0)
(-0.371191 0.000710606 0)
(-0.370885 0.000704347 0)
(-0.37058 0.000698117 9.81019e-22)
(-0.370276 0.000691898 -9.86132e-22)
(-0.369973 0.000685763 0)
(-0.369669 0.000679735 0)
(-0.369364 0.000673793 0)
(-0.369059 0.000667923 -1.00635e-21)
(-0.368754 0.000662234 0)
(-0.368447 0.000656792 0)
(-0.368138 0.000651487 0)
(-0.367827 0.000646383 0)
(-0.367514 0.000641582 0)
(-0.367198 0.000637016 -2.07081e-21)
(-0.36688 0.0006327 0)
(-0.366558 0.000628693 0)
(-0.366232 0.000624999 0)
(-0.365902 0.000621632 0)
(-0.365567 0.000618558 0)
(-0.365228 0.000615827 0)
(-0.364883 0.000613441 0)
(-0.364532 0.000611405 2.13835e-21)
(-0.364174 0.000609722 0)
(-0.363809 0.000608394 0)
(-0.363437 0.00060742 0)
(-0.363058 0.000606801 -2.16479e-21)
(-0.362669 0.000606569 0)
(-0.362271 0.000606649 -2.17542e-21)
(-0.361865 0.000607073 0)
(-0.361447 0.000607875 0)
(-0.36102 0.000609011 0)
(-0.36058 0.000610509 -2.19015e-21)
(-0.360129 0.000612325 0)
(-0.359665 0.000614487 2.19367e-21)
(-0.359188 0.00061695 2.19432e-21)
(-0.358697 0.000619703 0)
(-0.358191 0.000622738 2.19321e-21)
(-0.35767 0.000626074 0)
(-0.357133 0.000629737 0)
(-0.356579 0.000633608 0)
(-0.356009 0.000637711 -2.18e-21)
(-0.35542 0.000642103 0)
(-0.354812 0.000646697 -2.16712e-21)
(-0.354185 0.000651479 2.15893e-21)
(-0.353537 0.000656474 0)
(-0.352869 0.000661625 0)
(-0.352179 0.000666924 0)
(-0.351468 0.00067238 0)
(-0.350732 0.000677954 0)
(-0.349974 0.000683619 0)
(-0.349191 0.000689404 0)
(-0.348382 0.000695216 -2.04395e-21)
(-0.347549 0.000701085 0)
(-0.346689 0.000706976 0)
(-0.345802 0.000712893 0)
(-0.344887 0.000718776 0)
(-0.343945 0.000724643 0)
(-0.342974 0.000730474 0)
(-0.341974 0.000736202 0)
(-0.340944 0.000741835 0)
(-0.339884 0.000747365 0)
(-0.338794 0.000752798 0)
(-0.337672 0.000758071 0)
(-0.33652 0.000763161 0)
(-0.335336 0.000768094 -3.21783e-21)
(-0.33412 0.000772786 0)
(-0.332872 0.000777273 0)
(-0.331592 0.000781546 0)
(-0.330279 0.000785536 2.79072e-21)
(-0.328934 0.000789239 0)
(-0.327556 0.00079269 0)
(-0.326147 0.000795837 2.41243e-21)
(-0.324704 0.000798629 0)
(-0.32323 0.000800962 -2.13087e-21)
(-0.321724 0.000803 0)
(-0.320188 0.000804869 0)
(-0.31862 0.000806495 0)
(-0.317021 0.00080802 1.49313e-21)
(-0.315391 0.000808624 0)
(-0.313728 0.000808528 -1.13546e-21)
(-0.312036 0.000808212 0)
(-0.310314 0.000807741 0)
(-0.308564 0.00080691 0)
(-0.306785 0.000808707 0)
(-0.304983 0.000803417 0)
(-0.30315 0.000801214 0)
(-0.301296 0.000800286 0)
(-0.299414 0.000796427 0)
(-0.297514 0.000796373 0)
(-0.29559 0.000791374 0)
(-0.293646 0.000787373 0)
(-0.291683 0.00078238 1.60102e-21)
(-0.289702 0.000777355 -1.87722e-21)
(-0.287705 0.000772083 0)
(-0.285693 0.000766444 0)
(-0.283667 0.000760517 0)
(-0.28163 0.000754338 0)
(-0.279582 0.000747761 -3.37472e-21)
(-0.277525 0.000740805 3.69784e-21)
(-0.27546 0.00073351 -4.02891e-21)
(-0.27339 0.000725945 0)
(-0.271316 0.000718187 -4.71504e-21)
(-0.26924 0.000710286 -1.01404e-20)
(-0.267162 0.000702292 0)
(-0.265084 0.00069418 -1.16097e-20)
(-0.263005 0.000686085 1.23689e-20)
(-0.260928 0.000677922 0)
(-0.258851 0.000669904 0)
(-0.256777 0.000661837 0)
(-0.254703 0.000654098 0)
(-0.252631 0.000646386 0)
(-0.25056 0.000639082 -1.7283e-20)
(-0.24849 0.000631922 0)
(-0.24642 0.000625275 -1.90657e-20)
(-0.24435 0.000618956 0)
(-0.242277 0.000613275 0)
(-0.240202 0.00060814 0)
(-0.238119 0.000603869 0)
(-0.236029 0.000600262 0)
(-0.233926 0.000597711 2.49163e-20)
(-0.231809 0.000596184 0)
(-0.229669 0.000596161 0)
(-0.227502 0.000597617 -2.81857e-20)
(-0.225297 0.000601005 0)
(-0.223048 0.000606254 0)
(-0.220742 0.00061406 0)
(-0.218367 0.000624537 3.30527e-20)
(-0.215906 0.000638662 0)
(-0.213342 0.000656691 0)
(-0.210647 0.0006802 0)
(-0.207795 0.000709761 0)
(-0.204743 0.000748384 -4.04485e-20)
(-0.201437 0.000797814 0)
(-0.197821 0.000865505 0)
(-0.193703 0.000957332 0)
(-0.189177 0.00110623 4.85477e-20)
(-0.182919 0.00133122 0)
(-0.17729 0.00202926 0)
(-0.157968 0.00236549 -5.99174e-20)
(-0.165963 0.00930052 0)
(-0.189923 0.015752 6.97791e-18)
(-0.206047 0.0189323 1.29736e-17)
(-0.214712 0.0206824 1.25254e-17)
(-0.221861 0.0218629 1.21477e-17)
(-0.228823 0.0228376 1.17287e-17)
(-0.235145 0.0236836 -1.13595e-17)
(-0.24095 0.0244338 -1.10283e-17)
(-0.246392 0.0251094 -6.01853e-36)
(-0.251678 0.0257329 -2.07931e-17)
(-0.256971 0.0263275 -1.00804e-17)
(-0.262379 0.0269102 9.35882e-34)
(-0.268015 0.0274987 0)
(-0.274004 0.02811 -1.81247e-17)
(-0.280442 0.0287562 -1.73425e-17)
(-0.287438 0.0294501 -1.64815e-17)
(-0.295118 0.0302049 -1.20371e-35)
(-0.30359 0.0310341 2.89053e-17)
(-0.313109 0.031962 1.32431e-17)
(-0.323564 0.0329866 1.20371e-35)
(-0.335754 0.0341643 -2.067e-17)
(-0.348291 0.0354236 -8.31063e-21)
(-0.365774 0.0370252 0)
(-0.377232 0.0384849 7.71154e-18)
(-0.407481 0.0407199 -4.75532e-18)
)
;
    }
    lowerWall
    {
        type            calculated;
        value           nonuniform List<vector> 
250
(
(-0.623519 0.0756035 0)
(-0.617593 0.0629016 0)
(-0.603811 0.0358136 0)
(-0.587834 0.0178753 0)
(-0.572928 0.00798645 0)
(-0.559981 0.00290537 0)
(-0.548885 0.000400399 0)
(-0.539556 -0.000825141 0)
(-0.531629 -0.00140425 0)
(-0.525004 -0.00165069 0)
(-0.519326 -0.00172353 0)
(-0.514474 -0.00175953 0)
(-0.51023 -0.00174685 0)
(-0.506507 -0.00172602 0)
(-0.503164 -0.00168101 0)
(-0.50029 -0.00168253 0)
(-0.496978 -0.00159712 0)
(-0.495743 -0.00118812 0)
(0.000553423 -0.0138041 0)
(0.00069506 -0.0145254 0)
(0.000927668 -0.0153826 0)
(0.00130332 -0.0164449 6.74005e-20)
(0.00187955 -0.0177761 -6.39597e-20)
(0.00310933 -0.0197917 6.09282e-20)
(0.00419079 -0.0206906 -5.40103e-20)
(0.0101708 -0.0422631 0)
(-0.0598049 -0.126449 0)
(-0.000329603 0.000328211 0)
(-0.000323797 0.00118349 0)
(-4.7586e-05 0.00157081 0)
(0.000270595 0.00134177 0)
(0.000511787 0.000661621 7.52366e-20)
(0.000673095 -0.000312887 -6.98875e-20)
(0.000761606 -0.00147169 0)
(0.000799595 -0.00273441 -1.08056e-19)
(0.000801702 -0.00403741 9.73008e-20)
(0.000777286 -0.00533142 0)
(0.00073367 -0.00657917 0)
(0.000677275 -0.00775352 0)
(0.000613997 -0.00883705 0)
(0.000549391 -0.00982015 0)
(0.000491264 -0.0107056 0)
(0.000449888 -0.0115128 0)
(0.00043687 -0.0122756 0)
(0.00047072 -0.0130588 0)
(0.000174151 0.000349344 0)
(-0.000213863 0.000520455 0)
(-0.000505551 0.000466262 0)
(-0.000677827 0.000300285 0)
(-0.000738656 9.59436e-05 0)
(-0.000696878 -9.85247e-05 0)
(-0.000579861 -0.00025466 6.98987e-21)
(-0.000411952 -0.000368474 -6.60252e-21)
(-0.000209884 -0.000446288 -0)
(1.55763e-05 -0.000498128 -5.63041e-21)
(0.000258844 -0.000534468 -0)
(0.00051849 -0.000563475 0)
(0.000794743 -0.000589717 -0)
(0.00108797 -0.000615015 3.13528e-21)
(0.0013982 -0.000639848 0)
(0.00172528 -0.000663909 0)
(0.00206875 -0.000686827 -2.27709e-21)
(0.00242798 -0.000708099 -0)
(0.00280203 -0.000727719 0)
(0.00319029 -0.000745683 -0)
(0.00359193 -0.000762517 1.67294e-21)
(0.00400675 -0.000778398 0)
(0.00443406 -0.000793883 1.48751e-21)
(0.00487437 -0.000808842 0)
(0.00532708 -0.000823183 -0)
(0.00579298 -0.000836428 1.29354e-21)
(0.00627205 -0.000848015 0)
(0.0067644 -0.000856362 -1.19938e-21)
(0.00726833 -0.000861268 -0)
(0.00778384 -0.000865816 1.12057e-21)
(0.00830089 -0.000864432 0)
(0.00881737 -0.000888233 0)
(0.00934732 -0.000935836 0)
(0.00985994 -0.000986884 -0)
(0.0103267 -0.0011285 0)
(0.0108142 -0.00143167 -9.14182e-22)
(0.0113712 -0.00181669 -0)
(0.012035 -0.00227605 1.83139e-21)
(0.0132023 -0.00270071 0)
(0.0142649 -0.0018589 -2.41562e-21)
(0.0146587 -0.000999932 0)
(0.0150668 -0.00135859 -0)
(0.0160597 -0.00133014 2.37343e-21)
(0.0169816 -0.000988957 0)
(0.0179097 -0.000977824 2.30552e-21)
(0.018892 -0.00123478 -2.27925e-21)
(0.0201186 -0.00129238 -0)
(0.021277 -0.00131323 -2.23128e-21)
(0.0224791 -0.00133108 -2.20795e-21)
(0.0236988 -0.00134585 -0)
(0.0249499 -0.00135799 0)
(0.026223 -0.00136756 0)
(0.0275208 -0.00137519 0)
(0.0288402 -0.00138122 -0)
(0.0301813 -0.00138596 2.09332e-21)
(0.0315429 -0.00138964 0)
(0.0329247 -0.00139229 -2.06481e-21)
(0.0343256 -0.00139398 -0)
(0.035745 -0.00139465 -0)
(0.037182 -0.00139433 2.0285e-21)
(0.038636 -0.00139294 0)
(0.0401056 -0.00139037 -2.00764e-21)
(0.04159 -0.00138667 -0)
(0.0430882 -0.00138169 0)
(0.0445988 -0.00137529 -0)
(0.0461204 -0.00136744 1.97142e-21)
(0.0476515 -0.0013581 0)
(0.0491908 -0.00134719 -0)
(0.0507365 -0.00133458 1.94718e-21)
(0.0522869 -0.00132019 0)
(0.0538397 -0.00130405 1.9316e-21)
(0.0553938 -0.0012861 0)
(0.0569463 -0.00126612 0)
(0.0584951 -0.00124431 0)
(0.0600386 -0.00122058 -1.90002e-21)
(0.0615741 -0.00119482 -0)
(0.0630992 -0.00116706 0)
(0.0646117 -0.00113731 -1.87442e-21)
(0.0661088 -0.00110555 -1.86527e-21)
(0.0675881 -0.00107179 -0)
(0.069047 -0.00103605 -1.84575e-21)
(0.070483 -0.000998263 0)
(0.0718929 -0.000958511 -3.64857e-21)
(0.0732744 -0.000916849 -0)
(0.0746247 -0.000873292 -3.60098e-21)
(0.0759414 -0.000827714 -0)
(0.077221 -0.000780099 3.54795e-21)
(0.0784608 -0.000730499 0)
(0.0796579 -0.000678771 0)
(0.0808094 -0.000624773 0)
(0.0819122 -0.000568158 -3.42254e-21)
(0.0829624 -0.000508636 -0)
(0.0839567 -0.000445794 3.34872e-21)
(0.0848908 -0.000379022 0)
(0.0857599 -0.000308136 -3.26663e-21)
(0.0865601 -0.000233265 -3.22241e-21)
(0.087286 -0.000155955 -3.17614e-21)
(0.087934 -8.03203e-05 0)
(0.0885043 -1.36444e-05 0)
(0.0890078 4.49118e-05 0)
(0.089446 0.000101651 0)
(0.0898178 0.000157807 0)
(0.0901224 0.000214016 0)
(0.0903579 0.00027028 0)
(0.0905239 0.000326527 0)
(0.090619 0.000382862 2.63451e-21)
(0.090642 0.000439118 2.55875e-21)
(0.0905923 0.00049512 0)
(0.0904693 0.00055096 0)
(0.0902718 0.000606463 0)
(0.09 0.000661512 2.22091e-21)
(0.089653 0.000716037 0)
(0.0892313 0.000769983 0)
(0.0887342 0.000823323 0)
(0.0881618 0.00087585 0)
(0.0875148 0.000927505 -1.71459e-21)
(0.0867935 0.00097828 0)
(0.0859982 0.00102811 0)
(0.0851296 0.00107691 1.3623e-21)
(0.0841885 0.0011245 -1.23631e-21)
(0.0831762 0.0011709 0)
(0.0820936 0.00121606 -9.70976e-22)
(0.0809421 0.00125988 0)
(0.0797231 0.00130237 6.87245e-22)
(0.0784377 0.0013434 0)
(0.0770883 0.00138289 0)
(0.0756765 0.00142094 0)
(0.074204 0.00145743 0)
(0.0726734 0.00149242 0)
(0.0710862 0.00152597 5.65419e-22)
(0.0694434 0.00155779 9.25986e-22)
(0.0677486 0.00158783 0)
(0.0660012 0.00161622 0)
(0.0642087 0.00164318 0)
(0.0623745 0.0016686 -2.48606e-21)
(0.060497 0.00169237 0)
(0.0585785 0.00171441 0)
(0.0566232 0.00173479 0)
(0.0546335 0.00175351 -4.255e-21)
(0.0526126 0.00177061 4.73386e-21)
(0.0505631 0.00178622 0)
(0.0484875 0.00180032 0)
(0.0463887 0.00181287 6.26915e-21)
(0.0442698 0.00182396 6.81671e-21)
(0.0421334 0.00183372 0)
(0.0399819 0.00184216 0)
(0.0378182 0.0018493 -8.58128e-21)
(0.0356448 0.00185524 9.21433e-21)
(0.0334645 0.00186004 0)
(0.0312797 0.00186382 0)
(0.0290927 0.00186664 1.127e-20)
(0.026906 0.00186859 0)
(0.0247216 0.00186978 0)
(0.0225418 0.00187028 1.36037e-20)
(0.0203685 0.0018702 0)
(0.0182036 0.00186965 1.53494e-20)
(0.016049 0.00186872 0)
(0.0139062 0.00186752 0)
(0.0117768 0.00186609 0)
(0.00966236 0.00186446 -1.94349e-20)
(0.00756437 0.00186283 0)
(0.00548406 0.0018621 0)
(0.00342245 0.00186226 0)
(0.00137971 0.00186011 0)
(-0.000643184 0.00183837 0)
(-0.00264872 0.00179487 0)
(-0.00464106 0.00174783 -2.40873e-20)
(-0.00662117 0.00170322 -2.3487e-20)
(-0.00858974 0.00166135 0)
(-0.0105473 0.00162172 0)
(-0.0124942 0.00158366 0)
(-0.0144297 0.00154634 2.14495e-20)
(-0.0163523 0.00150857 0)
(-0.0182578 0.00146861 -4.11992e-20)
(-0.02014 0.00142267 4.0426e-20)
(-0.0219791 0.00136559 3.97119e-20)
(-0.0237648 0.00127534 -3.90795e-20)
(-0.0253387 0.00113882 3.85783e-20)
(-0.026899 0.000781082 -3.83856e-20)
(-0.0264982 5.13107e-05 0)
(-0.0289094 9.64692e-06 -2.4397e-18)
(-0.0336186 -0.000852263 -2.31111e-18)
(-0.0381965 -0.00154499 -3.00927e-36)
(-0.0424005 -0.00208931 -4.21143e-18)
(-0.0466933 -0.00258996 -8.06099e-18)
(-0.0512106 -0.00308168 -3.85815e-18)
(-0.0559545 -0.00357753 3.69255e-18)
(-0.0609467 -0.00409058 6.01853e-36)
(-0.0662219 -0.00462973 3.00927e-36)
(-0.0718058 -0.00519979 3.22482e-18)
(-0.0777204 -0.0058043 3.07431e-18)
(-0.0839864 -0.00644659 0)
(-0.0906291 -0.00712931 0)
(-0.097667 -0.00785557 0)
(-0.105139 -0.00862712 -5.54833e-36)
(-0.113054 -0.00944929 1.78675e-35)
(-0.121497 -0.0103194 9.0278e-35)
(-0.130416 -0.0112556 -3.97144e-18)
(-0.140112 -0.0122313 -3.61801e-18)
(-0.150064 -0.0133172 6.01853e-36)
(-0.161902 -0.0143965 5.67726e-18)
(-0.172174 -0.0157122 9.37661e-18)
(-0.189398 -0.0168357 1.20371e-35)
(-0.196302 -0.018654 -4.42536e-18)
(-0.230325 -0.0192845 3.00927e-36)
)
;
    }
    frontAndBack
    {
        type            empty;
    }
}


// ************************************************************************* //
