/*--------------------------------*- C++ -*----------------------------------*\
  =========                 |
  \\      /  F ield         | OpenFOAM: The Open Source CFD Toolbox
   \\    /   O peration     | Website:  https://openfoam.org
    \\  /    A nd           | Version:  8
     \\/     M anipulation  |
\*---------------------------------------------------------------------------*/
FoamFile
{
    version     2.0;
    format      ascii;
    class       volScalarField;
    location    "200";
    object      nut;
}
// * * * * * * * * * * * * * * * * * * * * * * * * * * * * * * * * * * * * * //

dimensions      [0 2 -1 0 0 0 0];

internalField   nonuniform List<scalar> 
12225
(
4.004e-05
3.79944e-05
3.61308e-05
3.4186e-05
3.25508e-05
3.1307e-05
3.03922e-05
2.99739e-05
2.99746e-05
3.04e-05
3.08678e-05
3.15343e-05
3.26635e-05
3.34473e-05
3.46917e-05
3.5746e-05
3.68206e-05
3.70287e-05
0.000331299
0.000213942
0.000178073
0.00015715
0.000145561
0.000137581
0.000132399
0.000131812
0.000129608
0.000130596
0.000129434
0.000130048
0.000129142
0.000129174
0.00012856
0.000128051
0.000127777
0.000127089
0.000675699
0.000454251
0.000358381
0.000311808
0.000276441
0.0002521
0.000232069
0.000217345
0.000202069
0.000191662
0.000181628
0.000174572
0.000168277
0.00016296
0.000159165
0.00015485
0.000152678
0.00014917
0.000804908
0.000704352
0.000585036
0.000511594
0.000459326
0.000421433
0.000388917
0.000363791
0.00034049
0.000321038
0.000303345
0.00028677
0.000274231
0.000260139
0.00025128
0.000239412
0.000232949
0.000223262
0.00084196
0.000818147
0.000756252
0.000695925
0.00064391
0.000601899
0.000565695
0.000534398
0.000508307
0.000483121
0.000463401
0.000441564
0.000426325
0.000407122
0.000395229
0.000378262
0.000368988
0.000354166
0.000851961
0.000845515
0.000826929
0.000802311
0.000770888
0.000739776
0.000711509
0.000683733
0.000660653
0.000636633
0.000617982
0.000596857
0.000581532
0.000562708
0.000549996
0.000533039
0.000522509
0.000507066
0.000851961
0.000851509
0.000847116
0.000839865
0.00082911
0.000814744
0.000799461
0.000782316
0.000767066
0.000750077
0.000735984
0.000720032
0.000707437
0.000692639
0.000681597
0.000667802
0.000658371
0.000645234
0.000851806
0.000851622
0.00085085
0.000848424
0.000845066
0.000838879
0.000831875
0.000823516
0.000814844
0.000804643
0.00079549
0.000785093
0.000776107
0.0007659
0.000757532
0.000747654
0.000740066
0.000730307
0.000851798
0.000851402
0.000851221
0.000850376
0.000849428
0.000847282
0.00084454
0.00084072
0.000836633
0.000831451
0.000826278
0.000820459
0.00081457
0.000808624
0.000802776
0.000796678
0.000790901
0.000784685
0.000851808
0.000851338
0.000851089
0.000850641
0.000850297
0.000849598
0.000848753
0.000847379
0.000845848
0.000843762
0.000841527
0.000838833
0.000836087
0.000832906
0.000829958
0.000826402
0.000823497
0.000819512
0.0008518
0.000851352
0.000851013
0.000850622
0.000850322
0.000849942
0.000849596
0.000849087
0.00084856
0.000847816
0.000847037
0.000846
0.000844981
0.000843643
0.000842449
0.000840839
0.000839561
0.000837705
0.000851789
0.000851363
0.00085099
0.00085061
0.00085028
0.000849939
0.000849644
0.000849317
0.000849023
0.000848668
0.00084834
0.000847919
0.000847534
0.000847022
0.000846572
0.000845964
0.000845454
0.000844755
0.000851783
0.000851365
0.00085098
0.000850605
0.00085026
0.000849922
0.000849614
0.000849308
0.00084903
0.000848747
0.000848489
0.000848217
0.000847968
0.000847696
0.000847448
0.000847169
0.000846914
0.000846625
0.000851781
0.000851365
0.000850974
0.0008506
0.000850248
0.000849911
0.000849594
0.00084929
0.000849004
0.000848727
0.000848468
0.000848216
0.000847979
0.000847747
0.000847529
0.000847314
0.00084711
0.00084691
0.00085178
0.000851364
0.00085097
0.000850595
0.00085024
0.000849902
0.000849582
0.000849276
0.000848986
0.000848709
0.000848445
0.000848193
0.000847953
0.000847723
0.000847504
0.000847295
0.000847094
0.000846903
0.000851779
0.000851363
0.000850967
0.000850591
0.000850234
0.000849895
0.000849573
0.000849266
0.000848973
0.000848695
0.000848429
0.000848175
0.000847933
0.000847702
0.000847481
0.000847269
0.000847067
0.000846874
0.000851779
0.000851362
0.000850965
0.000850589
0.000850231
0.000849891
0.000849567
0.000849259
0.000848965
0.000848685
0.000848418
0.000848163
0.000847919
0.000847687
0.000847464
0.000847251
0.000847048
0.000846853
0.000851779
0.000851362
0.000850965
0.000850588
0.000850229
0.000849889
0.000849564
0.000849255
0.000848961
0.00084868
0.000848412
0.000848157
0.000847912
0.000847679
0.000847455
0.000847242
0.000847037
0.000846842
0.000851779
0.000851362
0.000850965
0.000850588
0.00085023
0.000849889
0.000849565
0.000849256
0.000848961
0.00084868
0.000848412
0.000848156
0.000847911
0.000847678
0.000847454
0.00084724
0.000847035
0.000846839
0.000851779
0.000851362
0.000850966
0.000850589
0.000850231
0.000849891
0.000849567
0.000849259
0.000848965
0.000848685
0.000848416
0.000848161
0.000847916
0.000847682
0.000847457
0.000847242
0.000847036
0.000846838
0.000851779
0.000851363
0.000850967
0.000850592
0.000850234
0.000849896
0.000849572
0.000849266
0.000848971
0.000848691
0.00084842
0.000848161
0.000847907
0.000847665
0.000847424
0.000847194
0.000846963
0.000846742
0.000851778
0.000851366
0.000850968
0.000850598
0.000850239
0.000849906
0.000849576
0.000849265
0.000848946
0.000848637
0.000848308
0.000847985
0.000847632
0.000847285
0.000846901
0.000846528
0.000846108
0.000845713
0.000851774
0.000851374
0.000850968
0.000850613
0.000850234
0.000849866
0.000849429
0.000848953
0.000848364
0.00084772
0.000846939
0.000846112
0.000845142
0.000844155
0.00084302
0.000841918
0.000840651
0.000839485
0.000851778
0.000851416
0.000850953
0.000850534
0.000849781
0.000848821
0.000847358
0.000845565
0.000843346
0.000840887
0.000838044
0.000835103
0.000831856
0.000828659
0.00082519
0.000821924
0.000818354
0.000815169
0.000851975
0.000851437
0.000850208
0.000848276
0.000844436
0.000839533
0.000832898
0.000825946
0.000818371
0.000810537
0.000802364
0.000794497
0.000786456
0.000778962
0.000771294
0.000764372
0.000757136
0.000750895
0.000853192
0.000848426
0.000841018
0.000829014
0.000812028
0.000794121
0.00077561
0.000757945
0.000740809
0.000725087
0.000709967
0.000696351
0.000683146
0.000671443
0.000659857
0.000649797
0.000639505
0.000630886
0.000852064
0.000823242
0.000785052
0.000739384
0.000700506
0.000666585
0.000636447
0.000610817
0.000587969
0.000568381
0.000550437
0.000534995
0.00052043
0.000507978
0.000495757
0.000485491
0.000475034
0.00046648
0.000813206
0.000686981
0.000594768
0.000535011
0.000491106
0.000456301
0.000428864
0.000407071
0.000388473
0.00037325
0.000359754
0.000348572
0.000338433
0.000329753
0.000321436
0.000314795
0.000308017
0.000302571
0.000528564
0.000373293
0.000314923
0.000279547
0.000255723
0.0002386
0.00022801
0.000219895
0.00021331
0.000209084
0.000205603
0.00020316
0.000200914
0.000199408
0.000197783
0.000196771
0.000195489
0.000194838
8.19307e-05
7.9279e-05
7.6904e-05
7.44663e-05
7.21367e-05
6.99293e-05
6.79689e-05
6.62978e-05
6.48542e-05
6.36677e-05
6.27112e-05
6.19586e-05
6.13984e-05
6.09816e-05
6.07263e-05
6.05548e-05
6.05257e-05
6.05638e-05
5.2923e-07
1.1677e-05
2.06739e-05
2.92298e-05
3.82381e-05
4.77811e-05
5.79074e-05
6.85561e-05
7.95317e-05
9.06305e-05
0.000101627
0.000112366
0.000122703
0.000132571
0.000141903
0.000150701
0.000158942
0.000166642
0.000173726
0.000180067
0.000185602
0.000190202
0.000191183
0.000188907
0.000181215
0.000166658
3.29738e-05
3.34805e-05
3.46637e-05
3.77681e-05
4.24203e-05
4.94252e-05
0.000238117
0.000236391
0.00023045
4.49814e-05
4.85177e-05
4.912e-05
5.03861e-05
5.14932e-05
5.2643e-05
5.37761e-05
5.49114e-05
5.60421e-05
5.71681e-05
5.82931e-05
5.94114e-05
6.05299e-05
6.16416e-05
6.2754e-05
6.38598e-05
6.49662e-05
6.60663e-05
6.71672e-05
6.82617e-05
6.93567e-05
7.04454e-05
7.15344e-05
7.26168e-05
7.3699e-05
7.47741e-05
7.58483e-05
7.69149e-05
7.79799e-05
7.90365e-05
8.00907e-05
8.11359e-05
8.21778e-05
8.32097e-05
8.42374e-05
8.52543e-05
8.62659e-05
8.72656e-05
8.82589e-05
8.92393e-05
9.02122e-05
9.1171e-05
9.2121e-05
9.30559e-05
9.39808e-05
9.48893e-05
9.57865e-05
9.66659e-05
9.75323e-05
9.83792e-05
9.92111e-05
0.000100021
0.000100814
0.000101583
0.000102331
0.000103056
0.000103755
0.000104429
0.00010508
0.000105719
0.000106331
0.000106921
0.000107488
0.000108029
0.000108547
0.000109039
0.000109505
0.000109944
0.000110357
0.00011074
0.000111095
0.000111421
0.000111716
0.00011198
0.000112213
0.000112414
0.000112582
0.000112717
0.000112818
0.000112886
0.00011292
0.000112924
0.000112902
0.000112827
0.00011278
0.00011252
0.000112357
0.000112121
0.000111871
0.000111599
0.000111271
0.000110915
0.000110523
0.000110098
0.000109641
0.000109151
0.000108632
0.000108084
0.000107507
0.000106904
0.000106273
0.000105618
0.000104943
0.000104248
0.000103536
0.000102807
0.000102064
0.000101308
0.000100543
9.97693e-05
9.89931e-05
9.8211e-05
9.74312e-05
9.66588e-05
9.58921e-05
9.51258e-05
9.43602e-05
9.36188e-05
9.2886e-05
9.22034e-05
9.15442e-05
9.09085e-05
9.0319e-05
8.96903e-05
8.90923e-05
8.85521e-05
8.80603e-05
8.76e-05
8.71766e-05
8.68201e-05
8.64935e-05
8.61886e-05
8.59068e-05
8.56731e-05
8.56957e-05
8.58623e-05
8.59385e-05
8.59987e-05
8.61276e-05
8.62931e-05
8.65292e-05
8.67011e-05
8.6827e-05
8.67785e-05
8.57247e-05
2.21699e-06
4.02464e-05
8.4241e-05
0.000114462
0.000134873
0.000150636
0.000164438
0.000177588
0.00019058
0.000203493
0.000216213
0.000228574
0.000240406
0.000251564
0.000261917
0.000271336
0.00027965
0.000286602
0.000291768
0.000294491
0.000293813
0.000288404
0.000276393
0.000256805
0.000229353
0.000195643
0.000159529
0.000164714
0.000178079
0.000198187
0.000226278
0.000265183
0.00032169
0.000302635
0.000294066
0.000266926
0.00027623
0.000282457
0.000289697
0.000297253
0.000304915
0.00031277
0.000320718
0.000328771
0.0003369
0.000345105
0.000353379
0.000361721
0.00037013
0.000378608
0.000387157
0.000395778
0.000404474
0.000413247
0.000422099
0.000431034
0.000440053
0.000449158
0.000458351
0.000467634
0.000477007
0.000486471
0.000496025
0.00050567
0.000515405
0.000525228
0.00053514
0.000545139
0.000555223
0.00056539
0.000575638
0.000585964
0.000596366
0.000606841
0.000617385
0.000627994
0.000638667
0.000649397
0.000660184
0.000671023
0.000681911
0.000692844
0.000703821
0.000714837
0.000725889
0.000736969
0.000748071
0.00075918
0.000770278
0.000781328
0.000792276
0.000803007
0.000813346
0.00082302
0.000832344
0.000841592
0.000850731
0.000859755
0.000868658
0.000877428
0.000886055
0.000894527
0.000902833
0.000910959
0.000918892
0.000926619
0.000934126
0.0009414
0.000948425
0.000955188
0.000961674
0.000967869
0.000973758
0.000979327
0.000984562
0.000989451
0.000993982
0.000998156
0.001002
0.00100563
0.00100871
0.00101128
0.00101317
0.00101495
0.00101663
0.00101769
0.00101836
0.00101861
0.00101847
0.00101794
0.00101702
0.00101573
0.00101407
0.00101207
0.00100973
0.00100707
0.00100411
0.00100085
0.000997323
0.000993545
0.000989533
0.000985308
0.000980886
0.000976285
0.000971531
0.000966652
0.000961676
0.000956638
0.000951597
0.000946557
0.000941529
0.000936562
0.000931677
0.000926867
0.000922249
0.000917927
0.000913838
0.000910131
0.000906463
0.000903039
0.00089986
0.000897102
0.000894816
0.000892958
0.00089142
0.000890372
0.000889661
0.000889131
0.000888772
0.000888484
0.000886617
0.000884253
0.000881581
0.000878926
0.000875779
0.000872698
0.000868858
0.00086375
0.000855617
0.000832786
4.38059e-06
6.24682e-05
0.000128796
0.000179322
0.000216233
0.000243543
0.000264846
0.000282656
0.000298527
0.000313297
0.000327343
0.000340774
0.000353567
0.000365646
0.000376915
0.000387272
0.000396582
0.000404649
0.000411164
0.000415673
0.000417585
0.000416238
0.000411392
0.000403238
0.000393002
0.00038339
0.000379342
0.000393746
0.000416291
0.000443426
0.000472499
0.000499655
0.000519407
0.000524719
0.000531286
0.000538158
0.000553336
0.000568543
0.0005841
0.000599868
0.00061581
0.000631927
0.000648188
0.000664588
0.000681115
0.000697769
0.000714546
0.000731449
0.000748479
0.00076564
0.000782937
0.000800372
0.00081795
0.000835674
0.000853547
0.000871573
0.000889753
0.00090809
0.000926584
0.000945236
0.000964045
0.000983011
0.00100213
0.0010214
0.00104083
0.0010604
0.00108011
0.00109996
0.00111994
0.00114005
0.00116028
0.00118063
0.00120109
0.00122164
0.00124229
0.00126302
0.00128383
0.00130471
0.00132564
0.00134663
0.00136766
0.00138871
0.00140979
0.00143087
0.00145194
0.00147299
0.00149399
0.0015149
0.00153569
0.00155631
0.00157668
0.00159673
0.00161635
0.00163552
0.00165441
0.00167311
0.00169158
0.00170981
0.00172779
0.00174549
0.00176288
0.00177995
0.00179668
0.00181303
0.00182898
0.00184451
0.00185959
0.00187419
0.00188828
0.00190184
0.00191484
0.00192725
0.00193904
0.00195019
0.00196067
0.00197046
0.00197954
0.0019879
0.00199556
0.0020025
0.00200872
0.00201428
0.00201824
0.00202155
0.0020247
0.00202684
0.00202813
0.00202858
0.00202822
0.00202706
0.00202512
0.0020224
0.00201895
0.00201477
0.0020099
0.00200436
0.00199819
0.00199141
0.00198406
0.0019762
0.00196785
0.00195906
0.00194987
0.00194031
0.00193045
0.00192032
0.00190999
0.00189952
0.00188898
0.00187844
0.00186793
0.00185754
0.00184731
0.00183728
0.00182755
0.00181827
0.00180942
0.00180111
0.00179317
0.00178572
0.00177879
0.00177252
0.00176699
0.00176212
0.00175794
0.00175461
0.00175184
0.00174925
0.00174693
0.00174473
0.00174134
0.00173736
0.00173286
0.00172851
0.00172338
0.0017176
0.00171096
0.00170233
0.00168745
0.00165006
6.63594e-06
7.9316e-05
0.000162438
0.00022781
0.000276865
0.00031378
0.000342369
0.000365502
0.000385174
0.000402667
0.000418735
0.000433783
0.000448
0.000461471
0.000474233
0.000486318
0.000497762
0.000508598
0.000518838
0.00052845
0.000537342
0.000545401
0.000552602
0.00055918
0.000565895
0.000574266
0.000586551
0.000604865
0.000626879
0.000650769
0.000674966
0.000697893
0.000718439
0.000736607
0.000754909
0.000774272
0.000795741
0.000817729
0.000840032
0.000862591
0.000885334
0.000908247
0.000931323
0.000954561
0.00097796
0.00100152
0.00102525
0.00104914
0.0010732
0.00109744
0.00112186
0.00114648
0.00117128
0.00119629
0.00122149
0.0012469
0.00127251
0.00129833
0.00132436
0.00135059
0.00137702
0.00140365
0.00143048
0.0014575
0.0014847
0.00151209
0.00153964
0.00156736
0.00159524
0.00162327
0.00165143
0.00167973
0.00170813
0.00173665
0.00176525
0.00179394
0.00182269
0.0018515
0.00188035
0.00190922
0.0019381
0.00196697
0.00199581
0.00202461
0.00205334
0.00208197
0.00211048
0.00213882
0.00216696
0.00219485
0.00222243
0.00224966
0.00227647
0.00230292
0.00232906
0.00235492
0.00238046
0.00240566
0.00243051
0.00245497
0.00247901
0.0025026
0.00252572
0.00254833
0.0025704
0.0025919
0.00261279
0.00263303
0.00265259
0.00267143
0.00268952
0.00270682
0.00272329
0.0027389
0.00275361
0.0027674
0.00278023
0.00279209
0.00280296
0.0028128
0.00282167
0.00282975
0.00283613
0.00284104
0.00284554
0.00284894
0.00285112
0.00285213
0.00285201
0.00285076
0.00284841
0.00284498
0.00284048
0.00283497
0.00282845
0.00282099
0.0028126
0.00280334
0.00279326
0.00278241
0.00277086
0.00275865
0.00274586
0.00273253
0.00271873
0.00270455
0.00269004
0.00267531
0.00266043
0.00264551
0.00263061
0.00261584
0.00260127
0.00258698
0.00257307
0.00255966
0.00254681
0.00253458
0.00252295
0.00251202
0.00250183
0.0024925
0.00248407
0.00247651
0.00246988
0.00246417
0.0024592
0.00245475
0.00245059
0.00244694
0.00244299
0.0024386
0.00243341
0.00242834
0.00242313
0.00241738
0.00241036
0.00240095
0.00238396
0.00234574
8.81106e-06
9.33486e-05
0.00019033
0.000267946
0.000327611
0.000373112
0.000408475
0.000436837
0.000460499
0.000481067
0.000499602
0.000516774
0.000532992
0.00054851
0.000563507
0.000578135
0.000592548
0.00060691
0.000621386
0.000636122
0.000651215
0.000666711
0.000682623
0.000699001
0.000716048
0.000734235
0.000754198
0.000776291
0.000800076
0.000825031
0.000850635
0.000876321
0.000901765
0.000927093
0.000952865
0.000979216
0.00100629
0.00103371
0.00106134
0.00108911
0.00111706
0.00114519
0.00117351
0.00120202
0.00123072
0.00125961
0.0012887
0.00131799
0.00134749
0.00137718
0.00140709
0.00143722
0.00146758
0.00149817
0.001529
0.00156006
0.00159136
0.0016229
0.00165467
0.00168666
0.00171888
0.00175132
0.00178398
0.00181684
0.00184989
0.00188314
0.00191657
0.00195016
0.00198391
0.0020178
0.00205183
0.00208597
0.00212022
0.00215455
0.00218895
0.00222341
0.00225791
0.00229243
0.00232695
0.00236146
0.00239593
0.00243034
0.00246468
0.00249891
0.00253302
0.00256697
0.00260073
0.00263428
0.00266758
0.00270059
0.00273329
0.00276565
0.00279767
0.00282934
0.00286067
0.00289165
0.00292225
0.00295246
0.00298225
0.00301158
0.00304042
0.00306874
0.00309651
0.0031237
0.00315026
0.00317616
0.00320137
0.00322583
0.00324952
0.00327239
0.00329439
0.00331549
0.00333564
0.00335481
0.00337294
0.00339001
0.00340598
0.00342081
0.00343448
0.00344695
0.0034582
0.00346851
0.00347734
0.00348429
0.00349024
0.00349511
0.00349855
0.0035006
0.00350126
0.00350057
0.00349853
0.00349516
0.0034905
0.00348458
0.00347742
0.00346908
0.00345959
0.00344901
0.0034374
0.00342481
0.00341132
0.003397
0.00338191
0.00336612
0.00334973
0.00333281
0.00331546
0.00329777
0.00327986
0.00326184
0.00324379
0.00322585
0.0032081
0.00319065
0.0031736
0.00315707
0.00314114
0.0031259
0.0031114
0.00309771
0.00308493
0.00307313
0.00306236
0.00305263
0.00304396
0.00303636
0.00302969
0.00302382
0.0030185
0.00301382
0.00300923
0.00300449
0.00299936
0.0029944
0.00298929
0.00298369
0.002977
0.00296855
0.0029537
0.00292008
1.08413e-05
0.000105067
0.000213623
0.000301791
0.000370934
0.000424378
0.000466256
0.00049988
0.000527774
0.000551789
0.000573233
0.000593005
0.000611708
0.000629754
0.000647439
0.000665001
0.000682648
0.000700584
0.000718997
0.000738059
0.000757897
0.000778586
0.000800143
0.000822555
0.000845821
0.000870004
0.000895213
0.000921489
0.000948738
0.000976822
0.00100558
0.00103482
0.00106442
0.00109436
0.0011247
0.00115546
0.0011866
0.00121802
0.00124967
0.0012815
0.00131352
0.00134574
0.00137816
0.00141077
0.00144359
0.00147662
0.00150987
0.00154333
0.00157703
0.00161097
0.00164514
0.00167955
0.0017142
0.00174908
0.00178419
0.00181954
0.00185513
0.00189094
0.00192699
0.00196325
0.00199973
0.00203642
0.00207332
0.0021104
0.00214767
0.00218511
0.00222272
0.00226047
0.00229835
0.00233636
0.00237448
0.00241268
0.00245096
0.0024893
0.00252768
0.00256609
0.0026045
0.00264291
0.00268128
0.00271959
0.00275784
0.002796
0.00283404
0.00287195
0.00290969
0.00294725
0.0029846
0.00302171
0.00305855
0.00309512
0.00313137
0.00316732
0.00320292
0.00323818
0.00327308
0.0033076
0.00334172
0.00337542
0.00340866
0.00344142
0.00347366
0.00350536
0.00353648
0.00356699
0.00359684
0.00362601
0.00365445
0.00368212
0.00370898
0.00373498
0.00376008
0.00378423
0.0038074
0.00382952
0.00385056
0.00387047
0.00388921
0.00390674
0.00392301
0.00393799
0.00395162
0.00396415
0.00397538
0.00398468
0.00399242
0.00399907
0.00400418
0.00400773
0.00400974
0.0040102
0.00400914
0.00400656
0.00400251
0.00399699
0.00399006
0.00398175
0.0039721
0.00396118
0.00394903
0.00393574
0.00392135
0.00390596
0.00388964
0.00387246
0.00385452
0.00383592
0.00381676
0.00379715
0.00377721
0.00375705
0.00373679
0.00371656
0.00369648
0.00367665
0.00365719
0.00363823
0.00361986
0.00360219
0.0035853
0.0035693
0.00355426
0.00354027
0.0035274
0.00351566
0.00350511
0.00349572
0.00348744
0.00348018
0.00347382
0.00346824
0.00346314
0.00345829
0.00345352
0.00344899
0.00344453
0.00343989
0.00343458
0.00342774
0.00341585
0.00338944
1.2676e-05
0.000114718
0.000232899
0.000330247
0.000407897
0.000468808
0.000517021
0.000555965
0.000588313
0.000616093
0.000640803
0.000663524
0.000685025
0.000705849
0.000726391
0.00074695
0.000767767
0.000789045
0.000810959
0.000833657
0.000857243
0.00088178
0.000907282
0.000933719
0.000961046
0.00098922
0.00101821
0.00104798
0.00107847
0.00110964
0.0011414
0.00117368
0.00120641
0.00123955
0.00127306
0.00130692
0.00134109
0.00137551
0.00141016
0.00144501
0.00148006
0.0015153
0.00155075
0.0015864
0.00162226
0.00165832
0.0016946
0.0017311
0.00176782
0.00180477
0.00184195
0.00187936
0.001917
0.00195486
0.00199295
0.00203127
0.00206981
0.00210856
0.00214754
0.00218672
0.0022261
0.00226568
0.00230544
0.00234538
0.00238548
0.00242574
0.00246614
0.00250667
0.00254732
0.00258807
0.0026289
0.0026698
0.00271076
0.00275175
0.00279277
0.00283378
0.00287478
0.00291575
0.00295666
0.00299751
0.00303826
0.00307889
0.0031194
0.00315975
0.00319993
0.00323991
0.00327967
0.00331919
0.00335846
0.00339744
0.00343614
0.00347452
0.00351257
0.00355028
0.00358764
0.00362461
0.00366118
0.00369733
0.00373303
0.00376825
0.00380297
0.00383714
0.00387076
0.00390377
0.00393614
0.00396784
0.00399883
0.00402907
0.00405851
0.00408711
0.00411482
0.00414159
0.00416739
0.00419214
0.00421582
0.00423836
0.00425972
0.00427984
0.00429869
0.0043162
0.00433232
0.00434721
0.00436088
0.00437272
0.00438273
0.00439145
0.00439862
0.00440413
0.00440796
0.00441011
0.00441058
0.00440938
0.00440655
0.00440211
0.00439608
0.00438851
0.00437943
0.0043689
0.00435698
0.00434373
0.00432922
0.00431353
0.00429674
0.00427893
0.0042602
0.00424066
0.0042204
0.00419956
0.00417825
0.00415659
0.00413472
0.00411277
0.00409085
0.00406911
0.00404767
0.00402665
0.00400616
0.00398634
0.00396728
0.0039491
0.0039319
0.00391577
0.00390078
0.003887
0.00387447
0.0038632
0.00385318
0.00384435
0.00383666
0.00382998
0.00382412
0.00381891
0.00381419
0.00381001
0.00380624
0.00380272
0.00379913
0.0037946
0.0037864
0.00376762
1.42786e-05
0.00012248
0.000248547
0.000354085
0.000439167
0.000507014
0.000561334
0.000605581
0.000642508
0.000674256
0.000702456
0.000728327
0.000752763
0.000776417
0.000799764
0.000823154
0.000846852
0.000871062
0.000895941
0.00092161
0.00094815
0.000975608
0.00100399
0.00103328
0.00106342
0.00109434
0.001126
0.00115834
0.0011913
0.00122484
0.00125891
0.00129345
0.00132844
0.00136381
0.00139952
0.00143555
0.00147184
0.00150838
0.00154513
0.00158208
0.00161922
0.00165656
0.00169408
0.0017318
0.00176971
0.00180782
0.00184613
0.00188465
0.00192337
0.0019623
0.00200144
0.0020408
0.00208036
0.00212013
0.00216012
0.00220031
0.0022407
0.0022813
0.00232209
0.00236307
0.00240424
0.00244558
0.00248709
0.00252876
0.00257058
0.00261253
0.00265461
0.00269681
0.00273911
0.00278149
0.00282395
0.00286646
0.00290902
0.0029516
0.0029942
0.00303678
0.00307935
0.00312187
0.00316433
0.00320672
0.00324901
0.00329119
0.00333323
0.00337513
0.00341685
0.00345839
0.00349972
0.00354083
0.00358169
0.0036223
0.00366263
0.00370267
0.0037424
0.00378181
0.00382089
0.0038596
0.00389794
0.00393587
0.00397339
0.00401046
0.00404705
0.00408315
0.00411872
0.00415373
0.00418815
0.00422194
0.00425507
0.00428749
0.00431917
0.00435006
0.00438012
0.00440929
0.00443752
0.00446476
0.00449096
0.00451607
0.00454002
0.00456276
0.00458423
0.00460438
0.00462316
0.00464061
0.00465686
0.00467134
0.00468406
0.0046952
0.00470481
0.00471268
0.00471876
0.00472304
0.00472552
0.00472621
0.00472512
0.00472227
0.00471769
0.0047114
0.00470345
0.00469388
0.00468275
0.00467011
0.00465604
0.00464061
0.00462389
0.00460599
0.00458699
0.004567
0.00454613
0.0045245
0.00450224
0.00447947
0.00445634
0.00443297
0.00440951
0.00438609
0.00436284
0.0043399
0.00431741
0.00429548
0.00427426
0.00425385
0.00423439
0.00421598
0.00419871
0.00418267
0.00416792
0.00415452
0.00414247
0.00413179
0.00412243
0.00411433
0.00410738
0.00410145
0.00409646
0.00409239
0.00408918
0.00408674
0.00408483
0.00408276
0.00407838
0.0040668
1.56264e-05
0.000128514
0.000260899
0.000373435
0.000465121
0.000539342
0.000599457
0.000648879
0.00069038
0.00072616
0.000757934
0.000787013
0.000814384
0.000840783
0.00086675
0.000892689
0.000918885
0.000945546
0.00097282
0.00100081
0.00102958
0.00105917
0.00108963
0.00112092
0.00115299
0.00118578
0.00121924
0.0012533
0.00128791
0.00132304
0.00135864
0.00139467
0.00143109
0.00146788
0.00150502
0.00154241
0.00158003
0.00161787
0.00165589
0.0016941
0.00173248
0.00177102
0.00180974
0.00184862
0.00188768
0.00192691
0.00196632
0.00200592
0.00204569
0.00208566
0.00212581
0.00216614
0.00220667
0.00224739
0.00228829
0.00232939
0.00237067
0.00241213
0.00245377
0.00249559
0.00253758
0.00257973
0.00262204
0.00266451
0.00270711
0.00274985
0.00279271
0.00283568
0.00287875
0.00292191
0.00296515
0.00300844
0.00305179
0.00309517
0.00313856
0.00318196
0.00322535
0.00326871
0.00331202
0.00335527
0.00339845
0.00344153
0.00348449
0.00352733
0.00357001
0.00361254
0.00365488
0.00369703
0.00373897
0.00378067
0.00382214
0.00386334
0.00390428
0.00394492
0.00398526
0.00402528
0.00406495
0.00410427
0.00414321
0.00418176
0.00421988
0.00425756
0.00429476
0.00433147
0.00436766
0.00440328
0.00443832
0.00447272
0.00450645
0.00453947
0.00457173
0.00460318
0.00463377
0.00466345
0.00469215
0.00471982
0.0047464
0.00477183
0.00479603
0.00481896
0.00484055
0.0048608
0.0048798
0.00489711
0.0049128
0.00492676
0.00493914
0.00494974
0.00495847
0.00496528
0.00497017
0.00497315
0.00497422
0.00497341
0.00497072
0.00496617
0.0049598
0.00495164
0.00494174
0.00493015
0.00491695
0.00490219
0.00488596
0.00486835
0.00484944
0.00482935
0.00480819
0.00478608
0.00476314
0.0047395
0.00471531
0.0046907
0.00466581
0.0046408
0.0046158
0.00459095
0.00456641
0.00454232
0.00451881
0.00449603
0.00447412
0.00445319
0.00443338
0.00441479
0.00439752
0.00438164
0.00436723
0.00435432
0.00434292
0.00433304
0.00432462
0.00431761
0.00431197
0.00430772
0.00430484
0.00430331
0.00430298
0.00430331
0.00430264
0.00429729
1.67091e-05
0.000132972
0.000270225
0.00038859
0.000486057
0.000566037
0.000631544
0.000685893
0.000731829
0.000771567
0.000806862
0.000839081
0.000869274
0.000898227
0.000926529
0.000954695
0.000983005
0.00101166
0.0010408
0.00107052
0.00110086
0.00113183
0.0011636
0.00119612
0.00122933
0.0012632
0.00129767
0.00133268
0.00136821
0.0014042
0.00144061
0.00147742
0.00151459
0.00155208
0.00158986
0.0016278
0.00166598
0.00170435
0.00174287
0.00178151
0.00182029
0.0018592
0.00189824
0.00193741
0.00197673
0.0020162
0.00205582
0.00209559
0.00213552
0.00217561
0.00221586
0.00225628
0.00229688
0.00233764
0.00237858
0.00241969
0.00246099
0.00250245
0.0025441
0.00258591
0.0026279
0.00267006
0.00271238
0.00275487
0.0027975
0.00284029
0.00288321
0.00292627
0.00296944
0.00301273
0.00305612
0.0030996
0.00314315
0.00318677
0.00323043
0.00327414
0.00331786
0.00336158
0.0034053
0.00344898
0.00349263
0.00353621
0.00357972
0.00362314
0.00366644
0.00370962
0.00375266
0.00379554
0.00383824
0.00388076
0.00392308
0.00396517
0.00400704
0.00404865
0.00409001
0.00413108
0.00417186
0.00421234
0.00425249
0.00429229
0.00433174
0.00437081
0.00440947
0.00444771
0.0044855
0.00452281
0.00455961
0.00459587
0.00463155
0.0046666
0.004701
0.00473468
0.0047676
0.00479969
0.00483091
0.00486118
0.00489044
0.00491864
0.00494568
0.00497152
0.00499608
0.00501934
0.00504127
0.00506164
0.00508045
0.0050976
0.00511308
0.00512674
0.00513846
0.00514813
0.00515579
0.00516143
0.00516505
0.00516665
0.00516623
0.0051638
0.00515939
0.00515301
0.00514472
0.00513455
0.00512257
0.00510883
0.00509341
0.0050764
0.00505789
0.00503797
0.00501676
0.00499438
0.00497096
0.00494661
0.00492149
0.00489574
0.0048695
0.00484292
0.00481616
0.00478938
0.00476271
0.00473634
0.0047104
0.00468505
0.00466046
0.00463678
0.00461414
0.00459269
0.00457256
0.00455388
0.00453673
0.00452122
0.00450741
0.00449536
0.00448509
0.00447663
0.00446999
0.00446524
0.00446241
0.00446155
0.00446262
0.00446519
0.004468
0.00446844
1.75284e-05
0.000136015
0.00027681
0.000399863
0.000502269
0.000587329
0.000657724
0.000716634
0.000766734
0.000810218
0.000848846
0.000884016
0.000916845
0.00094811
0.000978361
0.00100815
0.00103787
0.00106778
0.00109806
0.00112883
0.00116017
0.00119217
0.00122481
0.00125805
0.00129186
0.00132621
0.00136105
0.00139634
0.00143204
0.00146813
0.00150455
0.00154128
0.0015783
0.00161558
0.00165316
0.00169099
0.00172905
0.00176721
0.00180543
0.00184371
0.00188205
0.00192046
0.00195894
0.00199753
0.00203622
0.00207502
0.00211395
0.00215301
0.00219221
0.00223155
0.00227104
0.00231069
0.0023505
0.00239048
0.00243063
0.00247097
0.00251149
0.0025522
0.00259311
0.00263421
0.00267551
0.00271701
0.00275871
0.00280061
0.0028427
0.00288498
0.00292745
0.00297009
0.00301291
0.00305589
0.00309902
0.00314229
0.0031857
0.00322922
0.00327284
0.00331656
0.00336035
0.00340419
0.00344808
0.003492
0.00353592
0.00357983
0.00362372
0.00366756
0.00371133
0.00375503
0.00379863
0.00384212
0.00388548
0.00392869
0.00397174
0.00401462
0.0040573
0.00409978
0.00414204
0.00418407
0.00422586
0.00426738
0.00430864
0.00434961
0.00439028
0.00443063
0.00447065
0.00451032
0.00454962
0.00458853
0.00462701
0.00466505
0.00470261
0.00473964
0.00477612
0.004812
0.00484721
0.00488172
0.00491545
0.00494835
0.00498034
0.00501136
0.00504134
0.00507018
0.00509784
0.00512424
0.00514933
0.00517294
0.0051951
0.00521566
0.00523452
0.00525155
0.00526659
0.00527942
0.00529016
0.00529879
0.00530529
0.00530964
0.00531183
0.00531187
0.00530976
0.00530551
0.00529915
0.00529073
0.00528028
0.00526787
0.00525356
0.00523743
0.00521957
0.00520007
0.00517904
0.00515659
0.00513285
0.00510795
0.00508202
0.00505522
0.00502769
0.00499959
0.00497107
0.00494231
0.00491346
0.0048847
0.0048562
0.00482813
0.00480068
0.00477401
0.0047483
0.00472372
0.00470044
0.00467863
0.00465842
0.00463997
0.00462341
0.00460884
0.00459638
0.0045861
0.00457811
0.00457252
0.00456945
0.00456899
0.0045712
0.00457578
0.00458177
0.00458741
1.80992e-05
0.000137843
0.000280945
0.000407575
0.000514044
0.000603434
0.000678119
0.000741099
0.000794954
0.000841851
0.000883452
0.00092103
0.000955889
0.000988919
0.00102084
0.00105225
0.00108339
0.00111448
0.00114572
0.00117724
0.00120912
0.00124141
0.00127412
0.00130726
0.00134083
0.00137481
0.00140917
0.00144388
0.00147891
0.00151421
0.00154979
0.00158559
0.00162161
0.00165778
0.00169416
0.00173075
0.00176758
0.00180463
0.00184169
0.00187875
0.00191578
0.00195278
0.0019898
0.00202686
0.002064
0.00210123
0.00213857
0.00217603
0.00221362
0.00225135
0.00228924
0.0023273
0.00236555
0.00240398
0.00244263
0.00248149
0.00252058
0.00255991
0.00259948
0.00263931
0.0026794
0.00271976
0.00276039
0.00280129
0.00284246
0.00288389