/*--------------------------------*- C++ -*----------------------------------*\
  =========                 |
  \\      /  F ield         | OpenFOAM: The Open Source CFD Toolbox
   \\    /   O peration     | Website:  https://openfoam.org
    \\  /    A nd           | Version:  8
     \\/     M anipulation  |
\*---------------------------------------------------------------------------*/
FoamFile
{
    version     2.0;
    format      ascii;
    class       volScalarField;
    location    "461";
    object      epsilon;
}
// * * * * * * * * * * * * * * * * * * * * * * * * * * * * * * * * * * * * * //

dimensions      [0 2 -3 0 0 0 0];

internalField   nonuniform List<scalar> 
12225
(
295.205
280.094
266.374
252.017
239.973
230.799
224.047
220.972
221.241
223.58
227.793
232.341
240.903
246.249
256.176
261.508
272.353
274.715
53.5137
95.0237
110.664
119.151
130.108
143.461
161.002
180.292
203.737
225.807
252.661
275.035
303.004
322.883
350.302
365.992
391.801
406.363
20.123
34.9527
44.9808
51.0013
56.0843
60.5434
65.8281
71.1927
78.365
85.704
94.5401
102.837
112.402
121.481
130.867
140.719
148.781
159.82
15.2165
19.321
23.6107
27.0372
29.9489
32.337
34.6356
36.7814
39.0341
41.4482
43.9274
46.7529
49.3159
52.5884
55.0693
58.7576
61.0293
64.9915
14.6141
15.6557
16.9356
18.4963
19.9524
21.2613
22.4274
23.5514
24.5325
25.6177
26.5223
27.6731
28.5264
29.7761
30.581
31.9203
32.6747
34.0746
14.6518
14.8163
15.0148
15.5031
16.0667
16.6679
17.218
17.7913
18.2685
18.8075
19.2239
19.7533
20.1263
20.6605
21
21.5458
21.8508
22.4159
14.7342
14.6004
14.5365
14.5737
14.6544
14.8277
15.0101
15.2331
15.4251
15.6587
15.8416
16.0741
16.2422
16.4734
16.625
16.8588
16.9889
17.2336
14.7583
14.588
14.444
14.3508
14.2842
14.2768
14.289
14.327
14.3743
14.4511
14.5129
14.6015
14.6676
14.7628
14.8262
14.9269
14.9823
15.0956
14.7642
14.5926
14.4299
14.293
14.1709
14.0795
14.0069
13.958
13.9188
13.9016
13.8879
13.8892
13.8911
13.9039
13.9121
13.9343
13.9442
13.9815
14.7653
14.5947
14.4309
14.2813
14.1408
14.0162
13.9031
13.8064
13.719
13.6463
13.5809
13.5274
13.4783
13.4406
13.4018
13.3771
13.3435
13.3327
14.7655
14.5946
14.432
14.28
14.1358
14.0018
13.8758
13.7601
13.6519
13.5536
13.4617
13.3792
13.3012
13.2328
13.166
13.1099
13.0516
13.0065
14.7657
14.5942
14.4321
14.2796
14.1352
13.9993
13.8706
13.7498
13.6354
13.5284
13.427
13.3328
13.2431
13.1603
13.0809
13.0084
12.938
12.8746
14.7657
14.594
14.4319
14.2791
14.1347
13.9984
13.8694
13.7475
13.632
13.5229
13.4193
13.3215
13.2286
13.141
13.0576
12.9791
12.9041
12.8337
14.7657
14.5938
14.4317
14.2788
14.1343
13.9978
13.8687
13.7466
13.6308
13.5212
13.4173
13.3187
13.2252
13.1364
13.052
12.972
12.8958
12.8234
14.7657
14.5938
14.4316
14.2785
14.134
13.9973
13.8681
13.7458
13.63
13.5203
13.4162
13.3174
13.2237
13.1347
13.0501
12.9697
12.8932
12.8205
14.7657
14.5937
14.4315
14.2783
14.1337
13.997
13.8677
13.7453
13.6294
13.5195
13.4154
13.3165
13.2227
13.1336
13.0489
12.9683
12.8918
12.8189
14.7657
14.5937
14.4314
14.2782
14.1335
13.9968
13.8674
13.7449
13.6289
13.519
13.4148
13.3159
13.2219
13.1328
13.048
12.9674
12.8907
12.8178
14.7657
14.5937
14.4314
14.2782
14.1334
13.9966
13.8672
13.7448
13.6287
13.5188
13.4145
13.3155
13.2216
13.1323
13.0475
12.9669
12.8902
12.8172
14.7657
14.5937
14.4314
14.2782
14.1335
13.9967
13.8673
13.7448
13.6287
13.5188
13.4145
13.3155
13.2215
13.1323
13.0475
12.9668
12.8901
12.8171
14.7657
14.5937
14.4314
14.2782
14.1336
13.9968
13.8674
13.7449
13.6289
13.519
13.4147
13.3158
13.2218
13.1326
13.0478
12.9672
12.8906
12.8176
14.7657
14.5937
14.4315
14.2783
14.1337
13.997
13.8677
13.7453
13.6294
13.5195
13.4155
13.3167
13.2231
13.1342
13.0499
12.9697
12.8936
12.8212
14.7657
14.5937
14.4316
14.2785
14.134
13.9974
13.8685
13.7466
13.6317
13.5229
13.4204
13.3234
13.232
13.1454
13.064
12.9865
12.9139
12.8445
14.7659
14.5936
14.4317
14.2787
14.1355
14.0008
13.8755
13.7585
13.6501
13.549
13.4558
13.3686
13.2885
13.2131
13.1442
13.0785
13.0192
12.9615
14.7662
14.5927
14.4329
14.2847
14.1532
14.0352
13.9339
13.845
13.7688
13.7014
13.6445
13.5931
13.5504
13.5102
13.4778
13.4452
13.421
13.3932
14.765
14.5937
14.4599
14.3578
14.2998
14.268
14.269
14.2784
14.2992
14.3269
14.3629
14.3963
14.4364
14.4702
14.5118
14.5435
14.5864
14.6142
14.7606
14.6784
14.7229
14.8598
15.087
15.3309
15.5812
15.8152
16.042
16.2456
16.4457
16.622
16.8013
16.9563
17.1222
17.2604
17.4191
17.5429
14.9262
15.3165
16.2774
17.2512
18.139
18.9007
19.5705
20.1484
20.6808
21.1493
21.6082
22.0175
22.4427
22.8208
23.234
23.5927
24.0058
24.3497
16.0293
19.9641
23.4678
25.8751
27.6522
29.0322
30.2264
31.2952
32.333
33.3219
34.355
35.3535
36.4321
37.4596
38.5924
39.6364
40.8215
41.8823
27.6804
42.3615
49.0888
52.4846
54.9686
57.2155
59.5611
62.0598
64.7471
67.5658
70.5642
73.6172
76.8026
79.9656
83.2267
86.4013
89.6509
92.7558
147.713
142.925
138.642
134.247
130.047
126.067
122.533
119.521
116.918
114.779
113.055
111.698
110.689
109.938
109.478
109.169
109.117
109.186
0.125875
0.166152
0.313829
0.44338
0.56273
0.695258
0.850408
1.0394
1.27077
1.54678
1.86318
2.21213
2.58489
2.97313
3.37016
3.77004
4.16886
4.56281
4.95008
5.3281
5.69587
6.05084
6.39143
6.71462
7.01767
7.29809
7.55354
7.78448
7.99183
8.17508
8.31114
8.54407
8.72334
8.90808
9.06344
39.5031
40.1578
40.1083
9.29548
8.76829
9.2376
40.2802
40.7021
41.6846
45.7298
48.5203
52.1588
55.6418
59.4676
63.3681
67.4866
71.7484
76.197
80.8129
85.6113
90.5882
95.7508
101.099
106.638
112.368
118.294
124.415
130.734
137.252
143.971
150.889
158.008
165.325
172.842
180.555
188.463
196.562
204.85
213.321
221.972
230.798
239.791
248.947
258.256
267.713
277.307
287.031
296.873
306.823
316.87
327.002
337.205
347.465
357.767
368.094
378.427
388.745
399.026
409.244
419.375
429.396
439.293
449.081
458.831
468.431
477.907
487.235
496.408
505.407
514.22
522.831
531.225
539.386
547.301
554.955
562.335
569.427
576.219
582.699
588.854
594.674
600.148
605.267
610.023
614.406
618.411
622.03
625.26
628.094
630.531
632.568
634.204
635.44
636.274
636.72
636.742
636.354
635.463
634.274
632.8
630.913
628.612
625.953
622.935
619.571
615.87
611.843
607.502
602.859
597.927
592.717
587.245
581.523
575.567
569.39
563.008
556.434
549.685
542.775
535.719
528.532
521.23
513.828
506.34
498.783
491.174
483.538
475.917
468.484
462.765
459.707
457.02
454.357
451.687
449.011
446.331
443.647
440.952
438.231
435.448
432.525
429.3
425.329
419.615
396.204
0.660984
0.417464
0.424363
0.479198
0.56345
0.673684
0.812762
0.984187
1.19012
1.43004
1.701
1.99836
2.31717
2.65256
3.0005
3.35757
3.72138
4.09006
4.46264
4.83852
5.21754
5.59982
5.98559
6.37637
6.77386
7.18341
7.61147
8.07175
8.58759
9.19653
9.94673
10.9079
12.156
13.8403
16.1771
19.5405
19.0392
18.4563
17.1485
19.7485
21.8083
24.765
25.7695
27.2792
28.9772
30.6
32.3414
34.1125
35.9642
37.8686
39.8435
41.8817
43.9894
46.1653
48.4121
50.7299
53.1202
55.5834
58.1205
60.7317
63.4177
66.1785
69.0143
71.9251
74.9106
77.9705
81.1042
84.311
87.5901
90.9402
94.3602
97.8485
101.403
105.023
108.706
112.449
116.249
120.105
124.013
127.97
131.973
136.017
140.099
144.215
148.36
152.529
156.717
160.918
165.127
169.336
173.539
177.729
181.898
186.04
190.151
194.231
198.289
202.346
206.459
210.526
214.546
218.509
222.413
226.251
230.016
233.703
237.307
240.821
244.24
247.558
250.77
253.87
256.854
259.716
262.452
265.058
267.529
269.861
272.051
274.095
275.99
277.734
279.323
280.757
282.033
283.149
284.106
284.902
285.535
286.006
286.308
286.437
286.408
286.223
285.911
285.433
284.79
283.997
283.054
281.966
280.735
279.367
277.864
276.232
274.474
272.595
270.6
268.495
266.285
263.975
261.57
259.077
256.501
253.848
251.124
248.334
245.485
242.583
239.634
236.645
233.623
230.576
227.525
224.531
221.891
219.784
217.819
215.883
213.955
212.032
210.116
208.207
206.308
204.419
202.538
200.667
198.79
196.953
195.047
191.818
1.43541
0.75232
0.680982
0.711367
0.785658
0.893866
1.03501
1.20969
1.4178
1.65759
1.9259
2.21865
2.53175
2.86144
3.20476
3.5595
3.92431
4.29855
4.68224
5.07597
5.48062
5.89756
6.32816
6.77511
7.24159
7.7343
8.26216
8.84049
9.48251
10.2045
11.0215
11.9489
12.995
14.1415
15.3251
16.4023
16.9558
17.6202
18.5447
19.9775
21.3464
22.6912
23.9
25.2152
26.5799
27.977
29.4299
30.9323
32.4885
34.0959
35.7569
37.4712
39.2401
41.0638
42.943
44.8783
46.8701
48.9189
51.0249
53.1884
55.4097
57.6889
60.0259
62.4206
64.8729
67.3825
69.949
72.5717
75.25
77.9832
80.7702
83.61
86.5014
89.4429
92.433
95.47
98.552
101.677
104.843
108.047
111.287
114.559
117.862
121.192
124.545
127.918
131.307
134.708
138.118
141.532
144.945
148.355
151.758
155.151
158.532
161.904
165.268
168.63
171.982
175.3
178.579
181.815
185.002
188.136
191.212
194.224
197.169
200.041
202.835
205.548
208.174
210.71
213.151
215.493
217.733
219.866
221.889
223.799
225.593
227.268
228.821
230.251
231.555
232.731
233.779
234.696
235.483
236.137
236.658
237.046
237.297
237.402
237.397
237.256
236.997
236.608
236.088
235.444
234.679
233.794
232.793
231.679
230.455
229.125
227.693
226.162
224.535
222.819
221.016
219.131
217.169
215.135
213.032
210.866
208.641
206.363
204.036
201.666
199.256
196.813
194.343
191.853
189.356
186.888
184.555
182.421
180.373
178.358
176.358
174.37
172.395
170.435
168.492
166.573
164.682
162.833
161.043
159.392
157.886
156.463
2.35123
1.13383
0.975781
0.981445
1.05208
1.16492
1.31386
1.49688
1.71247
1.9584
2.23165
2.52872
2.84619
3.18108
3.53112
3.89486
4.27159
4.66137
5.06479
5.48307
5.9175
6.36984
6.84149
7.33454
7.8507
8.39319
8.96535
9.57238
10.2198
10.9143
11.6631
12.4718
13.3443
14.2773
15.2535
16.2153
17.1292
18.0805
19.1305
20.3014
21.4893
22.6887
23.909
25.1793
26.492
27.8458
29.2458
30.6933
32.1894
33.7347
35.3301
36.9762
38.6738
40.4234
42.2258
44.0814
45.9909
47.9545
49.9728
52.0462
54.1749
56.3592
58.5992
60.8952
63.247
65.6546
68.1178
70.6362
73.2093
75.8367
78.5175
81.2509
84.036
86.8715
89.7562
92.6884
95.6667
98.6891
101.754
104.858
108
111.177
114.386
117.625
120.889
124.177
127.484
130.807
134.142
137.487
140.836
144.188
147.538
150.884
154.225
157.557
160.881
164.192
167.48
170.735
173.953
177.127
180.253
183.326
186.342
189.294
192.178
194.989
197.724
200.376
202.941
205.416
207.796
210.077
212.254
214.325
216.286
218.134
219.865
221.477
222.967
224.334
225.575
226.688
227.673
228.528
229.251
229.844
230.303
230.63
230.814
230.871
230.81
230.616
230.298
229.853
229.282
228.589
227.776
226.845
225.801
224.646
223.384
222.018
220.552
218.99
217.336
215.594
213.769
211.865
209.887
207.838
205.725
203.551
201.322
199.042
196.717
194.35
191.947
189.514
187.056
184.58
182.096
179.63
177.229
174.926
172.681
170.469
168.275
166.1
163.943
161.807
159.697
157.62
155.585
153.611
151.72
149.995
148.462
147.179
3.29427
1.53235
1.28114
1.26036
1.32395
1.43786
1.59107
1.77919
1.99954
2.24956
2.52637
2.82694
3.14836
3.48815
3.84445
4.21615
4.60279
5.00462
5.42234
5.85724
6.31061
6.78417
7.27921
7.79743
8.33994
8.9085
9.50464
10.1307
10.7894
11.4837
12.2169
12.9917
13.8111
14.6767
15.5868
16.5279
17.4944
18.4961
19.5452
20.6525
21.8034
22.9889
24.2129
25.4814
26.7942
28.1512
29.5544
31.0052
32.505
34.0546
35.6552
37.3075
39.0125
40.7712
42.5844
44.4533
46.3781
48.3595
50.3982
52.4948
54.6499
56.8641
59.1377
61.4711
63.8646
66.3184
68.8324
71.4067
74.041
76.7351
79.4882
82.3
85.1694
88.0955
91.0771
94.1128
97.2011
100.34
103.528
106.762
110.041
113.361
116.719
120.114
123.54
126.996
130.478
133.981
137.502
141.037
144.583
148.135
151.69
155.243
158.791
162.329
165.851
169.353
172.826
176.266
179.664
183.017
186.318
189.561
192.743
195.856
198.895
201.856
204.733
207.521
210.215
212.81
215.302
217.687
219.959
222.116
224.153
226.068
227.856
229.515
231.042
232.436
233.693
234.813
235.794
236.635
237.335
237.893
238.31
238.579
238.696
238.693
238.549
238.267
237.85
237.299
236.616
235.803
234.863
233.8
232.617
231.318
229.906
228.386
226.762
225.038
223.219
221.309
219.313
217.236
215.083
212.859
210.568
208.217
205.811
203.354
200.851
198.309
195.732
193.125
190.495
187.848
185.194
182.549
179.941
177.388
174.878
172.398
169.941
167.507
165.098
162.718
160.372
158.069
155.822
153.652
151.59
149.707
148.025
146.548
4.20511
1.92344
1.57869
1.53071
1.58472
1.69664
1.85078
2.04055
2.26223
2.51295
2.78993
3.09048
3.41207
3.7526
4.11046
4.48471
4.87493
5.28138
5.70464
6.14586
6.60619
7.08719
7.59014
8.11662
8.66777
9.24511
9.84991
10.4838
11.1487
11.8463
12.5789
13.3486
14.1577
15.0082
15.9015
16.8354
17.8091
18.8237
19.8821
20.9861
22.1341
23.325
24.5603
25.842
27.1709
28.5476
29.9733
31.4494
32.9773
34.5581
36.1932
37.8837
39.6307
41.4355
43.299
45.2221
47.2064
49.2529
51.3628
53.537
55.7765
58.0821
60.4546
62.8948
65.4031
67.9801
70.6261
73.3413
76.1256
78.9791
81.9013
84.8917
87.9497
91.0742
94.264
97.5179
100.834
104.211
107.646
111.137
114.681
118.275
121.917
125.602
129.328
133.09
136.884
140.707
144.552
148.417
152.297
156.186
160.079
163.972
167.859
171.734
175.59
179.422
183.221
186.982
190.699
194.363
197.971
201.514
204.987
208.383
211.697
214.923
218.054
221.084
224.01
226.824
229.521
232.098
234.549
236.87
239.057
241.106
243.013
244.775
246.39
247.855
249.169
250.328
251.333
252.181
252.873
253.407
253.784
253.991
254.049
253.961
253.719
253.324
252.782
252.092
251.257
250.282
249.168
247.921
246.543
245.04
243.415
241.674
239.821
237.861
235.799
233.64
231.391
229.056
226.641
224.151
221.593
218.972
216.294
213.564
210.789
207.973
205.123
202.245
199.344
196.428
193.504
190.587
187.692
184.833
182.008
179.213
176.445
173.706
170.997
168.326
165.698
163.123
160.616
158.201
155.908
153.799
151.884
150.101
5.04693
2.29082
1.85586
1.78011
1.82255
1.92986
2.08193
2.27014
2.48982
2.73776
3.01123
3.30778
3.62519
3.96166
4.31578
4.68675
5.07419
5.47832
5.89964
6.33917
6.79799
7.27754
7.77913
8.30439
8.85467
9.43156
10.0365
10.6711
11.337
12.036
12.7698
13.5404
14.3496
15.1991
16.0905
17.0244
18.001
19.0213
20.086
21.1965
22.3532
23.5569
24.8091
26.1109
27.4636
28.8683
30.3262
31.8388
33.4077
35.0344
36.7205
38.4674
40.2768
42.1502
44.089
46.0949
48.1695
50.3143
52.5307
54.8202
57.1841
59.6237
62.1402
64.7345
67.4078
70.1607
72.994
75.9079
78.903
81.9791
85.1362
88.3738
91.6913
95.0878
98.5621
102.113
105.738
109.435
113.203
117.038
120.937
124.897
128.915
132.986
137.106
141.271
145.476
149.716
153.986
158.28
162.592
166.916
171.247
175.578
179.901
184.211
188.499
192.758
196.98
201.159
205.286
209.354
213.357
217.286
221.135
224.896
228.563
232.128
235.585
238.928
242.149
245.244
248.206
251.029
253.709
256.241
258.619
260.841
262.901
264.797
266.526
268.085
269.471
270.684
271.722
272.583
273.268
273.777
274.104
274.245
274.227
274.037
273.674
273.144
272.447
271.588
270.568
269.393
268.066
266.592
264.975
263.22
261.333
259.318
257.182
254.93
252.568
250.103
247.539
244.885
242.145
239.327
236.437
233.48
230.465
227.396
224.281
221.125
217.936
214.718
211.48
208.228
204.969
201.714
198.477
195.267
192.087
188.937
185.819
182.735
179.689
176.689
173.741
170.857
168.053
165.353
162.786
160.405
158.201
156.07
5.79364
2.62224
2.10324
1.9998
2.02913
2.12955
2.27692
2.46074
2.67547
2.91755
3.18425
3.47331
3.78276
4.11106
4.45703
4.81998
5.19963
5.59623
6.0103
6.44282
6.89485
7.36777
7.86282
8.38168
8.92603
9.49755
10.0979
10.7286
11.3915
12.0883
12.8207
13.5905
14.3993
15.2488
16.1405
17.0757
18.0552
19.0804
20.1523
21.2723
22.4416
23.6617
24.9339
26.2596
27.6404
29.078
30.5739
32.13
33.7483
35.4306
37.179
38.9954
40.8818
42.8403
44.8728
46.9815
49.1683
51.4352
53.7843
56.2174
58.7363
61.3428
64.0384
66.8247
69.703
72.6744
75.7399
78.9004
82.1561
85.5075
88.9546
92.4969
96.1339
99.8647
103.688
107.602
111.604
115.694
119.866
124.119
128.45
132.853
137.325
141.861
146.456
151.105
155.802
160.541
165.315
170.119
174.944
179.785
184.632
189.48
194.318
199.14
203.936
208.697
213.416
218.084
222.692
227.232
231.695
236.074
240.359
244.543
248.617
252.574
256.407
260.107
263.668
267.083
270.345
273.448
276.387
279.155
281.748
284.162
286.392
288.435
290.286
291.945
293.408
294.673
295.741
296.609
297.278
297.748
298.009
298.075
297.952
297.636
297.128
296.433
295.552
294.491
293.252
291.841
290.262
288.521
286.622
284.573
282.378
280.044
277.579
274.987
272.277
269.455
266.528
263.503
260.388
257.189
253.915
250.571
247.166
243.706
240.199
236.651
233.07
229.463
225.836
222.196
218.552
214.913
211.289
207.689
204.119
200.581
197.08
193.62
190.205
186.843
183.545
180.321
177.188
174.169
171.293
168.602
166.074
163.574
6.42904
2.90961
2.31479
2.18435
2.19945
2.29107
2.43147
2.6085
2.8158
3.0495
3.30683
3.58568
3.88429
4.20136
4.53594
4.88748
5.2557
5.6409
6.04392
6.46584
6.90785
7.37155
7.85876
8.37069
8.90848
9.47377
10.0682
10.6935
11.3514
12.0437
12.7721
13.5383
14.3443
15.1916
16.0818
17.0167
17.9975
19.0258
20.1032
21.2313
22.4121
23.6476
24.9403
26.2929
27.7061
29.1811
30.7202
32.3261
34.0015
35.7486
37.57
39.4681
41.4455
43.5047
45.6484
47.8792
50.1995
52.6121
55.1193
57.7237
60.4276
63.2332
66.1426
69.1577
72.2803
75.5119
78.8538
82.307
85.8723
89.55
93.3403
97.2428
101.257
105.381
109.615
113.955
118.401
122.948
127.593
132.333
137.164
142.081
147.078
152.151
157.293
162.497
167.758
173.067
178.417
183.801
189.209
194.633
200.064
205.493
210.911
216.307
221.672
226.995
232.268
237.48
242.621
247.682
252.654
257.526
262.289
266.934
271.452
275.834
280.072
284.157
288.081
291.837
295.417
298.815
302.024
305.039
307.853
310.462
312.862
315.048
317.017
318.767
320.296
321.601
322.683
323.54
324.173
324.579
324.754
324.716
324.46
323.988
323.303
322.41
321.311
320.011
318.516
316.83
314.96
312.911
310.691
308.305
305.76
303.065
300.226
297.252
294.149
290.926
287.591
284.152
280.617
276.994
273.291
269.517
265.679
261.785
257.843
253.861
249.846
245.807
241.75
237.683
233.614
229.552
225.506
221.485
217.495
213.542
209.631
205.766
201.956
198.208
194.532
190.942
187.454
184.09
180.875
177.844
174.965
172.087
6.94465
3.14838
2.48742
2.33127
2.3315
2.41278
2.54432
2.71256
2.91043
3.13377
3.37977
3.64644
3.93217
4.23564
4.55665
4.89523
5.25194
5.62723
6.02085
6.43355
6.86637
7.3206
7.7974
8.29838
8.82505
9.37944
9.96339
10.5787
11.2273
11.911
12.6316
13.3912
14.1915
15.0344
15.922
16.8561
17.8385
18.8714
19.9568
21.0967
22.2936
23.5496
24.8667
26.2471
27.6938
29.2106
30.7995
32.4635
34.2057
36.0292
37.9369
39.932
42.0174
44.1965
46.4725
48.8485
51.3279
53.9137
56.6091
59.4171
62.3406
65.3824
68.545
71.8309
75.2421
78.7806
82.4479
86.2452
90.1735
94.2331
98.4241
102.746
107.198
111.779
116.487
121.32
126.274
131.346
136.532
141.828
147.228
152.727
158.318
163.995
169.751
175.577
181.466
187.41
193.398
199.422
205.471
211.536
217.606
223.67
229.717
235.736
241.716
247.644
253.511
259.305
265.014
270.628
276.136
281.527
286.791
291.917
296.895
301.715
306.368
310.845
315.137
319.235
323.132
326.82
330.293
333.543
336.566
339.356
341.908
344.219
346.285
348.103
349.672
350.99
352.057
352.872
353.436
353.746
353.807
353.624
353.198
352.532
351.632
350.502
349.145
347.567
345.775
343.774
341.571
339.174
336.589
333.825
330.89
327.792
324.54
321.141
317.606
313.942
310.16
306.267
302.273
298.188
294.019
289.777
285.469
281.105
276.694
272.243
267.761
263.256
258.737
254.211
249.686
245.172
240.676
236.208
231.775
227.383
223.039
218.75
214.524
210.368
206.295
202.318
198.453
194.721
191.144
187.752
184.502
181.24
7.33853
3.33731
2.62098
2.43973
2.42581
2.49554
2.61669
2.7745
2.96136
3.1728
3.40587
3.65923
3.93205
4.22442
4.53463
4.86206
5.20635
5.56752
5.94655
6.34464
6.76297
7.20282
7.66561
8.15313
8.66734
9.20982
9.78233
10.3868
11.0251
11.6992
12.4113
13.1635
13.9579
14.7968
15.6824
16.617
17.603
18.6429
19.7393
20.8948
22.1121
23.3941
24.7438
26.164
27.6585
29.2291
30.879
32.6138
34.4382
36.3558
38.3699
40.4841
42.7023
45.0283
47.466
50.0194
52.6924
55.4887
58.4122
61.4664
64.6548
67.9806
71.447
75.0565
78.8118
82.7148
86.7675
90.9709
95.3261
99.8333
104.492
109.303
114.263
119.371
124.624
130.02
135.554
141.223
147.021
152.942
158.98
165.129
171.381
177.727
184.159
190.669
197.245
203.878
210.558
217.272
224.01
230.76
237.509
244.245
250.956
257.629
264.25
270.808
277.289
283.681
289.972
296.149
302.199
308.112
313.876
319.478
324.909
330.157
335.213
340.065
344.706
349.125
353.314
357.266
360.974
364.43
367.628
370.564
373.233
375.631
377.754
379.6
381.168
382.456
383.464
384.193
384.643
384.816
384.715
384.341
383.698
382.794
381.633
380.22
378.56
376.659
374.525
372.164
369.586
366.797
363.807
360.624
357.257
353.716
350.011
346.151
342.146
338.005
333.74
329.36
324.874
320.294
315.628
310.887
306.081
301.218
296.309
291.362
286.387
281.392
276.386
271.377
266.373
261.384
256.419
251.485
246.591
241.745
236.953
232.224
227.566
222.989
218.503
214.123
209.866
205.75
201.795
198.026
194.395
190.748
7.61467
3.47709
2.71645
2.51247
2.48454
2.54196
2.65155
2.79756
2.97241
3.17214
3.39485
3.63763
3.89874
4.17651
4.47082
4.78189
5.10999
5.45591
5.8205
6.20457
6.60921
7.03573
7.4856
7.96052
8.46227
8.99271
9.55374
10.1474
10.7759
11.4414
12.1464
12.8931
13.6842
14.5223
15.41
16.3503
17.346
18.4002
19.5161
20.6968
21.9457
23.2666
24.6634
26.1384
27.6934
29.3342
31.068
32.8987
34.8313
36.8722
39.0249
41.2935
43.6827
46.197
48.8411
51.6196
54.5372
57.5983
60.8071
64.1679
67.6846
71.3607
75.1996
79.2044
83.3775
87.7211
92.2369
96.9259
101.789
106.825
112.034
117.415
122.966
128.683
134.563
140.603
146.796
153.138
159.622
166.241
172.988
179.853
186.828
193.904
201.068
208.312
215.623
222.99
230.399
237.838
245.295
252.755
260.204
267.629
275.015
282.348
289.614
296.799
303.888
310.868
317.725
324.445
331.016
337.425
343.658
349.704
355.552
361.189
366.604
371.788
376.73
381.42
385.851
390.014
393.902
397.508
400.825
403.85
406.577
409.002
411.122
412.936
414.443
415.64
416.53
417.114
417.392
417.369
417.05
416.425
415.511
414.314
412.838
411.09
409.075
406.802
404.278
401.511
398.511
395.287
391.849
388.206
384.369
380.348
376.154
371.797
367.289
362.641
357.862
352.966
347.961
342.86
337.673
332.41
327.083
321.7
316.274
310.812
305.325
299.823
294.313
288.806
283.31
277.833
272.386
266.975
261.611
256.301
251.053
245.875
240.777
235.77
230.863
226.073
221.413
216.903
212.56
208.405
204.388
200.36
7.78351
3.57127
2.77683
2.55287
2.51126
2.55592
2.65399
2.79013
2.95534
3.14425
3.35311
3.58057
3.82571
4.08809
4.36772
4.66447
4.9786
5.31072
5.66162
6.03231
6.42394
6.83789
7.2757
7.73913
8.23004
8.75049
9.3026
9.88868
10.5112
11.1726
11.8759
12.6237
13.4193
14.2657
15.1661
16.1238
17.1426
18.2269
19.3802
20.6058
21.907
23.2861
24.7466
26.2963
27.9427
29.6919
31.549
33.5191
35.608
37.8224
40.1673
42.648
45.2698
48.0381
50.9586
54.0364
57.2767
60.6846
64.2645
68.0211
71.9584
76.08
80.3895
84.8894
89.5822
94.4695
99.5524
104.831
110.306
115.975
121.837
127.89
134.129
140.551
147.151
153.924
160.862
167.958
175.204
182.592
190.112
197.753
205.506
213.357
221.296
229.309
237.383
245.504
253.658
261.832
270.009
278.175
286.314
294.411
302.451
310.417
318.294
326.067
333.721
341.241
348.612
355.819
362.85
369.69
376.326
382.745
388.936
394.885
400.583
406.018
411.18
416.06
420.649
424.939
428.922
432.592
435.943
438.971
441.671
444.039
446.075
447.775
449.139
450.167
450.861
451.223
451.255
450.972
450.352
449.412
448.162
446.608
444.757
442.615
440.19
437.49
434.524
431.302
427.834
424.131
420.203
416.061
411.717
407.181
402.466
397.583
392.544
387.362
382.047
376.612
371.068
365.428
359.702
353.903
348.041
342.127
336.171
330.185
324.179
318.161
312.142
306.131
300.137
294.169
288.235
282.346
276.51
270.735
265.029
259.403
253.865
248.426
243.099
237.895
232.832
227.926
223.191
218.649
214.247
209.847
7.84532
3.62101
2.80455
2.56419
2.51088
2.54622
2.63468
2.7588
2.91026
3.08475
3.27976
3.49377
3.72565
3.97488
4.24131
4.52509
4.82658
5.14647
5.48561
5.84514
6.22633
6.63071
7.06
7.51616
8.00133
8.5179
9.06833
9.65525
10.2815
10.9501
11.6644
12.4284
13.2461
14.1206
15.0556
16.055
17.1222
18.2589
19.4706
20.7642
22.1459
23.6224
25.2007
26.8864
28.6865
30.6077
32.6564
34.8395
37.1641
39.6368
42.264
45.0523
48.0081
51.1376
54.447
57.9419
61.6277
65.5093
69.5915
73.8782
78.3733
83.0799
88.0006
93.1372
98.4911
104.063
109.852
115.857
122.077
128.509
135.149
141.992
149.034
156.269
163.688
171.286
179.052
186.978
195.054
203.268
211.61
220.067
228.626
237.274
245.998
254.781
263.611
272.471
281.345
290.219
299.075
307.897
316.668
325.373
333.994
342.516
350.921
359.193
367.317
375.278
383.059
390.647
398.027
405.184
412.107
418.781
425.195
431.337
437.195
442.758
448.018
452.964
457.588
461.883
465.841
469.456
472.724
475.639
478.199
480.4
482.242
483.722
484.841
485.601
486.001
486.049
485.76
485.11
484.112
482.779
481.117
479.136
476.842
474.242
471.346
468.162
464.702
460.976
456.994
452.769
448.312
443.636
438.751
433.671
428.409
422.976
417.386
411.651
405.783
399.797
393.703
387.515
381.244
374.903
368.502
362.055
355.571
349.061
342.537
336.007
329.483
322.973
316.486
310.033
303.621
297.261
290.961
284.729
278.575
272.509
266.539
260.677
254.935
249.326
243.864
238.566
233.446
228.522
223.743
218.987
7.83144
3.63293
2.8053
2.55577
2.49355
2.51663
2.59201
2.70351
2.84295
3.00561
3.18883
3.39108
3.61147
3.84958
4.10538
4.37914
4.67142
4.98308
5.31523
5.66918
6.04645
6.44884
6.87837
7.33741
7.82869
8.35567
8.92116
9.52802
10.1796
10.8796
11.6312
12.4372
13.2998
14.2265
15.2232
16.2955
17.4494
18.6923
20.0304
21.4697
23.0175
24.6819
26.4709
28.3918
30.4524
32.6604
35.0238
37.5502
40.2474
43.1241
46.1876
49.4461
52.9062
56.5745
60.4571
64.5592
68.8855
73.4399
78.2257
83.2456
88.5017
93.9953
99.727
105.697
111.903
118.344
125.018
131.92
139.046
146.39
153.947
161.71
169.67
177.819
186.147
194.645
203.301
212.104
221.042
230.102
239.271
248.535
257.879
267.289
276.749
286.244
295.758
305.274
314.775
324.245
333.667
343.024
352.299
361.475
370.534
379.461
388.238
396.85
405.28
413.513
421.535
429.33
436.884
444.183
451.215
457.968
464.428
470.585
476.429
481.948
487.133
491.976
496.47
500.606
504.379
507.783
510.814
513.469
515.745
517.64
519.152
520.282
521.033
521.404
521.394
521.042
520.297
519.188
517.722
515.907
513.752
511.267
508.457
505.333
501.903
498.18
494.173
489.895
485.357
480.573
475.553
470.312
464.862
459.216
453.388
447.391
441.238
434.943
428.519
421.978
415.335
408.602
401.791
394.914
387.985
381.014
374.014
366.994
359.967
352.941
345.927
338.936
331.975
325.055
318.184
311.371
304.626
297.958
291.375
284.886
278.503
272.235
266.095
260.096
254.251
248.576
243.083
237.792
232.651
227.559
7.78899
3.62664
2.79233
2.53109
2.4573
2.46962
2.53467
2.63603
2.76547
2.91856
3.09279
3.28682
3.49993
3.7319
3.98285
4.25334
4.54422
4.85684
5.19315
5.55491
5.94379
6.36204
6.81218
7.29686
7.81847
8.3782
8.98068
9.63155
10.3359
11.0989
11.926
12.8237
13.7993
14.8583
16.0078
17.2554
18.6094
20.0787
21.672
23.3977
25.265
27.2833
29.4618
31.8098
34.3363
37.0502
39.9602
43.0743
46.3997
49.942
53.7122
57.7227
61.9774
66.481
71.2392
76.2546
81.5288
87.0619
92.8536
98.9029
105.208
111.766
118.574
125.628
132.922
140.451
148.209
156.189
164.381
172.778
181.37
190.147
199.099
208.214
217.481
226.888
236.422
246.07
255.817
265.651
275.557
285.521
295.526
305.558
315.602
325.64
335.657
345.637
355.563
365.417
375.185
384.849
394.391
403.797
413.049
422.132
431.029
439.726
448.206
456.456
464.461
472.207
479.681
486.869
493.761
500.344
506.608
512.542
518.135
523.379
528.265
532.786
536.934
540.704
544.091
547.089
549.696
551.91
553.727
555.148
556.174
556.799
557.037
556.887
556.362
555.439
554.139
552.469
550.435
548.046
545.312
542.243
538.846
535.131
531.11
526.794
522.194
517.324
512.196
506.822
501.216
495.391
489.361
483.14
476.74
470.177
463.464
456.615
449.642
442.56
435.382
428.121
420.79
413.401
405.967
398.499
391.009
383.508
376.006
368.515
361.044
353.602
346.199
338.843
331.545
324.313
317.155
310.081
303.099
296.22
289.452
282.807
276.296
269.933
263.73
257.702
251.859
246.223
240.743
235.343
7.69888
3.60083
2.76148
2.49195
2.41072
2.41549
2.47345
2.56851
2.69268
2.84184
3.01388
3.2081
3.42425
3.66219
3.92242
4.20589
4.51375
4.84716
5.20653
5.59445
6.01509
6.47225
6.96995
7.51259
8.10517
8.75414
9.46517
10.2445
11.0993
12.0376
13.0678
14.1995
15.4426
16.8067
18.302
19.9391
21.7293
23.6843
25.8154
28.1337
30.6502
33.3755
36.3201
39.4941
42.9066
46.5658
50.479
54.6532
59.0936
63.8035
68.7861
74.0402
79.5703
85.3814
91.4869
97.8796
104.551
111.493
118.696
126.153
133.855
141.794
149.96
158.345
166.939
175.731
184.71
193.867
203.19
212.668
222.289
232.041
241.912
251.891
261.964
272.12
282.345
292.626
302.95
313.304
323.674
334.047
344.407
354.742
365.035
375.274
385.442
395.525
405.507
415.374
425.111
434.702
444.132
453.387
462.451
471.311
479.952
488.359
496.521
504.423
512.052
519.396
526.443
533.182
539.601
545.691
551.442
556.845
561.89
566.57
570.877
574.806
578.35
581.503
584.263
586.626
588.588
590.152
591.311
592.069
592.433
592.379
591.977
591.142
589.929
588.333
586.361
584.02
581.318
578.264
574.87
571.144
567.095
562.733
558.071
553.12
547.893
542.403
536.662
530.684
524.483
518.071
511.464
504.674
497.715
490.603
483.349
475.969
468.476
460.884
453.205
445.452
437.64
429.779
421.882
413.96
406.026
398.089
390.161
382.251
374.37
366.526
358.728
350.986
343.308
335.702
328.178
320.744
313.408
306.181
299.071
292.089
285.247
278.557
272.031
265.684
259.525
253.577
247.788
242.118
7.59755
3.55261
2.7172
2.44676
2.36406
2.36839
2.42857
2.52834
2.65997
2.81961
3.00511
3.21484
3.44867
3.70859
3.9965
4.31473
4.66613
5.05425
5.48388
5.95986
6.48743
7.07322
7.72477
8.45046
9.25969
10.1632
11.1721
12.2986
13.5555
14.9563
16.5156
18.2485
20.1707
22.298
24.645
27.2262
30.0555
33.1467
36.5123
40.1628
44.1064
48.3505
52.9017
57.7659
62.9452
68.4388
74.2459
80.3673
86.8002
93.5343
100.558
107.857
115.421
123.241
131.299
139.614
148.169
156.937
165.902
175.045
184.354
193.814
203.414
213.14
222.98
232.924
242.959
253.076
263.263
273.509
283.806
294.143
304.51
314.897
325.295
335.694
346.084
356.454
366.796
377.099
387.351
397.544
407.664
417.702
427.646
437.484
447.204
456.794
466.242
475.536
484.662
493.609
502.365
510.916
519.25
527.355
535.22
542.832
550.179
557.251
564.036
570.524
576.704
582.566
588.1
593.299
598.155