/*--------------------------------*- C++ -*----------------------------------*\
  =========                 |
  \\      /  F ield         | OpenFOAM: The Open Source CFD Toolbox
   \\    /   O peration     | Website:  https://openfoam.org
    \\  /    A nd           | Version:  8
     \\/     M anipulation  |
\*---------------------------------------------------------------------------*/
FoamFile
{
    version     2.0;
    format      ascii;
    class       volVectorField;
    location    "400";
    object      U;
}
// * * * * * * * * * * * * * * * * * * * * * * * * * * * * * * * * * * * * * //

dimensions      [0 1 -1 0 0 0 0];

internalField   nonuniform List<vector> 
12225
(
(9.2745 -4.73371 0)
(13.1094 -1.71343 0)
(12.4779 -0.395198 0)
(11.2772 -0.0422044 0)
(10.6315 0.0141448 0)
(10.2982 -8.43464e-05 0)
(10.078 -0.0165004 0)
(9.91237 -0.00383701 0)
(9.77807 0.0333575 0)
(9.66015 0.0419179 0)
(9.55299 0.0243315 0)
(9.45502 0.00245471 0)
(9.36461 -0.0215822 0)
(9.28067 -0.028674 0)
(9.20148 -0.0204747 0)
(9.13253 -0.0213381 0)
(9.07143 -0.022011 0)
(9.08942 -0.0278916 0)
(10.2592 0.0928016 0)
(10.7814 0.199337 0)
(10.9594 0.245653 0)
(10.747 0.229139 0)
(10.5876 0.172967 0)
(10.4528 0.115561 0)
(10.3302 0.0823236 0)
(10.2332 0.0642487 0)
(10.1561 0.0512415 0)
(10.0906 0.0456749 0)
(10.0333 0.0457297 0)
(9.9826 0.0482259 0)
(9.93786 0.0514253 0)
(9.89798 0.0518497 0)
(9.86109 0.0486248 0)
(9.82856 0.0447319 0)
(9.79429 0.031364 0)
(9.76868 0.0108735 0)
(9.87768 -0.24504 0)
(9.74285 0.00578837 0)
(10.1971 0.125739 0)
(10.3245 0.179358 0)
(10.3565 0.161543 0)
(10.3312 0.120074 0)
(10.2778 0.0904153 0)
(10.2254 0.0742434 0)
(10.1816 0.0650361 0)
(10.1442 0.0590085 0)
(10.1107 0.0552771 0)
(10.0802 0.0529902 0)
(10.0521 0.0508332 0)
(10.0261 0.0487571 0)
(10.0024 0.0462708 0)
(9.98154 0.0420442 0)
(9.9597 0.0318916 0)
(9.93517 0.0134542 0)
(9.83416 -0.443933 0)
(9.57654 -0.163149 0)
(9.91604 0.0336651 0)
(10.0933 0.134216 0)
(10.1893 0.145463 0)
(10.2168 0.120714 0)
(10.205 0.0977863 0)
(10.1825 0.0836145 0)
(10.16 0.0751618 0)
(10.1391 0.0691575 0)
(10.1193 0.0645908 0)
(10.1004 0.0612079 0)
(10.0823 0.0583432 0)
(10.065 0.0560988 0)
(10.0486 0.0538183 0)
(10.033 0.0501012 0)
(10.0154 0.0422505 0)
(9.99233 0.030139 0)
(9.87825 -0.387476 0)
(9.61653 -0.196151 0)
(9.81624 -0.0186769 0)
(9.96137 0.0916024 0)
(10.0698 0.122181 0)
(10.1219 0.113589 0)
(10.1354 0.0991594 0)
(10.1332 0.0882424 0)
(10.1257 0.0807324 0)
(10.1163 0.0751458 0)
(10.1058 0.0708436 0)
(10.0948 0.0676054 0)
(10.0835 0.065008 0)
(10.072 0.0629465 0)
(10.0604 0.0608508 0)
(10.0481 0.0578554 0)
(10.0333 0.0526779 0)
(10.0129 0.0462559 0)
(9.91439 -0.28804 0)
(9.68304 -0.18518 0)
(9.78718 -0.0532157 0)
(9.88918 0.050986 0)
(9.98799 0.0936585 0)
(10.0476 0.0991581 0)
(10.0751 0.0937852 0)
(10.0861 0.0874103 0)
(10.0891 0.082026 0)
(10.088 0.0776593 0)
(10.0844 0.0742047 0)
(10.0792 0.0715707 0)
(10.0728 0.0695208 0)
(10.0656 0.0679291 0)
(10.0574 0.0664484 0)
(10.0479 0.0646801 0)
(10.0357 0.0622725 0)
(10.0188 0.0604684 0)
(9.93763 -0.214042 0)
(9.74856 -0.167541 0)
(9.79244 -0.0752257 0)
(9.8561 0.0162034 0)
(9.93597 0.0643942 0)
(9.99283 0.0805458 0)
(10.0261 0.0834869 0)
(10.0446 0.0821727 0)
(10.0546 0.0797327 0)
(10.0593 0.0772386 0)
(10.0607 0.0750876 0)
(10.0598 0.0734139 0)
(10.0572 0.0721876 0)
(10.0533 0.0713803 0)
(10.0479 0.0708722 0)
(10.0409 0.0706019 0)
(10.0314 0.0707345 0)
(10.0184 0.0724592 0)
(9.95263 -0.167335 0)
(9.79947 -0.149682 0)
(9.81178 -0.0846511 0)
(9.84959 -0.00622646 0)
(9.91142 0.0419061 0)
(9.96109 0.0638559 0)
(9.99432 0.0724964 0)
(10.0156 0.0752398 0)
(10.0289 0.0755002 0)
(10.0368 0.0748715 0)
(10.0411 0.0740846 0)
(10.0428 0.0734693 0)
(10.0427 0.0731544 0)
(10.0409 0.0732185 0)
(10.0377 0.0737031 0)
(10.0327 0.0747405 0)
(10.0255 0.0766964 0)
(10.0158 0.0805814 0)
(9.96406 -0.13209 0)
(9.84003 -0.131994 0)
(9.83337 -0.0877012 0)
(9.85306 -0.0213512 0)
(9.89928 0.0243862 0)
(9.94103 0.049468 0)
(9.97207 0.0620667 0)
(9.99385 0.0680259 0)
(10.0087 0.0706581 0)
(10.0184 0.0717524 0)
(10.0247 0.0722447 0)
(10.0283 0.0726314 0)
(10.0299 0.0731807 0)
(10.0298 0.0740771 0)
(10.0282 0.0754742 0)
(10.0249 0.0776095 0)
(10.0198 0.0809172 0)
(10.0129 0.0862226 0)
(9.97418 -0.100206 0)
(9.87757 -0.112396 0)
(9.85857 -0.0853787 0)
(9.86388 -0.0323531 0)
(9.89488 0.00889755 0)
(9.92743 0.0351782 0)
(9.9544 0.0506613 0)
(9.97502 0.0594434 0)
(9.99016 0.0643964 0)
(10.001 0.0673036 0)
(10.0085 0.0692133 0)
(10.0136 0.0707479 0)
(10.0167 0.0722931 0)
(10.0181 0.0741266 0)
(10.018 0.0764935 0)
(10.0165 0.0796932 0)
(10.0136 0.0841558 0)
(10.0095 0.0905083 0)
(9.98253 -0.0727106 0)
(9.91035 -0.0922037 0)
(9.88508 -0.0782575 0)
(9.88002 -0.0386287 0)
(9.89747 -0.00340597 0)
(9.92044 0.0221243 0)
(9.94196 0.0391303 0)
(9.96 0.0500245 0)
(9.97426 0.0569975 0)
(9.98521 0.0616339 0)
(9.99344 0.064981 0)
(9.99948 0.0677254 0)
(10.0037 0.0703307 0)
(10.0065 0.0731458 0)
(10.0079 0.0764726 0)
(10.0081 0.0806315 0)
(10.0073 0.0860011 0)
(10.0058 0.0930237 0)
(9.98894 -0.0502583 0)
(9.93733 -0.0723864 0)
(9.91073 -0.0674622 0)
(9.89918 -0.0400049 0)
(9.90567 -0.0116822 0)
(9.91956 0.0114084 0)
(9.93497 0.0284772 0)
(9.94934 0.04052 0)
(9.96171 0.0489558 0)
(9.9719 0.0550273 0)
(9.98012 0.0596697 0)
(9.98663 0.063558 0)
(9.99167 0.0671849 0)
(9.99548 0.0709316 0)
(9.99822 0.0751207 0)
(10.0001 0.0800564 0)
(10.0012 0.0860431 0)
(10.0021 0.0933672 0)
(9.99348 -0.0329103 0)
(9.9582 -0.0538199 0)
(9.93369 -0.0542983 0)
(9.91899 -0.03681 0)
(9.91756 -0.0154859 0)
(9.92366 0.00395159 0)
(9.93301 0.0197218 0)
(9.94318 0.0318128 0)
(9.95291 0.0409346 0)
(9.96164 0.047927 0)
(9.96923 0.0535296 0)
(9.97572 0.0583352 0)
(9.98119 0.0628085 0)
(9.98579 0.0673185 0)
(9.98964 0.0721705 0)
(9.99291 0.0776272 0)
(9.99581 0.0839112 0)
(9.99859 0.0911995 0)
(9.99643 -0.0202043 0)
(9.97327 -0.0372194 0)
(9.95262 -0.0400607 0)
(9.93731 -0.0298338 0)
(9.9309 -0.0148561 0)
(9.93103 0.000323464 0)
(9.93504 0.0137201 0)
(9.94105 0.0247765 0)
(9.94782 0.0336783 0)
(9.95465 0.0408926 0)
(9.96117 0.0469289 0)
(9.96724 0.0522477 0)
(9.9728 0.0572348 0)
(9.97789 0.062207 0)
(9.98258 0.0674191 0)
(9.98699 0.0730754 0)
(9.99127 0.0793276 0)
(9.99562 0.0862714 0)
(9.99816 -0.0112895 0)
(9.9833 -0.022941 0)
(9.96682 -0.0257788 0)
(9.95243 -0.0201003 0)
(9.94344 -0.0102744 0)
(9.93953 0.000632115 0)
(9.9394 0.0109757 0)
(9.94182 0.020077 0)
(9.94582 0.0278436 0)
(9.95068 0.0344731 0)
(9.95596 0.0402671 0)
(9.96138 0.0455356 0)
(9.96678 0.0505577 0)
(9.97212 0.0555655 0)
(9.97739 0.0607448 0)
(9.98263 0.0662322 0)
(9.98794 0.0721189 0)
(9.99342 0.0784457 0)
(9.99906 -0.00508272 0)
(9.98922 -0.0107927 0)
(9.97612 -0.0119339 0)
(9.96309 -0.00850694 0)
(9.9531 -0.00246703 0)
(9.94685 0.0045365 0)
(9.94399 0.0115048 0)
(9.94383 0.0179558 0)
(9.94569 0.0237606 0)
(9.94895 0.0289871 0)
(9.95315 0.0337911 0)
(9.95797 0.0383498 0)
(9.96317 0.0428281 0)
(9.96864 0.0473642 0)
(9.97429 0.0520627 0)
(9.98012 0.056994 0)
(9.98613 0.062194 0)
(9.99237 0.0676658 0)
(9.99942 -0.000369244 0)
(9.99181 0.000138059 0)
(9.98042 0.00181408 0)
(9.96821 0.00456966 0)
(9.9579 0.00788855 0)
(9.9506 0.0113623 0)
(9.94641 0.0147683 0)
(9.94497 0.0180302 0)
(9.94575 0.0211641 0)
(9.94823 0.0242363 0)
(9.95196 0.0273285 0)
(9.95657 0.0305174 0)
(9.96182 0.033867 0)
(9.96752 0.0374205 0)
(9.97355 0.0412034 0)
(9.97985 0.0452195 0)
(9.98639 0.0494562 0)
(9.99314 0.0538828 0)
(9.99935 0.00408282 0)
(9.9911 0.0111586 0)
(9.97897 0.0161152 0)
(9.96616 0.0187135 0)
(9.95552 0.0195847 0)
(9.94818 0.0195128 0)
(9.94419 0.0191197 0)
(9.94311 0.0188157 0)
(9.94436 0.0188402 0)
(9.94739 0.019311 0)
(9.95171 0.0202677 0)
(9.95695 0.0217072 0)
(9.96282 0.0235971 0)
(9.96914 0.025896 0)
(9.97576 0.0285499 0)
(9.98262 0.0315054 0)
(9.98964 0.0347018 0)
(9.99681 0.0380807 0)
(9.99882 0.00972791 0)
(9.98675 0.0240348 0)
(9.97122 0.0318296 0)
(9.95642 0.0332727 0)
(9.94558 0.0306804 0)
(9.93942 0.0263235 0)
(9.93734 0.0217199 0)
(9.93844 0.0177072 0)
(9.94185 0.0146594 0)
(9.94685 0.0126684 0)
(9.95289 0.0116803 0)
(9.95959 0.0115743 0)
(9.96669 0.0122145 0)
(9.97402 0.0134644 0)
(9.98148 0.0152017 0)
(9.98901 0.0173157 0)
(9.99656 0.0197106 0)
(10.0041 0.0223014 0)
(9.99757 0.0182083 0)
(9.97774 0.0404428 0)
(9.95664 0.0495612 0)
(9.93945 0.0474596 0)
(9.92962 0.039403 0)
(9.92659 0.029629 0)
(9.92849 0.020473 0)
(9.93357 0.0129535 0)
(9.94054 0.0073345 0)
(9.94854 0.00350439 0)
(9.95701 0.00120476 0)
(9.96563 0.000144616 0)
(9.97422 6.49768e-05 0)
(9.98269 0.000731103 0)
(9.99101 0.00196487 0)
(9.99917 0.00360778 0)
(10.0072 0.00554421 0)
(10.015 0.00767102 0)
(9.99502 0.0318131 0)
(9.96177 0.0621225 0)
(9.93372 0.0695362 0)
(9.91535 0.060096 0)
(9.90933 0.0439326 0)
(9.91251 0.0276466 0)
(9.92086 0.013989 0)
(9.93163 0.0036373 0)
(9.94323 -0.00363035 0)
(9.95478 -0.00835222 0)
(9.96591 -0.0111065 0)
(9.97646 -0.0123801 0)
(9.98643 -0.0125778 0)
(9.99586 -0.0119872 0)
(10.0048 -0.0108517 0)
(10.0134 -0.00932578 0)
(10.0216 -0.00755565 0)
(10.0295 -0.00562368 0)
(9.99018 0.0534607 0)
(9.93561 0.0901424 0)
(9.90098 0.0906132 0)
(9.88516 0.0687382 0)
(9.88782 0.0418012 0)
(9.90124 0.0186481 0)
(9.91859 0.00141435 0)
(9.93629 -0.0103838 0)
(9.95288 -0.0179095 0)
(9.96787 -0.0223245 0)
(9.98126 -0.0245647 0)
(9.99325 -0.0253118 0)
(10.0041 -0.0250518 0)
(10.014 -0.024114 0)
(10.0231 -0.0227317 0)
(10.0317 -0.0210743 0)
(10.0397 -0.019251 0)
(10.0474 -0.0173422 0)
(9.9819 0.0862463 0)
(9.89548 0.12425 0)
(9.85818 0.10987 0)
(9.85211 0.0697551 0)
(9.87036 0.0303186 0)
(9.89846 0.00143478 0)
(9.92662 -0.0172045 0)
(9.9514 -0.0283057 0)
(9.97227 -0.0343484 0)
(9.98965 -0.0371934 0)
(10.0042 -0.0380336 0)
(10.0167 -0.0376504 0)
(10.0275 -0.0364974 0)
(10.037 -0.0349221 0)
(10.0457 -0.0330957 0)
(10.0537 -0.0311598 0)
(10.0612 -0.0291815 0)
(10.0682 -0.0272168 0)
(9.96925 0.133989 0)
(9.83823 0.163083 0)
(9.80793 0.122578 0)
(9.82313 0.0587808 0)
(9.86516 0.00728402 0)
(9.91144 -0.0240473 0)
(9.95041 -0.0406019 0)
(9.98058 -0.0483417 0)
(10.0036 -0.0511428 0)
(10.0213 -0.0513173 0)
(10.0353 -0.0501426 0)
(10.0467 -0.0482486 0)
(10.0563 -0.0460529 0)
(10.0646 -0.0437292 0)
(10.072 -0.0414083 0)
(10.0787 -0.0391525 0)
(10.0849 -0.0370364 0)
(10.0908 -0.0350292 0)
(9.94951 0.20714 0)
(9.76128 0.207018 0)
(9.75726 0.123466 0)
(9.81043 0.0319911 0)
(9.88386 -0.0278912 0)
(9.9488 -0.0560297 0)
(9.99535 -0.0660961 0)
(10.0268 -0.0678154 0)
(10.0482 -0.065985 0)
(10.0632 -0.0629144 0)
(10.0743 -0.0595271 0)
(10.0828 -0.0561581 0)
(10.0897 -0.0529518 0)
(10.0956 -0.0499897 0)
(10.1006 -0.0472551 0)
(10.1052 -0.0447745 0)
(10.1095 -0.0425859 0)
(10.1137 -0.0405985 0)
(9.91094 0.322718 0)
(9.65922 0.254542 0)
(9.71887 0.107396 0)
(9.8333 -0.0119453 0)
(9.94177 -0.0726908 0)
(10.0199 -0.0902196 0)
(10.0662 -0.0893916 0)
(10.0918 -0.0832879 0)
(10.1062 -0.0763569 0)
(10.1145 -0.0702566 0)
(10.1198 -0.0650455 0)
(10.1233 -0.060515 0)
(10.1258 -0.0565518 0)
(10.1277 -0.0532161 0)
(10.1293 -0.0502628 0)
(10.1307 -0.0477083 0)
(10.1322 -0.0455656 0)
(10.1338 -0.0437928 0)
(9.84404 0.43511 0)
(9.53797 0.261025 0)
(9.7269 0.0591247 0)
(9.92369 -0.073138 0)
(10.0584 -0.121597 0)
(10.1345 -0.120261 0)
(10.1665 -0.105404 0)
(10.1757 -0.0910703 0)
(10.1758 -0.0798564 0)
(10.1726 -0.0718339 0)
(10.1687 -0.0658945 0)
(10.1648 -0.0607594 0)
(10.1606 -0.0562997 0)
(10.1567 -0.052605 0)
(10.1532 -0.0496074 0)
(10.1499 -0.04721 0)
(10.147 -0.0453507 0)
(10.1451 -0.0441106 0)
(9.83598 0.319666 0)
(9.5502 0.0912495 0)
(9.91739 -0.0687318 0)
(10.1507 -0.160129 0)
(10.2635 -0.17217 0)
(10.3033 -0.142783 0)
(10.2976 -0.112283 0)
(10.2753 -0.090868 0)
(10.2514 -0.0769292 0)
(10.2304 -0.0683465 0)
(10.2133 -0.0627734 0)
(10.1984 -0.0578888 0)
(10.1846 -0.0529896 0)
(10.1717 -0.0484285 0)
(10.1599 -0.0443005 0)
(10.1492 -0.0410284 0)
(10.1399 -0.0389604 0)
(10.1321 -0.0377939 0)
(10.2049 -0.0633777 0)
(10.4095 -0.191709 0)
(10.7164 -0.282554 0)
(10.6879 -0.282288 0)
(10.6192 -0.230106 0)
(10.5417 -0.163694 0)
(10.4539 -0.117392 0)
(10.3751 -0.0933215 0)
(10.3135 -0.0798378 0)
(10.2653 -0.0683231 0)
(10.2257 -0.0592651 0)
(10.1916 -0.0549387 0)
(10.1612 -0.0539435 0)
(10.1335 -0.0527249 0)
(10.108 -0.0503643 0)
(10.0849 -0.0462367 0)
(10.0643 -0.040086 0)
(10.0456 -0.0348473 0)
(9.41631 4.45107 0)
(12.7294 2.07612 0)
(12.5649 0.621222 0)
(11.5691 0.127667 0)
(10.9311 0.00344728 0)
(10.5866 -0.00209575 0)
(10.3631 0.0120307 0)
(10.2011 0.0298992 0)
(10.0786 0.0410235 0)
(9.97658 0.034644 0)
(9.88365 0.024632 0)
(9.79867 0.023264 0)
(9.72379 0.0263771 0)
(9.6588 0.0235432 0)
(9.60168 0.0160818 0)
(9.5504 0.00166039 0)
(9.50208 -0.0160353 0)
(9.45496 -0.0449165 0)
(-0.0279769 0.0938604 0)
(0.136772 -0.183253 0)
(0.324624 -0.305849 0)
(0.525308 -0.315282 0)
(0.703142 -0.272296 0)
(0.834048 -0.21135 0)
(0.910707 -0.146617 -8.59309e-20)
(0.941558 -0.0827318 8.65236e-20)
(0.920964 -0.0203672 0)
(0.860432 0.0344559 9.17164e-20)
(0.773261 0.0740721 0)
(0.673789 0.0923411 0)
(0.579465 0.08822 0)
(0.506221 0.0671741 -1.43088e-19)
(0.456081 0.0380377 0)
(0.412839 0.00989545 0)
(0.353984 -0.00972948 1.87493e-19)
(0.26454 -0.0104705 0)
(0.137917 0.0268263 0)
(-0.0399741 0.111431 0)
(-0.295491 0.185635 -1.6683e-19)
(-0.588703 0.234968 0)
(-0.909942 0.266694 -7.66122e-20)
(-1.24643 0.29556 0)
(-1.58597 0.323436 0)
(-1.92586 0.336505 -4.13919e-20)
(-2.25863 0.335745 0)
(-2.57607 0.326741 3.45694e-20)
(-2.87524 0.31067 0)
(-3.15263 0.289903 -3.13536e-20)
(-3.40736 0.266772 0)
(-3.63902 0.242881 0)
(-3.84832 0.219269 0)
(-4.03636 0.196648 0)
(-4.20458 0.175397 0)
(-4.35454 0.155725 2.82297e-20)
(-4.48782 0.137671 0)
(-4.60591 0.121163 -5.55696e-20)
(-4.71021 0.106074 0)
(-4.80192 0.0922458 5.47704e-20)
(-4.88211 0.0795153 0)
(-4.95168 0.0677303 0)
(-5.01139 0.0567622 -5.35484e-20)
(-5.06186 0.0465138 0)
(-5.1036 0.0369249 -5.26569e-20)
(-5.13701 0.0279778 5.21792e-20)
(-5.16251 0.0197152 0)
(-5.18047 0.0122828 5.11527e-20)
(-5.19117 0.00592721 5.06005e-20)
(-5.19479 0.000859793 0)
(-5.19253 -0.00310185 0)
(-5.18569 -0.00639887 0)
(-5.17437 -0.00932336 0)
(-5.15892 -0.0120353 0)
(-5.13949 -0.0146033 -4.61854e-20)
(-5.11622 -0.0170428 0)
(-5.08922 -0.0193648 4.4322e-20)
(-5.0586 -0.0215788 0)
(-5.02447 -0.0236868 0)
(-4.98691 -0.0256909 -4.1147e-20)
(-4.94604 -0.0275914 0)
(-4.90196 -0.0293884 3.87737e-20)
(-4.85478 -0.0310817 0)
(-4.80462 -0.0326711 0)
(-4.75159 -0.0341568 0)
(-4.69581 -0.0355386 -3.33998e-20)
(-4.63741 -0.0368167 0)
(-4.5765 -0.0379923 0)
(-4.51322 -0.0390658 -2.88074e-20)
(-4.44769 -0.0400382 0)
(-4.38005 -0.0409106 -2.54697e-20)
(-4.31043 -0.0416846 0)
(-4.23895 -0.0423617 0)
(-4.16575 -0.0429437 0)
(-4.09097 -0.0434325 1.81003e-20)
(-4.01472 -0.0438304 0)
(-3.93714 -0.0441394 0)
(-3.85835 -0.0443622 1.19252e-20)
(-3.77848 -0.044501 9.73384e-21)
(-3.69766 -0.0445588 0)
(-3.61599 -0.0445385 5.13721e-21)
(-3.5336 -0.0444437 0)
(-3.45059 -0.0442781 4.69491e-22)
(-3.36708 -0.0440469 0)
(-3.28316 -0.043756 -1.00084e-20)
(-3.19894 -0.0434145 0)
(-3.11449 -0.0430344 2.12382e-20)
(-3.02991 -0.042635 0)
(-2.94526 -0.0422443 0)
(-2.8606 -0.0419047 0)
(-2.77596 -0.0416784 -4.64002e-20)
(-2.69138 -0.0416472 0)
(-2.60687 -0.0419012 6.06569e-20)
(-2.52238 -0.0424982 0)
(-2.43789 -0.0433845 -7.63064e-20)
(-2.35362 -0.0442945 -8.46757e-20)
(-2.26983 -0.0447682 -9.33758e-20)
(-2.18678 -0.0445776 0)
(-2.10463 -0.0439796 0)
(-2.02342 -0.043283 0)
(-1.94313 -0.0425788 0)
(-1.8638 -0.0418793 0)
(-1.78545 -0.0411854 0)
(-1.70809 -0.0404989 0)
(-1.63175 -0.0398235 0)
(-1.55645 -0.0391649 1.92381e-19)
(-1.48222 -0.0385303 2.06687e-19)
(-1.40907 -0.037925 0)
(-1.337 -0.0373385 0)
(-1.26606 -0.0367147 0)
(-1.19627 -0.0360579 2.73882e-19)
(-1.12764 -0.0354233 0)
(-1.06016 -0.0348076 0)
(-0.993858 -0.0342117 0)
(-0.928716 -0.0336373 0)
(-0.86474 -0.0330865 -3.90391e-19)
(-0.801928 -0.0325617 0)
(-0.740277 -0.0320661 0)
(-0.67978 -0.0316033 4.88453e-19)
(-0.62043 -0.0311749 -5.28102e-19)
(-0.562222 -0.0307842 0)
(-0.505145 -0.0304418 -6.21593e-19)
(-0.449189 -0.0301716 0)
(-0.394334 -0.0300175 7.4041e-19)
(-0.340559 -0.0299913 0)
(-0.28785 -0.0300553 0)
(-0.236192 -0.0301952 0)
(-0.185556 -0.0304221 0)
(-0.135916 -0.0307517 0)
(-0.0873164 -0.0312026 -2.84232e-18)
(-0.0399628 -0.031658 -3.27219e-18)
(0.00618665 -0.0313702 0)
(0.0516392 -0.0298826 0)
(0.096417 -0.0280308 0)
(0.140377 -0.0263098 2.68721e-18)
(0.183425 -0.0247742 0)
(0.22554 -0.0233982 0)
(0.266744 -0.0221585 0)
(0.307068 -0.0210349 2.04083e-18)
(0.346544 -0.0200104 -1.93436e-18)
(0.385199 -0.0190704 0)
(0.423061 -0.0182039 0)
(0.460153 -0.0174014 -1.68724e-18)
(0.496502 -0.0166554 -1.62249e-18)
(0.532128 -0.0159597 0)
(0.567056 -0.0153093 0)
(0.601309 -0.0146998 1.46405e-18)
(0.634907 -0.0141276 -1.42052e-18)
(0.667875 -0.0135895 0)
(0.700234 -0.013083 0)
(0.732007 -0.0126057 -1.31016e-18)
(0.763218 -0.0121555 0)
(0.793888 -0.0117308 0)
(0.824043 -0.0113301 -1.22261e-18)
(0.853705 -0.0109519 0)
(0.882897 -0.010595 -1.17351e-18)
(0.911644 -0.0102583 0)
(0.939968 -0.00994058 0)
(0.967894 -0.00964094 0)
(0.995443 -0.00935821 1.09151e-18)
(1.02264 -0.00909133 0)
(1.0495 -0.00883897 0)
(1.07604 -0.00859972 0)
(1.10229 -0.00837173 0)
(1.12824 -0.00815277 0)
(1.15391 -0.00793986 0)
(1.17927 -0.00772915 9.82673e-19)
(1.20433 -0.00751545 9.69744e-19)
(1.22902 -0.00729175 0)
(1.2533 -0.00704848 0)
(1.27704 -0.00677214 0)
(1.30008 -0.00644396 -9.24359e-19)
(1.32218 -0.00603462 0)
(1.34295 -0.00550424 1.81356e-18)
(1.36192 -0.00476858 -1.8002e-18)
(1.3777 -0.00372941 -1.79137e-18)
(1.3903 -0.00196458 1.78977e-18)
(1.39074 0.00132074 -1.79505e-18)
(1.38808 0.00807476 1.80837e-18)
(1.30879 0.0198993 0)
(0.0961684 -0.267599 0)
(0.334103 -0.68104 0)
(0.514814 -0.707515 1.57687e-19)
(0.612886 -0.572583 0)
(0.664119 -0.410094 -1.11065e-19)
(0.684796 -0.254908 -1.07985e-19)
(0.678991 -0.113131 -5.61803e-20)
(0.648826 0.0147768 -5.61221e-20)
(0.605975 0.124811 0)
(0.546944 0.211632 -6.06898e-20)
(0.470314 0.26751 0)
(0.376073 0.283797 0)
(0.260679 0.257336 1.70109e-19)
(0.113982 0.211817 9.808e-20)
(-0.070351 0.205201 -1.85049e-19)
(-0.295891 0.269599 -1.44819e-19)
(-0.573464 0.380743 -5.75745e-20)
(-0.89949 0.51061 0)
(-1.25325 0.640447 0)
(-1.6113 0.755093 0)
(-1.96698 0.84134 -2.86316e-20)
(-2.31261 0.895389 0)
(-2.64278 0.919271 6.91258e-20)
(-2.94997 0.916013 0)
(-3.22992 0.8898 0)
(-3.48107 0.845813 1.98197e-20)
(-3.70194 0.789329 0)
(-3.89335 0.725914 -1.9758e-20)
(-4.05713 0.659817 -4.17894e-20)
(-4.19686 0.593765 2.01619e-20)
(-4.31544 0.529861 0)
(-4.41578 0.469903 0)
(-4.50059 0.41473 0)
(-4.57227 0.364701 -4.42476e-20)
(-4.63292 0.319779 -4.47544e-20)
(-4.6842 0.279695 -2.21839e-20)
(-4.72752 0.244039 0)
(-4.76398 0.212329 4.52976e-20)
(-4.79449 0.184066 0)
(-4.81975 0.158769 -4.58712e-20)
(-4.84036 0.135996 0)
(-4.85681 0.115352 0)
(-4.86953 0.0964946 4.60842e-20)
(-4.87888 0.0791332 0)
(-4.88522 0.0630261 1.38158e-19)
(-4.88884 0.0479784 -4.56069e-20)
(-4.89004 0.0338534 0)
(-4.88906 0.0206184 -4.49392e-20)
(-4.88615 0.00838713 -4.44841e-20)
(-4.88159 -0.00267717 0)
(-4.8745 -0.0126251 0)
(-4.86373 -0.0217521 0)
(-4.84928 -0.0303036 0)
(-4.83106 -0.0383947 0)
(-4.80908 -0.0460958 4.02228e-20)
(-4.78341 -0.0534442 7.91769e-20)
(-4.75413 -0.0604611 -3.84471e-20)
(-4.72131 -0.0671582 0)
(-4.68505 -0.0735411 7.35037e-20)
(-4.64545 -0.0796126 -3.59761e-20)
(-4.60258 -0.0853735 0)
(-4.55657 -0.0908236 -3.32789e-20)
(-4.50752 -0.0959628 0)
(-4.45552 -0.100792 0)
(-4.4007 -0.105314 -5.99222e-20)
(-4.34318 -0.109528 2.84022e-20)
(-4.28306 -0.113435 -5.47357e-20)
(-4.22048 -0.117037 5.20196e-20)
(-4.15555 -0.120338 2.43145e-20)
(-4.0884 -0.123343 0)
(-4.01916 -0.126057 2.13844e-20)
(-3.94795 -0.128485 0)
(-3.87491 -0.130634 0)
(-3.80016 -0.132511 0)
(-3.72382 -0.134125 1.56635e-20)
(-3.64604 -0.135484 0)
(-3.56692 -0.136597 2.38317e-20)
(-3.48659 -0.137474 -3.00774e-20)
(-3.40518 -0.138125 -7.97812e-21)
(-3.3228 -0.138561 0)
(-3.23958 -0.138793 -4.18113e-21)
(-3.15561 -0.138833 0)
(-3.07101 -0.138692 -3.79021e-22)
(-2.98589 -0.138382 0)
(-2.90034 -0.137916 8.01901e-21)
(-2.81447 -0.137305 -2.33731e-20)
(-2.72837 -0.136561 -1.68641e-20)
(-2.64213 -0.135695 0)
(-2.55583 -0.134713 0)
(-2.46958 -0.133622 0)
(-2.38347 -0.132423 3.6065e-20)
(-2.29761 -0.131106 0)
(-2.21214 -0.129644 -4.65271e-20)
(-2.1272 -0.127983 0)
(-2.04293 -0.126069 1.71465e-19)
(-1.95942 -0.123923 6.34882e-20)
(-1.87667 -0.121646 6.95146e-20)
(-1.79463 -0.119345 0)
(-1.71327 -0.117079 0)
(-1.63264 -0.114847 0)
(-1.55282 -0.112627 0)
(-1.47385 -0.110405 0)
(-1.39577 -0.108176 2.19134e-19)
(-1.31862 -0.105942 2.34615e-19)
(-1.24243 -0.103704 0)
(-1.16722 -0.101466 -1.34565e-19)
(-1.09303 -0.099231 -1.43339e-19)
(-1.01987 -0.0970007 0)
(-0.947776 -0.094777 -3.22612e-19)
(-0.876757 -0.0925643 0)
(-0.806809 -0.0903759 1.811e-19)
(-0.737941 -0.0882179 0)
(-0.670165 -0.0860906 0)
(-0.603484 -0.0839963 -4.33968e-19)
(-0.537903 -0.0819366 0)
(-0.473421 -0.079913 2.44579e-19)
(-0.410039 -0.0779285 0)
(-0.347755 -0.0759887 0)
(-0.286565 -0.0741026 2.89498e-19)
(-0.226458 -0.0722685 3.08797e-19)
(-0.167429 -0.0704808 0)
(-0.109471 -0.0687425 -3.46078e-19)
(-0.0525896 -0.0670537 0)
(0.00321791 -0.0654062 3.82545e-19)
(0.0579924 -0.0637928 7.66415e-19)
(0.111768 -0.0622246 0)
(0.164545 -0.0607166 0)
(0.216325 -0.0592733 0)
(0.267121 -0.0578925 0)
(0.316965 -0.0565765 7.09357e-19)
(0.365928 -0.0553145 2.09674e-18)
(0.414096 -0.0539386 0)
(0.461385 -0.0522959 0)
(0.507653 -0.0505214 0)
(0.552966 -0.048773 -6.6567e-19)
(0.597407 -0.0471035 0)
(0.641006 -0.0455211 0)
(0.683779 -0.0440238 1.28795e-18)
(0.725747 -0.0426049 6.36946e-19)
(0.766932 -0.0412571 6.32414e-19)
(0.807354 -0.0399738 0)
(0.847036 -0.0387496 0)
(0.885999 -0.0375799 6.15846e-19)
(0.924265 -0.0364613 -6.09601e-19)
(0.961854 -0.0353905 0)
(0.998788 -0.0343654 0)
(1.03509 -0.0333836 -5.96725e-19)
(1.07078 -0.0324435 1.77617e-18)
(1.10587 -0.0315433 0)
(1.1404 -0.0306817 0)
(1.17438 -0.0298573 5.80235e-19)
(1.20783 -0.0290692 0)
(1.24078 -0.0283161 1.14475e-18)
(1.27325 -0.0275972 -5.68441e-19)
(1.30526 -0.0269113 0)
(1.33683 -0.0262575 5.62324e-19)
(1.36799 -0.0256348 1.11736e-18)
(1.39875 -0.0250422 0)
(1.42914 -0.0244782 0)
(1.45918 -0.0239416 -5.49486e-19)
(1.48889 -0.0234304 0)
(1.51829 -0.0229424 1.08626e-18)
(1.5474 -0.0224748 0)
(1.57621 -0.0220236 0)
(1.60476 -0.0215839 0)
(1.63303 -0.021149 0)
(1.66101 -0.0207099 -5.28899e-19)
(1.6887 -0.0202544 -5.26128e-19)
(1.71605 -0.0197662 0)
(1.74301 -0.0192226 0)
(1.76948 -0.0185918 0)
(1.79532 -0.0178284 5.16022e-19)
(1.82033 -0.0168648 0)
(1.84417 -0.015599 -1.02461e-18)
(1.86644 -0.0138515 1.02237e-18)
(1.8862 -0.0113426 1.02192e-18)
(1.90302 -0.00732624 1.02312e-18)
(1.91325 -0.000531457 1.02818e-18)
(1.92557 0.0124215 1.02011e-18)
(1.90601 0.0362038 0)
(0.116854 -0.859503 0)
(0.269778 -1.05795 0)
(0.317151 -0.82774 -1.26171e-19)
(0.316618 -0.585906 -1.08033e-19)
(0.299335 -0.375287 1.00335e-19)
(0.268312 -0.190019 1.00493e-19)
(0.222345 -0.0244282 -6.4905e-22)
(0.160678 0.123453 0)
(0.0831962 0.254158 0)
(-0.0113151 0.365281 0)
(-0.126351 0.451201 0)
(-0.269924 0.512273 0)
(-0.45494 0.565698 -2.68038e-19)
(-0.692076 0.639733 0)
(-0.977865 0.751685 6.64645e-20)
(-1.29651 0.893485 5.7322e-20)
(-1.63004 1.04183 0)
(-1.96147 1.17627 0)
(-2.27541 1.28418 0)
(-2.55983 1.35849 0)
(-2.80939 1.39489 3.4923e-20)
(-3.02379 1.39302 0)
(-3.2044 1.3575 -3.23512e-20)
(-3.354 1.29555 0)
(-3.47704 1.21453 0)
(-3.57814 1.12085 0)
(-3.6621 1.0206 -6.85705e-20)
(-3.73329 0.919135 0)
(-3.79526 0.820611 3.31036e-20)
(-3.85078 0.727847 -7.06784e-20)
(-3.9018 0.642369 0)
(-3.94962 0.564927 0)
(-3.995 0.495577 0)
(-4.03831 0.433939 3.65517e-20)
(-4.07967 0.379367 3.71399e-20)
(-4.11902 0.331088 0)
(-4.15623 0.288305 0)
(-4.19114 0.250255 -7.77844e-20)
(-4.22356 0.216242 -7.8179e-20)
(-4.25332 0.185656 7.84135e-20)
(-4.28029 0.157974 0)
(-4.30435 0.132767 0)
(-4.32541 0.109686 0)
(-4.3434 0.0884444 0)
(-4.35825 0.0688084 -7.70035e-20)
(-4.36991 0.0505776 -7.69064e-20)
(-4.37831 0.0335675 7.62645e-20)
(-4.38332 0.017578 0)
(-4.38476 0.00235361 0)
(-4.38248 -0.0123925 0)
(-4.37641 -0.0267976 0)
(-4.36662 -0.0407769 -7.11085e-20)
(-4.35316 -0.0542372 0)
(-4.33606 -0.0671671 0)
(-4.31537 -0.0795707 -6.70003e-20)
(-4.29114 -0.0914569 -6.49767e-20)
(-4.26343 -0.102833 0)
(-4.23231 -0.113704 1.24589e-19)
(-4.19787 -0.124071 -6.00432e-20)
(-4.16018 -0.133935 5.82682e-20)
(-4.11934 -0.143294 0)
(-4.07543 -0.152146 0)
(-4.02857 -0.160488 0)
(-3.97885 -0.168321 0)
(-3.92638 -0.175647 4.84457e-20)
(-3.87127 -0.182468 9.38246e-20)
(-3.81363 -0.188783 4.40844e-20)
(-3.75359 -0.194595 -4.18144e-20)
(-3.69125 -0.19991 0)
(-3.62675 -0.204735 7.54907e-20)
(-3.56021 -0.209078 7.06122e-20)
(-3.49175 -0.212948 6.56175e-20)
(-3.42149 -0.216355 -6.05071e-20)
(-3.34956 -0.219311 0)
(-3.27608 -0.221827 -7.42347e-20)
(-3.20118 -0.223918 0)
(-3.12498 -0.225598 2.01446e-20)
(-3.0476 -0.226882 1.59256e-20)
(-2.96916 -0.227786 0)
(-2.88978 -0.228327 0)
(-2.80958 -0.228522 1.54824e-20)
(-2.72866 -0.228388 0)
(-2.64713 -0.227944 3.05858e-21)
(-2.5651 -0.227209 0)
(-2.48269 -0.226202 9.85369e-21)
(-2.39998 -0.224941 3.44234e-20)
(-2.31707 -0.223446 0)
(-2.23408 -0.221737 0)
(-2.15108 -0.219831 0)
(-2.06817 -0.217746 4.44121e-20)
(-1.98545 -0.215498 0)
(-1.90303 -0.213099 5.92231e-20)
(-1.82099 -0.210549 0)
(-1.73943 -0.207836 0)
(-1.65841 -0.204932 -1.66659e-19)
(-1.57798 -0.201822 0)
(-1.49815 -0.198517 -9.91058e-20)
(-1.41893 -0.195061 0)
(-1.34034 -0.19151 -1.16375e-19)
(-1.26244 -0.187904 0)
(-1.1853 -0.184262 0)
(-1.10896 -0.18059 0)
(-1.03346 -0.176896 -4.6199e-19)
(-0.958846 -0.173185 -1.64806e-19)
(-0.885143 -0.169466 0)
(-0.812379 -0.165744 0)
(-0.740579 -0.162025 0)
(-0.669766 -0.158315 0)
(-0.599957 -0.154618 2.18588e-19)
(-0.531163 -0.15094 -4.57963e-19)
(-0.463391 -0.147289 -2.42418e-19)
(-0.396654 -0.143675 5.0715e-19)
(-0.330961 -0.140103 5.32947e-19)
(-0.266318 -0.13658 2.81123e-19)
(-0.202727 -0.133107 0)
(-0.14019 -0.129685 6.15718e-19)
(-0.0787087 -0.126316 0)
(-0.0182837 -0.123005 -6.7328e-19)
(0.0410905 -0.119752 -3.45145e-19)
(0.0994275 -0.116559 0)
(0.156734 -0.113429 6.93105e-19)
(0.213014 -0.110363 3.48824e-19)
(0.268279 -0.107364 0)
(0.322539 -0.104421 3.48719e-19)
(0.375803 -0.101524 -1.05281e-18)
(0.428078 -0.0986807 0)
(0.479379 -0.0959022 0)
(0.529721 -0.0931911 0)
(0.579124 -0.0905482 0)
(0.627609 -0.0879781 -7.07743e-19)
(0.67521 -0.0854879 -7.10235e-19)
(0.72195 -0.0830919 0)
(0.767797 -0.0807784 0)
(0.812735 -0.0785086 0)
(0.856814 -0.0762799 0)
(0.900081 -0.0741086 0)
(0.942549 -0.0720036 0)
(0.984233 -0.0699675 -7.13991e-19)
(1.02515 -0.0680002 -1.09019e-21)
(1.06532 -0.0661 0)
(1.10475 -0.0642651 0)
(1.14348 -0.0624935 -7.13807e-19)
(1.18151 -0.0607834 0)
(1.21887 -0.059133 7.14848e-19)
(1.25558 -0.057541 7.13981e-19)
(1.29167 -0.0560063 0)
(1.32714 -0.0545275 0)
(1.36203 -0.0531036 -7.14501e-19)
(1.39634 -0.0517336 -1.42719e-18)
(1.43011 -0.0504164 0)
(1.46336 -0.0491512 0)
(1.4961 -0.047937 0)
(1.52836 -0.0467729 -7.13173e-19)
(1.56015 -0.045658 7.12789e-19)
(1.59151 -0.0445914 0)
(1.62244 -0.0435719 1.42269e-18)
(1.65298 -0.0425983 7.10324e-19)
(1.68315 -0.0416694 -1.42063e-18)
(1.71295 -0.0407834 0)
(1.74243 -0.0399384 0)
(1.77159 -0.0391318 -1.41681e-18)
(1.80045 -0.0383602 -7.08113e-19)
(1.82904 -0.0376192 0)
(1.85736 -0.0369031 0)
(1.88542 -0.0362044 0)
(1.91323 -0.0355127 0)
(1.94078 -0.0348146 -1.40665e-18)
(1.96806 -0.0340916 0)
(1.99504 -0.0333188 0)
(2.02168 -0.0324619 0)
(2.04789 -0.0314727 0)
(2.07356 -0.0302831 0)
(2.09852 -0.028792 0)
(2.1225 -0.0268481 -1.39727e-18)
(2.14518 -0.0241993 0)
(2.16588 -0.0204416 0)
(2.18436 -0.0147802 -2.81589e-18)
(2.19782 -0.00589684 1.41782e-18)
(2.21253 0.00886838 -1.41603e-18)
(2.20744 0.0362672 1.41139e-18)
(0.0336757 -1.16703 0)
(0.0703949 -1.03171 3.59429e-19)
(0.0348338 -0.748726 0)
(-0.00948101 -0.508225 1.108e-19)
(-0.0646138 -0.285497 0)
(-0.132234 -0.0758808 0)
(-0.215196 0.121021 -8.28579e-20)
(-0.315879 0.304469 0)
(-0.436405 0.474002 0)
(-0.579367 0.630145 0)
(-0.74861 0.775384 0)
(-0.949369 0.915794 0)
(-1.18438 1.05954 2.04512e-19)
(-1.44821 1.2102 9.25643e-20)
(-1.72646 1.36164 -8.37842e-20)
(-2.00071 1.50053 0)
(-2.25514 1.61295 0)
(-2.47959 1.68944 0)
(-2.66924 1.72623 0)
(-2.82264 1.72458 0)
(-2.94228 1.68833 6.01706e-20)
(-3.03368 1.62268 5.88477e-20)
(-3.10294 1.53442 -5.79872e-20)
(-3.15641 1.43119 5.76783e-20)
(-3.19949 1.31973 0)
(-3.23655 1.20549 0)
(-3.27107 1.09283 5.58189e-20)
(-3.30542 0.985058 0)
(-3.3409 0.884324 0)
(-3.37802 0.79168 5.86729e-20)
(-3.41679 0.707377 6.14948e-20)
(-3.45687 0.631194 6.22072e-20)
(-3.49773 0.562603 0)
(-3.53876 0.50091 0)
(-3.57934 0.445354 -6.40207e-20)
(-3.6189 0.395177 0)
(-3.65696 0.349667 0)
(-3.69309 0.30818 6.42963e-20)
(-3.72696 0.270148 -6.60191e-20)
(-3.75828 0.235084 6.60305e-20)
(-3.78682 0.202569 0)
(-3.81241 0.172254 0)
(-3.83489 0.143839 1.29999e-19)
(-3.85413 0.117075 0)
(-3.87003 0.0917489 1.28614e-19)
(-3.88249 0.067683 1.91021e-19)
(-3.89143 0.0447331 -1.89381e-19)
(-3.89678 0.0227785 1.25321e-19)
(-3.89851 0.00170222 0)
(-3.89661 -0.0186121 0)
(-3.89112 -0.0382437 1.19875e-19)
(-3.8821 -0.0572123 5.8408e-20)
(-3.86957 -0.0755142 0)
(-3.85357 -0.0931482 0)
(-3.83414 -0.110114 5.49049e-20)
(-3.81132 -0.126411 1.08261e-19)
(-3.78518 -0.142038 0)
(-3.75578 -0.156992 -1.01814e-19)
(-3.72317 -0.17127 9.9986e-20)
(-3.68745 -0.184867 -9.70168e-20)
(-3.6487 -0.197778 0)
(-3.60699 -0.209999 0)
(-3.56242 -0.221523 0)
(-3.5151 -0.232349 0)
(-3.46512 -0.242481 0)
(-3.41259 -0.251918 -7.59637e-20)
(-3.35761 -0.26066 0)
(-3.30031 -0.268712 0)
(-3.24079 -0.276082 0)
(-3.17917 -0.282776 -1.2273e-19)
(-3.11556 -0.288807 -5.67618e-20)
(-3.0501 -0.294186 -5.26643e-20)
(-2.9829 -0.298927 9.81696e-20)
(-2.91407 -0.303046 -4.54304e-20)
(-2.84375 -0.306558 3.98837e-20)
(-2.77204 -0.309484 0)
(-2.69907 -0.311842 -3.09687e-20)
(-2.62496 -0.313653 0)
(-2.54981 -0.314939 0)
(-2.47375 -0.315722 0)
(-2.39689 -0.316025 -2.56808e-20)
(-2.31934 -0.315872 8.58379e-21)
(-2.2412 -0.315287 4.86913e-21)