/*--------------------------------*- C++ -*----------------------------------*\
  =========                 |
  \\      /  F ield         | OpenFOAM: The Open Source CFD Toolbox
   \\    /   O peration     | Website:  https://openfoam.org
    \\  /    A nd           | Version:  8
     \\/     M anipulation  |
\*---------------------------------------------------------------------------*/
FoamFile
{
    version     2.0;
    format      ascii;
    class       volVectorField;
    location    "400";
    object      wallShearStress;
}
// * * * * * * * * * * * * * * * * * * * * * * * * * * * * * * * * * * * * * //

dimensions      [0 2 -2 0 0 0 0];

internalField   uniform (0 0 0);

boundaryField
{
    inlet
    {
        type            calculated;
        value           uniform (0 0 0);
    }
    outlet
    {
        type            calculated;
        value           uniform (0 0 0);
    }
    upperWall
    {
        type            calculated;
        value           nonuniform List<vector> 
223
(
(-0.582193 -0.392359 0)
(-0.977814 -0.219377 0)
(-0.939336 -0.0567759 0)
(-0.810722 -0.00585931 0)
(-0.734615 0.0033132 0)
(-0.695452 0.00232206 0)
(-0.670859 0.00045322 0)
(-0.65338 -0.00142321 0)
(-0.640431 -0.00255459 0)
(-0.629737 -0.00208014 0)
(-0.619909 -0.00128002 0)
(-0.610958 -0.00123933 0)
(-0.603155 -0.00155691 0)
(-0.596471 -0.00137869 0)
(-0.590549 -0.00106239 0)
(-0.58547 -0.000787171 0)
(-0.580476 0.000241059 0)
(-0.57549 0.0023722 0)
(-0.571201 0.00278275 0)
(-0.568179 0.00272958 4.3174e-22)
(-0.565354 0.00358272 0)
(-0.562222 0.00420203 0)
(-0.559046 0.00435511 0)
(-0.55592 0.00420006 4.56483e-22)
(-0.552872 0.00380045 0)
(-0.549948 0.00333743 0)
(-0.547122 0.00290436 0)
(-0.54436 0.00253624 -9.4709e-22)
(-0.541646 0.00222685 9.57013e-22)
(-0.538962 0.00197633 9.6709e-22)
(-0.536293 0.00178025 0)
(-0.533625 0.00162536 -9.8778e-22)
(-0.530954 0.00150009 0)
(-0.528278 0.00139954 1.00955e-21)
(-0.525594 0.00131761 1.02096e-21)
(-0.522899 0.00125167 -1.03272e-21)
(-0.520192 0.00119783 0)
(-0.517473 0.00115421 0)
(-0.514736 0.0011192 0)
(-0.511981 0.00109135 0)
(-0.509204 0.00106979 -1.09527e-21)
(-0.506403 0.00105357 0)
(-0.503573 0.00104208 0)
(-0.50071 0.00103481 1.13419e-21)
(-0.497812 0.00103116 0)
(-0.494875 0.00103084 1.15998e-21)
(-0.491894 0.00103355 -1.17268e-21)
(-0.488866 0.00103871 1.18518e-21)
(-0.485787 0.00104581 0)
(-0.482656 0.00105431 0)
(-0.47947 0.00106325 0)
(-0.476231 0.00107154 1.23195e-21)
(-0.472945 0.00107819 -1.2425e-21)
(-0.469623 0.00108351 0)
(-0.466281 0.00108843 0)
(-0.462932 0.00109354 0)
(-0.459587 0.00109802 0)
(-0.456253 0.00110066 0)
(-0.452929 0.00110062 0)
(-0.449612 0.00109811 0)
(-0.446292 0.00109377 0)
(-0.442962 0.0010885 1.29271e-21)
(-0.439608 0.00108357 -1.29248e-21)
(-0.43622 0.00107988 0)
(-0.432786 0.00107793 0)
(-0.429297 0.00107792 0)
(-0.425745 0.0010801 -1.27911e-21)
(-0.422118 0.00108421 0)
(-0.418412 0.00108995 0)
(-0.41462 0.00109707 0)
(-0.410738 0.00110505 0)
(-0.406763 0.00111354 0)
(-0.402692 0.00112193 -2.43591e-21)
(-0.398526 0.00112968 0)
(-0.394264 0.00113637 0)
(-0.38991 0.00114138 0)
(-0.38547 0.0011445 0)
(-0.380953 0.00114565 0)
(-0.376369 0.00114469 0)
(-0.371731 0.00114134 0)
(-0.367051 0.00113529 2.09698e-21)
(-0.362339 0.00112652 0)
(-0.357603 0.00111498 0)
(-0.352848 0.00110104 0)
(-0.348076 0.00108522 -1.84141e-21)
(-0.343287 0.00106808 0)
(-0.338479 0.00105025 -1.69204e-21)
(-0.333648 0.00103235 0)
(-0.32879 0.00101529 0)
(-0.323896 0.000999736 0)
(-0.319062 0.000991744 -1.35282e-21)
(-0.316423 0.0010009 0)
(-0.313699 0.00101479 1.18239e-21)
(-0.310895 0.00102946 1.09172e-21)
(-0.308016 0.00104272 0)
(-0.305072 0.00105373 8.98074e-22)
(-0.302075 0.00106247 0)
(-0.299038 0.00106995 0)
(-0.295977 0.00107698 0)
(-0.292904 0.00108446 -4.56683e-22)
(-0.289835 0.00109346 0)
(-0.286784 0.00110133 -2.0724e-22)
(-0.283759 0.0011088 7.52068e-23)
(-0.280777 0.00111789 0)
(-0.277841 0.00111439 0)
(-0.274963 0.00110457 0)
(-0.272144 0.00111143 0)
(-0.26939 0.00109065 0)
(-0.266678 0.00100413 0)
(-0.264077 0.000854067 0)
(-0.261433 0.000788959 1.15658e-21)
(-0.258963 0.000886049 0)
(-0.256622 0.000922878 0)
(-0.254369 0.000802745 0)
(-0.252027 0.000714696 0)
(-0.250001 0.000808869 0)
(-0.248041 0.000993803 0)
(-0.245788 0.00101246 0)
(-0.243823 0.00104507 0)
(-0.241802 0.000947085 0)
(-0.239692 0.000987588 0)
(-0.238207 0.00118448 0)
(-0.236799 0.00112592 0)
(-0.235752 0.00112371 7.05665e-21)
(-0.234332 0.00107614 0)
(-0.232966 0.0011709 0)
(-0.231577 0.000592525 0)
(-0.229637 -7.53293e-05 -8.8091e-21)
(-0.227736 8.71778e-05 0)
(-0.225974 0.000286493 0)
(-0.224433 0.000328979 -1.00914e-20)
(-0.222635 0.000280979 0)
(-0.221045 0.000369104 1.09725e-20)
(-0.21977 0.000470693 0)
(-0.218462 0.000500916 0)
(-0.216992 0.000430631 0)
(-0.215781 0.000319032 -1.2653e-20)
(-0.214313 0.000298971 0)
(-0.213069 0.00039732 1.35076e-20)
(-0.212126 0.000498055 0)
(-0.211173 0.000451371 0)
(-0.210153 0.00043921 0)
(-0.209175 0.00041613 0)
(-0.208259 0.000359963 0)
(-0.207491 0.000460921 0)
(-0.20607 0.000488863 0)
(-0.204973 0.000413859 0)
(-0.204202 0.000456413 0)
(-0.202769 0.000421704 0)
(-0.202113 0.00029178 0)
(-0.201489 0.000401133 1.85586e-20)
(-0.200776 0.000487491 -1.90014e-20)
(-0.19994 0.000428484 0)
(-0.199564 0.000669687 0)
(-0.19906 0.000837924 0)
(-0.199251 0.000826974 0)
(-0.199056 0.000211286 -2.08656e-20)
(-0.198549 -0.000296974 2.13982e-20)
(-0.197505 -2.76182e-05 -2.19745e-20)
(-0.196867 0.00018213 0)
(-0.196196 0.000321224 -2.26943e-20)
(-0.195395 0.000375924 -4.6273e-20)
(-0.195126 0.000381933 0)
(-0.195165 0.000398233 -4.75398e-20)
(-0.195452 0.000598072 4.80687e-20)
(-0.195347 0.000516886 0)
(-0.1952 0.000420049 0)
(-0.194792 0.000523886 0)
(-0.194738 0.000418804 0)
(-0.194622 0.000242256 0)
(-0.194539 3.82151e-05 -5.27295e-20)
(-0.1941 0.000210921 0)
(-0.193239 0.000413118 -5.48097e-20)
(-0.193007 0.000194209 0)
(-0.19279 0.000187584 0)
(-0.192359 0.00039849 0)
(-0.191579 -7.38597e-05 0)
(-0.190458 -0.00042258 0)
(-0.188924 -8.28348e-05 6.11684e-20)
(-0.187802 9.93481e-05 0)
(-0.187137 0.000311949 0)
(-0.186273 0.000572004 -6.41818e-20)
(-0.186421 0.000639497 0)
(-0.186128 0.00053296 0)
(-0.186214 0.000480477 0)
(-0.185269 0.000513153 6.80508e-20)
(-0.184545 0.000480523 0)
(-0.182987 4.93412e-05 0)
(-0.180727 -0.000161935 0)
(-0.177572 0.000202721 0)
(-0.174742 0.000395438 -7.77469e-20)
(-0.171729 0.000505254 0)
(-0.168287 0.000655875 0)
(-0.163499 0.000819138 0)
(-0.158901 0.00106002 8.95322e-20)
(-0.152149 0.00148349 0)
(-0.146748 0.00244479 0)
(-0.123613 0.00240419 -1.0697e-19)
(-0.141856 0.00680718 6.01853e-36)
(-0.17004 0.0133156 1.24974e-17)
(-0.186941 0.0171619 2.36419e-17)
(-0.19278 0.0188845 2.28937e-17)
(-0.195724 0.0196136 2.22141e-17)
(-0.199153 0.020141 2.14237e-17)
(-0.203395 0.0207425 -2.04971e-17)
(-0.209071 0.0213935 -1.9502e-17)
(-0.214547 0.0219306 0)
(-0.21955 0.0221407 -3.63161e-17)
(-0.221848 0.0223695 -1.79253e-17)
(-0.225538 0.0228485 2.0463e-34)
(-0.228195 0.0230087 0)
(-0.230045 0.0233352 -3.25502e-17)
(-0.23267 0.0236711 -3.11571e-17)
(-0.239877 0.0244661 -2.87774e-17)
(-0.249699 0.0254067 0)
(-0.259169 0.026297 4.87522e-17)
(-0.267216 0.0270372 2.22929e-17)
(-0.275579 0.0277935 1.20371e-35)
(-0.285218 0.0286415 -3.44512e-17)
(-0.294643 0.0293354 -1.59797e-20)
(-0.302664 0.0297695 0)
(-0.302378 0.0302489 1.36317e-17)
(-0.327612 0.0316191 -7.76974e-18)
)
;
    }
    lowerWall
    {
        type            calculated;
        value           nonuniform List<vector> 
250
(
(-0.653909 0.466638 0)
(-1.14095 0.204679 0)
(-1.03493 0.037959 0)
(-0.869586 -0.000936066 0)
(-0.786956 -0.00419181 0)
(-0.746099 -0.00160807 0)
(-0.719924 0.00041392 0)
(-0.700651 -0.000579143 0)
(-0.684967 -0.00393699 0)
(-0.671067 -0.00462649 0)
(-0.658616 -0.00293432 0)
(-0.647414 -0.000893081 0)
(-0.637264 0.00132195 0)
(-0.62801 0.00197794 0)
(-0.619199 0.001258 0)
(-0.611482 0.00137223 0)
(-0.604688 0.00177782 0)
(-0.605013 0.00198916 0)
(-0.00424585 -0.0229397 0)
(-0.00280485 -0.0177591 0)
(-0.000757726 -0.0145602 0)
(0.00184953 -0.0138004 9.00879e-20)
(0.00516956 -0.0151417 -7.8704e-20)
(0.00886653 -0.0207028 6.29839e-20)
(0.0126347 -0.0199449 -4.86774e-20)
(0.0255356 -0.0632324 0)
(-0.0840679 -0.144856 0)
(0.000901364 -0.00385432 0)
(-0.00765799 0.00949283 0)
(-0.00854271 0.032812 0)
(-0.00257249 0.0448902 0)
(0.00293668 0.0443355 1.82133e-20)
(0.00616909 0.0361565 -1.89452e-20)
(0.00817284 0.0242741 0)
(0.00944584 0.0102846 -5.40482e-20)
(0.00942755 -0.00391354 6.11545e-20)
(0.00793816 -0.0172907 0)
(0.00614788 -0.0290654 0)
(0.00438856 -0.0384407 0)
(0.00269405 -0.0450285 0)
(0.000993734 -0.0487796 0)
(-0.000874849 -0.0494294 0)
(-0.00280655 -0.0463452 0)
(-0.00436814 -0.0398764 0)
(-0.0048905 -0.0308089 0)
(0.00133081 -0.00152687 0)
(0.00134587 0.0065231 0)
(-0.00449964 0.00961812 0)
(-0.00959192 0.00976316 0)
(-0.0133851 0.00830826 0)
(-0.0158977 0.00624475 0)
(-0.0172789 0.00410672 1.49424e-21)
(-0.0178024 0.00201401 -1.52535e-21)
(-0.0173562 -6.41723e-07 0)
(-0.0160824 -0.00168398 -1.65074e-21)
(-0.0142177 -0.00284147 0)
(-0.0120761 -0.00330736 0)
(-0.0100682 -0.00305159 -0)
(-0.00856067 -0.00229526 2.56868e-21)
(-0.00761742 -0.00143123 0)
(-0.00693644 -0.000810392 0)
(-0.00612498 -0.000598793 -3.37078e-21)
(-0.00500934 -0.000952055 0)
(-0.00345498 -0.00231083 0)
(-0.000585412 -0.00500774 0)
(0.00426304 -0.00738368 3.06629e-21)
(0.00984835 -0.00888484 0)
(0.0157508 -0.00984629 1.47556e-21)
(0.021799 -0.010608 0)
(0.0280028 -0.0112655 -0)
(0.0343169 -0.0115177 8.4603e-22)
(0.0404564 -0.011361 0)
(0.0490128 -0.0116007 -7.53932e-22)
(0.0588057 -0.0117575 -0)
(0.0685049 -0.0115884 7.70574e-22)
(0.0779211 -0.011177 0)
(0.0869024 -0.0105935 0)
(0.0953555 -0.00990012 0)
(0.103222 -0.00914671 -0)
(0.110477 -0.00837051 0)
(0.117119 -0.00759884 -8.11081e-22)
(0.12316 -0.00684906 -0)
(0.128622 -0.00613063 1.63298e-21)
(0.133534 -0.00544784 0)
(0.137922 -0.00480104 -1.63489e-21)
(0.141813 -0.00418851 -0)
(0.145231 -0.0036075 -0)
(0.148196 -0.00305537 1.62105e-21)
(0.150727 -0.00252979 0)
(0.152838 -0.00202963 1.60088e-21)
(0.15454 -0.0015557 -1.58759e-21)
(0.155846 -0.00111139 -0)
(0.15677 -0.000703605 -1.55502e-21)
(0.157321 -0.000342112 -1.53601e-21)
(0.157511 -4.31656e-05 -0)
(0.157409 0.000191851 0)
(0.157081 0.000388517 0)
(0.15653 0.000565395 0)
(0.155772 0.000728308 -0)
(0.154815 0.000881366 1.37615e-21)
(0.153666 0.0010255 0)
(0.152334 0.00116118 -1.30744e-21)
(0.150824 0.00128878 -0)
(0.149145 0.00140839 -0)
(0.147304 0.00151998 1.19111e-21)
(0.145308 0.00162355 0)
(0.143166 0.0017191 -1.10549e-21)
(0.140886 0.00180659 -0)
(0.138476 0.00188595 0)
(0.135946 0.00195723 -0)
(0.133304 0.0020206 9.1763e-22)
(0.130558 0.00207605 0)
(0.12772 0.00212369 -0)
(0.124797 0.00216375 7.64708e-22)
(0.121799 0.00219635 0)
(0.118735 0.00222172 6.58249e-22)
(0.115613 0.0022401 0)
(0.112444 0.00225169 0)
(0.109236 0.00225681 0)
(0.105997 0.00225573 -4.373e-22)
(0.102736 0.0022488 -0)
(0.0994612 0.00223627 0)
(0.0961797 0.00221845 -2.6678e-22)
(0.0928994 0.00219573 -2.09354e-22)
(0.0896272 0.00216843 -0)
(0.0863702 0.00213687 -9.39285e-23)
(0.0831345 0.00210147 -0)
(0.0799261 0.00206257 4.39846e-23)
(0.0767507 0.00202057 -0)
(0.0736133 0.00197594 2.76342e-22)
(0.0705187 0.00192911 0)
(0.067471 0.00188065 -5.08975e-22)
(0.0644743 0.00183134 -0)
(0.0615316 0.0017822 0)
(0.0586454 0.00173441 -0)
(0.055818 0.00168973 9.75658e-22)
(0.0530506 0.00165033 0)
(0.0503436 0.00161831 -1.21105e-21)
(0.047696 0.00159487 0)
(0.0458283 0.00160255 1.47183e-21)
(0.0442857 0.00162033 1.63017e-21)
(0.0427464 0.00162573 1.79494e-21)
(0.0412184 0.00161331 0)
(0.0397074 0.00159018 0)
(0.0382129 0.00156455 0)
(0.036734 0.00153876 0)
(0.0352704 0.00151309 0)
(0.0338224 0.00148751 0)
(0.0323906 0.00146206 0)
(0.0309756 0.00143683 0)
(0.0295777 0.00141202 -3.68572e-21)
(0.0281974 0.00138785 -3.96107e-21)
(0.0268346 0.00136444 0)
(0.0254897 0.00134143 0)
(0.0241633 0.0013174 0)
(0.0228564 0.00129258 -5.25965e-21)
(0.0215691 0.00126836 0)
(0.0203014 0.00124469 0)
(0.0190532 0.00122163 0)
(0.0178247 0.0011992 0)
(0.016616 0.00117747 7.52584e-21)
(0.015427 0.00115651 0)
(0.0142577 0.00113643 0)
(0.013108 0.0011173 -9.44259e-21)
(0.0119778 0.00109919 1.02193e-20)
(0.0108671 0.00108217 0)
(0.00977588 0.00106655 1.20536e-20)
(0.00870396 0.00105296 0)
(0.007651 0.00104257 -1.43894e-20)
(0.00661635 0.00103567 0)
(0.00559968 0.00103128 0)
(0.00460091 0.00102908 0)
(0.00361963 0.00102938 0)
(0.00265538 0.00103243 0)
(0.00170864 0.00103818 5.56427e-20)
(0.000780841 0.0010438 6.41422e-20)
(-0.000129938 0.0010313 0)
(-0.00102815 0.000988639 0)
(-0.00191094 0.000936204 0)
(-0.00277822 0.000886621 -5.29197e-20)
(-0.00362985 0.000841604 0)
(-0.00446565 0.000800761 0)
(-0.00528596 0.000763608 0)
(-0.00609138 0.00072965 -4.04231e-20)
(-0.00688247 0.000698422 3.83705e-20)
(-0.0076597 0.000669554 0)
(-0.00842359 0.000642732 0)
(-0.00917453 0.000617715 3.36182e-20)
(-0.009913 0.000594303 3.23772e-20)
(-0.0106394 0.000572337 0)
(-0.0113542 0.00055168 0)
(-0.0120578 0.000532216 -2.93504e-20)
(-0.0127506 0.00051385 2.85226e-20)
(-0.013433 0.000496502 0)
(-0.0141055 0.000480102 0)
(-0.0147686 0.000464587 2.64327e-20)
(-0.0154227 0.000449905 0)
(-0.0160681 0.000436009 0)
(-0.0167054 0.000422856 2.47874e-20)
(-0.0173351 0.000410409 0)
(-0.0179576 0.000398639 2.38716e-20)
(-0.0185733 0.000387509 0)
(-0.0191828 0.00037699 0)
(-0.0197864 0.000367053 0)
(-0.0203847 0.000357665 -2.23563e-20)
(-0.0209781 0.000348801 0)
(-0.0215672 0.000340402 0)
(-0.0221521 0.000332402 0)
(-0.022733 0.000324788 0)
(-0.0233105 0.000317462 0)
(-0.0238846 0.000310273 0)
(-0.0244549 0.000303113 -2.0383e-20)
(-0.0250213 0.000295773 -2.01526e-20)
(-0.0255828 0.000287956 0)
(-0.0261379 0.000279329 0)
(-0.0266847 0.000269317 0)
(-0.0272193 0.000257183 1.93574e-20)
(-0.0277371 0.000241763 0)
(-0.0282297 0.000221523 -3.81281e-20)
(-0.0286871 0.000192498 3.7922e-20)
(-0.0290807 0.000152793 3.78113e-20)
(-0.0294122 7.82279e-05 -3.78517e-20)
(-0.0294944 -3.91837e-05 3.80367e-20)
(-0.0295193 -0.000356585 -3.83891e-20)
(-0.0279844 -0.000617197 0)
(-0.0293575 -0.000516931 -2.43268e-18)
(-0.032783 -0.00134357 -2.26931e-18)
(-0.0364291 -0.0020348 0)
(-0.0395514 -0.00257775 -4.06012e-18)
(-0.0425029 -0.00302043 -7.75655e-18)
(-0.0455767 -0.00342325 -3.71913e-18)
(-0.0488 -0.00382384 3.56767e-18)
(-0.0521408 -0.004291 -4.81482e-35)
(-0.0556118 -0.00474804 9.0278e-36)
(-0.0593202 -0.00507834 3.14613e-18)
(-0.0632618 -0.0053932 3.03036e-18)
(-0.0674471 -0.00580665 3.00927e-36)
(-0.0719307 -0.0062555 0)
(-0.0767454 -0.0067031 0)
(-0.081938 -0.00719917 1.05324e-35)
(-0.0875584 -0.00774992 -5.36966e-35)
(-0.0936805 -0.00835706 4.21297e-35)
(-0.100356 -0.00902101 -4.1574e-18)
(-0.107725 -0.0097409 -3.81145e-18)
(-0.116815 -0.0106347 6.01853e-36)
(-0.127638 -0.0116376 6.13759e-18)
(-0.138498 -0.0127442 1.03512e-17)
(-0.153725 -0.0139371 6.01853e-36)
(-0.162929 -0.0153037 -5.09955e-18)
(-0.19204 -0.0169916 9.0278e-36)
)
;
    }
    frontAndBack
    {
        type            empty;
    }
}


// ************************************************************************* //
