/*--------------------------------*- C++ -*----------------------------------*\
| =========                 |                                                 |
| \\      /  F ield         | OpenFOAM: The Open Source CFD Toolbox           |
|  \\    /   O peration     | Version:  v2012                                 |
|   \\  /    A nd           | Website:  www.openfoam.com                      |
|    \\/     M anipulation  |                                                 |
\*---------------------------------------------------------------------------*/
FoamFile
{
    version     2.0;
    format      ascii;
    class       volScalarField;
    location    "2200";
    object      nuTilda;
}
// * * * * * * * * * * * * * * * * * * * * * * * * * * * * * * * * * * * * * //

dimensions      [0 2 -1 0 0 0 0];


internalField   nonuniform List<scalar> 
12225
(
0.0122671
0.00158833
0.000666932
0.0004122
0.000298016
0.000234159
0.000195366
0.000157558
0.000177103
0.000222712
0.000230394
0.000221274
0.000203465
0.000178141
0.000172627
0.000158584
0.000147168
0.000136873
0.0323823
0.00744532
0.00330641
0.00204337
0.00146819
0.00114457
0.000939067
0.000785448
0.000691138
0.000627808
0.000570651
0.00052004
0.000476787
0.000437433
0.000407124
0.000374781
0.000350015
0.000324452
0.0490123
0.01515
0.00728196
0.00457856
0.00330642
0.00258052
0.00211335
0.00178199
0.0015469
0.0013727
0.00123171
0.00111558
0.0010187
0.000936513
0.000867169
0.000804844
0.000754192
0.000701717
0.063054
0.0237783
0.0122894
0.00788815
0.00573398
0.00448498
0.00367443
0.00310422
0.00268721
0.00237003
0.00211799
0.00191325
0.00174413
0.00160236
0.00148259
0.00137879
0.00129128
0.00120476
0.074932
0.0328517
0.0181452
0.0119262
0.00874549
0.00686413
0.00563088
0.00476131
0.0041187
0.00362574
0.00323518
0.00291879
0.00265804
0.00244011
0.00225603
0.0020984
0.00196343
0.0018399
0.0849536
0.0420208
0.0246655
0.0166359
0.0123325
0.00972588
0.00799541
0.00676741
0.00585404
0.00515005
0.00459192
0.00413984
0.00376745
0.00345638
0.00319355
0.0029691
0.00277617
0.00260661
0.0933822
0.0510219
0.0316642
0.0219415
0.016474
0.0130717
0.0107779
0.00913539
0.00790598
0.00695437
0.00619833
0.00558533
0.0050801
0.00465803
0.00430138
0.00399704
0.00373536
0.00350915
0.0993794
0.0583363
0.0378386
0.0268568
0.0204171
0.0163053
0.0134892
0.011453
0.00991905
0.00872671
0.00777697
0.0070057
0.00636944
0.00583763
0.00538817
0.00500469
0.00467517
0.00439184
0.104023
0.0645454
0.0433804
0.0314239
0.0241571
0.0194092
0.0161097
0.0137018
0.0118767
0.0104523
0.00931473
0.0083894
0.00762525
0.00698616
0.00644587
0.00598492
0.005589
0.00524917
0.108368
0.0708939
0.0493757
0.0365496
0.0284517
0.0230231
0.0191863
0.0163548
0.0141927
0.0124969
0.0111382
0.0100306
0.00911457
0.00834785
0.00769937
0.00714607
0.00667098
0.00626328
0.112368
0.0772557
0.0557282
0.0421918
0.0332976
0.0271652
0.0227468
0.0194433
0.0168984
0.0148904
0.013275
0.0119546
0.0108607
0.00994396
0.00916816
0.00850607
0.00793759
0.0074494
0.115994
0.0834975
0.0623054
0.0482612
0.0386474
0.0318167
0.026789
0.0229739
0.0200047
0.0176453
0.0157379
0.0141737
0.012875
0.0117851
0.010862
0.0100738
0.0093969
0.00881485
0.119234
0.0894856
0.0689377
0.0546109
0.0443919
0.0369007
0.0312597
0.0269089
0.0234837
0.02074
0.0185097
0.0166735
0.015145
0.0138601
0.0127705
0.0118397
0.0110398
0.010351
0.122086
0.095084
0.075415
0.0610223
0.0503361
0.0422535
0.0360231
0.0311353
0.0272402
0.0240931
0.0215191
0.0193909
0.0176141
0.0161175
0.0148467
0.0137601
0.0128258
0.0120198
0.124546
0.100135
0.0814619
0.0671726
0.056158
0.047577
0.0408126
0.0354174
0.031066
0.0275197
0.0246013
0.0221778
0.0201482
0.018435
0.0169783
0.0157315
0.0146584
0.0137312
0.126578
0.104396
0.0866605
0.0725515
0.0613228
0.0523526
0.0451453
0.0393148
0.0345631
0.0306611
0.0274325
0.024741
0.0224806
0.020569
0.0189413
0.0175468
0.0163455
0.0153062
0.128011
0.107322
0.0902141
0.0762353
0.0648743
0.0556509
0.0481493
0.0420254
0.0370012
0.0328553
0.0294126
0.0265352
0.0241143
0.0220643
0.0203171
0.0188191
0.0175275
0.0164083
0.128006
0.107313
0.0902048
0.0762269
0.0648674
0.0556454
0.048145
0.0420221
0.0369988
0.0328537
0.0294117
0.0265349
0.0241147
0.0220651
0.0203184
0.0188205
0.0175286
0.0164082
0.126509
0.104255
0.0864922
0.0723807
0.0611613
0.052205
0.0450128
0.0391967
0.0344584
0.0305685
0.0273506
0.0246684
0.0224163
0.0205118
0.0188902
0.0175006
0.0163023
0.015263
0.124267
0.0995604
0.0807712
0.0664676
0.0554886
0.0469631
0.0402594
0.0349227
0.0306248
0.0271258
0.0242487
0.0218611
0.0198625
0.0181762
0.0167425
0.0155151
0.0144574
0.0135404
0.12136
0.0936399
0.0737261
0.0593348
0.0487592
0.0408248
0.0347467
0.0300003
0.0262308
0.0231928
0.0207127
0.018665
0.0169572
0.0155197
0.0142998
0.0132566
0.0123582
0.0115797
0.117686
0.0865903
0.0656967
0.0514791
0.0415374
0.0343608
0.0290183
0.0249322
0.0217348
0.0191848
0.0171184
0.0154211
0.0140105
0.0128262
0.0118228
0.0109656
0.0102279
0.00958885
0.11305
0.0784122
0.056921
0.0432687
0.0342296
0.0279652
0.0234365
0.0200435
0.0174263
0.0153598
0.0136967
0.012337
0.0112107
0.0102671
0.00946865
0.00878716
0.00820096
0.00769339
0.107169
0.0691009
0.0476372
0.035029
0.0271566
0.021922
0.0182437
0.0155401
0.0134818
0.0118708
0.0105819
0.00953231
0.00866515
0.00793988
0.00732684
0.00680389
0.00635417
0.00596494
0.0996761
0.0587036
0.0381279
0.0270699
0.0205782
0.0164329
0.0135949
0.0115437
0.00999935
0.00879953
0.00784423
0.00706854
0.00642881
0.0058944
0.00544292
0.00505791
0.00472681
0.00444035
0.0901097
0.0473665
0.0287363
0.0196847
0.0146976
0.0116311
0.0095785
0.00811521
0.00702351
0.00618081
0.00551236
0.00497026
0.00452345
0.00415044
0.00383509
0.00356631
0.00333502
0.00313489
0.0779076
0.0353826
0.0198606
0.0131383
0.00966106
0.00759296
0.0062335
0.00527412
0.00456427
0.0040204
0.00359045
0.00324087
0.00295211
0.0027111
0.00250631
0.00233223
0.00218205
0.00205172
0.06238
0.0232554
0.0119461
0.00765493
0.00556338
0.00435255
0.00356723
0.00301619
0.00261337
0.00231042
0.00207212
0.00187484
0.00171025
0.00157305
0.00145375
0.00135351
0.00126603
0.00118897
0.0426105
0.0117794
0.00546931
0.00341388
0.00246076
0.00192014
0.0015728
0.00132962
0.00115856
0.00104156
0.000949972
0.000865458
0.000792696
0.00073072
0.000672599
0.000623659
0.000579003
0.00054339
0.0168348
0.0025599
0.00110031
0.000684193
0.00049518
0.00038916
0.000321436
0.000273104
0.000272249
0.000339128
0.000377306
0.000356363
0.000325305
0.000288842
0.000270297
0.000245145
0.000203678
0.000243517
3.70922e-06
1.3833e-05
2.56094e-05
3.82439e-05
4.60376e-05
4.98341e-05
5.02193e-05
4.77934e-05
4.45846e-05
3.94358e-05
3.40902e-05
2.93621e-05
2.67531e-05
2.73215e-05
2.96407e-05
3.13307e-05
3.11016e-05
2.80743e-05
2.28062e-05
1.91811e-05
1.9693e-05
2.60167e-05
3.8946e-05
6.51471e-05
8.76119e-05
0.000101033
0.000113666
0.000124633
0.000134561
0.000143029
0.000150585
0.000157177
0.000163014
0.000168147
0.000172662
0.000176673
0.000180249
0.000183458
0.000186346
0.00018895
0.000191293
0.000193394
0.000195267
0.000196925
0.000198381
0.000199646
0.000200727
0.000201631
0.000202356
0.000202898
0.000203141
0.000203372
0.000203417
0.000203298
0.00020302
0.000202605
0.000202048
0.000201355
0.000200525
0.000199563
0.00019847
0.000197248
0.0001959
0.000194429
0.000192838
0.00019113
0.000189306
0.000187369
0.000185323
0.000183171
0.000180915
0.000178559
0.000176105
0.000173555
0.000170914
0.000168182
0.000165362
0.000162455
0.000159463
0.000156387
0.000153228
0.000149986
0.000146661
0.00014325
0.000139752
0.000136159
0.000132466
0.000128663
0.000124738
0.000120677
0.000116465
0.000112087
0.000107542
0.000102886
9.83273e-05
9.43616e-05
9.15614e-05
8.98183e-05
8.85077e-05
8.73037e-05
8.61205e-05
8.49417e-05
8.37658e-05
8.25934e-05
8.14255e-05
8.02628e-05
7.9107e-05
7.79621e-05
7.68497e-05
7.58984e-05
7.49641e-05
7.40363e-05
7.31165e-05
7.2205e-05
7.13021e-05
7.04083e-05
6.95237e-05
6.86489e-05
6.77841e-05
6.69294e-05
6.6085e-05
6.52512e-05
6.44283e-05
6.36168e-05
6.28166e-05
6.20275e-05
6.12507e-05
6.05137e-05
5.98367e-05
5.91684e-05
5.85051e-05
5.78554e-05
5.72238e-05
5.65971e-05
5.59754e-05
5.53617e-05
5.47572e-05
5.41624e-05
5.35772e-05
5.30016e-05
5.24354e-05
5.18786e-05
5.13308e-05
5.07922e-05
5.02624e-05
4.97414e-05
4.92291e-05
4.87254e-05
4.82303e-05
4.77436e-05
4.72652e-05
4.67951e-05
4.63333e-05
4.58797e-05
4.54343e-05
4.49973e-05
4.45685e-05
4.41482e-05
4.37365e-05
4.33334e-05
4.29393e-05
4.25543e-05
4.21788e-05
4.18128e-05
4.14567e-05
4.11105e-05
4.07743e-05
4.04478e-05
4.01305e-05
3.98216e-05
3.95198e-05
3.92233e-05
3.89283e-05
3.86347e-05
3.83235e-05
3.80262e-05
3.75969e-05
3.72905e-05
3.63592e-05
3.484e-05
5.88192e-06
3.99435e-05
9.09017e-05
0.000151924
0.000191206
0.000213574
0.000222529
0.000221116
0.000213152
0.000197496
0.000178398
0.000160499
0.000151699
0.000156437
0.000168614
0.000176135
0.000178033
0.000178819
0.000183784
0.000192712
0.000207737
0.000224923
0.000241166
0.000256468
0.000267369
0.000276832
0.000285413
0.000298235
0.000316685
0.000330309
0.000342755
0.000353462
0.000363215
0.000372144
0.000379916
0.000387018
0.00039364
0.000399999
0.000406223
0.000412376
0.000418452
0.000424407
0.00043019
0.00043576
0.000441089
0.00044616
0.000450958
0.00045547
0.000459698
0.000463647
0.000467326
0.000470757
0.000473928
0.000476849
0.000479521
0.000481946
0.000484124
0.000486057
0.000487743
0.000489184
0.00049038
0.000491332
0.000492043
0.000492516
0.000492762
0.000492786
0.000492582
0.000492146
0.000491496
0.000490635
0.000489568
0.000488303
0.000486845
0.000485202
0.00048338
0.000481388
0.000479231
0.000476918
0.000474457
0.000471855
0.00046912
0.000466261
0.000463285
0.0004602
0.000457015
0.000453737
0.000450375
0.000446936
0.000443429
0.000439861
0.000436239
0.000432568
0.000428848
0.000425072
0.00042122
0.000417266
0.000413195
0.000409036
0.000404839
0.000400627
0.000396409
0.000392189
0.000387969
0.000383753
0.000379545
0.000375348
0.000371165
0.000366998
0.000362848
0.000358711
0.000354599
0.000350517
0.000346465
0.000342447
0.000338463
0.000334516
0.000330607
0.000326737
0.000322908
0.000319121
0.000315377
0.000311676
0.000308021
0.000304411
0.000300848
0.000297332
0.000293862
0.000290437
0.000287056
0.000283722
0.000280433
0.000277197
0.000274016
0.000270873
0.000267769
0.000264708
0.000261693
0.000258725
0.000255803
0.000252929
0.0002501
0.000247317
0.000244578
0.000241883
0.000239232
0.000236625
0.000234059
0.000231536
0.000229054
0.000226613
0.000224214
0.000221854
0.000219535
0.000217256
0.000215017
0.000212819
0.000210661
0.000208544
0.000206469
0.000204437
0.000202449
0.000200506
0.000198609
0.000196761
0.000194963
0.000193215
0.00019152
0.000189876
0.000188284
0.000186741
0.000185243
0.000183789
0.000182361
0.000180986
0.000179544
0.000178328
0.000176485
0.000175949
0.000173186
0.000171884
1.28756e-05
7.44318e-05
0.000173978
0.00025117
0.000302742
0.00033229
0.000342983
0.000340019
0.000327264
0.000308332
0.000289131
0.000277098
0.000275208
0.000281967
0.000292209
0.000302966
0.000315731
0.000332552
0.000353835
0.000378839
0.000405951
0.000433899
0.000472888
0.000518796
0.000564188
0.000608108
0.000651042
0.000694585
0.00073357
0.00076459
0.000789386
0.000809052
0.000824647
0.000837026
0.000846969
0.000855244
0.000862549
0.000869522
0.000876697
0.000884425
0.000892808
0.000901723
0.00091093
0.000920194
0.000929338
0.000938244
0.000946836
0.000955066
0.000962898
0.000970304
0.000977258
0.000983738
0.000989735
0.000995243
0.00100026
0.00100479
0.00100882
0.00101237
0.00101542
0.00101798
0.00102005
0.00102162
0.0010227
0.00102324
0.0010234
0.00102311
0.00102232
0.00102107
0.00101938
0.00101727
0.00101473
0.00101178
0.00100845
0.00100473
0.00100065
0.000996223
0.000991458
0.000986372
0.00098098
0.000975298
0.00096934
0.000963123
0.00095666
0.000949968
0.000943062
0.000935956
0.000928664
0.000921202
0.000913582
0.000905818
0.000897922
0.000889906
0.000881778
0.000873546
0.00086522
0.000856808
0.000848323
0.000839782
0.000831199
0.00082259
0.000813964
0.00080533
0.000796696
0.000788071
0.00077946
0.000770872
0.000762312
0.000753787
0.000745301
0.000736862
0.000728474
0.000720142
0.000711872
0.000703667
0.000695531
0.000687468
0.00067948
0.00067157
0.000663742
0.000655997
0.000648337
0.000640764
0.00063328
0.000625887
0.000618587
0.000611379
0.000604264
0.000597242
0.000590315
0.000583482
0.000576745
0.000570103
0.000563554
0.000557094
0.00055072
0.000544436
0.000538244
0.000532143
0.000526134
0.000520217
0.00051439
0.000508652
0.000503003
0.000497442
0.000491967
0.000486576
0.00048127
0.000476047
0.000470906
0.000465845
0.000460864
0.000455961
0.000451136
0.000446386
0.000441712
0.000437112
0.000432585
0.00042813
0.000423745
0.000419429
0.000415182
0.000411
0.000406883
0.000402829
0.000398834
0.000394896
0.00039101
0.000387172
0.000383374
0.000379609
0.000375864
0.000372125
0.000368367
0.000364579
0.000360664
0.000356716
0.000352251
0.000348068
0.000341612
0.000330118
2.1827e-05
0.000106504
0.000220167
0.000312464
0.000374802
0.000411454
0.000426594
0.000426808
0.000416805
0.000403614
0.000395868
0.000395307
0.000404801
0.000422123
0.000444915
0.000472695
0.000506053
0.00054527
0.000589519
0.00065314
0.000727082
0.000806912
0.000890686
0.000960884
0.001023
0.00107886
0.00112905
0.00117374
0.0012128
0.00124652
0.00127562
0.00130085
0.00132289
0.00134237
0.00135986
0.00137585
0.00139076
0.00140491
0.00141856
0.00143191
0.00144507
0.00145812
0.00147107
0.00148392
0.00149661
0.00150906
0.00152119
0.00153289
0.00154407
0.00155466
0.00156461
0.00157388
0.00158245
0.0015903
0.00159744
0.00160384
0.00160951
0.00161444
0.00161864
0.0016221
0.00162482
0.0016268
0.00162795
0.00162838
0.00162826
0.00162734
0.00162571
0.00162339
0.00162039
0.00161673
0.00161243
0.00160751
0.00160199
0.00159589
0.00158923
0.00158203
0.00157432
0.00156613
0.00155746
0.00154835
0.00153882
0.00152889
0.00151859
0.00150793
0.00149695
0.00148566
0.00147408
0.00146225
0.00145017
0.00143787
0.00142537
0.00141269
0.00139984
0.00138685
0.00137372
0.00136047
0.00134712
0.00133369
0.00132021
0.00130668
0.00129312
0.00127955
0.00126598
0.00125243
0.0012389
0.0012254
0.00121195
0.00119855
0.00118522
0.00117196
0.00115878
0.00114568
0.00113268
0.00111979
0.001107
0.00109432
0.00108175
0.00106931
0.001057
0.00104481
0.00103276
0.00102084
0.00100906
0.000997415
0.000985915
0.000974557
0.000963343
0.000952274
0.000941351
0.000930574
0.000919944
0.000909459
0.000899118
0.000888916
0.000878853
0.00086893
0.000859147
0.000849505
0.000840005
0.000830644
0.000821422
0.000812338
0.00080339
0.000794577
0.000785896
0.000777346
0.000768926
0.000760634
0.000752467
0.000744424
0.000736504
0.000728704
0.000721022
0.000713457
0.000706007
0.00069867
0.000691445
0.000684328
0.000677319
0.000670415
0.000663613
0.000656912
0.000650308
0.000643797
0.000637376
0.000631039
0.000624782
0.000618595
0.00061247
0.000606394
0.000600351
0.000594321
0.000588272
0.00058217
0.000575944
0.000569566
0.000562759
0.000555783
0.000547358
0.000531177
2.69612e-05
0.000121966
0.000240952
0.000357449
0.000435173
0.000482043
0.000505337
0.000513694
0.00051532
0.00051654
0.000523759
0.000540256
0.000566616
0.000601862
0.000645243
0.000696807
0.000757365
0.000841152
0.000937136
0.00103281
0.00112153
0.00120565
0.0012847
0.00135712
0.00142364
0.00148484
0.00154111
0.00159279
0.00164024
0.00168388
0.00172421
0.00176169
0.00179675
0.00182977
0.00186106
0.00189087
0.00191938
0.00194675
0.00197305
0.00199836
0.00202271
0.0020461
0.00206854
0.00208999
0.00211045
0.00212987
0.00214824
0.00216551
0.00218166
0.00219668
0.00221054
0.00222327
0.00223486
0.00224532
0.00225469
0.00226297
0.00227018
0.00227635
0.00228147
0.00228557
0.00228866
0.00229071
0.00229162
0.00229171
0.00229083
0.00228895
0.00228611
0.00228234
0.00227765
0.00227206
0.00226561
0.00225832
0.00225022
0.00224134
0.00223171
0.00222135
0.00221031
0.0021986
0.00218627
0.00217333
0.00215983
0.0021458
0.00213126
0.00211625
0.0021008
0.00208493
0.00206868
0.00205209
0.00203516
0.00201795
0.00200046
0.00198274
0.00196479
0.00194666
0.00192835
0.00190989
0.00189132
0.00187264
0.00185388
0.00183507
0.00181623
0.00179737
0.00177852
0.00175968
0.00174088
0.00172214
0.00170345
0.00168484
0.00166633
0.00164791
0.0016296
0.00161142
0.00159336
0.00157545
0.00155768
0.00154007
0.00152262
0.00150534
0.00148822
0.00147129
0.00145453
0.00143796
0.00142158
0.00140539
0.0013894
0.00137359
0.00135799
0.00134258
0.00132738
0.00131237
0.00129756
0.00128295
0.00126854
0.00125432
0.00124029
0.00122645
0.00121281
0.00119936
0.0011861
0.00117303
0.00116015
0.00114746
0.00113495
0.00112262
0.00111048
0.00109851
0.00108672
0.00107511
0.00106366
0.00105238
0.00104127
0.00103032
0.00101953
0.0010089
0.000998427
0.000988105
0.000977933
0.000967909
0.000958029
0.000948291
0.000938691
0.000929227
0.000919893
0.000910686
0.000901601
0.00089263
0.000883768
0.000875004
0.000866327
0.000857723
0.000849172
0.00084065
0.000832122
0.000823545
0.00081485
0.000805976
0.000796718
0.000787114
0.000776958
0.00075721
3.08049e-05
0.00013531
0.000261401
0.000392194
0.000488192
0.000549578
0.000587183
0.000610595
0.000628478
0.000648066
0.000674545
0.000710507
0.000756656
0.000813268
0.000880894
0.000971735
0.00107707
0.00117867
0.00127773
0.00137296
0.00146342
0.00154918
0.00163019
0.00170643
0.0017782
0.00184585
0.00190971
0.00197012
0.00202741
0.00208191
0.00213394
0.00218379
0.00223171
0.00227789
0.00232251
0.00236568
0.00240749
0.002448
0.00248723
0.00252519
0.00256188
0.00259727
0.00263135
0.00266407
0.0026954
0.00272529
0.00275371
0.00278061
0.00280596
0.00282972
0.00285188
0.00287239
0.00289125
0.00290846
0.00292399
0.00293786
0.00295005
0.00296059
0.00296948
0.00297675
0.0029824
0.00298648
0.0029889
0.0029898
0.00298934
0.00298736
0.00298402
0.00297931
0.00297331
0.00296605
0.0029576
0.00294801
0.00293732
0.00292559
0.00291286
0.0028992
0.00288463
0.00286921
0.00285298
0.00283599
0.00281827
0.00279988
0.00278084
0.00276121
0.00274101
0.0027203
0.00269911
0.00267748
0.00265545
0.00263304
0.00261031
0.00258728
0.00256398
0.00254045
0.00251672
0.00249281
0.00246875
0.00244458
0.00242032
0.002396
0.00237164
0.00234726
0.0023229
0.00229857
0.00227429
0.00225007
0.00222594
0.00220191
0.002178
0.00215422
0.00213059
0.00210711
0.0020838
0.00206068
0.00203774
0.002015
0.00199246
0.00197014
0.00194804
0.00192616
0.00190452
0.00188311
0.00186194
0.00184101
0.00182033
0.0017999
0.00177972
0.00175979
0.00174012
0.00172069
0.00170152
0.0016826
0.00166393
0.00164551
0.00162733
0.0016094
0.00159171
0.00157426
0.00155706
0.0015401
0.00152337
0.00150689
0.00149063
0.00147461
0.00145881
0.00144324
0.00142789
0.00141276
0.00139784
0.00138314
0.00136864
0.00135435
0.00134026
0.00132637
0.00131268
0.00129917
0.00128586
0.00127273
0.00125979
0.00124702
0.00123442
0.001222
0.00120974
0.00119764
0.0011857
0.0011739
0.00116224
0.00115071
0.00113929
0.00112798
0.00111674
0.00110555
0.00109438
0.00108318
0.00107188
0.00106041
0.00104859
0.00103644
0.00102416
0.00100172
3.23469e-05
0.000142478
0.000273863
0.000409599
0.000527341
0.000608419
0.000664438
0.000706453
0.000743675
0.000783325
0.000830416
0.000887849
0.000957353
0.00105005
0.00115728
0.00126387
0.00136991
0.00147313
0.00157303
0.00166919
0.00176138
0.00184962
0.001934
0.00201469
0.00209192
0.00216597
0.00223711
0.00230563
0.00237175
0.00243573
0.00249778
0.00255806
0.00261672
0.00267389
0.00272965
0.00278405
0.00283712
0.00288888
0.00293933
0.00298844
0.00303618
0.00308252
0.00312741
0.0031708
0.00321264
0.00325288
0.00329146
0.00332833
0.00336344
0.00339675
0.00342822
0.00345779
0.00348544
0.00351114
0.00353486
0.00355658
0.00357628
0.00359397
0.00360962
0.00362324
0.00363484
0.00364442
0.003652
0.00365761
0.00366126
0.00366288
0.00366279
0.0036608
0.00365703
0.00365151
0.0036443
0.00363546
0.00362504
0.00361311
0.00359972
0.00358495
0.00356886
0.00355151
0.00353298
0.00351333
0.00349262
0.00347093
0.00344833
0.00342486
0.00340061
0.00337563
0.00334999
0.00332373
0.00329692
0.00326961
0.00324186
0.0032137
0.00318519
0.00315638
0.0031273
0.00309798
0.00306849
0.00303884
0.00300907
0.00297922
0.00294932
0.0029194
0.00288949
0.00285961
0.00282979
0.00280005
0.00277041
0.00274089
0.00271152
0.0026823
0.00265326
0.00262441
0.00259576
0.00256733
0.00253913
0.00251117
0.00248346
0.002456
0.00242882
0.0024019
0.00237527
0.00234892
0.00232286
0.00229709
0.00227162
0.00224645
0.00222158
0.00219701
0.00217275
0.00214879
0.00212513
0.00210178
0.00207873
0.00205598
0.00203353
0.00201137
0.0019895
0.00196793
0.00194665
0.00192565
0.00190495
0.00188452
0.00186438
0.00184452
0.00182492
0.0018056
0.00178654
0.00176775
0.00174922
0.00173093
0.0017129
0.00169512
0.00167758
0.00166028
0.00164321
0.00162637
0.00160976
0.00159338
0.00157721
0.00156126
0.00154551
0.00152998
0.00151464
0.0014995
0.00148454
0.00146977
0.00145516
0.00144072
0.00142642
0.00141225
0.00139819
0.0013842
0.00137026
0.00135631
0.00134229
0.00132812
0.00131364
0.00129891
0.00128386
0.00125963
3.2788e-05
0.000144069
0.000275146
0.000409112
0.000538817
0.000642032
0.000719161
0.000780651
0.00083664
0.000894824
0.000963207
0.00105577
0.00116588
0.00128736
0.00140284
0.00151401
0.00162173
0.00172616
0.00182726
0.00192497
0.0020193
0.00211034
0.00219824
0.00228319
0.00236541
0.00244512
0.00252254
0.00259789
0.00267136
0.00274311
0.0028133
0.00288203
0.00294939
0.00301546
0.00308027
0.00314384
0.00320617
0.00326724
0.00332703
0.0033855
0.00344259
0.00349825
0.00355243
0.00360506
0.00365608
0.00370541
0.003753
0.00379878
0.00384269
0.00388467
0.00392467
0.00396263
0.00399851
0.00403226
0.00406385
0.00409325
0.00412042
0.00414535
0.00416802
0.00418842
0.00420654
0.00422239
0.00423598
0.0042473
0.00425639
0.00426326
0.00426798
0.00427043
0.00427087
0.00426922
0.00426555
0.0042599
0.00425234
0.00424291
0.00423167
0.0042187
0.00420405
0.00418779
0.00416999
0.00415073
0.00413006
0.00410807
0.00408482
0.00406039
0.00403485
0.00400827
0.00398072
0.00395228
0.00392301
0.00389297
0.00386224
0.00383088
0.00379895
0.0037665
0.00373361
0.00370031
0.00366667
0.00363273
0.00359855
0.00356418
0.00352965
0.00349502
0.00346032
0.00342558
0.00339085
0.00335616
0.00332153
0.00328699
0.00325258
0.00321831
0.00318422
0.00315031
0.00311661
0.00308314
0.00304991
0.00301693
0.00298423
0.00295181
0.00291968
0.00288786
0.00285635
0.00282516
0.00279429
0.00276375
0.00273355
0.00270369
0.00267418
0.00264501
0.00261618
0.0025877
0.00255957
0.00253179
0.00250435
0.00247726
0.00245051
0.0024241
0.00239803
0.0023723
0.0023469
0.00232184
0.0022971
0.0022727
0.00224861
0.00222485
0.0022014
0.00217827
0.00215545
0.00213292
0.0021107
0.00208878
0.00206714
0.00204579
0.00202473
0.00200394
0.00198343
0.00196318
0.0019432
0.00192349
0.00190402
0.00188481
0.00186585
0.00184712
0.00182864
0.00181038
0.00179234
0.00177452
0.0017569
0.00173948
0.00172223
0.00170514
0.00168818
0.00167133
0.00165455
0.00163779
0.00162098
0.00160405
0.00158685
0.00156946
0.00155151
0.00152537
3.22251e-05
0.000141106
0.000268672
0.000397589
0.000521187
0.000633042
0.000726766
0.00080813
0.000891963
0.000987815
0.00109757
0.00122264
0.00135908
0.00148647
0.00160665
0.00172156
0.00183216
0.0019388
0.00204181
0.00214155
0.00223824
0.00233207
0.00242326
0.00251199
0.0025985
0.00268296
0.00276559
0.00284654
0.00292598
0.00300403
0.00308079
0.00315635
0.00323077
0.00330407
0.00337626
0.00344735
0.0035173
0.00358609
0.00365366
0.00371995
0.00378491
0.00384846
0.00391052
0.00397102
0.00402988
0.00408702
0.00414237
0.00419585
0.00424738
0.00429691
0.00434435
0.00438966
0.00443277
0.00447364
0.00451222
0.00454846
0.00458233
0.00461381
0.00464287
0.0046695
0.00469367
0.0047154
0.00473467
0.00475151
0.00476591
0.0047779
0.0047875
0.00479473
0.00479966
0.00480223
0.00480262
0.0048008
0.00479684
0.00479077
0.00478267
0.00477259
0.00476059
0.00474673
0.00473109
0.00471373
0.00469472
0.00467413
0.00465204
0.00462852
0.00460363
0.00457746
0.00455007
0.00452154
0.00449195
0.00446135
0.00442983
0.00439744
0.00436426
0.00433036
0.00429579
0.00426062
0.00422492
0.00418873
0.00415212
0.00411515
0.00407787
0.00404033
0.00400257
0.00396465
0.00392662
0.0038885
0.00385034
0.00381218
0.00377406
0.003736
0.00369804
0.0036602
0.00362251
0.00358501
0.0035477
0.00351061
0.00347377
0.00343718
0.00340087
0.00336484
0.00332912
0.00329371
0.00325863
0.00322388
0.00318947
0.00315541
0.0031217
0.00308836
0.00305538
0.00302276
0.00299052
0.00295864
0.00292714
0.00289601
0.00286525
0.00283485
0.00280483
0.00277517
0.00274589
0.00271696
0.0026884
0.0026602
0.00263235
0.00260486
0.00257772
0.00255092
0.00252447
0.00249836
0.00247258
0.00244713
0.00242201
0.0023972
0.00237272
0.00234855
0.00232468
0.00230112
0.00227786
0.0022549
0.00223222
0.00220983
0.00218772
0.00216588
0.00214431
0.00212301
0.00210196
0.00208115
0.00206058
0.00204023
0.00202009
0.00200013
0.00198034
0.00196068
0.00194111
0.00192159
0.00190203
0.00188238
0.00186249
0.00184243
0.00182168
0.00179335
3.08509e-05
0.000135011
0.000257907
0.000383074
0.000504928
0.000620961
0.000731696
0.000841022
0.000956317
0.0010826
0.00122103
0.00137104
0.00151322
0.00164507
0.00176922
0.00188753
0.00200114
0.00211067
0.00221652
0.00231889
0.00241817
0.00251476
0.00260895
0.002701
0.00279113
0.00287956
0.00296646
0.00305199
0.00313629
0.00321946
0.00330158
0.00338271
0.00346289
0.00354214
0.00362043
0.00369775
0.00377406
0.0038493
0.00392341
0.00399631
0.00406792
0.00413817
0.00420695
0.00427418
0.00433977
0.00440363
0.00446567
0.0045258
0.00458394
0.00464001
0.00469393
0.00474564
0.00479507
0.00484217
0.00488687
0.00492913
0.00496891
0.00500618
0.00504092
0.00507308
0.00510268
0.00512968
0.0051541
0.00517594
0.0051952
0.0052119
0.00522607
0.00523772
0.0052469
0.00525362
0.00525794
0.00525987
0.00525953
0.00525692
0.0052521
0.00524514
0.00523608
0.005225
0.00521196
0.00519703
0.00518027
0.00516175
0.00514154
0.00511972
0.00509636
0.00507154
0.00504531
0.00501777
0.00498897
0.004959
0.00492791
0.00489579
0.0048627
0.0048287
0.00479387
0.00475827
0.00472196
0.00468501
0.00464748
0.00460943
0.00457091
0.00453199
0.00449271
0.00445313
0.00441329
0.00437325
0.00433305
0.00429273
0.00425233
0.00421189
0.00417145
0.00413104
0.00409069
0.00405044
0.00401032
0.00397034
0.00393054
0.00389094
0.00385155
0.00381241
0.00377352
0.00373491
0.00369658
0.00365856
0.00362085
0.00358346
0.00354641
0.0035097
0.00347335
0.00343735
0.00340171
0.00336644
0.00333154
0.00329701
0.00326285
0.00322907
0.00319566
0.00316263
0.00312998
0.00309771
0.00306581
0.00303428
0.00300313
0.00297235
0.00294193
0.00291188
0.0028822
0.00285287
0.0028239
0.00279528
0.00276701
0.00273908
0.00271149
0.00268424
0.00265733
0.00263074
0.00260448
0.00257853
0.00255291
0.00252759
0.00250258
0.00247787
0.00245346
0.00242933
0.00240549
0.00238192
0.0023586
0.00233554
0.00231271
0.00229009
0.00226765
0.00224537
0.0022232
0.00220109
0.00217898
0.00215678
0.00213437
0.0021118
0.0020885
0.00205783
2.93021e-05
0.000128712
0.000248088
0.000372267
0.000496883
0.00062087
0.000745775
0.000875351
0.001013
0.00116063
0.00131841
0.00148
0.0016276
0.0017639
0.00189188
0.00201353
0.00213012
0.00224245
0.00235108
0.00245639
0.00255867
0.00265813
0.0027552
0.00285023
0.00294353
0.00303531
0.00312579
0.00321512
0.00330342
0.00339082
0.00347737
0.00356312
0.0036481
0.00373229
0.00381569
0.00389825
0.00397992
0.00406062
0.00414028
0.00421882
0.00429613
0.00437211
0.00444667
0.00451971
0.00459111
0.00466079
0.00472863
0.00479454
0.00485843
0.00492021
0.00497979
0.00503711
0.00509208
0.00514464
0.00519474
0.00524231
0.00528733
0.00532973
0.00536951
0.00540662
0.00544106
0.0054728
0.00550185
0.00552821
0.00555188
0.00557289
0.00559124
0.00560696
0.00562008
0.00563064
0.00563866
0.00564421
0.00564732
0.00564804
0.00564644
0.00564256
0.00563647
0.00562822
0.00561788
0.00560552
0.00559119
0.00557498
0.00555695
0.00553717
0.00551571
0.00549265
0.00546806
0.00544202
0.00541458
0.00538583
0.00535584
0.00532467
0.00529239
0.00525908
0.00522479
0.0051896
0.00515357
0.00511677
0.00507926
0.00504109
0.00500233
0.00496305
0.00492328
0.00488309
0.00484253
0.00480165
0.00476049
0.0047191
0.00467753
0.00463582
0.00459401
0.00455214
0.00451023
0.00446834
0.00442648
0.00438469
0.004343
0.00430144
0.00426003
0.00421879
0.00417775
0.00413692
0.00409633
0.00405599
0.00401591
0.00397612
0.00393663
0.00389744
0.00385857
0.00382002
0.00378181
0.00374394
0.00370642
0.00366926
0.00363245
0.003596
0.00355991
0.0035242
0.00348885
0.00345387
0.00341926
0.00338502
0.00335116
0.00331767
0.00328454
0.00325179
0.0032194
0.00318738
0.00315572
0.00312442
0.00309348
0.00306289
0.00303265
0.00300277
0.00297322
0.00294402
0.00291516
0.00288664
0.00285844
0.00283058
0.00280303
0.0027758
0.00274889
0.00272228
0.00269598
0.00266996
0.00264422
0.00261875
0.00259354
0.00256855
0.00254377
0.00251916
0.00249468
0.00247027
0.00244588
0.00242143
0.00239681
0.00237201
0.0023465
0.00231368
2.76153e-05
0.000122125
0.000238102
0.000361645
0.00048913
0.000619954
0.00075637
0.000900159
0.00105294
0.00121519
0.00138742
0.00155317
0.00170476
0.00184492
0.0019764
0.00210117
0.00222056
0.00233551
0.00244668
0.00255457
0.00265955
0.00276193
0.00286198
0.0029599
0.0030561
0.00315088
0.00324447
0.00333706
0.0034288
0.00351978
0.00361009
0.00369976
0.00378881
0.00387723
0.00396498
0.00405202
0.00413827
0.00422366
0.0043081
0.00439148
0.0044737
0.00455465
0.00463422
0.00471229
0.00478874
0.00486347
0.00493637
0.00500732
0.00507624
0.00514302
0.00520757
0.00526981
0.00532966
0.00538704
0.00544191
0.00549419
0.00554385
0.00559083
0.0056351
0.00567664
0.00571542
0.00575144
0.00578468
0.00581514
0.00584283
0.00586777
0.00588996
0.00590944
0.00592623
0.00594037
0.00595188
0.00596082
0.00596723
0.00597115
0.00597264
0.00597177
0.00596861
0.00596318
0.00595556
0.00594581
0.005934
0.0059202
0.00590448
0.0058869
0.00586755
0.0058465
0.0058238
0.00579955
0.0057738
0.00574663
0.00571812
0.00568832
0.0056573
0.00562515
0.00559191
0.00555767
0.00552248
0.00548641
0.00544952
0.00541188
0.00537354
0.00533457
0.00529501
0.00525494
0.00521439
0.00517342
0.00513208
0.00509041
0.00504847
0.0050063
0.00496393
0.00492141
0.00487878
0.00483607
0.00479332