/*--------------------------------*- C++ -*----------------------------------*\
| =========                 |                                                 |
| \\      /  F ield         | OpenFOAM: The Open Source CFD Toolbox           |
|  \\    /   O peration     | Version:  v2012                                 |
|   \\  /    A nd           | Website:  www.openfoam.com                      |
|    \\/     M anipulation  |                                                 |
\*---------------------------------------------------------------------------*/
FoamFile
{
    version     2.0;
    format      ascii;
    class       volScalarField;
    location    "2200";
    object      p;
}
// * * * * * * * * * * * * * * * * * * * * * * * * * * * * * * * * * * * * * //

dimensions      [0 2 -2 0 0 0 0];


internalField   nonuniform List<scalar> 
12225
(
514.682
55.5342
2.37019
0.288556
-1.89138
-3.36701
-3.80794
-4.01051
-4.21842
-4.36809
-4.41065
-4.4114
-4.41227
-4.4419
-4.49569
-4.56952
-4.72501
-4.93947
-122.173
0.244934
-2.71209
-0.75829
-2.20915
-3.51754
-3.94404
-4.12987
-4.26796
-4.35929
-4.43092
-4.4918
-4.54787
-4.58739
-4.6181
-4.65045
-4.72634
-4.84945
-200.64
-16.1424
-2.34019
-0.351595
-1.89358
-3.23728
-3.76261
-4.01678
-4.18843
-4.30477
-4.39845
-4.46822
-4.51888
-4.54745
-4.56822
-4.58757
-4.62607
-4.62291
-110.611
-10.9682
-2.17099
-0.42542
-1.78065
-3.02126
-3.59218
-3.90365
-4.11654
-4.26134
-4.36499
-4.43543
-4.48309
-4.51211
-4.53192
-4.54207
-4.5443
-4.47888
-61.5672
-8.14009
-3.61655
-1.20355
-2.00831
-2.99091
-3.52098
-3.84486
-4.07214
-4.22805
-4.33649
-4.41029
-4.46026
-4.49114
-4.50767
-4.5065
-4.48148
-4.39152
-45.7253
-8.77963
-5.25288
-2.19406
-2.42327
-3.09398
-3.52929
-3.82983
-4.04991
-4.20531
-4.31525
-4.39164
-4.44323
-4.4739
-4.48608
-4.47602
-4.43601
-4.34063
-35.7892
-9.27097
-6.37479
-3.11869
-2.91554
-3.28333
-3.59752
-3.85136
-4.05003
-4.19682
-4.30385
-4.37973
-4.4309
-4.46043
-4.46958
-4.4551
-4.4106
-4.3222
-27.7728
-8.90189
-6.96844
-3.79723
-3.35598
-3.49268
-3.69522
-3.89707
-4.06897
-4.20273
-4.30356
-4.37661
-4.42636
-4.45507
-4.46346
-4.44903
-4.40733
-4.33124
-21.6849
-8.51499
-7.12935
-4.30538
-3.72368
-3.70086
-3.81172
-3.9619
-4.10411
-4.22167
-4.31374
-4.38226
-4.42978
-4.45771
-4.4664
-4.4542
-4.41849
-4.35623
-16.6077
-8.13582
-7.08323
-4.75058
-4.0784
-3.92976
-3.95524
-4.05005
-4.15782
-4.25508
-4.33543
-4.39756
-4.442
-4.46923
-4.47935
-4.47158
-4.44498
-4.39946
-12.6342
-7.67616
-6.90144
-5.09715
-4.40239
-4.16618
-4.11834
-4.1589
-4.23013
-4.30435
-4.37069
-4.42493
-4.46567
-4.49255
-4.50546
-4.50431
-4.48948
-4.46245
-9.69441
-7.14421
-6.62473
-5.32222
-4.67455
-4.39332
-4.29113
-4.28414
-4.32009
-4.37042
-4.42155
-4.46701
-4.50392
-4.53104
-4.5481
-4.55543
-4.55405
-4.54612
-7.6616
-6.60029
-6.30165
-5.42739
-4.87922
-4.59368
-4.46046
-4.41785
-4.4237
-4.452
-4.48844
-4.52541
-4.55891
-4.58716
-4.60957
-4.62655
-4.63924
-4.64965
-6.36661
-6.10874
-5.9815
-5.43626
-5.01201
-4.75406
-4.61294
-4.54968
-4.53408
-4.54505
-4.56947
-4.59956
-4.63098
-4.66145
-4.69014
-4.71718
-4.74348
-4.77044
-5.61843
-5.71815
-5.70488
-5.38684
-5.08207
-4.86936
-4.73839
-4.66911
-4.6424
-4.64287
-4.65974
-4.68602
-4.71739
-4.75143
-4.787
-4.82388
-4.86245
-4.9035
-5.23916
-5.456
-5.504
-5.32356
-5.11116
-4.94426
-4.83216
-4.76736
-4.73886
-4.73617
-4.75097
-4.77734
-4.81132
-4.85046
-4.89335
-4.93941
-4.9885
-5.04084
-5.09794
-5.3401
-5.41285
-5.29493
-5.13102
-4.99202
-4.89449
-4.83671
-4.8117
-4.81159
-4.82948
-4.8601
-4.89968
-4.94568
-4.99648
-5.05114
-5.10915
-5.1703
-5.13558
-5.39585
-5.47001
-5.34397
-5.17023
-5.02463
-4.92444
-4.86733
-4.84544
-4.85033
-4.8745
-4.91231
-4.9596
-5.0136
-5.07238
-5.13477
-5.19999
-5.26766
-5.38771
-5.65013
-5.68592
-5.47089
-5.22183
-5.03158
-4.91061
-4.84763
-4.82865
-4.84092
-4.87453
-4.92227
-4.97928
-5.04233
-5.10933
-5.17893
-5.2504
-5.32325
-5.99684
-6.13174
-6.03762
-5.63026
-5.24247
-4.98295
-4.83666
-4.7719
-4.7625
-4.7889
-4.8374
-4.89909
-4.9684
-5.04196
-5.11775
-5.19459
-5.27183
-5.34929
-7.24422
-6.88415
-6.48893
-5.75682
-5.17836
-4.84864
-4.69237
-4.64256
-4.65669
-4.70734
-4.77753
-4.85732
-4.94128
-5.02639
-5.11123
-5.19505
-5.27765
-5.35913
-9.63551
-7.959
-6.97713
-5.76664
-4.97474
-4.60786
-4.47822
-4.47038
-4.52568
-4.61127
-4.70905
-4.8099
-4.90945
-5.00611
-5.09937
-5.18939
-5.27647
-5.36118
-13.9765
-9.38531
-7.3975
-5.56413
-4.58985
-4.25999
-4.21147
-4.27675
-4.38943
-4.5175
-4.64574
-4.76794
-4.8822
-4.98883
-5.08889
-5.18356
-5.27387
-5.36071
-20.884
-10.9481
-7.54836
-5.05167
-4.01085
-3.83159
-3.92655
-4.09131
-4.27036
-4.44197
-4.5988
-4.73962
-4.86575
-4.97957
-5.08389
-5.18109
-5.27303
-5.36075
-29.7306
-11.9434
-7.02757
-4.12042
-3.25891
-3.37368
-3.66757
-3.94419
-4.18732
-4.39653
-4.57545
-4.72945
-4.86263
-4.9802
-5.08602
-5.18358
-5.27557
-5.36293
-43.1005
-12.608
-5.46676
-2.72314
-2.40798
-2.95897
-3.48074
-3.85928
-4.15107
-4.38535
-4.5776
-4.73735
-4.87175
-4.98875
-5.0935
-5.18991
-5.28133
-5.36785
-84.5935
-17.3675
-3.65801
-1.25954
-1.6906
-2.71717
-3.43237
-3.86606
-4.16898
-4.40536
-4.602
-4.76417
-4.89455
-5.00519
-5.10329
-5.19613
-5.28803
-5.37371
-177.88
-26.8436
-3.67406
-0.764273
-1.52958
-2.83821
-3.61016
-4.01019
-4.26177
-4.45699
-4.64205
-4.81048
-4.94336
-5.04893
-5.1313
-5.21019
-5.30047
-5.38406
-154.785
-9.62133
-3.26633
-1.06236
-1.83756
-3.21591
-3.90944
-4.21899
-4.40748
-4.54643
-4.6898
-4.84698
-4.99358
-5.12079
-5.20889
-5.27517
-5.35864
-5.44478
428.063
66.6115
7.06198
1.60531
-0.91008
-2.85193
-3.64759
-3.98898
-4.30582
-4.5751
-4.69992
-4.73581
-4.78894
-4.88034
-5.01373
-5.14815
-5.23597
-5.31543
-8.50522
-8.49243
-8.48236
-8.52427
-8.61718
-8.72015
-8.79907
-8.83799
-8.84073
-8.82256
-8.79494
-8.76641
-8.74495
-8.73639
-8.74146
-8.75378
-8.7645
-8.76925
-8.77084
-8.77599
-8.78736
-8.82006
-8.91026
-9.08401
-9.33882
-9.65798
-10.0302
-10.4446
-10.8856
-11.3372
-11.7844
-12.2153
-12.6207
-12.9943
-13.3316
-13.6303
-13.8894
-14.109
-14.2897
-14.4326
-14.539
-14.6101
-14.6473
-14.652
-14.6256
-14.5692
-14.4846
-14.3741
-14.2388
-14.0767
-13.8849
-13.665
-13.4196
-13.1504
-12.8586
-12.5454
-12.2118
-11.8588
-11.4874
-11.0986
-10.6936
-10.2735
-9.83936
-9.39238
-8.93373
-8.4646
-7.98619
-7.4997
-7.00633
-6.50726
-6.00364
-5.49663
-4.98733
-4.47683
-3.96617
-3.45634
-2.94832
-2.443
-1.94125
-1.44388
-0.951647
-0.465245
0.0146758
0.487525
0.952766
1.40992
1.85856
2.29831
2.72886
3.14995
3.56139
3.96297
4.35455
4.73609
5.10784
5.4698
5.8215
6.16256
6.49297
6.81296
7.12277
7.42262
7.71268
7.99314
8.26418
8.526
8.77881
9.02283
9.25829
9.48538
9.70432
9.91538
10.1188
10.3148
10.5036
10.6856
10.8608
11.0297
11.1923
11.3489
11.4998
11.6451
11.7852
11.9201
12.0501
12.1754
12.2962
12.4127
12.525
12.6334
12.7379
12.8389
12.9368
13.0314
13.1227
13.2109
13.2962
13.3785
13.4582
13.5353
13.6099
13.6821
13.7521
13.8199
13.8856
13.9493
14.011
14.0709
14.129
14.1853
14.24
14.293
14.3444
14.3943
14.4427
14.4897
14.5352
14.5793
14.622
14.6633
14.7033
14.742
14.7793
14.8154
14.8502
14.8837
14.9161
14.9472
14.9773
15.0064
15.0347
15.0624
15.0898
15.1174
15.1461
15.1768
15.2122
15.2538
15.3118
15.3723
-8.56311
-8.59447
-8.66862
-8.76207
-8.86498
-8.95643
-9.01681
-9.04031
-9.02228
-8.96089
-8.87067
-8.77403
-8.69317
-8.64284
-8.62136
-8.61843
-8.62843
-8.6552
-8.69456
-8.71619
-8.73806
-8.81765
-8.98299
-9.22647
-9.536
-9.90907
-10.336
-10.7964
-11.2688
-11.7358
-12.1848
-12.6067
-12.995
-13.3462
-13.6584
-13.9314
-14.1657
-14.3622
-14.5221
-14.6466
-14.7368
-14.7939
-14.8187
-14.8123
-14.7753
-14.7085
-14.6123
-14.4866
-14.3321
-14.1519
-13.9495
-13.7254
-13.4785
-13.2091
-12.9177
-12.6051
-12.2723
-11.92
-11.5494
-11.1614
-10.7571
-10.3376
-9.90406
-9.4576
-8.9994
-8.53064
-8.05251
-7.56622
-7.07297
-6.57393
-6.07027
-5.56313
-5.05362
-4.54282
-4.03179
-3.52152
-3.01297
-2.50705
-2.00464
-1.50653
-1.01349
-0.526229
-0.0453917
0.428422
0.894668
1.35286
1.80254
2.24334
2.67489
3.09689
3.50909
3.91124
4.30312
4.68462
5.05584
5.41698
5.76824
6.10964
6.44104
6.76232
7.07353
7.37479
7.66626
7.94811
8.22052
8.48369
8.73782
8.98312
9.21983
9.44818
9.6684
9.88071
10.0854
10.2826
10.4726
10.6557
10.8321
11.002
11.1656
11.3233
11.4752
11.6216
11.7626
11.8985
12.0296
12.156
12.2778
12.3954
12.5088
12.6183
12.7239
12.8256
12.9236
13.0182
13.1097
13.1981
13.2836
13.3663
13.4462
13.5236
13.5985
13.6711
13.7413
13.8094
13.8754
13.9394
14.0014
14.0616
14.12
14.1766
14.2315
14.2848
14.3365
14.3866
14.4352
14.4824
14.5281
14.5724
14.6153
14.6568
14.697
14.7358
14.7734
14.8096
14.8445
14.8782
14.9107
14.942
14.9722
15.0014
15.0298
15.0576
15.0851
15.1128
15.1415
15.1722
15.207
15.2466
15.3003
15.3502
-8.69044
-8.77205
-8.88981
-8.99519
-9.07742
-9.13054
-9.15043
-9.13584
-9.08544
-9.00163
-8.89367
-8.77842
-8.67951
-8.61618
-8.58838
-8.58433
-8.60473
-8.66445
-8.7728
-8.92299
-9.11349
-9.35497
-9.65071
-9.99117
-10.3642
-10.7606
-11.1701
-11.5811
-11.983
-12.3688
-12.7338
-13.0743
-13.3878
-13.6724
-13.9273
-14.1519
-14.346
-14.5097
-14.6433
-14.7471
-14.8214
-14.8666
-14.8831
-14.8715
-14.832
-14.7652
-14.6713
-14.5505
-14.4026
-14.2286
-14.0301
-13.8079
-13.5627
-13.2949
-13.0052
-12.6945
-12.3635
-12.013
-11.6442
-11.2579
-10.8551
-10.4371
-10.0049
-9.55959
-9.10243
-8.63455
-8.15718
-7.67149
-7.17869
-6.67997
-6.17647
-5.66936
-5.15975
-4.64873
-4.13734
-3.62659
-3.11746
-2.61086
-2.10766
-1.60867
-1.11467
-0.626361
-0.144407
0.330593
0.798089
1.25759
1.70865
2.15089
2.58396
3.00757
3.4215
3.82554
4.21953
4.6034
4.97712
5.34068
5.69414
6.03749
6.37071
6.69379
7.00681
7.30988
7.60316
7.88679
8.16097
8.42588
8.68173
8.92873
9.16711
9.39709
9.6189
9.83276
10.0389
10.2376
10.4291
10.6136
10.7913
10.9626
11.1276
11.2865
11.4397
11.5873
11.7294
11.8664
11.9984
12.1256
12.2483
12.3666
12.4807
12.5907
12.6969
12.7994
12.8984
12.9941
13.0866
13.176
13.2624
13.3459
13.4267
13.5048
13.5805
13.6537
13.7246
13.7934
13.8599
13.9245
13.9871
14.0477
14.1066
14.1637
14.219
14.2727
14.3248
14.3754
14.4244
14.4719
14.5179
14.5625
14.6057
14.6475
14.688
14.7271
14.7649
14.8013
14.8365
14.8704
14.903
14.9345
14.9649
14.9943
15.0228
15.0506
15.0781
15.1058
15.1342
15.1643
15.1978
15.2344
15.2818
15.3154
-8.7283
-8.82535
-8.92636
-9.01263
-9.07671
-9.11596
-9.12791
-9.10996
-9.06221
-8.9898
-8.90416
-8.82223
-8.76215
-8.73658
-8.75018
-8.80504
-8.90521
-9.05452
-9.25362
-9.49679
-9.77454
-10.0799
-10.4073
-10.7505
-11.104
-11.4628
-11.8214
-12.1747
-12.5181
-12.8476
-13.1598
-13.4522
-13.7226
-13.9693
-14.1912
-14.3873
-14.557
-14.6999
-14.816
-14.9049
-14.9669
-15.002
-15.0103
-14.9918
-14.9468
-14.8754
-14.7779
-14.6547
-14.5063
-14.3332
-14.1361
-13.9155
-13.6718
-13.4057
-13.1177
-12.8087
-12.4793
-12.1305
-11.7631
-11.3782
-10.9768
-10.5599
-10.1287
-9.68432
-9.22785
-8.76053
-8.28355
-7.79809
-7.30536
-6.80655
-6.30281
-5.79531
-5.28516
-4.77346
-4.26126
-3.74957
-3.23938
-2.73159
-2.2271
-1.72672
-1.23124
-0.741353
-0.257741
0.218991
0.688289
1.14965
1.60263
2.04684
2.48193
2.90762
3.32366
3.72986
4.12609
4.51224
4.88828
5.25417
5.60988
5.95539
6.29072
6.61589
6.93098
7.23612
7.53145
7.81712
8.0933
8.36019
8.61799
8.86691
9.10716
9.33898
9.56258
9.7782
9.98607
10.1865
10.3796
10.5657
10.745
10.9178
11.0842
11.2446
11.3991
11.548
11.6914
11.8296
11.9628
12.0913
12.2151
12.3345
12.4496
12.5607
12.668
12.7715
12.8715
12.9682
13.0617
13.152
13.2393
13.3237
13.4053
13.4842
13.5606
13.6346
13.7062
13.7756
13.8428
13.9079
13.9711
14.0323
14.0917
14.1493
14.2051
14.2593
14.3118
14.3628
14.4122
14.4601
14.5065
14.5515
14.595
14.6372
14.6779
14.7173
14.7554
14.7921
14.8275
14.8616
14.8944
14.9261
14.9566
14.986
15.0146
15.0424
15.0698
15.0971
15.1249
15.1538
15.1851
15.2176
15.257
15.2756
-8.5147
-8.59953
-8.69963
-8.79666
-8.87382
-8.92628
-8.95308
-8.95514
-8.93702
-8.90716
-8.87772
-8.86271
-8.87485
-8.9236
-9.01506
-9.15227
-9.3352
-9.55919
-9.81575
-10.0968
-10.3969
-10.7118
-11.0373
-11.3682
-11.7003
-12.0299
-12.3535
-12.6681
-12.9711
-13.2599
-13.5325
-13.7874
-14.0231
-14.2383
-14.4321
-14.6037
-14.7523
-14.8773
-14.9784
-15.0551
-15.1071
-15.1344
-15.1366
-15.1136
-15.0656
-14.9924
-14.8941
-14.7709
-14.6231
-14.451
-14.2551
-14.0358
-13.7936
-13.5289
-13.2425
-12.9349
-12.607
-12.2596
-11.8936
-11.5099
-11.1096
-10.6937
-10.2633
-9.81956
-9.36363
-8.89672
-8.41999
-7.93463
-7.44186
-6.94284
-6.43876
-5.93078
-5.42
-4.90755
-4.39446
-3.88177
-3.37044
-2.86142
-2.35558
-1.85376
-1.35673
-0.86522
-0.379894
0.0986317
0.569797
1.0331
1.48808
1.93435
2.37156
2.79942
3.21768
3.62615
4.02466
4.41312
4.79146
5.15964
5.51761
5.86536
6.20292
6.53031
6.84763
7.15499
7.45251
7.74036
8.0187
8.28772
8.54762
8.79861
9.04091
9.27474
9.50033
9.71789
9.92767
10.1299
10.3248
10.5127
10.6937
10.8681
11.0362
11.1982
11.3542
11.5046
11.6495
11.7892
11.9238
12.0536
12.1787
12.2994
12.4158
12.5281
12.6365
12.7412
12.8423
12.94
13.0345
13.1257
13.2139
13.2992
13.3816
13.4614
13.5386
13.6133
13.6857
13.7558
13.8237
13.8895
13.9533
14.0152
14.0751
14.1333
14.1897
14.2444
14.2974
14.3488
14.3987
14.447
14.4939
14.5393
14.5832
14.6257
14.6668
14.7065
14.7449
14.7819
14.8175
14.8519
14.8849
14.9167
14.9474
14.9769
15.0054
15.033
15.0601
15.0868
15.1137
15.141
15.1695
15.1973
15.2289
15.235
-8.09403
-8.18254
-8.30364
-8.42642
-8.53163
-8.61199
-8.67033
-8.7126
-8.74651
-8.78192
-8.82978
-8.90034
-9.00156
-9.13814
-9.31219
-9.52261
-9.76469
-10.0328
-10.3217
-10.6255
-10.9388
-11.2569
-11.576
-11.8924
-12.2036
-12.5073
-12.8016
-13.085
-13.356
-13.6134
-13.8558
-14.0823
-14.2917
-14.4831
-14.6556
-14.8083
-14.9404
-15.0514
-15.1405
-15.2073
-15.2512
-15.2719
-15.269
-15.2422
-15.1914
-15.1164
-15.0172
-14.8937
-14.7462
-14.5749
-14.38
-14.1618
-13.9208
-13.6575
-13.3725
-13.0664
-12.7399
-12.3939
-12.0292
-11.6467
-11.2475
-10.8327
-10.4032
-9.96016
-9.50484
-9.03837
-8.56194
-8.07674
-7.58396
-7.08479
-6.58041
-6.07197
-5.56061
-5.04742
-4.53347
-4.01979
-3.50736
-2.99712
-2.48996
-1.98671
-1.48815
-0.995017
-0.507985
-0.0276718
0.445358
0.910594
1.36758
1.81592
2.25525
2.68529
3.10577
3.5165
3.91731
4.30808
4.68873
5.0592
5.41947
5.76951
6.10934
6.43903
6.75863
7.06826
7.36804
7.65814
7.93873
8.20997
8.47207
8.72522
8.96965
9.20556
9.43319
9.65277
9.86453
10.0687
10.2655
10.4553
10.6381
10.8144
10.9842
11.1479
11.3056
11.4576
11.6041
11.7453
11.8814
12.0126
12.1392
12.2613
12.379
12.4926
12.6023
12.7081
12.8104
12.9092
13.0047
13.097
13.1862
13.2724
13.3558
13.4365
13.5146
13.5902
13.6633
13.7342
13.8029
13.8694
13.9339
13.9965
14.0571
14.1158
14.1728
14.2281
14.2817
14.3337
14.3841
14.4329
14.4802
14.526
14.5704
14.6133
14.6548
14.6949
14.7335
14.7709
14.8068
14.8414
14.8747
14.9066
14.9373
14.9669
14.9953
15.0227
15.0493
15.0753
15.1009
15.1263
15.1517
15.1747
15.199
15.1944
-7.62988
-7.72866
-7.87089
-8.01986
-8.15795
-8.27678
-8.38003
-8.47709
-8.57739
-8.68985
-8.82201
-8.97869
-9.16254
-9.37397
-9.61123
-9.87215
-10.1537
-10.4513
-10.7596
-11.0735
-11.3888
-11.702
-12.0105
-12.3122
-12.6055
-12.8892
-13.1623
-13.4238
-13.6728
-13.9086
-14.1302
-14.337
-14.5279
-14.7022
-14.8591
-14.9978
-15.1176
-15.2176
-15.2972
-15.3559
-15.3929
-15.4079
-15.4004
-15.37
-15.3163
-15.2393
-15.1386
-15.0144
-14.8665
-14.6952
-14.5006
-14.283
-14.0428
-13.7805
-13.4965
-13.1915
-12.8662
-12.5213
-12.1578
-11.7766
-11.3785
-10.9648
-10.5363
-10.0942
-9.63977
-9.17404
-8.69823
-8.21353
-7.72114
-7.22222
-6.71797
-6.20952
-5.69801
-5.18454
-4.67018
-4.15596
-3.64286
-3.13181
-2.62372
-2.11942
-1.6197
-1.1253
-0.636883
-0.155087
0.319522
0.786431
1.24518
1.69535
2.1366
2.56862
2.99114
3.40396
3.80691
4.19985
4.5827
4.95537
5.31785
5.67011
6.01218
6.34411
6.66596
6.97784
7.27988
7.57223
7.85504
8.12849
8.39278
8.64811
8.89469
9.13273
9.36246
9.58411
9.79792
10.0041
10.2029
10.3946
10.5793
10.7574
10.9291
11.0945
11.254
11.4077
11.5558
11.6986
11.8363
11.9691
12.0971
12.2206
12.3397
12.4547
12.5657
12.6728
12.7763
12.8763
12.973
13.0664
13.1566
13.2439
13.3283
13.41
13.489
13.5655
13.6395
13.7112
13.7807
13.8481
13.9133
13.9766
14.0379
14.0973
14.155
14.2109
14.2651
14.3176
14.3685
14.4179
14.4657
14.512
14.5569
14.6002
14.6421
14.6826
14.7216
14.7593
14.7955
14.8304
14.8638
14.896
14.9267
14.9562
14.9845
15.0116
15.0377
15.0627
15.0869
15.1101
15.1322
15.1503
15.168
15.1541
-7.27646
-7.3698
-7.52202
-7.68797
-7.85508
-8.01646
-8.17166
-8.32855
-8.49533
-8.67776
-8.87985
-9.10271
-9.34488
-9.6055
-9.88398
-10.178
-10.4837
-10.7967
-11.1128
-11.4286
-11.741
-12.0478
-12.3472
-12.6379
-12.9188
-13.1891
-13.4481
-13.6952
-13.9297
-14.1511
-14.3588
-14.5521
-14.7303
-14.8927
-15.0386
-15.1671
-15.2777
-15.3695
-15.4419
-15.4942
-15.5257
-15.536
-15.5244
-15.4907
-15.4343
-15.355
-15.2527
-15.1271
-14.9783
-14.8064
-14.6114
-14.3936
-14.1534
-13.8912
-13.6075
-13.3029
-12.9781
-12.6339
-12.2711
-11.8906
-11.4933
-11.0803
-10.6526
-10.2114
-9.75777
-9.29283
-8.81778
-8.33381
-7.84209
-7.3438
-6.8401
-6.33213
-5.82102
-5.30787
-4.79372
-4.27961
-3.76651
-3.25536
-2.74705
-2.24241
-1.74223
-1.24725
-0.758141
-0.275532
0.200005
0.667954
1.12785
1.57928
2.02189
2.45535
2.87942
3.29385
3.69848
4.09316
4.4778
4.85232
5.21668
5.57086
5.91488
6.2488
6.57267
6.8866
7.1907
7.48512
7.77002
8.04557
8.31195
8.56936
8.81801
9.05812
9.2899
9.51358
9.72939
9.93755
10.1383
10.3319
10.5186
10.6985
10.872
11.0392
11.2004
11.3558
11.5057
11.6501
11.7894
11.9237
12.0533
12.1783
12.2988
12.4152
12.5275
12.636
12.7408
12.842
12.9398
13.0344
13.1258
13.2141
13.2996
13.3822
13.4622
13.5397
13.6147
13.6873
13.7576
13.8258
13.8918
13.9558
14.0179
14.0781
14.1364
14.193
14.2478
14.3009
14.3525
14.4024
14.4507
14.4976
14.5429
14.5867
14.629
14.6699
14.7094
14.7474
14.7839
14.819
14.8527
14.885
14.9158
14.9452
14.9733
15
15.0254
15.0494
15.072
15.0928
15.1116
15.125
15.1366
15.1147
-7.08862
-7.17476
-7.3291
-7.50169
-7.68539
-7.87812
-8.0765
-8.28253
-8.50066
-8.73323
-8.98054
-9.24255
-9.51917
-9.80997
-10.1131
-10.4251
-10.7426
-11.062
-11.3805
-11.6953
-12.0045
-12.3062
-12.5992
-12.8825
-13.1554
-13.4171
-13.6672
-13.9051
-14.1306
-14.3429
-14.5417
-14.7263
-14.8962
-15.0508
-15.1892
-15.3109
-15.4151
-15.5011
-15.5681
-15.6157
-15.643
-15.6494
-15.6346
-15.5979
-15.539
-15.4576
-15.3534
-15.2263
-15.0762
-14.9031
-14.7072
-14.4888
-14.248
-13.9854
-13.7014
-13.3967
-13.0719
-12.7277
-12.365
-11.9848
-11.5878
-11.1753
-10.7481
-10.3074
-9.85438
-9.3901
-8.91575
-8.43251
-7.94153
-7.44398
-6.94103
-6.43381
-5.92342
-5.41095
-4.89745
-4.38394
-3.87138
-3.3607
-2.85277
-2.34844
-1.84848
-1.35361
-0.864515
-0.381815
0.0939214
0.562178
1.02249
1.47444
1.91767
2.35186
2.77675
3.19212
3.59777
3.99356
4.3794
4.75519
5.12089
5.47648
5.82199
6.15744
6.4829
6.79848
7.10427
7.40043
7.68709
7.96443
8.23262
8.49187
8.74237
8.98432
9.21796
9.44349
9.66114
9.87115
10.0737
10.2691
10.4576
10.6393
10.8145
10.9835
11.1464
11.3035
11.4549
11.601
11.7418
11.8777
12.0088
12.1352
12.2572
12.375
12.4887
12.5985
12.7045
12.807
12.906
13.0017
13.0942
13.1837
13.2702
13.3539
13.4349
13.5133
13.5893
13.6628
13.734
13.803
13.8699
13.9347
13.9975
14.0584
14.1174
14.1747
14.2302
14.284
14.3361
14.3866
14.4355
14.4829
14.5287
14.573
14.6158
14.6571
14.697
14.7353
14.7722
14.8076
14.8415
14.8738
14.9047
14.9341
14.9619
14.9881
15.0127
15.0356
15.0565
15.0749
15.0904
15.0992
15.1054
15.0764
-7.0634
-7.15044
-7.29825
-7.46721
-7.65422
-7.85914
-8.07879
-8.31121
-8.55662
-8.81557
-9.08751
-9.37157
-9.66749
-9.97409
-10.2886
-10.6082
-10.9298
-11.2508
-11.5688
-11.8818
-12.1879
-12.486
-12.7748
-13.0536
-13.3217
-13.5785
-13.8236
-14.0565
-14.2769
-14.4842
-14.678
-14.8577
-15.0228
-15.1727
-15.3067
-15.4241
-15.5242
-15.6064
-15.6699
-15.7141
-15.7383
-15.742
-15.7245
-15.6854
-15.6244
-15.5409
-15.4349
-15.3062
-15.1546
-14.9802
-14.7832
-14.5637
-14.322
-14.0587
-13.7741
-13.4689
-13.1437
-12.7993
-12.4366
-12.0563
-11.6596
-11.2472
-10.8205
-10.3803
-9.92781
-9.4642
-8.99061
-8.50818
-8.01809
-7.52148
-7.0195
-6.51328
-6.0039
-5.49246
-4.97998
-4.46746
-3.95587
-3.44612
-2.93908
-2.43557
-1.93636
-1.44219
-0.953701
-0.471524
0.00378406
0.471712
0.9318
1.38364
1.82687
2.26117
2.68628
3.10196
3.50803
3.90434
4.29078
4.66726
5.03375
5.39021
5.73667
6.07315
6.39972
6.71648
7.02352
7.32098
7.609
7.88775
8.1574
8.41814
8.67016
8.91366
9.14887
9.37599
9.59524
9.80686
10.0111
10.2081
10.3981
10.5815
10.7583
10.9288
11.0933
11.2519
11.4049
11.5525
11.6948
11.8321
11.9646
12.0925
12.2159
12.335
12.45
12.5611
12.6684
12.772
12.8722
12.9691
13.0627
13.1533
13.2409
13.3256
13.4076
13.487
13.5638
13.6382
13.7103
13.7802
13.8479
13.9135
13.9771
14.0387
14.0985
14.1564
14.2125
14.267
14.3197
14.3708
14.4203
14.4682
14.5146
14.5594
14.6027
14.6444
14.6847
14.7234
14.7606
14.7962
14.8303
14.8628
14.8937
14.923
14.9505
14.9762
15
15.0216
15.0408
15.0568
15.069
15.0736
15.0748
15.0397
-7.1768
-7.25518
-7.38613
-7.54212
-7.72095
-7.9223
-8.14345
-8.38181
-8.63573
-8.90384
-9.18443
-9.47638
-9.77873
-10.0895
-10.4062
-10.7263
-11.0472
-11.3667
-11.6827
-11.9933
-12.2971
-12.5928
-12.8794
-13.156
-13.422
-13.6768
-13.92
-14.151
-14.3695
-14.5749
-14.7667
-14.9445
-15.1075
-15.2553
-15.3871
-15.5024
-15.6003
-15.6803
-15.7417
-15.7838
-15.8059
-15.8075
-15.788
-15.747
-15.6841
-15.5989
-15.4912
-15.3609
-15.2078
-15.0321
-14.8338
-14.6132
-14.3706
-14.1064
-13.8212
-13.5154
-13.1899
-12.8453
-12.4824
-12.1023
-11.7057
-11.2938
-10.8675
-10.428
-9.97635
-9.51367
-9.04111
-8.55982
-8.07096
-7.57566
-7.07506
-6.57026
-6.06236
-5.55242
-5.04145
-4.53045
-4.02036
-3.51208
-3.00647
-2.50435
-2.00646
-1.51352
-1.02618
-0.54507
-0.0707318
0.396324
0.855643
1.30682
1.74949
2.18334
2.60811
3.02356
3.42951
3.82581
4.21234
4.58902
4.9558
5.31266
5.65961
5.99668
6.32393
6.64144
6.94932
7.2477
7.53671
7.81651
8.08726
8.34916
8.60239
8.84715
9.08364
9.31208
9.53269
9.74568
9.95127
10.1497
10.3412
10.5259
10.7042
10.8761
11.042
11.202
11.3564
11.5054
11.6491
11.7878
11.9216
12.0508
12.1754
12.2958
12.4121
12.5244
12.6329
12.7377
12.839
12.937
13.0317
13.1233
13.2119
13.2976
13.3806
13.4609
13.5387
13.614
13.687
13.7576
13.8261
13.8925
13.9569
14.0193
14.0797
14.1384
14.1952
14.2503
14.3036
14.3553
14.4054
14.4539
14.5008
14.5461
14.5898
14.632
14.6727
14.7118
14.7493
14.7852
14.8195
14.8521
14.883
14.9121
14.9393
14.9644
14.9874
15.0078
15.0252
15.0388
15.0478
15.0485
15.0452
15.0048
-7.3548
-7.41934
-7.53024
-7.66874
-7.8327
-8.02162
-8.23315
-8.4646
-8.71349
-8.97747
-9.25432
-9.54283
-9.84176
-10.1489
-10.4618
-10.7781
-11.0955
-11.4118
-11.725
-12.0335
-12.3357
-12.6303
-12.9163
-13.1928
-13.459
-13.7142
-13.9579
-14.1896
-14.4086
-14.6145
-14.8067
-14.9847
-15.1478
-15.2954
-15.4269
-15.5416
-15.6388
-15.7179
-15.7782
-15.819
-15.8398
-15.84
-15.8191
-15.7766
-15.7122
-15.6255
-15.5163
-15.3846
-15.2302
-15.0532
-14.8538
-14.6322
-14.3888
-14.1239
-13.8381
-13.532
-13.2063
-12.8617
-12.4991
-12.1193
-11.7234
-11.3123
-10.887
-10.4486
-9.99821
-9.53698
-9.066
-8.58642
-8.09938
-7.60599
-7.10738
-6.60464
-6.09883
-5.591
-5.08216
-4.57329
-4.06532
-3.55913
-3.05556
-2.55542
-2.05946
-1.56837
-1.0828
-0.603357
-0.130587
0.33501
0.792984
1.24293
1.6845
2.11737
2.54127
2.95599
3.36132
3.75713
4.14328
4.51971
4.88635
5.24318
5.59021
5.92747
6.25502
6.57293
6.8813
7.18025
7.46992
7.75046
8.02203
8.2848
8.53897
8.78472
9.02225
9.25178
9.47351
9.68766
9.89445
10.0941
10.2868
10.4728
10.6523
10.8255
10.9927
11.154
11.3097
11.4599
11.6049
11.7448
11.8799
12.0103
12.1362
12.2578
12.3752
12.4886
12.5983
12.7042
12.8066
12.9056
13.0014
13.094
13.1836
13.2703
13.3542
13.4354
13.5141
13.5903
13.6641
13.7356
13.8049
13.872
13.9371
14.0002
14.0614
14.1207
14.1782
14.2339
14.2879
14.3402
14.3909
14.4399
14.4873
14.5332
14.5774
14.6201
14.6611
14.7006
14.7385
14.7746
14.8091
14.8419
14.8727
14.9017
14.9285
14.9531
14.9751
14.9943
15.0099
15.0212
15.0273
15.0243
15.017
14.9722
-7.52935
-7.58082
-7.67339
-7.79403
-7.94077
-8.11304
-8.30879
-8.52561
-8.76104
-9.0125
-9.27799
-9.55636
-9.84621
-10.1453
-10.4512
-10.7615
-11.074
-11.3866
-11.6972
-12.0041
-12.3057
-12.6006
-12.8877
-13.1658
-13.4341
-13.6918
-13.938
-14.1723
-14.3938
-14.6021
-14.7965
-14.9764
-15.1411
-15.2899
-15.4224
-15.5377
-15.6352
-15.7142
-15.7742
-15.8146
-15.8346
-15.8339
-15.812
-15.7683
-15.7027
-15.6148
-15.5045
-15.3716
-15.2162
-15.0382
-14.838
-14.6158
-14.3718
-14.1066
-13.8207
-13.5147
-13.1893
-12.8453
-12.4835
-12.1047
-11.71
-11.3003
-10.8766
-10.44
-9.99167
-9.53261
-9.06396
-8.58685
-8.10238
-7.61168
-7.11583
-6.61591
-6.11298
-5.60805
-5.10212
-4.59615
-4.09105
-3.58771
-3.08693
-2.5895
-2.09617
-1.60761
-1.12448
-0.647359
-0.176789
0.286734
0.742768
1.19091
1.63081
2.06216
2.48469
2.89816
3.3024
3.69725
4.08259
4.45833
4.82443
5.18084
5.52758
5.86468
6.19217
6.51015
6.81869
7.11792
7.40797
7.68897
7.96109
8.2245
8.47937
8.72589
8.96425
9.19467
9.41734
9.63247
9.84028
10.041
10.2348
10.4219
10.6025
10.7769
10.9452
11.1077
11.2645
11.4159
11.5621
11.7032
11.8394
11.971
12.098
12.2207
12.3393
12.4538
12.5645
12.6715
12.775
12.875
12.9718
13.0654
13.1559
13.2435
13.3284
13.4105
13.49
13.5671
13.6417
13.714
13.7841
13.852
13.9179
13.9817
14.0436
14.1036
14.1617
14.2181
14.2727
14.3256
14.3768
14.4264
14.4744
14.5207
14.5655
14.6086
14.6501
14.6899
14.7281
14.7646
14.7993
14.8321
14.863
14.8918
14.9183
14.9423
14.9635
14.9814
14.9953
15.0044
15.0077
15.0014
14.9904
14.9418
-7.65619
-7.69838
-7.77558
-7.87956
-8.00887
-8.16304
-8.34031
-8.53871
-8.75622
-8.99063
-9.24056
-9.5053
-9.78336
-10.0725
-10.3702
-10.674
-10.9817
-11.291
-11.5999
-11.9064
-12.2088
-12.5055
-12.7953
-13.0768
-13.3489
-13.6106
-13.8611
-14.0995
-14.3251
-14.5371
-14.7349
-14.9178
-15.0851
-15.2361
-15.3702
-15.4868
-15.5852
-15.6648
-15.725
-15.7652
-15.7849
-15.7836
-15.7609
-15.7165
-15.65
-15.5612
-15.45
-15.3164
-15.1603
-14.9818
-14.7812
-14.5588
-14.3149
-14.05
-13.7647
-13.4595
-13.1352
-12.7925
-12.4322
-12.0553
-11.6627
-11.2553
-10.8342
-10.4005
-9.95506
-9.49915
-9.03381
-8.56014
-8.07923
-7.59218
-7.10006
-6.60393
-6.10481
-5.6037
-5.10159
-4.5994
-4.09804
-3.59836
-3.10119
-2.60728
-2.11734
-1.63207
-1.15208
-0.677973
-0.210271
0.250539
0.704016
1.14977
1.58743
2.01672
2.43734
2.84909
3.25176
3.6452
4.02929
4.40394
4.76909
5.12472
5.47082
5.80741
6.13454
6.45228
6.76072
7.05996
7.35012
7.63135
7.90379
8.16761
8.42298
8.67008
8.90909
9.14023
9.36367
9.57963
9.78832
9.98993
10.1847
10.3728
10.5544
10.7299
10.8993
11.0628
11.2207
11.3732
11.5205
11.6627
11.8
11.9327
12.0608
12.1846
12.3042
12.4198
12.5316
12.6396
12.7441
12.8451
12.9428
13.0373
13.1288
13.2174
13.3031
13.3861
13.4665
13.5444
13.6198
13.6929
13.7638
13.8325
13.8991
13.9636
14.0262
14.0868
14.1457
14.2027
14.2579
14.3114
14.3632
14.4134
14.4619
14.5088
14.554
14.5976
14.6396
14.6798
14.7184
14.7551
14.79
14.823
14.8539
14.8825
14.9087
14.9322
14.9525
14.9692
14.9816
14.9885
14.9893
14.98
14.9656
14.9139
-7.71135
-7.74952
-7.81506
-7.90407
-8.01636
-8.15186
-8.30951
-8.48797
-8.68569
-8.90111
-9.13375
-9.3835
-9.64899
-9.92782
-10.2174
-10.5153
-10.8189
-11.1261
-11.4344
-11.7419
-12.0465
-12.3466
-12.6405
-12.9266
-13.2038
-13.4709
-13.7267
-13.9703
-14.2008
-14.4174
-14.6193
-14.8058
-14.9762
-15.1299
-15.2661
-15.3843
-15.4839
-15.5642
-15.6248
-15.6651
-15.6847
-15.6831
-15.66
-15.6151
-15.5481
-15.4589
-15.3473
-15.2135
-15.0573
-14.879
-14.6788
-14.457
-14.214
-13.9503
-13.6664
-13.363
-13.0408
-12.7005
-12.3429
-11.969
-11.5796
-11.1758
-10.7584
-10.3286
-9.88736
-9.43576
-8.97489
-8.50581
-8.02961
-7.54734
-7.06005
-6.56877
-6.07452
-5.57828
-5.08098
-4.58355
-4.08687
-3.59177
-3.09906
-2.60951
-2.1238
-1.64259
-1.16651
-0.696132
-0.231984
0.225455
0.675749
1.11851
1.55337
1.98005
2.39826
2.80778
3.20841
3.60001
3.98244
4.3556
4.71945
5.07394
5.41907
5.75485
6.08132
6.39855
6.70662
7.00562
7.29568
7.57691
7.84947
8.11351
8.3692
8.61671
8.85622
9.08792
9.31201
9.52867
9.73812
9.94054
10.1361
10.3251
10.5077
10.6841
10.8545
11.0191
11.178
11.3315
11.4798
11.6231
11.7615
11.8952
12.0243
12.1492
12.2698
12.3865
12.4992
12.6082
12.7137
12.8157
12.9144
13.0098
13.1022
13.1917
13.2783
13.3622
13.4434
13.5221
13.5984
13.6723
13.7439
13.8133
13.8807
13.9459
14.0092
14.0705
14.13
14.1877
14.2436
14.2977
14.3501
14.4008
14.4499
14.4973
14.5431
14.5872
14.6296
14.6702
14.7091
14.7462
14.7814
14.8145
14.8454
14.8739
14.8998
14.9228
14.9423
14.9579
14.9688
14.9738
14.9722
14.9602
14.9428
14.8885
-7.69669
-7.73076
-7.78744
-7.86265
-7.95776
-8.07356
-8.21007
-8.36693
-8.54334
-8.73862
-8.95321
-9.1876
-9.44056
-9.70959
-9.99198
-10.2851
-10.5862
-10.8927
-11.2022
-11.5123
-11.8207
-12.1255
-12.4247
-12.7167
-13
-13.2731
-13.5348
-13.784
-14.0198
-14.2412
-14.4473
-14.6375
-14.8111
-14.9673
-15.1055
-15.2253
-15.326
-15.4072
-15.4682
-15.5088
-15.5285
-15.5269
-15.5038
-15.4588
-15.3919
-15.3029
-15.1916
-15.0583
-14.9029
-14.7257
-14.5268
-14.3067
-14.0657
-13.8044
-13.5232
-13.2229
-12.904
-12.5674
-12.2139
-11.8443
-11.4596
-11.0606
-10.6483
-10.2238
-9.78809
-9.34216
-8.88708
-8.42391
-7.95368
-7.47743
-6.99619
-6.51096
-6.02272
-5.53244
-5.04103
-4.5494
-4.0584
-3.56884
-3.08152
-2.59719
-2.11654
-1.64022
-1.16881
-0.702894
-0.242988
0.210427
0.656916
1.09609
1.5276
1.95113
2.36643
2.77325
3.17141
3.56073
3.9411
4.31242
4.67461
5.02764
5.3715
5.70618
6.03173
6.3482
6.65567
6.95421
7.24395
7.52501
7.79751
8.06161
8.31747
8.56524
8.80511
9.03726
9.26187
9.47913
9.68924
9.89238
10.0888
10.2786
10.462
10.6393
10.8106
10.9761
11.136
11.2906
11.4399
11.5841
11.7235
11.8582
11.9884
12.1143
12.2359
12.3536
12.4673
12.5773
12.6837
12.7867
12.8863
12.9827
13.076
13.1664
13.2539
13.3386
13.4207
13.5002
13.5773
13.652
13.7244
13.7946
13.8626
13.9286
13.9926
14.0546
14.1148
14.1731
14.2296
14.2843
14.3374
14.3887
14.4383
14.4863
14.5326
14.5772
14.6201
14.6612
14.7005
14.7379
14.7733
14.8066
14.8376
14.8661
14.8917
14.9142
14.9331
14.9476
14.9571
14.9604
14.9566
14.9422
14.9221
14.8656
-7.63202
-7.65712
-7.70324
-7.76187
-7.83664
-7.92957
-8.04189
-8.17448
-8.32755
-8.50139
-8.69741
-8.9166
-9.15776
-9.41817
-9.69485
-9.98482
-10.2851
-10.5928
-10.905
-11.2192
-11.5327
-11.8432