/*--------------------------------*- C++ -*----------------------------------*\
| =========                 |                                                 |
| \\      /  F ield         | OpenFOAM: The Open Source CFD Toolbox           |
|  \\    /   O peration     | Version:  v2012                                 |
|   \\  /    A nd           | Website:  www.openfoam.com                      |
|    \\/     M anipulation  |                                                 |
\*---------------------------------------------------------------------------*/
FoamFile
{
    version     2.0;
    format      ascii;
    class       surfaceScalarField;
    location    "2200";
    object      phi;
}
// * * * * * * * * * * * * * * * * * * * * * * * * * * * * * * * * * * * * * //

dimensions      [0 3 -1 0 0 0 0];
oriented        oriented;


internalField   nonuniform List<scalar> 
24170
(
3.92539e-06
-7.91497e-07
3.76462e-06
1.60755e-07
3.63338e-06
1.31207e-07
3.4332e-06
2.00138e-07
3.28009e-06
1.53078e-07
3.18943e-06
9.06254e-08
3.12907e-06
6.02359e-08
3.08117e-06
4.75847e-08
3.04127e-06
3.94299e-08
3.00438e-06
3.63109e-08
2.96977e-06
3.40458e-08
2.93777e-06
3.14942e-08
2.90848e-06
2.88787e-08
2.88198e-06
2.61967e-08
2.85824e-06
2.3532e-08
2.83866e-06
1.95028e-08
2.8306e-06
8.13823e-09
-9.32727e-09
2.84002e-06
3.58444e-06
-9.19498e-07
3.80423e-06
-5.90412e-08
3.7428e-06
1.9262e-07
3.69055e-06
2.52363e-07
3.63725e-06
2.06335e-07
3.58984e-06
1.37979e-07
3.55259e-06
9.7371e-08
3.5238e-06
7.61484e-08
3.5004e-06
6.24937e-08
3.48092e-06
5.53401e-08
3.46385e-06
5.06333e-08
3.44835e-06
4.65121e-08
3.43405e-06
4.27548e-08
3.42059e-06
3.93076e-08
3.40797e-06
3.58731e-08
3.39618e-06
3.11122e-08
3.38449e-06
1.9752e-08
3.92666e-09
3.37095e-06
3.68518e-06
-7.92482e-07
3.83638e-06
-2.10251e-07
3.91492e-06
1.14075e-07
3.94499e-06
2.22287e-07
3.94406e-06
2.07261e-07
3.92722e-06
1.54818e-07
3.90781e-06
1.16788e-07
3.89027e-06
9.37243e-08
3.87467e-06
7.81995e-08
3.86142e-06
6.8709e-08
3.84987e-06
6.23099e-08
3.83927e-06
5.71897e-08
3.8293e-06
5.27512e-08
3.81988e-06
4.87073e-08
3.81115e-06
4.45315e-08
3.80304e-06
3.91338e-08
3.79317e-06
2.95107e-08
1.76568e-08
3.77914e-06
4.05359e-06
-6.41511e-07
4.11459e-06
-2.71265e-07
4.20798e-06
2.06775e-08
4.26634e-06
1.63915e-07
4.29068e-06
1.82902e-07
4.29272e-06
1.52745e-07
4.28601e-06
1.23478e-07
4.27704e-06
1.02724e-07
4.2676e-06
8.77296e-08
4.25883e-06
7.75972e-08
4.25083e-06
7.04121e-08
4.24331e-06
6.4765e-08
4.23611e-06
5.99652e-08
4.22913e-06
5.56347e-08
4.22235e-06
5.12229e-08
4.21537e-06
4.59965e-08
4.20613e-06
3.85955e-08
3.04366e-08
4.19306e-06
4.50491e-06
-5.09116e-07
4.51536e-06
-2.81713e-07
4.58528e-06
-4.92465e-08
4.64664e-06
1.02552e-07
4.68257e-06
1.46977e-07
4.69681e-06
1.3851e-07
4.69972e-06
1.20593e-07
4.69775e-06
1.04775e-07
4.69352e-06
9.2075e-08
4.68861e-06
8.26642e-08
4.68359e-06
7.55849e-08
4.67853e-06
6.99419e-08
4.67341e-06
6.51677e-08
4.66817e-06
6.09113e-08
4.66263e-06
5.67351e-08
4.65631e-06
5.22467e-08
4.64778e-06
4.70199e-08
4.2187e-08
4.63585e-06
5.00014e-06
-3.94666e-07
4.98614e-06
-2.67713e-07
5.03068e-06
-9.37966e-08
5.08505e-06
4.81745e-08
5.12452e-06
1.0749e-07
5.14606e-06
1.16951e-07
5.15605e-06
1.1061e-07
5.15976e-06
1.011e-07
5.16001e-06
9.19079e-08
5.15853e-06
8.42545e-08
5.15617e-06
7.80521e-08
5.15326e-06
7.29385e-08
5.14989e-06
6.85853e-08
5.14605e-06
6.47592e-08
5.14154e-06
6.11977e-08
5.13594e-06
5.7778e-08
5.12833e-06
5.45427e-08
5.24075e-08
5.11793e-06
5.54382e-06
-2.97478e-07
5.51664e-06
-2.40536e-07
5.54055e-06
-1.17701e-07
5.58387e-06
4.85062e-09
5.62165e-06
6.97125e-08
5.64657e-06
9.2041e-08
5.66123e-06
9.59732e-08
5.6693e-06
9.3073e-08
5.67327e-06
8.80069e-08
5.6748e-06
8.28068e-08
5.67484e-06
7.80951e-08
5.67386e-06
7.39849e-08
5.67207e-06
7.04227e-08
5.66951e-06
6.73397e-08
5.66604e-06
6.46586e-08
5.66134e-06
6.24341e-08
5.65491e-06
6.09018e-08
6.08247e-08
5.64643e-06
4.34788e-06
-2.39245e-07
4.32251e-06
-2.15173e-07
4.33078e-06
-1.25971e-07
4.35419e-06
-1.85642e-08
4.3784e-06
4.54935e-08
4.39647e-06
7.39591e-08
4.40846e-06
8.3985e-08
4.41604e-06
8.551e-08
4.42063e-06
8.34512e-08
4.42326e-06
8.02239e-08
4.42457e-06
7.68311e-08
4.42493e-06
7.36615e-08
4.42454e-06
7.08452e-08
4.42345e-06
6.84374e-08
4.42162e-06
6.64772e-08
4.41893e-06
6.51082e-08
4.41518e-06
6.46292e-08
6.56044e-08
4.41032e-06
5.08622e-06
-1.85603e-07
5.05777e-06
-1.86728e-07
5.0584e-06
-1.26598e-07
5.07686e-06
-3.70317e-08
5.09918e-06
2.31778e-08
5.11774e-06
5.53989e-08
5.13129e-06
7.04462e-08
5.14065e-06
7.61651e-08
5.14691e-06
7.72204e-08
5.15097e-06
7.6192e-08
5.15347e-06
7.43589e-08
5.15481e-06
7.23455e-08
5.15521e-06
7.04583e-08
5.15477e-06
6.88746e-08
5.1535e-06
6.77388e-08
5.15134e-06
6.72541e-08
5.14822e-06
6.7708e-08
6.95624e-08
5.14425e-06
5.94839e-06
-1.38198e-07
5.91832e-06
-1.5666e-07
5.91161e-06
-1.19889e-07
5.924e-06
-4.94312e-08
5.94286e-06
4.31413e-09
5.9606e-06
3.76622e-08
5.97484e-06
5.62063e-08
5.98552e-06
6.54938e-08
5.99325e-06
6.95112e-08
5.9987e-06
7.07501e-08
6.00245e-06
7.06244e-08
6.00488e-06
6.99284e-08
6.00624e-06
6.91112e-08
6.00664e-06
6.84684e-08
6.00616e-06
6.82165e-08
6.00482e-06
6.85876e-08
6.00267e-06
6.98534e-08
7.22924e-08
5.99991e-06
6.95439e-06
-9.83183e-08
6.92402e-06
-1.2629e-07
6.91113e-06
-1.07009e-07
6.91681e-06
-5.51048e-08
6.93088e-06
-9.76325e-09
6.94637e-06
2.21692e-08
6.96019e-06
4.239e-08
6.97145e-06
5.42403e-08
6.98022e-06
6.07524e-08
6.98688e-06
6.40984e-08
6.99183e-06
6.56754e-08
6.99541e-06
6.63508e-08
6.99785e-06
6.66815e-08
6.99929e-06
6.70221e-08
6.99985e-06
6.76521e-08
6.99965e-06
6.88032e-08
6.9988e-06
7.06817e-08
7.34934e-08
6.99759e-06
8.12719e-06
-6.64935e-08
8.09793e-06
-9.70335e-08
8.08056e-06
-8.96368e-08
8.07955e-06
-5.41023e-08
8.08794e-06
-1.81497e-08
8.09987e-06
1.024e-08
8.11202e-06
3.02438e-08
8.1229e-06
4.33646e-08
8.13206e-06
5.15927e-08
8.13954e-06
5.66282e-08
8.14551e-06
5.9699e-08
8.15021e-06
6.1662e-08
8.1538e-06
6.30801e-08
8.15647e-06
6.43647e-08
8.15833e-06
6.57896e-08
8.15955e-06
6.75797e-08
8.16034e-06
6.98978e-08
7.28442e-08
8.16097e-06
9.49368e-06
-4.24457e-08
9.4668e-06
-7.01567e-08
9.44683e-06
-6.96714e-08
9.43991e-06
-4.71804e-08
9.44229e-06
-2.05365e-08
9.44967e-06
2.86417e-09
9.45898e-06
2.09428e-08
9.46843e-06
3.39118e-08
9.47719e-06
4.2841e-08
9.48493e-06
4.8888e-08
9.49161e-06
5.30278e-08
9.49728e-06
5.59867e-08
9.50206e-06
5.83077e-08
9.50606e-06
6.03563e-08
9.50944e-06
6.24133e-08
9.51236e-06
6.46529e-08
9.51505e-06
6.72101e-08
7.01234e-08
9.51776e-06
1.10854e-05
-2.51668e-08
1.10618e-05
-4.65178e-08
1.1041e-05
-4.88405e-08
1.10294e-05
-3.56041e-08
1.10261e-05
-1.7242e-08
1.10284e-05
5.08531e-10
1.1034e-05
1.53509e-08
1.10411e-05
2.68156e-08
1.10487e-05
3.53028e-08
1.10561e-05
4.14934e-08
1.1063e-05
4.60559e-08
1.10695e-05
4.95517e-08
1.10754e-05
5.24061e-08
1.10808e-05
5.49388e-08
1.10858e-05
5.73651e-08
1.10907e-05
5.98373e-08
1.10954e-05
6.24285e-08
6.51733e-08
1.11004e-05
1.29396e-05
-1.31268e-08
1.29194e-05
-2.62942e-08
1.28988e-05
-2.8286e-08
1.28839e-05
-2.07405e-08
1.28758e-05
-9.06963e-09
1.28732e-05
3.04849e-09
1.28748e-05
1.38174e-08
1.2879e-05
2.26372e-08
1.28847e-05
2.95629e-08
1.28913e-05
3.49304e-08
1.28982e-05
3.91384e-08
1.29052e-05
4.25503e-08
1.29121e-05
4.54585e-08
1.2919e-05
4.80814e-08
1.29258e-05
5.05683e-08
1.29326e-05
5.30128e-08
1.29395e-05
5.54584e-08
5.79084e-08
1.29468e-05
1.50998e-05
-4.49096e-09
1.50822e-05
-8.69225e-09
1.50621e-05
-8.14705e-09
1.50448e-05
-3.51084e-09
1.50327e-05
3.03805e-09
1.50259e-05
9.84363e-09
1.50237e-05
1.6043e-08
1.5025e-05
2.13184e-08
1.50289e-05
2.56803e-08
1.50346e-05
2.9283e-08
1.50414e-05
3.2324e-08
1.50489e-05
3.49835e-08
1.5057e-05
3.74056e-08
1.50654e-05
3.96928e-08
1.5074e-05
4.19079e-08
1.5083e-05
4.40818e-08
1.50922e-05
4.62175e-08
4.82959e-08
1.51018e-05
1.76171e-05
2.88533e-09
1.75999e-05
8.50497e-09
1.75787e-05
1.29937e-08
1.7559e-05
1.62282e-08
1.75436e-05
1.84011e-08
1.75336e-05
1.98698e-08
1.75287e-05
2.09396e-08
1.75282e-05
2.1861e-08
1.75311e-05
2.27803e-08
1.75366e-05
2.38034e-08
1.75439e-05
2.49683e-08
1.75526e-05
2.62955e-08
1.75622e-05
2.7769e-08
1.75726e-05
2.93685e-08
1.75834e-05
3.10543e-08
1.75947e-05
3.27895e-08
1.76064e-05
3.45251e-08
3.62187e-08
1.76184e-05
1.78181e-05
1.09935e-08
1.77994e-05
2.7188e-08
1.77768e-05
3.55886e-08
1.7756e-05
3.70052e-08
1.77402e-05
3.42636e-08
1.77302e-05
2.98644e-08
1.77257e-05
2.54059e-08
1.77259e-05
2.16614e-08
1.77298e-05
1.89431e-08
1.77363e-05
1.72433e-08
1.77449e-05
1.64567e-08
1.77547e-05
1.64031e-08
1.77656e-05
1.69225e-08
1.77771e-05
1.78496e-08
1.77891e-05
1.90613e-08
1.78015e-05
2.04355e-08
1.78141e-05
2.18927e-08
2.33459e-08
1.7827e-05
1.58702e-05
2.21269e-08
1.58478e-05
4.95551e-08
1.58233e-05
6.00934e-08
1.58032e-05
5.71861e-08
1.57899e-05
4.75488e-08
1.57834e-05
3.63032e-08
1.57827e-05
2.6119e-08
1.57863e-05
1.80579e-08
1.5793e-05
1.22604e-08
1.58018e-05
8.4924e-09
1.58119e-05
6.3556e-09
1.58229e-05
5.46687e-09
1.58343e-05
5.48065e-09
1.5846e-05
6.1264e-09
1.58579e-05
7.18085e-09
1.58699e-05
8.48588e-09
1.58818e-05
9.90715e-09
1.13618e-08
1.58938e-05
1.41313e-05
3.95336e-08
1.41021e-05
7.86809e-08
1.40745e-05
8.77493e-08
1.40557e-05
7.59887e-08
1.40469e-05
5.63576e-08
1.40462e-05
3.69837e-08
1.40512e-05
2.11467e-08
1.40597e-05
9.51938e-09
1.40703e-05
1.68786e-09
1.40819e-05
-3.12861e-09
1.4094e-05
-5.70081e-09
1.41062e-05
-6.67966e-09
1.41182e-05
-6.56003e-09
1.41301e-05
-5.72852e-09
1.41417e-05
-4.44834e-09
1.41531e-05
-2.92526e-09
1.41643e-05
-1.28822e-09
3.57044e-10
1.41753e-05
1.25772e-05
6.73512e-08
1.25392e-05
1.16715e-07
1.25091e-05
1.17853e-07
1.24942e-05
9.08436e-08
1.24928e-05
5.77635e-08
1.25002e-05
2.96312e-08
1.25122e-05
9.09554e-09
1.25263e-05
-4.54937e-09
1.25409e-05
-1.28648e-08
1.25552e-05
-1.73806e-08
1.25688e-05
-1.93221e-08
1.25817e-05
-1.95677e-08
1.25939e-05
-1.87545e-08
1.26055e-05
-1.72837e-08
1.26165e-05
-1.54689e-08
1.26271e-05
-1.34817e-08
1.26372e-05
-1.14648e-08
-9.4867e-09
1.26471e-05
1.11862e-05
1.10913e-07
1.11384e-05
1.6455e-07
1.11088e-05
1.47487e-07
1.11022e-05
9.7441e-08
1.11117e-05
4.82658e-08
1.1129e-05
1.2368e-08
1.11486e-05
-1.05053e-08
1.11678e-05
-2.37348e-08
1.11855e-05
-3.05209e-08
1.12013e-05
-3.32478e-08
1.12156e-05
-3.35142e-08
1.12283e-05
-3.23373e-08
1.124e-05
-3.03445e-08
1.12506e-05
-2.79441e-08
1.12606e-05
-2.53722e-08
1.12699e-05
-2.28135e-08
1.12787e-05
-2.03268e-08
-1.79719e-08
1.12872e-05
9.93908e-06
1.7645e-07
9.88248e-06
2.21147e-07
9.85873e-06
1.71234e-07
9.86595e-06
9.02337e-08
9.88964e-06
2.45937e-08
9.91762e-06
-1.56026e-08
9.94394e-06
-3.67955e-08
9.96669e-06
-4.6433e-08
9.98574e-06
-4.95132e-08
1.00016e-05
-4.9141e-08
1.00151e-05
-4.69619e-08
1.00267e-05
-4.39225e-08
1.00369e-05
-4.04852e-08
1.0046e-05
-3.70104e-08
1.00543e-05
-3.36598e-08
1.00621e-05
-3.05144e-08
1.00693e-05
-2.75952e-08
-2.48956e-08
1.00762e-05
8.81963e-06
2.69915e-07
8.75785e-06
2.82933e-07
8.74788e-06
1.81199e-07
8.77483e-06
6.32839e-08
8.81461e-06
-1.51817e-08
8.85217e-06
-5.31253e-08
8.8827e-06
-6.72723e-08
8.90631e-06
-6.99631e-08
8.92434e-06
-6.75623e-08
8.93839e-06
-6.31189e-08
8.94964e-06
-5.81534e-08
8.95902e-06
-5.30957e-08
8.96697e-06
-4.83813e-08
8.97396e-06
-4.39313e-08
8.98022e-06
-3.98839e-08
8.986e-06
-3.62663e-08
8.99143e-06
-3.30405e-08
-3.0115e-08
8.99661e-06
7.81391e-06
3.96675e-07
7.7539e-06
3.42935e-07
7.76868e-06
1.66418e-07
7.82055e-06
1.14203e-08
7.87571e-06
-7.03306e-08
7.91917e-06
-9.65692e-08
7.94974e-06
-9.78233e-08
7.97063e-06
-9.07704e-08
7.985e-06
-8.17336e-08
7.99521e-06
-7.3233e-08
8.00297e-06
-6.57318e-08
8.00907e-06
-5.92084e-08
8.01419e-06
-5.33322e-08
8.01855e-06
-4.82005e-08
8.02239e-06
-4.36549e-08
8.02591e-06
-3.98313e-08
8.02928e-06
-3.64908e-08
-3.34417e-08
8.03259e-06
6.90424e-06
5.66768e-07
6.86137e-06
3.85802e-07
6.91717e-06
1.10612e-07
6.99676e-06
-6.81771e-08
7.06257e-06
-1.36148e-07
7.10536e-06
-1.39362e-07
7.13034e-06
-1.22673e-07
7.14451e-06
-1.04897e-07
7.15244e-06
-8.96414e-08
7.15707e-06
-7.77156e-08
7.1601e-06
-6.86328e-08
7.16229e-06
-6.11407e-08
7.16391e-06
-5.49074e-08
7.16524e-06
-4.95299e-08
7.16628e-06
-4.47402e-08
7.16727e-06
-4.08819e-08
7.16838e-06
-3.76181e-08
-3.47754e-08
7.16956e-06
6.07162e-06
7.97663e-07
6.08525e-06
3.7216e-07
6.19865e-06
-2.79202e-09
6.29991e-06
-1.69439e-07
6.3653e-06
-2.0154e-07
6.3976e-06
-1.71642e-07
6.41008e-06
-1.35261e-07
6.41333e-06
-1.07849e-07
6.41231e-06
-8.86774e-08
6.40988e-06
-7.52629e-08
6.40735e-06
-6.60565e-08
6.40484e-06
-5.86961e-08
6.40234e-06
-5.25856e-08
6.40012e-06
-4.72143e-08
6.39792e-06
-4.25685e-08
6.39606e-06
-3.90741e-08
6.39446e-06
-3.61322e-08
-3.3518e-08
6.3933e-06
5.35805e-06
1.05451e-06
5.50649e-06
2.23712e-07
5.64777e-06
-1.44089e-07
5.73566e-06
-2.57336e-07
5.7765e-06
-2.42397e-07
5.7833e-06
-1.7855e-07
5.77505e-06
-1.26868e-07
5.76264e-06
-9.55228e-08
5.75013e-06
-7.63604e-08
5.73922e-06
-6.46216e-08
5.73032e-06
-5.73367e-08
5.72234e-06
-5.10127e-08
5.71478e-06
-4.52771e-08
5.70783e-06
-4.04394e-08
5.70154e-06
-3.63273e-08
5.69625e-06
-3.3829e-08
5.69138e-06
-3.11586e-08
-2.90773e-08
5.68695e-06
5.04576e-06
1.01105e-06
5.36491e-06
-9.54589e-08
5.35252e-06
-1.3174e-07
5.33288e-06
-2.37718e-07
5.29605e-06
-2.05631e-07
5.25015e-06
-1.32735e-07
5.20835e-06
-8.50684e-08
5.17427e-06
-6.1606e-08
5.14685e-06
-4.93196e-08
5.12476e-06
-4.29521e-08
5.10678e-06
-3.97379e-08
5.09091e-06
-3.5657e-08
5.07608e-06
-3.09786e-08
5.06247e-06
-2.70837e-08
5.05043e-06
-2.43898e-08
5.04057e-06
-2.39647e-08
5.03093e-06
-2.14389e-08
-2.04347e-08
5.02239e-06
5.4676e-06
5.37214e-06
5.2404e-06
5.00267e-06
4.79703e-06
4.66429e-06
4.5792e-06
4.51754e-06
4.46814e-06
4.42513e-06
4.38529e-06
4.34952e-06
4.31847e-06
4.29136e-06
4.26697e-06
4.24302e-06
4.22161e-06
4.20121e-06
2.47756e-08
-2.47888e-08
2.3864e-07
-2.13851e-07
4.89965e-07
-2.51359e-07
7.09265e-07
-2.19303e-07
8.75951e-07
-1.66716e-07
9.86065e-07
-1.10118e-07
1.04061e-06
-5.45714e-08
1.04189e-06
-1.2805e-09
9.95266e-07
4.65987e-08
9.1109e-07
8.41992e-08
8.04668e-07
1.06411e-07
6.95409e-07
1.0932e-07
6.02961e-07
9.25039e-08
5.36824e-07
6.60625e-08
4.85316e-07
5.15963e-08
4.24022e-07
6.09581e-08
3.36284e-07
8.78498e-08
2.07917e-07
1.28282e-07
3.16035e-08
1.7649e-07
-2.13802e-07
2.45734e-07
-5.18729e-07
3.05013e-07
-8.59974e-07
3.41396e-07
-1.22349e-06
3.63504e-07
-1.60004e-06
3.76563e-07
-1.98081e-06
3.80733e-07
-2.35572e-06
3.74894e-07
-2.71681e-06
3.6106e-07
-3.05888e-06
3.42048e-07
-3.37814e-06
3.19246e-07
-3.67229e-06
2.94138e-07
-3.94051e-06
2.68208e-07
-4.18313e-06
2.42615e-07
-4.40119e-06
2.18058e-07
-4.59618e-06
1.94985e-07
-4.7698e-06
1.73617e-07
-4.92383e-06
1.54033e-07
-5.06002e-06
1.36191e-07
-5.17999e-06
1.19974e-07
-5.28522e-06
1.05221e-07
-5.37696e-06
9.17509e-08
-5.45635e-06
7.93827e-08
-5.52429e-06
6.79453e-08
-5.58157e-06
5.72836e-08
-5.62883e-06
4.72648e-08
-5.66661e-06
3.77804e-08
-5.69536e-06
2.87443e-08
-5.71544e-06
2.00851e-08
-5.72721e-06
1.17743e-08
-5.73116e-06
3.94753e-09
-5.72814e-06
-3.02394e-09
-5.71924e-06
-8.90089e-09
-5.70523e-06
-1.40072e-08
-5.6865e-06
-1.87279e-08
-5.66331e-06
-2.31907e-08
-5.63582e-06
-2.74842e-08
-5.60419e-06
-3.16356e-08
-5.56853e-06
-3.56596e-08
-5.52896e-06
-3.95627e-08
-5.48562e-06
-4.3346e-08
-5.43861e-06
-4.70081e-08
-5.38806e-06
-5.05468e-08
-5.3341e-06
-5.39582e-08
-5.27686e-06
-5.72392e-08
-5.21648e-06
-6.03862e-08
-5.15308e-06
-6.3397e-08
-5.08681e-06
-6.62682e-08
-5.01781e-06
-6.89966e-08
-4.94623e-06
-7.15797e-08
-4.87222e-06
-7.40159e-08
-4.79591e-06
-7.6304e-08
-4.71747e-06
-7.84433e-08
-4.63704e-06
-8.04332e-08
-4.55476e-06
-8.22744e-08
-4.4708e-06
-8.39672e-08
-4.38528e-06
-8.55129e-08
-4.29837e-06
-8.69132e-08
-4.2102e-06
-8.81702e-08
-4.12091e-06
-8.92865e-08
-4.03065e-06
-9.0265e-08
-3.93954e-06
-9.11092e-08
-3.84772e-06
-9.1823e-08
-3.7553e-06
-9.24108e-08
-3.66243e-06
-9.28776e-08
-3.5692e-06
-9.3229e-08
-3.47573e-06
-9.34714e-08
-3.38211e-06
-9.36118e-08
-3.28846e-06
-9.3659e-08
-3.19483e-06
-9.36231e-08
-3.10131e-06
-9.35171e-08
-3.00796e-06
-9.33566e-08
-2.9148e-06
-9.31627e-08
-2.82183e-06
-9.29607e-08
-2.72906e-06
-9.27685e-08
-2.6365e-06
-9.25648e-08
-2.54423e-06
-9.2263e-08
-2.45247e-06
-9.1762e-08
-2.36149e-06
-9.09774e-08
-2.27157e-06
-8.99295e-08
-2.18279e-06
-8.87759e-08
-2.09517e-06
-8.76216e-08
-2.0087e-06
-8.64655e-08
-1.92341e-06
-8.52919e-08
-1.83932e-06
-8.40935e-08
-1.75645e-06
-8.28697e-08
-1.67483e-06
-8.16228e-08
-1.59447e-06
-8.03568e-08
-1.51539e-06
-7.90753e-08
-1.43761e-06
-7.77813e-08
-1.36114e-06
-7.64722e-08
-1.28601e-06
-7.51273e-08
-1.21225e-06
-7.3759e-08
-1.13986e-06
-7.23958e-08
-1.06883e-06
-7.10314e-08
-9.99159e-07
-6.96677e-08
-9.30853e-07
-6.83052e-08
-8.63906e-07
-6.69461e-08
-7.98313e-07
-6.55919e-08
-7.34067e-07
-6.42461e-08
-6.71155e-07
-6.29096e-08
-6.09572e-07
-6.15828e-08
-5.49304e-07
-6.02654e-08
-4.90342e-07
-5.89612e-08
-4.32663e-07
-5.76758e-08
-3.76245e-07
-5.64158e-08
-3.21067e-07
-5.51752e-08
-2.67112e-07
-5.39515e-08
-2.14359e-07
-5.27482e-08
-1.6279e-07
-5.15648e-08
-1.12396e-07
-5.03887e-08
-6.3168e-08
-4.9221e-08
-1.52353e-08
-4.79241e-08
3.15451e-08
-4.67723e-08
7.74771e-08
-4.59253e-08
1.22442e-07
-4.49606e-08
1.66346e-07
-4.39002e-08
2.09186e-07
-4.2837e-08
2.50982e-07
-4.17914e-08
2.91763e-07
-4.07761e-08
3.31561e-07
-3.97923e-08
3.70403e-07
-3.88391e-08
4.0832e-07
-3.7914e-08
4.45339e-07
-3.70162e-08
4.81489e-07
-3.6144e-08
5.16792e-07
-3.52972e-08
5.51274e-07
-3.4475e-08
5.84957e-07
-3.36774e-08
6.17867e-07
-3.29043e-08
6.50025e-07
-3.21557e-08
6.81457e-07
-3.14313e-08
7.12186e-07
-3.07308e-08
7.42237e-07
-3.00542e-08
7.71633e-07
-2.94013e-08
8.004e-07
-2.87725e-08
8.2856e-07
-2.81675e-08
8.5614e-07
-2.75867e-08
8.83162e-07
-2.70297e-08
9.09652e-07
-2.6497e-08
9.35633e-07
-2.59873e-08
9.61128e-07
-2.55012e-08
9.8616e-07
-2.50367e-08
1.01075e-06
-2.45937e-08
1.03491e-06
-2.4169e-08
1.05867e-06
-2.37612e-08
1.08204e-06
-2.33647e-08
1.10501e-06
-2.29753e-08
1.12759e-06
-2.25834e-08
1.14977e-06
-2.21791e-08
1.17151e-06
-2.17453e-08
1.19277e-06
-2.12611e-08
1.21346e-06
-2.06942e-08
1.23346e-06
-2.00017e-08
1.25257e-06
-1.91182e-08
1.27051e-06
-1.79481e-08
1.28684e-06
-1.63449e-08
1.30087e-06
-1.40369e-08
1.31146e-06
-1.06052e-08
1.31599e-06
-4.54169e-09
1.30908e-06
6.88877e-09
1.27946e-06
2.96047e-08
7.24438e-08
1.20701e-06
2.53701e-07
-2.78497e-07
4.88933e-07
-4.4908e-07
6.38101e-07
-4.00541e-07
7.22279e-07
-3.03484e-07
7.6125e-07
-2.057e-07
7.66627e-07
-1.15497e-07
7.45136e-07
-3.3093e-08
7.02465e-07
4.1389e-08
6.41583e-07
1.07471e-07
5.62447e-07
1.63342e-07
4.64265e-07
2.0459e-07
3.45345e-07
2.28242e-07
1.99437e-07
2.38434e-07
1.47577e-08
2.50677e-07
-2.19091e-07
2.85442e-07
-5.06356e-07
3.48146e-07
-8.45018e-07
4.26512e-07
-1.22388e-06
5.07161e-07
-1.62902e-06
5.8167e-07
-2.02937e-06
6.46141e-07
-2.4172e-06
6.92873e-07
-2.79208e-06
7.16309e-07
-3.14693e-06
7.18359e-07
-3.47367e-06
7.03297e-07
-3.76744e-06
6.74497e-07
-4.02745e-06
6.34899e-07
-4.25426e-06
5.87851e-07
-4.44923e-06
5.37013e-07
-4.61533e-06
4.85334e-07
-4.75605e-06
4.34855e-07
-4.87476e-06
3.86916e-07
-4.97462e-06
3.42471e-07
-5.05849e-06
3.01923e-07
-5.12885e-06
2.65351e-07
-5.18782e-06
2.32587e-07
-5.23712e-06
2.03329e-07
-5.27813e-06
1.77206e-07
-5.31199e-06
1.53829e-07
-5.33958e-06
1.32817e-07
-5.36165e-06
1.13821e-07
-5.3788e-06
9.65318e-08
-5.39154e-06
8.06851e-08
-5.40031e-06
6.60606e-08
-5.40553e-06
5.2478e-08
-5.40754e-06
3.97917e-08
-5.40668e-06
2.78879e-08
-5.40328e-06
1.66897e-08
-5.39767e-06
6.16323e-09
-5.38999e-06
-3.7358e-09
-5.37981e-06
-1.32011e-08
-5.36624e-06
-2.24665e-08
-5.34869e-06
-3.15598e-08
-5.327e-06
-4.04199e-08
-5.30115e-06
-4.90393e-08
-5.27121e-06
-5.74254e-08
-5.23726e-06
-6.55845e-08
-5.1994e-06
-7.35195e-08
-5.15773e-06
-8.12295e-08
-5.11236e-06
-8.87112e-08
-5.06341e-06
-9.5959e-08
-5.01099e-06
-1.02966e-07
-4.95523e-06
-1.09725e-07
-4.89624e-06
-1.16226e-07
-4.83416e-06
-1.22465e-07
-4.76912e-06
-1.28436e-07
-4.70126e-06
-1.34132e-07
-4.63071e-06
-1.39546e-07
-4.55761e-06
-1.44672e-07
-4.48212e-06
-1.49509e-07
-4.40437e-06
-1.54054e-07
-4.32451e-06
-1.58305e-07
-4.24268e-06
-1.62261e-07
-4.15903e-06
-1.65923e-07
-4.07371e-06
-1.69292e-07
-3.98685e-06
-1.7237e-07
-3.8986e-06
-1.75162e-07
-3.8091e-06
-1.7767e-07
-3.71849e-06
-1.799e-07
-3.62689e-06
-1.81859e-07
-3.53445e-06
-1.83552e-07
-3.44128e-06
-1.84988e-07
-3.34752e-06
-1.86175e-07
-3.25328e-06
-1.87121e-07
-3.15867e-06
-1.87838e-07
-3.0638e-06
-1.88336e-07
-2.96879e-06
-1.88625e-07
-2.87373e-06
-1.8872e-07
-2.77872e-06
-1.88631e-07
-2.68387e-06
-1.88373e-07
-2.58926e-06
-1.87957e-07
-2.49503e-06
-1.87396e-07
-2.40129e-06
-1.86697e-07
-2.30821e-06
-1.85855e-07
-2.21593e-06
-1.8484e-07
-2.12458e-06
-1.83609e-07
-2.03421e-06
-1.82133e-07
-1.94478e-06
-1.80409e-07
-1.85623e-06
-1.78479e-07
-1.76859e-06
-1.7642e-07
-1.68193e-06
-1.74284e-07
-1.59631e-06
-1.72085e-07
-1.51178e-06
-1.69823e-07
-1.42837e-06
-1.675e-07
-1.34612e-06
-1.65121e-07
-1.26505e-06
-1.6269e-07
-1.1852e-06
-1.60212e-07
-1.10658e-06
-1.57694e-07
-1.02922e-06
-1.55138e-07
-9.53148e-07
-1.52547e-07
-8.78354e-07
-1.49921e-07
-8.0484e-07
-1.47273e-07
-7.32619e-07
-1.44617e-07
-6.61695e-07
-1.41955e-07
-5.92069e-07
-1.39293e-07
-5.23741e-07
-1.36633e-07
-4.5671e-07
-1.33977e-07
-3.90971e-07
-1.3133e-07
-3.26519e-07
-1.28697e-07
-2.63345e-07
-1.26083e-07
-2.01437e-07
-1.2349e-07
-1.40787e-07
-1.20914e-07
-8.1383e-08
-1.18363e-07
-2.32196e-08
-1.15838e-07
3.37174e-08
-1.13351e-07
8.94561e-08
-1.10912e-07
1.44014e-07
-1.08507e-07
1.97402e-07
-1.06134e-07
2.49636e-07
-1.03796e-07
3.00742e-07
-1.01493e-07
3.50752e-07
-9.92271e-08
3.99828e-07
-9.69969e-08
4.47934e-07
-9.4875e-08
4.94852e-07
-9.28408e-08
5.40659e-07
-9.07653e-08
5.85427e-07
-8.86675e-08
6.2919e-07
-8.65987e-08
6.71978e-07
-8.45769e-08
7.13813e-07
-8.26091e-08
7.54718e-07
-8.0696e-08
7.94717e-07
-7.88369e-08
8.33834e-07
-7.70294e-08
8.72091e-07
-7.52724e-08
9.09513e-07
-7.35643e-08
9.46123e-07
-7.19046e-08
9.81944e-07
-7.02924e-08
1.017e-06
-6.87281e-08
1.0513e-06
-6.72109e-08
1.08489e-06
-6.57414e-08
1.11778e-06
-6.43183e-08
1.14998e-06
-6.29425e-08
1.18154e-06
-6.16125e-08
1.21246e-06
-6.03296e-08
1.24278e-06
-5.90928e-08
1.27251e-06
-5.79031e-08
1.30168e-06
-5.67596e-08
1.3303e-06
-5.56629e-08
1.35841e-06
-5.46119e-08
1.38603e-06
-5.36065e-08
1.41317e-06
-5.26449e-08
1.43985e-06
-5.17257e-08
1.4661e-06
-5.0846e-08
1.49193e-06
-5.0002e-08
1.51736e-06
-4.91881e-08
1.54239e-06
-4.83963e-08
1.56703e-06
-4.76157e-08
1.59127e-06
-4.68308e-08
1.61512e-06
-4.60205e-08
1.63852e-06
-4.51552e-08
1.66146e-06
-4.41938e-08
1.68384e-06
-4.30788e-08
1.70556e-06
-4.17285e-08
1.72646e-06
-4.00249e-08
1.7463e-06
-3.77909e-08
1.7647e-06
-3.47574e-08
1.78112e-06
-3.04634e-08
1.79466e-06
-2.41529e-08
1.80435e-06
-1.4247e-08
1.80918e-06
2.04892e-09
1.80726e-06
3.1513e-08
8.81688e-08
1.79153e-06
2.45036e-07
-5.23536e-07
3.40238e-07
-5.4428e-07
3.56006e-07
-4.16316e-07
3.44649e-07
-2.92125e-07
3.16617e-07
-1.77675e-07
2.72168e-07
-7.10457e-08
2.10566e-07
2.84986e-08
1.30796e-07
1.21161e-07
3.175e-08
2.06509e-07
-8.87567e-08
2.83846e-07
-2.36563e-07
3.52393e-07
-4.22316e-07
4.13983e-07
-6.59374e-07
4.7549e-07
-9.54227e-07
5.45503e-07
-1.29608e-06
6.27292e-07
-1.66304e-06
7.15085e-07
-2.03446e-06
7.97944e-07
-2.39388e-06
8.66596e-07
-2.72799e-06
9.1579e-07
-3.02536e-06
9.43537e-07
-3.28162e-06
9.49154e-07
-3.49879e-06
9.33486e-07
-3.6803e-06
8.99871e-07
-3.82994e-06
8.5294e-07
-3.95237e-06
7.96925e-07
-4.05296e-06
7.35494e-07
-4.13703e-06
6.71909e-07
-4.20891e-06
6.08895e-07
-4.27203e-06
5.48451e-07
-4.32898e-06
4.91802e-07
-4.38161e-06
4.39541e-07
-4.43103e-06
3.91892e-07
-4.47787e-06
3.48763e-07
-4.52239e-06
3.09871e-07
-4.56463e-06
2.74824e-07
-4.60448e-06
2.43183e-07
-4.64179e-06
2.14511e-07
-4.67635e-06
1.88394e-07
-4.70799e-06
1.64456e-07
-4.73654e-06
1.4237e-07
-4.76186e-06
1.21855e-07
-4.78385e-06
1.02674e-07
-4.80242e-06
8.463e-08
-4.8175e-06
6.75601e-08
-4.82903e-06
5.13249e-08
-4.83695e-06
3.58061e-08
-4.84116e-06
2.09026e-08
-4.84152e-06
6.52093e-09
-4.83781e-06
-7.44552e-09
-4.8299e-06
-2.11105e-08
-4.81783e-06
-3.45321e-08
-4.80169e-06
-4.76972e-08
-4.78153e-06
-6.05841e-08
-4.75738e-06
-7.31841e-08
-4.72932e-06
-8.54904e-08
-4.6974e-06
-9.74973e-08
-4.66173e-06
-1.09198e-07
-4.62237e-06
-1.20583e-07
-4.57944e-06
-1.31642e-07
-4.53303e-06
-1.42365e-07
-4.48326e-06
-1.52738e-07
-4.43024e-06
-1.62748e-07
-4.37408e-06
-1.72382e-07
-4.31492e-06
-1.8163e-07
-4.25287e-06
-1.90483e-07
-4.18807e-06
-1.98931e-07
-4.12065e-06
-2.06963e-07
-4.05075e-06
-2.14572e-07
-3.97851e-06
-2.21752e-07
-3.90406e-06
-2.28501e-07
-3.82756e-06
-2.34814e-07
-3.74912e-06
-2.40692e-07
-3.66891e-06
-2.46133e-07
-3.58707e-06
-2.51141e-07
-3.50372e-06
-2.55718e-07
-3.41901e-06
-2.59868e-07
-3.33308e-06
-2.63599e-07
-3.24607e-06
-2.66917e-07
-3.15809e-06
-2.6983e-07
-3.0693e-06
-2.72348e-07
-2.9798e-06
-2.74482e-07
-2.88974e-06
-2.76243e-07
-2.79921e-06
-2.77644e-07
-2.70835e-06
-2.78699e-07
-2.61727e-06
-2.7942e-07
-2.52607e-06
-2.79824e-07
-2.43487e-06
-2.79924e-07
-2.34376e-06
-2.79737e-07
-2.25286e-06
-2.79275e-07
-2.16226e-06
-2.78553e-07
-2.07208e-06
-2.7758e-07
-1.98241e-06
-2.76365e-07
-1.89336e-06
-2.74905e-07
-1.80501e-06
-2.73188e-07
-1.71742e-06
-2.71198e-07
-1.63062e-06
-2.68933e-07
-1.54462e-06
-2.6641e-07
-1.45943e-06
-2.63666e-07
-1.37511e-06
-2.60745e-07
-1.29171e-06
-2.57682e-07
-1.2093e-06
-2.54498e-07
-1.12791e-06
-2.51204e-07
-1.04761e-06
-2.4781e-07
-9.684e-07
-2.44326e-07
-8.90328e-07
-2.40761e-07
-8.13417e-07
-2.37124e-07
-7.37688e-07
-2.33422e-07
-6.63162e-07
-2.29664e-07
-5.89853e-07
-2.25857e-07
-5.17765e-07
-2.22009e-07
-4.46908e-07
-2.1813e-07
-3.77291e-07
-2.14233e-07
-3.08922e-07
-2.10325e-07
-2.418e-07
-2.06414e-07
-1.75928e-07
-2.02505e-07
-1.11302e-07
-1.98602e-07
-4.79194e-08
-1.94713e-07
1.42267e-08
-1.90842e-07
7.514e-08
-1.86997e-07
1.34829e-07
-1.83179e-07
1.93307e-07
-1.79392e-07
2.50587e-07
-1.75642e-07
3.06683e-07
-1.71934e-07
3.61608e-07
-1.68276e-07
4.15368e-07
-1.64671e-07
4.67979e-07
-1.61118e-07
5.19461e-07
-1.57615e-07
5.69832e-07
-1.54166e-07
6.19116e-07
-1.50776e-07
6.67342e-07
-1.47452e-07
7.14554e-07
-1.44207e-07
7.60731e-07
-1.41051e-07
8.05841e-07
-1.37949e-07
8.49934e-07
-1.34857e-07
8.93052e-07
-1.31786e-07
9.3522e-07
-1.28765e-07
9.76456e-07
-1.25811e-07
1.01678e-06
-1.22929e-07
1.05621e-06
-1.20122e-07
1.09476e-06
-1.17389e-07
1.13246e-06
-1.14728e-07
1.16933e-06
-1.1214e-07
1.20539e-06
-1.09623e-07
1.24066e-06
-1.07176e-07
1.27517e-06
-1.04798e-07
1.30894e-06
-1.02491e-07
1.34198e-06
-1.00252e-07
1.37432e-06
-9.80837e-08
1.40599e-06
-9.59837e-08
1.437e-06
-9.39526e-08
1.46738e-06
-9.19896e-08
1.49714e-06
-9.00954e-08
1.52632e-06
-8.82695e-08
1.55493e-06
-8.65124e-08
1.58299e-06
-8.48235e-08
1.61053e-06
-8.3203e-08
1.63756e-06
-8.16499e-08
1.66412e-06
-8.01632e-08
1.69021e-06
-7.87412e-08
1.71586e-06
-7.73812e-08
1.7411e-06
-7.60793e-08
1.76592e-06
-7.48298e-08
1.79036e-06
-7.36248e-08
1.81442e-06
-7.24529e-08
1.8381e-06
-7.12987e-08
1.86141e-06
-7.01403e-08
1.88433e-06
-6.89481e-08
1.90686e-06
-6.76804e-08
1.92894e-06
-6.62804e-08
1.95053e-06
-6.46674e-08
1.97153e-06
-6.27287e-08
1.9918e-06
-6.03011e-08
2.01115e-06
-5.71438e-08
2.02928e-06
-5.28939e-08
2.04577e-06
-4.69593e-08
2.06002e-06
-3.84012e-08
2.07123e-06
-2.54645e-08
2.07854e-06
-5.27583e-09
2.08242e-06
2.76343e-08
8.56457e-08
2.08494e-06
9.23662e-08
-6.15903e-07
6.09474e-08
-5.12857e-07
1.19298e-08
-3.67301e-07
-4.57064e-08
-2.34483e-07
-1.1576e-07
-1.07626e-07
-2.01694e-07
1.48923e-08
-3.06525e-07
1.33325e-07
-4.32665e-07
2.47301e-07
-5.82716e-07
3.56557e-07
-7.60079e-07
4.61204e-07
-9.69516e-07
5.61829e-07
-1.21527e-06
6.59721e-07
-1.49582e-06
7.56049e-07
-1.80012e-06
8.49794e-07
-2.10936e-06
9.36522e-07
-2.4041e-06
1.00983e-06
-2.67017e-06
1.06402e-06
-2.89954e-06
1.09599e-06
-3.08907e-06
1.10533e-06
-3.23934e-06
1.09382e-06
-3.35465e-06
1.06447e-06
-3.4418e-06
1.02064e-06
-3.50806e-06
9.66127e-07
-3.55987e-06
9.04749e-07
-3.60264e-06
8.39701e-07
-3.64075e-06
7.73604e-07
-3.67739e-06
7.08546e-07
-3.71455e-06
6.46053e-07
-3.75321e-06
5.87106e-07
-3.79362e-06
5.32212e-07
-3.83559e-06
4.81515e-07
-3.87863e-06
4.34932e-07
-3.92209e-06
3.92225e-07
-3.9653e-06
3.53074e-07
-4.00759e-06
3.17117e-07
-4.04839e-06
2.83984e-07
-4.0872e-06
2.53319e-07
-4.12359e-06
2.24793e-07
-4.15725e-06
1.98108e-07
-4.18787e-06
1.73e-07
-4.21526e-06
1.49242e-07
-4.23923e-06
1.26639e-07
-4.25962e-06
1.05025e-07
-4.27632e-06
8.42593e-08
-4.28922e-06
6.42237e-08
-4.29823e-06
4.48171e-08
-4.30328e-06
2.59538e-08
-4.30431e-06
7.55736e-09
-4.30131e-06
-1.04455e-08
-4.29431e-06
-2.81153e-08
-4.28336e-06
-4.54792e-08
-4.26852e-06
-6.25337e-08
-4.24984e-06
-7.92658e-08
-4.22736e-06
-9.56629e-08
-4.20114e-06
-1.11711e-07
-4.17124e-06
-1.27396e-07
-4.13774e-06
-1.42702e-07
-4.10071e-06
-1.57612e-07
-4.06024e-06
-1.72109e-07
-4.01643e-06
-1.86173e-07
-3.96938e-06
-1.99788e-07
-3.9192e-06
-2.12933e-07
-3.86599e-06
-2.25591e-07
-3.80987e-06
-2.37743e-07
-3.75098e-06
-2.49381e-07
-3.68942e-06
-2.60489e-07
-3.62533e-06
-2.71053e-07
-3.55884e-06
-2.81064e-07
-3.49007e-06
-2.90514e-07
-3.41918e-06
-2.99397e-07
-3.34628e-06
-3.07709e-07
-3.27152e-06
-3.15449e-07
-3.19504e-06
-3.22617e-07
-3.11697e-06
-3.29214e-07
-3.03744e-06
-3.35244e-07
-2.9566e-06
-3.40714e-07
-2.87456e-06
-3.45631e-07
-2.79148e-06
-3.50004e-07
-2.70746e-06
-3.53844e-07
-2.62265e-06
-3.57162e-07
-2.53716e-06
-3.59973e-07
-2.45111e-06
-3.6229e-07
-2.36462e-06
-3.6413e-07
-2.27781e-06
-3.65509e-07
-2.19079e-06
-3.66444e-07
-2.10366e-06
-3.66953e-07
-2.01653e-06
-3.67054e-07
-1.9295e-06
-3.66764e-07
-1.84268e-06
-3.66101e-07
-1.75615e-06
-3.65081e-07
-1.67001e-06
-3.63717e-07
-1.58436e-06
-3.6202e-07
-1.49926e-06
-3.59998e-07
-1.4148e-06
-3.57651e-07
-1.33101e-06
-3.54983e-07
-1.24795e-06
-3.52002e-07
-1.16563e-06
-3.48729e-07
-1.0841e-06
-3.45196e-07
-1.00341e-06
-3.41437e-07
-9.23605e-07
-3.37484e-07
-8.44745e-07
-3.33358e-07
-7.6687e-07
-3.29079e-07
-6.90019e-07
-3.24662e-07
-6.14223e-07
-3.20122e-07
-5.39514e-07
-3.15471e-07
-4.65914e-07
-3.10723e-07
-3.93448e-07