/*--------------------------------*- C++ -*----------------------------------*\
  =========                 |
  \\      /  F ield         | OpenFOAM: The Open Source CFD Toolbox
   \\    /   O peration     | Website:  https://openfoam.org
    \\  /    A nd           | Version:  8
     \\/     M anipulation  |
\*---------------------------------------------------------------------------*/
FoamFile
{
    version     2.0;
    format      ascii;
    class       volScalarField;
    location    "1900";
    object      nut;
}
// * * * * * * * * * * * * * * * * * * * * * * * * * * * * * * * * * * * * * //

dimensions      [0 2 -1 0 0 0 0];

internalField   nonuniform List<scalar> 
12225
(
0.0122671
0.00158819
0.000666129
0.000410105
0.000294025
0.00022806
0.000183261
0.000170805
0.000132697
0.000106844
9.46735e-05
8.80085e-05
7.89856e-05
7.2233e-05
6.77318e-05
6.4507e-05
6.12103e-05
6.46338e-05
0.0323823
0.00744532
0.00330638
0.00204329
0.00146801
0.0011445
0.000936338
0.000799975
0.000679511
0.000577234
0.000506286
0.000452432
0.00041054
0.000378806
0.000350182
0.000327767
0.000311172
0.000292818
0.0490123
0.01515
0.00728196
0.00457854
0.00330639
0.00258054
0.00211233
0.00178913
0.00154181
0.00134762
0.00119772
0.0010787
0.000982056
0.000902481
0.000835978
0.000780909
0.000735546
0.00068717
0.063054
0.0237783
0.0122894
0.00788814
0.00573397
0.00448498
0.00367412
0.00310733
0.00268471
0.00235805
0.00210111
0.00189458
0.00172531
0.00158451
0.00146613
0.00136604
0.00128146
0.00119789
0.074932
0.0328517
0.0181452
0.0119262
0.00874548
0.00686412
0.0056308
0.00476254
0.00411748
0.00362029
0.00322731
0.00290992
0.00264899
0.00243143
0.00224799
0.00209188
0.00195826
0.00183626
0.0849536
0.0420208
0.0246655
0.0166359
0.0123325
0.00972587
0.00799539
0.00676785
0.00585345
0.00514769
0.00458844
0.00413587
0.00376334
0.00345239
0.00318983
0.00296596
0.0027736
0.00260471
0.0933822
0.0510219
0.0316642
0.0219415
0.016474
0.0130717
0.0107778
0.00913551
0.0079057
0.0069534
0.0061969
0.00558367
0.00507837
0.00465632
0.00429976
0.00399561
0.00373414
0.00350818
0.0993794
0.0583363
0.0378386
0.0268568
0.0204171
0.0163053
0.0134891
0.011453
0.00991891
0.00872629
0.00777635
0.00700497
0.00636866
0.00583685
0.0053874
0.00500398
0.00467452
0.00439126
0.104023
0.0645454
0.0433804
0.0314239
0.0241571
0.0194092
0.0161097
0.0137018
0.0118766
0.0104521
0.00931443
0.00838904
0.00762485
0.00698574
0.00644544
0.00598449
0.00558858
0.00524877
0.108368
0.0708939
0.0493756
0.0365496
0.0284517
0.0230231
0.0191863
0.0163547
0.0141926
0.0124968
0.011138
0.0100303
0.00911434
0.00834759
0.0076991
0.00714579
0.00667068
0.00626297
0.112368
0.0772557
0.0557282
0.0421918
0.0332976
0.0271652
0.0227467
0.0194432
0.0168984
0.0148903
0.0132749
0.0119544
0.0108605
0.00994379
0.00916796
0.00850586
0.00793736
0.00744915
0.115994
0.0834975
0.0623053
0.0482611
0.0386474
0.0318167
0.026789
0.0229739
0.0200046
0.0176452
0.0157378
0.0141736
0.0128749
0.011785
0.0108618
0.0100736
0.00939671
0.00881464
0.119234
0.0894856
0.0689377
0.0546109
0.0443919
0.0369007
0.0312597
0.0269088
0.0234836
0.02074
0.0185096
0.0166735
0.0151449
0.01386
0.0127704
0.0118396
0.0110397
0.0103508
0.122086
0.095084
0.075415
0.0610223
0.0503361
0.0422534
0.0360231
0.0311353
0.0272402
0.024093
0.021519
0.0193909
0.017614
0.0161174
0.0148466
0.01376
0.0128257
0.0120196
0.124546
0.100135
0.0814619
0.0671725
0.056158
0.047577
0.0408126
0.0354174
0.031066
0.0275196
0.0246012
0.0221777
0.0201481
0.0184349
0.0169782
0.0157314
0.0146583
0.0137311
0.126578
0.104396
0.0866605
0.0725515
0.0613228
0.0523526
0.0451453
0.0393148
0.0345631
0.0306611
0.0274325
0.0247409
0.0224806
0.020569
0.0189413
0.0175468
0.0163454
0.0153061
0.128011
0.107322
0.0902141
0.0762353
0.0648743
0.0556509
0.0481493
0.0420254
0.0370012
0.0328553
0.0294126
0.0265352
0.0241143
0.0220643
0.0203172
0.0188191
0.0175275
0.0164083
0.128006
0.107313
0.0902048
0.0762269
0.0648674
0.0556454
0.048145
0.0420222
0.0369988
0.0328537
0.0294117
0.0265349
0.0241147
0.0220652
0.0203185
0.0188206
0.0175287
0.0164083
0.126509
0.104255
0.0864922
0.0723807
0.0611613
0.052205
0.0450128
0.0391967
0.0344584
0.0305686
0.0273506
0.0246684
0.0224163
0.0205118
0.0188903
0.0175006
0.0163024
0.0152631
0.124267
0.0995604
0.0807712
0.0664676
0.0554886
0.0469631
0.0402594
0.0349228
0.0306248
0.0271258
0.0242488
0.0218611
0.0198626
0.0181762
0.0167426
0.0155152
0.0144575
0.0135405
0.12136
0.0936399
0.0737261
0.0593348
0.0487592
0.0408249
0.0347467
0.0300003
0.0262308
0.0231928
0.0207127
0.018665
0.0169572
0.0155198
0.0142999
0.0132567
0.0123583
0.0115798
0.117686
0.0865903
0.0656967
0.0514791
0.0415374
0.0343608
0.0290184
0.0249322
0.0217348
0.0191848
0.0171184
0.0154211
0.0140106
0.0128263
0.0118229
0.0109657
0.010228
0.00958895
0.11305
0.0784122
0.056921
0.0432687
0.0342296
0.0279652
0.0234365
0.0200435
0.0174263
0.0153597
0.0136966
0.0123369
0.0112106
0.0102671
0.00946866
0.0087872
0.00820103
0.00769347
0.107169
0.0691009
0.0476372
0.035029
0.0271566
0.021922
0.0182437
0.0155401
0.0134817
0.0118706
0.0105816
0.00953197
0.00866487
0.00793966
0.0073267
0.00680379
0.00635415
0.00596495
0.0996761
0.0587036
0.0381279
0.0270699
0.0205782
0.0164329
0.0135949
0.0115438
0.00999922
0.00879908
0.00784341
0.00706755
0.00642791
0.00589357
0.0054423
0.00505733
0.00472648
0.00444011
0.0901097
0.0473665
0.0287363
0.0196847
0.0146976
0.0116312
0.00957853
0.00811528
0.00702331
0.00617994
0.00551057
0.00496792
0.00452115
0.00414809
0.00383337
0.0035644
0.00333375
0.0031339
0.0779076
0.0353826
0.0198606
0.0131383
0.00966107
0.00759298
0.00623352
0.00527429
0.00456399
0.00401882
0.00358698
0.00323605
0.00294731
0.00270564
0.00250269
0.00232746
0.00217867
0.00204917
0.06238
0.0232554
0.0119461
0.00765493
0.00556337
0.00435256
0.00356724
0.00301639
0.00261307
0.00230792
0.00206663
0.00186697
0.00170276
0.00156309
0.00144892
0.0013453
0.00125985
0.00118502
0.0426105
0.0117794
0.0054693
0.00341385
0.00246071
0.00192005
0.00157275
0.00132885
0.00115943
0.00103843
0.000944192
0.000857063
0.000786427
0.000717886
0.000672587
0.000621656
0.000573112
0.00054086
0.0168348
0.00255985
0.00110002
0.000683428
0.000493724
0.000386803
0.000318219
0.000266306
0.000272636
0.000321836
0.000355141
0.000335067
0.000307992
0.000243785
0.000288124
0.000270219
0.000194303
0.000217891
3.99408e-09
5.91171e-07
2.00092e-06
6.28947e-06
1.08027e-05
1.3532e-05
1.32572e-05
1.17921e-05
9.06413e-06
5.94809e-06
3.52409e-06
2.02504e-06
1.40997e-06
1.50297e-06
2.06711e-06
2.56604e-06
2.45448e-06
2.06916e-06
2.54286e-06
8.67676e-06
9.02523e-06
5.5543e-06
6.75181e-06
2.65122e-05
5.67523e-05
7.44256e-05
9.09791e-05
0.000104827
0.000117048
0.000127208
0.000136112
0.000143759
0.000150449
0.000156276
0.000161358
0.000165844
0.000169818
0.000173369
0.000176551
0.00017941
0.000181975
0.000184268
0.000186308
0.000188111
0.000189692
0.000191063
0.000192235
0.000193215
0.000194004
0.000194476
0.000194974
0.000195082
0.000195144
0.000195019
0.00019472
0.000194275
0.000193676
0.000192929
0.000192035
0.000190997
0.000189816
0.000188494
0.000187034
0.000185438
0.00018371
0.00018185
0.00017986
0.000177742
0.000175499
0.000173133
0.000170647
0.000168041
0.000165317
0.000162478
0.000159524
0.000156457
0.000153276
0.000149982
0.000146574
0.000143053
0.000139414
0.000135656
0.000131774
0.000127762
0.000123613
0.000119317
0.00011486
0.000110227
0.000105396
0.000100344
9.50443e-05
8.94706e-05
8.36147e-05
7.75436e-05
7.15333e-05
6.62509e-05
6.24913e-05
6.01493e-05
5.83967e-05
5.67908e-05
5.52146e-05
5.36462e-05
5.2084e-05
5.05297e-05
4.8985e-05
4.74521e-05
4.59336e-05
4.44356e-05
4.29864e-05
4.17494e-05
4.05453e-05
3.93556e-05
3.81831e-05
3.70285e-05
3.58926e-05
3.47764e-05
3.36805e-05
3.26057e-05
3.15526e-05
3.05216e-05
2.9513e-05
2.85275e-05
2.75655e-05
2.66276e-05
2.57137e-05
2.48237e-05
2.39588e-05
2.31466e-05
2.24124e-05
2.16968e-05
2.09962e-05
2.03189e-05
1.96696e-05
1.90346e-05
1.84136e-05
1.78097e-05
1.72238e-05
1.66561e-05
1.61065e-05
1.55745e-05
1.50597e-05
1.45618e-05
1.40802e-05
1.36146e-05
1.31645e-05
1.27297e-05
1.23095e-05
1.19038e-05
1.1512e-05
1.11338e-05
1.07689e-05
1.04169e-05
1.00775e-05
9.75026e-06
9.43498e-06
9.13132e-06
8.83903e-06
8.55786e-06
8.28757e-06
8.02796e-06
7.77883e-06
7.54001e-06
7.31133e-06
7.09259e-06
6.8836e-06
6.68411e-06
6.49378e-06
6.31219e-06
6.13881e-06
5.97286e-06
5.81356e-06
5.65931e-06
5.50968e-06
5.3597e-06
5.21397e-06
5.04795e-06
4.89398e-06
4.64763e-06
4.48944e-06
3.59438e-06
1.68178e-07
6.14259e-06
6.38834e-05
0.000139687
0.000183242
0.000207007
0.00021638
0.000214887
0.000206542
0.000189838
0.000169046
0.000148911
0.000138497
0.000143711
0.000157681
0.000166604
0.000169022
0.000170206
0.00017561
0.000185312
0.000200067
0.000217506
0.000234339
0.000250842
0.000262142
0.000272046
0.000280861
0.000293707
0.000312803
0.00032675
0.000339493
0.000350417
0.000360346
0.000369445
0.000377345
0.000384558
0.000391273
0.000397715
0.000404015
0.000410238
0.00041638
0.000422398
0.00042824
0.000433865
0.000439244
0.000444361
0.000449201
0.000453752
0.000458014
0.000461988
0.000465713
0.000469155
0.000472352
0.000475293
0.000477985
0.000480427
0.00048262
0.000484565
0.000486263
0.000487713
0.000488918
0.000489876
0.000490592
0.000491069
0.000491317
0.000491342
0.000491138
0.000490701
0.000490048
0.000489182
0.00048811
0.000486837
0.000485371
0.000483718
0.000481886
0.000479881
0.000477712
0.000475385
0.000472908
0.00047029
0.000467537
0.000464658
0.000461662
0.000458555
0.000455347
0.000452045
0.000448658
0.000445194
0.00044166
0.000438063
0.000434411
0.00043071
0.000426958
0.000423148
0.000419261
0.000415271
0.000411162
0.000406962
0.000402721
0.000398465
0.0003942
0.00038993
0.00038566
0.000381393
0.000377131
0.000372879
0.00036864
0.000364414
0.000360204
0.000356005
0.00035183
0.000347681
0.000343563
0.000339475
0.00033542
0.0003314
0.000327415
0.000323469
0.000319561
0.000315694
0.000311867
0.000308082
0.00030434
0.000300642
0.000296989
0.000293381
0.000289817
0.000286296
0.000282817
0.000279383
0.000275992
0.000272652
0.000269366
0.000266116
0.000262901
0.000259728
0.000256599
0.000253515
0.000250476
0.000247482
0.000244532
0.000241625
0.000238761
0.00023594
0.00023316
0.000230421
0.000227724
0.000225066
0.000222448
0.00021987
0.000217331
0.00021483
0.000212368
0.000209945
0.000207561
0.000205215
0.000202908
0.000200642
0.000198416
0.000196232
0.000194091
0.000191995
0.000189946
0.000187944
0.000185993
0.000184093
0.000182246
0.000180452
0.00017871
0.000177019
0.000175374
0.000173775
0.000172197
0.000170683
0.000169072
0.00016775
0.000165618
0.000164902
0.000162095
0.000160723
7.68606e-07
4.45422e-05
0.00016429
0.000246525
0.000299859
0.000330181
0.000341219
0.000338351
0.000325518
0.000306243
0.000286468
0.000273746
0.000271486
0.000278166
0.000288523
0.000299353
0.000312116
0.000329071
0.000350671
0.000375833
0.000403223
0.000431579
0.000469795
0.000516182
0.000561836
0.000605993
0.000649096
0.000692769
0.000732109
0.000763399
0.000788408
0.000808233
0.000823948
0.000836417
0.000846421
0.000854738
0.000862068
0.000869054
0.000876235
0.000883967
0.000892355
0.000901279
0.000910497
0.000919774
0.000928931
0.000937851
0.000946455
0.000954696
0.000962539
0.000969954
0.00097692
0.000983406
0.00098941
0.000994925
0.00099995
0.00100448
0.00100852
0.00101207
0.00101513
0.00101769
0.00101976
0.00102133
0.00102242
0.00102296
0.00102312
0.00102284
0.00102204
0.0010208
0.00101911
0.00101699
0.00101446
0.00101151
0.00100818
0.00100446
0.00100038
0.000995948
0.000991181
0.000986093
0.000980699
0.000975014
0.000969054
0.000962833
0.000956367
0.000949671
0.000942761
0.00093565
0.000928353
0.000920885
0.00091326
0.00090549
0.000897588
0.000889565
0.00088143
0.000873191
0.000864856
0.000856436
0.000847943
0.000839392
0.000830799
0.000822179
0.000813542
0.000804897
0.000796252
0.000787614
0.00077899
0.000770388
0.000761814
0.000753275
0.000744775
0.00073632
0.000727915
0.000719568
0.00071128
0.000703058
0.000694904
0.000686822
0.000678814
0.000670885
0.000663036
0.00065527
0.000647588
0.000639994
0.000632487
0.000625071
0.000617747
0.000610514
0.000603374
0.000596327
0.000589374
0.000582514
0.00057575
0.00056908
0.000562504
0.000556015
0.000549612
0.000543299
0.000537076
0.000530944
0.000524904
0.000518955
0.000513096
0.000507327
0.000501645
0.00049605
0.000490541
0.000485117
0.000479776
0.000474518
0.000469341
0.000464244
0.000459226
0.000454287
0.000449424
0.000444637
0.000439925
0.000435286
0.00043072
0.000426225
0.0004218
0.000417444
0.000413156
0.000408933
0.000404774
0.000400677
0.00039664
0.000392658
0.000388728
0.000384845
0.000381001
0.000377189
0.000373396
0.000369607
0.000365799
0.000361952
0.000357993
0.000353953
0.000349471
0.000345078
0.000338588
0.00032713
5.07094e-07
8.12903e-05
0.000212972
0.000309207
0.000372991
0.000410403
0.000425977
0.000426368
0.000416356
0.000402952
0.000394796
0.000393959
0.000403186
0.000420398
0.000443154
0.000470909
0.000504263
0.000543574
0.000588031
0.00065027
0.000724135
0.000803928
0.00088819
0.000958851
0.00102128
0.00107741
0.00112782
0.00117272
0.00121199
0.00124587
0.00127512
0.00130045
0.00132257
0.00134211
0.00135965
0.00137567
0.0013906
0.00140476
0.00141842
0.00143177
0.00144494
0.00145799
0.00147095
0.00148381
0.0014965
0.00150896
0.00152109
0.0015328
0.00154399
0.00155459
0.00156454
0.00157382
0.00158239
0.00159025
0.00159739
0.0016038
0.00160947
0.00161441
0.00161861
0.00162207
0.00162479
0.00162677
0.00162793
0.00162837
0.00162824
0.00162733
0.0016257
0.00162338
0.00162038
0.00161673
0.00161243
0.00160751
0.00160199
0.00159589
0.00158923
0.00158204
0.00157433
0.00156613
0.00155747
0.00154836
0.00153883
0.0015289
0.0015186
0.00150794
0.00149696
0.00148567
0.00147409
0.00146226
0.00145018
0.00143788
0.00142538
0.0014127
0.00139985
0.00138685
0.00137372
0.00136047
0.00134712
0.00133369
0.0013202
0.00130666
0.0012931
0.00127953
0.00126596
0.0012524
0.00123886
0.00122536
0.0012119
0.0011985
0.00118516
0.00117189
0.0011587
0.0011456
0.00113259
0.00111969
0.00110689
0.0010942
0.00108163
0.00106918
0.00105685
0.00104466
0.00103259
0.00102066
0.00100887
0.000997214
0.000985701
0.000974331
0.000963105
0.000952023
0.000941086
0.000930296
0.000919652
0.000909154
0.000898799
0.000888583
0.000878506
0.000868568
0.000858771
0.000849114
0.000839599
0.000830223
0.000820987
0.000811888
0.000802925
0.000794097
0.000785401
0.000776837
0.000768402
0.000760094
0.000751912
0.000743855
0.000735919
0.000728103
0.000720406
0.000712826
0.000705361
0.000698009
0.000690768
0.000683636
0.000676612
0.000669692
0.000662875
0.000656158
0.000649538
0.000643012
0.000636575
0.000630222
0.000623948
0.000617745
0.000611603
0.000605509
0.000599449
0.000593399
0.000587332
0.000581209
0.000574965
0.000568547
0.00056177
0.000554578
0.000546337
0.000530147
1.49347e-06
0.00010206
0.000235125
0.000355063
0.000433979
0.000481488
0.000505125
0.000513594
0.000515169
0.000516157
0.000523037
0.0005392
0.000565258
0.000600245
0.000643373
0.000694658
0.000754745
0.000838166
0.00093384
0.00103006
0.00111907
0.00120346
0.00128281
0.00135551
0.00142227
0.00148368
0.00154015
0.001592
0.0016396
0.00168337
0.0017238
0.00176137
0.0017965
0.00182958
0.00186091
0.00189076
0.0019193
0.00194669
0.00197302
0.00199834
0.0020227
0.00204611
0.00206856
0.00209002
0.00211049
0.00212992
0.00214829
0.00216557
0.00218172
0.00219674
0.00221062
0.00222334
0.00223494
0.00224541
0.00225478
0.00226306
0.00227028
0.00227644
0.00228157
0.00228568
0.00228877
0.00229082
0.00229174
0.00229183
0.00229095
0.00228907
0.00228624
0.00228247
0.00227778
0.0022722
0.00226575
0.00225847
0.00225037
0.00224149
0.00223186
0.0022215
0.00221046
0.00219876
0.00218643
0.0021735
0.00216
0.00214597
0.00213143
0.00211642
0.00210097
0.00208511
0.00206886
0.00205227
0.00203535
0.00201813
0.00200065
0.00198292
0.00196498
0.00194684
0.00192853
0.00191008
0.0018915
0.00187282
0.00185406
0.00183525
0.0018164
0.00179754
0.00177869
0.00175985
0.00174105
0.0017223
0.00170361
0.001685
0.00166648
0.00164805
0.00162974
0.00161155
0.00159349
0.00157558
0.0015578
0.00154018
0.00152273
0.00150543
0.00148831
0.00147137
0.00145461
0.00143803
0.00142164
0.00140544
0.00138944
0.00137362
0.00135801
0.00134259
0.00132738
0.00131236
0.00129754
0.00128292
0.0012685
0.00125427
0.00124023
0.00122638
0.00121273
0.00119927
0.001186
0.00117292
0.00116003
0.00114732
0.00113481
0.00112247
0.00111032
0.00109834
0.00108654
0.00107492
0.00106346
0.00105218
0.00104105
0.0010301
0.0010193
0.00100866
0.00099818
0.00098785
0.000977671
0.000967639
0.000957753
0.000948007
0.000938401
0.000928929
0.000919589
0.000910375
0.000901283
0.000892306
0.000883437
0.000874666
0.000865982
0.000857371
0.000848812
0.000840282
0.000831746
0.00082316
0.000814457
0.000805567
0.000796323
0.00078658
0.000776612
0.000756792
2.27174e-06
0.000118203
0.000256371
0.000390155
0.000487244
0.000549163
0.000587027
0.000610492
0.000628251
0.000647577
0.000673721
0.000709335
0.000755153
0.00081145
0.000878628
0.000969133
0.00107427
0.00117599
0.00127521
0.00137071
0.00146141
0.00154741
0.00162866
0.00170511
0.00177708
0.00184489
0.00190891
0.00196946
0.00202687
0.00208148
0.0021336
0.00218353
0.00223152
0.00227776
0.00232243
0.00236564
0.00240749
0.00244803
0.00248728
0.00252527
0.00256198
0.0025974
0.00263149
0.00266423
0.00269557
0.00272547
0.0027539
0.00278081
0.00280616
0.00282993
0.00285209
0.00287261
0.00289147
0.00290868
0.00292422
0.00293808
0.00295028
0.00296082
0.00296971
0.00297698
0.00298263
0.00298671
0.00298914
0.00299004
0.00298958
0.00298761
0.00298426
0.00297956
0.00297356
0.00296631
0.00295786
0.00294827
0.00293758
0.00292586
0.00291314
0.00289947
0.00288491
0.00286949
0.00285327
0.00283628
0.00281857
0.00280017
0.00278114
0.00276151
0.00274132
0.00272061
0.00269942
0.00267779
0.00265576
0.00263336
0.00261063
0.0025876
0.0025643
0.00254077
0.00251704
0.00249313
0.00246907
0.0024449
0.00242064
0.00239632
0.00237196
0.00234758
0.00232322
0.00229888
0.0022746
0.00225038
0.00222625
0.00220222
0.0021783
0.00215452
0.00213088
0.0021074
0.00208409
0.00206095
0.00203801
0.00201526
0.00199272
0.00197039
0.00194828
0.0019264
0.00190475
0.00188333
0.00186215
0.00184122
0.00182053
0.00180009
0.0017799
0.00175996
0.00174027
0.00172084
0.00170166
0.00168273
0.00166405
0.00164562
0.00162743
0.00160949
0.00159179
0.00157433
0.00155712
0.00154015
0.00152342
0.00150692
0.00149066
0.00147463
0.00145882
0.00144324
0.00142789
0.00141275
0.00139783
0.00138312
0.00136861
0.00135432
0.00134022
0.00132633
0.00131263
0.00129912
0.00128581
0.00127267
0.00125972
0.00124695
0.00123435
0.00122193
0.00120967
0.00119756
0.00118562
0.00117382
0.00116215
0.00115062
0.0011392
0.00112788
0.00111664
0.00110545
0.00109428
0.00108308
0.00107177
0.00106029
0.00104848
0.00103626
0.00102408
0.0010016
2.8056e-06
0.000126822
0.000269281
0.000407729
0.000526505
0.000608041
0.000664247
0.000706257
0.000743316
0.000782689
0.000829434
0.000886498
0.000955508
0.00104784
0.00115484
0.00126145
0.00136756
0.00147092
0.001571
0.00166736
0.00175975
0.00184819
0.00193275
0.00201361
0.002091
0.0021652
0.00223648
0.00230511
0.00237134
0.00243542
0.00249754
0.0025579
0.00261663
0.00267386
0.00272967
0.00278411
0.00283723
0.00288903
0.00293951
0.00298864
0.00303641
0.00308277
0.00312768
0.00317109
0.00321295
0.0032532
0.00329179
0.00332868
0.0033638
0.00339712
0.00342858
0.00345816
0.00348582
0.00351152
0.00353524
0.00355696
0.00357667
0.00359436
0.00361001
0.00362363
0.00363523
0.00364481
0.00365239
0.00365801
0.00366166
0.00366328
0.00366319
0.0036612
0.00365743
0.00365191
0.0036447
0.00363586
0.00362544
0.00361351
0.00360013
0.00358536
0.00356927
0.00355193
0.0035334
0.00351375
0.00349305
0.00347136
0.00344876
0.0034253
0.00340105
0.00337607
0.00335043
0.00332417
0.00329737
0.00327006
0.00324231
0.00321415
0.00318565
0.00315683
0.00312775
0.00309844
0.00306894
0.00303929
0.00300952
0.00297967
0.00294977
0.00291985
0.00288994
0.00286006
0.00283023
0.00280049
0.00277085
0.00274133
0.00271195
0.00268273
0.00265368
0.00262483
0.00259618
0.00256774
0.00253953
0.00251157
0.00248385
0.00245639
0.00242919
0.00240227
0.00237563
0.00234927
0.0023232
0.00229742
0.00227194
0.00224676
0.00222188
0.0021973
0.00217303
0.00214906
0.00212539
0.00210203
0.00207897
0.00205621
0.00203374
0.00201157
0.0019897
0.00196812
0.00194683
0.00192582
0.00190511
0.00188468
0.00186453
0.00184466
0.00182506
0.00180573
0.00178667
0.00176787
0.00174932
0.00173104
0.001713
0.00169521
0.00167767
0.00166036
0.00164329
0.00162645
0.00160984
0.00159345
0.00157728
0.00156133
0.00154559
0.00153005
0.00151471
0.00149957
0.00148461
0.00146984
0.00145523
0.00144079
0.00142649
0.00141232
0.00139826
0.00138427
0.00137033
0.00135638
0.00134235
0.00132818
0.00131371
0.00129895
0.00128394
0.00125969
2.94249e-06
0.000128736
0.00027067
0.000407308
0.00053811
0.00064178
0.000719045
0.000780499
0.000836305
0.000894164
0.000961772
0.00105374
0.00116338
0.00128511
0.00140069
0.00151197
0.0016198
0.00172438
0.00182563
0.0019235
0.002018
0.0021092
0.00219726
0.00228236
0.00236471
0.00244454
0.00252208
0.00259754
0.0026711
0.00274294
0.0028132
0.002882
0.00294944
0.00301556
0.00308042
0.00314404
0.00320641
0.00326752
0.00332735
0.00338584
0.00344297
0.00349866
0.00355286
0.00360551
0.00365654
0.00370589
0.0037535
0.00379929
0.00384321
0.0038852
0.0039252
0.00396317
0.00399905
0.00403281
0.00406441
0.0040938
0.00412098
0.00414591
0.00416858
0.00418898
0.00420711
0.00422296
0.00423654
0.00424787
0.00425696
0.00426383
0.00426855
0.004271
0.00427144
0.00426979
0.00426612
0.00426048
0.00425291
0.00424348
0.00423225
0.00421928
0.00420463
0.00418837
0.00417058
0.00415131
0.00413065
0.00410865
0.00408541
0.00406098
0.00403544
0.00400886
0.00398131
0.00395287
0.0039236
0.00389357
0.00386284
0.00383148
0.00379955
0.0037671
0.0037342
0.00370091
0.00366726
0.00363333
0.00359915
0.00356477
0.00353024
0.00349561
0.0034609
0.00342617
0.00339143
0.00335673
0.0033221
0.00328756
0.00325315
0.00321888
0.00318477
0.00315086
0.00311715
0.00308367
0.00305044
0.00301746
0.00298475
0.00295232
0.00292018
0.00288835
0.00285683
0.00282563
0.00279475
0.00276421
0.002734
0.00270412
0.0026746
0.00264541
0.00261658
0.00258809
0.00255994
0.00253215
0.0025047
0.0024776
0.00245084
0.00242442
0.00239834
0.00237259
0.00234719
0.00232211
0.00229737
0.00227296
0.00224886
0.00222509
0.00220164
0.0021785
0.00215567
0.00213314
0.00211092
0.00208898
0.00206735
0.00204599
0.00202493
0.00200414
0.00198362
0.00196337
0.00194339
0.00192367
0.00190421
0.001885
0.00186603
0.00184731
0.00182882
0.00181057
0.00179253
0.00177471
0.00175709
0.00173967
0.00172242
0.00170533
0.00168838
0.00167153
0.00165475
0.00163799
0.00162118
0.00160425
0.00158705
0.00156965
0.00155171
0.00152557
2.75942e-06
0.000125269
0.000264044
0.000395769
0.000520542
0.000633074
0.000727062
0.00080827
0.000891338
0.000986688
0.00109594
0.00122064
0.00135705
0.00148458
0.00160488
0.00171991
0.00183062
0.00193739
0.00204055
0.00214042
0.00223725
0.00233122
0.00242254
0.0025114
0.00259802
0.0026826
0.00276533
0.00284637
0.0029259
0.00300403
0.00308086
0.00315649
0.00323097
0.00330432
0.00337657
0.0034477
0.0035177
0.00358653
0.00365413
0.00372046
0.00378544
0.00384902
0.0039111
0.00397162
0.0040305
0.00408766
0.00414303
0.00419652
0.00424806
0.0042976
0.00434505
0.00439037
0.00443349
0.00447436
0.00451294
0.00454919
0.00458306
0.00461455
0.00464361
0.00467023
0.00469441
0.00471614
0.00473542
0.00475225
0.00476665
0.00477864
0.00478825
0.00479548
0.00480041
0.00480298
0.00480337
0.00480155
0.00479759
0.00479152
0.00478342
0.00477334
0.00476134
0.00474748
0.00473184
0.00471449
0.00469548
0.00467489
0.0046528
0.00462927
0.00460439
0.00457821
0.00455083
0.0045223
0.0044927
0.00446211
0.00443058
0.0043982
0.00436502
0.00433112
0.00429655
0.00426138
0.00422567
0.00418948
0.00415287
0.0041159
0.00407861
0.00404106
0.00400331
0.00396538
0.00392734
0.00388922
0.00385106
0.0038129
0.00377476
0.0037367
0.00369873
0.00366089
0.0036232
0.00358568
0.00354837
0.00351127
0.00347442
0.00343782
0.00340149
0.00336546
0.00332973
0.00329431
0.00325921
0.00322445
0.00319003
0.00315596
0.00312224
0.00308888
0.00305589
0.00302326
0.002991
0.00295912
0.0029276
0.00289646
0.00286568
0.00283528
0.00280524
0.00277558
0.00274628
0.00271734
0.00268877
0.00266056
0.0026327
0.0026052
0.00257805
0.00255125
0.00252479
0.00249867
0.00247289
0.00244744
0.00242231
0.0023975
0.00237302
0.00234884
0.00232497
0.00230141
0.00227815
0.00225518
0.00223251
0.00221012
0.00218801
0.00216617
0.0021446
0.0021233
0.00210225
0.00208145
0.00206088
0.00204053
0.00202039
0.00200044
0.00198065
0.00196099
0.00194142
0.00192189
0.00190234
0.00188269
0.0018628
0.00184274
0.00182199
0.00179366
2.34437e-06
0.000117989
0.000252848
0.000380974
0.000503947
0.000620483
0.000731378
0.000840494
0.000955429
0.00108134
0.00121946
0.00136924
0.00151156
0.00164355
0.00176782
0.00188625
0.00199997
0.00210962
0.00221559
0.00231808
0.00241748
0.00251419
0.00260849
0.00270065
0.00279089
0.00287942
0.00296641
0.00305203
0.0031364
0.00321964
0.00330183
0.00338303
0.00346327
0.00354257
0.00362091
0.00369828
0.00377463
0.00384991
0.00392405
0.00399698
0.00406862
0.00413889
0.0042077
0.00427496
0.00434057
0.00440444
0.00446649
0.00452664
0.00458479
0.00464087
0.0046948
0.00474652
0.00479596
0.00484305
0.00488776
0.00493003
0.00496981
0.00500709
0.00504182
0.00507399
0.00510359
0.0051306
0.00515502
0.00517685
0.00519612
0.00521282
0.00522699
0.00523864
0.00524781
0.00525454
0.00525886
0.00526079
0.00526045
0.00525784
0.00525302
0.00524606
0.00523701
0.00522593
0.00521289
0.00519795
0.00518119
0.00516267
0.00514246
0.00512065
0.00509729
0.00507246
0.00504623
0.00501869
0.00498989
0.00495991
0.00492883
0.00489671
0.00486361
0.00482961
0.00479478
0.00475918
0.00472287
0.00468591
0.00464838
0.00461032
0.0045718
0.00453287
0.00449359
0.004454
0.00441416
0.00437412
0.00433391
0.00429358
0.00425317
0.00421273
0.00417228
0.00413186
0.00409151
0.00405125
0.00401112
0.00397113
0.00393132
0.00389171
0.00385231
0.00381316
0.00377426
0.00373563
0.00369729
0.00365925
0.00362153
0.00358413
0.00354707
0.00351035
0.00347398
0.00343796
0.00340231
0.00336702
0.00333211
0.00329757
0.0032634
0.0032296
0.00319618
0.00316314
0.00313048
0.00309819
0.00306628
0.00303475
0.00300358
0.00297279
0.00294237
0.00291231
0.00288262
0.00285329
0.00282431
0.00279568
0.00276741
0.00273948
0.00271189
0.00268464
0.00265772
0.00263113
0.00260486
0.00257892
0.00255329
0.00252798
0.00250297
0.00247826
0.00245385
0.00242972
0.00240588
0.00238231
0.002359
0.00233594
0.00231311
0.00229049
0.00226806
0.00224578
0.00222361
0.0022015
0.00217939
0.00215719
0.00213479
0.00211221
0.00208891
0.00205825
1.92689e-06
0.000110308
0.000242563
0.000369909
0.00049565
0.000620084
0.000745013
0.000874509
0.00101188
0.00115922
0.00131665
0.00147846
0.00162627
0.00176272
0.00189083
0.00201259
0.00212929
0.00224173
0.00235047
0.00245588
0.00255827
0.00265783
0.002755
0.00285014
0.00294353
0.0030354
0.00312596
0.00321536
0.00330375
0.00339121
0.00347782
0.00356363
0.00364866
0.00373291
0.00381636
0.00389896
0.00398067
0.00406141
0.0041411
0.00421966
0.004297
0.00437301
0.0044476
0.00452065
0.00459207
0.00466176
0.00472962
0.00479554
0.00485944
0.00492123
0.00498083
0.00503815
0.00509313
0.0051457
0.0051958
0.00524338
0.00528839
0.00533081
0.00537058
0.0054077
0.00544213
0.00547388
0.00550293
0.00552929
0.00555297
0.00557397
0.00559232
0.00560804
0.00562116
0.00563172
0.00563975
0.00564529
0.0056484
0.00564912
0.00564752
0.00564364
0.00563755
0.0056293
0.00561896
0.0056066
0.00559227
0.00557606
0.00555803
0.00553825
0.00551679
0.00549373
0.00546914
0.00544309
0.00541565
0.0053869
0.00535691
0.00532573
0.00529345
0.00526014
0.00522585
0.00519066
0.00515463
0.00511782
0.0050803
0.00504213
0.00500337
0.00496407
0.0049243
0.00488411
0.00484354
0.00480265
0.00476149
0.0047201
0.00467852
0.0046368
0.00459498
0.0045531
0.00451118
0.00446928
0.00442741
0.00438561
0.00434391
0.00430234
0.00426091
0.00421966
0.00417861
0.00413777
0.00409716
0.00405681
0.00401672
0.00397692
0.00393741
0.0038982
0.00385931
0.00382075
0.00378253
0.00374465
0.00370711
0.00366993
0.0036331
0.00359664
0.00356054
0.00352481
0.00348945
0.00345446
0.00341984
0.00338559
0.00335172
0.00331822
0.00328508
0.00325232
0.00321993
0.0031879
0.00315623
0.00312492
0.00309398
0.00306338
0.00303314
0.00300325
0.00297371
0.00294451
0.00291565
0.00288712
0.00285892
0.00283106
0.00280351
0.00277629
0.00274937
0.00272277
0.00269646
0.00267045
0.00264471
0.00261924
0.00259403
0.00256904
0.00254426
0.00251965
0.00249517
0.00247077
0.00244638
0.00242193
0.00239731
0.00237251
0.002347
0.00231419
1.54349e-06
0.000102167
0.000232072
0.000359054
0.000487722
0.000618992
0.000755527
0.000899243
0.00105187
0.00121393
0.00138596
0.00155194
0.00170373
0.00184405
0.00197566
0.00210054
0.00222005
0.0023351
0.00244637
0.00255435
0.00265943
0.00276191
0.00286205
0.00296005
0.00305634
0.0031512
0.00324487
0.00333753
0.00342933
0.00352038
0.00361075
0.00370048
0.00378958
0.00387804
0.00396584
0.00405291
0.0041392
0.00422463
0.00430909
0.00439251
0.00447475
0.00455573
0.00463531
0.0047134
0.00478987
0.00486462
0.00493753
0.0050085
0.00507742
0.00514421
0.00520877
0.00527101
0.00533087
0.00538826
0.00544313
0.00549542
0.00554508
0.00559206
0.00563634
0.00567788
0.00571666
0.00575268
0.00578592
0.00581638
0.00584407
0.00586901
0.00589121
0.00591068
0.00592748
0.00594161
0.00595312
0.00596206
0.00596847
0.00597239
0.00597388
0.00597301
0.00596984
0.00596441
0.00595679
0.00594704
0.00593523
0.00592143
0.00590571
0.00588813
0.00586878
0.00584772
0.00582503
0.00580077
0.00577502
0.00574785
0.00571933
0.00568952
0.00565851
0.00562635
0.00559311
0.00555886
0.00552367
0.00548759
0.0054507
0.00541305
0.00537471
0.00533573
0.00529617
0.00525609
0.00521553
0.00517456
0.00513321
0.00509153
0.00504958
0.0050074
0.00496502
0.0049225
0.00487986
0.00483714
0.00479438
0.00475161
0.00470887
0.00466617
0.00462356
0.00458105
0.00453867
0.00449645
0.0044544
0.00441254
0.0043709
0.00432949
0.00428833
0.00424742
0.00420679
0.00416645
0.0041264