/*--------------------------------*- C++ -*----------------------------------*\
| =========                 |                                                 |
| \\      /  F ield         | OpenFOAM: The Open Source CFD Toolbox           |
|  \\    /   O peration     | Version:  v2012                                 |
|   \\  /    A nd           | Website:  www.openfoam.com                      |
|    \\/     M anipulation  |                                                 |
\*---------------------------------------------------------------------------*/
FoamFile
{
    version     2.0;
    format      ascii;
    class       volScalarField;
    location    "1900";
    object      p;
}
// * * * * * * * * * * * * * * * * * * * * * * * * * * * * * * * * * * * * * //

dimensions      [0 2 -2 0 0 0 0];


internalField   nonuniform List<scalar> 
12225
(
514.684
55.5364
2.37235
0.290762
-1.88913
-3.36469
-3.80556
-4.00806
-4.21589
-4.36551
-4.40805
-4.40876
-4.4096
-4.43922
-4.49303
-4.56688
-4.72238
-4.93691
-122.171
0.247071
-2.70993
-0.756086
-2.20689
-3.51522
-3.94166
-4.12743
-4.26546
-4.35672
-4.4283
-4.48916
-4.54522
-4.58474
-4.61547
-4.64784
-4.72375
-4.84696
-200.638
-16.1403
-2.33802
-0.349392
-1.89133
-3.23497
-3.76024
-4.01437
-4.18596
-4.30223
-4.39587
-4.46561
-4.51627
-4.54484
-4.56562
-4.58498
-4.62349
-4.62044
-110.608
-10.9661
-2.16883
-0.423223
-1.7784
-3.01896
-3.58983
-3.90127
-4.11411
-4.25887
-4.36249
-4.43291
-4.48055
-4.50956
-4.52936
-4.5395
-4.54175
-4.47643
-61.5651
-8.13797
-3.61439
-1.20136
-2.00607
-2.98863
-3.51865
-3.84252
-4.06977
-4.22565
-4.33407
-4.40784
-4.45779
-4.48864
-4.50515
-4.50397
-4.47898
-4.38911
-45.7232
-8.77751
-5.25073
-2.19189
-2.42105
-3.09173
-3.52701
-3.82754
-4.04761
-4.20299
-4.31291
-4.38927
-4.44083
-4.47147
-4.48363
-4.47356
-4.43357
-4.33828
-35.7871
-9.26887
-6.37266
-3.11653
-2.91334
-3.2811
-3.59527
-3.84911
-4.04779
-4.19457
-4.30159
-4.37744
-4.42858
-4.45807
-4.4672
-4.45271
-4.40824
-4.3199
-27.7707
-8.8998
-6.96633
-3.79509
-3.35381
-3.4905
-3.69302
-3.89488
-4.0668
-4.20055
-4.30137
-4.37439
-4.42411
-4.4528
-4.46116
-4.44672
-4.40504
-4.32901
-21.6829
-8.51291
-7.12726
-4.30327
-3.72155
-3.69871
-3.80958
-3.95977
-4.10199
-4.21954
-4.31161
-4.38012
-4.42761
-4.45551
-4.46418
-4.45197
-4.41628
-4.35407
-16.6057
-8.13376
-7.08116
-4.74849
-4.0763
-3.92766
-3.95314
-4.04796
-4.15574
-4.25301
-4.33336
-4.39548
-4.43989
-4.4671
-4.47721
-4.46943
-4.44285
-4.39737
-12.6322
-7.67412
-6.8994
-5.0951
-4.40033
-4.16412
-4.11628
-4.15685
-4.22809
-4.30232
-4.36866
-4.42289
-4.46363
-4.49049
-4.50339
-4.50224
-4.48744
-4.46044
-9.69239
-7.1422
-6.62271
-5.3202
-4.67252
-4.39129
-4.28911
-4.28213
-4.31809
-4.36843
-4.41957
-4.46503
-4.50192
-4.52904
-4.5461
-4.55343
-4.55207
-4.54418
-7.6596
-6.5983
-6.29966
-5.42539
-4.87722
-4.59169
-4.45848
-4.41587
-4.42173
-4.45004
-4.4865
-4.52346
-4.55697
-4.58522
-4.60764
-4.62463
-4.63734
-4.64778
-6.36463
-6.10676
-5.97952
-5.43429
-5.01004
-4.7521
-4.61099
-4.54773
-4.53214
-4.54313
-4.56756
-4.59766
-4.62909
-4.65957
-4.68828
-4.71533
-4.74165
-4.76864
-5.61647
-5.7162
-5.70292
-5.38489
-5.08013
-4.86743
-4.73647
-4.6672
-4.6405
-4.64098
-4.65787
-4.68417
-4.71556
-4.74961
-4.7852
-4.8221
-4.86069
-4.90176
-5.23722
-5.45407
-5.50207
-5.32163
-5.10925
-4.94236
-4.83028
-4.76549
-4.737
-4.73433
-4.74915
-4.77554
-4.80954
-4.84869
-4.8916
-4.93768
-4.98679
-5.03916
-5.09602
-5.33819
-5.41094
-5.29304
-5.12914
-4.99015
-4.89265
-4.83487
-4.80989
-4.80979
-4.8277
-4.85834
-4.89793
-4.94395
-4.99478
-5.04946
-5.10749
-5.16866
-5.13367
-5.39395
-5.46812
-5.3421
-5.16837
-5.02279
-4.92262
-4.86554
-4.84367
-4.84858
-4.87277
-4.91059
-4.9579
-5.01192
-5.07071
-5.13313
-5.19836
-5.26605
-5.3858
-5.64823
-5.68404
-5.46903
-5.21999
-5.02977
-4.90883
-4.84587
-4.82691
-4.83921
-4.87284
-4.92059
-4.97762
-5.04068
-5.10769
-5.17731
-5.24879
-5.32165
-5.99492
-6.12984
-6.03573
-5.6284
-5.24065
-4.98116
-4.8349
-4.77018
-4.7608
-4.78723
-4.83574
-4.89745
-4.96677
-5.04034
-5.11613
-5.19298
-5.27023
-5.3477
-7.2423
-6.88224
-6.48705
-5.75496
-5.17654
-4.84685
-4.69063
-4.64085
-4.65502
-4.7057
-4.77591
-4.85571
-4.93968
-5.02479
-5.10963
-5.19345
-5.27605
-5.35754
-9.63357
-7.95709
-6.97523
-5.76478
-4.97291
-4.60608
-4.47648
-4.46869
-4.52403
-4.60965
-4.70745
-4.80832
-4.90787
-5.00452
-5.09777
-5.18779
-5.27487
-5.35957
-13.9746
-9.38339
-7.39559
-5.56226
-4.58802
-4.2582
-4.20973
-4.27505
-4.38778
-4.51588
-4.64415
-4.76635
-4.8806
-4.98723
-5.08729
-5.18195
-5.27226
-5.35909
-20.8821
-10.9462
-7.54644
-5.04979
-4.00901
-3.82979
-3.9248
-4.08959
-4.26868
-4.44032
-4.59717
-4.738
-4.86412
-4.97793
-5.08226
-5.17946
-5.2714
-5.35912
-29.7286
-11.9415
-7.02564
-4.11853
-3.25705
-3.37187
-3.66578
-3.94243
-4.18558
-4.39482
-4.57376
-4.72777
-4.86094
-4.97852
-5.08435
-5.18192
-5.27394
-5.3613
-43.0986
-12.606
-5.46483
-2.72124
-2.40611
-2.95713
-3.47892
-3.85747
-4.14926
-4.38355
-4.57582
-4.73559
-4.87001
-4.98703
-5.09179
-5.18823
-5.27968
-5.36624
-84.5916
-17.3655
-3.65608
-1.25763
-1.68872
-2.71532
-3.43053
-3.8642
-4.1671
-4.40347
-4.60013
-4.76233
-4.89274
-5.00342
-5.10157
-5.19443
-5.28638
-5.37211
-177.878
-26.8417
-3.67213
-0.762358
-1.5277
-2.83634
-3.60829
-4.00829
-4.25983
-4.45504
-4.6401
-4.80856
-4.94148
-5.04713
-5.12957
-5.20852
-5.29884
-5.38249
-154.783
-9.61939
-3.26439
-1.06044
-1.83567
-3.21404
-3.90756
-4.21707
-4.40552
-4.54447
-4.68783
-4.84502
-4.99165
-5.11896
-5.20717
-5.27354
-5.35707
-5.44327
428.065
66.6134
7.06392
1.60722
-0.90819
-2.85006
-3.64571
-3.98705
-4.30386
-4.57315
-4.69797
-4.73384
-4.78698
-4.87841
-5.01192
-5.14651
-5.23446
-5.31399
-8.50408
-8.49128
-8.48121
-8.52313
-8.61604
-8.71901
-8.79793
-8.83684
-8.83958
-8.82141
-8.79379
-8.76526
-8.7438
-8.73524
-8.74031
-8.75264
-8.76336
-8.76812
-8.76971
-8.77487
-8.78624
-8.81896
-8.90917
-9.08294
-9.33776
-9.65694
-10.0292
-10.4436
-10.8846
-11.3362
-11.7833
-12.2142
-12.6197
-12.9932
-13.3305
-13.6291
-13.8883
-14.1078
-14.2886
-14.4315
-14.5378
-14.6089
-14.6461
-14.6508
-14.6243
-14.5679
-14.4834
-14.3729
-14.2376
-14.0754
-13.8837
-13.6637
-13.4183
-13.1491
-12.8573
-12.5441
-12.2105
-11.8575
-11.4861
-11.0973
-10.6923
-10.2722
-9.83804
-9.39106
-8.93241
-8.46328
-7.98488
-7.49839
-7.00502
-6.50595
-6.00234
-5.49533
-4.98604
-4.47554
-3.96489
-3.45507
-2.94705
-2.44175
-1.94001
-1.44265
-0.950417
-0.464024
0.0158875
0.488727
0.953958
1.4111
1.85973
2.29947
2.73001
3.15109
3.56251
3.96409
4.35565
4.73717
5.10891
5.47086
5.82255
6.16359
6.49398
6.81396
7.12376
7.42359
7.71364
7.99408
8.2651
8.52691
8.77971
9.02371
9.25915
9.48623
9.70516
9.9162
10.1196
10.3156
10.5044
10.6863
10.8616
11.0304
11.193
11.3496
11.5005
11.6458
11.7858
11.9207
12.0507
12.1761
12.2969
12.4133
12.5256
12.634
12.7385
12.8395
12.9374
13.032
13.1233
13.2115
13.2967
13.3791
13.4588
13.5359
13.6105
13.6827
13.7527
13.8205
13.8862
13.9499
14.0116
14.0715
14.1296
14.1859
14.2406
14.2936
14.3451
14.395
14.4434
14.4903
14.5358
14.5799
14.6226
14.664
14.704
14.7426
14.78
14.816
14.8508
14.8843
14.9166
14.9478
14.9778
15.0069
15.0351
15.0628
15.0901
15.1177
15.1464
15.1771
15.2125
15.2541
15.312
15.3725
-8.56197
-8.59333
-8.66748
-8.76094
-8.86385
-8.95529
-9.01567
-9.03916
-9.02113
-8.95974
-8.86951
-8.77288
-8.69202
-8.6417
-8.62022
-8.6173
-8.62729
-8.65408
-8.69344
-8.71506
-8.73695
-8.81656
-8.98192
-9.22541
-9.53496
-9.90803
-10.3349
-10.7954
-11.2678
-11.7347
-12.1837
-12.6056
-12.994
-13.3451
-13.6573
-13.9303
-14.1646
-14.3611
-14.521
-14.6454
-14.7356
-14.7927
-14.8175
-14.8111
-14.7741
-14.7073
-14.611
-14.4854
-14.3308
-14.1506
-13.9483
-13.7241
-13.4773
-13.2078
-12.9164
-12.6038
-12.271
-11.9187
-11.5481
-11.1601
-10.7558
-10.3363
-9.90274
-9.45629
-8.99809
-8.52932
-8.0512
-7.56491
-7.07166
-6.57263
-6.06897
-5.56183
-5.05233
-4.54154
-4.03051
-3.52025
-3.0117
-2.5058
-2.00339
-1.50529
-1.01226
-0.525009
-0.0441817
0.429622
0.895858
1.35403
1.80371
2.24449
2.67603
3.09803
3.51021
3.91235
4.30422
4.68571
5.05691
5.41804
5.76928
6.11067
6.44206
6.76332
7.07452
7.37577
7.66722
7.94906
8.22145
8.48461
8.73872
8.984
9.2207
9.44904
9.66924
9.88153
10.0862
10.2834
10.4734
10.6564
10.8328
11.0027
11.1664
11.324
11.4759
11.6222
11.7632
11.8991
12.0302
12.1566
12.2785
12.396
12.5094
12.6189
12.7245
12.8262
12.9242
13.0188
13.1103
13.1987
13.2842
13.3668
13.4468
13.5242
13.5991
13.6716
13.7419
13.81
13.876
13.94
14.002
14.0622
14.1206
14.1772
14.2321
14.2854
14.3371
14.3872
14.4359
14.483
14.5287
14.573
14.6159
14.6575
14.6976
14.7365
14.774
14.8102
14.8451
14.8788
14.9112
14.9425
14.9727
15.0019
15.0303
15.058
15.0855
15.1132
15.1418
15.1725
15.2072
15.2468
15.3005
15.3503
-8.6893
-8.77091
-8.88867
-8.99405
-9.07628
-9.1294
-9.14928
-9.13469
-9.08429
-9.00048
-8.89252
-8.77726
-8.67836
-8.61504
-8.58724
-8.5832
-8.60361
-8.66334
-8.77171
-8.92191
-9.11242
-9.35392
-9.64967
-9.99013
-10.3632
-10.7595
-11.1691
-11.58
-11.982
-12.3678
-12.7328
-13.0733
-13.3867
-13.6713
-13.9262
-14.1507
-14.3448
-14.5086
-14.6421
-14.7459
-14.8202
-14.8654
-14.8819
-14.8702
-14.8308
-14.7639
-14.6701
-14.5492
-14.4013
-14.2274
-14.0288
-13.8066
-13.5614
-13.2936
-13.0039
-12.6932
-12.3622
-12.0117
-11.6429
-11.2566
-10.8538
-10.4358
-10.0035
-9.55828
-9.10111
-8.63324
-8.15587
-7.67018
-7.17739
-6.67866
-6.17517
-5.66807
-5.15846
-4.64744
-4.13606
-3.62533
-3.1162
-2.60961
-2.10641
-1.60743
-1.11344
-0.625143
-0.143198
0.331791
0.799277
1.25877
1.70982
2.15204
2.5851
3.00871
3.42262
3.82665
4.22063
4.60449
4.97819
5.34174
5.69519
6.03852
6.37173
6.69479
7.0078
7.31086
7.60412
7.88774
8.1619
8.4268
8.68263
8.92962
9.16798
9.39794
9.61974
9.83358
10.0397
10.2384
10.4299
10.6143
10.7921
10.9633
11.1283
11.2872
11.4404
11.5879
11.7301
11.8671
11.9991
12.1263
12.2489
12.3672
12.4813
12.5913
12.6975
12.8
12.899
12.9947
13.0872
13.1766
13.2629
13.3465
13.4272
13.5054
13.5811
13.6543
13.7252
13.794
13.8605
13.9251
13.9877
14.0484
14.1072
14.1643
14.2197
14.2734
14.3255
14.376
14.425
14.4725
14.5185
14.5632
14.6064
14.6482
14.6886
14.7277
14.7655
14.8019
14.8371
14.871
14.9036
14.9351
14.9654
14.9947
15.0232
15.051
15.0785
15.1061
15.1345
15.1646
15.198
15.2346
15.282
15.3156
-8.72716
-8.8242
-8.92522
-9.01149
-9.07557
-9.11481
-9.12676
-9.10881
-9.06106
-8.98865
-8.90301
-8.82108
-8.76101
-8.73546
-8.74906
-8.80394
-8.90411
-9.05344
-9.25255
-9.49573
-9.77349
-10.0789
-10.4063
-10.7494
-11.103
-11.4618
-11.8204
-12.1737
-12.517
-12.8465
-13.1587
-13.4511
-13.7215
-13.9682
-14.19
-14.3861
-14.5558
-14.6988
-14.8148
-14.9038
-14.9658
-15.0008
-15.0091
-14.9906
-14.9455
-14.8741
-14.7767
-14.6535
-14.505
-14.3319
-14.1348
-13.9142
-13.6705
-13.4044
-13.1164
-12.8074
-12.478
-12.1292
-11.7618
-11.3769
-10.9755
-10.5586
-10.1274
-9.68301
-9.22654
-8.75922
-8.28224
-7.79678
-7.30406
-6.80525
-6.30152
-5.79402
-5.28387
-4.77218
-4.25998
-3.7483
-3.23812
-2.73034
-2.22586
-1.72549
-1.23001
-0.740136
-0.256534
0.220188
0.689475
1.15083
1.6038
2.04799
2.48308
2.90875
3.32478
3.73097
4.12718
4.51332
4.88935
5.25523
5.61092
5.95643
6.29174
6.61689
6.93197
7.2371
7.53241
7.81806
8.09423
8.36111
8.61889
8.8678
9.10804
9.33984
9.56342
9.77903
9.98689
10.1873
10.3804
10.5665
10.7458
10.9185
11.085
11.2453
11.3998
11.5487
11.6921
11.8303
11.9635
12.0919
12.2157
12.3351
12.4503
12.5614
12.6686
12.7721
12.8721
12.9688
13.0623
13.1526
13.2399
13.3243
13.4059
13.4848
13.5612
13.6352
13.7068
13.7762
13.8434
13.9085
13.9717
14.0329
14.0923
14.1499
14.2057
14.2599
14.3125
14.3634
14.4128
14.4607
14.5071
14.5521
14.5957
14.6378
14.6786
14.718
14.756
14.7927
14.8281
14.8622
14.895
14.9266
14.9571
14.9865
15.015
15.0428
15.0701
15.0974
15.1252
15.154
15.1853
15.2178
15.2572
15.2757
-8.51355
-8.59838
-8.69848
-8.79551
-8.87267
-8.92513
-8.95193
-8.95398
-8.93587
-8.90601
-8.87658
-8.86158
-8.87372
-8.92249
-9.01396
-9.15118
-9.33412
-9.55812
-9.81469
-10.0958
-10.3958
-10.7108
-11.0362
-11.3672
-11.6992
-12.0288
-12.3524
-12.6671
-12.97
-13.2588
-13.5314
-13.7863
-14.022
-14.2372
-14.431
-14.6025
-14.7511
-14.8762
-14.9772
-15.0539
-15.106
-15.1332
-15.1354
-15.1124
-15.0644
-14.9911
-14.8928
-14.7696
-14.6218
-14.4497
-14.2538
-14.0345
-13.7923
-13.5276
-13.2412
-12.9336
-12.6057
-12.2583
-11.8923
-11.5086
-11.1083
-10.6924
-10.262
-9.81824
-9.36232
-8.89541
-8.41868
-7.93333
-7.44055
-6.94154
-6.43747
-5.92948
-5.41872
-4.90626
-4.39318
-3.8805
-3.36918
-2.86017
-2.35434
-1.85253
-1.35551
-0.864005
-0.378688
0.0998268
0.570982
1.03427
1.48924
1.9355
2.37271
2.80055
3.2188
3.62726
4.02576
4.41421
4.79254
5.1607
5.51865
5.8664
6.20394
6.53132
6.84863
7.15597
7.45348
7.74131
8.01963
8.28864
8.54853
8.7995
9.04179
9.27561
9.50117
9.71872
9.92849
10.1307
10.3256
10.5135
10.6945
10.8689
11.037
11.1989
11.3549
11.5053
11.6502
11.7898
11.9245
12.0542
12.1794
12.3001
12.4165
12.5288
12.6372
12.7418
12.8429
12.9406
13.0351
13.1263
13.2145
13.2998
13.3822
13.462
13.5392
13.6139
13.6863
13.7564
13.8243
13.8901
13.9539
14.0158
14.0757
14.1339
14.1903
14.245
14.298
14.3495
14.3993
14.4477
14.4945
14.5399
14.5838
14.6263
14.6674
14.7072
14.7455
14.7825
14.8181
14.8525
14.8855
14.9173
14.9478
14.9773
15.0058
15.0334
15.0604
15.0872
15.114
15.1412
15.1698
15.1975
15.2291
15.2352
-8.09288
-8.18139
-8.30249
-8.42527
-8.53048
-8.61085
-8.66918
-8.71145
-8.74537
-8.78078
-8.82865
-8.89923
-9.00045
-9.13704
-9.3111
-9.52154
-9.76363
-10.0318
-10.3206
-10.6244
-10.9377
-11.2559
-11.5749
-11.8914
-12.2025
-12.5062
-12.8005
-13.0839
-13.3549
-13.6123
-13.8547
-14.0812
-14.2906
-14.482
-14.6544
-14.8071
-14.9393
-15.0502
-15.1394
-15.2061
-15.25
-15.2707
-15.2678
-15.241
-15.1902
-15.1152
-15.0159
-14.8925
-14.745
-14.5736
-14.3787
-14.1605
-13.9195
-13.6563
-13.3712
-13.0651
-12.7386
-12.3926
-12.0279
-11.6454
-11.2462
-10.8313
-10.4018
-9.95885
-9.50352
-9.03706
-8.56064
-8.07543
-7.58265
-7.08349
-6.57911
-6.07068
-5.55932
-5.04614
-4.5322
-4.01853
-3.50611
-2.99587
-2.48872
-1.98547
-1.48693
-0.993804
-0.506781
-0.0264786
0.44654
0.911766
1.36874
1.81707
2.25639
2.68642
3.10689
3.51761
3.9184
4.30916
4.6898
5.06026
5.42051
5.77054
6.11036
6.44003
6.75962
7.06924
7.36901
7.65909
7.93967
8.2109
8.47298
8.72612
8.97053
9.20643
9.43405
9.65361
9.86536
10.0695
10.2663
10.4561
10.6389
10.8151
10.985
11.1486
11.3063
11.4583
11.6048
11.746
11.8821
12.0133
12.1399
12.2619
12.3797
12.4933
12.6029
12.7088
12.811
12.9098
13.0053
13.0976
13.1868
13.273
13.3564
13.4371
13.5152
13.5908
13.6639
13.7348
13.8035
13.87
13.9345
13.997
14.0577
14.1164
14.1734
14.2287
14.2823
14.3343
14.3847
14.4335
14.4808
14.5266
14.571
14.6139
14.6554
14.6955
14.7342
14.7715
14.8074
14.842
14.8752
14.9072
14.9378
14.9673
14.9957
15.0231
15.0497
15.0756
15.1012
15.1265
15.1519
15.1749
15.1991
15.1946
-7.62874
-7.72752
-7.86976
-8.01872
-8.15681
-8.27564
-8.37889
-8.47596
-8.57626
-8.68873
-8.82091
-8.97759
-9.16145
-9.37289
-9.61016
-9.87109
-10.1527
-10.4503
-10.7585
-11.0725
-11.3877
-11.7009
-12.0094
-12.3111
-12.6044
-12.8881
-13.1612
-13.4227
-13.6717
-13.9075
-14.1291
-14.3358
-14.5268
-14.7011
-14.858
-14.9967
-15.1164
-15.2164
-15.296
-15.3547
-15.3917
-15.4067
-15.3992
-15.3687
-15.3151
-15.238
-15.1374
-15.0131
-14.8653
-14.694
-14.4994
-14.2818
-14.0416
-13.7792
-13.4952
-13.1902
-12.8649
-12.52
-12.1565
-11.7753
-11.3772
-10.9634
-10.535
-10.0929
-9.63846
-9.17273
-8.69692
-8.21223
-7.71984
-7.22093
-6.71667
-6.20823
-5.69673
-5.18326
-4.66891
-4.15469
-3.6416
-3.13056
-2.62248
-2.11819
-1.61848
-1.12409
-0.635682
-0.153896
0.320703
0.7876
1.24634
1.6965
2.13774
2.56974
2.99226
3.40507
3.808
4.20093
4.58376
4.95643
5.3189
5.67114
6.0132
6.34511
6.66695
6.97882
7.28085
7.57318
7.85598
8.12942
8.3937
8.64901
8.89558
9.13361
9.36332
9.58496
9.79875
10.0049
10.2037
10.3954
10.5801
10.7582
10.9298
11.0953
11.2547
11.4084
11.5565
11.6993
11.837
11.9698
12.0978
12.2213
12.3404
12.4554
12.5663
12.6735
12.777
12.877
12.9736
13.067
13.1572
13.2445
13.3289
13.4106
13.4896
13.5661
13.6401
13.7118
13.7813
13.8486
13.9139
13.9771
14.0385
14.0979
14.1556
14.2115
14.2657
14.3182
14.3692
14.4185
14.4663
14.5127
14.5575
14.6008
14.6428
14.6832
14.7223
14.7599
14.7961
14.831
14.8644
14.8965
14.9272
14.9567
14.9849
15.012
15.038
15.063
15.0872
15.1103
15.1324
15.1505
15.1682
15.1543
-7.27534
-7.36868
-7.5209
-7.68685
-7.85396
-8.01534
-8.17055
-8.32745
-8.49423
-8.67667
-8.87877
-9.10164
-9.34381
-9.60444
-9.88292
-10.1769
-10.4826
-10.7956
-11.1118
-11.4275
-11.7399
-12.0467
-12.3462
-12.6368
-12.9177
-13.188
-13.447
-13.6941
-13.9286
-14.15
-14.3577
-14.551
-14.7292
-14.8916
-15.0374
-15.166
-15.2765
-15.3683
-15.4407
-15.493
-15.5245
-15.5348
-15.5232
-15.4895
-15.4331
-15.3538
-15.2514
-15.1259
-14.9771
-14.8051
-14.6101
-14.3923
-14.1521
-13.8899
-13.6062
-13.3016
-12.9768
-12.6326
-12.2698
-11.8892
-11.492
-11.079
-10.6513
-10.2101
-9.75645
-9.29152
-8.81647
-8.3325
-7.84079
-7.3425
-6.8388
-6.33084
-5.81974
-5.30659
-4.79245
-4.27835
-3.76526
-3.25412
-2.74581
-2.24118
-1.74101
-1.24604
-0.756942
-0.274344
0.201183
0.669121
1.129
1.58042
2.02302
2.45648
2.88053
3.29495
3.69957
4.09424
4.47887
4.85337
5.21772
5.57189
5.9159
6.2498
6.57366
6.88758
7.19167
7.48608
7.77096
8.0465
8.31286
8.57026
8.8189
9.059
9.29077
9.51443
9.73023
9.93838
10.1391
10.3327
10.5194
10.6993
10.8728
11.04
11.2012
11.3566
11.5064
11.6508
11.7901
11.9244
12.054
12.1789
12.2995
12.4159
12.5282
12.6367
12.7414
12.8426
12.9404
13.035
13.1264
13.2147
13.3002
13.3828
13.4628
13.5403
13.6153
13.6879
13.7582
13.8263
13.8924
13.9564
14.0185
14.0786
14.137
14.1935
14.2484
14.3015
14.3531
14.403
14.4514
14.4982
14.5435
14.5873
14.6297
14.6706
14.71
14.748
14.7845
14.8196
14.8533
14.8855
14.9163
14.9457
14.9737
15.0004
15.0257
15.0497
15.0723
15.0931
15.1118
15.1252
15.1368
15.1148
-7.08752
-7.17367
-7.328
-7.5006
-7.6843
-7.87703
-8.07542
-8.28145
-8.49959
-8.73216
-8.97947
-9.24149
-9.51812
-9.80893
-10.112
-10.4241
-10.7415
-11.061
-11.3794
-11.6943
-12.0034
-12.3051
-12.5982
-12.8815
-13.1543
-13.416
-13.6661
-13.904
-14.1294
-14.3418
-14.5406
-14.7252
-14.8951
-15.0496
-15.188
-15.3097
-15.4139
-15.4999
-15.567
-15.6145
-15.6418
-15.6482
-15.6334
-15.5967
-15.5378
-15.4564
-15.3522
-15.225
-15.0749
-14.9018
-14.706
-14.4875
-14.2467
-13.9841
-13.7001
-13.3954
-13.0705
-12.7264
-12.3637
-11.9834
-11.5865
-11.1739
-10.7468
-10.3061
-9.85306
-9.38879
-8.91445
-8.4312
-7.94022
-7.44269
-6.93974
-6.43252
-5.92214
-5.40968
-4.89619
-4.38268
-3.87012
-3.35945
-2.85154
-2.34721
-1.84726
-1.3524
-0.863319
-0.380629
0.0950966
0.563342
1.02364
1.47558
1.9188
2.35298
2.77786
3.19321
3.59885
3.99464
4.38046
4.75624
5.12193
5.47751
5.823
6.15844
6.48389
6.79946
7.10524
7.40138
7.68803
7.96536
8.23354
8.49278
8.74326
8.98521
9.21883
9.44435
9.66199
9.87199
10.0746
10.27
10.4584
10.6401
10.8153
10.9843
11.1472
11.3042
11.4557
11.6017
11.7426
11.8784
12.0095
12.1359
12.2579
12.3757
12.4894
12.5991
12.7052
12.8076
12.9066
13.0023
13.0949
13.1843
13.2708
13.3545
13.4355
13.5139
13.5898
13.6634
13.7346
13.8036
13.8704
13.9352
13.9981
14.059
14.118
14.1752
14.2307
14.2845
14.3367
14.3872
14.4361
14.4835
14.5293
14.5737
14.6165
14.6578
14.6976
14.736
14.7728
14.8082
14.842
14.8744
14.9052
14.9345
14.9623
14.9885
15.0131
15.0359
15.0568
15.0751
15.0906
15.0994
15.1056
15.0765
-7.06233
-7.14937
-7.29719
-7.46615
-7.65316
-7.85807
-8.07773
-8.31015
-8.55557
-8.81453
-9.08647
-9.37053
-9.66646
-9.97306
-10.2876
-10.6071
-10.9288
-11.2498
-11.5678
-11.8807
-12.1869
-12.4849
-12.7738
-13.0525
-13.3206
-13.5774
-13.8225
-14.0554
-14.2758
-14.4831
-14.6769
-14.8566
-15.0217
-15.1716
-15.3055
-15.4229
-15.5231
-15.6052
-15.6687
-15.7129
-15.7371
-15.7408
-15.7233
-15.6842
-15.6231
-15.5397
-15.4337
-15.3049
-15.1533
-14.9789
-14.7819
-14.5624
-14.3207
-14.0574
-13.7728
-13.4676
-13.1424
-12.798
-12.4353
-12.055
-11.6582
-11.2459
-10.8191
-10.379
-9.92649
-9.46289
-8.9893
-8.50687
-8.01679
-7.52018
-7.01821
-6.51199
-6.00262
-5.49118
-4.97871
-4.4662
-3.95462
-3.44487
-2.93784
-2.43434
-1.93515
-1.44098
-0.952507
-0.470341
0.00495625
0.472873
0.93295
1.38478
1.82799
2.26229
2.68738
3.10305
3.50911
3.90541
4.29184
4.66831
5.03478
5.39124
5.73768
6.07415
6.40071
6.71746
7.02449
7.32193
7.60995
7.88868
8.15832
8.41905
8.67105
8.91455
9.14974
9.37685
9.5961
9.80771
10.0119
10.2089
10.399
10.5823
10.7591
10.9296
11.0941
11.2527
11.4057
11.5532
11.6956
11.8329
11.9654
12.0932
12.2166
12.3357
12.4507
12.5617
12.669
12.7727
12.8729
12.9697
13.0633
13.1539
13.2415
13.3262
13.4082
13.4875
13.5644
13.6388
13.7109
13.7807
13.8484
13.914
13.9776
14.0392
14.099
14.1569
14.2131
14.2676
14.3203
14.3714
14.4209
14.4689
14.5152
14.56
14.6033
14.6451
14.6853
14.7241
14.7612
14.7969
14.8309
14.8634
14.8942
14.9234
14.9509
14.9765
15.0003
15.0219
15.041
15.057
15.0691
15.0737
15.075
15.0398
-7.17576
-7.25414
-7.38509
-7.54108
-7.71992
-7.92127
-8.14242
-8.38078
-8.63471
-8.90282
-9.18341
-9.47536
-9.77771
-10.0885
-10.4052
-10.7253
-11.0462
-11.3657
-11.6817
-11.9923
-12.2961
-12.5918
-12.8783
-13.1549
-13.4209
-13.6757
-13.9189
-14.1499
-14.3684
-14.5738
-14.7656
-14.9433
-15.1064
-15.2541
-15.386
-15.5012
-15.5992
-15.6792
-15.7405
-15.7826
-15.8047
-15.8063
-15.7868
-15.7458
-15.6829
-15.5977
-15.49
-15.3596
-15.2066
-15.0308
-14.8326
-14.6119
-14.3693
-14.1051
-13.8199
-13.5141
-13.1886
-12.8439
-12.4811
-12.101
-11.7044
-11.2925
-10.8662
-10.4267
-9.97503
-9.51235
-9.03979
-8.55851
-8.06965
-7.57436
-7.07376
-6.56897
-6.06108
-5.55114
-5.04018
-4.52919
-4.01911
-3.51084
-3.00524
-2.50312
-2.00524
-1.51231
-1.02499
-0.543889
-0.0695629
0.397482
0.856789
1.30795
1.75061
2.18446
2.60921
3.02465
3.43059
3.82688
4.2134
4.59007
4.95684
5.31368
5.66062
5.99767
6.32491
6.64242
6.95029
7.24865
7.53765
7.81744
8.08819
8.35007
8.60329
8.84804
9.08452
9.31296
9.53355
9.74653
9.95212
10.1505
10.342
10.5267
10.705
10.8769
11.0428
11.2028
11.3572
11.5062
11.6499
11.7885
11.9223
12.0515
12.1762
12.2966
12.4128
12.5251
12.6336
12.7384
12.8397
12.9376
13.0323
13.1239
13.2125
13.2982
13.3812
13.4615
13.5393
13.6146
13.6875
13.7582
13.8267
13.8931
13.9574
14.0198
14.0803
14.1389
14.1957
14.2508
14.3042
14.3559
14.406
14.4545
14.5014
14.5467
14.5905
14.6327
14.6734
14.7125
14.75
14.7858
14.8201
14.8527
14.8835
14.9126
14.9397
14.9648
14.9877
15.008
15.0254
15.0389
15.048
15.0486
15.0453
15.005
-7.35379
-7.41833
-7.52923
-7.66773
-7.83169
-8.02061
-8.23214
-8.46359
-8.71249
-8.97647
-9.25332
-9.54183
-9.84076
-10.1479
-10.4608
-10.7771
-11.0945
-11.4108
-11.724
-12.0325
-12.3346
-12.6293
-12.9153
-13.1917
-13.4579
-13.7131
-13.9568
-14.1885
-14.4075
-14.6134
-14.8056
-14.9835
-15.1466
-15.2942
-15.4257
-15.5404
-15.6376
-15.7167
-15.777
-15.8178
-15.8386
-15.8388
-15.8179
-15.7754
-15.7109
-15.6242
-15.5151
-15.3833
-15.2289
-15.052
-14.8526
-14.6309
-14.3875
-14.1226
-13.8368
-13.5307
-13.205
-12.8604
-12.4978
-12.118
-11.7221
-11.3109
-10.8856
-10.4473
-9.99689
-9.53566
-9.06469
-8.58512
-8.09808
-7.6047
-7.10609
-6.60335
-6.09755
-5.58972
-5.08089
-4.57203
-4.06407
-3.55789
-3.05433
-2.5542
-2.05825
-1.56717
-1.08161
-0.602181
-0.129422
0.336163
0.794125
1.24406
1.68561
2.11847
2.54237
2.95707
3.3624
3.75819
4.14433
4.52075
4.88738
5.2442
5.59122
5.92847
6.256
6.5739
6.88226
7.1812
7.47086
7.75139
8.02295
8.28572
8.53987
8.78561
9.02314
9.25266
9.47439
9.68853
9.89531
10.0949
10.2876
10.4736
10.6531
10.8264
10.9935
11.1548
11.3105
11.4607
11.6057
11.7456
11.8807
12.011
12.1369
12.2585
12.3759
12.4893
12.599
12.7049
12.8073
12.9063
13.002
13.0946
13.1842
13.2709
13.3548
13.436
13.5147
13.5908
13.6646
13.7361
13.8054
13.8726
13.9377
14.0008
14.0619
14.1213
14.1788
14.2345
14.2885
14.3408
14.3915
14.4405
14.488
14.5338
14.5781
14.6208
14.6618
14.7013
14.7391
14.7753
14.8097
14.8424
14.8733
14.9021
14.9289
14.9534
14.9754
14.9945
15.0102
15.0214
15.0274
15.0244
15.0171
14.9723
-7.52837
-7.57984
-7.67241
-7.79305
-7.93979
-8.11207
-8.30781
-8.52464
-8.76006
-9.01153
-9.27701
-9.55538
-9.84523
-10.1443
-10.4502
-10.7605
-11.073
-11.3856
-11.6962
-12.003
-12.3047
-12.5996
-12.8866
-13.1648
-13.4331
-13.6907
-13.937
-14.1712
-14.3927
-14.601
-14.7954
-14.9752
-15.1399
-15.2888
-15.4212
-15.5365
-15.634
-15.713
-15.773
-15.8133
-15.8334
-15.8327
-15.8107
-15.7671
-15.7015
-15.6136
-15.5032
-15.3703
-15.2149
-15.037
-14.8367
-14.6144
-14.3705
-14.1053
-13.8194
-13.5134
-13.188
-12.844
-12.4821
-12.1034
-11.7086
-11.2989
-10.8753
-10.4387
-9.99035
-9.53129
-9.06265
-8.58554
-8.10108
-7.61038
-7.11454
-6.61462
-6.1117
-5.60678
-5.10086
-4.59489
-4.0898
-3.58647
-3.0857
-2.58829
-2.09496
-1.60642
-1.1233
-0.646186
-0.175628
0.287883
0.743905
1.19204
1.63192
2.06326
2.48578
2.89924
3.30347
3.69831
4.08364
4.45937
4.82545
5.18185
5.52858
5.86566
6.19315
6.51112
6.81965
7.11887
7.40891
7.68991
7.96202
8.22541
8.48028
8.72679
8.96515
9.19556
9.41823
9.63335
9.84115
10.0418
10.2356
10.4227
10.6034
10.7777
10.9461
11.1085
11.2654
11.4168
11.5629
11.704
11.8402
11.9718
12.0988
12.2215
12.34
12.4546
12.5652
12.6722
12.7757
12.8757
12.9724
13.066
13.1565
13.2442
13.329
13.4111
13.4906
13.5676
13.6423
13.7145
13.7846
13.8525
13.9184
13.9822
14.0441
14.1041
14.1622
14.2186
14.2732
14.3262
14.3774
14.427
14.475
14.5214
14.5662
14.6093
14.6508
14.6906
14.7288
14.7653
14.7999
14.8327
14.8635
14.8922
14.9187
14.9426
14.9638
14.9816
14.9955
15.0045
15.0078
15.0015
14.9905
14.9419
-7.65524
-7.69744
-7.77463
-7.87862
-8.00793
-8.1621
-8.33937
-8.53777
-8.75527
-8.98968
-9.23961
-9.50433
-9.7824
-10.0715
-10.3692
-10.673
-10.9807
-11.29
-11.5989
-11.9053
-12.2077
-12.5045
-12.7942
-13.0757
-13.3478
-13.6096
-13.86
-14.0984
-14.324
-14.536
-14.7338
-14.9166
-15.0839
-15.235
-15.3691
-15.4857
-15.584
-15.6636
-15.7238
-15.764
-15.7837
-15.7824
-15.7597
-15.7152
-15.6487
-15.5599
-15.4487
-15.3151
-15.159
-14.9805
-14.7799
-14.5575
-14.3136
-14.0487
-13.7634
-13.4582
-13.1338
-12.7911
-12.4309
-12.054
-11.6614
-11.254
-10.8329
-10.3991
-9.95374
-9.49783
-9.0325
-8.55883
-8.07793
-7.59088
-7.09877
-6.60264
-6.10353
-5.60243
-5.10033
-4.59815
-4.09679
-3.59712
-3.09996
-2.60606
-2.11614
-1.63087
-1.1509
-0.676804
-0.209114
0.251683
0.705148
1.15088
1.58854
2.01781
2.43843
2.85016
3.25282
3.64624
4.03032
4.40497
4.77011
5.12573
5.47181
5.80839
6.13552
6.45325
6.76167
7.06091
7.35106
7.63228
7.90472
8.16853
8.42389
8.67098
8.91
9.14112
9.36457
9.58052
9.78921
9.99082
10.1856
10.3737
10.5553
10.7307
10.9001
11.0637
11.2216
11.3741
11.5213
11.6635
11.8009
11.9335
12.0616
12.1854
12.305
12.4206
12.5323
12.6403
12.7448
12.8458
12.9435
13.038
13.1295
13.218
13.3037
13.3867
13.4671
13.5449
13.6204
13.6935
13.7643
13.833
13.8995
13.9641
14.0267
14.0873
14.1462
14.2032
14.2585
14.312
14.3638
14.414
14.4626
14.5095
14.5547
14.5983
14.6403
14.6805
14.7191
14.7558
14.7907
14.8236
14.8544
14.883
14.9091
14.9325
14.9528
14.9694
14.9817
14.9887
14.9894
14.98
14.9657
14.9139
-7.71045
-7.74862
-7.81417
-7.90318
-8.01546
-8.15095
-8.3086
-8.48705
-8.68476
-8.90018
-9.13282
-9.38256
-9.64804
-9.92687
-10.2165
-10.5143
-10.818
-11.1251
-11.4334
-11.7409
-12.0455
-12.3456
-12.6394
-12.9256
-13.2028
-13.4698
-13.7256
-13.9692
-14.1997
-14.4163
-14.6182
-14.8047
-14.9751
-15.1287
-15.265
-15.3831
-15.4827
-15.563
-15.6236
-15.6639
-15.6835
-15.6819
-15.6588
-15.6138
-15.5468
-15.4576
-15.3461
-15.2122
-15.056
-14.8777
-14.6775
-14.4557
-14.2127
-13.949
-13.6651
-13.3617
-13.0395
-12.6992
-12.3416
-11.9677
-11.5783
-11.1744
-10.7571
-10.3273
-9.88603
-9.43444
-8.97357
-8.5045
-8.0283
-7.54604
-7.05875
-6.56749
-6.07324
-5.57701
-5.07972
-4.5823
-4.08563
-3.59054
-3.09784
-2.6083
-2.1226
-1.6414
-1.16533
-0.694968
-0.230832
0.226594
0.676876
1.11962
1.55448
1.98114
2.39934
2.80884
3.20947
3.60105
3.98347
4.35662
4.72046
5.07494
5.42005
5.75583
6.08229
6.39951
6.70757
7.00656
7.29661
7.57784
7.8504
8.11443
8.37012
8.61762
8.85713
9.08883
9.31291
9.52958
9.73902
9.94144
10.1371
10.326
10.5086
10.685
10.8554
11.02
11.1789
11.3324
11.4807
11.624
11.7623
11.896
12.0252
12.15
12.2706
12.3873
12.5
12.609
12.7144
12.8164
12.9151
13.0105
13.1029
13.1924
13.279
13.3628
13.444
13.5227
13.5989
13.6728
13.7444
13.8138
13.8811
13.9464
14.0097
14.071
14.1305
14.1882
14.2441
14.2982
14.3507
14.4015
14.4506
14.498
14.5438
14.5879
14.6303
14.671
14.7099
14.7469
14.782
14.8151
14.8459
14.8744
14.9002
14.9231
14.9426
14.9581
14.9689
14.9739
14.9723
14.9602
14.9429
14.8885
-7.69585
-7.72993
-7.7866
-7.86181
-7.9569
-8.07269
-8.20919
-8.36603
-8.54243
-8.7377
-8.95229
-9.18667
-9.43962
-9.70864
-9.99103
-10.2841
-10.5852
-10.8917
-11.2012
-11.5113
-11.8197
-12.1245
-12.4237
-12.7157
-12.9989
-13.272
-13.5337
-13.783
-14.0187
-14.2401
-14.4462
-14.6364
-14.8099
-14.9661
-15.1044
-15.2241
-15.3248
-15.406
-15.467
-15.5076
-15.5273
-15.5257
-15.5025
-15.4576
-15.3906
-15.3016
-15.1904
-15.057
-14.9016
-14.7244
-14.5255
-14.3054
-14.0644
-13.8031
-13.5219
-13.2215
-12.9027
-12.5661
-12.2126
-11.843
-11.4582
-11.0592
-10.647
-10.2225
-9.78677
-9.34084
-8.88577
-8.42259
-7.95237
-7.47613
-6.99489
-6.50967
-6.02144
-5.53117
-5.03977
-4.54815
-4.05715
-3.56761
-3.0803
-2.59598
-2.11534
-1.63903
-1.16764
-0.701735
-0.241841
0.211561
0.658037
1.0972
1.52869
1.95221
2.3675
2.77431
3.17245
3.56177
3.94213
4.31343
4.67561
5.02863
5.37247
5.70715
6.03269
6.34915
6.65661
6.95515
7.24488
7.52593
7.79843
8.06253
8.31838
8.56616
8.80603
9.03818
9.26279
9.48005
9.69016
9.8933
10.0897
10.2795
10.463
10.6402
10.8115
10.977
11.137
11.2915
11.4408
11.585
11.7244
11.8591
11.9893
12.1151
12.2368
12.3544
12.4681
12.5781
12.6845
12.7874
12.887
12.9834
13.0767
13.1671
13.2545
13.3393
13.4213
13.5008
13.5778
13.6525
13.7249
13.795
13.8631
13.929
13.993
14.0551
14.1152
14.1736
14.2301
14.2849
14.338
14.3893
14.439
14.487
14.5333
14.578
14.6208
14.662
14.7012
14.7386
14.774
14.8072
14.8382
14.8665
14.8921
14.9145
14.9333
14.9478
14.9572
14.9605
14.9567
14.9422
14.9222
14.8657
-7.63128
-7.65638
-7.70248
-7.76108
-7.83582
-7.92873
-8.04103
-8.1736
-8.32666
-8.50049
-8.69649
-8.91568
-9.15682
-9.41723
-9.6939
-9.98387
-10.2841
-10.5918
-10.9041
-11.2182
-11.5317
-11.8421
-12.1475
-12.4459
-12.7354