/*--------------------------------*- C++ -*----------------------------------*\
  =========                 |
  \\      /  F ield         | OpenFOAM: The Open Source CFD Toolbox
   \\    /   O peration     | Website:  https://openfoam.org
    \\  /    A nd           | Version:  8
     \\/     M anipulation  |
\*---------------------------------------------------------------------------*/
FoamFile
{
    version     2.0;
    format      ascii;
    class       surfaceScalarField;
    location    "1900";
    object      phi;
}
// * * * * * * * * * * * * * * * * * * * * * * * * * * * * * * * * * * * * * //

dimensions      [0 3 -1 0 0 0 0];

internalField   nonuniform List<scalar> 
24170
(
3.92539e-06
-7.91498e-07
3.76465e-06
1.6075e-07
3.63345e-06
1.31209e-07
3.43331e-06
2.00144e-07
3.28028e-06
1.53027e-07
3.18901e-06
9.11906e-08
3.13091e-06
5.81104e-08
3.08609e-06
4.58912e-08
3.04612e-06
4.23232e-08
3.01059e-06
3.81624e-08
2.97876e-06
3.38021e-08
2.94904e-06
3.07701e-08
2.92187e-06
2.73779e-08
2.89642e-06
2.52002e-08
2.87227e-06
2.36056e-08
2.85193e-06
1.94843e-08
2.84097e-06
9.85739e-09
-6.37552e-09
2.84668e-06
3.58445e-06
-9.19499e-07
3.80424e-06
-5.90413e-08
3.74282e-06
1.92629e-07
3.6906e-06
2.52375e-07
3.63729e-06
2.06333e-07
3.59023e-06
1.3828e-07
3.55289e-06
9.55997e-08
3.52309e-06
7.56598e-08
3.49853e-06
6.65696e-08
3.47732e-06
5.92151e-08
3.45871e-06
5.25292e-08
3.44252e-06
4.72647e-08
3.42795e-06
4.23381e-08
3.41466e-06
3.87868e-08
3.40269e-06
3.57309e-08
3.39122e-06
3.10531e-08
3.38036e-06
2.08429e-08
4.78244e-09
3.36944e-06
3.68518e-06
-7.92482e-07
3.83639e-06
-2.10251e-07
3.91494e-06
1.14082e-07
3.94502e-06
2.22293e-07
3.94408e-06
2.07264e-07
3.92749e-06
1.54897e-07
3.90755e-06
1.15615e-07
3.88932e-06
9.36446e-08
3.874e-06
8.11967e-08
3.86056e-06
7.1916e-08
3.84834e-06
6.42562e-08
3.83728e-06
5.81356e-08
3.82691e-06
5.27796e-08
3.8174e-06
4.84758e-08
3.80891e-06
4.44346e-08
3.80097e-06
3.92548e-08
3.79195e-06
3.02089e-08
1.77992e-08
3.77944e-06
4.05359e-06
-6.4151e-07
4.1146e-06
-2.71259e-07
4.20799e-06
2.06917e-08
4.26635e-06
1.63932e-07
4.29069e-06
1.82926e-07
4.29287e-06
1.52749e-07
4.28571e-06
1.22819e-07
4.27631e-06
1.02844e-07
4.26727e-06
8.96865e-08
4.25873e-06
7.98179e-08
4.25056e-06
7.19501e-08
4.24283e-06
6.56353e-08
4.23534e-06
6.02471e-08
4.22824e-06
5.56941e-08
4.22149e-06
5.13537e-08
4.21464e-06
4.6347e-08
4.20599e-06
3.91858e-08
3.06619e-08
4.19351e-06
4.50491e-06
-5.09114e-07
4.51536e-06
-2.81708e-07
4.58529e-06
-4.92341e-08
4.64665e-06
1.02566e-07
4.68258e-06
1.46992e-07
4.69688e-06
1.38473e-07
4.69946e-06
1.20237e-07
4.69723e-06
1.04926e-07
4.69331e-06
9.32555e-08
4.68868e-06
8.40579e-08
4.68366e-06
7.66426e-08
4.67851e-06
7.06089e-08
4.67321e-06
6.54955e-08
4.66783e-06
6.1107e-08
4.66227e-06
5.70065e-08
4.65606e-06
5.27051e-08
4.64786e-06
4.75931e-08
4.26076e-08
4.63612e-06
5.00014e-06
-3.94663e-07
4.98614e-06
-2.67704e-07
5.03069e-06
-9.37789e-08
5.08506e-06
4.8198e-08
5.12454e-06
1.07517e-07
5.14608e-06
1.16941e-07
5.15584e-06
1.10489e-07
5.1594e-06
1.01286e-07
5.15985e-06
9.26084e-08
5.15859e-06
8.50844e-08
5.15629e-06
7.87438e-08
5.15333e-06
7.34437e-08
5.14984e-06
6.89349e-08
5.14589e-06
6.50651e-08
5.14136e-06
6.15884e-08
5.13584e-06
5.83115e-08
5.12839e-06
5.51508e-08
5.30539e-08
5.11808e-06
5.54382e-06
-2.97475e-07
5.51664e-06
-2.40529e-07
5.54055e-06
-1.17686e-07
5.58388e-06
4.87043e-09
5.62166e-06
6.97345e-08
5.64656e-06
9.20464e-08
5.66107e-06
9.59687e-08
5.66906e-06
9.32476e-08
5.67315e-06
8.8425e-08
5.67481e-06
8.33019e-08
5.6749e-06
7.85528e-08
5.6739e-06
7.43767e-08
5.67204e-06
7.0767e-08
5.6694e-06
6.76974e-08
5.66591e-06
6.51015e-08
5.66127e-06
6.29902e-08
5.65494e-06
6.15495e-08
6.15348e-08
5.6465e-06
4.34788e-06
-2.39242e-07
4.32251e-06
-2.15162e-07
4.33078e-06
-1.25951e-07
4.35419e-06
-1.85362e-08
4.3784e-06
4.55261e-08
4.39646e-06
7.39851e-08
4.40841e-06
8.40231e-08
4.41597e-06
8.56742e-08
4.42059e-06
8.37684e-08
4.42325e-06
8.05985e-08
4.42456e-06
7.71975e-08
4.4249e-06
7.40039e-08
4.42446e-06
7.11814e-08
4.42334e-06
6.88118e-08
4.42151e-06
6.69386e-08
4.41884e-06
6.5673e-08
4.41514e-06
6.52711e-08
6.63514e-08
4.41035e-06
5.08621e-06
-1.85599e-07
5.05777e-06
-1.86718e-07
5.0584e-06
-1.26578e-07
5.07686e-06
-3.70022e-08
5.09918e-06
2.32142e-08
5.11773e-06
5.54365e-08
5.13124e-06
7.05074e-08
5.14059e-06
7.63172e-08
5.14686e-06
7.74762e-08
5.15094e-06
7.64979e-08
5.15344e-06
7.46772e-08
5.15477e-06
7.26674e-08
5.15514e-06
7.07981e-08
5.15468e-06
6.92656e-08
5.15341e-06
6.82117e-08
5.15128e-06
6.78152e-08
5.14821e-06
6.83526e-08
7.02744e-08
5.14429e-06
5.94839e-06
-1.38193e-07
5.91832e-06
-1.56649e-07
5.91161e-06
-1.19866e-07
5.924e-06
-4.93966e-08
5.94286e-06
4.35887e-09
5.96058e-06
3.77171e-08
5.97479e-06
5.62916e-08
5.98546e-06
6.5647e-08
5.9932e-06
6.97364e-08
5.99867e-06
7.1018e-08
6.00242e-06
7.09163e-08
6.00484e-06
7.02407e-08
6.00618e-06
6.94591e-08
6.00657e-06
6.88685e-08
6.0061e-06
6.86892e-08
6.00478e-06
6.91371e-08
6.00267e-06
7.04633e-08
7.29773e-08
5.99997e-06
6.95439e-06
-9.83129e-08
6.92401e-06
-1.26278e-07
6.91113e-06
-1.06984e-07
6.9168e-06
-5.50655e-08
6.93087e-06
-9.71018e-09
6.94635e-06
2.22398e-08
6.96015e-06
4.24933e-08
6.9714e-06
5.43968e-08
6.98017e-06
6.09621e-08
6.98684e-06
6.43484e-08
6.9918e-06
6.5956e-08
6.99537e-06
6.66655e-08
6.9978e-06
6.70315e-08
6.99924e-06
6.74251e-08
6.99982e-06
6.81144e-08
6.99963e-06
6.93256e-08
6.99883e-06
7.12687e-08
7.41305e-08
6.99768e-06
8.12719e-06
-6.64877e-08
8.09793e-06
-9.7021e-08
8.08056e-06
-8.96088e-08
8.07955e-06
-5.40585e-08
8.08793e-06
-1.8089e-08
8.09985e-06
1.03232e-08
8.11198e-06
3.03594e-08
8.12286e-06
4.35227e-08
8.13202e-06
5.17961e-08
8.1395e-06
5.68685e-08
8.14548e-06
5.99763e-08
8.15018e-06
6.19709e-08
8.15378e-06
6.34322e-08
8.15644e-06
6.4758e-08
8.15832e-06
6.62344e-08
8.15958e-06
6.80752e-08
8.1604e-06
7.0442e-08
7.344e-08
8.16109e-06
9.49368e-06
-4.24386e-08
9.4668e-06
-7.01427e-08
9.44683e-06
-6.96401e-08
9.43991e-06
-4.71316e-08
9.44229e-06
-2.04676e-08
9.44965e-06
2.95587e-09
9.45895e-06
2.1065e-08
9.4684e-06
3.40711e-08
9.47716e-06
4.3037e-08
9.48491e-06
4.91214e-08
9.49159e-06
5.32944e-08
9.49727e-06
5.62924e-08
9.50205e-06
5.86472e-08
9.50607e-06
6.07391e-08
9.50947e-06
6.28351e-08
9.51243e-06
6.51211e-08
9.51515e-06
6.77154e-08
7.06715e-08
9.51792e-06
1.10854e-05
-2.5159e-08
1.10618e-05
-4.65025e-08
1.1041e-05
-4.88065e-08
1.10294e-05
-3.55514e-08
1.10261e-05
-1.71694e-08
1.10284e-05
6.05352e-10
1.1034e-05
1.54752e-08
1.10411e-05
2.69714e-08
1.10487e-05
3.54924e-08
1.10561e-05
4.17165e-08
1.1063e-05
4.6314e-08
1.10695e-05
4.98437e-08
1.10754e-05
5.27355e-08
1.10808e-05
5.53037e-08
1.10859e-05
5.77684e-08
1.10908e-05
6.02736e-08
1.10956e-05
6.28996e-08
6.56696e-08
1.11006e-05
1.29396e-05
-1.31186e-08
1.29194e-05
-2.62786e-08
1.28988e-05
-2.82518e-08
1.28839e-05
-2.06874e-08
1.28758e-05
-8.99548e-09
1.28732e-05
3.14525e-09
1.28748e-05
1.39405e-08
1.28789e-05
2.2789e-08
1.28847e-05
2.97451e-08
1.28913e-05
3.51439e-08
1.28982e-05
3.93842e-08
1.29052e-05
4.2829e-08
1.29122e-05
4.57706e-08
1.29191e-05
4.84258e-08
1.29259e-05
5.09438e-08
1.29327e-05
5.34162e-08
1.29398e-05
5.58861e-08
5.83564e-08
1.29471e-05
1.50998e-05
-4.48303e-09
1.50822e-05
-8.67604e-09
1.50621e-05
-8.1135e-09
1.50448e-05
-3.45811e-09
1.50327e-05
3.10979e-09
1.50259e-05
9.93884e-09
1.50237e-05
1.6162e-08
1.5025e-05
2.14646e-08
1.50289e-05
2.58537e-08
1.50346e-05
2.94852e-08
1.50414e-05
3.25551e-08
1.5049e-05
3.52437e-08
1.50571e-05
3.76945e-08
1.50655e-05
4.00086e-08
1.50742e-05
4.22485e-08
1.50832e-05
4.44437e-08
1.50925e-05
4.65967e-08
4.86892e-08
1.51021e-05
1.76171e-05
2.89317e-09
1.75999e-05
8.52297e-09
1.75787e-05
1.30295e-08
1.7559e-05
1.62777e-08
1.75436e-05
1.84722e-08
1.75336e-05
1.99574e-08
1.75287e-05
2.10518e-08
1.75282e-05
2.19932e-08
1.75311e-05
2.29393e-08
1.75366e-05
2.39853e-08
1.7544e-05
2.51773e-08
1.75527e-05
2.65283e-08
1.75624e-05
2.80267e-08
1.75727e-05
2.96475e-08
1.75836e-05
3.13535e-08
1.7595e-05
3.31042e-08
1.76067e-05
3.48532e-08
3.65561e-08
1.76188e-05
1.78181e-05
1.10003e-08
1.77994e-05
2.72123e-08
1.77768e-05
3.56238e-08
1.7756e-05
3.7058e-08
1.77402e-05
3.43254e-08
1.77302e-05
2.99454e-08
1.77257e-05
2.54988e-08
1.7726e-05
2.17765e-08
1.77298e-05
1.90736e-08
1.77364e-05
1.73987e-08
1.7745e-05
1.66318e-08
1.77549e-05
1.66032e-08
1.77658e-05
1.71423e-08
1.77773e-05
1.80909e-08
1.77894e-05
1.93172e-08
1.78018e-05
2.0707e-08
1.78144e-05
2.2171e-08
2.36333e-08
1.78274e-05
1.58702e-05
2.21334e-08
1.58478e-05
4.95811e-08
1.58233e-05
6.01318e-08
1.58032e-05
5.72338e-08
1.57899e-05
4.76094e-08
1.57834e-05
3.637e-08
1.57827e-05
2.61955e-08
1.57864e-05
1.81442e-08
1.57931e-05
1.23627e-08
1.58019e-05
8.61019e-09
1.5812e-05
6.4954e-09
1.5823e-05
5.62884e-09
1.58345e-05
5.66654e-09
1.58462e-05
6.33271e-09
1.58581e-05
7.40592e-09
1.58701e-05
8.72247e-09
1.58821e-05
1.01536e-08
1.16102e-08
1.58942e-05
1.41313e-05
3.95386e-08
1.41021e-05
7.87067e-08
1.40745e-05
8.77874e-08
1.40557e-05
7.60377e-08
1.40469e-05
5.64122e-08
1.40462e-05
3.7038e-08
1.40512e-05
2.12081e-08
1.40597e-05
9.57963e-09
1.40704e-05
1.7598e-09
1.4082e-05
-3.05125e-09
1.40941e-05
-5.6056e-09
1.41063e-05
-6.56004e-09
1.41184e-05
-6.41146e-09
1.41303e-05
-5.55144e-09
1.41419e-05
-4.25009e-09
1.41534e-05
-2.70885e-09
1.41646e-05
-1.06516e-09
5.83778e-10
1.41756e-05
1.25772e-05
6.73555e-08
1.25392e-05
1.16739e-07
1.25091e-05
1.17888e-07
1.24942e-05
9.08903e-08
1.24928e-05
5.78127e-08
1.25002e-05
2.96814e-08
1.25122e-05
9.1288e-09
1.25264e-05
-4.49918e-09
1.25409e-05
-1.28384e-08
1.25552e-05
-1.73501e-08
1.25689e-05
-1.92844e-08
1.25819e-05
-1.94972e-08
1.25941e-05
-1.8648e-08
1.26057e-05
-1.71432e-08
1.26167e-05
-1.52899e-08
1.26273e-05
-1.32824e-08
1.26375e-05
-1.12492e-08
-9.27364e-09
1.26473e-05
1.11862e-05
1.10916e-07
1.11384e-05
1.6457e-07
1.11088e-05
1.4752e-07
1.11022e-05
9.74841e-08
1.11117e-05
4.8312e-08
1.11289e-05
1.24002e-08
1.11486e-05
-1.04632e-08
1.11678e-05
-2.373e-08
1.11855e-05
-3.05108e-08
1.12014e-05
-3.32931e-08
1.12157e-05
-3.35551e-08
1.12285e-05
-3.23564e-08
1.12402e-05
-3.02949e-08
1.12509e-05
-2.78383e-08
1.12608e-05
-2.52235e-08
1.12701e-05
-2.2614e-08
1.1279e-05
-2.01125e-08
-1.77508e-08
1.12875e-05
9.93908e-06
1.76452e-07
9.88248e-06
2.21163e-07
9.85873e-06
1.71262e-07
9.86593e-06
9.02752e-08
9.8896e-06
2.46382e-08
9.9176e-06
-1.55566e-08
9.94391e-06
-3.67966e-08
9.96668e-06
-4.64122e-08
9.98571e-06
-4.96144e-08
1.00017e-05
-4.92913e-08
1.00153e-05
-4.71293e-08
1.00269e-05
-4.39973e-08
1.00371e-05
-4.05281e-08
1.00463e-05
-3.6983e-08
1.00546e-05
-3.354e-08
1.00623e-05
-3.03179e-08
1.00696e-05
-2.73583e-08
-2.46623e-08
1.00764e-05
8.81963e-06
2.69916e-07
8.75785e-06
2.82944e-07
8.74788e-06
1.81226e-07
8.77481e-06
6.33228e-08
8.81458e-06
-1.51293e-08
8.85212e-06
-5.30924e-08
8.88268e-06
-6.72307e-08
8.90623e-06
-7.0029e-08
8.92427e-06
-6.76222e-08
8.93843e-06
-6.33783e-08
8.94985e-06
-5.84096e-08
8.95927e-06
-5.3344e-08
8.96728e-06
-4.84774e-08
8.97429e-06
-4.39768e-08
8.98055e-06
-3.98162e-08
8.98629e-06
-3.60591e-08
8.99168e-06
-3.27846e-08
-2.98468e-08
8.99686e-06
7.81391e-06
3.96675e-07
7.75391e-06
3.42943e-07
7.76868e-06
1.6644e-07
7.82053e-06
1.14612e-08
7.87567e-06
-7.02741e-08
7.91912e-06
-9.64914e-08
7.94967e-06
-9.78367e-08
7.97057e-06
-9.06529e-08
7.98484e-06
-8.15953e-08
7.99525e-06
-7.35625e-08
8.00317e-06
-6.61258e-08
8.0094e-06
-5.9429e-08
8.0145e-06
-5.33381e-08
8.01892e-06
-4.82119e-08
8.02279e-06
-4.36673e-08
8.02626e-06
-3.96045e-08
8.02961e-06
-3.62067e-08
-3.32007e-08
8.0329e-06
6.90424e-06
5.66768e-07
6.86137e-06
3.85804e-07
6.91716e-06
1.10634e-07
6.99674e-06
-6.81328e-08
7.06253e-06
-1.36071e-07
7.10529e-06
-1.39268e-07
7.13032e-06
-1.2255e-07
7.14447e-06
-1.04621e-07
7.15207e-06
-8.89993e-08
7.15709e-06
-7.5819e-08
7.16038e-06
-6.66921e-08
7.16271e-06
-5.95592e-08
7.16421e-06
-5.41522e-08
7.16558e-06
-4.94556e-08
7.16675e-06
-4.49736e-08
7.16771e-06
-4.08464e-08
7.1688e-06
-3.76388e-08
-3.51283e-08
7.17004e-06
6.07162e-06
7.97662e-07
6.08526e-06
3.72164e-07
6.19865e-06
-2.77324e-09
6.29989e-06
-1.69397e-07
6.36526e-06
-2.01462e-07
6.39754e-06
-1.71503e-07
6.41011e-06
-1.35218e-07
6.41342e-06
-1.06951e-07
6.41239e-06
-8.58108e-08
6.40989e-06
-7.40391e-08
6.40749e-06
-6.45263e-08
6.40488e-06
-5.76e-08
6.40237e-06
-5.13289e-08
6.40035e-06
-4.70122e-08
6.3984e-06
-4.30815e-08
6.39641e-06
-3.91722e-08
6.39475e-06
-3.69207e-08
-3.47317e-08
6.39408e-06
5.35805e-06
1.05451e-06
5.50649e-06
2.23716e-07
5.64777e-06
-1.44085e-07
5.73564e-06
-2.57314e-07
5.77646e-06
-2.42346e-07
5.78324e-06
-1.78423e-07
5.77527e-06
-1.26643e-07
5.76327e-06
-9.40069e-08
5.74975e-06
-7.5668e-08
5.73931e-06
-6.3992e-08
5.73029e-06
-5.65627e-08
5.72235e-06
-4.998e-08
5.71442e-06
-4.46744e-08
5.70782e-06
-4.05658e-08
5.70185e-06
-3.69857e-08
5.69607e-06
-3.35171e-08
5.69145e-06
-3.16794e-08
-3.13864e-08
5.68767e-06
5.04576e-06
1.01105e-06
5.36491e-06
-9.545e-08
5.35251e-06
-1.31767e-07
5.33285e-06
-2.37745e-07
5.296e-06
-2.05651e-07
5.25016e-06
-1.32588e-07
5.20891e-06
-8.47341e-08
5.17485e-06
-6.08243e-08
5.14636e-06
-4.9827e-08
5.12485e-06
-4.29233e-08
5.10673e-06
-3.93773e-08
5.09051e-06
-3.57033e-08
5.07531e-06
-3.14405e-08
5.06199e-06
-2.76023e-08
5.04966e-06
-2.44276e-08
5.0389e-06
-2.20365e-08
5.02966e-06
-2.20882e-08
-2.33819e-08
5.02214e-06
5.4676e-06
5.37215e-06
5.24037e-06
5.0026e-06
4.79694e-06
4.66444e-06
4.57967e-06
4.51835e-06
4.46848e-06
4.42538e-06
4.38566e-06
4.34948e-06
4.31793e-06
4.29038e-06
4.2661e-06
4.2442e-06
4.2223e-06
4.19948e-06
2.3129e-08
-2.31285e-08
2.37207e-07
-2.14081e-07
4.89333e-07
-2.52095e-07
7.09599e-07
-2.20245e-07
8.77314e-07
-1.67695e-07
9.88443e-07
-1.11118e-07
1.0441e-06
-5.56504e-08
1.04652e-06
-2.42e-09
1.00102e-06
4.55145e-08
9.17743e-07
8.3269e-08
8.11942e-07
1.05811e-07
7.02753e-07
1.09176e-07
6.0997e-07
9.27798e-08
5.43683e-07
6.62975e-08
4.9254e-07
5.11622e-08
4.33359e-07
5.98827e-08
3.47049e-07
8.61705e-08
2.21945e-07
1.25876e-07
4.36341e-08
1.77893e-07
-2.01836e-07
2.4484e-07
-5.04377e-07
3.02284e-07
-8.4537e-07
3.40741e-07
-1.20971e-06
3.64348e-07
-1.58711e-06
3.77407e-07
-1.96871e-06
3.8164e-07
-2.34454e-06
3.7585e-07
-2.70657e-06
3.62056e-07
-3.04965e-06
3.43086e-07
-3.36994e-06
3.20303e-07
-3.66511e-06
2.95175e-07
-3.93429e-06
2.69191e-07
-4.17781e-06
2.43525e-07
-4.39669e-06
2.18883e-07
-4.59241e-06
1.95722e-07
-4.76668e-06
1.74267e-07
-4.92128e-06
1.54601e-07
-5.05796e-06
1.36685e-07
-5.17837e-06
1.204e-07
-5.28395e-06
1.05588e-07
-5.37602e-06
9.20676e-08
-5.45568e-06
7.96563e-08
-5.52386e-06
6.8182e-08
-5.58135e-06
5.74895e-08
-5.6288e-06
4.74446e-08
-5.66673e-06
3.79386e-08
-5.69562e-06
2.8884e-08
-5.71583e-06
2.02095e-08
-5.72771e-06
1.18854e-08
-5.73175e-06
4.03949e-09
-5.72881e-06
-2.94001e-09
-5.71997e-06
-8.83842e-09
-5.70601e-06
-1.3965e-08
-5.68733e-06
-1.86813e-08
-5.66418e-06
-2.31488e-08
-5.63674e-06
-2.74453e-08
-5.60514e-06
-3.1599e-08
-5.56951e-06
-3.56248e-08
-5.52998e-06
-3.95295e-08
-5.48667e-06
-4.3314e-08
-5.43969e-06
-4.69774e-08
-5.38917e-06
-5.0517e-08
-5.33525e-06
-5.39294e-08
-5.27803e-06
-5.72112e-08
-5.21768e-06
-6.03591e-08
-5.1543e-06
-6.33707e-08
-5.08806e-06
-6.62427e-08
-5.01909e-06
-6.89718e-08
-4.94753e-06
-7.15557e-08
-4.87354e-06
-7.39926e-08
-4.79726e-06
-7.62816e-08
-4.71884e-06
-7.84216e-08
-4.63843e-06
-8.04124e-08
-4.55617e-06
-8.22543e-08
-4.47223e-06
-8.3948e-08
-4.38673e-06
-8.54944e-08
-4.29984e-06
-8.68956e-08
-4.21168e-06
-8.81533e-08
-4.12241e-06
-8.92705e-08
-4.03216e-06
-9.02498e-08
-3.94107e-06
-9.1095e-08
-3.84926e-06
-9.18098e-08
-3.75686e-06
-9.23988e-08
-3.66399e-06
-9.28666e-08
-3.57077e-06
-9.32191e-08
-3.47731e-06
-9.34622e-08
-3.38371e-06
-9.36033e-08
-3.29005e-06
-9.3651e-08
-3.19644e-06
-9.36156e-08
-3.10293e-06
-9.351e-08
-3.00958e-06
-9.33497e-08
-2.91642e-06
-9.31555e-08
-2.82347e-06
-9.29529e-08
-2.73071e-06
-9.276e-08
-2.63815e-06
-9.25562e-08
-2.5459e-06
-9.22567e-08
-2.45414e-06
-9.17601e-08
-2.36315e-06
-9.09809e-08
-2.27322e-06
-8.99363e-08
-2.18444e-06
-8.8783e-08
-2.09681e-06
-8.76283e-08
-2.01033e-06
-8.64722e-08
-1.92504e-06
-8.52988e-08
-1.84093e-06
-8.41008e-08
-1.75806e-06
-8.28773e-08
-1.67643e-06
-8.16308e-08
-1.59606e-06
-8.03649e-08
-1.51698e-06
-7.90837e-08
-1.43919e-06
-7.77898e-08
-1.3627e-06
-7.6481e-08
-1.28757e-06
-7.51367e-08
-1.2138e-06
-7.37689e-08
-1.14139e-06
-7.24054e-08
-1.07035e-06
-7.10411e-08
-1.00067e-06
-6.96773e-08
-9.32356e-07
-6.8315e-08
-8.65399e-07
-6.69557e-08
-7.99797e-07
-6.56015e-08
-7.3554e-07
-6.42553e-08
-6.7262e-07
-6.29189e-08
-6.11027e-07
-6.15918e-08
-5.50752e-07
-6.02745e-08
-4.91781e-07
-5.89699e-08
-4.34095e-07
-5.7684e-08
-3.77671e-07
-5.64225e-08
-3.22489e-07
-5.51811e-08
-2.68531e-07
-5.39564e-08
-2.15777e-07
-5.27526e-08
-1.64207e-07
-5.15686e-08
-1.13812e-07
-5.03927e-08
-6.45861e-08
-4.92247e-08
-1.66497e-08
-4.79347e-08
3.01286e-08
-4.67768e-08
7.60562e-08
-4.59261e-08
1.21027e-07
-4.49691e-08
1.64937e-07
-4.39091e-08
2.07784e-07
-4.28453e-08
2.49584e-07
-4.17988e-08
2.90366e-07
-4.0782e-08
3.30164e-07
-3.97971e-08
3.69008e-07
-3.88426e-08
4.06925e-07
-3.79166e-08
4.43944e-07
-3.70177e-08
4.80089e-07
-3.61449e-08
5.15387e-07
-3.52974e-08
5.49862e-07
-3.44747e-08
5.83539e-07
-3.36766e-08
6.16442e-07
-3.29027e-08
6.48596e-07
-3.2153e-08
6.80024e-07
-3.14273e-08
7.1075e-07
-3.07256e-08
7.40798e-07
-3.00478e-08
7.70193e-07
-2.93941e-08
7.98959e-07
-2.87645e-08
8.27119e-07
-2.8159e-08
8.54698e-07
-2.75775e-08
8.8172e-07
-2.70201e-08
9.08209e-07
-2.64867e-08
9.34187e-07
-2.59768e-08
9.5968e-07
-2.54901e-08
9.84707e-07
-2.50256e-08
1.00929e-06
-2.45823e-08
1.03345e-06
-2.4158e-08
1.05721e-06
-2.37502e-08
1.08056e-06
-2.33546e-08
1.10353e-06
-2.29656e-08
1.12611e-06
-2.2575e-08
1.14828e-06
-2.21716e-08
1.17002e-06
-2.17394e-08
1.19128e-06
-2.12564e-08
1.21197e-06
-2.06916e-08
1.23198e-06
-2.00006e-08
1.2511e-06
-1.91198e-08
1.26905e-06
-1.79516e-08
1.2854e-06
-1.63519e-08
1.29945e-06
-1.40454e-08
1.31007e-06
-1.06217e-08
1.31464e-06
-4.55733e-09
1.30779e-06
6.85792e-09
1.27825e-06
2.95384e-08
7.23318e-08
1.20591e-06
2.54188e-07
-2.77337e-07
4.90088e-07
-4.49978e-07
6.39673e-07
-4.01676e-07
7.24305e-07
-3.04875e-07
7.63818e-07
-2.072e-07
7.69764e-07
-1.17068e-07
7.48831e-07
-3.47118e-08
7.06648e-07
3.97554e-08
6.46287e-07
1.05881e-07
5.67659e-07
1.61888e-07
4.70043e-07
2.03433e-07
3.51772e-07
2.27436e-07
2.06808e-07
2.3775e-07
2.36075e-08
2.49514e-07
-2.08614e-07
2.8339e-07
-4.94261e-07
3.45623e-07
-8.32226e-07
4.24225e-07
-1.21209e-06
5.05753e-07
-1.61591e-06
5.8167e-07
-2.01735e-06
6.46226e-07
-2.40737e-06
6.92257e-07
-2.78285e-06
7.16204e-07
-3.13779e-06
7.1929e-07
-3.46521e-06
7.04833e-07
-3.75997e-06
6.76405e-07
-4.02111e-06
6.36997e-07
-4.24905e-06
5.89998e-07
-4.44506e-06
5.39102e-07
-4.61206e-06
4.87299e-07
-4.75354e-06
4.3666e-07
-4.87288e-06
3.88536e-07
-4.97326e-06
3.43901e-07
-5.05754e-06
3.03167e-07
-5.12824e-06
2.66423e-07
-5.18748e-06
2.33505e-07
-5.23699e-06
2.04111e-07
-5.27817e-06
1.77871e-07
-5.31217e-06
1.54394e-07
-5.33988e-06
1.33298e-07
-5.36204e-06
1.1423e-07
-5.37927e-06
9.68817e-08
-5.39207e-06
8.09853e-08
-5.4009e-06
6.63193e-08
-5.40616e-06
5.2702e-08
-5.40821e-06
3.99866e-08
-5.40738e-06
2.80581e-08
-5.40401e-06
1.68389e-08
-5.39842e-06
6.29399e-09
-5.39076e-06
-3.62055e-09
-5.3806e-06
-1.30945e-08
-5.36707e-06
-2.23679e-08
-5.34957e-06
-3.147e-08
-5.32792e-06
-4.03351e-08
-5.30211e-06
-4.89595e-08
-5.2722e-06
-5.73502e-08
-5.23829e-06
-6.55131e-08
-5.20046e-06
-7.34513e-08
-5.15883e-06
-8.11641e-08
-5.11349e-06
-8.86483e-08
-5.06457e-06
-9.58983e-08
-5.01218e-06
-1.02907e-07
-4.95644e-06
-1.09668e-07
-4.89748e-06
-1.16171e-07
-4.83543e-06
-1.22411e-07
-4.77042e-06
-1.28384e-07
-4.70258e-06
-1.34081e-07
-4.63205e-06
-1.39496e-07
-4.55899e-06
-1.44625e-07
-4.48352e-06
-1.49463e-07
-4.40579e-06
-1.54009e-07
-4.32595e-06
-1.58262e-07
-4.24414e-06
-1.62219e-07
-4.16051e-06
-1.65883e-07
-4.07521e-06
-1.69254e-07
-3.98837e-06
-1.72334e-07
-3.90014e-06
-1.75127e-07
-3.81065e-06
-1.77637e-07
-3.72005e-06
-1.79869e-07
-3.62847e-06
-1.81829e-07
-3.53604e-06
-1.83524e-07
-3.44289e-06
-1.84962e-07
-3.34914e-06
-1.86151e-07
-3.25491e-06
-1.87099e-07
-3.16031e-06
-1.87818e-07
-3.06545e-06
-1.88317e-07
-2.97045e-06
-1.88609e-07
-2.87539e-06
-1.88704e-07
-2.78039e-06
-1.88617e-07
-2.68554e-06
-1.88361e-07
-2.59094e-06
-1.87946e-07
-2.49671e-06
-1.87387e-07
-2.40298e-06
-1.86689e-07
-2.30989e-06
-1.85848e-07
-2.21761e-06
-1.84836e-07
-2.12626e-06
-1.83609e-07
-2.03588e-06
-1.82137e-07
-1.94644e-06
-1.80416e-07
-1.85789e-06
-1.78489e-07
-1.77025e-06
-1.76431e-07
-1.68358e-06
-1.74296e-07
-1.59795e-06
-1.72097e-07
-1.51342e-06
-1.69836e-07
-1.43e-06
-1.67514e-07
-1.34774e-06
-1.65136e-07
-1.26667e-06
-1.62705e-07
-1.18681e-06
-1.60228e-07
-1.10818e-06
-1.5771e-07
-1.03081e-06
-1.55155e-07
-9.54729e-07
-1.52565e-07
-8.79926e-07
-1.49939e-07
-8.06403e-07
-1.47292e-07
-7.34172e-07
-1.44635e-07
-6.63239e-07
-1.41974e-07
-5.93604e-07
-1.39312e-07
-5.25267e-07
-1.36651e-07
-4.58226e-07
-1.33996e-07
-3.92478e-07
-1.31349e-07
-3.28018e-07
-1.28715e-07
-2.64835e-07
-1.26101e-07
-2.02919e-07
-1.23507e-07
-1.42261e-07
-1.20932e-07
-8.28494e-08
-1.1838e-07
-2.46781e-08
-1.15854e-07
3.2267e-08
-1.13367e-07
8.80141e-08
-1.10927e-07
1.4258e-07
-1.08522e-07
1.95976e-07
-1.06147e-07
2.48216e-07
-1.03808e-07
2.99329e-07
-1.01504e-07
3.49342e-07
-9.92374e-08
3.98415e-07
-9.70066e-08
4.4652e-07
-9.48818e-08
4.93442e-07
-9.28474e-08
5.39248e-07
-9.07743e-08
5.84016e-07
-8.86761e-08
6.27776e-07
-8.66056e-08
6.7056e-07
-8.45818e-08
7.1239e-07
-8.26117e-08
7.5329e-07
-8.06966e-08
7.93283e-07
-7.88352e-08
8.32393e-07
-7.70259e-08
8.70643e-07
-7.52671e-08
9.08056e-07
-7.35577e-08
9.44656e-07
-7.18966e-08
9.80465e-07
-7.02835e-08
1.01551e-06
-6.87178e-08
1.0498e-06
-6.71992e-08
1.08338e-06
-6.57275e-08
1.11625e-06
-6.43026e-08
1.14845e-06
-6.29245e-08
1.18e-06
-6.15932e-08
1.21091e-06
-6.03087e-08
1.24122e-06
-5.90711e-08
1.27094e-06
-5.78803e-08
1.3001e-06
-5.67363e-08
1.32872e-06
-5.56389e-08
1.35683e-06
-5.45877e-08
1.38443e-06
-5.35818e-08
1.41156e-06
-5.26203e-08
1.43824e-06
-5.17013e-08
1.46448e-06
-5.08222e-08
1.49031e-06
-4.99789e-08
1.51572e-06
-4.91662e-08
1.54075e-06
-4.83758e-08
1.56538e-06
-4.75971e-08
1.58962e-06
-4.68143e-08
1.61346e-06
-4.60064e-08
1.63686e-06
-4.51438e-08
1.65979e-06
-4.41854e-08
1.68218e-06
-4.30737e-08
1.7039e-06
-4.1727e-08
1.72481e-06
-4.00273e-08
1.74466e-06
-3.77978e-08
1.76308e-06
-3.47693e-08
1.77951e-06
-3.04807e-08
1.79307e-06
-2.41799e-08
1.80279e-06
-1.42728e-08
1.80766e-06
1.99815e-09
1.80577e-06
3.14249e-08
8.80335e-08
1.79006e-06
2.4601e-07
-5.23368e-07
3.42323e-07
-5.46296e-07
3.5861e-07
-4.17961e-07
3.47566e-07
-2.93821e-07
3.19863e-07
-1.79492e-07
2.7578e-07
-7.29835e-08
2.14603e-07
2.64677e-08
1.35282e-07
1.19072e-07
3.67557e-08
2.04408e-07
-8.31386e-08
2.81779e-07
-2.30107e-07
3.50402e-07
-4.14669e-07
4.11998e-07
-6.50235e-07
4.73315e-07
-9.43726e-07
5.43009e-07
-1.28498e-06
6.24642e-07
-1.65208e-06
7.12724e-07
-2.02419e-06
7.96329e-07
-2.38444e-06
8.65996e-07
-2.71895e-06
9.16164e-07
-3.01717e-06
9.44434e-07
-3.27524e-06
9.50321e-07
-3.49413e-06
9.35102e-07
-3.67684e-06
9.01999e-07
-3.82739e-06
8.55396e-07
-3.95053e-06
7.99546e-07
-4.05166e-06
7.3813e-07
-4.13611e-06
6.74451e-07
-4.20828e-06
6.11268e-07
-4.27159e-06
5.50613e-07
-4.32867e-06
4.93739e-07
-4.38139e-06
4.41253e-07
-4.43088e-06
3.9339e-07
-4.47777e-06
3.50065e-07
-4.52235e-06
3.10997e-07
-4.56464e-06
2.75795e-07
-4.60455e-06
2.44021e-07
-4.64191e-06
2.15233e-07
-4.67653e-06
1.89017e-07
-4.70823e-06
1.64996e-07
-4.73684e-06
1.42839e-07
-4.76222e-06
1.22263e-07
-4.78427e-06
1.0303e-07
-4.80289e-06
8.49429e-08
-4.81803e-06
6.78358e-08
-4.82961e-06
5.15692e-08
-4.83757e-06
3.60238e-08
-4.84183e-06
2.10978e-08
-4.84224e-06
6.69742e-09
-4.83857e-06
-7.28404e-09
-4.83071e-06
-2.09609e-08
-4.81868e-06
-3.43927e-08
-4.80259e-06
-4.75672e-08
-4.78246e-06
-6.0462e-08
-4.75835e-06
-7.30688e-08
-4.73032e-06
-8.53811e-08
-4.69844e-06
-9.73931e-08
-4.66279e-06
-1.09098e-07
-4.62347e-06
-1.20487e-07
-4.58057e-06
-1.3155e-07
-4.53419e-06
-1.42275e-07
-4.48445e-06
-1.52651e-07
-4.43145e-06
-1.62664e-07
-4.37532e-06
-1.72301e-07
-4.31618e-06
-1.81551e-07
-4.25416e-06
-1.90406e-07
-4.18938e-06
-1.98856e-07
-4.12199e-06
-2.0689e-07
-4.05211e-06
-2.14501e-07
-3.97989e-06
-2.21684e-07
-3.90547e-06
-2.28435e-07
-3.82898e-06
-2.34751e-07
-3.75057e-06
-2.4063e-07
-3.67038e-06
-2.46074e-07
-3.58855e-06
-2.51084e-07
-3.50522e-06
-2.55664e-07
-3.42053e-06
-2.59817e-07
-3.33461e-06
-2.6355e-07
-3.24761e-06
-2.66871e-07
-3.15965e-06
-2.69787e-07
-3.07087e-06
-2.72308e-07
-2.98139e-06
-2.74444e-07
-2.89133e-06
-2.76209e-07
-2.80082e-06
-2.77612e-07
-2.70997e-06
-2.7867e-07
-2.61889e-06
-2.79394e-07
-2.5277e-06
-2.798e-07
-2.4365e-06
-2.79904e-07
-2.3454e-06
-2.79719e-07
-2.2545e-06
-2.7926e-07
-2.1639e-06
-2.7854e-07
-2.07372e-06
-2.7757e-07
-1.98405e-06
-2.76358e-07
-1.895e-06
-2.74901e-07
-1.80665e-06
-2.73187e-07
-1.71906e-06
-2.71201e-07
-1.63225e-06
-2.6894e-07
-1.54625e-06
-2.66421e-07
-1.46106e-06
-2.63679e-07
-1.37673e-06
-2.6076e-07
-1.29333e-06
-2.57699e-07
-1.21091e-06
-2.54516e-07
-1.12952e-06
-2.51223e-07
-1.0492e-06
-2.47831e-07
-9.6999e-07
-2.44348e-07
-8.91911e-07
-2.40784e-07
-8.14991e-07
-2.37148e-07
-7.39254e-07
-2.33447e-07
-6.64719e-07
-2.2969e-07
-5.914e-07
-2.25884e-07
-5.19303e-07
-2.22036e-07
-4.48437e-07
-2.18158e-07
-3.78811e-07
-2.14261e-07
-3.10432e-07
-2.10353e-07
-2.43301e-07
-2.06442e-07
-1.77419e-07
-2.02533e-07
-1.12784e-07
-1.9863e-07
-4.93921e-08
-1.94741e-07
1.27634e-08
-1.9087e-07
7.36864e-08
-1.87024e-07
1.33385e-07
-1.83205e-07
1.91872e-07
-1.79419e-07
2.4916e-07
-1.75668e-07
3.05265e-07
-1.71959e-07
3.60198e-07
-1.68299e-07
4.13964e-07
-1.64693e-07
4.66581e-07
-1.61138e-07
5.18068e-07
-1.57634e-07
5.68444e-07
-1.54184e-07
6.17731e-07
-1.50791e-07
6.65959e-07
-1.47465e-07
7.1317e-07
-1.44217e-07
7.59348e-07
-1.41059e-07
8.04457e-07
-1.37957e-07
8.48547e-07
-1.34864e-07
8.91663e-07
-1.31791e-07
9.33826e-07
-1.28768e-07
9.75056e-07
-1.25811e-07
1.01537e-06
-1.22927e-07
1.05479e-06
-1.20116e-07
1.09334e-06
-1.1738e-07
1.13103e-06
-1.14717e-07
1.16789e-06
-1.12127e-07
1.20394e-06
-1.09607e-07
1.2392e-06
-1.07159e-07
1.2737e-06
-1.0478e-07
1.30745e-06
-1.0247e-07
1.34048e-06
-1.0023e-07
1.37281e-06
-9.80587e-08
1.40447e-06
-9.59562e-08
1.43546e-06
-9.39225e-08
1.46583e-06
-9.19577e-08
1.49558e-06
-9.00617e-08
1.52475e-06
-8.82346e-08
1.55334e-06
-8.64765e-08
1.5814e-06
-8.4787e-08
1.60892e-06
-8.31659e-08
1.63595e-06
-8.16126e-08
1.66249e-06
-8.01259e-08
1.68858e-06
-7.87042e-08
1.71422e-06
-7.73449e-08
1.73945e-06
-7.60439e-08
1.76426e-06
-7.47958e-08
1.78869e-06
-7.35926e-08
1.81274e-06
-7.2423e-08
1.83641e-06
-7.12715e-08
1.85972e-06
-7.01163e-08
1.88264e-06
-6.89276e-08
1.90516e-06
-6.7664e-08
1.92724e-06
-6.62682e-08
1.94883e-06
-6.46601e-08
1.96983e-06
-6.27265e-08
1.99011e-06
-6.03047e-08
2.00946e-06
-5.7154e-08
2.02761e-06
-5.29111e-08
2.04411e-06
-4.69854e-08
2.05837e-06
-3.8437e-08
2.0696e-06
-2.55061e-08
2.07695e-06
-5.34897e-09
2.08085e-06
2.7523e-08
8.5494e-08
2.08339e-06
9.37333e-08
-6.17112e-07
6.23883e-08
-5.14963e-07
1.39041e-08
-3.69468e-07
-4.31879e-08
-2.36722e-07
-1.12686e-07
-1.09988e-07
-1.98059e-07
1.23933e-08
-3.02291e-07
1.30701e-07
-4.27797e-07
2.44579e-07
-5.77155e-07
3.53765e-07
-7.53748e-07
4.58372e-07
-9.62333e-07
5.58985e-07
-1.20723e-06
6.56892e-07
-1.48722e-06
7.53302e-07
-1.79151e-06
8.47294e-07
-2.10139e-06
9.34521e-07
-2.39725e-06
1.00857e-06
-2.66459e-06
1.06366e-06
-2.89513e-06
1.09653e-06
-3.08563e-06
1.10665e-06
-3.23689e-06
1.09569e-06
-3.35326e-06
1.0667e-06
-3.4413e-06
1.02315e-06
-3.50812e-06
9.68819e-07
-3.56023e-06
9.07516e-07
-3.60313e-06
8.42447e-07
-3.64124e-06
7.76246e-07
-3.67782e-06
7.11026e-07
-3.71489e-06
6.48335e-07
-3.75345e-06
5.89175e-07
-3.79378e-06
5.34068e-07
-3.83569e-06
4.83166e-07
-3.87869e-06
4.36392e-07
-3.92214e-06
3.93512e-07
-3.96535e-06
3.54206e-07
-4.00766e-06
3.18111e-07
-4.0485e-06
2.84856e-07
-4.08735e-06
2.54086e-07
-4.1238e-06
2.25467e-07
-4.15751e-06
1.98702e-07
-4.18819e-06
1.73525e-07
-4.21564e-06
1.49707e-07
-4.23966e-06
1.27051e-07
-4.26011e-06
1.05392e-07
-4.27686e-06
8.4588e-08
-4.28981e-06
6.45191e-08
-4.29887e-06
4.5084e-08
-4.30397e-06
2.61962e-08
-4.30505e-06
7.77918e-09
-4.30209e-06
-1.02409e-08
-4.29513e-06
-2.79253e-08
-4.28422e-06
-4.53017e-08
-4.26942e-06
-6.23672e-08
-4.25077e-06
-7.91089e-08
-4.22833e-06
-9.55142e-08
-4.20214e-06
-1.1157e-07
-4.17227e-06
-1.27261e-07
-4.1388e-06
-1.42572e-07
-4.1018e-06
-1.57487e-07
-4.06136e-06
-1.71988e-07
-4.01758e-06
-1.86056e-07
-3.97056e-06
-1.99674e-07
-3.9204e-06
-2.12824e-07
-3.86721e-06
-2.25484e-07
-3.81112e-06
-2.3764e-07
-3.75225e-06
-2.4928e-07
-3.69072e-06
-2.60391e-07
-3.62665e-06
-2.70958e-07
-3.56018e-06
-2.80972e-07
-3.49144e-06
-2.90424e-07
-3.42056e-06
-2.9931e-07
-3.34769e-06
-3.07626e-07
-3.27295e-06
-3.15369e-07
-3.19648e-06
-3.22539e-07
-3.11843e-06
-3.2914e-07
-3.03892e-06
-3.35174e-07
-2.95809e-06
-3.40647e-07
-2.87607e-06
-3.45568e-07
-2.793e-06
-3.49945e-07
-2.70899e-06
-3.53788e-07
-2.62419e-06
-3.5711e-07
-2.53871e-06
-3.59925e-07
-2.45267e-06
-3.62246e-07
-2.3662e-06
-3.6409e-07
-2.27939e-06
-3.65472e-07
-2.19238e-06
-3.66411e-07
-2.10525e-06
-3.66924e-07
-2.01813e-06
-3.67028e-07
-1.9311e-06
-3.66743e-07
-1.84428e-06
-3.66084e-07
-1.75775e-06
-3.65067e-07
-1.67162e-06
-3.63707e-07
-1.58596e-06
-3.62014e-07
-1.50087e-06
-3.59995e-07
-1.4164e-06
-3.57653e-07
-1.33261e-06
-3.54988e-07
-1.24954e-06
-3.52011e-07
-1.16722e-06
-3.48742e-07
-1.08569e-06
-3.45212e-07
-1.00499e-06
-3.41456e-07
-9.25184e-07
-3.37505e-07
-8.46318e-07
-3.33382e-07
-7.68437e-07
-3.29105e-07
-6.91578e-07
-3.2469e-07
-6.15776e-07
-3.20151e-07
-5.41058e-07
-3.15502e-07
-4.6745e-07
-3.10755e-07
-3.94975e-07
-3.05923e-07
-3.2365e-07
-3.01015e-07
-2.53488e-07
-2.96045e-07
-1.845e-07
-2.91023e-07
-1.16696e-07
-2.85962e-07
-5.00824e-08
-2.80874e-07
1.53339e-08
-2.75769e-07
7.95487e-08
-2.70657e-07
1.42561e-07
-2.65545e-07