/*--------------------------------*- C++ -*----------------------------------*\
  =========                 |
  \\      /  F ield         | OpenFOAM: The Open Source CFD Toolbox
   \\    /   O peration     | Website:  https://openfoam.org
    \\  /    A nd           | Version:  8
     \\/     M anipulation  |
\*---------------------------------------------------------------------------*/
FoamFile
{
    version     2.0;
    format      ascii;
    class       surfaceScalarField;
    location    "600";
    object      phi;
}
// * * * * * * * * * * * * * * * * * * * * * * * * * * * * * * * * * * * * * //

dimensions      [0 3 -1 0 0 0 0];

internalField   nonuniform List<scalar> 
24170
(
3.00127e-06
1.32589e-07
2.85391e-06
1.47287e-07
2.72024e-06
1.33583e-07
2.6015e-06
1.187e-07
2.50029e-06
1.0109e-07
2.41624e-06
8.37993e-08
2.34601e-06
6.99339e-08
2.28726e-06
5.87043e-08
2.23873e-06
4.85526e-08
2.19904e-06
3.97434e-08
2.16698e-06
3.2106e-08
2.1415e-06
2.55251e-08
2.11986e-06
2.16764e-08
2.10195e-06
1.7927e-08
2.08872e-06
1.32145e-08
2.07856e-06
1.01285e-08
2.07279e-06
5.70875e-09
3.16766e-10
2.07235e-06
3.51298e-06
7.60078e-08
3.54533e-06
1.14523e-07
3.55781e-06
1.20653e-07
3.55357e-06
1.22559e-07
3.5392e-06
1.15096e-07
3.51868e-06
1.04031e-07
3.49347e-06
9.50436e-08
3.46571e-06
8.65804e-08
3.43671e-06
7.7714e-08
3.40538e-06
7.11883e-08
3.37246e-06
6.51092e-08
3.34108e-06
5.69695e-08
3.31228e-06
5.05292e-08
3.28548e-06
4.47733e-08
3.26068e-06
3.80579e-08
3.23858e-06
3.22551e-08
3.21797e-06
2.63088e-08
2.21482e-08
3.19614e-06
3.8323e-06
5.58939e-08
3.85025e-06
9.66727e-08
3.86606e-06
1.04909e-07
3.88061e-06
1.08036e-07
3.89143e-06
1.04278e-07
3.89838e-06
9.69725e-08
3.90269e-06
9.06285e-08
3.90468e-06
8.45702e-08
3.90414e-06
7.82488e-08
3.90204e-06
7.33114e-08
3.89873e-06
6.84226e-08
3.89367e-06
6.20487e-08
3.88789e-06
5.63165e-08
3.88167e-06
5.10058e-08
3.87445e-06
4.52826e-08
3.86686e-06
3.9835e-08
3.85862e-06
3.452e-08
3.0064e-08
3.85066e-06
4.2163e-06
4.41244e-08
4.22899e-06
8.37423e-08
4.2397e-06
9.39599e-08
4.24993e-06
9.75751e-08
4.25839e-06
9.56259e-08
4.26486e-06
9.0378e-08
4.27038e-06
8.51045e-08
4.27525e-06
7.97819e-08
4.27924e-06
7.43682e-08
4.28288e-06
6.97442e-08
4.28626e-06
6.50998e-08
4.28871e-06
5.96414e-08
4.29061e-06
5.44527e-08
4.29214e-06
4.95094e-08
4.29299e-06
4.44578e-08
4.29331e-06
3.95298e-08
4.29304e-06
3.47968e-08
3.06038e-08
4.29251e-06
4.64614e-06
3.52887e-08
4.65703e-06
7.30021e-08
4.66642e-06
8.46445e-08
4.67525e-06
8.88082e-08
4.68277e-06
8.81224e-08
4.68877e-06
8.4386e-08
4.69395e-06
7.99025e-08
4.69863e-06
7.50922e-08
4.70279e-06
7.0205e-08
4.7068e-06
6.57288e-08
4.71069e-06
6.12048e-08
4.71408e-06
5.62604e-08
4.7171e-06
5.14414e-08
4.71983e-06
4.67885e-08
4.72213e-06
4.21583e-08
4.72403e-06
3.76324e-08
4.7255e-06
3.33198e-08
2.93635e-08
4.72671e-06
5.12159e-06
2.82773e-08
5.13146e-06
6.29367e-08
5.14043e-06
7.54976e-08
5.14885e-06
8.02296e-08
5.15626e-06
8.05973e-08
5.16242e-06
7.81758e-08
5.16778e-06
7.45495e-08
5.17259e-06
7.03337e-08
5.17693e-06
6.59182e-08
5.18108e-06
6.16326e-08
5.18505e-06
5.72729e-08
5.18865e-06
5.2697e-08
5.19193e-06
4.81938e-08
5.19493e-06
4.38203e-08
5.19758e-06
3.9527e-08
5.19989e-06
3.53494e-08
5.20184e-06
3.13679e-08
2.76827e-08
5.20356e-06
5.64656e-06
2.27411e-08
5.6556e-06
5.40427e-08
5.6643e-06
6.68969e-08
5.67253e-06
7.20338e-08
5.68e-06
7.31593e-08
5.68649e-06
7.17128e-08
5.69222e-06
6.88286e-08
5.69737e-06
6.51834e-08
5.70205e-06
6.12294e-08
5.70645e-06
5.72227e-08
5.7106e-06
5.31197e-08
5.71441e-06
4.88913e-08
5.71791e-06
4.47116e-08
5.7211e-06
4.06343e-08
5.72398e-06
3.66596e-08
5.72652e-06
3.28114e-08
5.72876e-06
2.91514e-08
2.5708e-08
5.73072e-06
4.40938e-06
1.94825e-08
4.41533e-06
4.79563e-08
4.42143e-06
6.0682e-08
4.42723e-06
6.61367e-08
4.43261e-06
6.77254e-08
4.43746e-06
6.68291e-08
4.44186e-06
6.44403e-08
4.44583e-06
6.12161e-08
4.44946e-06
5.76129e-08
4.45284e-06
5.38621e-08
4.45598e-06
4.99924e-08
4.45887e-06
4.60185e-08
4.46153e-06
4.20737e-08
4.46396e-06
3.82137e-08
4.46618e-06
3.44622e-08
4.46816e-06
3.08416e-08
4.46991e-06
2.73949e-08
2.41823e-08
4.47146e-06
5.14287e-06
1.64699e-08
5.14884e-06
4.2128e-08
5.15522e-06
5.43506e-08
5.16143e-06
5.99558e-08
5.16729e-06
6.18844e-08
5.17267e-06
6.14621e-08
5.1776e-06
5.95205e-08
5.18211e-06
5.67054e-08
5.18626e-06
5.3458e-08
5.19011e-06
5.00044e-08
5.1937e-06
4.64079e-08
5.19701e-06
4.27189e-08
5.20005e-06
3.9042e-08
5.20284e-06
3.544e-08
5.20538e-06
3.19372e-08
5.20766e-06
2.857e-08
5.20971e-06
2.53718e-08
2.23735e-08
5.21151e-06
5.99854e-06
1.37612e-08
6.00442e-06
3.62148e-08
6.01103e-06
4.77021e-08
6.01759e-06
5.33491e-08
6.0239e-06
5.55475e-08
6.02981e-06
5.5543e-08
6.03528e-06
5.40425e-08
6.04033e-06
5.16431e-08
6.04501e-06
4.8763e-08
6.04938e-06
4.56325e-08
6.05345e-06
4.23395e-08
6.05722e-06
3.89609e-08
6.06069e-06
3.55868e-08
6.06387e-06
3.22625e-08
6.06678e-06
2.90468e-08
6.0694e-06
2.59518e-08
6.07176e-06
2.30135e-08
2.02784e-08
6.07386e-06
6.99673e-06
1.12849e-08
7.00246e-06
3.05609e-08
7.00919e-06
4.09956e-08
7.01605e-06
4.64808e-08
7.02278e-06
4.8818e-08
7.02919e-06
4.91301e-08
7.0352e-06
4.8033e-08
7.04081e-06
4.60241e-08
7.04605e-06
4.35207e-08
7.05095e-06
4.07262e-08
7.05553e-06
3.77691e-08
7.05978e-06
3.47247e-08
7.0637e-06
3.16645e-08
7.0673e-06
2.86644e-08
7.0706e-06
2.5748e-08
7.0736e-06
2.29566e-08
7.07631e-06
2.031e-08
1.785e-08
7.07874e-06
8.16124e-06
9.09903e-09
8.16671e-06
2.5116e-08
8.17347e-06
3.42355e-08
8.18058e-06
3.93678e-08
8.18769e-06
4.17095e-08
8.19458e-06
4.22346e-08
8.20113e-06
4.14617e-08
8.20731e-06
3.98483e-08
8.21311e-06
3.77004e-08
8.21857e-06
3.52768e-08
8.22367e-06
3.26661e-08
8.22842e-06
2.99758e-08
8.23281e-06
2.72688e-08
8.23686e-06
2.46082e-08
8.24058e-06
2.20266e-08
8.24398e-06
1.95624e-08
8.24706e-06
1.72268e-08
1.50668e-08
8.24984e-06
9.51972e-06
7.10226e-09
9.52492e-06
1.99439e-08
9.53163e-06
2.75291e-08
9.53892e-06
3.20703e-08
9.54637e-06
3.426e-08
9.55371e-06
3.48599e-08
9.56081e-06
3.4362e-08
9.56756e-06
3.30667e-08
9.57397e-06
3.13043e-08
9.58e-06
2.92322e-08
9.58566e-06
2.70082e-08
9.59093e-06
2.46888e-08
9.59583e-06
2.23661e-08
9.60035e-06
2.00704e-08
9.60453e-06
1.78614e-08
9.60835e-06
1.57419e-08
9.61184e-06
1.37506e-08
1.1904e-08
9.615e-06
1.11045e-05
5.29694e-09
1.11094e-05
1.50708e-08
1.1116e-05
2.09396e-08
1.11235e-05
2.46523e-08
1.11312e-05
2.64947e-08
1.1139e-05
2.70558e-08
1.11466e-05
2.67002e-08
1.1154e-05
2.57026e-08
1.1161e-05
2.42699e-08
1.11677e-05
2.25834e-08
1.11739e-05
2.0741e-08
1.11798e-05
1.88326e-08
1.11852e-05
1.6908e-08
1.11903e-05
1.50238e-08
1.1195e-05
1.31974e-08
1.11993e-05
1.14622e-08
1.12032e-05
9.82462e-09
8.32137e-09
1.12068e-05
1.29533e-05
3.61681e-09
1.2958e-05
1.04414e-08
1.29645e-05
1.4482e-08
1.29721e-05
1.71084e-08
1.29801e-05
1.84339e-08
1.29884e-05
1.87962e-08
1.29966e-05
1.84929e-08
1.30045e-05
1.77037e-08
1.30122e-05
1.65852e-08
1.30195e-05
1.52635e-08
1.30265e-05
1.38253e-08
1.3033e-05
1.23373e-08
1.3039e-05
1.08443e-08
1.30447e-05
9.38272e-09
1.30499e-05
7.97417e-09
1.30548e-05
6.63878e-09
1.30592e-05
5.38697e-09
4.24297e-09
1.30633e-05
1.51101e-05
2.01088e-09
1.51146e-05
5.95587e-09
1.51211e-05
8.0128e-09
1.51289e-05
9.37635e-09
1.51373e-05
9.98239e-09
1.51461e-05
1.00165e-08
1.51549e-05
9.65707e-09
1.51636e-05
9.00603e-09
1.51721e-05
8.16104e-09
1.51801e-05
7.19407e-09
1.51878e-05
6.16463e-09
1.5195e-05
5.11246e-09
1.52018e-05
4.06944e-09
1.52082e-05
3.05678e-09
1.52141e-05
2.09095e-09
1.52195e-05
1.18386e-09
1.52246e-05
3.43419e-10
-4.13547e-10
1.52292e-05
1.76261e-05
3.94973e-10
1.76307e-05
1.34953e-09
1.76374e-05
1.28075e-09
1.76456e-05
1.18908e-09
1.76547e-05
9.0534e-10
1.76642e-05
5.00383e-10
1.76739e-05
-1.5844e-11
1.76834e-05
-5.7326e-10
1.76928e-05
-1.18278e-09
1.77018e-05
-1.78994e-09
1.77104e-05
-2.40531e-09
1.77185e-05
-2.99271e-09
1.77261e-05
-3.56134e-09
1.77333e-05
-4.08821e-09
1.774e-05
-4.58019e-09
1.77462e-05
-5.02253e-09
1.77519e-05
-5.42084e-09
-5.75726e-09
1.77573e-05
1.78277e-05
-1.15534e-09
1.78321e-05
-3.12978e-09
1.78387e-05
-5.25281e-09
1.78466e-05
-6.80894e-09
1.78555e-05
-7.95191e-09
1.78648e-05
-8.85092e-09
1.78743e-05
-9.50409e-09
1.78837e-05
-1.00227e-08
1.7893e-05
-1.03836e-08
1.79018e-05
-1.06745e-08
1.79103e-05
-1.08686e-08
1.79183e-05
-1.10261e-08
1.79259e-05
-1.11196e-08
1.7933e-05
-1.11897e-08
1.79397e-05
-1.12137e-08
1.79458e-05
-1.12181e-08
1.79516e-05
-1.11846e-08
-1.11241e-08
1.7957e-05
1.58828e-05
-2.61402e-09
1.58869e-05
-7.30071e-09
1.58929e-05
-1.13358e-08
1.59002e-05
-1.41444e-08
1.59083e-05
-1.60556e-08
1.59168e-05
-1.7308e-08
1.59253e-05
-1.80971e-08
1.59338e-05
-1.84977e-08
1.5942e-05
-1.8651e-08
1.595e-05
-1.8596e-08
1.59575e-05
-1.84306e-08
1.59647e-05
-1.81617e-08
1.59714e-05
-1.78494e-08
1.59777e-05
-1.74873e-08
1.59836e-05
-1.71129e-08
1.59891e-05
-1.67144e-08
1.59943e-05
-1.63157e-08
-1.5896e-08
1.59991e-05
1.41501e-05
-4.10041e-09
1.41543e-05
-1.14793e-08
1.41602e-05
-1.73241e-08
1.41673e-05
-2.12267e-08
1.41749e-05
-2.37327e-08
1.41829e-05
-2.52717e-08
1.41909e-05
-2.60789e-08
1.41987e-05
-2.63462e-08
1.42063e-05
-2.62162e-08
1.42135e-05
-2.58347e-08
1.42203e-05
-2.52789e-08
1.42268e-05
-2.46221e-08
1.42329e-05
-2.39012e-08
1.42385e-05
-2.31543e-08
1.42438e-05
-2.23965e-08
1.42487e-05
-2.16463e-08
1.42533e-05
-2.09058e-08
-2.0178e-08
1.42576e-05
1.26066e-05
-5.71691e-09
1.2611e-05
-1.59004e-08
1.26172e-05
-2.3471e-08
1.26242e-05
-2.82711e-08
1.26317e-05
-3.12085e-08
1.26393e-05
-3.29071e-08
1.26468e-05
-3.36591e-08
1.26542e-05
-3.37035e-08
1.26612e-05
-3.3263e-08
1.26679e-05
-3.25152e-08
1.26742e-05
-3.15691e-08
1.26801e-05
-3.05172e-08
1.26856e-05
-2.94032e-08
1.26907e-05
-2.82835e-08
1.26955e-05
-2.71688e-08
1.26999e-05
-2.60893e-08
1.27041e-05
-2.50399e-08
-2.40283e-08
1.27079e-05
1.12317e-05
-7.58882e-09
1.12366e-05
-2.08015e-08
1.1243e-05
-2.99438e-08
1.12501e-05
-3.53605e-08
1.12575e-05
-3.8577e-08
1.12649e-05
-4.03267e-08
1.12722e-05
-4.09253e-08
1.12791e-05
-4.06735e-08
1.12857e-05
-3.98743e-08
1.12919e-05
-3.87332e-08
1.12977e-05
-3.73899e-08
1.13032e-05
-3.59302e-08
1.13082e-05
-3.44383e-08
1.13129e-05
-3.29467e-08
1.13172e-05
-3.1503e-08
1.13212e-05
-3.01061e-08
1.13249e-05
-2.8781e-08
-2.75037e-08
1.13284e-05
1.00069e-05
-9.86524e-09
1.00125e-05
-2.63796e-08
1.00194e-05
-3.68098e-08
1.00266e-05
-4.25627e-08
1.00339e-05
-4.58916e-08
1.00411e-05
-4.75816e-08
1.00481e-05
-4.79214e-08
1.00548e-05
-4.73135e-08
1.0061e-05
-4.61154e-08
1.00668e-05
-4.45592e-08
1.00722e-05
-4.27953e-08
1.00772e-05
-4.09344e-08
1.00818e-05
-3.90545e-08
1.00861e-05
-3.72151e-08
1.009e-05
-3.54424e-08
1.00937e-05
-3.37613e-08
1.00971e-05
-3.21668e-08
-3.06593e-08
1.01002e-05
8.916e-06
-1.27713e-08
8.92248e-06
-3.2859e-08
8.92976e-06
-4.40879e-08
8.93706e-06
-4.98445e-08
8.94436e-06
-5.31936e-08
8.9515e-06
-5.47163e-08
8.95828e-06
-5.47094e-08
8.96464e-06
-5.36745e-08
8.97056e-06
-5.20372e-08
8.97604e-06
-5.00431e-08
8.98109e-06
-4.78479e-08
8.98573e-06
-4.55766e-08
8.98999e-06
-4.33172e-08
8.9939e-06
-4.11324e-08
8.9975e-06
-3.90538e-08
9.00084e-06
-3.7096e-08
9.00392e-06
-3.52622e-08
-3.35317e-08
9.0068e-06
7.94447e-06
-1.65783e-08
7.95204e-06
-4.04056e-08
7.95972e-06
-5.1742e-08
7.96715e-06
-5.72792e-08
7.97452e-06
-6.05521e-08
7.98161e-06
-6.18054e-08
7.98826e-06
-6.13477e-08
7.99442e-06
-5.98354e-08
8.0001e-06
-5.77237e-08
8.00532e-06
-5.52629e-08
8.01009e-06
-5.2624e-08
8.01445e-06
-4.99378e-08
8.01843e-06
-4.73031e-08
8.02207e-06
-4.47785e-08
8.02541e-06
-4.23994e-08
8.02849e-06
-4.01782e-08
8.03134e-06
-3.8115e-08
-3.61746e-08
8.03397e-06
7.07939e-06
-2.16367e-08
7.08836e-06
-4.93513e-08
7.09659e-06
-5.99697e-08
7.10439e-06
-6.50618e-08
7.11202e-06
-6.81816e-08
7.11926e-06
-6.90358e-08
7.12595e-06
-6.8042e-08
7.1321e-06
-6.59818e-08
7.13774e-06
-6.3359e-08
7.14288e-06
-6.04077e-08
7.14756e-06
-5.73033e-08
7.1518e-06
-5.41857e-08
7.15564e-06
-5.11491e-08
7.15913e-06
-4.82692e-08
7.1623e-06
-4.55721e-08
7.16519e-06
-4.30779e-08
7.16786e-06
-4.07826e-08
-3.86459e-08
7.17032e-06
6.3098e-06
-2.89172e-08
6.32077e-06
-6.03328e-08
6.33031e-06
-6.94673e-08
6.33935e-06
-7.4086e-08
6.34803e-06
-7.68574e-08
6.35608e-06
-7.70833e-08
6.36344e-06
-7.53902e-08
6.37014e-06
-7.26844e-08
6.37622e-06
-6.94354e-08
6.38169e-06
-6.58832e-08
6.38659e-06
-6.22036e-08
6.39095e-06
-5.85368e-08
6.39479e-06
-5.50005e-08
6.39817e-06
-5.16472e-08
6.40113e-06
-4.85404e-08
6.40374e-06
-4.56884e-08
6.40603e-06
-4.308e-08
-4.06755e-08
6.40806e-06
5.62897e-06
-4.29913e-08
5.64489e-06
-7.62259e-08
5.65903e-06
-8.35779e-08
5.6725e-06
-8.75316e-08
5.68488e-06
-8.92297e-08
5.69586e-06
-8.80546e-08
5.70543e-06
-8.49653e-08
5.71365e-06
-8.08921e-08
5.72052e-06
-7.63003e-08
5.72609e-06
-7.14508e-08
5.73043e-06
-6.65439e-08
5.73363e-06
-6.17435e-08
5.73579e-06
-5.71556e-08
5.73701e-06
-5.28681e-08
5.73742e-06
-4.89539e-08
5.73718e-06
-4.54458e-08
5.73641e-06
-4.23204e-08
-3.97531e-08
5.73549e-06
5.05121e-06
-9.18913e-08
5.08797e-06
-1.12961e-07
5.11427e-06
-1.09838e-07
5.13203e-06
-1.05261e-07
5.14225e-06
-9.94419e-08
5.14608e-06
-9.18784e-08
5.14461e-06
-8.34987e-08
5.13884e-06
-7.51124e-08
5.12963e-06
-6.7084e-08
5.11776e-06
-5.95738e-08
5.10387e-06
-5.26509e-08
5.08849e-06
-4.63651e-08
5.07207e-06
-4.07407e-08
5.05498e-06
-3.57786e-08
5.03752e-06
-3.14884e-08
5.02003e-06
-2.79591e-08
5.00291e-06
-2.52007e-08
-2.3483e-08
4.98663e-06
4.36466e-06
4.2517e-06
4.14187e-06
4.03661e-06
3.93717e-06
3.84529e-06
3.76179e-06
3.68668e-06
3.6196e-06
3.56002e-06
3.50737e-06
3.461e-06
3.42026e-06
3.38449e-06
3.353e-06
3.32504e-06
3.29984e-06
3.27635e-06
-8.25901e-09
8.25213e-09
-2.23956e-08
1.41234e-08
-3.77838e-08
1.53746e-08
-5.09639e-08
1.31698e-08
-5.67552e-08
5.77619e-09
-4.91499e-08
-7.61254e-09
-2.60902e-08
-2.30773e-08
1.00457e-08
-3.61428e-08
5.50812e-08
-4.50549e-08
1.04242e-07
-4.91664e-08
1.53041e-07
-4.88194e-08
1.98414e-07
-4.53801e-08
2.38315e-07
-3.99237e-08
2.71543e-07
-3.32337e-08
2.97354e-07
-2.58361e-08
3.15378e-07
-1.80286e-08
3.25301e-07
-9.94842e-09
3.26844e-07
-1.54574e-09
3.19762e-07
7.06213e-09
3.0426e-07
1.54999e-08
2.80898e-07
2.33466e-08
2.50667e-07
3.02195e-08
2.14949e-07
3.57094e-08
1.75571e-07
3.93533e-08
1.34873e-07
4.06943e-08
9.54443e-08
3.93918e-08
6.00454e-08
3.53976e-08
3.08449e-08
2.91594e-08
9.10842e-09
2.17391e-08
-5.3893e-09
1.44605e-08
-1.34525e-08
8.07327e-09
-1.56345e-08
2.14938e-09
-1.16278e-08
-3.98095e-09
-4.09088e-10
-1.12602e-08
1.96355e-08
-1.99945e-08
4.83956e-08
-2.88237e-08
8.24504e-08
-3.39943e-08
1.15463e-07
-3.30858e-08
1.42146e-07
-2.66331e-08
1.58974e-07
-1.68872e-08
1.66203e-07
-7.2032e-09
1.66512e-07
-3.3536e-10
1.63383e-07
3.13138e-09
1.60171e-07
3.23053e-09
1.58727e-07
1.44687e-09
1.53259e-07
5.55681e-09
1.34442e-07
1.88479e-08
9.44355e-08
4.01457e-08
2.78711e-08
6.66436e-08
-6.24777e-08
9.04085e-08
-1.71657e-07
1.09195e-07
-2.96028e-07
1.24368e-07
-4.31816e-07
1.35767e-07
-5.75716e-07
1.43901e-07
-7.24008e-07
1.48293e-07
-8.71703e-07
1.47683e-07
-1.0142e-06
1.42515e-07
-1.15034e-06
1.36127e-07
-1.279e-06
1.28686e-07
-1.39836e-06
1.1935e-07
-1.50864e-06
1.10307e-07
-1.61e-06
1.01345e-07
-1.7024e-06
9.24244e-08
-1.78713e-06
8.47176e-08
-1.86498e-06
7.78735e-08
-1.93666e-06
7.16724e-08
-2.00282e-06
6.61752e-08
-2.06415e-06
6.13338e-08
-2.12124e-06
5.71036e-08
-2.17459e-06
5.33594e-08
-2.22462e-06
5.00525e-08
-2.2717e-06
4.70907e-08
-2.31611e-06
4.44261e-08
-2.35808e-06
4.19993e-08
-2.39783e-06
3.97681e-08
-2.43549e-06
3.76977e-08
-2.47124e-06
3.5755e-08
-2.50512e-06
3.3923e-08
-2.53729e-06
3.21742e-08
-2.56776e-06
3.05046e-08
-2.59666e-06
2.88889e-08
-2.62396e-06
2.73321e-08
-2.64979e-06
2.58084e-08
-2.67409e-06
2.43288e-08
-2.69698e-06
2.28674e-08
-2.7184e-06
2.14402e-08
-2.73843e-06
2.00227e-08
-2.75705e-06
1.86316e-08
-2.77433e-06
1.72472e-08
-2.79025e-06
1.5868e-08
-2.80476e-06
1.44872e-08
-2.81786e-06
1.31014e-08
-2.82953e-06
1.16951e-08
-2.83977e-06
1.02612e-08
-2.84854e-06
8.78381e-09
-2.85579e-06
7.25791e-09
-2.86146e-06
5.66906e-09
-2.86548e-06
4.0058e-09
-2.86778e-06
2.26576e-09
-2.86833e-06
5.11147e-10
-2.86729e-06
-1.08923e-09
-2.86485e-06
-2.49021e-09
-2.8611e-06
-3.80216e-09
-2.85606e-06
-5.10172e-09
-2.84971e-06
-6.39533e-09
-2.84207e-06
-7.70184e-09
-2.8331e-06
-9.00694e-09
-2.82283e-06
-1.03272e-08
-2.81121e-06
-1.16427e-08
-2.79828e-06
-1.29721e-08
-2.784e-06
-1.42928e-08
-2.76839e-06
-1.56247e-08
-2.75144e-06
-1.6944e-08
-2.73317e-06
-1.82704e-08
-2.71356e-06
-1.95807e-08
-2.69264e-06
-2.08931e-08
-2.6704e-06
-2.21867e-08
-2.64688e-06
-2.34764e-08
-2.62206e-06
-2.47453e-08
-2.59599e-06
-2.60039e-08
-2.56867e-06
-2.72405e-08
-2.54012e-06
-2.846e-08
-2.51037e-06
-2.96567e-08
-2.47944e-06
-3.083e-08
-2.44737e-06
-3.198e-08
-2.41417e-06
-3.31008e-08
-2.37988e-06
-3.41981e-08
-2.34453e-06
-3.52583e-08
-2.30815e-06
-3.62966e-08
-2.27079e-06
-3.72931e-08
-2.23249e-06
-3.82646e-08
-2.19326e-06
-3.91934e-08
-2.15317e-06
-4.00732e-08
-2.11223e-06
-4.08908e-08
-2.07055e-06
-4.16439e-08
-2.02819e-06
-4.23201e-08
-1.98523e-06
-4.29599e-08
-1.94155e-06
-4.3692e-08
-1.89712e-06
-4.44503e-08
-1.85203e-06
-4.5097e-08
-1.80633e-06
-4.57041e-08
-1.76006e-06
-4.62698e-08
-1.71328e-06
-4.68069e-08
-1.666e-06
-4.73108e-08
-1.61826e-06
-4.77852e-08
-1.57008e-06
-4.82279e-08
-1.52147e-06
-4.86397e-08
-1.47247e-06
-4.90247e-08
-1.4231e-06
-4.93808e-08
-1.37338e-06
-4.97203e-08
-1.32334e-06
-5.00303e-08
-1.273e-06
-5.03193e-08
-1.22239e-06
-5.05778e-08
-1.17155e-06
-5.08121e-08
-1.1205e-06
-5.10238e-08
-1.06926e-06
-5.12141e-08
-1.01784e-06
-5.13913e-08
-9.66251e-07
-5.15573e-08
-9.14505e-07
-5.17171e-08
-8.62604e-07
-5.18744e-08
-8.10547e-07
-5.20306e-08
-7.58337e-07
-5.2186e-08
-7.05976e-07
-5.23383e-08
-6.53471e-07
-5.24856e-08
-6.00825e-07
-5.2628e-08
-5.48044e-07
-5.27664e-08
-4.95126e-07
-5.29054e-08
-4.42068e-07
-5.30469e-08
-3.88865e-07
-5.3194e-08
-3.35512e-07
-5.33433e-08
-2.82017e-07
-5.34871e-08
-2.28404e-07
-5.36033e-08
-1.74732e-07
-5.36644e-08
-1.21113e-07
-5.36093e-08
-6.77518e-08
-5.33542e-08
-1.51102e-08
-5.26322e-08
3.62015e-08
-5.13077e-08
8.4472e-08
-4.82636e-08
1.2888e-07
-4.4405e-08
-1.94684e-08
1.48358e-07
-3.48275e-09
1.1722e-08
-9.62708e-09
2.02407e-08
-1.24679e-08
1.81878e-08
-4.87908e-09
5.55536e-09
1.8136e-08
-1.72631e-08
5.57506e-08
-4.52386e-08
1.03484e-07
-7.08234e-08
1.55788e-07
-8.84533e-08
2.07512e-07
-9.67894e-08
2.5539e-07
-9.70505e-08
2.9793e-07
-9.13712e-08
3.34457e-07
-8.1913e-08
3.64852e-07
-7.03328e-08
3.89333e-07
-5.77197e-08
4.08212e-07
-4.47296e-08
4.21895e-07
-3.17176e-08
4.30785e-07
-1.88531e-08
4.35456e-07
-6.22156e-09
4.36293e-07
6.21332e-09
4.33223e-07
1.85646e-08
4.25768e-07
3.07926e-08
4.13324e-07
4.26546e-08
3.95315e-07
5.37108e-08
3.71355e-07
6.32999e-08
3.41457e-07
7.05869e-08
3.06173e-07
7.46589e-08
2.6683e-07
7.47361e-08
2.25528e-07
7.04409e-08
1.85278e-07
6.19873e-08
1.49633e-07
5.00809e-08
1.22169e-07
3.55393e-08
1.05363e-07
1.89293e-08
1.0083e-07
5.6934e-10
1.08152e-07
-1.86133e-08
1.25546e-07
-3.73558e-08
1.47826e-07
-5.11451e-08
1.68033e-07
-5.4168e-08
1.80833e-07
-4.59355e-08
1.84439e-07
-3.02129e-08
1.78545e-07
-1.10324e-08
1.64567e-07
6.79764e-09
1.43907e-07
2.0308e-08
1.11667e-07
3.54148e-08
5.78484e-08
5.7089e-08
-2.65448e-08
8.58889e-08
-1.41991e-07
1.21067e-07
-2.80345e-07
1.57241e-07
-4.31462e-07
1.913e-07
-5.8749e-07
2.22695e-07
-7.45851e-07
2.4878e-07
-9.04284e-07
2.67633e-07
-1.05923e-06
2.79314e-07
-1.20717e-06
2.83713e-07
-1.34459e-06
2.81328e-07
-1.46942e-06
2.73115e-07
-1.58163e-06
2.59898e-07
-1.68207e-06
2.42955e-07
-1.77057e-06
2.24627e-07
-1.84824e-06
2.06363e-07
-1.91731e-06
1.88417e-07
-1.97875e-06
1.71746e-07
-2.03399e-06
1.56589e-07
-2.08446e-06
1.42901e-07
-2.13071e-06
1.30963e-07
-2.17342e-06
1.20598e-07
-2.21328e-06
1.11532e-07
-2.25071e-06
1.03609e-07
-2.28603e-06
9.66614e-08
-2.31946e-06
9.05457e-08
-2.3512e-06
8.51072e-08
-2.38137e-06
8.02319e-08
-2.41007e-06
7.58121e-08
-2.4374e-06
7.17636e-08
-2.46339e-06
6.80143e-08
-2.48812e-06
6.45082e-08
-2.51159e-06
6.1199e-08
-2.53387e-06
5.80491e-08
-2.55496e-06
5.50312e-08
-2.57489e-06
5.21195e-08
-2.59367e-06
4.92992e-08
-2.61133e-06
4.65506e-08
-2.62785e-06
4.38668e-08
-2.64328e-06
4.1231e-08
-2.65759e-06
3.8641e-08
-2.6708e-06
3.60816e-08
-2.68291e-06
3.35541e-08
-2.69393e-06
3.10455e-08
-2.70386e-06
2.85569e-08
-2.71271e-06
2.60778e-08
-2.72048e-06
2.36006e-08
-2.72713e-06
2.11215e-08
-2.73266e-06
1.86347e-08
-2.73708e-06
1.61318e-08
-2.7404e-06
1.36068e-08
-2.74266e-06
1.10535e-08
-2.74387e-06
8.47496e-09
-2.74408e-06
5.87375e-09
-2.74335e-06
3.26682e-09
-2.7418e-06
6.82035e-10
-2.73947e-06
-1.84508e-09
-2.73626e-06
-4.33975e-09
-2.73194e-06
-6.84749e-09
-2.72641e-06
-9.37565e-09
-2.71964e-06
-1.19177e-08
-2.7116e-06
-1.44753e-08
-2.70229e-06
-1.70495e-08
-2.6917e-06
-1.96381e-08
-2.67982e-06
-2.22414e-08
-2.66664e-06
-2.48539e-08
-2.65215e-06
-2.74766e-08
-2.63636e-06
-3.01015e-08
-2.61926e-06
-3.27307e-08
-2.60085e-06
-3.53539e-08
-2.58114e-06
-3.79742e-08
-2.56013e-06
-4.05797e-08
-2.53782e-06
-4.31742e-08
-2.51423e-06
-4.57451e-08
-2.48937e-06
-4.82964e-08
-2.46325e-06
-5.08158e-08
-2.4359e-06
-5.33066e-08
-2.40732e-06
-5.57581e-08
-2.37754e-06
-5.81723e-08
-2.34659e-06
-6.05402e-08
-2.31449e-06
-6.28622e-08
-2.28127e-06
-6.51322e-08
-2.24696e-06
-6.73489e-08
-2.21158e-06
-6.95084e-08
-2.17517e-06
-7.16063e-08
-2.13777e-06
-7.3642e-08
-2.09941e-06
-7.56118e-08
-2.06014e-06
-7.75144e-08
-2.01998e-06
-7.93397e-08
-1.97895e-06
-8.10781e-08
-1.93709e-06
-8.2722e-08
-1.89442e-06
-8.42827e-08
-1.85096e-06
-8.57635e-08
-1.80672e-06
-8.71943e-08
-1.7618e-06
-8.86218e-08
-1.71626e-06
-9.00073e-08
-1.67007e-06
-9.12863e-08
-1.62328e-06
-9.24876e-08
-1.57594e-06
-9.36153e-08
-1.52808e-06
-9.46819e-08
-1.47973e-06
-9.56847e-08
-1.43091e-06
-9.66295e-08
-1.38165e-06
-9.7512e-08
-1.33197e-06
-9.83382e-08
-1.28189e-06
-9.91094e-08
-1.23144e-06
-9.98317e-08
-1.18065e-06
-1.00511e-07
-1.12952e-06
-1.01144e-07
-1.07809e-06
-1.01727e-07
-1.0264e-06
-1.02259e-07
-9.7445e-07
-1.02736e-07
-9.22282e-07
-1.03171e-07
-8.69913e-07
-1.03561e-07
-8.17359e-07
-1.03924e-07
-7.64634e-07
-1.04263e-07
-7.11743e-07
-1.04589e-07
-6.58692e-07
-1.04907e-07
-6.05482e-07
-1.05224e-07
-5.52114e-07
-1.05539e-07
-4.98591e-07
-1.05848e-07
-4.44917e-07
-1.06149e-07
-3.91094e-07
-1.0644e-07
-3.37129e-07
-1.06726e-07
-2.83017e-07
-1.07011e-07
-2.28757e-07
-1.07303e-07
-1.74343e-07
-1.07605e-07
-1.19771e-07
-1.07913e-07
-6.50456e-08
-1.08209e-07
-1.01902e-08
-1.08455e-07
4.47485e-08
-1.086e-07
9.96827e-08
-1.0854e-07
1.54428e-07
-1.08096e-07
2.0874e-07
-1.06942e-07
2.61969e-07
-1.04536e-07
3.13527e-07
-9.98216e-08
3.60113e-07
-9.09918e-08
-6.38452e-08
4.04491e-07
4.36525e-10
1.12734e-08
4.24872e-09
1.64013e-08
1.92889e-08
3.12647e-09
5.32609e-08
-2.84308e-08
1.04549e-07
-6.85604e-08
1.63472e-07
-1.04168e-07
2.20132e-07
-1.2749e-07
2.69003e-07
-1.37328e-07
3.08474e-07
-1.36268e-07
3.39278e-07
-1.27858e-07
3.63009e-07
-1.15109e-07
3.81211e-07
-1.0012e-07
3.95056e-07
-8.41866e-08
4.05367e-07
-6.80345e-08
4.12671e-07
-5.20424e-08
4.17344e-07
-3.6394e-08
4.19655e-07
-2.11733e-08
4.19854e-07
-6.42413e-09
4.18224e-07
7.83505e-09
4.15137e-07
2.16474e-08
4.10857e-07
3.50655e-08
4.05431e-07
4.80749e-08
3.98594e-07
6.0541e-08
3.89756e-07
7.21321e-08
3.78069e-07
8.22687e-08
3.62617e-07
9.01019e-08
3.42779e-07
9.45709e-08
3.18646e-07
9.4564e-08
2.91406e-07
8.9223e-08
2.63347e-07
7.81292e-08
2.37451e-07
6.14342e-08
2.16505e-07
3.98646e-08
2.02243e-07
1.48416e-08
1.94722e-07
-1.11065e-08
1.89823e-07
-3.24368e-08
1.79972e-07
-4.1316e-08
1.60939e-07
-3.51149e-08
1.32564e-07
-1.7588e-08
9.56462e-08
6.73864e-09
4.80322e-08
3.65607e-08
-1.58388e-08
7.07104e-08
-1.02888e-07
1.07376e-07
-2.14692e-07
1.47248e-07
-3.47807e-07
1.9023e-07
-4.95813e-07
2.33913e-07
-6.49923e-07
2.75196e-07
-8.0409e-07
3.11419e-07
-9.53379e-07
3.40597e-07
-1.09259e-06
3.61907e-07
-1.21878e-06
3.74978e-07
-1.33089e-06
3.79751e-07
-1.42838e-06
3.76807e-07
-1.5118e-06
3.67139e-07
-1.58264e-06
3.52166e-07
-1.64296e-06
3.33442e-07
-1.69535e-06
3.12285e-07
-1.74232e-06
2.89926e-07
-1.78536e-06
2.67672e-07
-1.82544e-06
2.46443e-07
-1.86365e-06
2.26622e-07
-1.90041e-06
2.08505e-07
-1.93603e-06
1.92208e-07
-1.97079e-06
1.77661e-07
-2.00463e-06
1.64803e-07
-2.0375e-06
1.53479e-07
-2.06943e-06
1.43467e-07
-2.1004e-06
1.34587e-07
-2.1304e-06
1.26665e-07
-2.1594e-06
1.1955e-07
-2.18739e-06
1.13103e-07
-2.21435e-06
1.07206e-07
-2.24029e-06
1.01759e-07
-2.26519e-06
9.66787e-08
-2.28906e-06
9.18972e-08
-2.3119e-06
8.73577e-08
-2.3337e-06
8.30157e-08
-2.35447e-06
7.88347e-08
-2.37421e-06
7.47865e-08
-2.39292e-06
7.08474e-08
-2.41062e-06
6.70001e-08
-2.42729e-06
6.32282e-08
-2.44294e-06
5.9521e-08
-2.45757e-06
5.58661e-08
-2.47119e-06
5.22563e-08
-2.48379e-06
4.86814e-08
-2.49537e-06
4.51367e-08
-2.50593e-06
4.16132e-08
-2.51548e-06
3.81072e-08
-2.52404e-06
3.46096e-08
-2.53158e-06
3.11133e-08
-2.53808e-06
2.76139e-08
-2.54354e-06
2.41047e-08
-2.54798e-06
2.05832e-08
-2.5514e-06
1.70407e-08
-2.55381e-06
1.34772e-08
-2.55522e-06
9.89237e-09
-2.55565e-06
6.29315e-09
-2.55508e-06
2.68803e-09
-2.55351e-06
-9.11979e-10
-2.55087e-06
-4.50843e-09
-2.54711e-06
-8.1287e-09
-2.54219e-06
-1.17935e-08
-2.5361e-06
-1.55031e-08
-2.5288e-06
-1.92458e-08
-2.52029e-06
-2.30222e-08
-2.51055e-06
-2.68246e-08
-2.49956e-06
-3.06551e-08
-2.48732e-06
-3.45048e-08
-2.47383e-06
-3.83754e-08
-2.45906e-06
-4.22565e-08
-2.44303e-06
-4.61492e-08
-2.42572e-06
-5.00421e-08
-2.40715e-06
-5.39351e-08
-2.3873e-06
-5.78168e-08
-2.36619e-06
-6.16855e-08
-2.34381e-06
-6.55302e-08
-2.32019e-06
-6.9348e-08
-2.29532e-06
-7.31292e-08
-2.26924e-06
-7.68695e-08
-2.24194e-06
-8.0561e-08
-2.21346e-06
-8.41984e-08
-2.18381e-06
-8.77752e-08
-2.15301e-06
-9.12856e-08
-2.1211e-06
-9.47245e-08
-2.08809e-06
-9.80859e-08
-2.05403e-06
-1.01366e-07
-2.01892e-06
-1.0456e-07
-1.98282e-06
-1.07662e-07
-1.94575e-06
-1.1067e-07
-1.90775e-06
-1.13582e-07
-1.86885e-06
-1.16391e-07
-1.82909e-06
-1.1909e-07
-1.78847e-06
-1.21668e-07
-1.74705e-06
-1.2412e-07
-1.70484e-06
-1.26463e-07
-1.66188e-06
-1.28708e-07
-1.6182e-06
-1.3087e-07
-1.57386e-06
-1.32965e-07
-1.5289e-06
-1.34971e-07
-1.48332e-06
-1.36859e-07
-1.43717e-06
-1.3864e-07
-1.39047e-06
-1.4032e-07
-1.34325e-06
-1.41907e-07
-1.29555e-06
-1.43403e-07
-1.24739e-06
-1.44811e-07
-1.19879e-06
-1.46132e-07
-1.14977e-06
-1.4737e-07
-1.10037e-06
-1.48529e-07
-1.05059e-06
-1.49616e-07
-1.00046e-06
-1.5064e-07
-9.50011e-07
-1.51596e-07
-8.99259e-07
-1.52479e-07
-8.48229e-07
-1.53287e-07
-7.96947e-07
-1.54015e-07
-7.45438e-07
-1.54676e-07
-6.93723e-07
-1.55274e-07
-6.41819e-07
-1.55825e-07
-5.89738e-07
-1.56341e-07
-5.37489e-07
-1.56834e-07
-4.85077e-07
-1.57316e-07
-4.32505e-07
-1.57793e-07
-3.79774e-07
-1.58267e-07
-3.26886e-07
-1.58733e-07
-2.73845e-07
-1.59187e-07
-2.20654e-07
-1.59628e-07
-1.67315e-07
-1.60062e-07
-1.13828e-07
-1.60496e-07
-6.01873e-08
-1.60941e-07
-6.38837e-09
-1.61401e-07
4.7573e-08
-1.61871e-07
1.01693e-07
-1.62327e-07
1.55959e-07
-1.62718e-07
2.10327e-07
-1.62964e-07
2.64716e-07
-1.62925e-07
3.18994e-07
-1.62371e-07
3.72958e-07
-1.60902e-07
4.26252e-07
-1.57827e-07
4.78453e-07
-1.52018e-07
5.28621e-07
-1.41156e-07
-1.15441e-07
5.80221e-07
-1.05025e-10
1.13678e-08
1.33693e-08
2.90372e-09
5.3907e-08
-3.7422e-08
1.16576e-07
-9.11081e-08
1.83881e-07
-1.35869e-07
2.41649e-07
-1.61941e-07
2.84384e-07
-1.70229e-07
3.13097e-07
-1.66044e-07
3.31435e-07
-1.54611e-07
3.43079e-07
-1.39505e-07
3.50694e-07
-1.2273e-07
3.55872e-07
-1.053e-07
3.59404e-07
-8.77248e-08
3.61637e-07
-7.02708e-08
3.62679e-07
-5.30909e-08
3.62567e-07
-3.62852e-08
3.61314e-07
-1.99265e-08
3.58964e-07
-4.07657e-09
3.55584e-07
1.12093e-08
3.51323e-07
2.59058e-08
3.46393e-07
3.99895e-08
3.41038e-07
5.34263e-08
3.35428e-07
6.61459e-08
3.29576e-07
7.79803e-08
3.23236e-07
8.86042e-08
3.1589e-07
9.74438e-08
3.06805e-07
1.03652e-07
2.95254e-07
1.06109e-07
2.80844e-07
1.03628e-07
2.63715e-07
9.52537e-08
2.44795e-07
8.03551e-08
2.25409e-07
5.92494e-08
2.06129e-07
3.41368e-08
1.83479e-07
1.1537e-08
1.5042e-07
6.47187e-10
1.03862e-07
5.22499e-09
4.49294e-08
2.38487e-08
-2.72794e-08
5.46105e-08
-1.1532e-07
9.48051e-08
-2.20046e-07
1.41294e-07
-3.40113e-07
1.90796e-07
-4.73209e-07
2.40486e-07
-6.14383e-07
2.88437e-07
-7.57247e-07
3.33107e-07
-8.95776e-07
3.72451e-07
-1.02454e-06
4.03968e-07
-1.13971e-06
4.26592e-07
-1.2397e-06
4.40594e-07
-1.32403e-06
4.46236e-07
-1.39338e-06
4.44332e-07
-1.44958e-06
4.35954e-07
-1.49502e-06
4.22242e-07
-1.53237e-06
4.04497e-07
-1.56423e-06
3.84025e-07
-1.59278e-06
3.61996e-07
-1.61981e-06
3.39322e-07
-1.64664e-06
3.16754e-07
-1.67392e-06
2.94954e-07
-1.70186e-06
2.74386e-07
-1.73053e-06
2.55283e-07
-1.75977e-06
2.37748e-07
-1.78938e-06
2.21821e-07
-1.81916e-06
2.0744e-07
-1.84887e-06
1.94513e-07
-1.8783e-06
1.82908e-07
-1.90729e-06
1.72461e-07
-1.93571e-06
1.63018e-07
-1.96348e-06
1.54435e-07
-1.9905e-06
1.46579e-07
-2.01672e-06
1.3933e-07
-2.04209e-06
1.32585e-07
-2.06658e-06
1.26256e-07
-2.09016e-06
1.20267e-07
-2.11281e-06
1.14557e-07
-2.13451e-06
1.09074e-07
-2.15526e-06
1.03777e-07
-2.17505e-06
9.86342e-08
-2.19387e-06
9.36181e-08
-2.21172e-06
8.87077e-08
-2.2286e-06
8.38864e-08
-2.2445e-06
7.91397e-08
-2.25944e-06
7.44566e-08
-2.2734e-06
6.98265e-08
-2.28638e-06
6.52413e-08
-2.29839e-06
6.06924e-08
-2.30943e-06
5.6173e-08
-2.31949e-06
5.16757e-08
-2.32858e-06
4.71937e-08
-2.3367e-06
4.27192e-08
-2.34386e-06
3.82422e-08
-2.35001e-06
3.37598e-08
-2.35516e-06
2.92642e-08
-2.35932e-06
2.47524e-08
-2.36248e-06
2.0216e-08
-2.36465e-06
1.56535e-08
-2.36582e-06
1.10622e-08
-2.36598e-06
6.44581e-09
-2.36511e-06
1.80557e-09
-2.36318e-06
-2.85652e-09
-2.36016e-06
-7.54996e-09
-2.35603e-06
-1.22912e-08
-2.35076e-06
-1.70909e-08
-2.34434e-06
-2.19476e-08
-2.33676e-06
-2.68533e-08
-2.328e-06
-3.1806e-08
-2.31806e-06
-3.67973e-08
-2.30691e-06
-4.18272e-08
-2.29455e-06
-4.68851e-08
-2.28098e-06
-5.1972e-08
-2.26617e-06
-5.70746e-08
-2.25014e-06
-6.21943e-08
-2.23287e-06
-6.73154e-08
-2.21437e-06
-7.24389e-08
-2.19464e-06
-7.75473e-08
-2.17367e-06
-8.2641e-08
-2.15149e-06
-8.7702e-08
-2.12809e-06
-9.27299e-08
-2.10348e-06
-9.77074e-08