/*--------------------------------*- C++ -*----------------------------------*\
  =========                 |
  \\      /  F ield         | OpenFOAM: The Open Source CFD Toolbox
   \\    /   O peration     | Website:  https://openfoam.org
    \\  /    A nd           | Version:  8
     \\/     M anipulation  |
\*---------------------------------------------------------------------------*/
FoamFile
{
    version     2.0;
    format      ascii;
    class       volVectorField;
    location    "600";
    object      U;
}
// * * * * * * * * * * * * * * * * * * * * * * * * * * * * * * * * * * * * * //

dimensions      [0 1 -1 0 0 0 0];

internalField   nonuniform List<vector> 
12225
(
(9.77408 0.0503981 0)
(9.33364 0.0979653 0)
(8.8978 0.11386 0)
(8.48276 0.111301 0)
(8.12639 0.0847543 0)
(7.83291 0.0578526 0)
(7.59074 0.0450879 0)
(7.3859 0.0349324 0)
(7.21651 0.0223871 0)
(7.07347 0.0267234 0)
(6.96167 0.0344815 0)
(6.87076 0.0226667 0)
(6.79787 0.0153922 0)
(6.73153 0.00959953 0)
(6.68361 -0.00321743 0)
(6.64819 -0.0113688 0)
(6.61689 -0.014016 0)
(6.61189 -0.00857161 0)
(10.0736 0.0557467 0)
(10.2219 0.0881966 0)
(10.2969 0.0862808 0)
(10.2986 0.08307 0)
(10.2624 0.0826515 0)
(10.2136 0.0788956 0)
(10.1473 0.0715672 0)
(10.0693 0.0657619 0)
(9.98591 0.0620505 0)
(9.90276 0.054576 0)
(9.80548 0.0462363 0)
(9.70957 0.0435088 0)
(9.62487 0.0413064 0)
(9.54305 0.0381133 0)
(9.46809 0.034787 0)
(9.40038 0.031382 0)
(9.33898 0.0253947 0)
(9.28045 0.0182275 0)
(10.0202 0.0429242 0)
(10.0739 0.0672188 0)
(10.124 0.0734139 0)
(10.1633 0.0788844 0)
(10.1944 0.0801404 0)
(10.2177 0.0792699 0)
(10.2332 0.0789319 0)
(10.2419 0.0771609 0)
(10.2434 0.0735334 0)
(10.24 0.0707344 0)
(10.2327 0.0678546 0)
(10.2212 0.0630789 0)
(10.2067 0.0591924 0)
(10.1909 0.0557896 0)
(10.1731 0.0517476 0)
(10.1535 0.0476425 0)
(10.1328 0.0425448 0)
(10.1111 0.037524 0)
(10.0089 0.0318125 0)
(10.0411 0.0575733 0)
(10.0724 0.066785 0)
(10.0974 0.0726782 0)
(10.1182 0.0738144 0)
(10.1356 0.0720787 0)
(10.1502 0.0704187 0)
(10.1629 0.0686195 0)
(10.1734 0.0664913 0)
(10.1824 0.0650387 0)
(10.1908 0.0633348 0)
(10.1976 0.0602016 0)
(10.2027 0.0571126 0)
(10.2066 0.0540774 0)
(10.2094 0.0504633 0)
(10.2108 0.0466558 0)
(10.2108 0.0426527 0)
(10.2101 0.0391127 0)
(10.0051 0.0246936 0)
(10.0289 0.0510805 0)
(10.0536 0.0610421 0)
(10.0735 0.0663676 0)
(10.0901 0.0680543 0)
(10.1044 0.067398 0)
(10.1167 0.0662822 0)
(10.1275 0.0648576 0)
(10.137 0.063158 0)
(10.1457 0.0617025 0)
(10.1543 0.0599557 0)
(10.1621 0.0573568 0)
(10.1689 0.0546292 0)
(10.175 0.0517754 0)
(10.1804 0.0485223 0)
(10.185 0.045051 0)
(10.1886 0.0414539 0)
(10.1917 0.0380271 0)
(10.0033 0.0198021 0)
(10.0214 0.0444307 0)
(10.0422 0.0548114 0)
(10.0596 0.0602713 0)
(10.0744 0.0626559 0)
(10.0875 0.0629251 0)
(10.0989 0.0623021 0)
(10.1089 0.0611168 0)
(10.1178 0.05959 0)
(10.1261 0.0580565 0)
(10.134 0.056244 0)
(10.1414 0.053882 0)
(10.1481 0.051327 0)
(10.1541 0.0486124 0)
(10.1597 0.0456311 0)
(10.1645 0.0424534 0)
(10.1687 0.0391859 0)
(10.1724 0.0359928 0)
(10.0022 0.0160061 0)
(10.016 0.0382676 0)
(10.0335 0.0486782 0)
(10.0491 0.0543031 0)
(10.0626 0.0571261 0)
(10.0748 0.0580064 0)
(10.0858 0.0577888 0)
(10.0955 0.0568926 0)
(10.1042 0.0556057 0)
(10.1122 0.0541501 0)
(10.1198 0.0523987 0)
(10.1268 0.0502345 0)
(10.1333 0.0478527 0)
(10.1392 0.0453003 0)
(10.1446 0.0425521 0)
(10.1494 0.0396446 0)
(10.1536 0.0366625 0)
(10.1574 0.0336997 0)
(10.0016 0.0132927 0)
(10.0126 0.0332979 0)
(10.0276 0.0434951 0)
(10.0417 0.0491586 0)
(10.0541 0.0522897 0)
(10.0656 0.0536302 0)
(10.0762 0.0537849 0)
(10.0858 0.0531605 0)
(10.0944 0.0520676 0)
(10.1023 0.050683 0)
(10.1097 0.0489894 0)
(10.1165 0.0469632 0)
(10.1228 0.0447303 0)
(10.1286 0.0423336 0)
(10.1338 0.0397786 0)
(10.1386 0.0370854 0)
(10.1429 0.0343149 0)
(10.1467 0.0315342 0)
(10.0012 0.011268 0)
(10.0102 0.0294235 0)
(10.0232 0.0392652 0)
(10.0361 0.0449062 0)
(10.0477 0.0481098 0)
(10.0586 0.0496212 0)
(10.0687 0.0499569 0)
(10.0779 0.0495163 0)
(10.0864 0.0485926 0)
(10.0941 0.0473397 0)
(10.1014 0.04577 0)
(10.1081 0.0438881 0)
(10.1142 0.0417894 0)
(10.1199 0.0395234 0)
(10.1251 0.0371117 0)
(10.1298 0.034587 0)
(10.134 0.0319981 0)
(10.1378 0.0294123 0)
(10.001 0.00947405 0)
(10.0082 0.025596 0)
(10.0193 0.034823 0)
(10.0309 0.0403404 0)
(10.0417 0.0435701 0)
(10.0518 0.0452238 0)
(10.0613 0.0457265 0)
(10.0702 0.0454542 0)
(10.0783 0.0446835 0)
(10.0858 0.0435606 0)
(10.0929 0.0421169 0)
(10.0994 0.0403839 0)
(10.1054 0.0384354 0)
(10.1109 0.0363177 0)
(10.116 0.0340714 0)
(10.1206 0.0317267 0)
(10.1248 0.0293288 0)
(10.1286 0.0269364 0)
(10.0008 0.00785942 0)
(10.0065 0.0217986 0)
(10.0158 0.0302246 0)
(10.0261 0.0355068 0)
(10.036 0.038692 0)
(10.0453 0.0404287 0)
(10.0542 0.0410746 0)
(10.0626 0.040948 0)
(10.0704 0.0403146 0)
(10.0776 0.0393103 0)
(10.0844 0.037995 0)
(10.0907 0.0364114 0)
(10.0965 0.0346183 0)
(10.1019 0.032667 0)
(10.1068 0.0305992 0)
(10.1113 0.028447 0)
(10.1154 0.0262494 0)
(10.1191 0.0240699 0)
(10.0006 0.00640728 0)
(10.0052 0.0181605 0)
(10.0129 0.0255928 0)
(10.0219 0.0304907 0)
(10.0307 0.0335261 0)
(10.0393 0.0352567 0)
(10.0476 0.0359849 0)
(10.0554 0.0359788 0)
(10.0628 0.0354595 0)
(10.0697 0.0345741 0)
(10.0762 0.033385 0)
(10.0822 0.03195 0)
(10.0878 0.0303163 0)
(10.093 0.0285443 0)
(10.0977 0.0266619 0)
(10.1021 0.0247159 0)
(10.1061 0.0227298 0)
(10.1097 0.0207673 0)
(10.0005 0.0051006 0)
(10.0041 0.0146854 0)
(10.0104 0.0209743 0)
(10.0181 0.0253261 0)
(10.0261 0.0280925 0)
(10.0339 0.029713 0)
(10.0415 0.0304548 0)
(10.0488 0.0305217 0)
(10.0558 0.0301007 0)
(10.0623 0.0293225 0)
(10.0684 0.0282625 0)
(10.0742 0.0269735 0)
(10.0795 0.0255136 0)
(10.0845 0.0239219 0)
(10.0891 0.0222448 0)
(10.0933 0.0205076 0)
(10.0971 0.0187446 0)
(10.1006 0.0170034 0)
(10.0004 0.0039095 0)
(10.0032 0.0114022 0)
(10.0084 0.0164273 0)
(10.015 0.0200627 0)
(10.0221 0.0224196 0)
(10.0291 0.0238202 0)
(10.0361 0.0244861 0)
(10.0429 0.0245642 0)
(10.0494 0.0242104 0)
(10.0555 0.0235237 0)
(10.0614 0.0225886 0)
(10.0668 0.0214511 0)
(10.0719 0.0201666 0)
(10.0766 0.0187713 0)
(10.081 0.0173044 0)
(10.0851 0.0157877 0)
(10.0888 0.0142526 0)
(10.0922 0.0127388 0)
(10.0003 0.00281462 0)
(10.0026 0.00829708 0)
(10.0069 0.0119754 0)
(10.0125 0.0147254 0)
(10.0187 0.0165303 0)
(10.0251 0.0175925 0)
(10.0315 0.0180772 0)
(10.0377 0.0181002 0)
(10.0438 0.0177588 0)
(10.0496 0.0171464 0)
(10.0551 0.0163194 0)
(10.0603 0.0153335 0)
(10.0652 0.0142235 0)
(10.0697 0.0130305 0)
(10.0739 0.011774 0)
(10.0778 0.0104856 0)
(10.0814 0.00917918 0)
(10.0847 0.00789877 0)
(10.0002 0.00177983 0)
(10.0022 0.00532208 0)
(10.0058 0.00757573 0)
(10.0106 0.00929368 0)
(10.0161 0.0104021 0)
(10.0219 0.0110003 0)
(10.0278 0.0112057 0)
(10.0336 0.0110849 0)
(10.0393 0.0107064 0)
(10.0448 0.0101271 0)
(10.05 0.00939352 0)
(10.0549 0.00854291 0)
(10.0596 0.00760504 0)
(10.0639 0.00660557 0)
(10.068 0.00556434 0)
(10.0717 0.00450099 0)
(10.0752 0.00343009 0)
(10.0784 0.00238262 0)
(10.0002 0.000763418 0)
(10.0019 0.0023656 0)
(10.005 0.00310793 0)
(10.0094 0.00367091 0)
(10.0144 0.00393837 0)
(10.0197 0.00396081 0)
(10.0252 0.00377861 0)
(10.0307 0.00343735 0)
(10.0361 0.00295492 0)
(10.0413 0.00237181 0)
(10.0463 0.00170065 0)
(10.0511 0.000971098 0)
(10.0555 0.000191313 0)
(10.0597 -0.000617038 0)
(10.0637 -0.00144786 0)
(10.0673 -0.00228397 0)
(10.0707 -0.00312044 0)
(10.0739 -0.00393113 0)
(10.0002 -0.000238473 0)
(10.0018 -0.000578335 0)
(10.0048 -0.00135334 0)
(10.0089 -0.00200263 0)
(10.0138 -0.00262304 0)
(10.0189 -0.00324304 0)
(10.0242 -0.00385403 0)
(10.0296 -0.00446968 0)
(10.0348 -0.00508267 0)
(10.0399 -0.00570498 0)
(10.0448 -0.00632728 0)
(10.0495 -0.00695878 0)
(10.0538 -0.0075884 0)
(10.058 -0.0082227 0)
(10.0618 -0.00885047 0)
(10.0654 -0.00947539 0)
(10.0688 -0.0100867 0)
(10.0719 -0.0106761 0)
(10.0002 -0.00119245 0)
(10.0018 -0.00338666 0)
(10.005 -0.00560612 0)
(10.0093 -0.00739211 0)
(10.0143 -0.00884571 0)
(10.0195 -0.0100605 0)
(10.0249 -0.0110739 0)
(10.0303 -0.0119338 0)
(10.0356 -0.0126683 0)
(10.0407 -0.0133143 0)
(10.0456 -0.0138916 0)
(10.0503 -0.0144222 0)
(10.0546 -0.0149157 0)
(10.0587 -0.0153842 0)
(10.0626 -0.0158314 0)
(10.0662 -0.0162623 0)
(10.0695 -0.0166772 0)
(10.0726 -0.0170674 0)
(10.0002 -0.0021247 0)
(10.0021 -0.00610088 0)
(10.0056 -0.00969074 0)
(10.0104 -0.0124872 0)
(10.0157 -0.0146681 0)
(10.0213 -0.0163787 0)
(10.0269 -0.017722 0)
(10.0325 -0.0187591 0)
(10.038 -0.0195682 0)
(10.0433 -0.0201998 0)
(10.0482 -0.0207116 0)
(10.053 -0.0211273 0)
(10.0574 -0.0214838 0)
(10.0615 -0.0217905 0)
(10.0654 -0.0220701 0)
(10.069 -0.0223239 0)
(10.0724 -0.0225646 0)
(10.0755 -0.0227803 0)
(10.0003 -0.00310392 0)
(10.0025 -0.00889418 0)
(10.0067 -0.0138046 0)
(10.0121 -0.0174966 0)
(10.018 -0.0202774 0)
(10.0241 -0.0223977 0)
(10.0301 -0.02398 0)
(10.0361 -0.0251318 0)
(10.0418 -0.0259497 0)
(10.0473 -0.0265331 0)
(10.0524 -0.0269396 0)
(10.0572 -0.0272288 0)
(10.0618 -0.0274279 0)
(10.066 -0.0275768 0)
(10.0699 -0.027685 0)
(10.0736 -0.0277773 0)
(10.077 -0.0278516 0)
(10.0801 -0.0279144 0)
(10.0003 -0.00420038 0)
(10.0032 -0.0119141 0)
(10.0083 -0.0180884 0)
(10.0147 -0.0225257 0)
(10.0213 -0.0257888 0)
(10.0279 -0.0282189 0)
(10.0344 -0.0299609 0)
(10.0408 -0.0311469 0)
(10.0469 -0.0319237 0)
(10.0526 -0.0324098 0)
(10.0579 -0.0326876 0)
(10.0629 -0.0328196 0)
(10.0676 -0.0328548 0)
(10.0719 -0.0328303 0)
(10.0759 -0.032774 0)
(10.0796 -0.0327013 0)
(10.0831 -0.0326261 0)
(10.0863 -0.0325406 0)
(10.0005 -0.00549983 0)
(10.0042 -0.0153027 0)
(10.0107 -0.0226172 0)
(10.0182 -0.0276191 0)
(10.0256 -0.031249 0)
(10.0328 -0.0339028 0)
(10.04 -0.0357151 0)
(10.0468 -0.0368658 0)
(10.0533 -0.0375488 0)
(10.0593 -0.0379014 0)
(10.0649 -0.0380207 0)
(10.0701 -0.0379757 0)
(10.0749 -0.0378311 0)
(10.0793 -0.0376272 0)
(10.0834 -0.0374022 0)
(10.0872 -0.0371712 0)
(10.0907 -0.03695 0)
(10.094 -0.0367296 0)
(10.0007 -0.00710965 0)
(10.0058 -0.0192101 0)
(10.014 -0.0274366 0)
(10.0228 -0.0327769 0)
(10.031 -0.0366728 0)
(10.039 -0.0394757 0)
(10.0469 -0.0412868 0)
(10.0543 -0.0423416 0)
(10.0612 -0.0428823 0)
(10.0676 -0.0430642 0)
(10.0735 -0.04299 0)
(10.0789 -0.0427469 0)
(10.0839 -0.0424042 0)
(10.0885 -0.042019 0)
(10.0927 -0.0416231 0)
(10.0966 -0.041243 0)
(10.1002 -0.040885 0)
(10.1035 -0.0405445 0)
(10.001 -0.00915554 0)
(10.0082 -0.0237691 0)
(10.0187 -0.0326189 0)
(10.0288 -0.0380728 0)
(10.0381 -0.0421168 0)
(10.047 -0.0449749 0)
(10.0557 -0.0467086 0)
(10.0639 -0.0476176 0)
(10.0714 -0.047978 0)
(10.0782 -0.0479557 0)
(10.0845 -0.0476642 0)
(10.0902 -0.0472007 0)
(10.0955 -0.0466456 0)
(10.1003 -0.0460605 0)
(10.1047 -0.0454857 0)
(10.1087 -0.0449448 0)
(10.1124 -0.0444502 0)
(10.1159 -0.043981 0)
(10.0015 -0.0118907 0)
(10.0118 -0.0290235 0)
(10.0254 -0.0381966 0)
(10.0374 -0.0437082 0)
(10.048 -0.0477858 0)
(10.0583 -0.0504989 0)
(10.0683 -0.0519872 0)
(10.0774 -0.052655 0)
(10.0858 -0.0527958 0)
(10.0934 -0.0525606 0)
(10.1003 -0.0520623 0)
(10.1066 -0.0514036 0)
(10.1123 -0.0506648 0)
(10.1175 -0.0499133 0)
(10.1222 -0.0491882 0)
(10.1264 -0.0485172 0)
(10.1304 -0.0479115 0)
(10.134 -0.0473383 0)
(10.0028 -0.0162231 0)
(10.0183 -0.034857 0)
(10.0366 -0.043472 0)
(10.0519 -0.049273 0)
(10.0655 -0.053684 0)
(10.0786 -0.0563101 0)
(10.0909 -0.0574875 0)
(10.1022 -0.0577963 0)
(10.1123 -0.0575668 0)
(10.1214 -0.0569558 0)
(10.1297 -0.0560891 0)
(10.137 -0.0550811 0)
(10.1435 -0.0540267 0)
(10.1492 -0.0529927 0)
(10.1542 -0.0520332 0)
(10.1586 -0.0511752 0)
(10.1625 -0.0504173 0)
(10.1659 -0.0496983 0)
(10.0077 -0.023997 0)
(10.0368 -0.0430752 0)
(10.0669 -0.0487658 0)
(10.0916 -0.0539351 0)
(10.1139 -0.0589017 0)
(10.1346 -0.0621459 0)
(10.1531 -0.0637833 0)
(10.1691 -0.0644011 0)
(10.1825 -0.0643218 0)
(10.1935 -0.0636967 0)
(10.2023 -0.0626672 0)
(10.209 -0.0613705 0)
(10.2138 -0.0599407 0)
(10.2168 -0.0584691 0)
(10.2182 -0.0570598 0)
(10.2183 -0.0558028 0)
(10.2173 -0.0547377 0)
(10.2155 -0.0539198 0)
(10.0423 -0.0352802 0)
(10.1357 -0.0635204 0)
(10.2047 -0.0686109 0)
(10.2465 -0.0702333 0)
(10.2724 -0.0714066 0)
(10.286 -0.0713203 0)
(10.2884 -0.0700959 0)
(10.2808 -0.0682303 0)
(10.2654 -0.0659946 0)
(10.244 -0.0635114 0)
(10.2181 -0.0608686 0)
(10.1886 -0.0581621 0)
(10.1566 -0.0554628 0)
(10.123 -0.0528574 0)
(10.0883 -0.0504458 0)
(10.0532 -0.0482955 0)
(10.0184 -0.0464307 0)
(9.98484 -0.0453153 0)
(9.88977 -0.0325247 0)
(9.66676 -0.0683842 0)
(9.42289 -0.0791143 0)
(9.17743 -0.0812544 0)
(8.9439 -0.079723 0)
(8.72844 -0.0757339 0)
(8.53192 -0.0702897 0)
(8.35398 -0.064144 0)
(8.19443 -0.0577974 0)
(8.05241 -0.0515772 0)
(7.9267 -0.0456428 0)
(7.81584 -0.040089 0)
(7.71837 -0.0349743 0)
(7.63275 -0.0303265 0)
(7.55755 -0.0261643 0)
(7.49133 -0.0226035 0)
(7.43192 -0.0197469 0)
(7.37857 -0.0179174 0)
(-0.00278752 0.0076325 0)
(-0.0128815 0.0127008 0)
(-0.0266707 0.013788 0)
(-0.0411743 0.011705 0)
(-0.0516341 0.00581268 0)
(-0.0504568 -0.00386651 0)
(-0.0343846 -0.0169493 -8.11662e-19)
(-0.00680878 -0.0305436 9.19189e-19)
(0.0290139 -0.0406671 0)
(0.0701335 -0.0455862 5.25424e-19)
(0.1136 -0.0459686 0)
(0.155952 -0.0430081 0)
(0.194444 -0.0377795 0)
(0.227419 -0.0310997 -2.57714e-19)
(0.254013 -0.0235407 0)
(0.273809 -0.0154619 0)
(0.286479 -0.0070651 2.2266e-19)
(0.292222 0.00171873 0)
(0.289939 0.0107888 0)
(0.279804 0.0196734 0)
(0.26245 0.0276252 -2.38338e-19)
(0.238504 0.0338582 0)
(0.208895 0.0376475 -2.81683e-19)
(0.175002 0.0383694 0)
(0.13867 0.0355877 0)
(0.102157 0.0292675 -4.57783e-19)
(0.0679631 0.0200636 0)
(0.0385525 0.00962335 7.64412e-19)
(0.0157796 0.000571211 0)
(0.000143334 -0.00495599 -1.30196e-18)
(-0.00969794 -0.00759541 0)
(-0.0147543 -0.00945755 0)
(-0.0138777 -0.0117412 0)
(-0.00657994 -0.0153307 0)
(0.00800944 -0.0206642 0)
(0.0302197 -0.0266408 8.6125e-19)
(0.0586166 -0.0309792 0)
(0.0891161 -0.0312799 -1.00678e-18)
(0.11671 -0.0271006 0)
(0.137068 -0.0197492 7.93392e-19)
(0.148294 -0.0117626 0)
(0.151624 -0.00531398 0)
(0.149604 -0.00173354 -7.77066e-19)
(0.146132 -0.00201597 0)
(0.144137 -0.0070405 -8.00594e-19)
(0.141847 -0.016181 8.0388e-19)
(0.132755 -0.0241079 0)
(0.109431 -0.0205267 8.75351e-19)
(0.0664084 -0.00162029 1.02723e-18)
(-0.00680926 0.0175356 0)
(-0.104417 0.0363624 0)
(-0.211217 0.0586034 0)
(-0.330139 0.0806014 0)
(-0.458017 0.100688 0)
(-0.590924 0.114738 -1.82114e-19)
(-0.726561 0.118177 0)
(-0.860617 0.112943 1.44861e-19)
(-0.989105 0.108596 0)
(-1.11007 0.103644 0)
(-1.2242 0.09455 -1.14301e-19)
(-1.33003 0.0868098 0)
(-1.42733 0.0789712 1.02483e-19)
(-1.51693 0.0703874 0)
(-1.59879 0.06407 0)
(-1.67416 0.0587408 0)
(-1.74379 0.0537259 -8.85654e-20)
(-1.80816 0.0492166 0)
(-1.86791 0.0452451 0)
(-1.92362 0.041828 -8.23896e-20)
(-1.97578 0.0388007 0)
(-2.02481 0.0361601 -7.92416e-20)
(-2.07106 0.0338047 0)
(-2.11481 0.0317086 0)
(-2.1563 0.0298128 0)
(-2.19574 0.0280888 7.42058e-20)
(-2.23326 0.0265036 0)
(-2.26902 0.0250338 0)
(-2.30311 0.0236622 7.10639e-20)
(-2.33562 0.0223699 7.00901e-20)
(-2.36662 0.02115 0)
(-2.39617 0.0199861 6.82221e-20)
(-2.42432 0.0188784 0)
(-2.45111 0.0178108 1.32865e-19)
(-2.47657 0.016788 0)
(-2.50073 0.0157937 1.29393e-19)
(-2.5236 0.0148352 0)
(-2.5452 0.0138954 -1.25998e-19)
(-2.56556 0.0129807 0)
(-2.58469 0.0120758 0)
(-2.60261 0.0111755 0)
(-2.61928 0.0102729 1.19319e-19)
(-2.63468 0.00936256 0)
(-2.6488 0.00843155 -1.15981e-19)
(-2.66163 0.00747306 0)
(-2.67314 0.00647596 1.12628e-19)
(-2.68328 0.00543928 1.10946e-19)
(-2.69201 0.00436269 1.09261e-19)
(-2.69927 0.00326603 0)
(-2.705 0.00219476 0)
(-2.70909 0.00122398 0)
(-2.7115 0.00040892 0)
(-2.7126 -0.000288245 0)
(-2.71249 -0.00094157 0)
(-2.71116 -0.0015861 0)
(-2.70861 -0.00222401 0)
(-2.70485 -0.00286401 -9.3376e-20)
(-2.69986 -0.00349951 -9.14526e-20)
(-2.69362 -0.00413858 0)
(-2.68613 -0.00477196 0)
(-2.67737 -0.00540878 0)
(-2.66735 -0.00603827 -8.33247e-20)
(-2.65605 -0.00667027 0)
(-2.64346 -0.00729328 0)
(-2.62959 -0.00791706 0)
(-2.61444 -0.00853021 0)
(-2.598 -0.0091418 7.19674e-20)
(-2.58028 -0.00974137 0)
(-2.56129 -0.0103365 0)
(-2.54104 -0.0109186 -6.43597e-20)
(-2.51952 -0.0114932 6.1672e-20)
(-2.49677 -0.0120541 0)
(-2.47278 -0.0126044 5.60505e-20)
(-2.44759 -0.0131406 0)
(-2.4212 -0.0136633 -5.00819e-20)
(-2.39364 -0.0141718 0)
(-2.36492 -0.014664 0)
(-2.33508 -0.0151412 0)
(-2.30413 -0.0155943 0)
(-2.27211 -0.0160376 0)
(-2.23904 -0.0164523 5.9783e-20)
(-2.20497 -0.0168519 5.23422e-20)
(-2.16991 -0.017222 0)
(-2.1339 -0.0175432 0)
(-2.09696 -0.0177871 0)
(-2.05916 -0.0178791 -2.034e-20)
(-2.02061 -0.0177614 0)
(-1.98135 -0.017527 0)
(-1.94133 -0.017588 0)
(-1.90046 -0.017889 1.55615e-20)
(-1.85882 -0.018114 -2.52495e-20)
(-1.81644 -0.0183306 0)
(-1.77338 -0.0185311 0)
(-1.72967 -0.0187226 -5.62506e-20)
(-1.68535 -0.0189032 -6.72841e-20)
(-1.64044 -0.0190754 0)
(-1.59495 -0.019239 0)
(-1.54892 -0.0193961 1.02787e-19)
(-1.50234 -0.0195485 -1.1551e-19)
(-1.45526 -0.0196945 0)
(-1.40767 -0.0198432 0)
(-1.35962 -0.0199835 -1.568e-19)
(-1.31111 -0.0201249 0)
(-1.26219 -0.0202588 0)
(-1.21286 -0.0203937 -2.03561e-19)
(-1.16317 -0.0205279 0)
(-1.11311 -0.0206634 -2.38447e-19)
(-1.06271 -0.0208045 0)
(-1.01199 -0.0209516 0)
(-0.960933 -0.0211076 0)
(-0.909554 -0.0212741 3.19454e-19)
(-0.857847 -0.021452 0)
(-0.80581 -0.0216419 0)
(-0.753441 -0.0218435 0)
(-0.700741 -0.0220572 0)
(-0.647713 -0.0222844 0)
(-0.594356 -0.0225271 0)
(-0.54067 -0.0227889 5.15658e-19)
(-0.486647 -0.0230724 5.5214e-19)
(-0.432278 -0.0233804 0)
(-0.37755 -0.0237133 0)
(-0.322461 -0.0240692 0)
(-0.26702 -0.0244448 -7.3192e-19)
(-0.21126 -0.0248523 0)
(-0.15526 -0.0252671 1.70027e-18)
(-0.0991898 -0.0256218 -1.83848e-18)
(-0.0434551 -0.0257706 -1.99315e-18)
(0.011833 -0.0251742 2.06933e-18)
(0.0633252 -0.023284 -2.02381e-18)
(0.120123 -0.020752 1.96213e-18)
(0.136044 -0.00925628 0)
(-0.000262386 0.0204929 0)
(-0.00581579 0.0358267 0)
(-0.0123379 0.0368986 2.15715e-18)
(-0.0126352 0.0272375 0)
(0.00160457 0.00500093 -2.24229e-18)
(0.0313887 -0.0321963 -1.42199e-18)
(0.0706645 -0.073739 -4.48481e-19)
(0.115444 -0.107686 -3.20383e-19)
(0.161723 -0.128457 0)
(0.206071 -0.135752 -2.09834e-19)
(0.246318 -0.13225 0)
(0.281526 -0.121356 0)
(0.311377 -0.105965 3.13079e-19)
(0.335892 -0.0881542 1.49153e-19)
(0.355296 -0.0692727 -2.90774e-19)
(0.369904 -0.0500884 -2.87398e-19)
(0.380102 -0.0309813 -1.43699e-19)
(0.386071 -0.0120841 0)
(0.388794 0.00661895 0)
(0.388196 0.0249686 0)
(0.383899 0.042612 -1.51854e-19)
(0.375402 0.0590127 0)
(0.362142 0.0734322 4.85605e-19)
(0.343624 0.0848872 0)
(0.319619 0.0922552 0)
(0.290332 0.0944364 1.96214e-19)
(0.256617 0.0906762 0)
(0.220086 0.080994 -2.47907e-19)
(0.18306 0.0664166 -5.79853e-19)
(0.148471 0.0487279 3.46586e-19)
(0.119433 0.0295643 0)
(0.0992405 0.00981103 0)
(0.0893265 -0.0106929 0)
(0.0913957 -0.0310197 -1.03223e-18)
(0.103852 -0.0510789 -8.71974e-19)
(0.123173 -0.0684947 -3.607e-19)
(0.143333 -0.076397 0)
(0.158404 -0.0713215 5.21497e-19)
(0.165669 -0.0559556 0)
(0.164703 -0.0357092 -5.03686e-19)
(0.156207 -0.0173241 0)
(0.140904 -0.00521316 0)
(0.118437 0.00193647 6.39641e-19)
(0.0829759 0.00888524 0)
(0.0247723 0.0227864 2.4633e-18)
(-0.069245 0.054522 -6.2092e-19)
(-0.190102 0.0977805 0)
(-0.321784 0.142754 -2.66179e-19)
(-0.459818 0.185704 -1.98178e-19)
(-0.603612 0.221677 0)
(-0.748939 0.248944 0)
(-0.892202 0.267687 0)
(-1.03135 0.277461 0)
(-1.16239 0.279178 0)
(-1.28257 0.2743 8.32348e-20)
(-1.39156 0.263689 1.57089e-19)
(-1.48958 0.248419 -7.42084e-20)
(-1.57605 0.230764 0)
(-1.65261 0.212601 1.37344e-19)
(-1.72044 0.194325 -6.68596e-20)
(-1.78067 0.176919 0)
(-1.83509 0.160824 -6.27207e-20)
(-1.8845 0.146117 0)
(-1.9299 0.133062 0)
(-1.97194 0.121602 -1.18026e-19)
(-2.01115 0.111551 5.79043e-20)
(-2.04804 0.102783 -1.13998e-19)
(-2.08293 0.0951215 1.12197e-19)
(-2.11608 0.0884147 5.52555e-20)
(-2.14765 0.0824976 0)
(-2.1778 0.0772446 5.37143e-20)
(-2.20661 0.0725342 0)
(-2.23418 0.0682736 0)
(-2.26056 0.0643809 0)
(-2.2858 0.0607915 5.08664e-20)
(-2.30993 0.0574537 0)
(-2.33299 0.0543229 9.92377e-20)
(-2.355 0.0513696 -1.47016e-19)
(-2.37597 0.0485616 -4.84134e-20)
(-2.39593 0.0458845 0)
(-2.41488 0.0433124 -4.71919e-20)
(-2.43283 0.0408408 0)
(-2.44979 0.038447 -9.19693e-20)
(-2.46577 0.036133 0)
(-2.48077 0.0338782 -8.95658e-20)
(-2.49478 0.0316897 1.76622e-19)
(-2.50782 0.029549 8.71626e-20)
(-2.51988 0.0274633 0)
(-2.53097 0.0254167 0)
(-2.54109 0.0234036 0)
(-2.55021 0.0214183 -8.23137e-20)
(-2.55831 0.0194555 0)
(-2.5654 0.0175036 7.98396e-20)
(-2.57149 0.0155552 0)
(-2.57659 0.0135987 -2.31983e-19)
(-2.58073 0.0116305 -7.60568e-20)
(-2.58392 0.00964046 -7.47791e-20)
(-2.58623 0.0076292 0)
(-2.58771 0.00561495 0)
(-2.58846 0.0036585 0)
(-2.58856 0.00182874 0)
(-2.5877 0.00011587 0)
(-2.58573 -0.00154068 -1.33674e-19)
(-2.5826 -0.00317246 -1.30877e-19)
(-2.5783 -0.00478532 0)
(-2.5728 -0.00638698 6.25019e-20)
(-2.5661 -0.00797216 6.10341e-20)
(-2.55818 -0.00954678 0)
(-2.54902 -0.0111018 1.1628e-19)
(-2.53863 -0.0126443 0)
(-2.52699 -0.0141631 -5.51846e-20)
(-2.51409 -0.0156664 0)
(-2.49994 -0.0171417 0)
(-2.48452 -0.0185978 1.00411e-19)
(-2.46783 -0.0200217 0)
(-2.44988 -0.021422 -4.66254e-20)
(-2.43067 -0.0227864 0)
(-2.41021 -0.0241227 0)
(-2.3885 -0.02542 -4.16644e-20)
(-2.36555 -0.0266846 -3.93493e-20)
(-2.34139 -0.0279079 0)
(-2.31601 -0.0290938 3.59715e-20)
(-2.28945 -0.0302369 0)
(-2.26171 -0.0313385 -3.19627e-20)
(-2.23282 -0.0323963 -5.92232e-20)
(-2.2028 -0.0334093 0)
(-2.17167 -0.0343782 0)
(-2.13947 -0.0352991 0)
(-2.10621 -0.0361748 0)
(-2.07194 -0.037002 -3.6449e-20)
(-2.03668 -0.0377844 -9.6561e-20)
(-2.00047 -0.0385158 0)
(-1.96331 -0.0391958 0)
(-1.92525 -0.0398257 0)
(-1.88628 -0.0404311 1.20697e-20)
(-1.84644 -0.0410209 0)
(-1.80574 -0.0415991 0)
(-1.76422 -0.0421378 5.7229e-21)
(-1.72195 -0.0426064 7.51115e-21)
(-1.67895 -0.0430038 1.44459e-20)
(-1.63522 -0.043355 0)
(-1.59082 -0.043664 0)
(-1.54577 -0.0439402 3.13895e-20)
(-1.5001 -0.0441821 -3.56719e-20)
(-1.45383 -0.0443936 0)
(-1.40699 -0.0445732 0)
(-1.35958 -0.0447237 -5.52428e-20)
(-1.31163 -0.0448482 1.82753e-19)
(-1.26316 -0.0449475 0)
(-1.21419 -0.0450295 0)
(-1.16475 -0.0450886 8.07173e-20)
(-1.11483 -0.045127 0)
(-1.06448 -0.0451426 1.86597e-19)
(-1.01371 -0.0451357 -9.93368e-20)
(-0.962558 -0.0451121 0)
(-0.911026 -0.0450713 1.152e-19)
(-0.859139 -0.0450226 2.43273e-19)
(-0.806905 -0.0449675 0)
(-0.75433 -0.0449114 0)
(-0.701418 -0.0448575 -1.45255e-19)
(-0.648166 -0.044808 0)
(-0.594571 -0.0447632 3.20641e-19)
(-0.540632 -0.0447219 0)
(-0.486347 -0.0446833 0)
(-0.431718 -0.0446473 0)
(-0.376744 -0.0446164 0)
(-0.321422 -0.0445935 -2.0425e-19)
(-0.265746 -0.0445824 -2.13454e-19)
(-0.209705 -0.044585 0)
(-0.153289 -0.0446016 0)
(-0.0964926 -0.0446257 0)
(-0.0393264 -0.0446402 2.52544e-19)
(0.0181822 -0.0446103 0)
(0.0759753 -0.044488 -5.21237e-19)
(0.133935 -0.0442125 5.22637e-19)
(0.19178 -0.0436427 5.24077e-19)
(0.24943 -0.0424046 5.22456e-19)
(0.304605 -0.0400732 5.28467e-19)
(0.362349 -0.0358314 5.30642e-19)
(0.398359 -0.0231425 0)
(0.000317433 0.0231814 0)
(0.000801423 0.0399628 0)
(0.00673112 0.0323678 -2.30661e-18)
(0.0271554 -0.00160871 -1.60991e-18)
(0.0670045 -0.0617153 9.56182e-19)
(0.118577 -0.127788 6.21879e-19)
(0.171468 -0.180037 -3.6605e-22)
(0.218734 -0.20986 0)
(0.257773 -0.218181 0)
(0.288634 -0.210266 0)
(0.312558 -0.191944 0)
(0.331006 -0.167926 0)
(0.345191 -0.141404 -7.12549e-19)
(0.355966 -0.11426 0)
(0.363898 -0.0875011 2.27321e-19)
(0.369357 -0.0615993 2.26743e-19)
(0.372613 -0.0367363 0)
(0.373859 -0.0129773 0)
(0.373345 0.00970687 0)
(0.371399 0.0314866 0)
(0.368285 0.0525082 2.41512e-19)
(0.364181 0.0727115 0)
(0.359013 0.091732 -2.58694e-19)
(0.352396 0.108825 0)
(0.34365 0.122876 0)
(0.331915 0.132466 0)
(0.316394 0.136108 -6.46581e-19)
(0.296738 0.132586 0)
(0.273462 0.121386 3.83251e-19)
(0.248135 0.102849 -8.54197e-19)
(0.22328 0.0780861 0)
(0.201821 0.0484798 0)
(0.186379 0.0157077 0)
(0.177191 -0.0191777 6.32901e-19)
(0.173313 -0.0527212 5.58918e-19)
(0.168177 -0.0749379 0)
(0.154843 -0.076515 0)
(0.132919 -0.0600721 -7.68022e-19)
(0.103439 -0.0331633 -7.89387e-19)
(0.0666366 -0.000467147 8.7663e-19)
(0.0203527 0.033379 0)
(-0.0460542 0.0656005 0)
(-0.138417 0.104907 0)
(-0.250443 0.15488 0)
(-0.378527 0.210128 -3.96911e-19)
(-0.517065 0.26608 -3.1457e-19)
(-0.658673 0.318742 2.58194e-19)
(-0.797495 0.363414 0)
(-0.929434 0.398664 0)
(-1.05077 0.423539 0)
(-1.1597 0.437084 0)
(-1.2556 0.439646 -1.43875e-19)
(-1.33832 0.432231 0)
(-1.4088 0.416537 0)
(-1.46883 0.394659 -1.19732e-19)
(-1.5207 0.368536 -1.13255e-19)
(-1.56657 0.340018 0)
(-1.60829 0.31119 2.12133e-19)
(-1.64709 0.283524 -1.0202e-19)
(-1.68384 0.257613 9.91926e-20)
(-1.71913 0.234026 0)
(-1.75339 0.212946 0)
(-1.78683 0.194282 0)
(-1.81954 0.177994 0)
(-1.85145 0.163846 8.82529e-20)
(-1.88255 0.151493 1.73315e-19)
(-1.91283 0.140679 8.50253e-20)
(-1.94229 0.131162 -8.35582e-20)
(-1.97089 0.122731 0)
(-1.99862 0.115195 1.61614e-19)
(-2.02548 0.108399 1.59048e-19)
(-2.05144 0.102209 1.56585e-19)
(-2.07651 0.096518 -1.54208e-19)
(-2.10068 0.0912375 0)
(-2.12394 0.0862966 -2.24567e-19)
(-2.1463 0.0816393 0)
(-2.16776 0.0772197 7.26009e-20)
(-2.18831 0.0730034 7.1686e-20)
(-2.20796 0.0689602 0)
(-2.22671 0.0650696 0)
(-2.24456 0.0613102 1.37105e-19)
(-2.2615 0.0576699 0)
(-2.27754 0.0541319 1.33116e-19)
(-2.29268 0.0506889 0)
(-2.30692 0.0473273 -1.29174e-19)
(-2.32024 0.0440434 -2.54516e-19)
(-2.33266 0.040826 0)
(-2.34417 0.0376725 0)
(-2.35479 0.034573 0)
(-2.36449 0.0315196 -1.19404e-19)
(-2.37327 0.0285079 0)
(-2.38111 0.0255323 -1.15487e-19)
(-2.38801 0.0225885 0)
(-2.39398 0.0196707 0)
(-2.39903 0.0167787 2.19141e-19)
(-2.40317 0.0139161 0)
(-2.4064 0.0110915 1.05595e-19)
(-2.40872 0.00831641 0)
(-2.41013 0.00559992 1.01595e-19)
(-2.41058 0.0029373 0)
(-2.41003 0.000295078 0)
(-2.40841 -0.00234773 0)
(-2.40569 -0.00498387 2.79426e-19)
(-2.40187 -0.00760229 9.09201e-20)
(-2.3969 -0.0102038 0)
(-2.39078 -0.012785 0)
(-2.38348 -0.0153467 0)
(-2.37501 -0.0178846 0)
(-2.36533 -0.0203983 -7.97976e-20)
(-2.35446 -0.0228833 1.55375e-19)
(-2.34236 -0.025338 7.51726e-20)
(-2.32904 -0.0277582 -1.46069e-19)
(-2.3145 -0.0301411 -1.41324e-19)
(-2.29872 -0.032483 -6.80067e-20)
(-2.28171 -0.0347802 0)
(-2.26346 -0.0370296 -1.26678e-19)
(-2.24398 -0.0392269 0)
(-2.22328 -0.04137 1.16542e-19)
(-2.20136 -0.0434542 5.53497e-20)
(-2.17824 -0.045478 0)
(-2.15392 -0.0474371 -1.00729e-19)
(-2.12842 -0.0493305 -4.72734e-20)
(-2.10176 -0.0511542 0)
(-2.07395 -0.0529074 -4.24748e-20)
(-2.04502 -0.0545874 1.17272e-19)
(-2.01499 -0.0561934 0)
(-1.98388 -0.0577234 0)
(-1.95171 -0.0591758 0)
(-1.91852 -0.0605505 0)
(-1.88434 -0.0618472 4.87397e-20)
(-1.84919 -0.0630644 4.16178e-20)
(-1.8131 -0.0641977 0)
(-1.77609 -0.0652414 0)
(-1.73818 -0.0661937 0)
(-1.6994 -0.067067 0)
(-1.65977 -0.0678716 0)
(-1.61933 -0.0686237 0)
(-1.5781 -0.0693329 -3.57774e-21)
(-1.53615 -0.0699808 -1.05765e-21)
(-1.49347 -0.0705469 0)
(-1.4501 -0.0710431 0)
(-1.40606 -0.0714748 -2.9519e-20)
(-1.36137 -0.0718495 0)
(-1.31608 -0.0721687 4.43847e-20)
(-1.27018 -0.0724361 5.02327e-20)
(-1.22371 -0.0726519 0)
(-1.17669 -0.0728203 0)
(-1.12912 -0.0729441 -7.24603e-20)
(-1.08104 -0.0730283 -1.56921e-19)
(-1.03246 -0.0730775 0)
(-0.983398 -0.0730918 0)
(-0.933876 -0.0730673 0)
(-0.883907 -0.0730059 -1.08565e-19)
(-0.833521 -0.0729045 1.1592e-19)
(-0.782735 -0.0727722 0)
(-0.73157 -0.0726095 2.59253e-19)
(-0.680041 -0.0724273 1.35957e-19)
(-0.628161 -0.0722303 -2.89367e-19)
(-0.575935 -0.0720253 0)
(-0.523367 -0.0718175 0)
(-0.470457 -0.0716101 -3.35246e-19)
(-0.417202 -0.0714038 -1.76561e-19)
(-0.363599 -0.0711963 0)
(-0.309649 -0.0709859 0)
(-0.25535 -0.070772 0)
(-0.200702 -0.0705575 0)
(-0.145701 -0.0703454 -4.29503e-19)
(-0.0903396 -0.0701404 0)
(-0.0346095 -0.0699445 0)
(0.0215005 -0.0697561 0)
(0.0779986 -0.069564 0)
(0.134883 -0.0693458 0)
(0.192129 -0.0690556 0)
(0.24968 -0.0686294 -5.01983e-19)
(0.307443 -0.0679795 0)
(0.365197 -0.0669344 0)
(0.422925 -0.0651877 -1.04341e-18)
(0.479064 -0.0622244 5.27426e-19)
(0.537476 -0.0570305 -5.38622e-19)
(0.583377 -0.0442663 5.50135e-19)
(-0.00116655 0.0232504 0)
(0.00207008 0.0263937 5.01184e-18)
(0.024139 -0.016313 0)
(0.0723592 -0.0999963 8.53162e-19)
(0.133444 -0.187904 0)
(0.191067 -0.251578 0)
(0.236026 -0.282363 -3.21611e-19)
(0.267121 -0.285313 0)
(0.287201 -0.269936 0)
(0.299915 -0.244586 0)
(0.308157 -0.214736 0)
(0.313747 -0.183412 0)
(0.317658 -0.152131 8.04569e-19)
(0.320338 -0.121584 3.95623e-19)
(0.321946 -0.0920772 -3.92969e-19)
(0.322522 -0.0637427 0)
(0.322078 -0.0366372 0)
(0.320628 -0.0107952 0)
(0.318224 0.0137713 0)
(0.314961 0.0370954 0)
(0.310982 0.0592229 4.25289e-19)
(0.306506 0.0801661 4.36713e-19)
(0.301748 0.0998384 -4.52808e-19)
(0.296822 0.117934 4.7473e-19)
(0.29164 0.133826 0)
(0.285866 0.146492 0)
(0.278909 0.154501 5.74886e-19)
(0.27002 0.156152 0)
(0.258598 0.149882 0)
(0.244446 0.134566 7.39958e-19)
(0.228197 0.109982 8.25162e-19)
(0.210931 0.0771187 9.33326e-19)
(0.194049 0.038182 0)
(0.176842 -0.00238386 0)
(0.152551 -0.0327256 -9.58642e-19)
(0.115903 -0.0395048 0)
(0.0682913 -0.0228444 0)
(0.0106134 0.0107323 7.68147e-19)
(-0.0601735 0.0557906 -6.86681e-19)
(-0.147041 0.110433 5.4735e-19)
(-0.248666 0.171965 0)
(-0.364153 0.235801 0)
(-0.489791 0.30009 5.83376e-19)
(-0.619717 0.363421 0)
(-0.748449 0.422163 4.17699e-19)
(-0.870914 0.471223 5.4987e-19)
(-0.982383 0.508521 -4.90448e-19)
(-1.08061 0.53404 2.96624e-19)
(-1.16482 0.547631 0)
(-1.23483 0.549964 0)
(-1.29206 0.542156 2.35768e-19)
(-1.33843 0.525699 1.09958e-19)
(-1.37626 0.502494 0)
(-1.40804 0.474615 0)
(-1.43603 0.444037 9.43968e-20)
(-1.46202 0.41229 1.82644e-19)
(-1.48736 0.38064 0)
(-1.51295 0.350239 -1.68548e-19)
(-1.53917 0.321836 1.64305e-19)
(-1.56612 0.295743 -1.59458e-19)
(-1.59372 0.272087 0)
(-1.62181 0.25088 0)
(-1.65021 0.23197 0)
(-1.6787 0.215203 0)
(-1.70707 0.200354 0)
(-1.73517 0.187157 -1.37792e-19)
(-1.76284 0.17538 0)
(-1.79 0.164809 0)
(-1.81657 0.155256 0)
(-1.84247 0.146554 -2.56286e-19)