/*--------------------------------*- C++ -*----------------------------------*\
  =========                 |
  \\      /  F ield         | OpenFOAM: The Open Source CFD Toolbox
   \\    /   O peration     | Website:  https://openfoam.org
    \\  /    A nd           | Version:  8
     \\/     M anipulation  |
\*---------------------------------------------------------------------------*/
FoamFile
{
    version     2.0;
    format      ascii;
    class       volScalarField;
    location    "1700";
    object      k;
}
// * * * * * * * * * * * * * * * * * * * * * * * * * * * * * * * * * * * * * //

dimensions      [0 2 -2 0 0 0 0];

internalField   nonuniform List<scalar> 
12225
(
0.464579
2.28834
2.06055
2.04443
2.07954
1.83036
1.97423
1.37058
2.58114
2.05501
1.96075
1.39435
2.18673
1.99455
1.58279
1.50196
1.38478
2.50479
0.373278
0.451107
0.513474
0.555102
0.637795
0.65336
0.71431
0.688788
0.729851
0.756687
0.792216
0.793798
0.83762
0.870193
0.882168
0.906066
0.899482
0.921241
0.373095
0.378983
0.382945
0.389867
0.391687
0.386782
0.389712
0.384971
0.379766
0.37767
0.375981
0.371617
0.371507
0.371923
0.372148
0.37415
0.373678
0.376356
0.373368
0.371973
0.369582
0.367544
0.366312
0.364928
0.362712
0.359685
0.355559
0.351607
0.346425
0.339563
0.332387
0.324186
0.317247
0.309628
0.303154
0.297443
0.373605
0.371142
0.368469
0.366303
0.364363
0.362664
0.360503
0.358374
0.355714
0.352885
0.349349
0.3447
0.339739
0.333538
0.328291
0.321945
0.31704
0.31168
0.373679
0.371133
0.368555
0.366329
0.364206
0.362381
0.360369
0.358488
0.356408
0.354247
0.35173
0.348682
0.345311
0.341391
0.337665
0.333583
0.330127
0.326459
0.373678
0.371152
0.368665
0.366424
0.364255
0.362314
0.360361
0.358547
0.356709
0.354868
0.352886
0.350681
0.348291
0.345643
0.34305
0.340286
0.337876
0.335323
0.373671
0.371148
0.368701
0.366446
0.364272
0.362273
0.360329
0.358512
0.356742
0.355014
0.353257
0.35141
0.349492
0.347438
0.345432
0.343327
0.341455
0.33949
0.373672
0.371126
0.368695
0.366426
0.364256
0.362225
0.360283
0.358453
0.356704
0.355022
0.353374
0.351713
0.350052
0.348333
0.346667
0.344952
0.343392
0.341785
0.37367
0.371114
0.368687
0.366402
0.364232
0.362181
0.360234
0.358389
0.35664
0.354969
0.353367
0.351802
0.350281
0.348766
0.347305
0.345845
0.344487
0.343125
0.373672
0.371102
0.368672
0.366377
0.364202
0.362141
0.360187
0.358333
0.356574
0.354901
0.353309
0.351779
0.350317
0.348896
0.347537
0.346212
0.34496
0.343738
0.373669
0.371096
0.368662
0.366359
0.364178
0.36211
0.36015
0.358287
0.356521
0.354841
0.353245
0.351723
0.350273
0.348885
0.34756
0.34629
0.345079
0.34392
0.373669
0.371091
0.368653
0.366345
0.364159
0.362087
0.360119
0.358254
0.356479
0.354795
0.353192
0.351668
0.350216
0.348834
0.347514
0.346257
0.345056
0.343911
0.373667
0.371088
0.368647
0.366335
0.364145
0.362068
0.360098
0.358226
0.356449
0.354758
0.353152
0.351622
0.350168
0.34878
0.34746
0.3462
0.345
0.343855
0.373666
0.371086
0.368642
0.366328
0.364135
0.362055
0.360081
0.358206
0.356425
0.354731
0.353121
0.351588
0.350129
0.34874
0.347415
0.346154
0.34495
0.343803
0.373666
0.371084
0.36864
0.366323
0.364128
0.362046
0.360069
0.358192
0.356408
0.354712
0.353099
0.351564
0.350102
0.34871
0.347383
0.346119
0.344913
0.343763
0.373665
0.371084
0.368639
0.366321
0.364125
0.362041
0.360063
0.358184
0.356399
0.354701
0.353086
0.35155
0.350086
0.348693
0.347364
0.346099
0.344891
0.34374
0.373665
0.371085
0.368639
0.366322
0.364123
0.36204
0.360059
0.358182
0.356394
0.354697
0.35308
0.351544
0.350078
0.348685
0.347355
0.346089
0.34488
0.343728
0.373666
0.371085
0.36864
0.366322
0.364126
0.36204
0.360062
0.358181
0.356396
0.354697
0.353082
0.351543
0.35008
0.348684
0.347356
0.346087
0.34488
0.343727
0.373666
0.371086
0.368641
0.366325
0.364129
0.362046
0.360067
0.35819
0.356404
0.354707
0.353091
0.351555
0.350091
0.348697
0.347368
0.346102
0.344893
0.343742
0.373666
0.371087
0.368644
0.36633
0.364135
0.362054
0.360078
0.358202
0.356418
0.354723
0.353109
0.351574
0.350112
0.348719
0.347392
0.346126
0.34492
0.343768
0.373667
0.371089
0.368649
0.366337
0.364145
0.362067
0.360094
0.35822
0.356439
0.354746
0.353135
0.351602
0.350142
0.34875
0.347424
0.346158
0.344952
0.3438
0.373668
0.371093
0.368655
0.366348
0.364161
0.362086
0.360114
0.358242
0.35646
0.354769
0.353157
0.351626
0.350163
0.348771
0.347438
0.346167
0.34495
0.343788
0.37367
0.371098
0.368669
0.366374
0.364192
0.362114
0.360128
0.358242
0.356443
0.354743
0.35312
0.351581
0.3501
0.348689
0.347325
0.346019
0.344758
0.343549
0.373674
0.371111
0.368716
0.366459
0.364275
0.362149
0.36008
0.358124
0.356256
0.354524
0.352854
0.351287
0.349743
0.34827
0.346807
0.3454
0.344011
0.342675
0.373689
0.371182
0.368956
0.366816
0.364563
0.362233
0.359922
0.3578
0.355788
0.353987
0.352192
0.350539
0.348823
0.347192
0.3455
0.343854
0.342185
0.340567
0.373796
0.371764
0.370212
0.368447
0.366
0.363193
0.360452
0.357981
0.355707
0.353663
0.351595
0.349643
0.347554
0.34567
0.343626
0.341547
0.339465
0.337338
0.374948
0.376021
0.377211
0.377313
0.375677
0.372258
0.369235
0.366185
0.363975
0.361004
0.359578
0.355493
0.353798
0.353882
0.353266
0.351963
0.351157
0.349709
0.388399
0.412053
0.436423
0.453909
0.469349
0.478695
0.489524
0.498086
0.509757
0.519336
0.531333
0.541658
0.553482
0.56458
0.576895
0.588602
0.601898
0.612717
0.798916
1.1141
1.3452
1.48167
1.55369
1.56911
1.56267
1.54436
1.51376
1.48037
1.44714
1.41543
1.386
1.35906
1.33465
1.31261
1.29278
1.27519
1.89067e-08
4.64382e-07
2.37075e-06
9.35883e-06
3.1255e-05
9.49814e-05
0.000247694
0.000492772
0.000799085
0.00112219
0.00141302
0.00163913
0.00179133
0.00185055
0.00182856
0.00175751
0.00161953
0.00138948
0.00118476
0.0010087
0.000841441
0.000678726
0.000521033
0.000374605
0.000243949
0.000142586
7.54188e-05
3.77765e-05
1.91249e-05
1.03656e-05
6.26301e-06
4.7375e-06
5.2303e-06
1.10244e-05
2.40025e-05
0.000152294
0.000344545
0.000773489
0.00117119
0.00128387
0.0011829
0.00095277
0.000786895
0.000752945
0.000812508
0.00106469
0.0013846
0.00266213
0.00582598
0.0173527
0.0484678
0.0898927
0.123571
0.13964
0.134251
0.108595
0.131341
0.126133
0.150815
0.149779
0.163595
0.17835
0.156345
0.174383
0.180767
0.190652
0.198488
0.207229
0.215113
0.22326
0.231044
0.23884
0.246461
0.254031
0.261482
0.268875
0.276166
0.283398
0.290536
0.297613
0.304597
0.311516
0.31834
0.325092
0.331746
0.338318
0.344784
0.351155
0.357411
0.363556
0.369574
0.375461
0.381202
0.38679
0.392213
0.397463
0.402531
0.407418
0.412138
0.416726
0.421266
0.425606
0.429821
0.433883
0.437799
0.441562
0.445171
0.448619
0.451908
0.455031
0.457988
0.460774
0.463389
0.465829
0.468094
0.47018
0.472088
0.473816
0.475363
0.476729
0.477913
0.478916
0.479738
0.48038
0.480842
0.48113
0.481243
0.481216
0.480976
0.48072
0.479945
0.479332
0.478309
0.477355
0.476269
0.475027
0.473635
0.471928
0.470138
0.468166
0.466087
0.463875
0.461555
0.459119
0.456583
0.453945
0.451219
0.448405
0.445514
0.442552
0.439536
0.436425
0.43331
0.430067
0.426852
0.423551
0.420264
0.416949
0.413639
0.410335
0.407042
0.403766
0.400506
0.397268
0.394053
0.390868
0.387717
0.38461
0.381549
0.37854
0.375581
0.372666
0.369782
0.366899
0.363971
0.360909
0.357589
0.353695
0.348602
0.332704
7.94316e-08
2.2246e-06
1.50967e-05
6.63237e-05
0.000246513
0.000755092
0.0017532
0.0031933
0.00486781
0.00658851
0.00816278
0.00945741
0.0104108
0.011021
0.0113031
0.0112652
0.0110829
0.0107287
0.0101228
0.00929012
0.00823262
0.00700637
0.00566089
0.00430319
0.00298213
0.00197087
0.00124736
0.000769008
0.000465187
0.000283377
0.000180884
0.000134125
0.000103005
0.000170537
0.000217648
0.00159074
0.00350704
0.00728644
0.0105556
0.0123673
0.0123273
0.0118643
0.0117039
0.0128814
0.0164632
0.0217216
0.030874
0.047002
0.0723436
0.0962652
0.121528
0.142836
0.16079
0.175082
0.188227
0.203329
0.220213
0.236489
0.255309
0.274221
0.293828
0.313103
0.332056
0.352292
0.37142
0.390689
0.409401
0.428037
0.446337
0.464511
0.482483
0.500335
0.518058
0.535686
0.553222
0.570682
0.588068
0.605385
0.622632
0.639812
0.656917
0.673947
0.690893
0.707752
0.724511
0.741167
0.757703
0.774113
0.790379
0.806491
0.822434
0.838188
0.853734
0.869052
0.884121
0.898913
0.913398
0.927542
0.941306
0.95465
0.967554
0.980274
0.992685
1.00484
1.01671
1.02828
1.03955
1.0505
1.06112
1.07141
1.08135
1.09093
1.10015
1.109
1.11746
1.12553
1.13321
1.14048
1.14734
1.15378
1.15979
1.16538
1.17053
1.17524
1.17951
1.18333
1.18672
1.18965
1.19214
1.1942
1.19579
1.19696
1.19754
1.19787
1.19797
1.19766
1.19709
1.19638
1.19521
1.19365
1.19171
1.1894
1.18675
1.18374
1.18041
1.17675
1.17278
1.16852
1.16397
1.15916
1.15408
1.14878
1.1432
1.13742
1.1314
1.1252
1.11884
1.11234
1.10571
1.09898
1.09216
1.08526
1.07829
1.07125
1.06415
1.057
1.04981
1.0426
1.03538
1.02817
1.02095
1.01373
1.00648
0.999153
0.991677
0.98393
0.975691
0.966648
0.954841
0.928025
2.16474e-07
6.50082e-06
4.98158e-05
0.000240469
0.000715318
0.00204398
0.00415047
0.00660126
0.0090574
0.0112846
0.0131456
0.0145804
0.0155878
0.0161934
0.0164546
0.0164196
0.0162335
0.0158677
0.0153195
0.0146351
0.0138078
0.0128316
0.0116856
0.0103755
0.00891146
0.00724703
0.00552678
0.00399257
0.00266377
0.00176209
0.00120655
0.000901794
0.000678774
0.000984024
0.00162376
0.0067289
0.0145444
0.0232211
0.029588
0.0332873
0.0346594
0.0369877
0.044067
0.0596095
0.0771732
0.095231
0.11537
0.136379
0.155815
0.176961
0.198304
0.220364
0.243118
0.26748
0.294055
0.321904
0.351056
0.380635
0.409758
0.438638
0.467076
0.494901
0.522255
0.54893
0.574984
0.600533
0.625586
0.650259
0.674585
0.698635
0.722447
0.746063
0.769512
0.792819
0.815998
0.839063
0.86202
0.884872
0.907619
0.93026
0.952788
0.9752
0.997485
1.01964
1.04164
1.06349
1.08517
1.10667
1.12796
1.14905
1.16992
1.19055
1.21091
1.23101
1.25082
1.27034
1.28954
1.30843
1.327
1.34525
1.36317
1.38075
1.39797
1.41482
1.43126
1.4473
1.46292
1.4781
1.49282
1.50708
1.52087
1.53416
1.54695
1.55923
1.57098
1.5822
1.59288
1.603
1.61257
1.62156
1.62997
1.63781
1.64505
1.6517
1.65775
1.6632
1.66805
1.67229
1.67593
1.67896
1.68139
1.68324
1.68441
1.68505
1.68529
1.68501
1.68415
1.68278
1.68085
1.67839
1.67541
1.67192
1.66793
1.66346
1.65853
1.65315
1.64733
1.6411
1.63448
1.62747
1.62009
1.61239
1.60431
1.59594
1.58724
1.5783
1.56909
1.55967
1.55006
1.54029
1.53036
1.52032
1.51015
1.49988
1.48951
1.47906
1.46854
1.45797
1.44738
1.43677
1.42617
1.41556
1.40494
1.39428
1.38352
1.37258
1.36127
1.34935
1.3349
1.3099
8.02155e-07
2.40831e-05
0.000189708
0.000795326
0.00229354
0.00542881
0.00913407
0.0127399
0.015873
0.018355
0.0201492
0.0212926
0.0218971
0.0220159
0.0218862
0.0215314
0.0209598
0.0202703
0.0194944
0.0186483
0.0177332
0.0167451
0.015666
0.0144743
0.0131513
0.0116734
0.010062
0.00837756
0.00680368
0.0052337
0.0041148
0.0030095
0.00310202
0.00470269
0.0116538
0.0264781
0.041138
0.0527241
0.0614586
0.069574
0.079667
0.092887
0.108557
0.124043
0.139996
0.156981
0.176793
0.198067
0.221232
0.247113
0.274777
0.304495
0.335723
0.368303
0.401816
0.43587
0.470005
0.504015
0.537589
0.570716
0.603274
0.635192
0.666521
0.697239
0.727423
0.757131
0.786431
0.815387
0.84405
0.872471
0.90069
0.928741
0.956649
0.984432
1.0121
1.03967
1.06714
1.0945
1.12176
1.14891
1.17593
1.20283
1.22959
1.25619
1.28262
1.30888
1.33494
1.36079
1.38641
1.41179
1.43692
1.46178
1.48634
1.51061
1.53457
1.5582
1.58149
1.60443
1.62701
1.64921
1.67101
1.69238
1.71331
1.73377
1.75375
1.77322
1.79216
1.81057
1.82842
1.84569
1.86238
1.87847
1.89394
1.90878
1.92297
1.93651
1.94939
1.96159
1.9731
1.98391
1.99403
2.00343
2.01211
2.02007
2.02731
2.03381
2.03957
2.04461
2.0489
2.05246
2.05529
2.0574
2.05871
2.05932
2.05944
2.05884
2.05752
2.05554
2.05289
2.0496
2.04567
2.04112
2.03596
2.03023
2.02392
2.01707
2.00968
2.00178
1.9934
1.98455
1.97525
1.96553
1.95538
1.94486
1.93395
1.9227
1.91115
1.89931
1.88723
1.87494
1.86245
1.84979
1.83698
1.82403
1.81096
1.79777
1.7845
1.77116
1.75777
1.74437
1.73098
1.71759
1.70422
1.69085
1.67747
1.66403
1.6504
1.63644
1.62048
1.59725
2.74306e-06
8.23269e-05
0.000616061
0.00235199
0.00646307
0.0120028
0.0171533
0.0212746
0.0242048
0.0260418
0.026999
0.0272767
0.0271338
0.026697
0.0259874
0.0251492
0.0242368
0.0232887
0.0223273
0.0213612
0.0203866
0.0193936
0.0183632
0.0172724
0.0160952
0.0147987
0.0133784
0.0118823
0.0104258
0.00896451
0.00744181
0.00771374
0.0114038
0.0235496
0.0443287
0.064223
0.0807514
0.093621
0.104481
0.115163
0.126647
0.139148
0.152642
0.167941
0.186304
0.207535
0.231608
0.258461
0.287682
0.319065
0.351985
0.386228
0.421364
0.457154
0.493325
0.529694
0.566027
0.602236
0.63818
0.673791
0.709023
0.743819
0.778186
0.812135
0.845706
0.878937
0.911875
0.944563
0.977042
1.00935
1.04152
1.07357
1.10552
1.13739
1.16918
1.20089
1.23252
1.26407
1.29552
1.32687
1.3581
1.38919
1.42014
1.45093
1.48154
1.51195
1.54215
1.57211
1.60182
1.63127
1.66044
1.6893
1.71785
1.74605
1.77391
1.80139
1.82849
1.85518
1.88144
1.90725
1.93258
1.9574
1.9817
2.00545
2.02863
2.05122
2.07319
2.09452
2.1152
2.13521
2.15453
2.17313
2.19101
2.20816
2.22455
2.24017
2.25501
2.26906
2.2823
2.29473
2.30634
2.31711
2.32705
2.33615
2.3444
2.35179
2.35833
2.36402
2.36884
2.37281
2.37593
2.37821
2.37955
2.38008
2.37999
2.37903
2.37726
2.37469
2.37137
2.36728
2.36247
2.35693
2.35069
2.34377
2.33619
2.32798
2.31914
2.3097
2.2997
2.28915
2.27807
2.2665
2.25445
2.24194
2.22899
2.21564
2.20192
2.18787
2.17352
2.15891
2.14406
2.12901
2.11377
2.09836
2.0828
2.06711
2.0513
2.03541
2.01947
2.00351
1.98755
1.97163
1.95575
1.93992
1.92415
1.90845
1.89274
1.87693
1.85963
1.83699
8.74522e-06
0.0002561
0.00182464
0.00646259
0.0145104
0.0215678
0.0265913
0.029691
0.0313147
0.0319261
0.0318586
0.0314223
0.0305869
0.0295663
0.0284459
0.0272902
0.0261435
0.025033
0.023971
0.0229571
0.0219811
0.0210267
0.0200688
0.0190763
0.0180235
0.0168452
0.0154829
0.0138859
0.0122012
0.0119097
0.0138974
0.0220159
0.0399201
0.0642748
0.0876644
0.106618
0.120489
0.130614
0.139352
0.148544
0.159124
0.172473
0.189143
0.209028
0.232384
0.258873
0.287983
0.319215
0.352045
0.386168
0.421244
0.457084
0.493499
0.530366
0.567566
0.605011
0.642596
0.680246
0.717874
0.755405
0.792793
0.829991
0.866983
0.903765
0.94035
0.976754
1.013
1.04912
1.08515
1.12109
1.15698
1.19282
1.22864
1.26443
1.3002
1.33593
1.37162
1.40725
1.44281
1.47827
1.51364
1.54887
1.58396
1.61888
1.65361
1.68813
1.72242
1.75646
1.79023
1.82371
1.85688
1.88971
1.92218
1.95428
1.98597
2.01725
2.04808
2.07844
2.1083
2.13763
2.16641
2.19462
2.22222
2.24919
2.2755
2.30113
2.32605
2.35025
2.37369
2.39635
2.41823
2.43929
2.45951
2.47889
2.49741
2.51505
2.53179
2.54762
2.56253
2.57651
2.58956
2.60165
2.61279
2.62296
2.63217
2.6404
2.64766
2.65395
2.65926
2.66359
2.66695
2.66935
2.67069
2.67114
2.67079
2.66948
2.66724
2.66411
2.6601
2.65524
2.64955
2.64304
2.63573
2.62765
2.61883
2.60927
2.59902
2.58808
2.5765
2.56429
2.55149
2.53812
2.5242
2.50976
2.49483
2.47944
2.46362
2.44742
2.43088
2.41402
2.39689
2.37952
2.36194
2.34415
2.32619
2.30807
2.28982
2.27147
2.25306
2.23463
2.21621
2.19783
2.17953
2.16133
2.14326
2.12536
2.1076
2.08992
2.07114
2.04817
2.81178e-05
0.000769956
0.00495934
0.0151242
0.0247544
0.0309081
0.0342939
0.0358892
0.0363435
0.0361023
0.0353532
0.0342076
0.032862
0.0314223
0.0299706
0.0285654
0.0272435
0.0260224
0.0249038
0.0238767
0.0229222
0.0220121
0.0211118
0.0201738
0.0192204
0.0183375
0.017695
0.0177296
0.0195369
0.0251753
0.0377705
0.0594264
0.0841608
0.107312
0.125975
0.13902
0.147916
0.155226
0.163109
0.173709
0.1879
0.205705
0.227186
0.25204
0.279854
0.309951
0.341733
0.374782
0.408816
0.443671
0.479215
0.515374
0.552091
0.589321
0.627022
0.665145
0.703627
0.742395
0.781384
0.820529
0.859777
0.899081
0.93841
0.977743
1.01707
1.05641
1.09574
1.1351
1.17449
1.21392
1.25341
1.29296
1.33257
1.37223
1.41194
1.45168
1.49142
1.53115
1.57083
1.61046
1.64999
1.6894
1.72867
1.76777
1.80668
1.84537
1.88381
1.92198
1.95986
1.99742
2.03463
2.07148
2.10792
2.14394
2.17952
2.21462
2.24921
2.28327
2.31676
2.34965
2.38192
2.41353
2.44446
2.47467
2.50414
2.53284
2.56073
2.5878
2.61402
2.63935
2.66379
2.68731
2.70988
2.73149
2.75213
2.77177
2.7904
2.80801
2.82457
2.84009
2.85454
2.86793
2.88024
2.89147
2.9016
2.91065
2.9186
2.92546
2.93121
2.93588
2.93945
2.94195
2.94325
2.9436
2.94297
2.94127
2.93855
2.93483
2.93013
2.92447
2.91788
2.91038
2.902
2.89275
2.88266
2.87176
2.86008
2.84764
2.83447
2.8206
2.80606
2.79089
2.77512
2.75875
2.74184
2.72441
2.7065
2.68816
2.66944
2.65036
2.63097
2.6113
2.59138
2.57124
2.5509
2.53037
2.5097
2.48892
2.46807
2.44719
2.42633
2.40554
2.38484
2.36429
2.34392
2.32381
2.30395
2.2843
2.26383
2.23988
8.48611e-05
0.00212578
0.011763
0.0254499
0.0338228
0.038229
0.0402864
0.0408826
0.0405698
0.039599
0.0381455
0.0364393
0.0346207
0.0328
0.031059
0.0294509
0.0280032
0.0267203
0.0255916
0.0245957
0.0237042
0.0228805
0.0220557
0.021243
0.0206414
0.0206443
0.0222076
0.0270155
0.0377724
0.0556224
0.0778298
0.100333
0.121159
0.138016
0.14995
0.158115
0.165012
0.173371
0.184729
0.199779
0.218656
0.241077
0.266659
0.29481
0.324902
0.356364
0.388836
0.422127
0.456143
0.49084
0.526199
0.562216
0.598895
0.636236
0.674221
0.712817
0.751979
0.791657
0.831794
0.872331
0.913215
0.954397
0.995838
1.03751
1.07939
1.12146
1.16373
1.20619
1.24885
1.29169
1.33473
1.37795
1.42134
1.46489
1.50857
1.55236
1.59622
1.64012
1.68402
1.72789
1.77168
1.81537
1.85892
1.90231
1.94549
1.98844
2.03113
2.07353
2.11561
2.15733
2.19868
2.23962
2.28012
2.32014
2.35967
2.39866
2.43709
2.47491
2.5121
2.54863
2.58444
2.61952
2.65383
2.68734
2.72001
2.75181
2.78271
2.81268
2.8417
2.86972
2.89674
2.92272
2.94765
2.9715
2.99425
3.01589
3.03639
3.05575
3.07395
3.09098
3.10682
3.12147
3.13492
3.14716
3.1582
3.16801
3.17662
3.184
3.19016
3.19511
3.19886
3.20139
3.20263
3.20283
3.20188
3.19976
3.19652
3.19216
3.18673
3.18024
3.17272
3.1642
3.15469
3.14424
3.13286
3.12058
3.10744
3.09346
3.07868
3.06313
3.04684
3.02985
3.01219
2.99388
2.97497
2.95549
2.93548
2.915
2.89409
2.87279
2.85113
2.82917
2.80692
2.78442
2.7617
2.73877
2.71568
2.69247
2.66919
2.64588
2.62259
2.59938
2.57629
2.55336
2.53068
2.50831
2.48627
2.46455
2.4422
2.41678
0.000221556
0.00503356
0.0214598
0.0346531
0.0414071
0.0445733
0.0456869
0.0455072
0.044478
0.0427974
0.040752
0.038527
0.0362761
0.0341201
0.0321452
0.0304029
0.0289182
0.0276946
0.0267232
0.0259854
0.0254964
0.0253341
0.025596
0.0266594
0.0289268
0.0332086
0.0412606
0.0547514
0.0720069
0.0913909
0.111003
0.128761
0.143385
0.154482
0.162996
0.170899
0.180334
0.192706
0.208664
0.228207
0.25102
0.276598
0.304392
0.333828
0.364431
0.395885
0.428044
0.460868
0.494362
0.528553
0.563475
0.599168
0.635663
0.672972
0.711094
0.750016
0.789711
0.830141
0.87126
0.913017
0.955364
0.998251
1.04164
1.08549
1.12978
1.17448
1.21959
1.26508
1.31094
1.35718
1.40376
1.45067
1.4979
1.54539
1.59313
1.64106
1.68915
1.73733
1.78556
1.83379
1.88197
1.93006
1.97801
2.02579
2.07336
2.12069
2.16774
2.21446
2.26084
2.30683
2.3524
2.39752
2.44215
2.48626
2.52981
2.57276
2.61509
2.65674
2.69769
2.73789
2.77731
2.81589
2.85362
2.89045
2.92634
2.96126
2.99518
3.02806
3.05987
3.09057
3.12016
3.14858
3.17583
3.20189
3.22672
3.25032
3.27266
3.29373
3.31351
3.33199
3.34916
3.36501
3.37954
3.39273
3.40459
3.41512
3.4243
3.43213
3.43863
3.4438
3.44764
3.45015
3.45127
3.45122
3.44989
3.4473
3.44346
3.43842
3.43219
3.42481
3.4163
3.40669
3.39602
3.3843
3.37158
3.35789
3.34325
3.32771
3.31128
3.29402
3.27595
3.25711
3.23754
3.21727
3.19634
3.17479
3.15267
3.13004
3.10694
3.08341
3.0595
3.03524
3.01067
2.98581
2.96071
2.93538
2.90988
2.88425
2.85854
2.83281
2.8071
2.78147
2.75597
2.73067
2.70564
2.68097
2.65669
2.63281
2.60842
2.58128
0.000494751
0.0101737
0.0311922
0.0428862
0.0483683
0.0506451
0.0510255
0.0501787
0.0484557
0.0461745
0.0435817
0.0408903
0.0382784
0.0358824
0.0337972
0.0320759
0.0307472
0.0297867
0.0292447
0.0290506
0.029304
0.0303293
0.0326872
0.0371999
0.0446581
0.0554488
0.0691984
0.0846604
0.101163
0.11747
0.132374
0.145116
0.155722
0.164904
0.174088
0.184826
0.198293
0.214967
0.234822
0.257514
0.282583
0.309533
0.337901
0.367296
0.397452
0.428244
0.45965
0.491705
0.524466
0.558002
0.592378
0.627651
0.663858
0.701034
0.739193
0.778338
0.818456
0.859524
0.901508
0.944368
0.988061
1.03255
1.07778
1.12373
1.17036
1.21764
1.26554
1.31406
1.36315
1.41281
1.46299
1.51367
1.56481
1.61636
1.66826
1.72046
1.77289
1.82549
1.87818
1.9309
1.9836
2.0362
2.08868
2.14097
2.19305
2.24485
2.29634
2.34749
2.39824
2.44857
2.49843
2.5478
2.59662
2.64486
2.69248
2.73943
2.78569
2.8312
2.87592
2.91981
2.96282
3.00491
3.04604
3.08616
3.12525
3.16326
3.20015
3.23589
3.27044
3.30377
3.33585
3.36665
3.39615
3.42433
3.45116
3.47662
3.5007
3.52338
3.54464
3.56447
3.58286
3.59981
3.6153
3.62934
3.64192
3.65303
3.66268
3.67086
3.67759
3.68286
3.68669
3.68907
3.69
3.6896
3.6878
3.68463
3.68012
3.6743
3.66719
3.65884
3.64927
3.63851
3.6266
3.61356
3.59944
3.58428
3.5681
3.55094
3.53283
3.51382
3.49394
3.47323
3.45172
3.42946
3.40649
3.38286
3.35863
3.33385
3.30856
3.28281
3.25664
3.23009
3.2032
3.176
3.14852
3.12081
3.09291
3.06488
3.03676
3.00861
2.98049
2.95245
2.92456
2.89687
2.86948
2.84248
2.81591
2.7898
2.7633
2.7345
0.000941426
0.0174865
0.0396552
0.0503526
0.0551214
0.0568058
0.0566378
0.0552074
0.0529311
0.0501402
0.0471185
0.0441115
0.0413244
0.0389131
0.0369921
0.0356128
0.0349041
0.0347592
0.035283
0.0367258
0.0394036
0.0436873
0.0498879
0.0581941
0.0685464
0.0806748
0.0940158
0.107766
0.121235
0.133826
0.145243
0.155573
0.165433
0.175833
0.187841
0.202236
0.219367
0.239176
0.261367
0.28555
0.311326
0.338333
0.366269
0.39492
0.424171
0.454004
0.48446
0.515615
0.547557
0.580375
0.614146
0.648937
0.684804
0.721794
0.759937
0.799251
0.839739
0.881391
0.92419
0.968107
1.01311
1.05917
1.10623
1.15428
1.20326
1.25315
1.30392
1.35553
1.40794
1.46112
1.51502
1.5696
1.62478
1.68051
1.73671
1.79331
1.85022
1.90736
1.96464
2.02199
2.07931
2.13655
2.19365
2.25055
2.30721
2.36357
2.41958
2.47519
2.53036
2.58506
2.63923
2.69285
2.74587
2.79823
2.8499
2.90083
2.95098
3.00029
3.04873
3.09624
3.14278
3.18829
3.23273
3.27605
3.31822
3.3592
3.39894
3.43741
3.47457
3.51038
3.54481
3.57783
3.60942
3.63956
3.66822
3.69539
3.72103
3.74515
3.76771
3.78872
3.80816
3.82603
3.84233
3.85704
3.87017
3.88171
3.89166
3.90003
3.90682
3.91204
3.91571
3.91783
3.91842
3.91754
3.91515
3.91128
3.90598
3.89928
3.8912
3.88178
3.87106
3.85906
3.84584
3.83141
3.81583
3.79913
3.78135
3.76254
3.74272
3.72193
3.70022
3.67761
3.65415
3.62989
3.60487
3.57917
3.55283
3.52591
3.49845
3.47051
3.44211
3.4133
3.38412
3.3546
3.32478
3.29471
3.26445
3.23405
3.20356
3.17304
3.14254
3.11212
3.08184
3.05179
3.02204
2.9927
2.96382
2.93544
2.90679
2.87617
0.00150381
0.0249572
0.047704
0.0578848
0.0621688
0.063401
0.0627968
0.060911
0.0582151
0.0550976
0.05189
0.0488712
0.0462735
0.0442836
0.0431119
0.0427315
0.0431181
0.044451
0.0468639
0.050507
0.0555282
0.0620146
0.0699555
0.0792336
0.0896221
0.100749
0.112173
0.123493
0.134475
0.145033
0.155335
0.165862
0.177304
0.190311
0.205359
0.222641
0.242093
0.263483
0.28651
0.310876
0.336309
0.362592
0.389562
0.417128
0.445266
0.474016
0.503452
0.533676
0.564786
0.596879
0.630046
0.664365
0.699909
0.736733
0.774885
0.814396
0.855287
0.897565
0.941228
0.986266
1.03266
1.08037
1.12938
1.17963
1.23111
1.28375
1.33753
1.39238
1.44828
1.50517
1.56298
1.62164
1.68106
1.74115
1.80181
1.86296
1.92449
1.98629
2.04827
2.11032
2.17236
2.2343
2.29608
2.35764
2.41891
2.47984
2.54036
2.60042
2.65997
2.71898
2.7774
2.8352
2.89232
2.94871
3.00431
3.05909
3.11298
3.16595
3.21795
3.26891
3.31878
3.36751
3.41506
3.46136
3.5064
3.55011
3.59247
3.63342
3.67294
3.71097
3.74749
3.78248
3.81589
3.84773
3.87795
3.90654
3.93349
3.95877
3.98238
4.00431
4.02454
4.04308
4.05993
4.07507
4.08851
4.10024
4.11027
4.1186
4.12525
4.13022
4.13353
4.13521
4.13527
4.13375
4.1306
4.1259
4.11967
4.11195
4.10278
4.09218
4.0802
4.06688
4.05225
4.03636
4.01925
4.00096
3.98154
3.96103
3.93946
3.91688
3.89333
3.86882
3.84341
3.81715
3.79011
3.76235
3.73393
3.70492
3.67534
3.64525
3.61468
3.58367
3.55225
3.52047
3.48836
3.45601
3.42345
3.39075
3.35796
3.32513
3.29231
3.25957
3.22697
3.19458
3.16252
3.13086
3.09969
3.06906
3.03823
3.00575
0.00224013
0.0317075
0.055214
0.0654109
0.0695138
0.0704999
0.0695778
0.0673507
0.0643971
0.0611984
0.0581425
0.0555268
0.0535574
0.0525564
0.0523432
0.0530679
0.0548133
0.057614
0.0614987
0.0664852
0.072576
0.0796983
0.0877311
0.0965114
0.105844
0.115529
0.125413
0.135403
0.145535
0.155997
0.167129
0.179345
0.193011
0.20837
0.225502
0.244339
0.26471
0.286402
0.309202
0.332926
0.357423
0.382586
0.408353
0.434711
0.461691
0.489365
0.517828
0.547184
0.577542
0.609008
0.64168
0.675651
0.711003
0.74781
0.786129
0.826003
0.867471
0.910559
0.955284
1.00165
1.04964
1.09924
1.15043
1.20317
1.25741
1.31311
1.37021
1.42864
1.48834
1.54924
1.61126
1.67428
1.73818
1.80283
1.86811
1.93391
2.00012
2.06664
2.13333
2.20009
2.26682
2.33343
2.39986
2.46602
2.53185
2.59726
2.66218
2.72655
2.79032
2.85347
2.91596
2.97773
3.03873
3.09891
3.1582
3.21655
3.27391
3.33024
3.38547
3.43955
3.49242
3.54403
3.59432
3.64324
3.69075
3.73682
3.7814
3.82444
3.86592
3.90578
3.94399
3.98053
4.01538
4.04851
4.0799
4.10953
4.13739
4.16346
4.18773
4.21021
4.23087
4.24973
4.26678
4.28202
4.29545
4.30706
4.31686
4.32487
4.33109
4.33555
4.33827
4.33925
4.33858
4.33621
4.3321
4.32638
4.31906
4.31017
4.29976
4.28787
4.27452
4.25977
4.24365
4.22622
4.20751
4.18758
4.16647
4.14422
4.1209
4.09653
4.07114
4.04475
4.01741
3.98919
3.96017
3.93042
3.9
3.86895
3.83733
3.80518
3.77253
3.73942
3.70585
3.67189
3.6376
3.60305
3.56831
3.53342
3.49843
3.4634
3.42837
3.3934
3.35856
3.32393
3.28962
3.25573
3.22232
3.18949
3.15653
3.12224
0.00310648
0.0377999
0.0627959
0.0731862
0.0771796
0.0779822
0.076801
0.0743061
0.0711892
0.0681028
0.0655181
0.0636712
0.0627607
0.0625805
0.0633501
0.0651406
0.06789
0.0715625
0.0761289
0.0815551
0.0877767
0.0947103
0.102271
0.110379
0.118974
0.12801
0.137491
0.147501
0.158193
0.169768
0.182445
0.196399
0.21173
0.228443
0.246472
0.265694
0.285968
0.307157
0.32914
0.351828
0.375161
0.399114
0.423692
0.448931
0.474897
0.50168
0.529387
0.558124
0.587996
0.619114
0.651582
0.685505
0.720977
0.75808
0.796892
0.837477
0.879895
0.92419
0.970397
1.01853
1.0686
1.12059
1.17448
1.23023
1.28778
1.34708
1.40804
1.47056
1.53456
1.59991
1.66649
1.73416
1.80275
1.8721
1.94205
2.01247
2.08327
2.15434
2.22558
2.29687
2.3681
2.43919
2.51006
2.58062
2.65079
2.72044
2.78947
2.85782
2.92549
2.99243
3.05861
3.12397
3.18845
3.25199
3.31452
3.37598
3.43633
3.4955
3.55345
3.61012
3.66544
3.71936
3.77183
3.82279
3.87221
3.92004
3.96626
4.01082
4.05367
4.09477
4.1341
4.17162
4.20733
4.24119
4.2732
4.30334
4.33158
4.35792
4.38236
4.40489
4.4255
4.44421
4.46101
4.4759
4.48889
4.49999
4.50918
4.5165
4.52196
4.52558
4.52739
4.52741
4.52577
4.52223
4.51696
4.51
4.5014
4.49118
4.47938
4.46605
4.45122
4.43493
4.41724
4.39819
4.37783
4.35621
4.33338
4.3094
4.28431
4.25816
4.23099
4.20277
4.17355
4.14346
4.11255
4.08091
4.04858
4.01561
3.98206
3.94797
3.91337
3.87829
3.8427
3.8067
3.77038
3.73379
3.69701
3.66009
3.62306
3.58598
3.54888
3.51182
3.47487
3.43814
3.40172
3.36571
3.33018
3.29524
3.26025
3.22427
0.0040417
0.0441256
0.0702321
0.0809041
0.0848617
0.0855133
0.0839505
0.0811256
0.0780449
0.0754055
0.0735725
0.0727048
0.0725165
0.0731216
0.0746959
0.0771671
0.0804661
0.0845375
0.0893405
0.0948365
0.10099
0.107772
0.115168
0.123166
0.131784
0.141066
0.15109
0.161943
0.173738
0.186567
0.200489
0.215521
0.231638
0.248774
0.266846
0.285764
0.305449
0.325839
0.346892
0.368593
0.390943
0.413968
0.437714
0.462257
0.487664
0.514025
0.541452
0.570058
0.599958
0.631269
0.664106
0.698584
0.73481
0.772885
0.8129
0.854941
0.899082
0.945393
0.993924
1.0447
1.09773
1.15299
1.21044
1.27005
1.33174
1.39542
1.46098
1.52825
1.59709
1.66729
1.73869
1.81111
1.88439
1.95833
2.03272
2.10737
2.18229
2.25741
2.33269
2.40803
2.48327
2.55835
2.63318
2.70766
2.78164
2.855
2.92761
2.99945
3.0705
3.14069
3.21
3.27836
3.3457
3.41196
3.47706
3.54094
3.60354
3.66483
3.72475
3.78324
3.84024
3.89569
3.94954
4.00174
4.05226
4.10106
4.14811
4.19337
4.2368
4.27837
4.31802
4.35576
4.39156
4.42541
4.4573
4.48722
4.51516
4.5411
4.56505
4.58699
4.60693
4.62487
4.64083
4.65482
4.66684
4.6769
4.68502
4.69119
4.69545
4.69783
4.69837
4.69717
4.69409
4.68913
4.68242
4.67399
4.66388
4.65212
4.63875
4.62382
4.60736
4.58942
4.57005
4.54929
4.52721
4.50385
4.47926
4.4535
4.42663
4.3987
4.36974
4.33976
4.30881
4.27697
4.24432
4.21093
4.17684
4.14211
4.10678
4.07091
4.03453
3.99767
3.96025
3.92242
3.88426
3.84585
3.80724
3.76848
3.72962
3.69069
3.65172
3.61275
3.5739
3.53525
3.4969
3.45896
3.42147
3.38459
3.3477
3.31022
0.00499945
0.0502292
0.0774677
0.0883722
0.092249
0.0927078
0.0907248
0.0877676
0.0850004
0.0829901
0.0819953
0.081716
0.0821045
0.0833386
0.0854389
0.0883356
0.0919702
0.0962998
0.101305
0.106976
0.113314
0.120328
0.128041
0.136488
0.145717
0.155776
0.166717
0.17858
0.191385
0.205121
0.219784
0.235338
0.251722
0.268873
0.286745
0.305298
0.324513
0.344389
0.364933
0.386173
0.408152
0.430947
0.454664
0.479363
0.505048
0.531834
0.559903
0.589369
0.62034
0.652936
0.687279
0.723495
0.761702
0.802009
0.844516
0.889319
0.936502
0.986135
1.03828
1.09297
1.15016
1.20979
1.2718
1.33612
1.40266
1.47131
1.54191
1.61428
1.68817
1.76326
1.83923
1.916
1.99345
2.07141
2.14964
2.22795
2.30646
2.38508
2.46374
2.54229
2.62061
2.69875
2.7767
2.8542
2.93109
3.00725
3.08263
3.15713
3.23068
3.30322
3.37472
3.4451
3.5143
3.58223
3.64882
3.71402
3.77778
3.84006
3.90081
3.95998
4.01752
4.07335
4.12744
4.17973
4.23021
4.27885
4.32561
4.3705
4.41343
4.45439
4.49333
4.53025
4.56515
4.59801
4.62884
4.65762
4.68435
4.70902
4.73164
4.75219
4.7707
4.78718
4.80163
4.81408
4.82453
4.833
4.8395
4.84402
4.84661
4.84734
4.84633
4.84343
4.83859
4.83195
4.82356
4.81344
4.80165
4.7882
4.77314
4.75651
4.73836
4.71873
4.69766
4.67521
4.65143
4.62637
4.60009
4.57264
4.54408
4.51446
4.48382
4.45224
4.41975
4.38639
4.35221
4.31728
4.28165
4.24535
4.20846
4.17101
4.13305
4.09463
4.05565
4.01627
3.97657
3.9366
3.89642
3.85607
3.81562
3.7751