/*--------------------------------*- C++ -*----------------------------------*\
  =========                 |
  \\      /  F ield         | OpenFOAM: The Open Source CFD Toolbox
   \\    /   O peration     | Website:  https://openfoam.org
    \\  /    A nd           | Version:  8
     \\/     M anipulation  |
\*---------------------------------------------------------------------------*/
FoamFile
{
    version     2.0;
    format      ascii;
    class       volScalarField;
    location    "1700";
    object      nut;
}
// * * * * * * * * * * * * * * * * * * * * * * * * * * * * * * * * * * * * * //

dimensions      [0 2 -1 0 0 0 0];

internalField   nonuniform List<scalar> 
12225
(
4.5442e-06
2.27674e-05
2.09236e-05
2.12463e-05
2.2098e-05
1.98535e-05
2.17924e-05
1.53593e-05
2.93356e-05
2.36877e-05
2.2873e-05
1.64341e-05
2.60017e-05
2.39193e-05
1.91332e-05
1.83008e-05
1.69792e-05
3.08794e-05
0.000192239
5.8468e-05
5.08288e-05
3.01549e-05
2.89739e-05
2.6167e-05
3.39138e-05
3.73682e-05
4.38274e-05
4.18819e-05
4.42571e-05
4.52731e-05
4.92211e-05
5.17047e-05
5.14024e-05
5.17123e-05
5.08755e-05
5.47496e-05
0.000630082
0.000289677
0.000220572
0.000125984
9.50555e-05
7.71733e-05
7.20517e-05
6.68166e-05
6.26868e-05
5.91276e-05
5.66028e-05
5.43523e-05
5.28332e-05
5.1523e-05
5.05247e-05
4.91797e-05
4.8148e-05
4.7583e-05
0.000724181
0.000622918
0.000493451
0.000364328
0.000302712
0.000257909
0.000227384
0.000204383
0.000185
0.00017079
0.000159043
0.000147609
0.000139081
0.000128953
0.00012285
0.000114716
0.000109954
0.000104073
0.000746421
0.000727868
0.000673338
0.00059632
0.000550241
0.00050639
0.000466994
0.000431776
0.000402125
0.000374575
0.000354185
0.000330329
0.000313848
0.00029215
0.000279026
0.000260808
0.000251156
0.000236882
0.000750594
0.000745992
0.000732963
0.000708194
0.000681661
0.000662447
0.000641917
0.000616501
0.000594744
0.000569063
0.000549794
0.000524082
0.000505289
0.000479588
0.000462642
0.000439562
0.000426096
0.000407215
0.00074984
0.000748765
0.000746351
0.000740592
0.00073278
0.000724907
0.000715793
0.000707531
0.000697681
0.000684136
0.000672859
0.000656382
0.000642955
0.000623497
0.00060957
0.000590043
0.000577676
0.000560623
0.000749699
0.000748613
0.000747764
0.000746173
0.000743715
0.000741312
0.000737418
0.000733599
0.000729408
0.000724011
0.000718295
0.000710034
0.000702434
0.000690631
0.000681572
0.000668457
0.000659668
0.000647312
0.000749616
0.000748659
0.000747887
0.000747106
0.000746102
0.000745066
0.000743705
0.000742042
0.000740225
0.000737878
0.000735564
0.000732078
0.000728324
0.000722805
0.00071753
0.000710003
0.000704613
0.000697035
0.000749583
0.00074869
0.0007479
0.000747155
0.000746454
0.000745678
0.000744973
0.000744088
0.000743275
0.000742178
0.000741238
0.000739887
0.000738246
0.000736272
0.000733813
0.000731045
0.000728617
0.000725741
0.00074957
0.000748695
0.0007479
0.000747123
0.000746436
0.000745706
0.000745079
0.000744385
0.000743797
0.000743098
0.000742536
0.000741796
0.000741126
0.000740126
0.000739208
0.000737877
0.000736848
0.000735404
0.000749563
0.000748695
0.000747893
0.00074711
0.000746398
0.000745686
0.000745043
0.000744391
0.000743809
0.000743207
0.000742679
0.000742111
0.000741605
0.000741016
0.000740478
0.00073984
0.000739276
0.000738627
0.000749559
0.000748695
0.000747884
0.000747104
0.000746374
0.00074567
0.000745009
0.000744371
0.000743771
0.00074319
0.000742645
0.000742114
0.000741615
0.000741121
0.000740653
0.000740185
0.000739743
0.000739302
0.000749557
0.000748693
0.000747876
0.000747097
0.00074636
0.000745656
0.000744988
0.000744349
0.000743743
0.000743162
0.00074261
0.000742081
0.000741578
0.000741094
0.000740633
0.000740189
0.000739767
0.000739359
0.000749555
0.000748692
0.000747871
0.000747092
0.000746351
0.000745646
0.000744975
0.000744334
0.000743724
0.000743141
0.000742586
0.000742055
0.000741549
0.000741064
0.000740602
0.000740159
0.000739735
0.00073933
0.000749556
0.000748693
0.000747874
0.000747095
0.000746355
0.00074565
0.000744979
0.000744339
0.000743729
0.000743146
0.000742591
0.00074206
0.000741554
0.000741068
0.000740606
0.000740162
0.00073974
0.000739333
0.000749568
0.000748728
0.000747928
0.000747165
0.00074644
0.000745747
0.000745087
0.000744456
0.000743855
0.00074328
0.000742731
0.000742206
0.000741704
0.000741224
0.000740764
0.000740325
0.000739903
0.000739501
0.000749567
0.000748729
0.000747927
0.000747165
0.000746437
0.000745745
0.000745083
0.000744453
0.000743849
0.000743275
0.000742723
0.000742199
0.000741695
0.000741215
0.000740754
0.000740315
0.000739892
0.00073949
0.000749555
0.000748694
0.000747874
0.000747094
0.000746352
0.000745644
0.000744972
0.000744328
0.000743717
0.000743132
0.000742574
0.00074204
0.000741532
0.000741044
0.000740579
0.000740133
0.000739708
0.0007393
0.000749555
0.000748692
0.000747871
0.00074709
0.000746346
0.000745639
0.000744963
0.000744321
0.000743706
0.000743121
0.00074256
0.000742027
0.000741515
0.000741027
0.000740559
0.000740113
0.000739685
0.000739277
0.000749554
0.000748694
0.000747872
0.000747095
0.000746351
0.000745645
0.00074497
0.00074433
0.000743714
0.000743131
0.000742569
0.000742036
0.000741521
0.000741033
0.000740561
0.000740111
0.000739677
0.000739263
0.000749551
0.0007487
0.000747874
0.000747105
0.000746357
0.00074566
0.000744976
0.000744335
0.000743702
0.00074311
0.000742521
0.000741972
0.000741421
0.000740904
0.000740381
0.000739887
0.000739385
0.000738913
0.00074954
0.000748716
0.000747884
0.000747134
0.00074637
0.00074566
0.000744878
0.000744122
0.000743298
0.000742535
0.000741715
0.000740963
0.000740125
0.000739339
0.000738445
0.000737608
0.000736657
0.000735804
0.000749518
0.000748804
0.000747926
0.000747176
0.000746229
0.000745061
0.000743288
0.000741332
0.000739068
0.000737073
0.000734917
0.000732958
0.000730686
0.000728476
0.000725954
0.000723443
0.00072077
0.000718276
0.000749813
0.000749242
0.000747203
0.000746044
0.000742766
0.000737468
0.000729424
0.000720996
0.000712457
0.000705818
0.000698954
0.000693237
0.000686324
0.000680223
0.000672939
0.000666614
0.000659314
0.000653266
0.000753896
0.000748979
0.000737212
0.000726712
0.000708978
0.000682793
0.000654962
0.000633789
0.000613741
0.000598706
0.000582791
0.000570049
0.000555685
0.000543915
0.000530652
0.000519928
0.000507936
0.000498601
0.000780494
0.000720623
0.00066041
0.000616597
0.000550122
0.000497773
0.000452896
0.000422179
0.000394578
0.000374985
0.000355555
0.000341146
0.000326103
0.000314804
0.000302611
0.000293353
0.00028316
0.000275635
0.000870713
0.000513459
0.000377727
0.000299771
0.0002443
0.000209316
0.000184019
0.000167509
0.000154002
0.000144481
0.000136455
0.000129899
0.00012454
0.000121202
0.000117497
0.000114538
0.000111407
0.000108972
0.000447319
0.000124082
8.54959e-05
7.01578e-05
6.24593e-05
5.79602e-05
5.58685e-05
5.47447e-05
5.48258e-05
5.52124e-05
5.62121e-05
5.72722e-05
5.86162e-05
6.00189e-05
6.15676e-05
6.31033e-05
6.37012e-05
6.37184e-05
1.10638e-05
1.55525e-05
1.89673e-05
2.11321e-05
2.24212e-05
2.29044e-05
2.30637e-05
2.30356e-05
2.28057e-05
2.25123e-05
2.21993e-05
2.18891e-05
2.1595e-05
2.13222e-05
2.10733e-05
2.08482e-05
2.06463e-05
2.0469e-05
1.64933e-12
1.86151e-10
9.49488e-10
3.74485e-09
1.24951e-08
3.79369e-08
9.88413e-08
1.96456e-07
3.18278e-07
4.4655e-07
5.61745e-07
6.5101e-07
7.10771e-07
7.33549e-07
7.24121e-07
6.95297e-07
6.4007e-07
5.48597e-07
4.6729e-07
3.97444e-07
3.31198e-07
2.66874e-07
2.04654e-07
1.46983e-07
9.56161e-08
5.58267e-08
2.94966e-08
1.47584e-08
7.46338e-09
4.0406e-09
2.43865e-09
1.84256e-09
2.03191e-09
4.27794e-09
9.30317e-09
5.8959e-08
1.33229e-07
2.98738e-07
4.51798e-07
4.94663e-07
4.55206e-07
3.66196e-07
3.02067e-07
2.88673e-07
3.11116e-07
4.07162e-07
5.28821e-07
1.01544e-06
2.21935e-06
6.60164e-06
1.84146e-05
3.41077e-05
4.68228e-05
5.28399e-05
4.64712e-05
3.34543e-05
3.68104e-05
3.25431e-05
3.62679e-05
3.39477e-05
3.52062e-05
3.66678e-05
3.09376e-05
3.33173e-05
3.34353e-05
3.42599e-05
3.47363e-05
3.53941e-05
3.59227e-05
3.65102e-05
3.70509e-05
3.76044e-05
3.81399e-05
3.86762e-05
3.92026e-05
3.97282e-05
4.02465e-05
4.07641e-05
4.12761e-05
4.17876e-05
4.22948e-05
4.28018e-05
4.33053e-05
4.38089e-05
4.43097e-05
4.48104e-05
4.53088e-05
4.58068e-05
4.63029e-05
4.67983e-05
4.72918e-05
4.77831e-05
4.82714e-05
4.87569e-05
4.9239e-05
4.97177e-05
5.01932e-05
5.06666e-05
5.11409e-05
5.16213e-05
5.21165e-05
5.26064e-05
5.31025e-05
5.36025e-05
5.41083e-05
5.46198e-05
5.51377e-05
5.56623e-05
5.61945e-05
5.67343e-05
5.72828e-05
5.78402e-05
5.84077e-05
5.89855e-05
5.9575e-05
6.01766e-05
6.07915e-05
6.14207e-05
6.20653e-05
6.27264e-05
6.34053e-05
6.41036e-05
6.48225e-05
6.55638e-05
6.63293e-05
6.7121e-05
6.79411e-05
6.87962e-05
6.96779e-05
7.06172e-05
7.15424e-05
7.25564e-05
7.35773e-05
7.46811e-05
7.5841e-05
7.7056e-05
7.82722e-05
7.80198e-05
7.776e-05
7.74844e-05
7.7199e-05
7.6902e-05
7.65951e-05
7.62779e-05
7.59517e-05
7.56161e-05
7.52723e-05
7.49201e-05
7.45604e-05
7.41939e-05
7.38227e-05
7.3438e-05
7.30603e-05
7.26596e-05
7.22716e-05
7.18659e-05
7.14661e-05
7.10601e-05
7.06546e-05
7.02485e-05
6.98421e-05
6.94364e-05
6.9031e-05
6.86268e-05
6.82233e-05
6.78218e-05
6.74221e-05
6.70254e-05
6.66318e-05
6.6242e-05
6.58554e-05
6.54721e-05
6.50905e-05
6.47082e-05
6.43209e-05
6.39208e-05
6.34966e-05
6.30205e-05
6.24362e-05
6.087e-05
6.92922e-12
1.11595e-09
1.51009e-08
8.1363e-08
3.53234e-07
1.21005e-06
2.77956e-06
5.09316e-06
7.895e-06
1.10852e-05
1.43134e-05
1.72981e-05
1.98306e-05
2.17397e-05
2.28531e-05
2.31908e-05
2.28486e-05
2.20343e-05
1.97523e-05
1.65693e-05
1.27648e-05
9.3841e-06
6.60419e-06
4.44912e-06
2.79864e-06
1.72556e-06
1.05281e-06
6.52167e-07
4.09025e-07
2.67732e-07
1.93564e-07
1.71551e-07
1.58273e-07
3.01071e-07
4.35847e-07
3.4413e-06
7.68866e-06
1.57107e-05
2.17889e-05
2.39345e-05
2.25782e-05
2.01126e-05
1.74097e-05
1.61436e-05
1.67503e-05
1.68959e-05
1.92645e-05
2.5709e-05
3.66545e-05
4.69458e-05
5.86052e-05
6.90431e-05
7.93388e-05
8.81398e-05
9.66328e-05
0.00010538
0.000117967
0.000129584
0.000140695
0.000158128
0.000170732
0.000188705
0.000196275
0.000210825
0.000222433
0.000234276
0.000245641
0.000256555
0.000267063
0.000277233
0.000287098
0.00029669
0.000306049
0.00031519
0.000324154
0.00033294
0.000341583
0.000350081
0.000358455
0.000366706
0.000374845
0.000382875
0.0003908
0.000398626
0.000406352
0.000413983
0.000421518
0.000428959
0.000436304
0.000443552
0.0004507
0.000457744
0.000464675
0.000471484
0.00047815
0.000484647
0.00049093
0.000496934
0.000502562
0.000507677
0.000512117
0.000516686
0.000521012
0.000525276
0.000529392
0.000533397
0.000537271
0.000541019
0.000544636
0.000548121
0.00055147
0.000554683
0.000557756
0.000560687
0.000563475
0.000566117
0.000568611
0.000570956
0.000573148
0.000575187
0.00057707
0.000578795
0.000580361
0.000581765
0.000583006
0.000584081
0.00058499
0.000585731
0.000586311
0.000586746
0.000586983
0.000587108
0.000586936
0.000586695
0.000586391
0.000586002
0.000585664
0.000585477
0.000585122
0.000584623
0.000583989
0.000583225
0.000582336
0.000581323
0.00058019
0.000578939
0.000577573
0.000576094
0.000574498
0.000572859
0.000570981
0.000569316
0.000567166
0.000565276
0.000562999
0.000560825
0.000558503
0.00055614
0.000553716
0.00055124
0.000548718
0.000546153
0.000543547
0.0005409
0.000538213
0.000535488
0.000532729
0.000529941
0.000527127
0.00052429
0.000521425
0.000518528
0.000515591
0.000512575
0.000509426
0.000506068
0.000502364
0.000498013
0.000492266
0.000476221
1.88841e-11
3.23065e-09
6.10937e-08
3.7568e-07
1.0501e-06
2.99072e-06
6.32534e-06
1.09755e-05
1.67175e-05
2.32394e-05
3.01629e-05
3.705e-05
4.32615e-05
4.84441e-05
5.2366e-05
5.49487e-05
5.63562e-05
5.6694e-05
5.51994e-05
5.23135e-05
4.75893e-05
4.15807e-05
3.42819e-05
2.69503e-05
2.02419e-05
1.4459e-05
9.81749e-06
6.53895e-06
4.15327e-06
2.75554e-06
1.9546e-06
1.56644e-06
1.3224e-06
2.21493e-06
4.12916e-06
1.75053e-05
3.68592e-05
5.56792e-05
6.55106e-05
6.40399e-05
5.19062e-05
4.1792e-05
4.03045e-05
4.64741e-05
5.35018e-05
6.2431e-05
7.52496e-05
8.72776e-05
9.96434e-05
0.000116484
0.000135224
0.00015671
0.000180268
0.00020597
0.000234297
0.000264341
0.000296147
0.000327737
0.000358255
0.000389264
0.000417637
0.000445971
0.000471531
0.000497328
0.000521317
0.000544607
0.000566905
0.000588322
0.000609073
0.000629198
0.000648798
0.000667931
0.000686658
0.00070502
0.00072306
0.0007408
0.00075827
0.000775482
0.000792455
0.000809195
0.000825713
0.000842013
0.0008581
0.000873976
0.000889643
0.000905099
0.000920343
0.000935369
0.000950173
0.000964748
0.000979082
0.000993161
0.00100696
0.00102047
0.00103365
0.00104647
0.00105888
0.00107085
0.00108233
0.00109332
0.00110397
0.00111448
0.00112467
0.00113464
0.00114432
0.00115374
0.00116289
0.00117175
0.00118033
0.00118861
0.0011966
0.00120429
0.00121168
0.00121876
0.00122553
0.00123198
0.00123811
0.00124391
0.00124939
0.00125453
0.00125934
0.00126382
0.00126795
0.00127174
0.00127518
0.00127827
0.00128101
0.00128341
0.00128546
0.00128717
0.00128852
0.00128954
0.00129014
0.00129045
0.0012906
0.00129054
0.00129028
0.00128983
0.00128905
0.00128796
0.00128656
0.00128488
0.0012829
0.00128065
0.00127813
0.00127534
0.0012723
0.00126901
0.00126549
0.00126177
0.00125775
0.00125372
0.00124918
0.00124473
0.00123981
0.00123489
0.00122973
0.00122445
0.00121904
0.00121351
0.00120788
0.00120215
0.00119634
0.00119043
0.00118445
0.00117838
0.00117225
0.00116605
0.00115981
0.00115352
0.00114719
0.00114078
0.00113429
0.00112764
0.00112073
0.00111339
0.00110531
0.00109574
0.0010828
0.00105369
6.9976e-11
1.18193e-08
1.88e-07
8.16611e-07
2.53226e-06
6.98672e-06
1.38374e-05
2.30318e-05
3.38771e-05
4.52817e-05
5.63251e-05
6.6424e-05
7.50955e-05
8.17316e-05
8.67144e-05
8.99098e-05
9.1215e-05
9.09969e-05
8.93897e-05
8.6222e-05
8.15924e-05
7.59942e-05
6.85271e-05
5.96027e-05
4.97339e-05
3.98092e-05
3.06789e-05
2.3048e-05
1.7214e-05
1.24954e-05
9.6825e-06
7.18162e-06
7.8404e-06
1.18756e-05
2.6988e-05
5.09382e-05
7.0364e-05
8.06323e-05
7.77479e-05
7.43207e-05
7.39327e-05
7.71729e-05
8.45802e-05
9.53202e-05
0.000110306
0.00012144
0.000139829
0.000163117
0.000188685
0.000221074
0.000256147
0.00029558
0.000337258
0.000381137
0.000426152
0.000471734
0.000516701
0.000560621
0.000603304
0.000644511
0.000683848
0.000721781
0.000757947
0.000793115
0.000826751
0.000859231
0.000890634
0.000921111
0.000950795
0.000979769
0.00100812
0.00103592
0.00106323
0.00109008
0.00111652
0.00114256
0.00116824
0.00119357
0.00121856
0.00124321
0.00126754
0.00129154
0.00131522
0.00133857
0.0013616
0.00138429
0.00140664
0.00142865
0.0014503
0.00147159
0.0014925
0.001513
0.0015331
0.00155275
0.00157195
0.00159067
0.0016089
0.00162663
0.00164387
0.00166065
0.00167705
0.00169311
0.00170875
0.00172402
0.00173887
0.00175331
0.00176733
0.00178093
0.00179408
0.0018068
0.00181907
0.00183089
0.00184225
0.00185315
0.00186357
0.00187353
0.001883
0.00189199
0.0019005
0.00190851
0.00191603
0.00192305
0.00192957
0.00193559
0.0019411
0.0019461
0.0019506
0.00195458
0.00195807
0.00196104
0.00196351
0.00196549
0.00196689
0.00196784
0.00196854
0.00196882
0.00196869
0.00196814
0.00196713
0.00196566
0.00196375
0.0019614
0.00195863
0.00195545
0.00195186
0.00194788
0.00194353
0.00193881
0.00193375
0.00192835
0.0019226
0.00191661
0.00191017
0.00190355
0.00189652
0.0018893
0.0018818
0.00187409
0.00186617
0.00185808
0.00184983
0.00184143
0.00183289
0.00182422
0.00181541
0.00180649
0.00179746
0.00178834
0.00177915
0.00176989
0.00176057
0.00175115
0.0017416
0.00173185
0.00172176
0.00171112
0.00169952
0.0016859
0.00166776
0.00163325
2.39291e-10
3.56976e-08
4.19878e-07
1.97823e-06
6.84001e-06
1.64141e-05
3.03716e-05
4.6983e-05
6.43153e-05
8.06865e-05
9.49161e-05
0.000106144
0.000114439
0.000120162
0.000123325
0.000124548
0.000124094
0.00012224
0.000119191
0.00011495
0.000109514
0.000103462
9.59634e-05
8.71907e-05
7.7042e-05
6.58323e-05
5.43892e-05
4.40004e-05
3.54109e-05
2.85435e-05
2.2568e-05
2.12907e-05
2.6209e-05
4.39627e-05
6.91765e-05
8.54606e-05
9.33994e-05
9.68076e-05
9.93387e-05
0.000104077
0.000112629
0.000125831
0.000139275
0.000151814
0.000172511
0.000201219
0.000232518
0.000271332
0.000313841
0.000361951
0.00041221
0.000465517
0.000519865
0.000575049
0.000630056
0.000684511
0.000737668
0.00078947
0.000839861
0.000888134
0.000935227
0.000980824
0.00102471
0.00106725
0.00110843
0.00114845
0.00118741
0.00122544
0.00126263
0.00129908
0.00133486
0.00137002
0.00140462
0.0014387
0.00147228
0.00150539
0.00153804
0.00157024
0.001602
0.00163332
0.00166421
0.00169466
0.00172467
0.00175424
0.00178337
0.00181204
0.00184026
0.001868
0.00189527
0.00192205
0.00194833
0.0019741
0.00199934
0.00202404
0.0020482
0.0020718
0.00209486
0.00211738
0.00213936
0.00216084
0.00218183
0.00220233
0.00222232
0.0022418
0.00226074
0.00227915
0.00229702
0.00231434
0.0023311
0.00234729
0.00236291
0.00237795
0.00239241
0.00240628
0.00241955
0.00243223
0.00244431
0.00245579
0.00246665
0.0024769
0.00248654
0.00249556
0.00250396
0.00251174
0.0025189
0.00252543
0.00253134
0.00253664
0.00254132
0.00254538
0.0025488
0.00255164
0.00255378
0.00255536
0.0025566
0.00255724
0.00255734
0.00255689
0.00255588
0.00255431
0.00255219
0.00254955
0.00254638
0.00254269
0.00253852
0.00253385
0.00252872
0.00252314
0.00251713
0.00251069
0.00250383
0.0024966
0.00248892
0.0024809
0.00247246
0.00246372
0.00245464
0.00244528
0.00243566
0.0024258
0.00241573
0.00240546
0.002395
0.00238436
0.00237355
0.00236258
0.00235146
0.00234021
0.00232886
0.0023174
0.00230583
0.00229416
0.00228233
0.00227029
0.00225788
0.00224491
0.00223094
0.00221493
0.00219398
0.00215926
7.62889e-10
8.75439e-08
1.05092e-06
5.3267e-06
1.73239e-05
3.64911e-05
5.94582e-05
8.29658e-05
0.000103597
0.000119918
0.000132031
0.000140908
0.000146366
0.000149335
0.000150325
0.000149723
0.000147788
0.000144708
0.000140632
0.00013552
0.000129494
0.000122891
0.000115077
0.000106201
9.5697e-05
7.99184e-05
6.46158e-05
5.02723e-05
3.81941e-05
3.26474e-05
3.35477e-05
4.51499e-05
6.71057e-05
8.95218e-05
0.000105333
0.000114848
0.000120795
0.000126952
0.000136948
0.000152797
0.000164683
0.000177723
0.000200384
0.000229166
0.000263927
0.000306157
0.000352798
0.000405469
0.000460899
0.000519668
0.000579744
0.000641177
0.000702781
0.000764245
0.000824962
0.000884706
0.000942998
0.000999694
0.00105537
0.00110938
0.00116195
0.00121299
0.00126261
0.00131092
0.001358
0.00140397
0.00144893
0.00149296
0.00153617
0.00157861
0.00162034
0.00166142
0.00170189
0.00174176
0.00178107
0.00181983
0.00185803
0.0018957
0.00193283
0.00196941
0.00200546
0.00204095
0.0020759
0.0021103
0.00214414
0.00217742
0.00221012
0.00224226
0.00227381
0.00230477
0.00233514
0.0023649
0.00239405
0.00242258
0.00245049
0.00247779
0.00250447
0.00253055
0.00255604
0.00258093
0.00260523
0.00262893
0.00265203
0.00267451
0.00269636
0.00271759
0.00273817
0.00275811
0.00277739
0.00279602
0.00281397
0.00283126
0.00284787
0.0028638
0.00287906
0.00289363
0.00290751
0.00292071
0.00293321
0.00294502
0.00295614
0.00296656
0.00297629
0.00298533
0.00299367
0.00300131
0.00300827
0.00301454
0.00302017
0.00302505
0.00302925
0.0030328
0.00303557
0.00303776
0.00303947
0.00304053
0.00304095
0.00304075
0.00303993
0.00303849
0.00303645
0.00303382
0.00303062
0.00302684
0.0030225
0.00301762
0.00301222
0.00300631
0.0029999
0.00299302
0.00298566
0.00297785
0.00296957
0.00296086
0.00295172
0.00294219
0.00293228
0.00292203
0.00291147
0.00290063
0.00288952
0.00287816
0.00286657
0.00285476
0.00284273
0.0028305
0.00281809
0.00280552
0.00279281
0.00277996
0.002767
0.0027539
0.00274065
0.00272718
0.00271338
0.00269906
0.00268384
0.00266679
0.00264526
0.00261249
2.45286e-09
2.23868e-07
2.78208e-06
1.4519e-05
3.7791e-05
6.71306e-05
9.52176e-05
0.000118112
0.000135567
0.00014846
0.000157469
0.000163017
0.000165951
0.000166933
0.0001664
0.000164639
0.000161832
0.000158085
0.00015336
0.000147573
0.00014095
0.000133316
0.000124331
0.000108555
9.27718e-05
7.88726e-05
6.64315e-05
5.72018e-05
5.52806e-05
6.27341e-05
7.58114e-05
0.000100584
0.000119744
0.000133002
0.000142582
0.000150705
0.000161269
0.000177526
0.000188
0.000200338
0.000222251
0.000250135
0.000285261
0.00032709
0.000375378
0.000429519
0.000487367
0.00054876
0.000611917
0.000676741
0.000742179
0.000807951
0.000873433
0.000938355
0.00100215
0.00106474
0.0011266
0.001187
0.00124609
0.00130376
0.00136011
0.00141511
0.00146884
0.00152139
0.00157281
0.00162319
0.00167262
0.00172116
0.00176887
0.00181583
0.00186206
0.00190761
0.0019525
0.00199675
0.00204037
0.00208337
0.00212574
0.00216749
0.00220861
0.00224909
0.00228893
0.00232813
0.00236668
0.00240458
0.00244182
0.00247841
0.00251433
0.00254959
0.00258419
0.00261811
0.00265137
0.00268395
0.00271585
0.00274707
0.00277761
0.00280746
0.00283663
0.00286512
0.00289291
0.00292003
0.00294649
0.00297226
0.00299736
0.00302176
0.00304547
0.00306848
0.00309079
0.00311238
0.00313326
0.00315343
0.0031729
0.00319164
0.00320965
0.00322692
0.00324347
0.00325928
0.00327435
0.00328868
0.00330227
0.00331513
0.00332724
0.00333862
0.00334926
0.00335916
0.00336833
0.00337676
0.00338447
0.00339148
0.0033978
0.00340331
0.00340813
0.00341226
0.00341555
0.00341829
0.00342043
0.00342189
0.00342267
0.00342279
0.00342226
0.00342109
0.00341928
0.00341685
0.00341382
0.00341024
0.00340609
0.00340138
0.00339612
0.00339031
0.00338398
0.00337713
0.00336977
0.00336192
0.00335357
0.00334476
0.00333547
0.00332576
0.00331563
0.00330513
0.00329427
0.00328308
0.00327159
0.00325981
0.00324776
0.00323544
0.00322286
0.00321005
0.00319703
0.0031838
0.00317041
0.00315686
0.00314317
0.00312933
0.00311533
0.00310113
0.00308665
0.00307175
0.0030561
0.00303898
0.00301833
0.00298863
7.40286e-09
5.927e-07
7.49126e-06
3.10269e-05
6.52054e-05
9.96245e-05
0.000128146
0.000149186
0.000163585
0.000172443
0.00017699
0.000178813
0.000178927
0.000177706
0.000175465
0.000172365
0.000168375
0.000163383
0.000157459
0.000150804
0.000143294
0.000134527
0.000117782
0.000100732
8.63835e-05
7.62069e-05
7.25714e-05
7.62655e-05
8.52696e-05
0.000105597
0.000131266
0.000154642
0.000169438
0.00017933
0.000190528
0.000201706
0.000208495
0.000220549
0.000240022
0.000265597
0.000298953
0.000338834
0.000385604
0.000438417
0.000496367
0.000558133
0.000622327
0.000688433
0.000755567
0.000823409
0.000891397
0.000959227
0.0010264
0.00109261
0.00115832
0.00122301
0.00128657
0.00134891
0.00141004
0.00146993
0.00152863
0.00158614
0.00164252
0.00169782
0.0017521
0.00180542
0.00185784
0.00190941
0.00196019
0.00201023
0.00205954
0.00210817
0.00215612
0.00220341
0.00225002
0.00229595
0.0023412
0.00238576
0.00242962
0.00247277
0.00251519
0.00255689
0.00259785
0.00263809
0.00267759
0.00271636
0.00275439
0.00279169
0.00282827
0.00286412
0.00289924
0.00293364
0.00296732
0.00300027
0.0030325
0.003064
0.00309476
0.00312478
0.00315407
0.00318265
0.00321052
0.00323768
0.00326411
0.00328981
0.00331477
0.003339
0.00336248
0.00338522
0.0034072
0.00342843
0.0034489
0.0034686
0.00348754
0.00350571
0.00352312
0.00353976
0.00355564
0.00357075
0.0035851
0.00359869
0.00361152
0.00362359
0.00363491
0.00364548
0.0036553
0.00366437
0.00367271
0.00368038
0.00368727
0.00369339
0.00369881
0.00370351
0.00370739
0.00371072
0.0037134
0.00371537
0.00371667
0.0037173
0.00371726
0.00371657
0.00371524
0.00371328
0.00371071
0.00370752
0.00370374
0.00369938
0.00369444
0.00368894
0.0036829
0.00367631
0.0036692
0.00366157
0.00365342
0.00364476
0.00363563
0.00362602
0.00361599
0.00360554
0.00359471
0.00358351
0.00357198
0.00356013
0.00354796
0.0035355
0.00352274
0.00350972
0.00349644
0.00348294
0.00346924
0.00345536
0.00344131
0.00342711
0.00341274
0.00339819
0.00338341
0.00336832
0.0033528
0.00333619
0.00331686
0.00329078
1.93275e-08
1.47447e-06
1.66739e-05
5.21935e-05
9.32551e-05
0.000128063
0.000153954
0.00017135
0.000182209
0.000187866
0.000189697
0.000188824
0.000186162
0.000182443
0.000178073
0.000173158
0.000167625
0.000161495
0.000154733
0.00014736
0.000139364
0.000127842
0.000115183
0.000107505
0.000103131
9.79396e-05
0.000101207
0.000115743
0.000135511
0.00015706
0.000177616
0.00019478
0.000207217
0.000216225
0.000225425
0.000237009
0.000254506
0.000277388
0.000307609
0.000344417
0.000388073
0.000437726
0.000493038
0.000552964
0.000616362
0.000682082
0.000749274
0.000817464
0.000886159
0.000955043
0.0010238
0.00109176
0.0011593
0.00122636
0.00129246
0.00135757
0.00142162
0.00148459
0.00154645
0.00160721
0.00166689
0.00172551
0.00178311
0.00183974
0.00189545
0.00195027
0.00200426
0.00205746
0.00210991
0.00216165
0.00221272
0.00226313
0.00231288
0.00236198
0.00241039
0.0024581
0.00250511
0.00255138
0.00259691
0.00264167
0.00268565
0.00272885
0.00277125
0.00281287
0.00285372
0.00289385
0.00293319
0.00297173
0.00300949
0.00304646
0.00308267
0.0031181
0.00315277
0.00318667
0.00321982
0.00325222
0.00328386
0.00331478
0.00334496
0.0033744
0.0034031
0.00343106
0.00345827
0.00348472
0.00351042
0.00353535
0.00355952
0.00358292
0.00360555
0.0036274
0.00364848
0.00366877
0.00368829
0.00370703
0.00372499
0.00374217
0.00375858
0.00377422
0.0037891
0.0038032
0.00381655
0.00382914
0.00384097
0.00385206
0.0038624
0.003872
0.00388089
0.00388912
0.00389653
0.00390322
0.00390922
0.0039145
0.003919
0.00392295
0.00392621
0.00392878
0.00393069
0.00393193
0.00393252
0.00393247
0.00393178
0.00393046
0.00392853
0.003926
0.00392287
0.00391916
0.00391488
0.00391003
0.00390463
0.00389869
0.0038922
0.00388518
0.00387764
0.00386957
0.00386101
0.00385196
0.00384247
0.00383254
0.0038222
0.00381147
0.00380038
0.00378894
0.00377716
0.00376504
0.00375261
0.00373987
0.00372686
0.00371359
0.0037001
0.00368639
0.0036725
0.00365843
0.0036442
0.00362979
0.00361519
0.00360036
0.00358514
0.00356909
0.00355093
0.00352801
4.31596e-08
3.40944e-06
3.00734e-05
7.61144e-05
0.000120592
0.000154453
0.000176782
0.000190801
0.000197555
0.00019884
0.000196566
0.000192132
0.00018649
0.000180216
0.000173624
0.000166489
0.000159218
0.000151178
0.000143066
0.000134556
0.000125716
0.000117399
0.00011148
0.000110301
0.000115767
0.000127409
0.000143521
0.000161413
0.000179913
0.000197531
0.000212433
0.000224007
0.000236001
0.000249144
0.000265591
0.000286274
0.000313312
0.000346517
0.000386237
0.000431847
0.000483044
0.000539133
0.000599452
0.000662992
0.000728758
0.000795924
0.000863932
0.000932413
0.00100105
0.00106932
0.00113705
0.0012048
0.00127173
0.00133788
0.00140313
0.00146742
0.00153071
0.001593
0.00165426
0.00171452
0.00177378
0.00183208
0.00188948
0.00194601
0.00200172
0.00205666
0.00211087
0.00216431
0.0022171
0.00226927
0.00232086
0.00237186
0.0024223
0.0024722
0.00252165
0.00257052
0.00261867
0.00266603
0.00271259
0.00275833
0.00280321
0.00284723
0.00289038
0.00293267
0.00297409
0.00301462
0.00305433
0.00309324
0.00313137
0.00316873
0.00320533
0.00324117
0.00327627
0.00331063
0.00334424
0.00337712
0.00340926
0.00344068
0.00347136
0.00350129
0.00353047
0.00355891
0.00358658
0.0036135
0.00363966
0.00366504
0.00368966
0.0037135
0.00373657
0.00375885
0.00378036
0.00380108
0.00382102
0.00384018
0.00385857
0.00387618
0.00389302
0.00390909
0.0039244
0.00393896
0.00395276
0.00396581
0.00397812
0.0039897
0.00400054
0.00401066
0.00402012
0.00402885
0.00403684
0.00404414
0.00405075
0.00405666
0.00406186
0.00406646
0.0040704
0.00407366
0.00407628
0.00407826
0.00407959
0.0040803
0.00408039
0.00407987
0.00407875
0.00407704
0.00407474
0.00407187
0.00406843
0.00406444
0.00405989
0.00405481
0.00404918
0.00404301
0.0040363
0.00402908
0.00402134
0.00401311
0.00400441
0.00399527
0.00398571
0.00397574
0.00396538
0.00395465
0.00394354
0.00393208
0.00392028
0.00390814
0.00389571
0.00388299
0.00387001
0.0038568
0.00384338
0.00382976
0.00381596
0.003802
0.00378788
0.00377357
0.00375901
0.00374385
0.00372707
0.00370759
8.21253e-08
6.98384e-06
4.45935e-05
9.69538e-05
0.000142929
0.000175627
0.000196031
0.000205737
0.000207945
0.000205214
0.000199435
0.000191925
0.000183563
0.000174543
0.000165826
0.000156937
0.00014868
0.000141348
0.000135482
0.000130934
0.000128505
0.000129283
0.000133862
0.000142361
0.000154277
0.000168718
0.000184526
0.000200579
0.000215562
0.000228419
0.000241685
0.000256756
0.000273395
0.000293019
0.000317407
0.000347182
0.00038286
0.000424094
0.000470635
0.000521958
0.00057762
0.000637007
0.000699414
0.000763997
0.000829986
0.000896785
0.000963982
0.0010313
0.00109808
0.00116472
0.00123099
0.00129664
0.00136147
0.00142542
0.00148843
0.00155048
0.00161157
0.00167171
0.00173092
0.00178922
0.00184657
0.00190305
0.00195875
0.00201373
0.00206804
0.00212177
0.00217504
0.00222813
0.00228073
0.00233281
0.00238435
0.00243536
0.00248586
0.00253582
0.00258517
0.00263388
0.00268193
0.00272922
0.00277577
0.00282154
0.00286648
0.00291057
0.0029538
0.00299617
0.00303769
0.0030784
0.00311832
0.00315746
0.00319583
0.00323344
0.0032703
0.00330643
0.00334182
0.00337648
0.00341042
0.00344363
0.00347612
0.00350788
0.00353892
0.00356922
0.00359878
0.00362759
0.00365566
0.00368298
0.00370953
0.00373533
0.00376036
0.00378462
0.00380811
0.00383082
0.00385276
0.00387392
0.0038943
0.00391392
0.00393276
0.00395083
0.00396813
0.00398468
0.00400048
0.00401553
0.00402984
0.00404342
0.00405627
0.0040684
0.00407981
0.00409054
0.00410059
0.00410993
0.00411858
0.00412655
0.00413386
0.00414049
0.00414647
0.00415184
0.00415655
0.00416062
0.00416406
0.00416688
0.00416909
0.00417069
0.00417168
0.00417209
0.00417191
0.00417115
0.00416983
0.00416794
0.00416551
0.00416252
0.004159
0.00415493
0.00415033
0.00414519
0.0041395
0.00413329
0.00412656
0.00411933
0.00411163
0.00410348
0.00409489
0.00408589
0.00407647
0.00406667
0.00405647
0.00404588
0.00403493
0.00402363
0.00401199
0.00400005
0.00398783
0.00397535
0.00396262
0.00394969
0.00393655
0.00392325
0.0039098
0.0038962
0.00388243
0.00386825
0.00385276
0.00383625
1.31185e-07
1.1971e-05
6.04888e-05
0.000118571
0.000164642
0.000195377
0.000211779
0.000217531
0.00021614
0.000210305
0.000202009
0.000192347
0.000182609
0.000173301
0.000165085
0.000158045
0.000152531
0.000149307
0.000148113
0.000149236
0.00015297
0.000159409
0.000168379
0.000179494
0.000192223
0.000206018
0.00021978
0.000232661
0.000246014
0.000261701
0.000279278
0.000298336
0.00032106
0.000348082
0.00038005
0.000417026
0.000458878
0.000505212
0.000555668