/*--------------------------------*- C++ -*----------------------------------*\
  =========                 |
  \\      /  F ield         | OpenFOAM: The Open Source CFD Toolbox
   \\    /   O peration     | Website:  https://openfoam.org
    \\  /    A nd           | Version:  8
     \\/     M anipulation  |
\*---------------------------------------------------------------------------*/
FoamFile
{
    version     2.0;
    format      ascii;
    class       surfaceScalarField;
    location    "1700";
    object      phi;
}
// * * * * * * * * * * * * * * * * * * * * * * * * * * * * * * * * * * * * * //

dimensions      [0 3 -1 0 0 0 0];

internalField   nonuniform List<scalar> 
24170
(
3.0008e-06
1.33032e-07
2.85477e-06
1.45818e-07
2.72238e-06
1.32156e-07
2.60514e-06
1.17095e-07
2.50632e-06
9.86341e-08
2.42519e-06
8.08934e-08
2.35854e-06
6.64243e-08
2.3028e-06
5.58606e-08
2.25545e-06
4.74446e-08
2.21655e-06
3.90239e-08
2.1852e-06
3.1359e-08
2.15954e-06
2.56565e-08
2.13862e-06
2.09026e-08
2.12131e-06
1.72989e-08
2.10587e-06
1.54097e-08
2.09273e-06
1.3105e-08
2.0858e-06
6.91944e-09
2.07236e-10
2.08555e-06
3.51395e-06
7.54386e-08
3.54477e-06
1.14354e-07
3.55621e-06
1.2002e-07
3.55084e-06
1.21845e-07
3.53206e-06
1.16825e-07
3.50709e-06
1.0538e-07
3.48117e-06
9.20738e-08
3.45464e-06
8.24455e-08
3.42547e-06
7.67586e-08
3.39505e-06
6.9599e-08
3.36553e-06
6.09659e-08
3.33769e-06
5.3598e-08
3.3103e-06
4.83777e-08
3.28298e-06
4.46937e-08
3.25737e-06
4.10787e-08
3.23432e-06
3.62153e-08
3.21314e-06
2.81494e-08
2.23537e-08
3.19105e-06
3.83228e-06
5.53201e-08
3.85011e-06
9.65817e-08
3.86571e-06
1.04426e-07
3.87963e-06
1.07904e-07
3.8903e-06
1.06121e-07
3.89695e-06
9.86274e-08
3.89985e-06
8.91659e-08
3.9004e-06
8.20027e-08
3.9e-06
7.72469e-08
3.89804e-06
7.16181e-08
3.89394e-06
6.50552e-08
3.88845e-06
5.90823e-08
3.88227e-06
5.45435e-08
3.87581e-06
5.11341e-08
3.86938e-06
4.74713e-08
3.86297e-06
4.2603e-08
3.85505e-06
3.60681e-08
3.05084e-08
3.84689e-06
4.21607e-06
4.37669e-08
4.22855e-06
8.36799e-08
4.23903e-06
9.35234e-08
4.2491e-06
9.74184e-08
4.25811e-06
9.67319e-08
4.26521e-06
9.12239e-08
4.27035e-06
8.39074e-08
4.27451e-06
7.78783e-08
4.27867e-06
7.3175e-08
4.2823e-06
6.80468e-08
4.28487e-06
6.25475e-08
4.28665e-06
5.73694e-08
4.28814e-06
5.31214e-08
4.2897e-06
4.96147e-08
4.29129e-06
4.59109e-08
4.29255e-06
4.13752e-08
4.29262e-06
3.60415e-08
3.12165e-08
4.29196e-06
4.64594e-06
3.51075e-08
4.65659e-06
7.31839e-08
4.66571e-06
8.44704e-08
4.67442e-06
8.87548e-08
4.68238e-06
8.87783e-08
4.68891e-06
8.47158e-08
4.69399e-06
7.88641e-08
4.69838e-06
7.35693e-08
4.70268e-06
6.89245e-08
4.70663e-06
6.41054e-08
4.70997e-06
5.91883e-08
4.71282e-06
5.45098e-08
4.71549e-06
5.0436e-08
4.71826e-06
4.68392e-08
4.72104e-06
4.3109e-08
4.72353e-06
3.88875e-08
4.72527e-06
3.43136e-08
3.00075e-08
4.72642e-06
5.1215e-06
2.81724e-08
5.13111e-06
6.32194e-08
5.13982e-06
7.54275e-08
5.14812e-06
8.01544e-08
5.1558e-06
8.08231e-08
5.16229e-06
7.80369e-08
5.16759e-06
7.34767e-08
5.17225e-06
6.89075e-08
5.17665e-06
6.45418e-08
5.18069e-06
6.00881e-08
5.18429e-06
5.56261e-08
5.18751e-06
5.13479e-08
5.19055e-06
4.74499e-08
5.19359e-06
4.38474e-08
5.19657e-06
4.01789e-08
5.19925e-06
3.62531e-08
5.20141e-06
3.21834e-08
2.83686e-08
5.20313e-06
5.64648e-06
2.26955e-08
5.65532e-06
5.45578e-08
5.66381e-06
6.70464e-08
5.67192e-06
7.20787e-08
5.67953e-06
7.32413e-08
5.68616e-06
7.14264e-08
5.6918e-06
6.78878e-08
5.69683e-06
6.39228e-08
5.70148e-06
5.98999e-08
5.70575e-06
5.58007e-08
5.70963e-06
5.1738e-08
5.71317e-06
4.78004e-08
5.71652e-06
4.41145e-08
5.71977e-06
4.06039e-08
5.72288e-06
3.70828e-08
5.72569e-06
3.34558e-08
5.72811e-06
2.98192e-08
2.63363e-08
5.73011e-06
4.40933e-06
1.94809e-08
4.41518e-06
4.84566e-08
4.42117e-06
6.08301e-08
4.42689e-06
6.61458e-08
4.43227e-06
6.7684e-08
4.43713e-06
6.64502e-08
4.44141e-06
6.35503e-08
4.44527e-06
6.00363e-08
4.44881e-06
5.63386e-08
4.45207e-06
5.2529e-08
4.45507e-06
4.87457e-08
4.45785e-06
4.50511e-08
4.46045e-06
4.15348e-08
4.46294e-06
3.8139e-08
4.46529e-06
3.47659e-08
4.46743e-06
3.13496e-08
4.4693e-06
2.79629e-08
2.4767e-08
4.4709e-06
5.14282e-06
1.64972e-08
5.14869e-06
4.27588e-08
5.15498e-06
5.46051e-08
5.16111e-06
6.00353e-08
5.16695e-06
6.18303e-08
5.17231e-06
6.11081e-08
5.17711e-06
5.87574e-08
5.18148e-06
5.56782e-08
5.1855e-06
5.23029e-08
5.18921e-06
4.88064e-08
5.19264e-06
4.53063e-08
5.19584e-06
4.18713e-08
5.19883e-06
3.85532e-08
5.20167e-06
3.53365e-08
5.20432e-06
3.21346e-08
5.20675e-06
2.89607e-08
5.20891e-06
2.58455e-08
2.28795e-08
5.21078e-06
5.9985e-06
1.38379e-08
6.0043e-06
3.68718e-08
6.01081e-06
4.79749e-08
6.0173e-06
5.34388e-08
6.02359e-06
5.54611e-08
6.02945e-06
5.51956e-08
6.03479e-06
5.33785e-08
6.03969e-06
5.07549e-08
6.04421e-06
4.77492e-08
6.04841e-06
4.45951e-08
6.05231e-06
4.13987e-08
6.05595e-06
3.82418e-08
6.05936e-06
3.5168e-08
6.06257e-06
3.21273e-08
6.06557e-06
2.91707e-08
6.06831e-06
2.62309e-08
6.07077e-06
2.33831e-08
2.06977e-08
6.07295e-06
6.99669e-06
1.13775e-08
7.00236e-06
3.12781e-08
7.00902e-06
4.13164e-08
7.01582e-06
4.65985e-08
7.02252e-06
4.87402e-08
7.02887e-06
4.88163e-08
7.03476e-06
4.74813e-08
7.0402e-06
4.52785e-08
7.04526e-06
4.26796e-08
7.04996e-06
3.98678e-08
7.05437e-06
3.70098e-08
7.05849e-06
3.41498e-08
7.06232e-06
3.13038e-08
7.06593e-06
2.85371e-08
7.06928e-06
2.58011e-08
7.07238e-06
2.31519e-08
7.07517e-06
2.05805e-08
1.81895e-08
7.07767e-06
8.16122e-06
9.22194e-09
8.16664e-06
2.58522e-08
8.17335e-06
3.45774e-08
8.18041e-06
3.95108e-08
8.18747e-06
4.16559e-08
8.1943e-06
4.19811e-08
8.20073e-06
4.10066e-08
8.20676e-06
3.92654e-08
8.21238e-06
3.70213e-08
8.21765e-06
3.46138e-08
8.22258e-06
3.20729e-08
8.22719e-06
2.95276e-08
8.2315e-06
2.69773e-08
8.23551e-06
2.44865e-08
8.23926e-06
2.20405e-08
8.24271e-06
1.96911e-08
8.24586e-06
1.74252e-08
1.53269e-08
8.2487e-06
9.5197e-06
7.22342e-09
9.52489e-06
2.06696e-08
9.53157e-06
2.78773e-08
9.53882e-06
3.22258e-08
9.54622e-06
3.42385e-08
9.55347e-06
3.46581e-08
9.56047e-06
3.40247e-08
9.56706e-06
3.26063e-08
9.57332e-06
3.08063e-08
9.57916e-06
2.87219e-08
9.58469e-06
2.65747e-08
9.58981e-06
2.43363e-08
9.59463e-06
2.21468e-08
9.5991e-06
1.99525e-08
9.6033e-06
1.78714e-08
9.60714e-06
1.5825e-08
9.61068e-06
1.39132e-08
1.21166e-08
9.6139e-06
1.11045e-05
5.41895e-09
1.11094e-05
1.57739e-08
1.1116e-05
2.12943e-08
1.11234e-05
2.48361e-08
1.11311e-05
2.6511e-08
1.11388e-05
2.69292e-08
1.11463e-05
2.64526e-08
1.11536e-05
2.53834e-08
1.11604e-05
2.39052e-08
1.1167e-05
2.22298e-08
1.11731e-05
2.04202e-08
1.11788e-05
1.85871e-08
1.11841e-05
1.6736e-08
1.11892e-05
1.49526e-08
1.11938e-05
1.32012e-08
1.11982e-05
1.1546e-08
1.12021e-05
9.95373e-09
8.51534e-09
1.12058e-05
1.29533e-05
3.73056e-09
1.2958e-05
1.11131e-08
1.29645e-05
1.48696e-08
1.29721e-05
1.73243e-08
1.29801e-05
1.85086e-08
1.29882e-05
1.87442e-08
1.29963e-05
1.83469e-08
1.30042e-05
1.74981e-08
1.30117e-05
1.63508e-08
1.30189e-05
1.50319e-08
1.30257e-05
1.3619e-08
1.30321e-05
1.21782e-08
1.30381e-05
1.07435e-08
1.30437e-05
9.34763e-09
1.30489e-05
7.99869e-09
1.30538e-05
6.71712e-09
1.30583e-05
5.50546e-09
4.4065e-09
1.30624e-05
1.51101e-05
2.11307e-09
1.51147e-05
6.59195e-09
1.51212e-05
8.41337e-09
1.51289e-05
9.63625e-09
1.51373e-05
1.01157e-08
1.5146e-05
1.00414e-08
1.51547e-05
9.60712e-09
1.51633e-05
8.90587e-09
1.51716e-05
8.04038e-09
1.51796e-05
7.07142e-09
1.51871e-05
6.05958e-09
1.51943e-05
5.03631e-09
1.5201e-05
4.03216e-09
1.52073e-05
3.06039e-09
1.52132e-05
2.13408e-09
1.52187e-05
1.26162e-09
1.52238e-05
4.49342e-10
-2.77468e-10
1.52284e-05
1.76261e-05
4.76955e-10
1.76308e-05
1.90236e-09
1.76375e-05
1.6639e-09
1.76457e-05
1.47749e-09
1.76547e-05
1.07511e-09
1.76641e-05
6.05354e-10
1.76737e-05
1.03048e-11
1.76832e-05
-5.68939e-10
1.76924e-05
-1.21412e-09
1.77013e-05
-1.81173e-09
1.77098e-05
-2.4322e-09
1.77178e-05
-2.99283e-09
1.77254e-05
-3.54985e-09
1.77325e-05
-4.04608e-09
1.77392e-05
-4.52253e-09
1.77454e-05
-4.93897e-09
1.77512e-05
-5.32509e-09
-5.63916e-09
1.77566e-05
1.78278e-05
-1.10113e-09
1.78322e-05
-2.70965e-09
1.78388e-05
-4.9016e-09
1.78466e-05
-6.54763e-09
1.78555e-05
-7.7395e-09
1.78647e-05
-8.72303e-09
1.78742e-05
-9.39238e-09
1.78834e-05
-9.97067e-09
1.78927e-05
-1.03209e-08
1.79014e-05
-1.0646e-08
1.79099e-05
-1.08151e-08
1.79178e-05
-1.09907e-08
1.79254e-05
-1.10555e-08
1.79324e-05
-1.1135e-08
1.79391e-05
-1.11335e-08
1.79452e-05
-1.11451e-08
1.79511e-05
-1.10919e-08
-1.10362e-08
1.79564e-05
1.58828e-05
-2.5875e-09
1.5887e-05
-6.98116e-09
1.5893e-05
-1.10398e-08
1.59003e-05
-1.38866e-08
1.59082e-05
-1.58585e-08
1.59167e-05
-1.71341e-08
1.59251e-05
-1.79755e-08
1.59336e-05
-1.83737e-08
1.59418e-05
-1.85626e-08
1.59497e-05
-1.84939e-08
1.59571e-05
-1.83522e-08
1.59643e-05
-1.80656e-08
1.5971e-05
-1.77709e-08
1.59773e-05
-1.73928e-08
1.59831e-05
-1.70326e-08
1.59887e-05
-1.66204e-08
1.59938e-05
-1.62345e-08
-1.58032e-08
1.59986e-05
1.41501e-05
-4.0998e-09
1.41543e-05
-1.12209e-08
1.41603e-05
-1.70417e-08
1.41673e-05
-2.09781e-08
1.41749e-05
-2.35219e-08
1.41828e-05
-2.50994e-08
1.41907e-05
-2.59174e-08
1.41985e-05
-2.62098e-08
1.4206e-05
-2.60782e-08
1.42132e-05
-2.57071e-08
1.422e-05
-2.51494e-08
1.42264e-05
-2.45018e-08
1.42325e-05
-2.37833e-08
1.42381e-05
-2.30462e-08
1.42434e-05
-2.22905e-08
1.42483e-05
-2.15502e-08
1.42529e-05
-2.08112e-08
-2.00952e-08
1.42571e-05
1.26067e-05
-5.73127e-09
1.26111e-05
-1.56671e-08
1.26172e-05
-2.31683e-08
1.26242e-05
-2.80028e-08
1.26316e-05
-3.09838e-08
1.26392e-05
-3.27131e-08
1.26467e-05
-3.34897e-08
1.2654e-05
-3.35391e-08
1.2661e-05
-3.30938e-08
1.26676e-05
-3.23529e-08
1.26739e-05
-3.14019e-08
1.26797e-05
-3.03689e-08
1.26852e-05
-2.92524e-08
1.26903e-05
-2.81555e-08
1.2695e-05
-2.70396e-08
1.26995e-05
-2.5982e-08
1.27036e-05
-2.49333e-08
-2.39406e-08
1.27074e-05
1.12317e-05
-7.61676e-09
1.12366e-05
-2.0548e-08
1.1243e-05
-2.95937e-08
1.12501e-05
-3.5055e-08
1.12574e-05
-3.83225e-08
1.12648e-05
-4.01151e-08
1.1272e-05
-4.07295e-08
1.12789e-05
-4.04773e-08
1.12854e-05
-3.96758e-08
1.12916e-05
-3.85235e-08
1.12974e-05
-3.71921e-08
1.13027e-05
-3.57312e-08
1.13077e-05
-3.42672e-08
1.13124e-05
-3.27779e-08
1.13166e-05
-3.13659e-08
1.13206e-05
-2.99683e-08
1.13243e-05
-2.86735e-08
-2.73972e-08
1.13278e-05
1.00069e-05
-9.88987e-09
1.00125e-05
-2.61077e-08
1.00193e-05
-3.63841e-08
1.00264e-05
-4.2191e-08
1.00337e-05
-4.56039e-08
1.00409e-05
-4.73464e-08
1.00479e-05
-4.77029e-08
1.00545e-05
-4.7076e-08
1.00606e-05
-4.58567e-08
1.00664e-05
-4.42981e-08
1.00717e-05
-4.25394e-08
1.00767e-05
-4.07015e-08
1.00812e-05
-3.88393e-08
1.00854e-05
-3.70295e-08
1.00894e-05
-3.52712e-08
1.0093e-05
-3.36198e-08
1.00964e-05
-3.20339e-08
-3.05592e-08
1.00995e-05
8.91598e-06
-1.27693e-08
8.92242e-06
-3.25101e-08
8.92959e-06
-4.35401e-08
8.93682e-06
-4.94109e-08
8.94409e-06
-5.28693e-08
8.95119e-06
-5.44524e-08
8.95793e-06
-5.44328e-08
8.96422e-06
-5.33694e-08
8.97007e-06
-5.1718e-08
8.97548e-06
-4.97186e-08
8.98046e-06
-4.75448e-08
8.98505e-06
-4.53012e-08
8.98928e-06
-4.30799e-08
8.99317e-06
-4.093e-08
8.99675e-06
-3.88873e-08
9.00007e-06
-3.69503e-08
9.00315e-06
-3.51423e-08
-3.34342e-08
9.00604e-06
7.94441e-06
-1.65033e-08
7.95193e-06
-4.00136e-08
7.95943e-06
-5.10196e-08
7.96677e-06
-5.67353e-08
7.97408e-06
-6.01819e-08
7.98112e-06
-6.14859e-08
7.98769e-06
-6.10088e-08
7.99378e-06
-5.9465e-08
7.99941e-06
-5.73466e-08
8.00459e-06
-5.49095e-08
8.00934e-06
-5.23063e-08
8.01369e-06
-4.96664e-08
8.01767e-06
-4.70799e-08
8.02133e-06
-4.46052e-08
8.02469e-06
-4.22623e-08
8.02779e-06
-4.00739e-08
8.03067e-06
-3.80375e-08
-3.61307e-08
8.03334e-06
7.07927e-06
-2.14351e-08
7.08815e-06
-4.88822e-08
7.09613e-06
-5.89762e-08
7.10379e-06
-6.43934e-08
7.11133e-06
-6.77247e-08
7.11849e-06
-6.86405e-08
7.12513e-06
-6.76504e-08
7.13127e-06
-6.55959e-08
7.13693e-06
-6.30274e-08
7.14212e-06
-6.01109e-08
7.14686e-06
-5.70575e-08
7.15117e-06
-5.39911e-08
7.15509e-06
-5.10061e-08
7.15865e-06
-4.81869e-08
7.1619e-06
-4.55301e-08
7.16487e-06
-4.30627e-08
7.1676e-06
-4.07939e-08
-3.86916e-08
7.17013e-06
6.30969e-06
-2.86105e-08
6.32038e-06
-5.95332e-08
6.32963e-06
-6.82462e-08
6.33854e-06
-7.32894e-08
6.34717e-06
-7.63539e-08
6.35524e-06
-7.67084e-08
6.36269e-06
-7.50979e-08
6.36954e-06
-7.24786e-08
6.37581e-06
-6.92806e-08
6.38147e-06
-6.57849e-08
6.38655e-06
-6.21469e-08
6.39107e-06
-5.85152e-08
6.39505e-06
-5.50341e-08
6.39858e-06
-5.17106e-08
6.40167e-06
-4.86346e-08
6.40439e-06
-4.58021e-08
6.40678e-06
-4.32121e-08
-4.08312e-08
6.4089e-06
5.62896e-06
-4.26652e-08
5.64419e-06
-7.47543e-08
5.65831e-06
-8.23602e-08
5.67206e-06
-8.70297e-08
5.68493e-06
-8.9228e-08
5.6965e-06
-8.8269e-08
5.70663e-06
-8.52491e-08
5.71529e-06
-8.11503e-08
5.72249e-06
-7.64844e-08
5.72828e-06
-7.15765e-08
5.73276e-06
-6.66319e-08
5.73603e-06
-6.18233e-08
5.73822e-06
-5.72479e-08
5.73948e-06
-5.29837e-08
5.73994e-06
-4.90954e-08
5.73974e-06
-4.56141e-08
5.73902e-06
-4.25091e-08
-3.99721e-08
5.73813e-06
5.05113e-06
-9.14843e-08
5.08639e-06
-1.09994e-07
5.11424e-06
-1.10212e-07
5.13431e-06
-1.07089e-07
5.14641e-06
-1.01332e-07
5.15134e-06
-9.32018e-08
5.15029e-06
-8.42137e-08
5.14443e-06
-7.53099e-08
5.13486e-06
-6.69011e-08
5.12248e-06
-5.91995e-08
5.10806e-06
-5.22342e-08
5.09222e-06
-4.60139e-08
5.07543e-06
-4.04882e-08
5.05807e-06
-3.56316e-08
5.0404e-06
-3.14408e-08
5.02276e-06
-2.79878e-08
5.00551e-06
-2.52786e-08
-2.35944e-08
4.98912e-06
4.36507e-06
4.25507e-06
4.14486e-06
4.03777e-06
3.93644e-06
3.84324e-06
3.75902e-06
3.68371e-06
3.61681e-06
3.55761e-06
3.50537e-06
3.45935e-06
3.41886e-06
3.38322e-06
3.35178e-06
3.32379e-06
3.2985e-06
3.2749e-06
-8.30157e-09
8.32111e-09
-2.24938e-08
1.42244e-08
-3.80312e-08
1.5567e-08
-5.14972e-08
1.34902e-08
-5.77283e-08
6.25323e-09
-5.06006e-08
-7.10387e-09
-2.79065e-08
-2.26814e-08
8.01398e-09
-3.58918e-08
5.29826e-08
-4.49617e-08
1.02255e-07
-4.92495e-08
1.51278e-07
-4.90174e-08
1.9694e-07
-4.56459e-08
2.37165e-07
-4.02171e-08
2.70703e-07
-3.35267e-08
2.96821e-07
-2.61075e-08
3.15095e-07
-1.82669e-08
3.25253e-07
-1.01447e-08
3.26955e-07
-1.69842e-09
3.20011e-07
6.95745e-09
3.04576e-07
1.54402e-08
2.81266e-07
2.33235e-08
2.51063e-07
3.02166e-08
2.15373e-07
3.5704e-08
1.7608e-07
3.93213e-08
1.35491e-07
4.06056e-08
9.63014e-08
3.92292e-08
6.11684e-08
3.51561e-08
3.23448e-08
2.88711e-08
1.09385e-08
2.14366e-08
-3.16359e-09
1.41479e-08
-1.09049e-08
7.77638e-09
-1.28007e-08
1.92956e-09
-8.62111e-09
-4.14377e-09
2.85817e-09
-1.14536e-08
2.33356e-08
-2.04469e-08
5.28934e-08
-2.95338e-08
8.76767e-08
-3.47636e-08
1.21394e-07
-3.36948e-08
1.48416e-07
-2.70065e-08
1.6542e-07
-1.69874e-08
1.7233e-07
-6.90342e-09
1.71844e-07
4.82422e-10
1.67482e-07
4.36962e-09
1.62824e-07
4.62548e-09
1.60606e-07
2.23682e-09
1.56012e-07
4.51949e-09
1.39622e-07
1.64584e-08
1.02926e-07
3.65762e-08
4.00112e-08
6.30757e-08
-4.77861e-08
8.77048e-08
-1.54623e-07
1.06945e-07
-2.7768e-07
1.23029e-07
-4.13511e-07
1.35881e-07
-5.57635e-07
1.44143e-07
-7.04758e-07
1.47146e-07
-8.51513e-07
1.46788e-07
-9.94895e-07
1.43396e-07
-1.13225e-06
1.37384e-07
-1.26169e-06
1.29451e-07
-1.38192e-06
1.20257e-07
-1.49333e-06
1.11411e-07
-1.59516e-06
1.01861e-07
-1.68816e-06
9.29909e-08
-1.77384e-06
8.5705e-08
-1.85245e-06
7.86004e-08
-1.92476e-06
7.23421e-08
-1.9916e-06
6.68223e-08
-2.05354e-06
6.19637e-08
-2.11126e-06
5.77114e-08
-2.16522e-06
5.39666e-08
-2.21588e-06
5.06549e-08
-2.26358e-06
4.77062e-08
-2.30865e-06
4.50504e-08
-2.35129e-06
4.26394e-08
-2.39172e-06
4.04222e-08
-2.4301e-06
3.83652e-08
-2.46655e-06
3.6435e-08
-2.50117e-06
3.46076e-08
-2.53404e-06
3.28641e-08
-2.56525e-06
3.11854e-08
-2.59481e-06
2.95638e-08
-2.62281e-06
2.7982e-08
-2.64924e-06
2.644e-08
-2.67418e-06
2.49206e-08
-2.6976e-06
2.34284e-08
-2.71957e-06
2.19455e-08
-2.74004e-06
2.04791e-08
-2.75906e-06
1.90129e-08
-2.7766e-06
1.75506e-08
-2.79265e-06
1.60877e-08
-2.80725e-06
1.4618e-08
-2.82039e-06
1.31372e-08
-2.83204e-06
1.16411e-08
-2.84217e-06
1.01193e-08
-2.85074e-06
8.56443e-09
-2.85771e-06
6.96402e-09
-2.86302e-06
5.30707e-09
-2.86659e-06
3.57853e-09
-2.86837e-06
1.78142e-09
-2.86836e-06
3.70719e-12
-2.86679e-06
-1.55137e-09
-2.86387e-06
-2.90219e-09
-2.85964e-06
-4.21314e-09
-2.85412e-06
-5.50323e-09
-2.84732e-06
-6.7932e-09
-2.83922e-06
-8.07948e-09
-2.82985e-06
-9.36838e-09
-2.81918e-06
-1.0654e-08
-2.80724e-06
-1.1941e-08
-2.79401e-06
-1.32235e-08
-2.77951e-06
-1.45054e-08
-2.76374e-06
-1.57815e-08
-2.74669e-06
-1.70547e-08
-2.72838e-06
-1.83208e-08
-2.70881e-06
-1.95812e-08
-2.68799e-06
-2.08331e-08
-2.66593e-06
-2.20763e-08
-2.64264e-06
-2.33096e-08
-2.61812e-06
-2.45311e-08
-2.5924e-06
-2.5741e-08
-2.56547e-06
-2.69361e-08
-2.53737e-06
-2.81177e-08
-2.5081e-06
-2.92813e-08
-2.47768e-06
-3.04284e-08
-2.44613e-06
-3.15542e-08
-2.41347e-06
-3.26603e-08
-2.37973e-06
-3.37424e-08
-2.34492e-06
-3.4802e-08
-2.30908e-06
-3.58331e-08
-2.27223e-06
-3.68414e-08
-2.23441e-06
-3.78177e-08
-2.19564e-06
-3.876e-08
-2.15597e-06
-3.9662e-08
-2.11546e-06
-4.05061e-08
-2.07415e-06
-4.12948e-08
-2.03212e-06
-4.20142e-08
-1.98947e-06
-4.26531e-08
-1.94608e-06
-4.33916e-08
-1.9019e-06
-4.41826e-08
-1.85704e-06
-4.48468e-08
-1.81155e-06
-4.5469e-08
-1.76549e-06
-4.60454e-08
-1.7189e-06
-4.65915e-08
-1.6718e-06
-4.7099e-08
-1.62425e-06
-4.7577e-08
-1.57626e-06
-4.80164e-08
-1.52787e-06
-4.84267e-08
-1.47912e-06
-4.88041e-08
-1.43001e-06
-4.91553e-08
-1.38058e-06
-4.94795e-08
-1.33084e-06
-4.97782e-08
-1.28082e-06
-5.00427e-08
-1.23056e-06
-5.02833e-08
-1.18009e-06
-5.04911e-08
-1.12942e-06
-5.06745e-08
-1.07858e-06
-5.08382e-08
-1.02759e-06
-5.09837e-08
-9.76463e-07
-5.11211e-08
-9.25195e-07
-5.12526e-08
-8.7379e-07
-5.13851e-08
-8.22244e-07
-5.15213e-08
-7.70552e-07
-5.16638e-08
-7.18708e-07
-5.1811e-08
-6.6671e-07
-5.19617e-08
-6.14555e-07
-5.21143e-08
-5.62241e-07
-5.2271e-08
-5.09762e-07
-5.24335e-08
-4.57112e-07
-5.26057e-08
-4.04276e-07
-5.27889e-08
-3.51252e-07
-5.29812e-08
-2.98035e-07
-5.31739e-08
-2.44647e-07
-5.33481e-08
-1.91136e-07
-5.34735e-08
-1.37611e-07
-5.34884e-08
-8.42674e-08
-5.33103e-08
-3.15368e-08
-5.2695e-08
1.99314e-08
-5.14388e-08
6.84641e-08
-4.85072e-08
1.13411e-07
-4.49367e-08
-2.03626e-08
1.33798e-07
-3.47904e-09
1.18335e-08
-9.70506e-09
2.0505e-08
-1.27424e-08
1.86613e-08
-5.5049e-09
6.30321e-09
1.71691e-08
-1.63827e-08
5.4504e-08
-4.44116e-08
1.02089e-07
-7.0254e-08
1.54433e-07
-8.82195e-08
2.06339e-07
-9.68621e-08
2.54457e-07
-9.73548e-08
2.97261e-07
-9.18157e-08
3.34046e-07
-8.24216e-08
3.64685e-07
-7.08507e-08
3.89377e-07
-5.82121e-08
4.08451e-07
-4.51741e-08
4.2229e-07
-3.21011e-08
4.31321e-07
-1.9168e-08
4.36093e-07
-6.4658e-09
4.37016e-07
6.04283e-09
4.33992e-07
1.84692e-08
4.26554e-07
3.07717e-08
4.14079e-07
4.27011e-08
3.95988e-07
5.38066e-08
3.71908e-07
6.34169e-08
3.41846e-07
7.06813e-08
3.06415e-07
7.46821e-08
2.6695e-07
7.46378e-08
2.2566e-07
7.01878e-08
1.85555e-07
6.15649e-08
1.50239e-07
4.94963e-08
1.23231e-07
3.48177e-08
1.0709e-07
1.81045e-08
1.03296e-07
-3.11921e-10
1.11465e-07
-1.95964e-08
1.29614e-07
-3.85717e-08
1.52554e-07
-5.24527e-08
1.73067e-07
-5.52629e-08
1.86028e-07
-4.66365e-08
1.89674e-07
-3.0642e-08
1.83988e-07
-1.12812e-08
1.70227e-07
6.86704e-09
1.50389e-07
2.03327e-08
1.20253e-07
3.45156e-08
6.99577e-08
5.4922e-08
-9.98966e-09
8.2202e-08
-1.2191e-07
1.16409e-07
-2.58174e-07
1.52733e-07
-4.08766e-07
1.8715e-07
-5.64836e-07
2.1916e-07
-7.23355e-07
2.46211e-07
-8.82304e-07
2.65907e-07
-1.03777e-06
2.78494e-07
-1.18593e-06
2.84058e-07
-1.32425e-06
2.82471e-07
-1.45129e-06
2.74205e-07
-1.56558e-06
2.61096e-07
-1.66711e-06
2.44933e-07
-1.75675e-06
2.27036e-07
-1.83593e-06
2.08634e-07
-1.90618e-06
1.90513e-07
-1.96839e-06
1.73617e-07
-2.02467e-06
1.58153e-07
-2.07598e-06
1.44302e-07
-2.1226e-06
1.3234e-07
-2.16582e-06
1.21816e-07
-2.20612e-06
1.12648e-07
-2.24396e-06
1.04663e-07
-2.27967e-06
9.76814e-08
-2.3135e-06
9.15447e-08
-2.34564e-06
8.6106e-08
-2.37623e-06
8.12388e-08
-2.40536e-06
7.68373e-08
-2.43312e-06
7.281e-08
-2.45958e-06
6.90858e-08
-2.48476e-06
6.56019e-08
-2.50872e-06
6.2312e-08
-2.53147e-06
5.91757e-08
-2.55304e-06
5.61625e-08
-2.57343e-06
5.32476e-08
-2.59267e-06
5.04103e-08
-2.61074e-06
4.7636e-08
-2.62768e-06
4.49095e-08
-2.64346e-06
4.22231e-08
-2.65811e-06
3.95644e-08
-2.67161e-06
3.69295e-08
-2.68398e-06
3.43073e-08
-2.69521e-06
3.16963e-08
-2.70528e-06
2.90878e-08
-2.7142e-06
2.64799e-08
-2.72195e-06
2.38686e-08
-2.72858e-06
2.12519e-08
-2.73407e-06
1.86265e-08
-2.73843e-06
1.59904e-08
-2.74166e-06
1.33409e-08
-2.74378e-06
1.06773e-08
-2.74482e-06
7.99994e-09
-2.74483e-06
5.31517e-09
-2.74388e-06
2.63732e-09
-2.74209e-06
1.10918e-12
-2.73952e-06
-2.55956e-09
-2.73598e-06
-5.08421e-09
-2.73124e-06
-7.62243e-09
-2.72528e-06
-1.01638e-08
-2.71807e-06
-1.27037e-08
-2.7096e-06
-1.52461e-08
-2.69988e-06
-1.77893e-08
-2.68891e-06
-2.03343e-08
-2.67668e-06
-2.2878e-08
-2.6632e-06
-2.54208e-08
-2.64846e-06
-2.79591e-08
-2.63247e-06
-3.04932e-08
-2.61524e-06
-3.30194e-08
-2.59676e-06
-3.55377e-08
-2.57705e-06
-3.80444e-08
-2.5561e-06
-4.0539e-08
-2.53393e-06
-4.30178e-08
-2.51053e-06
-4.54796e-08
-2.48593e-06
-4.79215e-08
-2.46014e-06
-5.03414e-08
-2.43315e-06
-5.27368e-08
-2.40499e-06
-5.5105e-08
-2.37567e-06
-5.74439e-08
-2.34521e-06
-5.97493e-08
-2.31363e-06
-6.20194e-08
-2.28094e-06
-6.4249e-08
-2.24716e-06
-6.6437e-08
-2.21233e-06
-6.85782e-08
-2.17645e-06
-7.0672e-08
-2.13957e-06
-7.27127e-08
-2.10171e-06
-7.46995e-08
-2.06289e-06
-7.66243e-08
-2.02317e-06
-7.84823e-08
-1.98256e-06
-8.02634e-08
-1.9411e-06
-8.19627e-08
-1.8988e-06
-8.35846e-08
-1.85568e-06
-8.51281e-08
-1.81173e-06
-8.65993e-08
-1.76706e-06
-8.80692e-08
-1.72174e-06
-8.95012e-08
-1.67576e-06
-9.08192e-08
-1.62916e-06
-9.20511e-08
-1.582e-06
-9.32031e-08
-1.5343e-06
-9.42855e-08
-1.48611e-06
-9.5297e-08
-1.43746e-06
-9.62422e-08
-1.38838e-06
-9.71191e-08
-1.33891e-06
-9.79329e-08
-1.28906e-06
-9.86862e-08
-1.23887e-06
-9.93852e-08
-1.18835e-06
-1.00031e-07
-1.13752e-06
-1.00627e-07
-1.08642e-06
-1.01164e-07
-1.03507e-06
-1.01649e-07
-9.83488e-07
-1.02077e-07
-9.3171e-07
-1.02456e-07
-8.79753e-07
-1.02794e-07
-8.27632e-07
-1.031e-07
-7.75357e-07
-1.03386e-07
-7.22934e-07
-1.03664e-07
-6.70362e-07
-1.03941e-07
-6.17638e-07
-1.04228e-07
-5.64755e-07
-1.04525e-07
-5.11707e-07
-1.04836e-07
-4.5849e-07
-1.05152e-07
-4.051e-07
-1.05476e-07
-3.51533e-07
-1.05806e-07
-2.97784e-07
-1.06151e-07
-2.43844e-07
-1.06514e-07
-1.89702e-07
-1.06899e-07
-1.35351e-07
-1.07302e-07
-8.07898e-08
-1.07707e-07
-2.60382e-08
-1.08075e-07
2.8861e-08
-1.08349e-07
8.38232e-08
-1.0843e-07
1.38677e-07
-1.08144e-07
1.93159e-07
-1.07159e-07
2.46676e-07
-1.04938e-07
2.98648e-07
-1.00465e-07
3.45688e-07
-9.19667e-08
-6.53524e-08
3.90696e-07
4.867e-10
1.13731e-08
4.225e-09
1.68153e-08
1.89129e-08
4.01349e-09
5.24789e-08
-2.72359e-08
1.03548e-07
-6.74385e-08
1.62553e-07
-1.03404e-07
2.19488e-07
-1.27183e-07
2.68715e-07
-1.37436e-07
3.08533e-07
-1.36677e-07
3.39632e-07
-1.28446e-07
3.636e-07
-1.1578e-07
3.8199e-07
-1.00806e-07
3.95988e-07
-8.48458e-08
4.06421e-07
-6.86407e-08
4.1383e-07
-5.25791e-08
4.18583e-07
-3.68518e-08
4.20965e-07
-2.15463e-08
4.21213e-07
-6.71107e-09
4.19623e-07
7.63713e-09
4.16556e-07
2.15405e-08
4.12285e-07
3.50486e-08
4.06848e-07
4.81442e-08
3.99974e-07
6.0689e-08
3.91054e-07
7.23458e-08
3.79222e-07
8.25227e-08
3.63558e-07
9.03577e-08
3.43438e-07
9.47696e-08
3.19008e-07
9.46333e-08
2.91508e-07
8.90805e-08
2.63318e-07
7.77052e-08
2.37466e-07
6.069e-08
2.16792e-07
3.87974e-08
2.03008e-07
1.3493e-08
1.96111e-07
-1.26817e-08
1.91722e-07
-3.4171e-08
1.82267e-07
-4.29841e-08
1.63697e-07
-3.66861e-08
1.36114e-07
-1.90398e-08
1.00331e-07
5.14727e-09
5.45942e-08
3.44752e-08
-6.49325e-09
6.79662e-08
-8.99569e-08
1.03812e-07
-1.98272e-07
1.42839e-07
-3.28619e-07
1.85276e-07
-4.75236e-07
2.28823e-07
-6.2925e-07
2.70417e-07
-7.83955e-07
3.0744e-07
-9.34432e-07
3.37617e-07
-1.07522e-06
3.59951e-07
-1.20307e-06
3.7405e-07
-1.31688e-06
3.7972e-07
-1.41601e-06
3.77622e-07
-1.50071e-06
3.68766e-07
-1.57258e-06
3.54342e-07
-1.63413e-06
3.35769e-07
-1.68768e-06
3.14655e-07
-1.7352e-06
2.92458e-07
-1.77841e-06
2.7025e-07
-1.81866e-06
2.4888e-07
-1.85698e-06
2.28838e-07
-1.89382e-06
2.10464e-07
-1.9296e-06
1.93933e-07
-1.96451e-06
1.79218e-07
-1.99841e-06
1.66241e-07
-2.0314e-06
1.54802e-07
-2.06346e-06
1.44714e-07
-2.09459e-06
1.35793e-07
-2.12476e-06
1.27861e-07
-2.15398e-06
1.20756e-07
-2.18221e-06
1.14337e-07
-2.20945e-06
1.08479e-07
-2.23569e-06
1.03081e-07
-2.26094e-06
9.80525e-08
-2.28518e-06
9.33219e-08
-2.30842e-06
8.88295e-08
-2.33064e-06
8.45272e-08
-2.35185e-06
8.03755e-08
-2.37203e-06
7.63434e-08
-2.3912e-06
7.24057e-08
-2.40934e-06
6.85419e-08
-2.42644e-06
6.4736e-08
-2.44251e-06
6.09744e-08
-2.45754e-06
5.72468e-08
-2.47152e-06
5.35435e-08
-2.48445e-06
4.98578e-08
-2.49633e-06
4.61821e-08
-2.50715e-06
4.25122e-08
-2.51691e-06
3.88424e-08
-2.52558e-06
3.51691e-08
-2.53319e-06
3.14912e-08
-2.53973e-06
2.78047e-08
-2.54522e-06
2.41102e-08
-2.54965e-06
2.0406e-08
-2.55301e-06
1.66934e-08
-2.55531e-06
1.2973e-08
-2.55656e-06
9.24919e-09
-2.55677e-06
5.52715e-09
-2.55595e-06
1.81665e-09
-2.55407e-06
-1.87121e-09
-2.55108e-06
-5.5416e-09
-2.54693e-06
-9.22482e-09
-2.5416e-06
-1.29383e-08
-2.53509e-06
-1.66688e-08
-2.52737e-06
-2.04112e-08
-2.51845e-06
-2.41611e-08
-2.50831e-06
-2.79173e-08
-2.49696e-06
-3.16757e-08
-2.4844e-06
-3.54358e-08
-2.47063e-06
-3.91935e-08
-2.45564e-06
-4.29479e-08
-2.43944e-06
-4.66952e-08
-2.42202e-06
-5.04338e-08
-2.40341e-06
-5.41602e-08
-2.38359e-06
-5.7872e-08
-2.36257e-06
-6.15657e-08
-2.34035e-06
-6.52381e-08
-2.31696e-06
-6.88858e-08
-2.29238e-06
-7.2505e-08
-2.26664e-06
-7.60925e-08
-2.23974e-06
-7.96443e-08
-2.2117e-06
-8.31567e-08
-2.18253e-06
-8.66253e-08
-2.15224e-06
-9.0046e-08
-2.12085e-06
-9.34133e-08
-2.08838e-06
-9.67223e-08
-2.05485e-06
-9.99677e-08
-2.02028e-06
-1.03145e-07
-1.9847e-06
-1.06249e-07
-1.94814e-06
-1.09276e-07
-1.91061e-06
-1.1222e-07
-1.87216e-06
-1.15073e-07
-1.83281e-06
-1.17829e-07
-1.79259e-06
-1.20478e-07
-1.75153e-06
-1.23016e-07
-1.70965e-06
-1.2545e-07
-1.66699e-06
-1.27783e-07
-1.62357e-06
-1.30021e-07
-1.57945e-06
-1.32187e-07
-1.53468e-06
-1.3426e-07
-1.48928e-06
-1.36205e-07
-1.44329e-06
-1.38031e-07
-1.39674e-06
-1.39745e-07
-1.34967e-06
-1.41353e-07
-1.30211e-06
-1.42856e-07
-1.2541e-06
-1.44259e-07
-1.20566e-06
-1.45565e-07
-1.15684e-06
-1.46776e-07
-1.10764e-06
-1.479e-07
-1.05811e-06
-1.48942e-07
-1.00825e-06
-1.49906e-07
-9.58089e-07
-1.50797e-07
-9.07653e-07
-1.51609e-07
-8.56966e-07
-1.52344e-07
-8.06049e-07
-1.53001e-07
-7.54926e-07
-1.53584e-07
-7.03616e-07
-1.54109e-07
-6.52133e-07
-1.54585e-07
-6.0049e-07
-1.55033e-07
-5.48688e-07
-1.55466e-07
-4.96731e-07
-1.559e-07
-4.44613e-07
-1.56346e-07
-3.92329e-07
-1.56811e-07
-3.39871e-07
-1.57292e-07
-2.87237e-07
-1.57786e-07
-2.34421e-07
-1.5829e-07
-1.8142e-07
-1.58807e-07
-1.28226e-07
-1.59342e-07
-7.48328e-08
-1.59906e-07
-2.12287e-08
-1.60501e-07
3.25921e-08
-1.61122e-07
8.66328e-08
-1.61745e-07
1.40882e-07
-1.62323e-07
1.95304e-07
-1.62768e-07
2.4982e-07
-1.62943e-07
3.04296e-07
-1.62616e-07
3.58528e-07
-1.61387e-07
4.12172e-07
-1.58579e-07
4.64798e-07
-1.53089e-07
5.15437e-07
-1.42605e-07
-1.17464e-07
5.67551e-07
-1.85605e-10
1.1578e-08
1.29708e-08
3.69297e-09
5.30581e-08
-3.60567e-08
1.15652e-07
-8.98159e-08
1.8328e-07
-1.35062e-07
2.41579e-07
-1.61695e-07
2.84846e-07
-1.70447e-07
3.13989e-07
-1.66572e-07
3.32624e-07
-1.55311e-07
3.44461e-07
-1.40277e-07
3.52197e-07
-1.23513e-07
3.57453e-07
-1.06058e-07
3.61044e-07
-8.84349e-08
3.63323e-07
-7.09167e-08
3.64405e-07
-5.36604e-08
3.64324e-07
-3.677e-08
3.63101e-07
-2.03214e-08
3.60771e-07
-4.38026e-09
3.57409e-07
1.10003e-08
3.5316e-07
2.57915e-08
3.48244e-07
3.99675e-08
3.429e-07
5.34914e-08
3.37303e-07
6.62914e-08
3.31454e-07
7.81998e-08
3.25094e-07
8.88909e-08
3.17679e-07
9.77805e-08
3.08461e-07
1.03998e-07
2.96705e-07
1.06401e-07
2.82036e-07
1.03762e-07
2.64644e-07
9.51114e-08
2.45502e-07
7.9847e-08
2.26025e-07
5.82892e-08
2.0683e-07
3.27024e-08
1.84432e-07
9.72927e-09
1.51691e-07
-1.42149e-09
1.05893e-07
2.82419e-09
4.83227e-08
2.08899e-08
-2.17312e-08
5.10249e-08
-1.07164e-07
9.05874e-08
-2.09156e-07
1.36477e-07
-3.26751e-07
1.85568e-07
-4.57965e-07
2.35034e-07
-5.98147e-07
2.83029e-07
-7.40917e-07
3.28049e-07
-8.80214e-07
3.68126e-07
-1.01048e-06
4.0068e-07
-1.12742e-06
4.24375e-07
-1.22922e-06
4.39413e-07
-1.31527e-06
4.45999e-07
-1.3861e-06
4.44873e-07
-1.44352e-06
4.37139e-07
-1.48988e-06
4.23975e-07
-1.52779e-06
4.0668e-07
-1.55991e-06
3.86468e-07
-1.58862e-06
3.64481e-07
-1.61572e-06
3.41758e-07
-1.6424e-06
3.19141e-07
-1.66939e-06
2.97249e-07
-1.69703e-06
2.76525e-07
-1.72542e-06
2.57229e-07
-1.75446e-06
2.39503e-07
-1.78393e-06
2.2341e-07
-1.81361e-06
2.08901e-07
-1.84325e-06
1.9588e-07
-1.87265e-06
1.84208e-07
-1.90166e-06
1.73729e-07
-1.93016e-06
1.64287e-07
-1.95803e-06
1.55733e-07
-1.9852e-06
1.47929e-07
-2.01162e-06
1.40751e-07
-2.03723e-06
1.34088e-07
-2.062e-06
1.27847e-07
-2.08589e-06
1.21948e-07
-2.1089e-06
1.16325e-07
-2.131e-06
1.1092e-07
-2.15217e-06
1.0569e-07
-2.17239e-06
1.00598e-07
-2.19167e-06
9.56135e-08
-2.20998e-06
9.07134e-08
-2.22733e-06
8.58783e-08
-2.24369e-06
8.10926e-08
-2.25906e-06
7.63435e-08
-2.27343e-06
7.16211e-08
-2.28681e-06
6.69165e-08
-2.29918e-06
6.2223e-08
-2.31053e-06
5.75346e-08
-2.32087e-06
5.28463e-08
-2.33018e-06
4.81538e-08
-2.33846e-06
4.34543e-08
-2.3457e-06
3.87447e-08
-2.35191e-06
3.40239e-08
-2.35709e-06
2.92909e-08
-2.36124e-06
2.45445e-08
-2.36434e-06
1.97865e-08
-2.36639e-06
1.50171e-08
-2.36738e-06
1.02392e-08
-2.36731e-06
5.45493e-09
-2.36616e-06
6.68134e-10
-2.3639e-06
-4.12067e-09
-2.36052e-06
-8.92012e-09
-2.35599e-06
-1.37462e-08
-2.35031e-06
-1.86054e-08
-2.34348e-06
-2.34889e-08
-2.33549e-06
-2.83915e-08
-2.32634e-06
-3.33068e-08
-2.31602e-06
-3.82324e-08
-2.30452e-06
-4.31629e-08
-2.29186e-06
-4.80969e-08
-2.27802e-06
-5.3029e-08
-2.26301e-06
-5.79583e-08
-2.24683e-06
-6.28793e-08
-2.22947e-06
-6.77907e-08
-2.21095e-06
-7.26872e-08
-2.19126e-06
-7.75662e-08
-2.17041e-06
-8.24224e-08
-2.14841e-06
-8.72523e-08
-2.12525e-06