/*--------------------------------*- C++ -*----------------------------------*\
  =========                 |
  \\      /  F ield         | OpenFOAM: The Open Source CFD Toolbox
   \\    /   O peration     | Website:  https://openfoam.org
    \\  /    A nd           | Version:  8
     \\/     M anipulation  |
\*---------------------------------------------------------------------------*/
FoamFile
{
    version     2.0;
    format      ascii;
    class       volVectorField;
    location    "1700";
    object      wallShearStress;
}
// * * * * * * * * * * * * * * * * * * * * * * * * * * * * * * * * * * * * * //

dimensions      [0 2 -2 0 0 0 0];

internalField   uniform (0 0 0);

boundaryField
{
    inlet
    {
        type            calculated;
        value           uniform (0 0 0);
    }
    outlet
    {
        type            calculated;
        value           uniform (0 0 0);
    }
    upperWall
    {
        type            calculated;
        value           nonuniform List<vector> 
223
(
(-0.444122 0.00293477 0)
(-0.473985 0.00539001 0)
(-0.498077 0.00684641 0)
(-0.503955 0.00744532 0)
(-0.500244 0.00747499 0)
(-0.48989 0.00711409 0)
(-0.477929 0.0065838 0)
(-0.465691 0.00597998 0)
(-0.45315 0.00534986 0)
(-0.441375 0.00474593 0)
(-0.43061 0.00418566 0)
(-0.420894 0.00367593 0)
(-0.412211 0.00321617 0)
(-0.404486 0.0028063 0)
(-0.397629 0.00244502 0)
(-0.391545 0.00214125 0)
(-0.386094 0.0018981 0)
(-0.381235 0.00175433 0)
(-0.37734 0.00167926 0)
(-0.374265 0.00163277 5.79735e-22)
(-0.371253 0.001567 0)
(-0.368317 0.00149044 0)
(-0.365454 0.00140956 0)
(-0.362668 0.00132624 5.92432e-22)
(-0.359961 0.00124352 0)
(-0.357337 0.00116129 0)
(-0.354796 0.00108139 0)
(-0.35234 0.00100277 -1.20783e-21)
(-0.349971 0.000926655 1.21332e-21)
(-0.347692 0.000852172 1.21868e-21)
(-0.345502 0.000780947 0)
(-0.343402 0.000712947 -1.22911e-21)
(-0.341389 0.000649869 0)
(-0.33946 0.000591425 1.23919e-21)
(-0.337608 0.000538315 1.24412e-21)
(-0.335827 0.000489895 -1.249e-21)
(-0.334114 0.000445467 0)
(-0.332465 0.000404116 0)
(-0.330879 0.000364544 0)
(-0.329358 0.000326003 0)
(-0.327905 0.000288588 -1.27304e-21)
(-0.32652 0.000252592 0)
(-0.325204 0.000218455 0)
(-0.323954 0.000186333 1.28721e-21)
(-0.32277 0.000156553 0)
(-0.321649 0.000129368 1.29661e-21)
(-0.320587 0.000104887 -1.30129e-21)
(-0.31958 8.33848e-05 1.30596e-21)
(-0.318624 6.50626e-05 0)
(-0.317715 4.98473e-05 0)
(-0.316846 3.77102e-05 0)
(-0.316015 2.83641e-05 1.32465e-21)
(-0.315216 2.19705e-05 -1.32936e-21)
(-0.314447 1.81155e-05 0)
(-0.313699 1.67117e-05 0)
(-0.312975 1.74822e-05 0)
(-0.312262 2.02092e-05 0)
(-0.311568 2.45536e-05 0)
(-0.310878 3.0338e-05 0)
(-0.310202 3.73889e-05 0)
(-0.309523 4.53347e-05 0)
(-0.308858 5.40469e-05 1.37362e-21)
(-0.308178 6.35537e-05 -1.37881e-21)
(-0.307521 7.35265e-05 0)
(-0.30683 8.39211e-05 0)
(-0.306172 9.45744e-05 0)
(-0.305472 0.000105809 -1.40039e-21)
(-0.3048 0.000116357 0)
(-0.304094 0.000129259 0)
(-0.303383 0.000147238 0)
(-0.302697 0.000132225 0)
(-0.301834 9.91862e-05 0)
(-0.301541 0.000148632 -2.87136e-21)
(-0.301355 0.000223238 0)
(-0.301137 0.000228829 0)
(-0.300908 0.000204437 0)
(-0.300713 0.000164715 0)
(-0.350685 0.000158675 0)
(-0.334996 0.000133733 0)
(-0.329472 9.93682e-05 0)
(-0.369937 0.000164261 3.67859e-21)
(-0.348471 0.000248036 0)
(-0.365129 9.36156e-05 0)
(-0.372245 0.000758656 0)
(-0.349342 0.00126214 -3.48951e-21)
(-0.335185 0.000867634 0)
(-0.322029 0.000469343 -3.26249e-21)
(-0.310099 0.000185837 0)
(-0.299705 0.000306451 0)
(-0.297574 0.000115541 0)
(-0.326088 0.000607318 -3.38444e-21)
(-0.31481 0.000989756 0)
(-0.306077 0.000860096 3.1815e-21)
(-0.301512 0.00086051 3.13814e-21)
(-0.305417 0.000442265 0)
(-0.310845 0.000185812 3.29628e-21)
(-0.295277 -5.26503e-05 0)
(-0.34509 0.000140685 0)
(-0.32643 0.000939383 0)
(-0.304186 0.000862012 -3.24068e-21)
(-0.304422 0.000345792 0)
(-0.306965 0.000133808 -3.32116e-21)
(-0.293319 -9.41614e-05 3.19647e-21)
(-0.314283 -5.20946e-05 0)
(-0.354908 0.000290479 0)
(-0.326872 0.000176551 0)
(-0.322343 -7.62267e-05 0)
(-0.352827 0.000434368 0)
(-0.325832 0.00080948 0)
(-0.295945 0.00109927 0)
(-0.289494 0.000970609 -3.09532e-21)
(-0.289009 0.000539436 0)
(-0.288397 0.00105817 0)
(-0.287367 0.00102682 0)
(-0.286753 0.000604999 0)
(-0.286043 0.000308572 0)
(-0.285544 -0.00016643 0)
(-0.32329 0.000601122 0)
(-0.297006 0.000794962 0)
(-0.283497 0.000392982 0)
(-0.282721 0.000600678 0)
(-0.28188 0.000885583 0)
(-0.280722 0.00128277 0)
(-0.279583 0.00103856 -5.61004e-21)
(-0.278696 0.000684198 0)
(-0.277632 0.000355635 0)
(-0.276794 -0.000207487 0)
(-0.295027 -0.0003321 5.80396e-21)
(-0.295451 -0.000145591 0)
(-0.306203 0.000417674 0)
(-0.282199 0.00108165 5.26561e-21)
(-0.271129 0.000815146 0)
(-0.270216 0.000225731 -4.82975e-21)
(-0.287094 0.000723317 0)
(-0.267581 0.000838048 0)
(-0.292741 0.00102364 0)
(-0.265081 0.000871774 4.20557e-21)
(-0.293234 0.00088844 0)
(-0.262587 0.000722809 -3.86466e-21)
(-0.289468 0.000729861 0)
(-0.259928 0.000631744 0)
(-0.283146 0.000785488 0)
(-0.256908 0.0012004 0)
(-0.25526 0.000461923 0)
(-0.264953 -0.000114426 0)
(-0.266292 0.000434477 0)
(-0.249951 0.000632627 0)
(-0.25247 0.000666863 0)
(-0.246302 0.000646812 0)
(-0.244011 0.000954199 0)
(-0.242601 0.00199005 -1.18612e-21)
(-0.24079 0.00225909 8.95061e-22)
(-0.238549 0.00193141 0)
(-0.236735 0.000640692 0)
(-0.234407 0.000245829 0)
(-0.253669 0.000362392 0)
(-0.254228 -0.000118947 -7.31421e-22)
(-0.248024 -6.3703e-05 1.11499e-21)
(-0.238315 5.0676e-05 -1.47531e-21)
(-0.228664 0.000826652 0)
(-0.220865 0.000447042 -2.1387e-21)
(-0.218532 -0.000589429 -5.26878e-21)
(-0.215928 -0.000654206 0)
(-0.212094 0.00102263 -7.17504e-21)
(-0.211975 0.00167845 7.62154e-21)
(-0.209377 0.000754872 0)
(-0.207973 0.000440826 0)
(-0.205087 0.000874635 0)
(-0.205129 0.000857039 0)
(-0.201925 0.000633201 0)
(-0.200758 0.00138465 -1.36695e-20)
(-0.202772 0.000357216 0)
(-0.196134 0.000666409 -1.6337e-20)
(-0.195181 0.00119054 0)
(-0.191839 0.000527718 0)
(-0.188767 0.000860695 0)
(-0.186256 0.000713162 0)
(-0.182422 0.000832389 0)
(-0.181146 0.00138815 2.38352e-20)
(-0.180457 0.00113263 0)
(-0.178285 0.000747963 0)
(-0.174673 0.000463299 -2.86519e-20)
(-0.169805 0.000219329 0)
(-0.163924 4.8613e-05 0)
(-0.15962 0.000629069 0)
(-0.159019 0.00114206 3.65054e-20)
(-0.15947 0.000992892 0)
(-0.157448 0.000769522 0)
(-0.152429 0.000504669 0)
(-0.143177 0.000615001 0)
(-0.130401 0.00103403 -5.57136e-20)
(-0.115772 0.00150546 0)
(-0.10145 0.00170557 0)
(-0.0887258 0.00157894 0)
(-0.0786046 0.00139302 9.506e-20)
(-0.0681326 0.00128039 0)
(-0.0631531 0.0017215 0)
(-0.0345692 0.00143831 -1.40121e-19)
(-0.0670532 0.000409579 0)
(-0.100837 0.00571575 1.19354e-17)
(-0.123937 0.0100995 2.14226e-17)
(-0.136176 0.0126539 2.01396e-17)
(-0.143398 0.014049 1.93554e-17)
(-0.148815 0.0148999 1.87304e-17)
(-0.153097 0.0155073 -1.81972e-17)
(-0.156134 0.0159388 -1.77137e-17)
(-0.158522 0.0162409 -6.01853e-36)
(-0.160633 0.0164764 -3.38015e-17)
(-0.16281 0.0166886 -1.65117e-17)
(-0.164984 0.0168946 7.28242e-34)
(-0.16751 0.0171045 -1.20371e-35)
(-0.170434 0.0173515 -3.03554e-17)
(-0.174008 0.0176484 -2.92212e-17)
(-0.178171 0.0180077 -2.78894e-17)
(-0.183109 0.0184361 0)
(-0.188742 0.018934 4.92237e-17)
(-0.195299 0.0195184 2.25972e-17)
(-0.202544 0.0201718 0)
(-0.211265 0.0209561 -3.5263e-17)
(-0.219633 0.0217392 -1.23638e-20)
(-0.233173 0.022903 -3.00927e-36)
(-0.237602 0.0236314 1.32876e-17)
(-0.263282 0.0252022 -7.10393e-18)
)
;
    }
    lowerWall
    {
        type            calculated;
        value           nonuniform List<vector> 
250
(
(-0.62407 -0.00622301 0)
(-0.654464 -0.0112384 0)
(-0.598812 -0.0121889 0)
(-0.569149 -0.0120232 0)
(-0.549338 -0.0104752 0)
(-0.503929 -0.00737317 0)
(-0.503948 -0.00483167 0)
(-0.474276 -0.00320071 0)
(-0.534432 -0.00403365 0)
(-0.478833 -0.00341414 0)
(-0.462676 -0.00201016 0)
(-0.442177 -0.000792071 0)
(-0.471911 -0.000681569 0)
(-0.451174 -0.0012314 0)
(-0.430421 -0.00152806 0)
(-0.427241 -0.00123787 0)
(-0.42491 0.000230998 0)
(-0.482679 0.000708767 0)
(0.00216021 0.000181034 0)
(0.00239514 -0.00264927 0)
(0.00265333 -0.00557349 0)
(0.00297884 -0.00867234 1.12145e-19)
(0.00329561 -0.0117226 -9.44038e-20)
(0.00349268 -0.0153273 8.2402e-20)
(0.00342935 -0.0146731 -7.33801e-20)
(0.010884 -0.0345115 0)
(-0.0443385 -0.109827 0)
(0.000223991 -0.000278376 0)
(5.58906e-05 -0.000796346 0)
(-1.03783e-05 -0.000879808 0)
(5.80049e-05 -0.00087991 0)
(3.94135e-05 -0.000860696 1.54129e-19)
(-0.000133327 -0.000308227 -1.50632e-19)
(-0.000566888 0.00111082 0)
(-0.0011683 0.00379493 -1.73316e-19)
(-0.00155421 0.00723547 1.32316e-19)
(-0.00150395 0.0104934 0)
(-0.00111074 0.0129012 0)
(-0.000575014 0.0141684 0)
(-6.0088e-05 0.0142686 0)
(0.000347907 0.0133915 0)
(0.000688053 0.0118231 0)
(0.00102191 0.00961051 0)
(0.00138989 0.00679281 0)
(0.00180608 0.00341919 0)
(-0.000144844 -0.000280055 0)
(0.000169427 -0.000451553 0)
(0.000481302 -0.000505341 0)
(0.000806222 -0.00043705 0)
(0.00106758 -0.00020336 -0)
(0.00112039 0.00018634 -0)
(0.000876673 0.000654419 1.42716e-20)
(0.000365944 0.00109467 -1.63992e-20)
(-0.000345164 0.0014167 0)
(-0.0011617 0.00157935 -9.45211e-21)
(-0.00200539 0.001596 0)
(-0.00281103 0.00149616 0)
(-0.00353263 0.00131635 0)
(-0.00414459 0.00108752 4.60216e-21)
(-0.00463526 0.000830807 0)
(-0.00500016 0.000558096 0)
(-0.00523676 0.00027779 -3.98202e-21)
(-0.00534935 -1.58011e-05 -0)
(-0.00531363 -0.000320571 0)
(-0.00512701 -0.000615509 -0)
(-0.00479826 -0.000879997 4.28251e-21)
(-0.00433928 -0.00109347 -0)
(-0.00376817 -0.00123434 5.07368e-21)
(-0.00311261 -0.00128282 0)
(-0.00241094 -0.00122408 -0)
(-0.00171315 -0.0010549 8.26664e-21)
(-0.00107787 -0.000791943 0)
(-0.000563183 -0.000481295 -1.37749e-20)
(-0.000202183 -0.000197009 0)
(2.31468e-05 -3.29621e-06 2.36656e-20)
(0.000165097 0.00010723 0)
(0.000248407 0.000197674 0)
(0.000242801 0.000307404 0)
(0.000134188 0.000459627 0)
(-0.000113076 0.000665999 0)
(-0.000528781 0.000884457 -1.49308e-20)
(-0.00109401 0.00103416 0)
(-0.00171885 0.00103885 1.75403e-20)
(-0.00228177 0.000886519 0)
(-0.00268351 0.000626171 -1.38897e-20)
(-0.00288286 0.00034355 0)
(-0.00290601 0.000112877 0)
(-0.00280792 -1.76574e-05 1.37017e-20)
(-0.00266486 -2.22983e-05 0)
(-0.00254905 9.86233e-05 1.42857e-20)
(-0.00247924 0.000293185 -1.44322e-20)
(-0.00240741 0.000427566 0)
(-0.00220329 0.000265194 -1.56382e-20)
(-0.00160532 -0.000355165 -1.81055e-20)
(-0.00036612 -0.00106257 0)
(0.00137071 -0.00164751 0)
(0.00324413 -0.00230474 0)
(0.00541002 -0.00299533 0)
(0.00782447 -0.00351367 -0)
(0.0103543 -0.00377121 3.47397e-21)
(0.0128758 -0.00388395 0)
(0.0153552 -0.00387471 -2.71024e-21)
(0.0177657 -0.0037485 -0)
(0.0202256 -0.0035572 -0)
(0.022289 -0.00326019 2.15794e-21)
(0.0251132 -0.00310963 0)
(0.0279316 -0.00287735 -2.08108e-21)
(0.0281672 -0.00244893 -0)
(0.0310075 -0.00235907 0)
(0.0329656 -0.00217723 -0)
(0.0350833 -0.00203216 1.83311e-21)
(0.036981 -0.00189503 0)
(0.0388796 -0.00177562 -0)
(0.0406552 -0.00166841 1.78229e-21)
(0.0423982 -0.00157395 0)
(0.0440665 -0.0014895 1.76033e-21)
(0.0456934 -0.00141402 0)
(0.0472682 -0.00134549 0)
(0.0488032 -0.00128305 0)
(0.0502962 -0.00122524 -1.72756e-21)
(0.0517533 -0.00117122 -0)
(0.0531726 -0.00112012 0)
(0.0545582 -0.00107141 -1.70703e-21)
(0.0559082 -0.00102451 -1.70031e-21)
(0.0572256 -0.000978933 -0)
(0.0585076 -0.000934441 -1.68668e-21)
(0.0597566 -0.000890773 0)
(0.0609705 -0.000847783 -3.34467e-21)
(0.0621505 -0.000805103 -0)
(0.0632942 -0.000762824 -3.31364e-21)
(0.0644027 -0.000720543 -0)
(0.0654735 -0.000678357 3.27947e-21)
(0.0665068 -0.000635908 0)
(0.0675002 -0.000593153 0)
(0.0684532 -0.000549999 0)
(0.0693641 -0.000506257 -3.19915e-21)
(0.0702318 -0.00046177 -0)
(0.071055 -0.000416046 3.15198e-21)
(0.0718309 -0.000368707 0)
(0.0725576 -0.000319592 -3.09922e-21)
(0.0732329 -0.000268196 -3.07063e-21)
(0.0738536 -0.000214676 -3.04055e-21)
(0.0744179 -0.000159618 -0)
(0.0749241 -0.00010468 0)
(0.0753717 -5.34948e-05 0)
(0.0757666 -1.1398e-05 0)
(0.0761143 2.46521e-05 0)
(0.0764166 6.01786e-05 0)
(0.0766722 9.48692e-05 0)
(0.0768818 0.000129372 0)
(0.0770442 0.00016363 2.69537e-21)
(0.0771592 0.000197715 2.64729e-21)
(0.0772263 0.000231546 0)
(0.0772452 0.000265212 0)
(0.0772152 0.00029851 0)
(0.0771367 0.000331601 2.43406e-21)
(0.0770087 0.00036438 0)
(0.0768315 0.000396784 0)
(0.0766052 0.000428854 0)
(0.076329 0.000460582 0)
(0.0760037 0.000491876 -2.11839e-21)
(0.0756289 0.000522776 0)
(0.0752049 0.000553182 0)
(0.0747321 0.000583101 1.90116e-21)
(0.0742107 0.000612582 -1.82386e-21)
(0.0736408 0.000641484 0)
(0.0730233 0.000669802 -1.66162e-21)
(0.0723587 0.000697494 0)
(0.0716477 0.000724597 1.48885e-21)
(0.0708908 0.000750992 0)
(0.0700893 0.000776751 0)
(0.0692434 0.000801703 0)
(0.0683566 0.000825814 0)
(0.0674255 0.00084883 0)
(0.0664621 0.000871303 -1.80526e-21)
(0.0654392 0.000892263 -1.58835e-21)
(0.0643964 0.000912212 0)
(0.0633026 0.000930271 0)
(0.0621855 0.000944754 0)
(0.0610362 0.000953736 6.57127e-22)
(0.0598564 0.000953984 0)
(0.0586511 0.000945546 0)
(0.0574124 0.000948529 0)
(0.0561448 0.000963698 -3.86236e-22)
(0.0548459 0.000974582 6.67084e-22)
(0.0535243 0.00098459 0)
(0.0521794 0.000993421 0)
(0.0508143 0.00100133 1.56248e-21)
(0.0494304 0.00100823 1.87964e-21)
(0.0480295 0.00101435 0)
(0.0466126 0.00101953 0)
(0.045182 0.00102399 -2.89285e-21)
(0.0437385 0.00102776 3.2529e-21)
(0.0422836 0.00103102 0)
(0.0408184 0.00103381 0)
(0.0393443 0.00103606 4.40908e-21)
(0.0378614 0.00103766 0)
(0.0363727 0.00103901 0)
(0.0348765 0.00103963 5.69688e-21)
(0.0333781 0.00104013 0)
(0.0318753 0.00104039 6.64252e-21)
(0.0303713 0.00104068 0)
(0.0288655 0.00104113 0)
(0.0273592 0.00104184 0)
(0.0258525 0.00104301 -8.79958e-21)
(0.0243453 0.0010447 0)
(0.0228376 0.00104698 0)
(0.0213293 0.00104984 0)
(0.0198203 0.00105332 0)
(0.0183105 0.00105742 0)
(0.0167999 0.00106225 0)
(0.0152884 0.00106793 -1.38799e-20)
(0.0137757 0.0010746 -1.48111e-20)
(0.0122614 0.00108233 0)
(0.0107452 0.00109117 0)
(0.0092265 0.00110098 0)
(0.00770537 0.00111154 1.93656e-20)
(0.00618233 0.00112288 0)
(0.00465887 0.00113415 -4.46724e-20)
(0.00313891 0.00114252 4.81259e-20)
(0.00163105 0.00114277 5.19705e-20)
(0.000139946 0.00111513 -5.48522e-20)
(-0.00124337 0.00105332 5.44847e-20)
(-0.00278167 0.000888796 -5.24711e-20)
(-0.00312716 0.000502985 0)
(-0.00511668 0.00111816 -3.12493e-18)
(-0.00823007 0.000890506 -2.82975e-18)
(-0.0113191 0.000545467 -3.00927e-36)
(-0.0145076 0.000222012 -4.80861e-18)
(-0.0179092 -0.000118475 -8.93942e-18)
(-0.0215267 -0.000478617 -4.17019e-18)
(-0.0253705 -0.000858888 3.90109e-18)
(-0.0294625 -0.00126351 1.80556e-35)
(-0.0338271 -0.00169526 3.00927e-36)
(-0.0384799 -0.00215837 3.22677e-18)
(-0.04344 -0.002652 3.03399e-18)
(-0.0487241 -0.00314188 -3.00927e-36)
(-0.0543408 -0.00366007 0)
(-0.0603511 -0.00425716 0)
(-0.0668093 -0.00491524 -2.8635e-35)
(-0.073719 -0.00562705 1.68801e-35)
(-0.081227 -0.00639413 1.02315e-34)
(-0.0891982 -0.00722156 -3.75862e-18)
(-0.0981868 -0.00811941 -3.42365e-18)
(-0.107283 -0.00909116 6.01853e-36)
(-0.118848 -0.0101593 5.38512e-18)
(-0.128442 -0.0113308 8.93757e-18)
(-0.145839 -0.0125663 6.01853e-36)
(-0.153288 -0.0140755 -4.30841e-18)
(-0.187864 -0.0164292 -1.50463e-35)
)
;
    }
    frontAndBack
    {
        type            empty;
    }
}


// ************************************************************************* //
