/*--------------------------------*- C++ -*----------------------------------*\
  =========                 |
  \\      /  F ield         | OpenFOAM: The Open Source CFD Toolbox
   \\    /   O peration     | Website:  https://openfoam.org
    \\  /    A nd           | Version:  8
     \\/     M anipulation  |
\*---------------------------------------------------------------------------*/
FoamFile
{
    version     2.0;
    format      ascii;
    class       volScalarField;
    location    "1800";
    object      k;
}
// * * * * * * * * * * * * * * * * * * * * * * * * * * * * * * * * * * * * * //

dimensions      [0 2 -2 0 0 0 0];

internalField   nonuniform List<scalar> 
12225
(
1.48977
1.97856
1.95552
3.56151
2.7871
2.5659
2.21629
1.97787
1.77549
1.68858
3.2639
2.77479
2.10504
2.21982
2.09463
2.19502
0.958179
3.92366
0.63565
0.707989
0.750088
0.831632
0.919687
0.950382
0.917923
0.898292
0.910835
0.883703
0.925733
0.93201
0.965418
0.984122
0.98677
1.0019
0.930022
1.00766
0.441235
0.468641
0.478858
0.48444
0.482549
0.49064
0.486203
0.483586
0.481305
0.475459
0.475218
0.475893
0.483439
0.489494
0.493601
0.500045
0.502656
0.514529
0.392092
0.397667
0.395908
0.397058
0.39929
0.398765
0.396864
0.393946
0.391872
0.389474
0.387295
0.38501
0.383442
0.381723
0.379858
0.379065
0.377181
0.37751
0.376917
0.377107
0.377129
0.3766
0.37534
0.373892
0.372738
0.371412
0.369753
0.367984
0.366108
0.364111
0.362004
0.360015
0.357811
0.356062
0.354055
0.35255
0.374233
0.372419
0.370672
0.36918
0.367913
0.366531
0.365287
0.363858
0.362414
0.360879
0.359321
0.357701
0.356053
0.35443
0.352793
0.351256
0.349727
0.348292
0.373901
0.371652
0.369573
0.367643
0.365971
0.364328
0.362832
0.361299
0.35983
0.358346
0.356908
0.35547
0.354074
0.352698
0.351368
0.350075
0.348824
0.347616
0.373852
0.371589
0.369473
0.36745
0.365613
0.363841
0.362205
0.360602
0.359085
0.357599
0.356182
0.3548
0.35348
0.352199
0.350972
0.349784
0.348645
0.347539
0.37385
0.371562
0.369433
0.367398
0.365507
0.363693
0.361998
0.360366
0.35882
0.357329
0.355912
0.354548
0.353251
0.352006
0.350818
0.349676
0.348582
0.347532
0.373837
0.371567
0.369432
0.367395
0.365478
0.363648
0.361924
0.360276
0.358714
0.357218
0.355796
0.354438
0.353146
0.351914
0.350737
0.349615
0.348542
0.347514
0.373837
0.371561
0.369416
0.367379
0.365453
0.363619
0.361883
0.360231
0.358659
0.357162
0.355736
0.354378
0.353086
0.351854
0.35068
0.349561
0.348492
0.347473
0.373829
0.371558
0.369408
0.367368
0.365435
0.363598
0.361856
0.360197
0.358623
0.357121
0.355693
0.354333
0.353038
0.351803
0.350626
0.349504
0.348435
0.347415
0.37383
0.371557
0.369401
0.367358
0.36542
0.363581
0.361832
0.360172
0.358591
0.357088
0.355657
0.354294
0.352995
0.351758
0.350575
0.349451
0.348376
0.347354
0.373827
0.371552
0.369395
0.367348
0.365409
0.363566
0.361815
0.360151
0.358567
0.357061
0.355625
0.354261
0.352958
0.351717
0.350532
0.349404
0.348327
0.3473
0.373826
0.37155
0.369389
0.367342
0.365399
0.363554
0.361801
0.360134
0.358548
0.357038
0.355601
0.354232
0.352927
0.351683
0.350497
0.349366
0.348286
0.347257
0.373826
0.371547
0.369387
0.367337
0.365393
0.363546
0.361791
0.360121
0.358533
0.35702
0.355581
0.35421
0.352903
0.351657
0.35047
0.349336
0.348255
0.347224
0.373824
0.371548
0.369387
0.367337
0.36539
0.363541
0.361784
0.360112
0.358523
0.357009
0.355569
0.354195
0.352888
0.35164
0.350451
0.349316
0.348234
0.347201
0.373825
0.37155
0.369388
0.367338
0.365389
0.36354
0.361781
0.36011
0.358519
0.357005
0.355564
0.35419
0.352881
0.351633
0.350443
0.349308
0.348224
0.34719
0.373825
0.371551
0.369391
0.367339
0.365392
0.363541
0.361783
0.360111
0.358521
0.357007
0.355566
0.354193
0.352884
0.351636
0.350445
0.349309
0.348226
0.347191
0.373826
0.371551
0.369392
0.36734
0.365394
0.363545
0.361788
0.360117
0.358528
0.357015
0.355574
0.354201
0.352893
0.351645
0.350455
0.34932
0.348237
0.347203
0.373823
0.371551
0.369392
0.367345
0.365399
0.363551
0.361796
0.360127
0.358539
0.357027
0.355587
0.354216
0.352908
0.351662
0.350473
0.349339
0.348256
0.347223
0.373828
0.371552
0.369395
0.367347
0.365405
0.36356
0.361807
0.36014
0.358555
0.357045
0.355608
0.354239
0.352934
0.351689
0.350503
0.349371
0.348292
0.34726
0.373823
0.371554
0.369398
0.367355
0.365415
0.363574
0.361827
0.360167
0.358589
0.357088
0.35566
0.354299
0.353003
0.351767
0.350589
0.349464
0.348391
0.347365
0.373823
0.371564
0.369407
0.367373
0.365446
0.363628
0.361909
0.360286
0.35875
0.357289
0.355902
0.354575
0.353311
0.352099
0.350944
0.349833
0.348773
0.347751
0.373812
0.371607
0.369455
0.367509
0.365703
0.36404
0.362483
0.361027
0.359642
0.358315
0.357032
0.355783
0.354569
0.353383
0.352236
0.351115
0.350038
0.348979
0.373869
0.372122
0.370091
0.368705
0.367547
0.366525
0.365484
0.364476
0.363409
0.362293
0.361128
0.359898
0.358649
0.357361
0.356094
0.354813
0.353582
0.352336
0.375823
0.377371
0.37558
0.376572
0.377306
0.377303
0.377039
0.3767
0.375901
0.374852
0.373566
0.372055
0.370487
0.368774
0.367128
0.3654
0.363837
0.362187
0.397626
0.4007
0.409654
0.41579
0.418619
0.42023
0.42031
0.419792
0.419276
0.418257
0.416833
0.415179
0.413698
0.412031
0.410771
0.409278
0.408485
0.407322
0.539361
0.523823
0.537787
0.558281
0.578868
0.597306
0.612516
0.625969
0.63681
0.646338
0.654393
0.661656
0.668476
0.674648
0.681055
0.686429
0.692588
0.697054
2.11203
1.62729
1.61548
1.65839
1.69587
1.69799
1.69135
1.67397
1.64748
1.61924
1.59125
1.5644
1.53934
1.51617
1.49499
1.47565
1.45802
1.44196
1.17214e-08
2.88758e-07
1.44211e-06
5.51553e-06
1.80143e-05
5.38823e-05
0.000132708
0.000248841
0.000381401
0.000501261
0.000590542
0.000617299
0.000597842
0.000544795
0.000423452
0.00032026
0.000251285
0.000194581
0.000143309
9.62665e-05
5.90283e-05
3.39081e-05
1.91191e-05
1.12634e-05
7.71307e-06
7.6688e-06
1.7507e-05
3.16409e-05
0.000106646
0.000216904
0.000297027
0.000306101
0.000338564
0.000426747
0.000493998
0.00101355
0.0019697
0.00519334
0.0191444
0.0549907
0.0982362
0.119898
0.129284
0.128502
0.13533
0.153124
0.155296
0.137541
0.137893
0.146122
0.170552
0.161121
0.167882
0.179517
0.192189
0.156209
0.165335
0.170103
0.175153
0.180124
0.184794
0.189618
0.194107
0.198741
0.203163
0.207646
0.212022
0.21641
0.220746
0.225074
0.229377
0.233665
0.237939
0.242197
0.246442
0.25067
0.254884
0.259078
0.263253
0.267406
0.27153
0.275629
0.279687
0.283715
0.287688
0.291624
0.295488
0.299307
0.303044
0.306724
0.310326
0.313851
0.317299
0.320681
0.324015
0.327337
0.330607
0.333793
0.336907
0.339951
0.342913
0.345803
0.348604
0.351326
0.353956
0.356498
0.358945
0.361298
0.363553
0.365707
0.367762
0.36971
0.371559
0.373295
0.374933
0.376454
0.377877
0.37918
0.380385
0.381468
0.382453
0.383315
0.384078
0.384717
0.385254
0.385667
0.385969
0.386142
0.386188
0.386134
0.386026
0.385831
0.38556
0.385231
0.384535
0.38406
0.383097
0.382299
0.381248
0.380148
0.378905
0.377592
0.376177
0.374682
0.373023
0.371289
0.369452
0.367547
0.365563
0.363519
0.361405
0.359229
0.356991
0.354703
0.352366
0.349999
0.347593
0.345161
0.342704
0.340234
0.337753
0.335271
0.332793
0.330325
0.327877
0.325452
0.323052
0.320672
0.318308
0.316001
0.313713
0.311379
0.309023
0.30661
0.30408
0.301337
0.298139
0.294062
0.288924
0.26388
6.429e-08
1.80261e-06
1.20271e-05
5.03337e-05
0.000184132
0.000487643
0.00106327
0.0018459
0.00272708
0.00357825
0.00433223
0.00483625
0.00517963
0.00517036
0.0050318
0.00473585
0.00416528
0.00341794
0.00258946
0.00176603
0.00113888
0.000713611
0.000445349
0.000285907
0.000209369
0.000147307
0.000286991
0.000442337
0.00139633
0.00279342
0.00387181
0.00449555
0.00624145
0.00932747
0.0155056
0.0282436
0.0515977
0.0748208
0.0968732
0.116387
0.131016
0.141716
0.150536
0.158772
0.16983
0.181749
0.194823
0.206587
0.22119
0.232901
0.25183
0.263332
0.277419
0.293093
0.307362
0.321486
0.335489
0.349587
0.362842
0.37614
0.388971
0.40175
0.41427
0.426737
0.439073
0.451379
0.463636
0.475892
0.488153
0.500438
0.512763
0.525132
0.537561
0.55005
0.56261
0.575238
0.587942
0.600719
0.613569
0.626491
0.639478
0.65253
0.665635
0.678791
0.691979
0.705198
0.71842
0.731647
0.744847
0.758025
0.77114
0.784164
0.797067
0.809815
0.822383
0.834749
0.847014
0.859219
0.87136
0.883417
0.895396
0.907275
0.91905
0.930706
0.942233
0.953621
0.964857
0.975932
0.986832
0.997552
1.00808
1.0184
1.02851
1.0384
1.04806
1.05748
1.06666
1.07558
1.08424
1.09264
1.10077
1.10861
1.11617
1.12343
1.13039
1.13705
1.14339
1.14941
1.1551
1.16046
1.16548
1.17017
1.17452
1.17849
1.18208
1.1853
1.1881
1.19054
1.19255
1.19414
1.19507
1.19583
1.19613
1.1962
1.19557
1.19453
1.19306
1.19119
1.18891
1.18625
1.18321
1.17978
1.17597
1.1718
1.16729
1.16245
1.15729
1.15182
1.14606
1.14003
1.13374
1.12721
1.12046
1.1135
1.10635
1.09902
1.09152
1.08386
1.07604
1.06811
1.05999
1.05159
1.04294
1.03399
1.02462
1.01472
1.00377
0.991742
0.97783
0.929046
1.74297e-07
5.14979e-06
3.91579e-05
0.000170662
0.000597255
0.00141594
0.00274262
0.00428688
0.00582033
0.00720488
0.00830505
0.00904969
0.00946282
0.0094414
0.00923373
0.0088285
0.00815547
0.00732946
0.00636986
0.00533686
0.00417633
0.00309712
0.0021346
0.00149715
0.00107791
0.00108719
0.00183461
0.00343523
0.0093475
0.0167949
0.022268
0.0291119
0.0442167
0.0606347
0.0776338
0.0960647
0.112011
0.127162
0.142425
0.158693
0.176296
0.196155
0.219401
0.245599
0.273648
0.302838
0.33058
0.359634
0.38842
0.417937
0.442869
0.468083
0.493801
0.515938
0.537525
0.558308
0.5783
0.597754
0.616641
0.635152
0.653297
0.67119
0.68886
0.706375
0.723766
0.741075
0.75833
0.775558
0.79278
0.810012
0.827271
0.844567
0.86191
0.879307
0.896762
0.914279
0.93186
0.949504
0.96721
0.984978
1.0028
1.02068
1.0386
1.05656
1.07456
1.09257
1.1106
1.12863
1.14666
1.16469
1.18271
1.20069
1.21864
1.23654
1.2544
1.27221
1.28994
1.30758
1.32512
1.34252
1.35979
1.37689
1.39382
1.41056
1.42708
1.44338
1.45943
1.47523
1.49074
1.50596
1.52087
1.53546
1.54972
1.56362
1.57717
1.59034
1.60313
1.61553
1.62752
1.63911
1.65028
1.66103
1.67135
1.68122
1.69065
1.69963
1.70814
1.71618
1.72375
1.73083
1.73742
1.74351
1.74909
1.75415
1.75866
1.76261
1.76599
1.76881
1.77103
1.77262
1.77344
1.77381
1.77359
1.7727
1.77113
1.76893
1.7661
1.76267
1.75864
1.75404
1.74886
1.74313
1.73684
1.73003
1.72271
1.71491
1.70663
1.69791
1.68877
1.67924
1.66933
1.65907
1.64849
1.6376
1.62643
1.61501
1.60334
1.59144
1.57931
1.56698
1.55443
1.54163
1.52857
1.51521
1.50147
1.48729
1.47229
1.45661
1.43989
1.39482
7.0795e-07
2.12958e-05
0.000166919
0.000657256
0.00182988
0.00415073
0.00689925
0.00966734
0.012104
0.0140357
0.0152741
0.0159194
0.0158827
0.0156207
0.0149122
0.0139467
0.0128082
0.0115532
0.010226
0.00887068
0.00748995
0.00611888
0.00505906
0.00357417
0.00370608
0.00610139
0.0154048
0.0312098
0.0462853
0.0580125
0.0693143
0.0822696
0.0949377
0.10838
0.124112
0.142001
0.160631
0.182702
0.207936
0.236368
0.267595
0.300921
0.335653
0.371178
0.406828
0.442066
0.47641
0.510018
0.542374
0.573569
0.603272
0.632032
0.659726
0.686226
0.711896
0.736817
0.761035
0.784676
0.807811
0.830533
0.852906
0.874999
0.896866
0.918555
0.94011
0.961567
0.982959
1.00431
1.02565
1.04699
1.06835
1.08974
1.11118
1.13267
1.15422
1.17584
1.19752
1.21927
1.24108
1.26296
1.28491
1.30692
1.32899
1.3511
1.37326
1.39546
1.41769
1.43994
1.46221
1.4845
1.5068
1.52909
1.55135
1.57358
1.59575
1.61785
1.63985
1.66173
1.68347
1.70505
1.72645
1.74764
1.7686
1.78932
1.80975
1.82989
1.84971
1.86919
1.88831
1.90704
1.92537
1.94328
1.96074
1.97775
1.99429
2.01034
2.0259
2.04095
2.05547
2.06947
2.08293
2.09585
2.10821
2.12002
2.13126
2.14192
2.152
2.16148
2.17038
2.17866
2.18633
2.19338
2.19978
2.20553
2.2106
2.21498
2.21866
2.22162
2.22385
2.22522
2.22578
2.22572
2.22485
2.22316
2.22066
2.21736
2.21328
2.20844
2.20284
2.19652
2.18948
2.18174
2.17331
2.16423
2.15451
2.14418
2.13327
2.12181
2.10983
2.09735
2.08442
2.07105
2.05727
2.04312
2.02863
2.01382
1.99872
1.98334
1.96772
1.95185
1.93576
1.91943
1.90287
1.88606
1.86899
1.85165
1.83384
1.81583
1.79775
1.75709
2.65231e-06
7.90935e-05
0.000579237
0.00213737
0.00570082
0.0105034
0.0151785
0.0189711
0.021491
0.0228296
0.023073
0.0228009
0.0220252
0.0208718
0.0195312
0.018067
0.0165257
0.0149552
0.0134101
0.0119513
0.0105466
0.00889357
0.00819131
0.00938881
0.0170114
0.0345903
0.0592429
0.0772762
0.0875225
0.0958868
0.105022
0.116875
0.131712
0.150437
0.171964
0.196781
0.225188
0.257036
0.291499
0.327847
0.365388
0.40349
0.441761
0.479884
0.517585
0.554662
0.590964
0.626456
0.66102
0.694637
0.727313
0.759121
0.790044
0.820145
0.849511
0.878208
0.906286
0.933819
0.960874
0.987517
1.01381
1.03981
1.06558
1.09114
1.11656
1.14187
1.16709
1.19226
1.21741
1.24255
1.26771
1.29289
1.31812
1.34339
1.36873
1.39414
1.41961
1.44516
1.47079
1.49648
1.52226
1.5481
1.574
1.59997
1.626
1.65207
1.67818
1.70433
1.7305
1.7567
1.78291
1.80911
1.83527
1.86138
1.88742
1.91337
1.9392
1.96489
1.99041
2.01575
2.04088
2.06576
2.09036
2.11467
2.13865
2.16227
2.18551
2.20834
2.23072
2.25264
2.27407
2.29499
2.31537
2.33519
2.35444
2.3731
2.39115
2.40858
2.42538
2.44153
2.45704
2.47188
2.48606
2.49957
2.51239
2.52453
2.53597
2.54671
2.55673
2.56603
2.5746
2.58242
2.58948
2.59576
2.60124
2.60591
2.60974
2.61274
2.61484
2.61593
2.6162
2.6156
2.61405
2.61156
2.60811
2.60373
2.59843
2.59222
2.58512
2.57716
2.56834
2.55869
2.54823
2.537
2.52502
2.51232
2.49894
2.48492
2.47028
2.45507
2.43932
2.42306
2.40633
2.38917
2.37161
2.35369
2.33543
2.31688
2.29806
2.279
2.25971
2.24021
2.22053
2.20067
2.18068
2.16059
2.14036
2.12034
2.10083
2.06313
9.60927e-06
0.000271822
0.00187093
0.00646246
0.0143107
0.0213116
0.0259042
0.0281183
0.0286717
0.0283771
0.0275249
0.0262551
0.0248143
0.0232732
0.021672
0.0200356
0.0183657
0.0166288
0.0147377
0.0127433
0.0109366
0.0106928
0.0150059
0.0293459
0.0561736
0.0820406
0.0978418
0.106361
0.112341
0.121412
0.134878
0.15291
0.174577
0.200479
0.229737
0.262392
0.297592
0.334623
0.372766
0.411523
0.450553
0.489637
0.528646
0.567467
0.605996
0.644149
0.681848
0.719043
0.755666
0.791662
0.827016
0.861725
0.895777
0.929194
0.962003
0.994239
1.02594
1.05714
1.08791
1.11828
1.14831
1.17805
1.20755
1.23684
1.26597
1.29498
1.3239
1.35276
1.38158
1.4104
1.43922
1.46807
1.49696
1.5259
1.55491
1.58398
1.61313
1.64237
1.67168
1.70107
1.73054
1.76009
1.78971
1.81941
1.84916
1.87897
1.90883
1.93872
1.96863
1.99857
2.02852
2.05845
2.08833
2.11814
2.14787
2.17749
2.20698
2.23632
2.26547
2.2944
2.3231
2.35152
2.37963
2.40739
2.43478
2.46176
2.4883
2.51435
2.5399
2.5649
2.58933
2.61315
2.63635
2.65889
2.68075
2.70191
2.72235
2.74206
2.76103
2.77923
2.79667
2.81333
2.82921
2.84429
2.85857
2.87205
2.88472
2.89657
2.90759
2.91777
2.92711
2.93557
2.94316
2.94985
2.95563
2.96047
2.96437
2.9673
2.96917
2.96995
2.96981
2.96861
2.96635
2.963
2.95858
2.95309
2.94655
2.93896
2.93035
2.92073
2.91014
2.89859
2.88613
2.87277
2.85856
2.84353
2.82772
2.81118
2.79394
2.77605
2.75755
2.73848
2.71888
2.69881
2.67828
2.65736
2.63608
2.61449
2.59261
2.5705
2.54817
2.52567
2.50303
2.48031
2.45756
2.43489
2.41233
2.39029
2.3689
2.33308
3.45254e-05
0.000887027
0.00546228
0.0162854
0.0259598
0.0311402
0.0331101
0.0332667
0.0326898
0.0314006
0.0297787
0.0280174
0.0262055
0.0243924
0.022606
0.0208892
0.0193517
0.0181523
0.0176795
0.0184346
0.0219449
0.0300376
0.0479772
0.0742439
0.0963654
0.110314
0.117277
0.123698
0.134303
0.150338
0.170753
0.195712
0.224443
0.256565
0.291105
0.327552
0.365145
0.403444
0.442126
0.481025
0.520057
0.559185
0.598377
0.637601
0.676812
0.71596
0.754977
0.793791
0.832336
0.87055
0.908382
0.945795
0.982757
1.01925
1.05528
1.09085
1.12598
1.16068
1.195
1.22896
1.26261
1.29598
1.32911
1.36205
1.39483
1.42748
1.46003
1.49252
1.52498
1.55742
1.58987
1.62234
1.65486
1.68743
1.72007
1.75279
1.78558
1.81846
1.85143
1.88448
1.91762
1.95084
1.98414
2.01752
2.05096
2.08446
2.118
2.15158
2.18519
2.21881
2.25243
2.28603
2.31957
2.35303
2.38639
2.41963
2.45273
2.48566
2.51839
2.55088
2.5831
2.61502
2.64659
2.67778
2.70855
2.73886
2.76866
2.79792
2.8266
2.85465
2.88205
2.90875
2.93472
2.95993
2.98436
3.00798
3.03076
3.05269
3.07375
3.09393
3.11321
3.1316
3.14907
3.16562
3.18125
3.19596
3.20973
3.22257
3.23446
3.2454
3.25537
3.26436
3.27236
3.27935
3.2853
3.29022
3.29407
3.29684
3.29839
3.29883
3.29816
3.2963
3.29325
3.289
3.28354
3.27689
3.26905
3.26004
3.24987
3.23858
3.22619
3.21272
3.19822
3.18271
3.16625
3.14888
3.13064
3.11157
3.09173
3.07117
3.04993
3.02807
3.00563
2.98266
2.95922
2.93534
2.91108
2.8865
2.86164
2.83654
2.81125
2.78583
2.76032
2.7348
2.70937
2.68416
2.65927
2.63509
2.6116
2.5765
0.00010894
0.00254011
0.0136032
0.0277686
0.0349672
0.0376976
0.0380405
0.0372522
0.0355565
0.0334957
0.0313182
0.0291486
0.0270428
0.0250128
0.0230834
0.0214235
0.0204034
0.020147
0.0220936
0.0281415
0.0416728
0.0631436
0.0864506
0.104928
0.116677
0.123726
0.131591
0.144459
0.16236
0.185254
0.212266
0.242863
0.276046
0.311154
0.347495
0.384664
0.42231
0.460284
0.498515
0.536997
0.575742
0.614773
0.654099
0.693719
0.7336
0.77369
0.813928
0.854244
0.894565
0.934816
0.974928
1.01484
1.0545
1.09388
1.13293
1.17166
1.21005
1.24811
1.28586
1.32331
1.36048
1.39741
1.43413
1.47067
1.50706
1.54333
1.57951
1.61563
1.65172
1.68779
1.72388
1.75999
1.79615
1.83236
1.86865
1.90502
1.94147
1.97801
2.01464
2.05137
2.08819
2.1251
2.16209
2.19915
2.23628
2.27347
2.3107
2.34796
2.38523
2.42253
2.45981
2.49706
2.53424
2.57133
2.60831
2.64516
2.68185
2.71835
2.75464
2.79067
2.8264
2.8618
2.89683
2.93143
2.96556
2.99918
3.03223
3.06468
3.09647
3.12756
3.1579
3.18744
3.21616
3.24402
3.27097
3.29699
3.32205
3.34613
3.36921
3.39128
3.41231
3.43231
3.45127
3.46918
3.48603
3.50183
3.51658
3.53026
3.54288
3.55443
3.5649
3.57428
3.58255
3.5897
3.59572
3.60057
3.60426
3.60675
3.60793
3.60791
3.60661
3.60401
3.6001
3.59486
3.58831
3.58043
3.57124
3.56075
3.54899
3.53598
3.52174
3.50632
3.48975
3.47208
3.45335
3.43361
3.41291
3.39132
3.36887
3.34563
3.32166
3.29701
3.27174
3.2459
3.21955
3.19275
3.16555
3.13801
3.1102
3.08216
3.05396
3.02565
2.99731
2.96904
2.94095
2.91321
2.88592
2.85949
2.83375
2.79852
0.000283863
0.00615732
0.0246416
0.0371834
0.0422183
0.0433677
0.042529
0.0405125
0.0379713
0.0352956
0.0327213
0.0304113
0.0285154
0.0271104
0.0263994
0.0265352
0.0281925
0.0321973
0.0409253
0.0566843
0.0757445
0.0943004
0.109355
0.11945
0.127249
0.137157
0.151726
0.171569
0.195969
0.224306
0.255488
0.288785
0.323451
0.359034
0.395194
0.431763
0.468654
0.505867
0.543438
0.581419
0.61986
0.658807
0.698285
0.738292
0.778797
0.819763
0.861129
0.902827
0.944778
0.986901
1.02912
1.07135
1.11353
1.1556
1.19753
1.23926
1.28079
1.32209
1.36316
1.40402
1.44466
1.48511
1.52539
1.56551
1.60551
1.64541
1.68523
1.725
1.76474
1.80448
1.84424
1.88402
1.92386
1.96376
2.00374
2.04379
2.08394
2.12419
2.16453
2.20497
2.2455
2.28612
2.32682
2.36759
2.40843
2.44932
2.49025
2.53119
2.57215
2.61311
2.65405
2.69493
2.73574
2.77644
2.81702
2.85745
2.8977
2.93775
2.97755
3.01708
3.05628
3.09513
3.13356
3.17153
3.20898
3.24587
3.28214
3.31773
3.35258
3.38665
3.41989
3.45223
3.48363
3.51406
3.54346
3.5718
3.59906
3.62519
3.65019
3.67402
3.69669
3.71817
3.73847
3.75758
3.7755
3.79223
3.80778
3.82214
3.83531
3.8473
3.85809
3.86767
3.87605
3.8832
3.8891
3.89375
3.89713
3.89919
3.8999
3.89928
3.89725
3.8938
3.88893
3.88263
3.8749
3.86573
3.85514
3.84313
3.82972
3.81495
3.79885
3.78144
3.76279
3.74293
3.72191
3.6998
3.67665
3.65252
3.62748
3.60158
3.57489
3.54747
3.5194
3.49072
3.4615
3.43181
3.40172
3.37127
3.34055
3.30962
3.27856
3.24742
3.21631
3.18532
3.1546
3.12432
3.09461
3.06583
3.03775
3.00179
0.00060417
0.0123852
0.0349644
0.0453761
0.0487647
0.0486824
0.0467017
0.0437851
0.0405719
0.0374765
0.0347569
0.0325518
0.0312649
0.0308036
0.0317507
0.0351372
0.0422154
0.0535786
0.0685137
0.0841909
0.0989831
0.11089
0.120179
0.129065
0.140862
0.157002
0.178128
0.203512
0.232158
0.263211
0.295844
0.329541
0.363912
0.398751
0.433956
0.46951
0.505444
0.541825
0.578727
0.616227
0.654395
0.693282
0.732906
0.773272
0.814362
0.856139
0.898548
0.941521
0.984979
1.02884
1.07301
1.11741
1.16196
1.20659
1.25125
1.29587
1.34042
1.38487
1.42921
1.47341
1.51748
1.56143
1.60525
1.64896
1.69258
1.73613
1.77963
1.82309
1.86653
1.90998
1.95346
1.99697
2.04054
2.08417
2.12788
2.17168
2.21558
2.25957
2.30366
2.34785
2.39212
2.43649
2.48093
2.52544
2.57
2.61461
2.65924
2.70387
2.74849
2.7931
2.83767
2.88217
2.92657
2.97084
3.01496
3.0589
3.10265
3.14616
3.18941
3.23235
3.27494
3.31713
3.35887
3.40011
3.44079
3.48085
3.52023
3.55886
3.59669
3.63364
3.66966
3.70469
3.73867
3.77154
3.80327
3.83381
3.86312
3.89116
3.91792
3.94336
3.96749
3.99028
4.01173
4.03185
4.05063
4.06808
4.08421
4.09902
4.11253
4.12473
4.13562
4.1452
4.15347
4.16041
4.16601
4.17026
4.17314
4.17463
4.1747
4.17334
4.17043
4.16602
4.16009
4.15263
4.14363
4.1331
4.12103
4.10744
4.09234
4.07578
4.05777
4.03837
4.01761
3.99556
3.97226
3.94778
3.92218
3.89554
3.86792
3.83938
3.81001
3.77987
3.74903
3.71757
3.68554
3.65303
3.6201
3.58683
3.55328
3.51955
3.48569
3.45181
3.418
3.38437
3.35107
3.31828
3.28613
3.25498
3.22453
3.18748
0.00107513
0.0206362
0.0440202
0.0531055
0.055354
0.0543155
0.0514522
0.0478893
0.04437
0.0413674
0.0393445
0.0385695
0.038925
0.041466
0.04655
0.0544838
0.0649478
0.0770773
0.0896181
0.101041
0.110915
0.119911
0.130109
0.143345
0.160896
0.182787
0.208436
0.236817
0.267097
0.298643
0.330995
0.36389
0.397185
0.430837
0.464863
0.499321
0.534295
0.569876
0.606159
0.643234
0.68117
0.720012
0.759788
0.800509
0.842159
0.884708
0.928102
0.972277
1.01715
1.06265
1.10867
1.15513
1.20195
1.24903
1.29632
1.34374
1.39124
1.43878
1.48632
1.53384
1.58132
1.62875
1.67613
1.72345
1.77072
1.81796
1.86517
1.91236
1.95955
2.00676
2.054
2.10129
2.14864
2.19605
2.24355
2.29113
2.33881
2.38658
2.43445
2.48241
2.53046
2.57859
2.62679
2.67504
2.72333
2.77164
2.81995
2.86824
2.9165
2.9647
3.01285
3.06088
3.10878
3.15652
3.20407
3.25141
3.29852
3.34536
3.3919
3.43809
3.4839
3.52927
3.57415
3.61848
3.66221
3.70526
3.74756
3.78905
3.82966
3.8693
3.90792
3.94544
3.9818
4.01694
4.05079
4.08332
4.11447
4.14421
4.17251
4.19934
4.22468
4.24854
4.27089
4.29176
4.31114
4.32904
4.34549
4.36048
4.37405
4.38619
4.39692
4.40623
4.41413
4.42061
4.42567
4.4293
4.43147
4.43218
4.43145
4.42915
4.4252
4.41968
4.41257
4.40384
4.39348
4.3815
4.36789
4.35267
4.33585
4.31746
4.29754
4.27613
4.25328
4.22905
4.20349
4.17668
4.14869
4.11958
4.08943
4.05833
4.02635
3.99356
3.96004
3.92587
3.89114
3.8559
3.82025
3.78425
3.748
3.71156
3.67504
3.63852
3.60211
3.56593
3.53014
3.49491
3.46036
3.42685
3.39406
3.35577
0.00169332
0.028581
0.052594
0.0609665
0.0625962
0.0608238
0.0573897
0.0536821
0.0505583
0.0488111
0.0482964
0.0492959
0.0523549
0.057482
0.0645778
0.0732491
0.0827822
0.0923721
0.101474
0.11019
0.119532
0.130931
0.145484
0.16398
0.186256
0.211625
0.239265
0.268417
0.298563
0.329357
0.360603
0.392217
0.424191
0.456565
0.489416
0.522839
0.556937
0.591818
0.627584
0.664323
0.702097
0.740961
0.780945
0.82206
0.864296
0.907626
0.951999
0.997356
1.04362
1.09071
1.13853
1.18699
1.236
1.28548
1.33534
1.38551
1.43592
1.48651
1.53723
1.58805
1.63893
1.68985
1.74079
1.79174
1.8427
1.89366
1.94463
1.9956
2.0466
2.09762
2.14868
2.19978
2.25095
2.30218
2.35349
2.40488
2.45636
2.50792
2.55957
2.61131
2.66311
2.71499
2.76691
2.81886
2.87082
2.92278
2.9747
3.02657
3.07835
3.13005
3.18163
3.23306
3.2843
3.33533
3.38613
3.43666
3.48691
3.53684
3.58641
3.6356
3.68435
3.73262
3.78035
3.82749
3.87396
3.91969
3.96462
4.00866
4.05175
4.09378
4.1347
4.17441
4.21285
4.24994
4.28562
4.31984
4.35253
4.38366
4.41318
4.44108
4.46734
4.49193
4.51487
4.53615
4.5558
4.57382
4.59025
4.6051
4.61839
4.63015
4.64038
4.64911
4.65633
4.66207
4.6663
4.66903
4.67025
4.66997
4.66822
4.66473
4.65959
4.65281
4.64437
4.63425
4.62244
4.60893
4.59372
4.57682
4.55825
4.53803
4.5162
4.49281
4.46791
4.44155
4.4138
4.38474
4.35443
4.32295
4.29039
4.25683
4.22236
4.18705
4.15099
4.11427
4.07696
4.03916
4.00093
3.96238
3.92357
3.88461
3.84558
3.80658
3.76772
3.72914
3.69099
3.65343
3.61658
3.5808
3.54575
3.50619
0.00261954
0.0359826
0.0614663
0.0694698
0.0706565
0.0682529
0.0645154
0.0610954
0.059142
0.0585171
0.0592745
0.0619856
0.0663064
0.0719983
0.0787057
0.0859889
0.0935083
0.101255
0.109737
0.119761
0.132258
0.147903
0.166977
0.189224
0.213986
0.240564
0.268365
0.296954
0.32608
0.355604
0.385485
0.415738
0.446423
0.477627
0.509453
0.542015
0.575425
0.609797
0.645228
0.6818
0.719581
0.758623
0.798955
0.840591
0.883522
0.927722
0.973148
1.01974
1.06744
1.11614
1.16577
1.21624
1.26744
1.31929
1.3717
1.42459
1.47788
1.5315
1.5854
1.63953
1.69383
1.74826
1.80281
1.85743
1.91212
1.96685
2.02161
2.07641
2.13124
2.1861
2.24099
2.29593
2.35091
2.40595
2.46105
2.51621
2.57145
2.62675
2.68212
2.73755
2.79304
2.84856
2.9041
2.95963
3.01515
3.07061
3.12599
3.18125
3.23638
3.29136
3.34616
3.40074
3.45507
3.50911
3.56284
3.61625
3.66929
3.72195
3.77419
3.82597
3.87726
3.928
3.97814
4.02764
4.0764
4.12437
4.17147
4.21761
4.26271
4.30669
4.34945
4.39091
4.43098
4.46959
4.50667
4.54214
4.57595
4.60804
4.63839
4.66694
4.69369
4.71861
4.74172
4.76302
4.78253
4.80027
4.81628
4.83058
4.84321
4.85419
4.86356
4.87133
4.87753
4.88217
4.88525
4.88679
4.88677
4.88533
4.88217
4.87731
4.87078
4.86258
4.85267
4.84104
4.82767
4.81256
4.79571
4.77711
4.75678
4.73476
4.71107
4.68575
4.65887
4.63049
4.60066
4.56946
4.53697
4.50328
4.46847
4.43263
4.39584
4.35821
4.31981
4.28073
4.24108
4.20092
4.16035
4.11946
4.07833
4.03706
3.99575
3.9545
3.91342
3.87264
3.83232
3.79261
3.75363
3.71573
3.67855
3.63783
0.00367768
0.0442526
0.0707066
0.0784186
0.0792272
0.0761557
0.0721843
0.0693933
0.0682392
0.068129
0.0698502
0.0729587
0.0771356
0.082137
0.0878029
0.0941513
0.101496
0.110315
0.12123
0.134707
0.151167
0.170519
0.192448
0.216391
0.241777
0.268136
0.295148
0.322619
0.350468
0.37868
0.407294
0.436382
0.466038
0.496372
0.527501
0.559545
0.592618
0.626824
0.662254
0.69899
0.737094
0.776615
0.817576
0.859987
0.903837
0.949107
0.995753
1.04372
1.09295
1.14335
1.19485
1.24736
1.30079
1.35504
1.41003
1.46566
1.52186
1.57855
1.63566
1.69313
1.75088
1.80887
1.86704
1.92536
1.98379
2.04231
2.10088
2.15949
2.21813
2.27679
2.33547
2.39417
2.45289
2.51164
2.57043
2.62924
2.68809
2.74698
2.8059
2.86485
2.92381
2.98277
3.04171
3.1006
3.15941
3.21811
3.27666
3.33503
3.39318
3.45109
3.50875
3.5661
3.6231
3.67973
3.73595
3.79174
3.84708
3.90194
3.9563
4.01011
4.06335
4.11596
4.16791
4.21913
4.26955
4.31912
4.36774
4.41534
4.46182
4.50709
4.55107
4.59365
4.63475
4.67428
4.71216
4.7483
4.78266
4.81518
4.84579
4.87447
4.90119
4.92593
4.9487
4.96951
4.9884
5.00538
5.0205
5.03379
5.0453
5.05507
5.06314
5.06955
5.07433
5.07751
5.07908
5.07909
5.07768
5.07461
5.06982
5.06338
5.05527
5.04547
5.03395
5.0207
5.0057
4.98893
4.9704
4.9501
4.92805
4.90427
4.8788
4.85167
4.82294
4.79267
4.76093
4.72779
4.69334
4.65765
4.62082
4.58294
4.54411
4.50441
4.46395
4.42281
4.38109
4.33888
4.29627
4.25334
4.2102
4.16693
4.12364
4.08043
4.03741
3.99471
3.95249
3.91089
3.87001
3.83021
3.7911
3.74941
0.00480972
0.0524035
0.0798644
0.0872923
0.0876275
0.0835974
0.0791433
0.0764984
0.0755061
0.0754677
0.0772531
0.0801045
0.0839723
0.0888851
0.0950629
0.102807
0.112476
0.124406
0.138866
0.155896
0.175348
0.19682
0.219883
0.244082
0.269081
0.294643
0.320644
0.347037
0.373842
0.401111
0.428926
0.457383
0.486595
0.516677
0.547744
0.579903
0.613251
0.647883
0.683878
0.721307
0.760221
0.800661
0.842648
0.886192
0.931285
0.977909
1.02603
1.07559
1.12654
1.17882
1.23233
1.28701
1.34277
1.39951
1.45715
1.51559
1.57475
1.63454
1.69489
1.7557
1.8169
1.87843
1.94022
2.0022
2.06432
2.12655
2.18884
2.25115
2.31348
2.37579
2.43808
2.50035
2.5626
2.62482
2.68702
2.7492
2.81136
2.87351
2.93564
2.99775
3.05981
3.12182
3.18374
3.24555
3.30721
3.36869
3.42993
3.49091
3.55157
3.61188
3.67183
3.73135
3.79043
3.849
3.90705
3.96455
4.02148
4.07781
4.13353
4.18859
4.24298
4.29664
4.34955
4.40165
4.45289
4.50318
4.55247
4.60066
4.64766
4.69339
4.73775
4.78063
4.82195
4.86161
4.89951
4.93559
4.96976
5.00199
5.03219
5.06033
5.08636
5.11029
5.13212
5.15186
5.16955
5.18522
5.19892
5.21068
5.22057
5.22864
5.23496
5.23957
5.24253
5.24387
5.24354
5.24191
5.23857
5.23359
5.22699
5.21875
5.20886
5.1973
5.18405
5.16909
5.1524
5.13396
5.11376
5.09181
5.06812
5.04269
5.01557
4.98679
4.9564
4.92446
4.89105
4.85623
4.82008
4.7827
4.74417
4.70458
4.66404
4.62265
4.58049
4.53766
4.49426
4.45038
4.40611
4.36155
4.31678
4.27191
4.22702
4.18223
4.13765
4.0934
4.04961
4.00646
3.96398
3.92259
3.88179
3.83945
0.00604178
0.0604603
0.088644
0.0957218
0.0952627
0.0900501
0.0849269
0.0821566
0.0811436
0.0811191
0.0832396
0.0866884
0.0917061
0.0984127
0.106995
0.117633
0.130487
0.145657
0.163037
0.182385
0.203388
0.225673
0.248952
0.272973
0.297586
0.322706
0.348322
0.374454
0.401158
0.428493
0.456551
0.485428
0.515231
0.54606
0.578015
0.611188
0.645667
0.681532
0.718849
0.757676
0.798054
0.840016
0.883577
0.928751
0.975529
1.0239
1.07384
1.12531
1.17826
1.23263
1.28835
1.34535
1.40355
1.46287
1.5232
1.58447
1.64658
1.70944
1.77295
1.83703
1.90158
1.96651
2.03175
2.0972
2.1628
2.22849
2.29421
2.35992
2.42559
2.49117
2.55667
2.62207
2.68737
2.75256
2.81765
2.88265
2.94755
3.01237
3.07709
3.14171
3.20621
3.27058
3.33479
3.3988
3.46258
3.52608
3.58925
3.65205
3.71439
3.77629
3.83767
3.89851
3.95876
4.01837
4.07732
4.13558
4.19312
4.24993
4.30598
4.36126
4.41574
4.46939
4.52218
4.57407
4.625
4.67492
4.72376
4.77145
4.81789
4.863
4.90667
4.94882
4.98934
5.02813
5.0651
5.10017
5.13326
5.16434
5.1933
5.22009
5.24468
5.26706
5.28723
5.30523
5.32107
5.33482
5.3465
5.35619
5.36393
5.36977
5.3739
5.37626
5.37699
5.37616
5.37388
5.36994
5.36444
5.35736
5.34872
5.33851
5.3267
5.31328
5.29823
5.28153
5.26314
5.24307
5.22128
5.19778
5.17258
5.14568
5.11711
5.08692
5.05514
5.02183
4.98706
4.9509
4.91344
4.87475
4.83493
4.79407
4.75227
4.70962
4.66623
4.62219
4.5776
4.53254
4.48711
4.4414
4.3955
4.34951
4.30352
4.25762
4.21193
4.16656
4.12164
4.07733
4.03365
3.99106
3.94891
3.90629
0.00746494
0.0677566
0.0964431
0.103099
0.101291
0.0946729
0.0889925
0.0861011
0.0853484
0.0863346
0.0899174
0.0953124
0.102685
0.112046
0.123506
0.137301