/*--------------------------------*- C++ -*----------------------------------*\
  =========                 |
  \\      /  F ield         | OpenFOAM: The Open Source CFD Toolbox
   \\    /   O peration     | Website:  https://openfoam.org
    \\  /    A nd           | Version:  8
     \\/     M anipulation  |
\*---------------------------------------------------------------------------*/
FoamFile
{
    version     2.0;
    format      ascii;
    class       volScalarField;
    location    "1800";
    object      omega;
}
// * * * * * * * * * * * * * * * * * * * * * * * * * * * * * * * * * * * * * //

dimensions      [0 0 -1 0 0 0 0];

internalField   nonuniform List<scalar> 
12225
(
66443.5
50677.6
50125.8
32582.3
66875.2
57115.8
45837.7
44753.4
41925.1
42539.9
32582.3
50563.8
63972.5
53470.3
48362.7
40928.1
38654.1
32582.3
10648.2
10176.5
11019.3
9498.46
13160.4
14185.9
14179.3
15084.8
14891.6
15035.5
14168.4
14858.8
16437.5
15768.6
15876
15623.6
15626.3
14966.9
3015.45
2388.42
2404.56
2400.21
2913.21
3263.03
3718.47
4111.45
4297.9
4524.91
4645.87
4817.72
5009.71
5152.09
5248.71
5386.2
5463.46
5651.22
1133.4
933.007
874.772
921.89
1051.95
1191.84
1335.46
1481.08
1579.98
1689
1764.74
1854.27
1916.87
1998.96
2045.2
2126.15
2167.26
2252.65
577.535
552.877
535.364
563.696
607.359
663.337
714.445
772.538
815.196
864.331
898.111
940.493
967.143
1006.65
1028.3
1067.05
1086.04
1125.07
456.941
472.423
463.735
467.688
480.402
501.02
519.363
542.799
560.687
582.542
597.77
617.569
630.15
649.015
659.815
678.524
687.953
706.631
439.764
443.358
442.395
440.782
443.157
449.064
454.124
462.055
468.25
476.828
482.886
491.317
496.816
505.246
510.32
518.948
523.544
532.277
438.863
437.283
435.823
434.579
434.254
435.093
436.268
438.282
440.032
443.109
445.27
448.715
450.944
454.687
456.953
461.008
463.21
467.545
439.006
436.799
434.897
433.2
431.763
430.861
430.151
429.804
429.736
429.927
430.241
430.989
431.509
432.605
433.308
434.709
435.548
437.307
439.035
436.881
434.85
433.005
431.234
429.688
428.228
426.992
425.862
424.993
424.156
423.606
423.016
422.717
422.358
422.268
422.128
422.278
439.043
436.915
434.869
432.976
431.143
429.449
427.805
426.307
424.857
423.569
422.315
421.226
420.152
419.247
418.33
417.603
416.821
416.263
439.043
436.917
434.877
432.964
431.125
429.399
427.736
426.176
424.675
423.271
421.92
420.665
419.452
418.334
417.246
416.254
415.283
414.406
439.047
436.913
434.877
432.954
431.117
429.38
427.719
426.146
424.641
423.215
421.85
420.558
419.32
418.148
417.023
415.961
414.941
413.978
439.047
436.909
434.876
432.946
431.111
429.368
427.708
426.129
424.624
423.193
421.827
420.527
419.285
418.102
416.972
415.895
414.867
413.885
439.047
436.907
434.872
432.941
431.105
429.36
427.699
426.117
424.612
423.177
421.81
420.507
419.264
418.078
416.946
415.866
414.835
413.851
439.047
436.905
434.871
432.938
431.101
429.354
427.692
426.109
424.602
423.165
421.797
420.492
419.248
418.06
416.927
415.845
414.813
413.827
439.046
436.906
434.871
432.937
431.099
429.351
427.687
426.103
424.595
423.157
421.788
420.482
419.237
418.048
416.914
415.831
414.798
413.811
439.046
436.907
434.872
432.938
431.098
429.35
427.685
426.101
424.592
423.155
421.785
420.478
419.232
418.043
416.908
415.825
414.791
413.803
439.046
436.907
434.873
432.939
431.1
429.351
427.686
426.102
424.593
423.156
421.786
420.48
419.233
418.045
416.91
415.827
414.793
413.805
439.047
436.907
434.874
432.939
431.102
429.353
427.69
426.106
424.598
423.161
421.791
420.485
419.24
418.051
416.918
415.835
414.801
413.814
439.046
436.907
434.875
432.942
431.105
429.357
427.695
426.112
424.606
423.169
421.802
420.498
419.255
418.069
416.939
415.859
414.831
413.848
439.051
436.906
434.877
432.942
431.11
429.362
427.707
426.126
424.629
423.2
421.849
420.558
419.341
418.176
417.082
416.032
415.049
414.103
439.057
436.9
434.878
432.94
431.13
429.399
427.795
426.258
424.846
423.505
422.289
421.138
420.107
419.128
418.269
417.435
416.73
416.024
439.098
436.867
434.863
432.997
431.415
429.988
428.818
427.715
426.907
426.219
425.824
425.517
425.458
425.495
425.631
425.827
426.242
426.518
439.205
436.821
435.236
434.334
434.807
435.789
436.922
438.36
440.364
442.635
445.663
448.483
451.925
454.978
458.623
461.703
465.423
468.379
439.843
439.099
441.454
449.06
459.763
469.055
480.113
490.832
503.34
514.885
527.738
539.021
551.433
561.985
573.754
583.421
594.503
603.148
455.854
459.318
492.63
538.991
586.027
627.553
670.501
709.26
750.231
785.911
823.575
854.991
888.836
916.174
946.625
970.362
997.881
1018.27
583.753
641.375
840.361
1028.65
1205.11
1359.67
1506.88
1633.3
1757.01
1859.7
1963.13
2045.59
2132.83
2199.79
2274.8
2329.8
2395.2
2440.46
1571.09
2291.27
3381.75
4207
4897.81
5457.02
5922.95
6293.66
6609.2
6854.65
7073.72
7239.53
7399.47
7514
7637.88
7717.67
7819.35
7874.45
16112.1
21595.9
24450.4
25489.6
25965.6
26035.4
25983.2
25847.6
25645.7
25425.6
25205.1
24991.9
24791.4
24604.6
24432.8
24274.8
24129.6
23996.9
11463.3
2494.65
2496.87
2499.12
2501.38
2503.67
2505.98
2508.3
2510.65
2513.02
2515.42
2517.83
2520.27
2522.73
2525.21
2527.72
2530.25
2532.8
2535.37
2537.97
2540.6
2543.25
2545.92
2548.62
2551.34
2554.09
2556.87
2559.67
2562.5
2565.35
2568.23
2571.14
2574.08
2577.04
2580.04
2583.06
2586.11
2589.19
2592.3
2595.43
2598.6
2601.8
2605.03
2608.29
2611.59
2614.91
2618.27
3297.48
3522.63
3176.29
3502.1
3708.76
3287.89
3392.66
2646.33
3274.6
3283.1
3348.86
3398.92
3449.74
3496.25
3544.51
3588.8
3634.08
3677.12
3720.25
3762.17
3803.82
3844.75
3885.32
3925.39
3965.09
4004.41
4043.37
4081.98
4120.25
4158.18
4195.77
4232.99
4269.87
4306.34
4342.46
4378.09
4413.35
4448.03
4482.31
4515.91
4549.06
4581.49
4613.4
4644.64
4675.24
4705.22
4734.67
4763.75
4792.73
4821.22
4849.13
4876.47
4903.32
4929.58
4955.31
4980.44
5005
5028.94
5052.29
5075.01
5097.09
5118.55
5139.33
5159.49
5178.96
5197.81
5215.93
5233.45
5250.22
5266.39
5281.8
5296.62
5310.67
5324.11
5336.79
5348.85
5360.15
5370.79
5380.66
5389.82
5398.15
5405.64
5412.43
5419.04
5425.12
5430.74
5434.96
5439.83
5441.57
5444.77
5445.45
5446.28
5446.18
5445.27
5443.75
5441.65
5438.92
5435.11
5430.74
5425.63
5420.02
5413.86
5407.23
5400.08
5392.47
5384.4
5375.92
5367.08
5357.97
5348.56
5338.91
5329.06
5319.06
5308.96
5298.8
5288.64
5278.51
5268.51
5258.65
5248.95
5239.37
5229.88
5220.83
5211.88
5202.52
5192.92
5182.82
5171.66
5158.63
5141.58
5116.74
5082.36
4867.18
11463.3
2017.56
996.183
798.078
682.433
642.274
652.422
650.269
639.889
619.359
597.302
576.273
561.12
547.83
546.083
563.49
613.896
706.208
812.715
910.125
987.741
1010.91
989.065
937.857
812.39
687.383
585.893
519.817
497.599
507.718
521.738
590.158
673.817
966.329
1373.61
1750.4
1977.79
2112
2147.94
2157.55
2129.31
2078.78
2023.9
1969.87
1895.15
1833.53
1781.28
1746.32
1697.98
1634.02
1616.55
1616.72
1521.61
1530.72
1486.97
1512.08
1503.31
1502.61
1503.79
1506.46
1509.84
1514.67
1519.8
1525.9
1532.26
1539.21
1546.36
1553.84
1561.47
1569.27
1577.16
1585.12
1593.1
1601.09
1609.06
1616.98
1624.83
1632.6
1640.27
1647.81
1655.22
1662.49
1669.59
1676.53
1683.29
1689.87
1696.26
1702.48
1708.53
1714.46
1720.28
1726.1
1732.01
1738.2
1744.91
1752.42
1760.21
1767.74
1775.18
1782.47
1789.63
1796.64
1803.52
1810.25
1816.83
1823.27
1829.56
1835.71
1841.7
1847.54
1853.22
1858.76
1864.13
1869.35
1874.41
1879.31
1884.04
1888.61
1893.01
1897.24
1901.3
1905.17
1908.87
1912.38
1915.71
1918.84
1921.77
1924.51
1927.06
1929.45
1931.71
1933.77
1935.63
1937.23
1938.69
1939.77
1940.81
1941.48
1942.02
1942.31
1942.3
1942.22
1942.01
1941.6
1940.96
1940.12
1939.09
1937.91
1936.57
1935.08
1933.43
1931.62
1929.68
1927.6
1925.42
1923.11
1920.69
1918.18
1915.58
1912.9
1910.15
1907.35
1904.49
1901.61
1898.68
1895.72
1892.77
1889.83
1886.94
1884.12
1881.34
1878.56
1875.79
1873.09
1870.49
1868.14
1866.04
1865.03
1865.42
1868.26
11463.3
2028.99
851.694
713.932
750.201
746.502
714.459
656.14
596.961
541.026
491.455
449.723
415.916
389.708
372.154
357.797
357.732
364.178
381.92
415.729
459.775
500.742
527.163
525.191
501.436
460.748
418.599
420.568
461.026
579.642
760.633
1031.86
1255.49
1450.13
1599.68
1674.61
1698.97
1641.23
1576.02
1497.63
1421.87
1348.91
1285.32
1229.54
1180.93
1140.89
1108.37
1081.92
1060.27
1044.04
1033.25
1024.53
1015.21
1013.53
1011.32
1012.41
1012.93
1014.66
1016.96
1019.81
1023.04
1026.68
1030.55
1034.7
1039
1043.47
1048.03
1052.69
1057.41
1062.18
1066.97
1071.77
1076.57
1081.35
1086.11
1090.84
1095.53
1100.18
1104.77
1109.3
1113.78
1118.19
1122.55
1126.84
1131.07
1135.24
1139.37
1143.46
1147.53
1151.6
1155.69
1159.83
1164.04
1168.37
1172.81
1177.32
1181.76
1186.11
1190.4
1194.6
1198.73
1202.78
1206.75
1210.63
1214.43
1218.15
1221.78
1225.33
1228.78
1232.15
1235.43
1238.62
1241.71
1244.71
1247.61
1250.42
1253.12
1255.72
1258.22
1260.61
1262.89
1265.06
1267.12
1269.06
1270.89
1272.59
1274.18
1275.65
1277
1278.24
1279.36
1280.34
1281.2
1281.91
1282.48
1282.9
1283.2
1283.34
1283.34
1283.23
1282.97
1282.56
1282.08
1281.46
1280.69
1279.8
1278.79
1277.66
1276.42
1275.07
1273.6
1272.03
1270.36
1268.59
1266.73
1264.78
1262.74
1260.62
1258.43
1256.17
1253.85
1251.46
1249.01
1246.52
1243.98
1241.4
1238.79
1236.15
1233.5
1230.87
1228.28
1225.71
1223.2
1220.79
1218.55
1216.65
1215.26
1215.37
1217.65
1228.84
11463.3
2116.3
1179.42
1102.85
977.548
845.213
727.986
623.156
535.032
463.939
409.278
368.849
339.445
318.296
303.533
293.494
287.577
287.962
291.298
301.141
320.224
345.984
371.506
385.352
398.366
445.381
521.356
664.369
855.716
1055.71
1222.24
1311.29
1379.04
1420.53
1436.7
1348.17
1261.02
1195.44
1125.79
1067.33
1015.38
972.069
936.136
906.714
883.064
864.373
850.052
839.177
831.141
825.809
822.288
820.334
819.425
819.437
820.544
822.272
824.347
826.857
829.668
832.738
836.012
839.462
843.043
846.739
850.519
854.37
858.271
862.211
866.178
870.161
874.151
878.142
882.127
886.099
890.055
893.99
897.901
901.785
905.64
909.464
913.258
917.021
920.754
924.459
928.139
931.796
935.436
939.064
942.687
946.316
949.953
953.604
957.267
960.94
964.609
968.245
971.821
975.338
978.796
982.192
985.525
988.793
991.995
995.13
998.195
1001.19
1004.11
1006.96
1009.73
1012.42
1015.03
1017.56
1020.01
1022.37
1024.64
1026.82
1028.91
1030.91
1032.82
1034.63
1036.33
1037.94
1039.45
1040.85
1042.15
1043.34
1044.42
1045.39
1046.26
1047.02
1047.66
1048.19
1048.6
1048.88
1049.04
1049.07
1048.98
1048.77
1048.43
1047.97
1047.39
1046.68
1045.88
1044.95
1043.89
1042.72
1041.44
1040.05
1038.55
1036.95
1035.24
1033.43
1031.52
1029.52
1027.44
1025.26
1023.01
1020.68
1018.28
1015.8
1013.26
1010.66
1007.99
1005.28
1002.51
999.703
996.859
993.984
991.088
988.195
985.322
982.481
979.691
976.998
974.473
972.258
970.515
970.047
971.462
979.087
11463.3
2598.56
1681.08
1274.36
1001.83
781.003
604.168
479.3
396.96
344.583
310.405
286.961
270.592
259.323
251.915
247.752
247.077
248.637
252.984
260.901
275.721
300.941
343.971
405.034
491.31
634.592
844.468
1023.93
1140.15
1203.94
1242.85
1260.13
1256.93
1179.33
1085.31
1020.34
961.346
914.106
870.69
836.187
806.739
783.131
764.032
748.96
737.346
728.641
722.42
718.148
715.741
714.546
714.323
714.85
716.138
717.962
720.299
722.952
725.859
728.988
732.288
735.728
739.281
742.924
746.639
750.411
754.228
758.078
761.953
765.845
769.747
773.655
777.562
781.466
785.363
789.249
793.123
796.982
800.824
804.648
808.454
812.241
816.008
819.757
823.488
827.202
830.899
834.583
838.253
841.913
845.564
849.208
852.845
856.469
860.073
863.651
867.193
870.691
874.135
877.527
880.863
884.143
887.361
890.518
893.611
896.637
899.595
902.481
905.293
908.028
910.683
913.256
915.745
918.147
920.46
922.681
924.809
926.84
928.774
930.607
932.339
933.966
935.489
936.905
938.212
939.409
940.496
941.47
942.332
943.08
943.713
944.229
944.626
944.899
945.051
945.076
944.975
944.744
944.392
943.91
943.301
942.564
941.699
940.711
939.603
938.373
937.017
935.54
933.943
932.231
930.406
928.47
926.425
924.275
922.024
919.677
917.238
914.709
912.096
909.402
906.633
903.791
900.883
897.921
894.902
891.829
888.707
885.54
882.338
879.104
875.846
872.583
869.332
866.108
862.934
859.848
856.913
854.244
851.981
850.631
850.961
854.959
11463.3
3359.66
1877.08
1252.34
841.163
585.916
450.764
375.709
328.105
295.767
272.233
254.776
242.018
233.129
227.698
225.535
226.362
230.718
240.753
258.64
284.954
328.45
407.349
539.531
740.247
928.999
1049.88
1113.54
1140.62
1154.22
1136.2
1058.6
984.893
914.787
861.523
819.225
782.578
752.744
727.164
706.67
689.818
676.526
666.155
658.348
652.745
648.972
646.958
646.166
646.116
647.03
648.639
650.779
653.372
656.312
659.544
662.983
666.589
670.327
674.169
678.092
682.078
686.113
690.187
694.288
698.41
702.546
706.692
710.842
714.993
719.143
723.288
727.427
731.557
735.677
739.786
743.883
747.967
752.038
756.094
760.136
764.164
768.177
772.176
776.16
780.131
784.087
788.029
791.956
795.867
799.764
803.641
807.493
811.313
815.093
818.831
822.522
826.163
829.75
833.281
836.752
840.162
843.506
846.781
849.984
853.114
856.166
859.134
862.017
864.81
867.51
870.114
872.619
875.022
877.319
879.509
881.588
883.554
885.406
887.142
888.759
890.257
891.633
892.887
894.017
895.023
895.904
896.658
897.285
897.783
898.151
898.388
898.481
898.453
898.284
897.979
897.536
896.955
896.236
895.376
894.377
893.239
891.964
890.552
889.01
887.33
885.517
883.573
881.501
879.305
876.987
874.551
872.001
869.342
866.577
863.713
860.753
857.702
854.565
851.347
848.053
844.688
841.262
837.776
834.235
830.644
827.008
823.341
819.652
815.951
812.245
808.547
804.874
801.247
797.701
794.291
791.106
788.266
786.085
785.17
786.653
11463.3
3703.91
1821.2
1001.37
624.521
456.636
371.283
321.389
288.715
265.687
249.134
236.838
227.68
221.58
219.136
220.509
225.852
233.72
250.496
282.86
340.034
441.234
611.888
797.841
939.021
1021.38
1054.47
1070.13
1054.35
982.895
911.89
849.432
799.343
756.937
724.242
696.878
673.865
654.94
639.276
626.761
616.847
609.293
603.762
599.982
597.902
597.113
597.105
598.113
599.838
602.196
605.054
608.307
611.881
615.707
619.732
623.91
628.203
632.586
637.037
641.538
646.077
650.641
655.224
659.817
664.417
669.018
673.619
678.216
682.807
687.392
691.968
696.535
701.092
705.637
710.171
714.694
719.203
723.701
728.185
732.657
737.115
741.559
745.989
750.404
754.803
759.186
763.55
767.894
772.217
776.517
780.792
785.035
789.243
793.413
797.539
801.614
805.637
809.602
813.507
817.348
821.119
824.817
828.437
831.972
835.415
838.765
842.018
845.171
848.218
851.156
853.981
856.69
859.278
861.743
864.082
866.292
868.37
870.316
872.126
873.8
875.336
876.733
877.99
879.107
880.082
880.915
881.606
882.153
882.557
882.813
882.914
882.877
882.693
882.356
881.87
881.231
880.44
879.497
878.399
877.148
875.743
874.186
872.473
870.591
868.555
866.369
864.037
861.563
858.951
856.204
853.327
850.324
847.201
843.963
840.616
837.164
833.614
829.971
826.242
822.432
818.547
814.595
810.582
806.511
802.39
798.225
794.03
789.813
785.581
781.344
777.115
772.909
768.749
764.664
760.703
756.937
753.462
750.506
748.398
748.063
11463.3
3709.12
1489.38
769.877
516.264
405.053
344.233
306.584
280.169
260.182
244.826
233.547
226.426
223.4
224.797
231.96
246.455
271.897
312.162
382.072
510.935
670.579
814.858
916.962
969.98
990.265
991.005
933.6
865.817
805.024
756.749
716.521
684.402
657.774
636.264
618.164
603.126
590.84
580.946
573.236
567.437
563.345
560.849
559.753
559.578
560.388
562.024
564.387
567.338
570.782
574.628
578.798
583.229
587.865
592.663
597.584
602.599
607.684
612.819
617.988
623.182
628.389
633.603
638.818
644.029
649.233
654.429
659.615
664.79
669.953
675.104
680.242
685.367
690.478
695.575
700.659
705.729
710.785
715.827
720.854
725.866
730.864
735.845
740.808
745.751
750.673
755.572
760.445
765.291
770.108
774.891
779.638
784.346
789.008
793.617
798.168
802.657
807.079
811.432
815.708
819.904
824.014
828.033
831.954
835.774
839.487
843.086
846.567
849.925
853.154
856.25
859.209
862.026
864.698
867.222
869.594
871.813
873.876
875.781
877.528
879.114
880.54
881.804
882.908
883.849
884.628
885.245
885.699
885.987
886.104
886.065
885.859
885.488
884.949
884.242
883.366
882.32
881.104
879.718
878.16
876.432
874.533
872.464
870.229
867.825
865.258
862.53
859.646
856.61
853.427
850.101
846.639
843.045
839.327
835.49
831.541
827.486
823.332
819.085
814.753
810.343
805.861
801.315
796.711
792.056
787.355
782.597
777.8
772.987
768.169
763.361
758.578
753.839
749.174
744.621
740.241
736.107
732.379
729.242
727.279
11463.3
3279.07
1169.2
633.715
453.903
374.796
331.324
301.022
278.647
261.625
248.809
240.118
235.483
234.81
241.852
259.108
292.386
351.985
446.79
570.684
696.647
805.537
876.213
910.766
923.515
894.734
835.678
775.356
728.221
688.272
656.772
630.605
609.222
591.382
576.615
564.297
554.202
546.12
539.85
535.228
532.08
530.426
529.889
530.256
531.567
533.692
536.516
539.946
543.886
548.254
552.979
557.995
563.248
568.691
574.283
579.991
585.785
591.643
597.546
603.478
609.429
615.389
621.35
627.305
633.25
639.182
645.098
650.997
656.88
662.748
668.598
674.43
680.243
686.039
691.818
697.578
703.321
709.047
714.754
720.441
726.105
731.745
737.365
742.965
748.543
754.097
759.623
765.119
770.583
776.012
781.402
786.747
792.038
797.272
802.444
807.55
812.583
817.541
822.416
827.204
831.898
836.492
840.979
845.353
849.607
853.734
857.728
861.583
865.291
868.848
872.248
875.485
878.556
881.455
884.18
886.727
889.094
891.278
893.279
895.094
896.724
898.168
899.426
900.499
901.386
902.088
902.606
902.938
903.077
903.038
902.813
902.403
901.807
901.024
900.054
898.896
897.549
896.013
894.287
892.371
890.266
887.972
885.491
882.824
879.973
876.942
873.735
870.356
866.81
863.102
859.24
855.229
851.075
846.787
842.37
837.834
833.185
828.431
823.579
818.638
813.615
808.519
803.357
798.138
792.867
787.554
782.208
776.837
771.451
766.065
760.689
755.341
750.038
744.806
739.68
734.708
729.948
725.516
721.493
718.148
11463.3
2721.17
967.952
576.224
436.655
371.072
333.884
309.631
291.624
278.016
269.16
266.476
270.424
283.175
308.2
353.437
421.987
510.781
609.646
705.576
781.158
828.002
850.191
852.007
805.937
755.174
708.66
668.644
637.44
611.26
589.961
572.07
557.137
544.616
534.216
525.674
518.837
513.569
509.741
507.285
506.152
505.959
506.736
508.403
510.874
514.058
517.87
522.23
527.063
532.3
537.878
543.74
549.838
556.127
562.57
569.135
575.791
582.513
589.283
596.082
602.899
609.73
616.558
623.377
630.18
636.964
643.724
650.456
657.15
663.805
670.437
677.049
683.64
690.211
696.76
703.29
709.799
716.287
722.755
729.203
735.634
742.043
748.426
754.78
761.101
767.387
773.635
779.842
786.004
792.12
798.183
804.188
810.127
815.997
821.793
827.511
833.145
838.689
844.137
849.481
854.716
859.832
864.823
869.681
874.397
878.963
883.372
887.616
891.687
895.579
899.286
902.801
906.118
909.235
912.147
914.849
917.341
919.621
921.686
923.536
925.172
926.594
927.802
928.798
929.582
930.157
930.522
930.672
930.618
930.356
929.887
929.211
928.328
927.237
925.939
924.433
922.718
920.795
918.662
916.32
913.769
911.011
908.047
904.88
901.512
897.947
894.19
890.246
886.121
881.821
877.354
872.726
867.947
863.022
857.963
852.775
847.469
842.054
836.537
830.928
825.235
819.469
813.636
807.747
801.81
795.833
789.826
783.8
777.764
771.731
765.715
759.729
753.793
747.93
742.169
736.551
731.121
725.969
721.135
716.681
11463.3
2187
832.944
536.226
429.588
379.399
351.608
333.256
320.062
312.683
310.815
317.166
335.276
368.035
416.926
479.76
552.458
627.514
694.183
744.254
776.693
790.778
773.62
733.837
691.911
655.039
623.584
597.516
576.293
558.301
543.201
530.387
519.59
510.567
503.156
497.224
492.672
489.408
487.438
486.652
486.732
487.787
489.723
492.464
495.938
500.074
504.802
510.057
515.776
521.898
528.366
535.127
542.134
549.345
556.727
564.251
571.877
579.58
587.336
595.123
602.916
610.676
618.431
626.183
633.925
641.648
649.35
657.026
664.68
672.316
679.928
687.508
695.054
702.564
710.041
717.483
724.892
732.268
739.609
746.916
754.185
761.418
768.613
775.768
782.878
789.943
796.957
803.918
810.821
817.664
824.443
831.149
837.778
844.323
850.78
857.143
863.406
869.561
875.603
881.522
887.311
892.96
898.461
903.805
908.981
913.98
918.793
923.411
927.825
932.028
936.012
939.77
943.297
946.588
949.638
952.445
955.006
957.321
959.387
961.206
962.777
964.104
965.186
966.027
966.629
966.994
967.123
967.016
966.678
966.107
965.306
964.277
963.02
961.534
959.82
957.878
955.708
953.309
950.682
947.827
944.745
941.437
937.905
934.154
930.185
926.005
921.617
917.029
912.247
907.278
902.132
896.815
891.337
885.708
879.936
874.032
868.006
861.867
855.624
849.289
842.87
836.378
829.823
823.213
816.56
809.871
803.159
796.432
789.702
782.982
776.284
769.624
763.018
756.489
750.063
743.774
737.656
731.781
726.16
720.682
11463.3
1973.21
809.614
537.633
442.953
401.846
381.21
370.159
365.677
365.94
375.418
395.292
426.607
468.75
519.415
574.049
626.702
671.05
705.224
726.26
731.426
704.427
674.027
641.551
612.439
587.619
566.513
548.684
533.578
520.582
509.475
500.018
492.073
485.526
480.292
476.296
473.477
471.87
471.319
471.676
472.963
475.131
478.12
481.868
486.312
491.396
497.06
503.249
509.916
517.008
524.46
532.221
540.246
548.487
556.887
565.388
574.007
582.73
591.536
600.402
609.309
618.257
627.215
636.177
645.12
654.033
662.907
671.74
680.527
689.266
697.946
706.574
715.15
723.674
732.148
740.571
748.945
757.269
765.544
773.768
781.941
790.062
798.129
806.139
814.09
821.978
829.799
837.549
845.225
852.823
860.339
867.766
875.097
882.325
889.446
896.454
903.34
910.098
916.72
923.196
929.517
935.673
941.653
947.447
953.043
958.431
963.599
968.536
973.235
977.684
981.876
985.804
989.461
992.843
995.944
998.764
1001.3
1003.55
1005.51
1007.19
1008.59
1009.71
1010.56
1011.13
1011.43
1011.47
1011.25
1010.77
1010.03
1009.03
1007.78
1006.28
1004.54
1002.54
1000.3
997.809
995.073
992.089
988.859
985.384
981.665
977.704
973.504
969.07
964.404
959.514
954.404
949.082
943.556
937.835
931.927
925.842
919.591
913.183
906.63
899.942
893.131
886.205
879.178
872.06
864.861
857.592
850.264
842.887
835.472
828.028
820.568
813.102
805.64
798.197
790.784
783.417
776.112
768.89
761.773
754.791
747.972
741.373
734.99
728.587
11463.3
1902.47
794.198
544.977
463.127
431.288
418.606
414.732
416.351
425.981
443.83
469.69
502.363
539.375
577.148
611.705
640.918
665.166
676.203
669.918
648.197
624.319
600.737
578.443
558.929
541.955
527.172
514.32
503.152
493.459
485.143
478.117
472.321
467.704
464.224
461.835
460.597
460.31
460.957
462.516
464.95
468.232
472.315
477.127
482.617
488.735
495.43
502.64
510.282
518.306
526.715
535.479
544.556
553.908
563.503
573.315
583.287
593.388
603.601
613.882
624.204
634.546
644.879
655.177
665.432
675.637
685.785
695.87
705.885
715.828
725.694
735.482
745.194
754.83
764.39
773.877
783.29
792.63
801.898
811.093
820.214
829.261
838.232
847.123
855.932
864.656
873.29
881.829
890.27
898.609
906.844
914.966
922.967
930.843
938.585
946.189
953.646
960.949
968.087
975.052
981.833
988.418
994.794
1000.95
1006.88
1012.56
1017.98
1023.13
1028
1032.58
1036.86
1040.83
1044.49
1047.82
1050.84
1053.52
1055.89
1057.92
1059.63
1061.02
1062.1
1062.85
1063.3
1063.45
1063.3
1062.86
1062.13
1061.11
1059.81
1058.24
1056.39
1054.28
1051.9
1049.25
1046.34
1043.16
1039.72
1036.02
1032.05
1027.83
1023.35
1018.62
1013.63
1008.4
1002.93
997.219
991.284
985.129
978.764
972.199
965.443
958.507
951.403
944.142
936.736
929.197
921.535
913.764
905.896
897.94
889.91
881.817
873.672
865.486
857.27
849.036
840.793
832.555
824.332
816.137
807.983
799.885
791.858
783.921
776.096
768.408
760.879
753.557
746.434
739.185
11463.3
1867.48
791.812
558.99
486.908
462.392
455.344
454.953
462.075
475.437
494.125
516.703
541.216
565.359
588.008
609.405
623.409
626.967
615.128
601.904
584.451
567.532
551.338
536.304
522.793
510.687
499.898
490.362
482.023
474.833
468.762
463.782
459.871
457.015
455.267
454.566
454.752
455.852
457.824
460.637
464.247
468.574
473.58
479.312
485.751
492.863
500.603
508.929
517.809
527.205
537.049
547.288
557.879
568.789
579.979
591.394
602.978
614.683
626.457
638.284
650.14
662
673.839
685.632
697.364
709.02
720.591
732.066
743.439
754.704
765.858
776.9
787.829
798.646
809.352
819.95
830.44
840.824
851.103
861.277
871.347
881.31
891.165
900.91
910.542
920.057
929.451
938.719
947.856
956.861
965.729
974.453
983.027
991.443
999.696
1007.78
1015.68
1023.4
1030.92
1038.23
1045.32
1052.19
1058.81
1065.17
1071.25
1077.06
1082.56
1087.74
1092.6
1097.12
1101.3
1105.12
1108.58
1111.66
1114.39
1116.74
1118.72
1120.33
1121.58
1122.46
1122.99
1123.17
1123.02
1122.55
1121.73
1120.6
1119.16
1117.41
1115.36
1113.02
1110.39
1107.48
1104.28
1100.8
1097.05
1093.02
1088.71
1084.13
1079.28
1074.16
1068.78
1063.13
1057.22
1051.07
1044.66
1038.02
1031.15
1024.05
1016.75
1009.24
1001.55
993.676
985.639
977.45
969.121
960.664
952.093
943.42
934.658
925.818
916.913
907.956
898.957
889.928
880.881
871.828
862.778
853.745
844.74
835.775
826.863
818.019
809.257
800.596
792.054
783.655
775.415
767.379
759.537
751.509
11463.3
1839.07
794.62
574.176
508.725
488.058
482.922
483.61
490.806
501.701
515.074
530.016
546.052
562.689
576.471
582.155
579.986
572.853
563.106
552.537
540.758
529.333
518.346
508.052
498.625
490.1
482.532
475.983
470.516
465.929
462.207
459.354
457.364
456.237
455.849
456.223
457.484
459.656
462.726
466.676
471.483
477.145
483.641
490.921
498.948
507.689
517.103
527.146
537.779
548.972
560.653
572.748
585.194
597.928
610.899
624.077
637.419
650.882
664.422
678.005
691.598
705.172
718.697
732.148
745.502
758.74
771.848
784.813
797.627
810.283
822.776
835.106
847.271
859.274
871.116
882.801
894.331
905.708
916.936
928.014
938.944
949.725
960.356
970.835
981.16
991.326
1001.33
1011.17
1020.83
1030.32
1039.64
1048.77
1057.71
1066.45
1075
1083.33
1091.45
1099.34
1107
1114.42
1121.57
1128.46
1135.06
1141.36
1147.34
1153
1158.3
1163.25
1167.81
1172
1175.78
1179.16
1182.13
1184.68
1186.82
1188.55
1189.85
1190.75
1191.26
1191.34
1191.07
1190.42
1189.39
1188.01
1186.27
1184.19
1181.79
1179.06
1176.03
1172.68
1169.04
1165.1
1160.87
1156.36
1151.56
1146.48
1141.12
1135.48
1129.57
1123.39
1116.94
1110.22
1103.25
1096.02
1088.56
1080.85
1072.92
1064.78
1056.43
1047.88
1039.16
1030.27
1021.22
1012.03
1002.71
993.281
983.746
974.123
964.424
954.662
944.848
934.997
925.118
915.225
905.329
895.44
885.571
875.733
865.938
856.197
846.523
836.931
827.434
818.05
808.795
799.692
790.752
782.019
773.483
764.738
11463.3
1830.74
801.461
586.96
523.635
502.695
495.965
494.567
497.47
504.205
513.664
524.747
535.045
540.136
541.05
538.335
535.514
530.764
525.193
519.185
512.856
506.796
500.955
495.257
489.857
484.853
480.303
476.16
472.3
469.18
466.901
465.514
465.019
465.432
466.794
469.106
472.34
476.497
481.567
487.542
494.406
502.156
510.77
520.207
530.421
541.386
553.058
565.357
578.215
591.554
605.322
619.479
633.973
648.752
663.766
678.968
694.315
709.76
725.258
740.767
756.249
771.665
786.984
802.173
817.207
832.061
846.717
861.161
875.381
889.37
903.125
916.644
929.928
942.98
955.804
968.406
980.789
992.958
1004.92
1016.67
1028.22
1039.56
1050.7
1061.63
1072.36
1082.88
1093.18
1103.26
1113.12
1122.75
1132.16
1141.34
1150.29
1158.99
1167.44
1175.65
1183.59
1191.27
1198.67
1205.79
1212.6
1219.11
1225.28
1231.11
1236.58
1241.68
1246.38
1250.67
1254.54
1257.97
1260.97
1263.51
1265.59
1267.19
1268.36
1269.08
1269.31
1269.13
1268.54
1267.48
1266.03
1264.17
1261.93
1259.31
1256.33
1252.99
1249.33
1245.33
1241.02
1236.4
1231.47
1226.26
1220.75
1214.97
1208.89
1202.54
1195.92
1189.02
1181.85
1174.42
1166.72
1158.78
1150.58
1142.14
1133.47
1124.58
1115.47
1106.17
1096.67
1086.99
1077.15
1067.17
1057.04
1046.79
1036.43
1025.97
1015.43
1004.83
994.161
983.452
972.712
961.952
951.184
940.42
929.671
918.949
908.263
897.626
887.049
876.543
866.12
855.793
845.577
835.487
825.538
815.751
806.135
796.731
787.533
778.138
11463.3
1820.86
804.766
593.411
528.797
504.927
495.222
492.007
491.756
494.618
497.611
500.613
503.114
505.057
508.682
511.335
513.182
513.888
513.918
512.865
510.881
507.911
504.343
500.826
497.582
494.736
492.39
490.64
489.678
489.468
490.092
491.604
494.032
497.389
501.711
506.992
513.199
520.311
528.313
537.191
546.935
557.541
569.002
581.318
594.377
608.086
622.368
637.197
652.526
668.299
684.463
700.971
717.772
734.811
752.041
769.408
786.865
804.361
821.847
839.277
856.603
873.785
890.782
907.562
924.09
940.344
956.299
971.945
987.265
1002.26
1016.92
1031.25
1045.25
1058.94
1072.31
1085.37
1098.14
1110.62
1122.82
1134.74
1146.39
1157.77
1168.88
1179.72
1190.29
1200.59
1210.61
1220.36
1229.82
1239.01
1247.91
1256.54
1264.87
1272.92
1280.68
1288.13
1295.29
1302.14
1308.67
1314.88
1320.74
1326.25
1331.39
1336.15
1340.51
1344.46
1347.97
1351.02
1353.61
1355.72
1357.37
1358.52
1359.17
1359.26
1358.97
1358.18
1356.87
1355.12
1352.92
1350.27
1347.21
1343.73
1339.86
1335.61
1331.01
1326.05
1320.77
1315.16
1309.25
1303.05
1296.55
1289.77
1282.72
1275.39
1267.8
1259.94
1251.82
1243.45
1234.82
1225.95
1216.84
1207.49
1197.92
1188.12
1178.12
1167.91
1157.52
1146.95
1136.22
1125.33
1114.31
1103.16
1091.9
1080.55
1069.11
1057.6
1046.04
1034.43
1022.79
1011.13
999.469
987.808
976.162
964.542
952.96
941.425
929.948
918.539
907.208
895.968
884.828
873.801
862.899
852.139
841.532
831.099
820.846
810.814
800.995
791.022
11463.3
1814.05
804.738
593.397
526.202
498.428
483.991
476.31
473.378
473.861
479.565
487.049
495.291
503.385
510.567
516.5
521.546
525.525
528.633
530.788
532.228
533.285
534.266
535.329
536.675
538.434
540.737
543.701
547.465
551.999
557.349
563.528
570.545
578.399
587.097
596.628
606.971
618.104
630.005
642.662
656.065
670.254
685.176
700.693
716.782
733.397
750.489
768.013
785.926
804.175
822.716
841.497
860.469
879.584
898.782
918.014
937.226
956.362
975.374
994.203
1012.81
1031.13
1049.15
1066.81
1084.09
1100.95
1117.39
1133.39
1148.94
1164.04
1178.7
1192.92
1206.71
1220.07
1233.04
1245.61
1257.8
1269.63
1281.1
1292.21
1302.98
1313.42
1323.51
1333.28
1342.71
1351.8
1360.56
1369
1377.09
1384.85
1392.28
1399.38
1406.16
1412.6
1418.71
1424.49
1429.93
1435.04
1439.79
1444.18
1448.21
1451.85
1455.09
1457.93
1460.35
1462.33
1463.83
1464.84
1465.38
1465.39
1464.98