/*--------------------------------*- C++ -*----------------------------------*\
  =========                 |
  \\      /  F ield         | OpenFOAM: The Open Source CFD Toolbox
   \\    /   O peration     | Website:  https://openfoam.org
    \\  /    A nd           | Version:  8
     \\/     M anipulation  |
\*---------------------------------------------------------------------------*/
FoamFile
{
    version     2.0;
    format      ascii;
    class       volVectorField;
    location    "1800";
    object      wallShearStress;
}
// * * * * * * * * * * * * * * * * * * * * * * * * * * * * * * * * * * * * * //

dimensions      [0 2 -2 0 0 0 0];

internalField   uniform (0 0 0);

boundaryField
{
    inlet
    {
        type            calculated;
        value           uniform (0 0 0);
    }
    outlet
    {
        type            calculated;
        value           uniform (0 0 0);
    }
    upperWall
    {
        type            calculated;
        value           nonuniform List<vector> 
223
(
(-0.623981 -0.054865 0)
(-0.563183 -0.0493957 0)
(-0.552678 -0.0324966 0)
(-0.546941 -0.0201206 0)
(-0.540044 -0.011877 0)
(-0.529318 -0.00659415 0)
(-0.518622 -0.00337047 0)
(-0.507734 -0.00140432 0)
(-0.496817 -0.000222737 0)
(-0.486677 0.000474311 0)
(-0.477417 0.000873713 0)
(-0.469021 0.00109086 0)
(-0.461451 0.00119582 0)
(-0.454632 0.00123317 0)
(-0.44849 0.00123181 0)
(-0.442945 0.00121318 0)
(-0.437903 0.00118791 0)
(-0.433326 0.00120658 0)
(-0.429626 0.00125982 0)
(-0.426671 0.00130509 5.20177e-22)
(-0.423761 0.00131287 0)
(-0.420911 0.00129412 0)
(-0.418122 0.00125958 0)
(-0.4154 0.0012138 5.33291e-22)
(-0.412749 0.00116298 0)
(-0.410175 0.00110752 0)
(-0.407677 0.00105268 0)
(-0.405255 0.000996974 -1.09132e-21)
(-0.402908 0.000944059 1.09741e-21)
(-0.400635 0.000892335 1.10344e-21)
(-0.398431 0.000844427 0)
(-0.396295 0.00079843 -1.11539e-21)
(-0.394224 0.000756464 0)
(-0.392215 0.000716755 1.12717e-21)
(-0.390264 0.000680402 1.133e-21)
(-0.388369 0.000646676 -1.13881e-21)
(-0.386526 0.000616031 0)
(-0.384733 0.000588073 0)
(-0.382986 0.000562269 0)
(-0.381284 0.000538719 0)
(-0.379624 0.00051706 -1.16768e-21)
(-0.378004 0.000497256 0)
(-0.376422 0.000479231 0)
(-0.374876 0.000462891 1.18479e-21)
(-0.373364 0.000448053 0)
(-0.371884 0.000434513 1.19614e-21)
(-0.370434 0.000422255 -1.20179e-21)
(-0.369012 0.000411229 1.20745e-21)
(-0.367617 0.000401532 0)
(-0.366246 0.000392738 0)
(-0.364899 0.000385104 0)
(-0.363572 0.000378119 1.22993e-21)
(-0.362266 0.000372135 -1.2355e-21)
(-0.360978 0.000366862 0)
(-0.359708 0.000362414 0)
(-0.358453 0.00035861 0)
(-0.357212 0.000355567 0)
(-0.355984 0.000353129 0)
(-0.354766 0.000351204 0)
(-0.35356 0.000349913 0)
(-0.35236 0.000349077 0)
(-0.35117 0.000348771 1.2836e-21)
(-0.349982 0.00034905 -1.28865e-21)
(-0.348801 0.000349742 0)
(-0.34762 0.000350679 0)
(-0.346443 0.000351939 0)
(-0.345264 0.00035345 -1.30782e-21)
(-0.344087 0.000355236 0)
(-0.342906 0.000357257 0)
(-0.341724 0.000359462 0)
(-0.340536 0.000361853 0)
(-0.339345 0.000364363 0)
(-0.338147 0.000366876 -2.66467e-21)
(-0.336944 0.000369702 0)
(-0.33573 0.000372739 0)
(-0.334512 0.00037584 0)
(-0.333273 0.000379118 0)
(-0.332051 0.000382584 0)
(-0.33075 0.000386342 0)
(-0.329582 0.000390258 0)
(-0.328105 0.000394682 2.70872e-21)
(-0.327137 0.000399185 0)
(-0.325373 0.000406058 0)
(-0.324266 0.000412617 0)
(-0.324257 0.000416123 -2.73323e-21)
(-0.318739 0.000406026 0)
(-0.34075 0.000395208 -2.90126e-21)
(-0.317718 -0.000195371 0)
(-0.463349 -0.000498945 0)
(-0.402658 0.000873468 0)
(-0.361948 0.000740167 -3.13568e-21)
(-0.347322 0.000173503 0)
(-0.328381 0.000111791 2.86933e-21)
(-0.327753 0.000114106 2.91164e-21)
(-0.324869 0.00050924 0)
(-0.31265 0.000716839 2.87774e-21)
(-0.316487 0.000947018 0)
(-0.306264 0.00107808 0)
(-0.306565 0.000857231 0)
(-0.303352 0.000706813 -2.87752e-21)
(-0.303159 -0.000473291 0)
(-0.366883 0.00440576 -3.49798e-21)
(-0.343084 0.00655304 3.08365e-21)
(-0.324643 0.00483222 0)
(-0.317209 0.00240951 0)
(-0.328002 -0.00167338 0)
(-0.305567 -0.000107999 0)
(-0.297119 0.000731483 0)
(-0.295465 -3.73587e-05 0)
(-0.294825 -0.000911895 0)
(-0.293112 -0.000681239 -2.65865e-21)
(-0.292421 -0.00117457 0)
(-0.341982 0.00365542 0)
(-0.316148 0.0049239 0)
(-0.297146 0.00266088 0)
(-0.288461 0.00203989 0)
(-0.294055 -0.00112012 0)
(-0.286419 0.000221721 0)
(-0.285754 0.00394043 0)
(-0.292943 0.00688194 0)
(-0.283047 0.00560234 0)
(-0.281701 -0.00025639 0)
(-0.279907 -0.00421042 0)
(-0.369323 0.00042432 -5.96482e-21)
(-0.317854 0.00102239 0)
(-0.301252 -0.00380823 0)
(-0.273151 -0.00337787 0)
(-0.309301 -0.00298251 4.6289e-21)
(-0.346182 -0.00286377 0)
(-0.329259 -0.00219003 0)
(-0.311147 -0.00127609 4.31901e-21)
(-0.32151 -0.000383789 0)
(-0.328506 5.25575e-05 -4.29005e-21)
(-0.307686 -0.000418857 0)
(-0.305771 0.0017258 0)
(-0.269596 0.00435099 0)
(-0.252633 0.00448749 2.57578e-21)
(-0.251659 0.00319032 0)
(-0.250496 0.00213656 -2.17972e-21)
(-0.248745 0.000883974 0)
(-0.246906 -0.00168714 0)
(-0.270544 -0.0025032 0)
(-0.270616 -0.00161786 0)
(-0.276084 -0.0016789 0)
(-0.249061 0.00127183 0)
(-0.235151 0.00296299 0)
(-0.234092 0.000360644 0)
(-0.248439 -0.00126153 0)
(-0.248534 0.00160342 0)
(-0.229291 0.00284352 0)
(-0.2281 0.000171958 1.08738e-21)
(-0.235652 0.000386549 -1.56235e-21)
(-0.22503 0.000438526 0)
(-0.230458 0.00207147 0)
(-0.221501 0.00385052 0)
(-0.219662 0.000872219 0)
(-0.255054 -0.000904414 -3.97692e-21)
(-0.26601 -0.00251786 4.87589e-21)
(-0.239494 -0.00311746 -5.17368e-21)
(-0.20465 -0.0010698 0)
(-0.201567 -0.000266304 -5.63314e-21)
(-0.197349 0.0018776 -1.22645e-20)
(-0.19853 0.00232004 0)
(-0.201828 -0.000746803 -1.38579e-20)
(-0.19443 -0.00137188 1.52324e-20)
(-0.192134 -0.00109954 0)
(-0.189172 -0.000721009 0)
(-0.185784 0.000246822 0)
(-0.181915 0.00210253 0)
(-0.182388 0.00146655 0)
(-0.180046 0.00127766 -2.18616e-20)
(-0.203547 0.0035715 0)
(-0.182345 0.0023245 -2.29465e-20)
(-0.180622 0.000647861 0)
(-0.176797 -0.000174786 0)
(-0.173875 -0.000905021 0)
(-0.169493 -0.00096562 0)
(-0.166775 -0.00032511 0)
(-0.163745 0.000336022 3.45949e-20)
(-0.16335 0.00138642 0)
(-0.164399 0.0019219 0)
(-0.16595 0.00174839 -3.61339e-20)
(-0.166143 0.00113343 0)
(-0.164331 0.000514027 0)
(-0.159872 -0.00010497 0)
(-0.152654 -0.000255757 4.75806e-20)
(-0.143278 3.45904e-05 0)
(-0.133043 0.000466205 0)
(-0.122865 0.000856214 0)
(-0.113478 0.00103376 0)
(-0.105516 0.00101657 -7.90084e-20)
(-0.0987251 0.000904965 0)
(-0.0932065 0.000780794 0)
(-0.0879389 0.000772211 0)
(-0.0829811 0.000906028 1.06283e-19)
(-0.0752297 0.00116509 0)
(-0.0706956 0.00187468 0)
(-0.0420754 0.00160839 -1.49096e-19)
(-0.0728565 0.00104517 1.20371e-35)
(-0.106819 0.00636617 1.29273e-17)
(-0.129989 0.0106934 2.33224e-17)
(-0.142276 0.0132474 2.20078e-17)
(-0.149705 0.0146554 2.11981e-17)
(-0.155449 0.0155448 2.05272e-17)
(-0.160096 0.0161683 -1.99473e-17)
(-0.163762 0.0166408 -1.94117e-17)
(-0.166911 0.0170038 -6.01853e-36)
(-0.169891 0.0173162 -3.68331e-17)
(-0.172974 0.0176107 -1.7917e-17)
(-0.176265 0.0179169 2.58797e-34)
(-0.179927 0.0182468 0)
(-0.184082 0.018621 -3.23636e-17)
(-0.188708 0.019042 -3.0968e-17)
(-0.193969 0.0195193 -2.94029e-17)
(-0.199781 0.0200552 -2.40741e-35)
(-0.206367 0.0206549 5.14196e-17)
(-0.213747 0.0213366 2.35093e-17)
(-0.221875 0.0220821 2.40741e-35)
(-0.231699 0.0229821 -3.64677e-17)
(-0.240887 0.0238545 -1.1955e-20)
(-0.256702 0.0252258 -3.00927e-36)
(-0.261251 0.0260276 1.36554e-17)
(-0.29171 0.0279231 -7.65691e-18)
)
;
    }
    lowerWall
    {
        type            calculated;
        value           nonuniform List<vector> 
250
(
(-0.621118 0.0517061 0)
(-0.633272 0.0587742 0)
(-0.606849 0.0352142 0)
(-0.746135 0.0153917 0)
(-0.655081 0.000386234 0)
(-0.614062 0.00569604 0)
(-0.563839 0.000314702 0)
(-0.526414 -0.00043879 0)
(-0.49784 0.000224663 0)
(-0.490629 0.00170323 0)
(-0.61335 -0.00286159 0)
(-0.568846 -0.0139913 0)
(-0.504659 -0.00782346 0)
(-0.509579 0.000795319 0)
(-0.494333 0.00308369 0)
(-0.499958 0.00464453 0)
(-0.458555 0.00307079 0)
(-0.62097 0.00493138 0)
(0.0028772 -0.00707551 0)
(0.00293518 -0.0108885 0)
(0.00298791 -0.0145188 0)
(0.00301301 -0.0179359 6.8944e-20)
(0.00296626 -0.0209488 -6.14016e-20)
(0.0031699 -0.0235776 5.49573e-20)
(0.00399506 -0.023189 -4.99743e-20)
(0.0105616 -0.040974 0)
(-0.060063 -0.154117 0)
(0.000215629 -0.000258607 0)
(7.48603e-05 -0.00076854 0)
(2.02857e-05 -0.000902733 0)
(6.67922e-05 -0.000956323 0)
(-8.9094e-06 -0.000766529 1.53816e-19)
(-0.000343189 0.000161883 -1.35404e-19)
(-0.00101086 0.00242343 0)
(-0.00163195 0.00604016 -1.41105e-19)
(-0.00176126 0.00989799 1.11675e-19)
(-0.00139436 0.0129745 0)
(-0.000780824 0.0147741 0)
(-0.000143608 0.01518 0)
(0.00039071 0.0143119 0)
(0.00086582 0.0125388 0)
(0.00134983 0.0098639 0)
(0.00185958 0.00636518 0)
(0.00239456 0.0021776 0)
(0.00277618 -0.00256645 0)
(-0.000133764 -0.000264856 0)
(0.000167905 -0.00042487 0)
(0.000465083 -0.0004639 0)
(0.000755933 -0.00038309 0)
(0.000961566 -0.000157169 -0)
(0.000956884 0.000185517 -0)
(0.00069582 0.000569362 1.54453e-20)
(0.000214787 0.000894366 -1.73223e-20)
(-0.000404101 0.00108662 -0)
(-0.00106942 0.0011265 -1.06684e-20)
(-0.00170934 0.00103247 -0)
(-0.0022638 0.000836301 0)
(-0.00269413 0.000574189 -0)
(-0.0029792 0.000277534 6.36888e-21)
(-0.00311202 -3.34444e-05 0)
(-0.00308157 -0.000333601 0)
(-0.00289473 -0.000589369 -6.49822e-21)
(-0.00257641 -0.000770831 -0)
(-0.00216101 -0.000855032 0)
(-0.001694 -0.000828936 -0)
(-0.00123039 -0.000696983 1.03003e-20)
(-0.000825855 -0.000486468 0)
(-0.00052089 -0.000242284 1.51059e-20)
(-0.000330781 -6.7551e-06 0)
(-0.000254078 0.000209077 0)
(-0.000305165 0.000390884 1.95837e-20)
(-0.000461818 0.00054334 0)
(-0.00072744 0.000681175 -1.39766e-20)
(-0.0010983 0.000775492 0)
(-0.00151302 0.000768416 9.81962e-21)
(-0.00186704 0.000657059 0)
(-0.00209998 0.000507417 0)
(-0.00219732 0.000405642 0)
(-0.0022225 0.000428997 0)
(-0.00223365 0.000528525 0)
(-0.0022109 0.000546157 -7.77301e-21)
(-0.00198043 0.000242431 0)
(-0.00132632 -0.000425531 1.97284e-20)
(-4.74547e-05 -0.00110654 0)
(0.00160577 -0.00181598 -9.77295e-21)
(0.00349899 -0.00260864 0)
(0.00572361 -0.00337101 0)
(0.00825063 -0.00395275 3.92694e-21)
(0.010934 -0.00409612 0)
(0.0135372 -0.00400534 2.97101e-21)
(0.0163607 -0.00403763 -2.67209e-21)
(0.0189233 -0.00394984 -0)
(0.0206639 -0.00365701 -2.11166e-21)
(0.0228008 -0.00360122 -1.94652e-21)
(0.0248885 -0.00329527 -0)
(0.0282834 -0.00303776 0)
(0.0292479 -0.00290105 0)
(0.0313494 -0.00273312 0)
(0.0336759 -0.00248143 -0)
(0.0359384 -0.00215745 1.74664e-21)
(0.034145 -0.00165945 0)
(0.0358901 -0.00155756 -1.57386e-21)
(0.0372377 -0.00141119 -0)
(0.0385349 -0.00130289 -0)
(0.0397798 -0.00120841 1.54082e-21)
(0.0409532 -0.00112459 0)
(0.0420995 -0.00105327 -1.52549e-21)
(0.0431823 -0.000991106 -0)
(0.0442482 -0.000937491 0)
(0.0452689 -0.000890509 -0)
(0.0462724 -0.000849524 1.50045e-21)
(0.0472461 -0.000813121 0)
(0.0482026 -0.000780653 -0)
(0.049138 -0.000751329 1.48329e-21)
(0.0500576 -0.000724721 0)
(0.050961 -0.00070016 1.47168e-21)
(0.0518501 -0.000677288 0)
(0.0527252 -0.000655625 0)
(0.0535868 -0.000635065 0)
(0.0544355 -0.000615138 -1.44662e-21)
(0.0552708 -0.000595761 -0)
(0.0560931 -0.00057663 0)
(0.0569017 -0.00055762 -1.42543e-21)
(0.0576961 -0.000538484 -1.41781e-21)
(0.058476 -0.000519156 -0)
(0.0592401 -0.000499398 -1.40161e-21)
(0.0599881 -0.000479082 0)
(0.0607181 -0.00045807 -2.76799e-21)
(0.0614301 -0.000436135 -0)
(0.0621214 -0.000413197 -2.72971e-21)
(0.0627924 -0.000388883 -0)
(0.0634394 -0.00036314 2.68804e-21)
(0.0640628 -0.000335339 0)
(0.0646578 -0.000305389 0)
(0.0652247 -0.000273436 0)
(0.065761 -0.000239048 -2.59316e-21)
(0.066265 -0.000202267 -0)
(0.0667345 -0.000163549 2.5399e-21)
(0.0671679 -0.000124026 0)
(0.0675635 -8.58584e-05 -2.48322e-21)
(0.0679231 -5.13012e-05 -2.45317e-21)
(0.0682475 -2.13087e-05 -2.42143e-21)
(0.0685383 6.91429e-06 0)
(0.0687947 3.50131e-05 0)
(0.0690169 6.34642e-05 0)
(0.0692028 9.21679e-05 0)
(0.0693524 0.000121367 0)
(0.0694641 0.000150741 0)
(0.0695377 0.000180568 0)
(0.0695718 0.00021052 0)
(0.0695662 0.00024075 2.05805e-21)
(0.0695198 0.000271037 2.00761e-21)
(0.0694321 0.000301365 0)
(0.0693029 0.000331643 0)
(0.0691313 0.000361792 0)
(0.0689178 0.000391789 1.7824e-21)
(0.068661 0.000421486 0)
(0.068362 0.000450865 0)
(0.0680199 0.000479752 0)
(0.0676356 0.000508351 0)
(0.0672079 0.000536256 -1.44365e-21)
(0.0667388 0.000563801 0)
(0.0662265 0.00059056 0)
(0.0656734 0.00061687 1.20769e-21)
(0.0650781 0.000642378 -1.12335e-21)
(0.0644426 0.00066749 0)
(0.0637653 0.000691725 -9.45926e-22)
(0.0630489 0.000715487 0)
(0.0622919 0.000738472 7.56533e-22)
(0.0614961 0.000761019 0)
(0.0606609 0.000782828 0)
(0.0597874 0.00080423 0)
(0.0588748 0.000824955 0)
(0.0579244 0.00084528 0)
(0.0569377 0.000865116 -2.22017e-22)
(0.055918 0.000884467 1.79224e-23)
(0.0548642 0.00090338 0)
(0.053777 0.000921829 0)
(0.0526584 0.000940291 0)
(0.0514919 0.000957694 -1.06056e-21)
(0.0503103 0.00097519 0)
(0.0490759 0.000991896 0)
(0.0478241 0.0010081 0)
(0.0465349 0.00102401 -2.25867e-21)
(0.0452198 0.00103947 2.58684e-21)
(0.0438751 0.00105439 0)
(0.0425051 0.00106892 0)
(0.0411083 0.00108259 3.65275e-21)
(0.0396875 0.00109553 4.03846e-21)
(0.0382405 0.00110754 0)
(0.0367721 0.00111906 0)
(0.0352829 0.00112971 -5.302e-21)
(0.0337753 0.0011399 5.76338e-21)
(0.032251 0.00114938 0)
(0.0307126 0.00115847 0)
(0.0291613 0.00116718 7.29134e-21)
(0.0275983 0.00117558 0)
(0.0260248 0.00118354 0)
(0.0244427 0.00119115 9.08338e-21)
(0.0228531 0.00119844 0)
(0.0212578 0.00120553 1.04662e-20)
(0.0196579 0.00121245 0)
(0.0180546 0.00121935 0)
(0.0164492 0.00122634 0)
(0.0148426 0.00123352 -1.38517e-20)
(0.013236 0.00124104 0)
(0.01163 0.001249 0)
(0.0100257 0.00125759 0)
(0.00842367 0.00126708 0)
(0.00682455 0.00127832 0)
(0.00522845 0.00129211 0)
(0.00363554 0.00130802 -2.33247e-20)
(0.00204615 0.0013243 -2.53343e-20)
(0.0004609 0.00133343 0)
(-0.00112026 0.0013157 0)
(-0.00269521 0.0012775 0)
(-0.0042602 0.00123752 2.44949e-20)
(-0.00581252 0.00119741 0)
(-0.00734646 0.00115549 -4.48931e-20)
(-0.00885452 0.00110838 4.319e-20)
(-0.0103166 0.00105229 4.16945e-20)
(-0.0117254 0.000970601 -4.04135e-20)
(-0.0129351 0.000863201 3.93825e-20)
(-0.0142137 0.000640054 -3.87169e-20)
(-0.0137818 0.000136273 0)
(-0.0161914 0.000343484 -2.39369e-18)
(-0.0199077 -0.00012199 -2.22892e-18)
(-0.0236097 -0.000606775 -3.00927e-36)
(-0.0271113 -0.00102979 -3.94222e-18)
(-0.030678 -0.00143766 -7.45382e-18)
(-0.0344085 -0.00184737 -3.53101e-18)
(-0.0383147 -0.00226329 3.34926e-18)
(-0.0424235 -0.00269283 1.20371e-35)
(-0.0467721 -0.00314248 -3.00927e-36)
(-0.0513886 -0.00361737 2.87282e-18)
(-0.0562997 -0.00412137 2.73015e-18)
(-0.0615409 -0.00465897 3.00927e-36)
(-0.0671487 -0.0052338 0)
(-0.0731615 -0.00585079 0)
(-0.0796507 -0.00651541 -5.83986e-35)
(-0.0866064 -0.00723095 9.92117e-36)
(-0.0942685 -0.0080104 1.20371e-34)
(-0.102338 -0.00884776 -3.58187e-18)
(-0.111682 -0.00977494 -3.29325e-18)
(-0.120985 -0.0107743 1.20371e-35)
(-0.132944 -0.0118635 5.27051e-18)
(-0.143425 -0.0131493 8.8938e-18)
(-0.160897 -0.0143519 0)
(-0.169196 -0.0161717 -4.38371e-18)
(-0.205204 -0.0171829 -1.20371e-35)
)
;
    }
    frontAndBack
    {
        type            empty;
    }
}


// ************************************************************************* //
