/*--------------------------------*- C++ -*----------------------------------*\
  =========                 |
  \\      /  F ield         | OpenFOAM: The Open Source CFD Toolbox
   \\    /   O peration     | Website:  https://openfoam.org
    \\  /    A nd           | Version:  8
     \\/     M anipulation  |
\*---------------------------------------------------------------------------*/
FoamFile
{
    version     2.0;
    format      ascii;
    class       volScalarField;
    location    "1400";
    object      k;
}
// * * * * * * * * * * * * * * * * * * * * * * * * * * * * * * * * * * * * * //

dimensions      [0 2 -2 0 0 0 0];

internalField   nonuniform List<scalar> 
12225
(
0.490047
2.03039
2.08479
1.8845
1.81818
1.73706
1.69034
1.84296
1.39361
2.43606
2.43743
2.9191
3.19465
3.09937
2.4421
1.76651
1.48635
2.59283
0.381857
0.437864
0.522503
0.552794
0.568213
0.618237
0.661952
0.678391
0.681661
0.724656
0.734808
0.782915
0.831006
0.853631
0.872291
0.885284
0.894292
0.931565
0.373236
0.372169
0.386301
0.386849
0.379045
0.375513
0.372596
0.367795
0.362461
0.359548
0.361439
0.364534
0.367566
0.368593
0.370838
0.376357
0.378712
0.38439
0.374115
0.370635
0.370317
0.369219
0.366996
0.363148
0.359449
0.355316
0.351983
0.34807
0.344871
0.340964
0.337671
0.333709
0.330342
0.326978
0.323906
0.321012
0.374117
0.371114
0.369072
0.367354
0.36566
0.363158
0.360813
0.358031
0.355589
0.352719
0.35019
0.347177
0.344533
0.341411
0.338705
0.335621
0.333019
0.330072
0.37399
0.371469
0.369265
0.367268
0.365534
0.363531
0.361661
0.359552
0.357596
0.355423
0.353436
0.351232
0.349226
0.34699
0.344977
0.342741
0.340786
0.338606
0.3739
0.371585
0.369432
0.367376
0.365549
0.363701
0.361981
0.360181
0.358474
0.356686
0.355007
0.353254
0.351617
0.349892
0.348291
0.346594
0.345049
0.343399
0.373861
0.371599
0.369475
0.36743
0.365557
0.363738
0.362041
0.360349
0.358738
0.357117
0.355579
0.354031
0.352567
0.35108
0.349679
0.348243
0.34691
0.345526
0.373846
0.371585
0.369467
0.367435
0.365541
0.363727
0.362027
0.360377
0.358808
0.35727
0.355806
0.354368
0.353
0.351645
0.35036
0.349075
0.347866
0.346644
0.373837
0.371577
0.369451
0.367424
0.365516
0.363699
0.361987
0.360348
0.358792
0.357293
0.355866
0.354486
0.353173
0.351897
0.350682
0.349492
0.348364
0.347251
0.373834
0.371568
0.369431
0.367404
0.365486
0.363663
0.361939
0.360298
0.35874
0.357251
0.355835
0.354479
0.353188
0.351948
0.350766
0.349626
0.348539
0.347488
0.37383
0.371562
0.369418
0.367385
0.365459
0.363631
0.361898
0.36025
0.358685
0.357194
0.355775
0.354423
0.353135
0.351905
0.350732
0.349609
0.348537
0.347511
0.373829
0.371558
0.369408
0.36737
0.365438
0.363605
0.361864
0.360211
0.358638
0.357143
0.355718
0.354363
0.353071
0.351839
0.350663
0.349543
0.348472
0.347451
0.373827
0.371554
0.3694
0.367359
0.365423
0.363584
0.361839
0.36018
0.358603
0.357101
0.355673
0.354312
0.353015
0.351779
0.3506
0.349475
0.348402
0.347378
0.373826
0.371552
0.369395
0.367351
0.365411
0.36357
0.36182
0.360157
0.358576
0.357071
0.355638
0.354273
0.352972
0.351733
0.35055
0.349422
0.348345
0.347318
0.373825
0.37155
0.369392
0.367345
0.365403
0.363559
0.361807
0.360141
0.358557
0.357049
0.355613
0.354245
0.352942
0.351699
0.350514
0.349383
0.348304
0.347274
0.373825
0.371549
0.36939
0.367342
0.365399
0.363553
0.361799
0.360131
0.358545
0.357035
0.355597
0.354227
0.352922
0.351677
0.35049
0.349358
0.348277
0.347245
0.373825
0.37155
0.36939
0.367342
0.365397
0.363551
0.361795
0.360128
0.35854
0.35703
0.355591
0.354221
0.352914
0.351669
0.35048
0.349347
0.348265
0.347233
0.373825
0.37155
0.369392
0.367343
0.3654
0.363553
0.361799
0.36013
0.358543
0.357032
0.355594
0.354223
0.352917
0.351671
0.350484
0.34935
0.348268
0.347235
0.373826
0.371551
0.369394
0.367347
0.365404
0.363559
0.361805
0.360138
0.358552
0.357043
0.355605
0.354236
0.35293
0.351685
0.350498
0.349365
0.348284
0.347252
0.373826
0.371553
0.369397
0.367352
0.365411
0.363568
0.361817
0.360152
0.358568
0.35706
0.355625
0.354257
0.352953
0.351709
0.350523
0.34939
0.348309
0.347277
0.373827
0.371555
0.369402
0.36736
0.365422
0.363582
0.361835
0.360173
0.358593
0.357089
0.355655
0.354289
0.352984
0.351739
0.350548
0.349409
0.348321
0.34728
0.373827
0.371561
0.36941
0.367374
0.36544
0.363608
0.361866
0.360212
0.358637
0.357135
0.355699
0.354326
0.353005
0.351738
0.350517
0.349345
0.34822
0.347142
0.373829
0.371568
0.369425
0.367404
0.365484
0.363672
0.361943
0.360302
0.358726
0.357211
0.355745
0.354325
0.352934
0.351583
0.350259
0.348977
0.347738
0.346545
0.373832
0.371586
0.369483
0.367522
0.36565
0.36389
0.362183
0.360543
0.358934
0.357334
0.355757
0.354176
0.352591
0.351022
0.349443
0.347901
0.346397
0.344942
0.373853
0.371667
0.369784
0.368047
0.366322
0.364673
0.362963
0.361262
0.359507
0.357646
0.355803
0.353826
0.351828
0.349787
0.347671
0.34562
0.343567
0.341609
0.374027
0.37226
0.371284
0.370275
0.368939
0.367515
0.365759
0.363873
0.361708
0.359257
0.356853
0.354009
0.351283
0.348311
0.345273
0.342357
0.339358
0.336568
0.37573
0.376865
0.378858
0.380898
0.381018
0.380754
0.379479
0.377413
0.374587
0.371559
0.368505
0.365009
0.36204
0.35849
0.355784
0.352552
0.350322
0.347527
0.394811
0.411844
0.436689
0.459603
0.477238
0.492437
0.503195
0.513387
0.522144
0.530983
0.540395
0.54941
0.560611
0.570878
0.583608
0.594556
0.607045
0.616225
0.743124
1.09164
1.34085
1.48289
1.55526
1.57063
1.56405
1.5462
1.51607
1.4831
1.45013
1.41848
1.38902
1.36196
1.33743
1.31528
1.29522
1.2774
1.8251e-08
4.49053e-07
2.29335e-06
9.04964e-06
3.02693e-05
9.23018e-05
0.000241067
0.00047932
0.000777099
0.00109061
0.00137254
0.00159124
0.00173781
0.00179338
0.00177121
0.00170035
0.00156513
0.0013388
0.00114241
0.000973293
0.000812173
0.000655433
0.000503055
0.000361679
0.000235478
0.000137713
7.29837e-05
3.67211e-05
1.87021e-05
1.01985e-05
6.19138e-06
4.75312e-06
5.24265e-06
1.17057e-05
2.62318e-05
0.000158491
0.000358219
0.000776874
0.00116147
0.00126231
0.00116161
0.000937656
0.000785745
0.000769493
0.000831918
0.00111462
0.00149291
0.00308026
0.00698015
0.0212174
0.0528067
0.0866344
0.0998997
0.0821995
0.102942
0.124305
0.125008
0.157352
0.170519
0.146773
0.161976
0.175809
0.157839
0.174353
0.182238
0.190926
0.199508
0.207756
0.2159
0.223876
0.231728
0.239471
0.247103
0.254652
0.262105
0.269485
0.27678
0.284004
0.291149
0.298221
0.305215
0.312133
0.318968
0.325725
0.33239
0.33897
0.345449
0.351833
0.358105
0.36427
0.37031
0.376218
0.381983
0.387595
0.393039
0.398309
0.403394
0.408298
0.413031
0.417636
0.422184
0.426539
0.43076
0.434831
0.438747
0.442512
0.446114
0.449557
0.452831
0.455938
0.458872
0.461632
0.464215
0.46662
0.468843
0.470885
0.472744
0.474418
0.475909
0.477214
0.478338
0.479275
0.480034
0.480608
0.481013
0.481244
0.481326
0.481308
0.480895
0.480658
0.479749
0.47915
0.477973
0.476981
0.475846
0.474522
0.473053
0.471308
0.469469
0.467463
0.465352
0.463117
0.460779
0.458326
0.455776
0.453124
0.450383
0.447558
0.444663
0.44169
0.438669
0.435557
0.43242
0.429219
0.425977
0.42272
0.419427
0.416139
0.412849
0.40957
0.4063
0.403049
0.399812
0.3966
0.393407
0.390247
0.387118
0.384035
0.380995
0.37801
0.37507
0.372177
0.369312
0.36645
0.363539
0.360497
0.357194
0.353322
0.348259
0.332439
7.88815e-08
2.21425e-06
1.50715e-05
6.58036e-05
0.00024393
0.000737929
0.00171894
0.00312621
0.00476214
0.00644376
0.0079813
0.00924679
0.0101775
0.0107759
0.0110521
0.0110163
0.0108321
0.0104896
0.00989566
0.00908129
0.00804675
0.00685071
0.00553664
0.00421413
0.00292364
0.0019351
0.0012266
0.00075752
0.000459099
0.00028044
0.000179054
0.000134802
0.000100295
0.000178936
0.000240598
0.00165156
0.00361932
0.00733858
0.0105396
0.0122833
0.0122368
0.0118324
0.0118757
0.0132335
0.0169699
0.022713
0.0333503
0.0518265
0.0777808
0.102902
0.127686
0.147032
0.162291
0.173931
0.189618
0.204838
0.221187
0.238846
0.25872
0.275366
0.295611
0.31472
0.334103
0.353781
0.373335
0.392266
0.411152
0.429652
0.448002
0.466124
0.484101
0.501931
0.519648
0.537262
0.554792
0.572242
0.589621
0.606931
0.624175
0.64135
0.658454
0.675483
0.692431
0.709292
0.726058
0.742721
0.759268
0.775694
0.791983
0.80813
0.824115
0.839919
0.855523
0.870903
0.886035
0.900889
0.915435
0.929639
0.943463
0.956867
0.969832
0.982601
0.995064
1.00727
1.01917
1.03078
1.04208
1.05306
1.0637
1.07399
1.08393
1.0935
1.1027
1.11151
1.11993
1.12795
1.13555
1.14275
1.14951
1.15585
1.16175
1.16722
1.17224
1.17682
1.18094
1.18462
1.18786
1.19065
1.19298
1.19491
1.19633
1.19733
1.19778
1.19802
1.19801
1.1975
1.19691
1.19604
1.19475
1.19307
1.19102
1.18862
1.18588
1.1828
1.17939
1.17566
1.17163
1.1673
1.1627
1.15785
1.15273
1.14737
1.14178
1.13596
1.12996
1.12375
1.1174
1.11091
1.1043
1.0976
1.0908
1.08393
1.07698
1.06997
1.0629
1.05578
1.04863
1.04145
1.03426
1.02708
1.01989
1.0127
1.00549
0.998198
0.99076
0.983056
0.974864
0.965875
0.954134
0.927437
2.15223e-07
6.45608e-06
4.94042e-05
0.0002378
0.000713807
0.00200852
0.00407837
0.00648697
0.00890368
0.011095
0.0129252
0.014334
0.0153217
0.0159135
0.0161666
0.0161302
0.015942
0.0155794
0.0150387
0.0143653
0.0135522
0.0125948
0.0114718
0.0101905
0.00876099
0.00713636
0.00545465
0.00395107
0.0026463
0.00175623
0.00120268
0.000906775
0.000679238
0.00101114
0.00170241
0.00695245
0.0148015
0.0234468
0.0297539
0.0333611
0.0347734
0.037493
0.0454368
0.0612513
0.0789054
0.0975618
0.118588
0.140051
0.160187
0.181498
0.202238
0.22309
0.244273
0.268579
0.295742
0.324354
0.354227
0.383517
0.41262
0.44112
0.469653
0.497422
0.524695
0.551267
0.577317
0.60278
0.627813
0.652438
0.676741
0.70076
0.724552
0.748148
0.771581
0.794873
0.818039
0.841092
0.864039
0.886881
0.909619
0.932252
0.954773
0.977179
0.99946
1.02161
1.04361
1.06546
1.08715
1.10866
1.12998
1.15109
1.172
1.19266
1.21308
1.23324
1.25311
1.27269
1.29196
1.31092
1.32956
1.34787
1.36587
1.38352
1.40081
1.41772
1.43423
1.45033
1.466
1.48122
1.49599
1.51028
1.52408
1.53738
1.55016
1.56242
1.57414
1.58531
1.59592
1.60596
1.61543
1.62431
1.6326
1.6403
1.64739
1.65388
1.65976
1.66503
1.66969
1.67375
1.67719
1.68003
1.68225
1.68389
1.68484
1.68531
1.68544
1.68497
1.68396
1.68243
1.68035
1.67774
1.67463
1.67102
1.66692
1.66236
1.65735
1.65189
1.646
1.63971
1.63303
1.62599
1.61858
1.61084
1.60277
1.59438
1.58571
1.57676
1.56759
1.5582
1.54862
1.53888
1.529
1.519
1.50887
1.49864
1.48832
1.47791
1.46743
1.4569
1.44635
1.43579
1.42523
1.41467
1.4041
1.39348
1.38277
1.37189
1.36063
1.34877
1.33437
1.30946
7.90479e-07
2.37411e-05
0.000186409
0.000803052
0.00225965
0.00535042
0.008999
0.0125554
0.0156462
0.0180909
0.0198552
0.020976
0.0215667
0.0216768
0.021545
0.0211892
0.0206219
0.0199388
0.0191717
0.0183359
0.0174332
0.0164599
0.0153986
0.0142287
0.0129331
0.0114903
0.00991806
0.00827612
0.00673519
0.00520573
0.00410218
0.00302176
0.00313767
0.00481966
0.0119337
0.0269327
0.0415927
0.0531843
0.062
0.0702906
0.0806464
0.0940808
0.109723
0.125285
0.14154
0.159192
0.17965
0.201271
0.224839
0.250628
0.278043
0.307404
0.338394
0.371111
0.404839
0.438988
0.473276
0.507182
0.54069
0.573706
0.606216
0.638042
0.669297
0.699946
0.730078
0.759734
0.788998
0.817918
0.846555
0.874954
0.903155
0.931191
0.959085
0.986858
1.01452
1.04208
1.06953
1.09689
1.12414
1.15127
1.17829
1.20517
1.23192
1.25851
1.28494
1.31118
1.33724
1.36308
1.38871
1.41411
1.43925
1.46414
1.48874
1.51305
1.53706
1.56074
1.58409
1.6071
1.62974
1.65201
1.67388
1.69532
1.71632
1.73685
1.7569
1.77644
1.79545
1.81391
1.83181
1.84912
1.86584
1.88194
1.89742
1.91224
1.92641
1.93991
1.95273
1.96485
1.97626
1.98697
1.99695
2.00621
2.01474
2.02253
2.02958
2.03589
2.04146
2.04628
2.05037
2.05371
2.05631
2.0582
2.05925
2.05969
2.05967
2.05886
2.05737
2.05521
2.05241
2.04896
2.0449
2.04023
2.03497
2.02914
2.02275
2.01582
2.00837
2.00042
1.992
1.98312
1.9738
1.96407
1.95393
1.94341
1.93252
1.9213
1.90978
1.89799
1.88596
1.87371
1.86127
1.84867
1.83592
1.82302
1.81
1.79686
1.78364
1.77035
1.75701
1.74366
1.73031
1.71698
1.70366
1.69034
1.677
1.66361
1.65004
1.63612
1.6202
1.59704
2.71427e-06
8.14655e-05
0.000611057
0.00231601
0.00637893
0.0118484
0.0169407
0.0210119
0.0239025
0.0257081
0.0266444
0.0269062
0.0267574
0.0263171
0.0256109
0.0247782
0.0238738
0.0229349
0.0219841
0.0210294
0.0200669
0.0190868
0.0180703
0.0169952
0.0158357
0.0145637
0.0131764
0.0117224
0.0103019
0.00885692
0.00739357
0.00774979
0.0116542
0.024183
0.0451011
0.0650511
0.0815766
0.0944384
0.105318
0.116071
0.127608
0.140179
0.153814
0.169507
0.188391
0.210126
0.234658
0.26174
0.291088
0.322397
0.355232
0.389377
0.424482
0.460334
0.496578
0.532964
0.569333
0.605495
0.641382
0.676934
0.712105
0.746831
0.78114
0.815037
0.848565
0.88176
0.91467
0.947336
0.979799
1.01209
1.04425
1.0763
1.10825
1.14012
1.1719
1.20361
1.23524
1.26679
1.29823
1.32957
1.36079
1.39187
1.42281
1.45358
1.48417
1.51456
1.54474
1.57469
1.6044
1.63384
1.66301
1.69189
1.72045
1.74868
1.77657
1.80409
1.83124
1.85797
1.88429
1.91015
1.93554
1.96043
1.9848
2.00862
2.03187
2.05452
2.07656
2.09796
2.11869
2.13875
2.1581
2.17673
2.19463
2.21177
2.22815
2.24373
2.25852
2.2725
2.28566
2.29798
2.30947
2.32011
2.3299
2.33882
2.34689
2.35409
2.36043
2.3659
2.37051
2.37425
2.37714
2.37917
2.38026
2.38064
2.38036
2.3792
2.37724
2.3745
2.37101
2.36678
2.36182
2.35616
2.34982
2.3428
2.33514
2.32685
2.31795
2.30847
2.29844
2.28786
2.27678
2.26521
2.25317
2.24067
2.22775
2.21444
2.20076
2.18676
2.17247
2.15792
2.14314
2.12815
2.11297
2.09763
2.08213
2.06649
2.05074
2.03491
2.01902
2.00311
1.98721
1.97133
1.95549
1.93971
1.92399
1.90833
1.89266
1.87688
1.85961
1.83701
8.67206e-06
0.00025379
0.00180588
0.00639523
0.0143546
0.0213392
0.0263026
0.029356
0.0309496
0.0315417
0.0314665
0.0310264
0.0301947
0.0291792
0.0280663
0.0269195
0.0257833
0.0246837
0.0236333
0.022631
0.0216666
0.0207237
0.0197775
0.0187973
0.0177553
0.0165896
0.0152444
0.013679
0.012139
0.0120217
0.014162
0.0226334
0.0409153
0.0654318
0.088792
0.107612
0.121344
0.131407
0.140179
0.149462
0.160193
0.173844
0.19089
0.211217
0.235031
0.261864
0.291195
0.322503
0.355343
0.389424
0.424464
0.460274
0.496686
0.533576
0.570804
0.608259
0.645855
0.683489
0.72109
0.758588
0.795937
0.833093
0.870048
0.906798
0.943356
0.979739
1.01598
1.05209
1.08811
1.12405
1.15995
1.19581
1.23163
1.26744
1.30321
1.33895
1.37465
1.41028
1.44584
1.4813
1.51666
1.55188
1.58695
1.62185
1.65656
1.69106
1.72533
1.75934
1.79309
1.82654
1.85969
1.89251
1.92499
1.95709
1.9888
2.02009
2.05094
2.08133
2.11123
2.14061
2.16944
2.1977
2.22536
2.2524
2.27878
2.30448
2.32947
2.35373
2.37724
2.39996
2.42188
2.44298
2.46324
2.48263
2.50115
2.51876
2.53547
2.55125
2.56609
2.57998
2.59291
2.60488
2.61587
2.62589
2.63492
2.64297
2.65003
2.6561
2.66119
2.6653
2.66843
2.67058
2.67166
2.67195
2.67139
2.66987
2.66744
2.66413
2.65995
2.65494
2.6491
2.64246
2.63505
2.62687
2.61796
2.60834
2.59802
2.58705
2.57543
2.56321
2.5504
2.53704
2.52314
2.50872
2.49382
2.47847
2.46271
2.44657
2.43008
2.4133
2.39624
2.37894
2.36143
2.34371
2.32582
2.30776
2.28957
2.27128
2.25293
2.23455
2.21618
2.19785
2.17959
2.16143
2.14339
2.12552
2.10779
2.09013
2.07136
2.04841
2.7942e-05
0.000764472
0.00491687
0.0149865
0.0245227
0.0306054
0.0339467
0.0355182
0.0359607
0.0357164
0.0349698
0.0338304
0.0324927
0.0310622
0.0296211
0.0282268
0.0269164
0.0257064
0.0245989
0.0235821
0.0226376
0.0217365
0.0208445
0.019914
0.0189788
0.0181202
0.0175013
0.0175705
0.0194699
0.0254612
0.0386314
0.0606408
0.0854463
0.108513
0.126974
0.139823
0.148648
0.156013
0.164037
0.174941
0.189449
0.207626
0.229505
0.254717
0.282808
0.313061
0.344908
0.377964
0.411984
0.446818
0.482349
0.518504
0.555228
0.592476
0.630197
0.668336
0.70683
0.7456
0.784583
0.823717
0.862949
0.902236
0.941548
0.980869
1.02019
1.05952
1.09886
1.13823
1.17763
1.21709
1.2566
1.29617
1.33581
1.3755
1.41524
1.455
1.49476
1.5345
1.5742
1.61383
1.65335
1.69276
1.73202
1.7711
1.80998
1.84864
1.88705
1.92518
1.96302
2.00053
2.03771
2.07453
2.11095
2.14695
2.18252
2.21761
2.25221
2.28628
2.31979
2.35271
2.38502
2.41668
2.44766
2.47793
2.50746
2.53623
2.5642
2.59134
2.61762
2.64303
2.66753
2.6911
2.71372
2.73536
2.75602
2.77566
2.79427
2.81184
2.82835
2.8438
2.85816
2.87143
2.88361
2.89469
2.90467
2.91354
2.9213
2.92795
2.93348
2.93792
2.94127
2.9435
2.94456
2.94473
2.94388
2.94197
2.93905
2.93514
2.93026
2.92444
2.9177
2.91007
2.90157
2.89221
2.88204
2.87106
2.85932
2.84683
2.83363
2.81975
2.80521
2.79005
2.77429
2.75795
2.74108
2.72369
2.70584
2.68757
2.66892
2.64991
2.6306
2.61101
2.59117
2.57111
2.55084
2.53038
2.50977
2.48905
2.46826
2.44743
2.42662
2.40587
2.38521
2.36468
2.34434
2.32424
2.30439
2.28475
2.26428
2.24033
8.43998e-05
0.00211285
0.0116754
0.0252415
0.0335349
0.0378993
0.039938
0.0405278
0.0402166
0.0392541
0.0378116
0.0361178
0.0343132
0.0325062
0.0307785
0.0291824
0.0277455
0.026472
0.0253523
0.0243644
0.0234815
0.022669
0.0218553
0.0210835
0.0205598
0.0206757
0.0224512
0.0275232
0.0386298
0.0567879
0.0790739
0.10159
0.122287
0.13893
0.150676
0.158769
0.165789
0.174393
0.186059
0.201459
0.220684
0.243444
0.269317
0.297678
0.327895
0.35941
0.391894
0.425178
0.459183
0.493874
0.529233
0.565259
0.601954
0.639317
0.677326
0.715943
0.755125
0.794817
0.834964
0.875508
0.916396
0.95758
0.999025
1.0407
1.08259
1.12469
1.16698
1.20946
1.25215
1.29504
1.33812
1.38138
1.42483
1.46843
1.51216
1.55599
1.59989
1.64382
1.68774
1.73162
1.77542
1.81911
1.86265
1.90601
1.94917
1.99209
2.03473
2.07708
2.1191
2.16077
2.20207
2.24295
2.2834
2.32339
2.36288
2.40185
2.44025
2.47807
2.51526
2.5518
2.58764
2.62275
2.6571
2.69066
2.72339
2.75527
2.78624
2.81629
2.84539
2.8735
2.90059
2.92664
2.95163
2.97553
2.99832
3.01998
3.04049
3.05984
3.078
3.09497
3.11074
3.1253
3.13863
3.15075
3.16163
3.17128
3.1797
3.18688
3.19283
3.19755
3.20107
3.20334
3.20434
3.20434
3.20316
3.20083
3.19737
3.19282
3.1872
3.18054
3.17286
3.16419
3.15456
3.14399
3.13251
3.12016
3.10695
3.09293
3.07811
3.06254
3.04625
3.02927
3.01162
2.99334
2.97447
2.95504
2.93509
2.91469
2.89385
2.87263
2.85106
2.82918
2.80702
2.7846
2.76195
2.7391
2.71608
2.69293
2.66971
2.64645
2.6232
2.60002
2.57696
2.55405
2.53138
2.50901
2.48697
2.46524
2.44287
2.41744
0.000220417
0.00500832
0.0213164
0.0344116
0.0411164
0.0442641
0.0453775
0.0452061
0.0441941
0.0425341
0.0405112
0.0383089
0.03608
0.033943
0.0319842
0.0302543
0.0287797
0.0275642
0.0266018
0.0258697
0.0253901
0.02525
0.0255319
0.0266344
0.0289694
0.0334456
0.0418746
0.055681
0.0731435
0.0925848
0.112132
0.129755
0.144208
0.155184
0.163692
0.17174
0.181429
0.194121
0.210411
0.230276
0.253374
0.27919
0.307155
0.336696
0.367348
0.398817
0.430975
0.463794
0.497286
0.53148
0.566412
0.602122
0.638639
0.675974
0.714124
0.753074
0.792796
0.833252
0.874394
0.916173
0.95854
1.00145
1.04486
1.08874
1.13306
1.1778
1.22294
1.26848
1.3144
1.3607
1.40735
1.45433
1.50162
1.54919
1.597
1.645
1.69314
1.74138
1.78965
1.83791
1.8861
1.9342
1.98214
2.02991
2.07746
2.12475
2.17174
2.21841
2.26472
2.31063
2.35613
2.40118
2.44574
2.48979
2.53328
2.57618
2.61847
2.66009
2.70102
2.74122
2.78064
2.81925
2.85701
2.89388
2.92983
2.96482
2.99881
3.03178
3.06368
3.09448
3.12415
3.15266
3.17999
3.20612
3.23101
3.25465
3.27702
3.2981
3.31787
3.33632
3.35343
3.36921
3.38364
3.39672
3.40844
3.41881
3.42781
3.43546
3.44174
3.44668
3.4503
3.45254
3.45344
3.45317
3.4516
3.44878
3.44472
3.43947
3.43304
3.42548
3.4168
3.40704
3.39623
3.38439
3.37157
3.35779
3.34308
3.32748
3.31102
3.29373
3.27565
3.25682
3.23726
3.21702
3.19612
3.17463
3.15258
3.13002
3.107
3.08356
3.05973
3.03556
3.01108
2.98631
2.96129
2.93604
2.91061
2.88504
2.85939
2.8337
2.80803
2.78243
2.75695
2.73166
2.70663
2.68194
2.65764
2.63373
2.60931
2.58213
0.000492138
0.0101305
0.0310211
0.0426501
0.048111
0.0503907
0.0507901
0.0499698
0.0482809
0.0460383
0.0434871
0.040836
0.0382607
0.0358945
0.0338326
0.0321292
0.0308172
0.0298683
0.0293506
0.0291806
0.0294824
0.0305814
0.0330495
0.0377373
0.0453951
0.0563609
0.0701723
0.0857174
0.102234
0.118477
0.133271
0.145908
0.156453
0.165672
0.175014
0.186005
0.199772
0.216751
0.236886
0.25982
0.285082
0.312175
0.340633
0.370075
0.400248
0.431044
0.462448
0.494505
0.527272
0.560819
0.595214
0.630509
0.666744
0.703951
0.742144
0.781324
0.821479
0.862582
0.904602
0.947497
0.991228
1.03575
1.08103
1.12702
1.1737
1.22104
1.26901
1.31759
1.36676
1.4165
1.46678
1.51755
1.56879
1.62043
1.67243
1.72472
1.77723
1.8299
1.88265
1.93542
1.98814
2.04077
2.09324
2.14553
2.19757
2.24934
2.30078
2.35186
2.40253
2.45277
2.50255
2.55182
2.60056
2.64871
2.69625
2.74314
2.78933
2.83479
2.87947
2.92334
2.96634
3.00844
3.04959
3.08975
3.12889
3.16697
3.20394
3.23977
3.27442
3.30785
3.34003
3.37093
3.40053
3.4288
3.45571
3.48124
3.50537
3.52808
3.54935
3.56917
3.58753
3.60442
3.61984
3.63378
3.64623
3.6572
3.66668
3.67467
3.68119
3.68624
3.68984
3.69196
3.69266
3.69202
3.68998
3.68657
3.68183
3.67579
3.66848
3.65993
3.65018
3.63925
3.62719
3.61403
3.5998
3.58453
3.56827
3.55105
3.5329
3.51386
3.49396
3.47325
3.45176
3.42952
3.40659
3.38301
3.35884
3.33414
3.30893
3.28327
3.25719
3.23073
3.20394
3.17682
3.14943
3.1218
3.09398
3.06601
3.03794
3.00984
2.98175
2.95373
2.92585
2.89816
2.87075
2.84372
2.81712
2.79096
2.76441
2.73555
0.000936557
0.017424
0.0394899
0.0501528
0.0549238
0.0566302
0.056503
0.0551223
0.0529069
0.0501843
0.0472336
0.0442941
0.0415669
0.0392048
0.037324
0.0359858
0.0353209
0.0351939
0.0357431
0.0372344
0.0399799
0.044355
0.0506669
0.0590615
0.0694835
0.081651
0.0949898
0.108716
0.122132
0.134655
0.14602
0.156349
0.166289
0.176857
0.189102
0.203764
0.221159
0.241205
0.263594
0.287934
0.313825
0.34091
0.368889
0.397559
0.426816
0.456651
0.487111
0.518275
0.550232
0.583071
0.616867
0.651688
0.687591
0.72462
0.762805
0.802163
0.842697
0.884397
0.927245
0.971213
1.01627
1.06238
1.10951
1.15762
1.20668
1.25665
1.3075
1.3592
1.41171
1.465
1.51902
1.57371
1.62902
1.68487
1.74119
1.7979
1.85491
1.91215
1.96951
2.02691
2.08428
2.14154
2.19865
2.25554
2.31218
2.36849
2.42445
2.47999
2.53507
2.58967
2.64375
2.69726
2.75018
2.80244
2.85401
2.90485
2.95492
3.00417
3.05255
3.10002
3.14653
3.19204
3.23649
3.27985
3.32207
3.36311
3.40293
3.4415
3.47876
3.51468
3.54922
3.58236
3.61407
3.64431
3.67308
3.70033
3.72605
3.75022
3.77282
3.79384
3.81327
3.8311
3.84734
3.86196
3.87498
3.88638
3.89618
3.90437
3.91095
3.91596
3.9194
3.92127
3.92162
3.92049
3.91785
3.91374
3.9082
3.90126
3.89297
3.88334
3.87242
3.86025
3.84687
3.8323
3.81659
3.79979
3.78193
3.76304
3.74317
3.72234
3.7006
3.67799
3.65453
3.63029
3.60531
3.57966
3.55338
3.52654
3.49917
3.47131
3.443
3.41429
3.3852
3.35577
3.32603
3.29605
3.26586
3.23553
3.20509
3.17461
3.14414
3.11373
3.08346
3.05339
3.02361
2.99423
2.96529
2.93685
2.90812
2.87742
0.00149706
0.0248858
0.0475672
0.0577391
0.0620457
0.0633186
0.0627803
0.0609759
0.0583764
0.0553641
0.0522634
0.0493444
0.0468344
0.0449138
0.0438024
0.0434488
0.0438555
0.0452169
0.047656
0.0513312
0.0563862
0.0629026
0.0708689
0.0801594
0.0905423
0.101643
0.113029
0.124311
0.135266
0.145824
0.156172
0.16681
0.178421
0.191641
0.206917
0.224417
0.24406
0.265609
0.288759
0.313216
0.338711
0.365032
0.392021
0.419595
0.447737
0.476493
0.505941
0.536182
0.567317
0.59944
0.632642
0.667003
0.702591
0.739466
0.777671
0.817238
0.858189
0.900529
0.944258
0.989366
1.03583
1.08362
1.13271
1.18306
1.23463
1.28738
1.34126
1.39624
1.45227
1.50928
1.56723
1.62603
1.6856
1.74583
1.80663
1.8679
1.92955
1.99146
2.05353
2.11566
2.17775
2.23972
2.30152
2.36306
2.4243
2.48518
2.54563
2.60561
2.66507
2.72397
2.78229
2.83997
2.89698
2.95326
3.00875
3.06342
3.11723
3.17011
3.22204
3.27295
3.32278
3.3715
3.41905
3.46539
3.51046
3.55424
3.59668
3.63774
3.67736
3.71552
3.75216
3.78728
3.82082
3.85278
3.88313
3.91183
3.93888
3.96424
3.98791
4.00987
4.03011
4.04863
4.06543
4.0805
4.09384
4.10545
4.11533
4.12349
4.12994
4.1347
4.13779
4.13922
4.13904
4.13727
4.13387
4.12891
4.12243
4.11448
4.10507
4.09426
4.08207
4.06856
4.05377
4.03772
4.02048
4.00207
3.98256
3.96197
3.94034
3.91772
3.89413
3.8696
3.84418
3.81794
3.79093
3.76322
3.73486
3.70592
3.67642
3.64642
3.61594
3.58502
3.55369
3.52199
3.48998
3.45771
3.42523
3.39259
3.35985
3.32706
3.29427
3.26153
3.22892
3.19651
3.1644
3.13269
3.10145
3.07073
3.03981
3.00723
0.00223519
0.0316341
0.0551127
0.0653201
0.0694653
0.0705093
0.0696849
0.0675731
0.0647522
0.0616938
0.0587742
0.0562792
0.0544137
0.0534808
0.0532903
0.0540257
0.0557799
0.0585798
0.0624628
0.0674451
0.0735181
0.0806161
0.0886243
0.0973756
0.106678
0.116336
0.126206
0.136205
0.146375
0.156915
0.168171
0.180548
0.194397
0.209941
0.227245
0.24623
0.266721
0.288506
0.311373
0.335143
0.359669
0.384849
0.410624
0.436988
0.463976
0.491664
0.520146
0.54953
0.579924
0.611433
0.644154
0.678179
0.713592
0.750464
0.788852
0.828799
0.870344
0.913515
0.958327
1.00478
1.05287
1.10258
1.15388
1.20674
1.26111
1.31694
1.37418
1.43276
1.49262
1.55368
1.61586
1.67904
1.7431
1.8079
1.87333
1.93927
2.00561
2.07223
2.13902
2.20586
2.27265
2.33929
2.40572
2.47186
2.53764
2.60297
2.6678
2.73206
2.79573
2.85877
2.92114
2.9828
3.04368
3.10374
3.16291
3.22115
3.27841
3.33464
3.38979
3.44382
3.49665
3.54823
3.59852
3.64747
3.69503
3.74116
3.78583
3.82898
3.87057
3.91056
3.94892
3.9856
4.02059
4.05386
4.08539
4.11516
4.14314
4.16932
4.19368
4.21621
4.2369
4.25576
4.27278
4.28796
4.3013
4.31281
4.32249
4.33034
4.33637
4.34063
4.34312
4.34387
4.34296
4.34032
4.33597
4.32999
4.32242
4.31329
4.30264
4.29051
4.27696
4.26201
4.24571
4.22811
4.20926
4.1892
4.16799
4.14566
4.12227
4.09784
4.07242
4.04599
4.01863
3.99042
3.96143
3.93172
3.90135
3.87037
3.83883
3.80676
3.77419
3.74116
3.70768
3.67381
3.63961
3.60514
3.57048
3.53565
3.50072
3.46572
3.43071
3.39573
3.36087
3.32621
3.29185
3.25788
3.22438
3.19144
3.15837
3.12395
0.00310042
0.0377442
0.0627237
0.0731405
0.077194
0.0780713
0.0770221
0.0746723
0.0717162
0.0687943
0.0663574
0.0646425
0.0638058
0.0636487
0.0644259
0.0662132
0.0689474
0.0725951
0.0771315
0.0825173
0.0886958
0.0955897
0.103118
0.111204
0.11979
0.128837
0.138353
0.148427
0.159213
0.170909
0.183726
0.197829
0.213302
0.230144
0.24828
0.267588
0.287926
0.309159
0.331172
0.353879
0.377224
0.401184
0.425769
0.451019
0.477001
0.50381
0.531549
0.560329
0.590252
0.621427
0.653962
0.687958
0.723509
0.760698
0.799601
0.840284
0.882805
0.92721
0.973535
1.0218
1.072
1.12413
1.17816
1.23407
1.29179
1.35126
1.4124
1.47511
1.5393
1.60484
1.67161
1.73946
1.80822
1.87773
1.94782
2.01837
2.08928
2.16045
2.23177
2.30312
2.3744
2.4455
2.51636
2.58687
2.65695
2.72645
2.79534
2.86358
2.93113
2.99795
3.06401
3.12924
3.1936
3.257
3.3194
3.38074
3.44098
3.50005
3.55791
3.61452
3.6698
3.7237
3.77616
3.82715
3.87662
3.92453
3.97084
4.01551
4.05849
4.09973
4.13921
4.1769
4.21276
4.24679
4.27895
4.30924
4.33762
4.36409
4.38864
4.41125
4.43192
4.45065
4.46745
4.48231
4.49525
4.50626
4.51535
4.52253
4.52782
4.53124
4.53284
4.53265
4.53076
4.52698
4.52146
4.51426
4.5054
4.49494
4.4829
4.46933
4.45428
4.43779
4.41991
4.40069
4.38017
4.35842
4.33548
4.31141
4.28624
4.26003
4.23281
4.20453
4.17529
4.14519
4.11431
4.0827
4.05042
4.01751
3.98403
3.95001
3.91549
3.88047
3.84496
3.80905
3.77281
3.73632
3.69961
3.66275
3.62577
3.58872
3.55163
3.51455
3.47758
3.4408
3.40431
3.36821
3.33257
3.29751
3.26237
3.22624
0.00403042
0.0440433
0.0701638
0.0808784
0.0849109
0.0856565
0.0842629
0.08162
0.0787182
0.0762381
0.0745514
0.0737673
0.073609
0.0742313
0.075802
0.078252
0.0815198
0.085553
0.0903158
0.0957712
0.101891
0.10865
0.116038
0.124045
0.132693
0.142026
0.152124
0.16307
0.174972
0.187915
0.201949
0.217085
0.233291
0.250499
0.268625
0.287583
0.307293
0.3277
0.348763
0.370471
0.392828
0.415863
0.439625
0.464191
0.489627
0.516029
0.543507
0.572174
0.602146
0.633538
0.666466
0.701043
0.737378
0.775571
0.815712
0.857887
0.902172
0.948636
0.997331
1.04828
1.10149
1.15693
1.21459
1.2744
1.3363
1.40021
1.46599
1.53349
1.60256
1.67299
1.74459
1.81722
1.89068
1.96477
2.03929
2.11403
2.18902
2.26419
2.3395
2.41486
2.49011
2.56516
2.63994
2.71433
2.78816
2.86132
2.93378
3.00549
3.0764
3.14645
3.21561
3.28381
3.35099
3.41709
3.48203
3.54576
3.60824
3.66941
3.72923
3.78763
3.84458
3.9
3.95385
4.00607
4.05664
4.10551
4.15266
4.19805
4.24162
4.28333
4.32315
4.36106
4.39704
4.43107
4.46314
4.49323
4.52132
4.54741
4.57149
4.59354
4.61357
4.63158
4.64759
4.6616
4.67362
4.68364
4.69168
4.69774
4.70186
4.70408
4.70443
4.70305
4.69973
4.69455
4.68761
4.67894
4.66858
4.65658
4.64297
4.6278
4.61112
4.59297
4.5734
4.55247
4.53022
4.50671
4.482
4.45614
4.42919
4.40118
4.37217
4.34213
4.31114
4.2793
4.24666
4.2133
4.17924
4.14456
4.10929
4.07348
4.03716
4.00035
3.963
3.92525
3.88718
3.84885
3.81031
3.77161
3.73278
3.69388
3.65491
3.61592
3.57702
3.53831
3.49988
3.46183
3.42422
3.38719
3.35014
3.31248
0.00498462
0.0501402
0.0773818
0.0883343
0.0923151
0.0928954
0.091112
0.0883448
0.0857447
0.0838935
0.0829919
0.0827529
0.0831794
0.0844211
0.0865082
0.0893792
0.092983
0.0972809
0.102259
0.10791
0.114241
0.121261
0.128999
0.137488
0.146776
0.156909
0.167935
0.179887
0.192779
0.206597
0.221331
0.236943
0.253369
0.270551
0.288442
0.307007
0.326229
0.346112
0.366662
0.387911
0.409906
0.432726
0.456481
0.481224
0.506956
0.53381
0.561966
0.591526
0.622602
0.655316
0.689789
0.726149
0.764512
0.804987
0.847676
0.892671
0.940058
0.989906
1.04228
1.0972
1.15463
1.21451
1.27677
1.34134
1.40814
1.47704
1.54791
1.62055
1.69469
1.77004
1.84624
1.92321
2.00082
2.07892
2.15724
2.23559
2.31412
2.39272
2.47136
2.54986
2.62812
2.70618
2.78401
2.86136
2.93808
3.0141
3.08932
3.16365
3.237
3.30934
3.38061
3.45077
3.51974
3.58745
3.65383
3.71882
3.7824
3.84451
3.90512
3.96418
4.02163
4.07742
4.13148
4.18378
4.2343
4.283
4.32987
4.37487
4.41795
4.45906
4.49818
4.5353
4.57039
4.60346
4.63449
4.66347
4.6904
4.71526
4.73805
4.75877
4.77742
4.79401
4.80857
4.82109
4.8316
4.84008
4.84656
4.85102
4.85353
4.85413
4.853
4.84993
4.84491
4.83809
4.82949
4.81916
4.80713
4.79345
4.77817
4.76131
4.74293
4.72309
4.70182
4.67918
4.65522
4.63001
4.60359
4.57602
4.54736
4.51766
4.48696
4.45533
4.4228
4.38942
4.35524
4.32032
4.2847
4.24843
4.21157
4.17417
4.13626
4.09787
4.05896
4.01965
3.98002
3.94012
3.9
3.85971
3.81929
3.77879