/*--------------------------------*- C++ -*----------------------------------*\
  =========                 |
  \\      /  F ield         | OpenFOAM: The Open Source CFD Toolbox
   \\    /   O peration     | Website:  https://openfoam.org
    \\  /    A nd           | Version:  8
     \\/     M anipulation  |
\*---------------------------------------------------------------------------*/
FoamFile
{
    version     2.0;
    format      ascii;
    class       volScalarField;
    location    "1400";
    object      nut;
}
// * * * * * * * * * * * * * * * * * * * * * * * * * * * * * * * * * * * * * //

dimensions      [0 2 -1 0 0 0 0];

internalField   nonuniform List<scalar> 
12225
(
4.79236e-06
2.01969e-05
2.11754e-05
1.95714e-05
1.93151e-05
1.88267e-05
1.86723e-05
2.06971e-05
1.58802e-05
2.8128e-05
2.84847e-05
3.44958e-05
3.81259e-05
3.72939e-05
2.96135e-05
2.15925e-05
1.82691e-05
3.20278e-05
0.000254656
6.63852e-05
4.60358e-05
3.31137e-05
2.78102e-05
2.78522e-05
3.22176e-05
3.58053e-05
3.7424e-05
3.98994e-05
3.83503e-05
4.41541e-05
4.52699e-05
4.62577e-05
4.88638e-05
4.75433e-05
4.93487e-05
5.3211e-05
0.000681804
0.000328223
0.000208023
0.000128452
9.84689e-05
7.71325e-05
6.79962e-05
6.30421e-05
5.82979e-05
5.60783e-05
5.31906e-05
5.20623e-05
5.07151e-05
4.97143e-05
4.94528e-05
4.93911e-05
4.88242e-05
4.91657e-05
0.000934982
0.000604838
0.000492631
0.000392155
0.000326723
0.000264988
0.000229022
0.00020285
0.0001853
0.000171055
0.000160573
0.000150169
0.000143338
0.000135587
0.000131021
0.000125381
0.000122283
0.00011745
0.000895201
0.000772222
0.000697141
0.000662287
0.000608889
0.000542972
0.000494518
0.00044977
0.000419028
0.000388959
0.000368819
0.000346149
0.00033204
0.000314456
0.00030439
0.000290418
0.000283249
0.000271291
0.000858414
0.000838579
0.00081275
0.000796836
0.000773853
0.000737696
0.000706731
0.000670272
0.000642845
0.000611842
0.000590152
0.000564286
0.000547356
0.000525619
0.000512508
0.000493886
0.000483938
0.000467592
0.000853308
0.000850553
0.000843111
0.000837061
0.000831081
0.000819612
0.00080791
0.000790365
0.000775909
0.000756929
0.000742622
0.000724393
0.00071153
0.000694558
0.000683343
0.000667565
0.000658104
0.00064353
0.000851792
0.000851201
0.000849362
0.000846924
0.000844417
0.000840106
0.000835611
0.000829082
0.000822541
0.000813095
0.000805351
0.000795007
0.000787209
0.000776651
0.000769169
0.000758569
0.000751721
0.00074124
0.000851557
0.00085085
0.000850104
0.000848843
0.000847865
0.000846129
0.000844469
0.000841803
0.000839075
0.000835295
0.000831396
0.000826703
0.000822395
0.000816973
0.000812524
0.000806662
0.000802202
0.000795944
0.000851556
0.000850693
0.000850022
0.000849106
0.000848434
0.00084749
0.000846738
0.000845594
0.00084452
0.000842977
0.00084149
0.000839479
0.000837663
0.000835305
0.000833195
0.000830536
0.000828245
0.000825309
0.000851559
0.000850671
0.00084993
0.00084911
0.000848435
0.000847678
0.00084706
0.000846329
0.0008457
0.000844904
0.000844203
0.000843294
0.000842503
0.00084147
0.000840587
0.0008394
0.000838436
0.000837112
0.00085155
0.000850676
0.000849889
0.0008491
0.000848393
0.000847677
0.000847042
0.00084639
0.00084581
0.000845195
0.000844647
0.00084405
0.000843519
0.000842924
0.000842395
0.000841787
0.000841249
0.000840626
0.000851544
0.000850678
0.00084987
0.000849091
0.000848364
0.00084766
0.000847002
0.000846365
0.000845769
0.000845187
0.000844643
0.000844109
0.000843608
0.000843112
0.000842646
0.000842182
0.000841744
0.000841307
0.000851539
0.000850676
0.00084986
0.000849082
0.000848345
0.000847642
0.000846975
0.000846337
0.000845731
0.000845151
0.000844599
0.00084407
0.000843566
0.000843081
0.000842619
0.000842175
0.00084175
0.000841343
0.000851538
0.000850674
0.000849854
0.000849074
0.000848333
0.000847628
0.000846956
0.000846315
0.000845705
0.000845121
0.000844565
0.000844032
0.000843524
0.000843037
0.000842572
0.000842127
0.000841701
0.000841294
0.000851537
0.000850673
0.000849851
0.000849069
0.000848326
0.000847619
0.000846944
0.000846301
0.000845687
0.000845101
0.000844542
0.000844007
0.000843496
0.000843007
0.00084254
0.000842092
0.000841664
0.000841254
0.000851538
0.000850676
0.000849855
0.000849074
0.000848331
0.000847622
0.000846947
0.000846303
0.000845689
0.000845101
0.000844541
0.000844005
0.000843492
0.000843002
0.000842533
0.000842084
0.000841654
0.000841243
0.000851538
0.000850676
0.000849855
0.000849073
0.000848329
0.00084762
0.000846944
0.000846299
0.000845684
0.000845096
0.000844535
0.000843998
0.000843484
0.000842993
0.000842523
0.000842073
0.000841642
0.00084123
0.000851537
0.000850674
0.00084985
0.000849068
0.000848322
0.000847612
0.000846935
0.00084629
0.000845674
0.000845085
0.000844523
0.000843986
0.000843472
0.00084298
0.00084251
0.000842059
0.000841628
0.000841216
0.000851537
0.000850674
0.000849852
0.00084907
0.000848326
0.000847617
0.000846941
0.000846297
0.000845681
0.000845094
0.000844532
0.000843995
0.000843481
0.00084299
0.000842519
0.000842068
0.000841635
0.000841221
0.000851536
0.000850677
0.000849854
0.000849077
0.000848332
0.000847627
0.000846952
0.000846311
0.000845695
0.000845109
0.000844544
0.000844006
0.000843484
0.000842986
0.000842499
0.000842035
0.000841581
0.000841149
0.000851534
0.000850684
0.000849855
0.000849091
0.000848342
0.00084765
0.000846968
0.000846329
0.000845691
0.000845085
0.000844468
0.000843877
0.000843258
0.000842662
0.000842032
0.000841434
0.000840803
0.000840218
0.000851526
0.000850705
0.00084985
0.000849136
0.000848343
0.000847676
0.000846882
0.000846158
0.000845263
0.000844359
0.000843316
0.00084223
0.000840944
0.000839656
0.00083817
0.000836767
0.000835191
0.000833789
0.000851561
0.000850757
0.000849839
0.000849136
0.000847935
0.000846858
0.000845045
0.000843404
0.000840443
0.000838089
0.000834659
0.000830919
0.00082655
0.00082216
0.000817331
0.000812941
0.00080816
0.000804083
0.000852122
0.000850495
0.00084909
0.000846609
0.000841998
0.000836076
0.000829413
0.000821497
0.000810985
0.000800403
0.000788195
0.000776712
0.000764183
0.000752985
0.000741083
0.000730901
0.00072027
0.000711629
0.00085506
0.000841647
0.000835719
0.000819738
0.000796605
0.000773493
0.000747263
0.000722088
0.000694637
0.000669813
0.000644278
0.00062238
0.000600142
0.000581818
0.000563172
0.000548487
0.000533497
0.000522219
0.000843465
0.000783732
0.000739839
0.000669004
0.000607734
0.000555295
0.000508893
0.000470564
0.000435493
0.000406874
0.000380617
0.000359551
0.000339542
0.000323919
0.000308449
0.000297096
0.0002855
0.000277375
0.000659148
0.000510701
0.000385593
0.000308906
0.000259564
0.000224104
0.000198707
0.000179574
0.000164303
0.000152483
0.000142691
0.000134871
0.000128043
0.000122507
0.000117445
0.000113553
0.000109908
0.000107216
0.000199095
0.000114577
8.37305e-05
7.06736e-05
6.38986e-05
6.05302e-05
5.84589e-05
5.74725e-05
5.70284e-05
5.71893e-05
5.77318e-05
5.85699e-05
5.98069e-05
6.10198e-05
6.25739e-05
6.39571e-05
6.45855e-05
6.43905e-05
1.02898e-05
1.52394e-05
1.89069e-05
2.11515e-05
2.24451e-05
2.29264e-05
2.30824e-05
2.30602e-05
2.28369e-05
2.25494e-05
2.22406e-05
2.19315e-05
2.16372e-05
2.13631e-05
2.11129e-05
2.08867e-05
2.06819e-05
2.05019e-05
1.59212e-12
1.80006e-10
9.18486e-10
3.62113e-09
1.2101e-08
3.68666e-08
9.61968e-08
1.91093e-07
3.0952e-07
4.33984e-07
5.45652e-07
6.31989e-07
6.89534e-07
7.10889e-07
7.01409e-07
6.72683e-07
6.18569e-07
5.28586e-07
4.50589e-07
3.83492e-07
3.19678e-07
2.57715e-07
1.97593e-07
1.41912e-07
9.22957e-08
5.39185e-08
2.85442e-08
1.4346e-08
7.29837e-09
3.97549e-09
2.41075e-09
1.84864e-09
2.03671e-09
4.54229e-09
1.01672e-08
6.13579e-08
1.38517e-07
3.00045e-07
4.48045e-07
4.8636e-07
4.47014e-07
3.60387e-07
3.01626e-07
2.95018e-07
3.18549e-07
4.26255e-07
5.70189e-07
1.17493e-06
2.65902e-06
8.07195e-06
2.00631e-05
3.28714e-05
3.78535e-05
2.62204e-05
3.19916e-05
3.78696e-05
3.46643e-05
4.02182e-05
4.07099e-05
3.31075e-05
3.47056e-05
3.59988e-05
3.11143e-05
3.31906e-05
3.36037e-05
3.42169e-05
3.48302e-05
3.54076e-05
3.59848e-05
3.65485e-05
3.71046e-05
3.76537e-05
3.8195e-05
3.87322e-05
3.92627e-05
3.97902e-05
4.03126e-05
4.08324e-05
4.13485e-05
4.18623e-05
4.23734e-05
4.28827e-05
4.33896e-05
4.38953e-05
4.43987e-05
4.49013e-05
4.54014e-05
4.59011e-05
4.63985e-05
4.68952e-05
4.73897e-05
4.7882e-05
4.83715e-05
4.88577e-05
4.93403e-05
4.98192e-05
5.02946e-05
5.0768e-05
5.12419e-05
5.17222e-05
5.22168e-05
5.27073e-05
5.32035e-05
5.37044e-05
5.42108e-05
5.47239e-05
5.52432e-05
5.57703e-05
5.63048e-05
5.68481e-05
5.74002e-05
5.79623e-05
5.85348e-05
5.91186e-05
5.97146e-05
6.03235e-05
6.09466e-05
6.15846e-05
6.22389e-05
6.29103e-05
6.36007e-05
6.43108e-05
6.5043e-05
6.57979e-05
6.65791e-05
6.73874e-05
6.82283e-05
6.91108e-05
6.99939e-05
7.09629e-05
7.18948e-05
7.29382e-05
7.39629e-05
7.5089e-05
7.62696e-05
7.74973e-05
7.82296e-05
7.79734e-05
7.7709e-05
7.743e-05
7.71416e-05
7.6842e-05
7.65332e-05
7.6214e-05
7.58857e-05
7.55479e-05
7.52018e-05
7.48475e-05
7.44864e-05
7.41164e-05
7.37446e-05
7.33595e-05
7.29764e-05
7.25832e-05
7.21859e-05
7.17882e-05
7.13841e-05
7.09813e-05
7.05765e-05
7.01723e-05
6.97677e-05
6.93639e-05
6.89603e-05
6.8558e-05
6.81564e-05
6.77569e-05
6.73591e-05
6.69646e-05
6.65728e-05
6.61851e-05
6.58002e-05
6.54189e-05
6.5039e-05
6.46587e-05
6.4273e-05
6.38748e-05
6.34522e-05
6.29782e-05
6.23963e-05
6.08365e-05
6.88123e-12
1.11076e-09
1.5113e-08
8.11234e-08
3.51625e-07
1.18403e-06
2.7271e-06
4.99199e-06
7.74051e-06
1.08731e-05
1.40407e-05
1.69728e-05
1.94556e-05
2.1331e-05
2.24192e-05
2.27496e-05
2.23938e-05
2.15945e-05
1.93285e-05
1.61846e-05
1.24619e-05
9.16777e-06
6.45709e-06
4.3588e-06
2.74619e-06
1.69683e-06
1.03718e-06
6.43825e-07
4.04816e-07
2.65915e-07
1.92492e-07
1.73703e-07
1.55148e-07
3.17682e-07
4.83892e-07
3.57857e-06
7.92397e-06
1.57907e-05
2.16569e-05
2.36741e-05
2.22877e-05
1.98922e-05
1.75042e-05
1.6272e-05
1.66527e-05
1.70473e-05
2.03663e-05
2.80166e-05
3.9143e-05
5.00981e-05
6.15961e-05
7.13068e-05
7.99747e-05
8.60862e-05
9.67256e-05
0.000107629
0.000119731
0.00013368
0.000150458
0.000159681
0.00017427
0.00018971
0.00019768
0.000211973
0.000223645
0.000235339
0.000246748
0.000257539
0.000268056
0.000278174
0.00028802
0.000297576
0.00030691
0.000316021
0.000324954
0.000333713
0.000342326
0.000350795
0.000359141
0.000367363
0.000375475
0.000383478
0.00039138
0.000399181
0.000406887
0.000414497
0.000422016
0.000429443
0.000436782
0.000444032
0.000451194
0.00045826
0.000465224
0.00047207
0.000478779
0.000485319
0.000491646
0.000497693
0.000503362
0.000508527
0.000513021
0.000517622
0.000521989
0.00052629
0.000530443
0.000534484
0.000538391
0.00054217
0.000545814
0.000549323
0.000552692
0.00055592
0.000559003
0.00056194
0.000564727
0.000567363
0.000569844
0.000572171
0.000574339
0.000576348
0.000578195
0.000579879
0.000581397
0.000582749
0.000583933
0.000584948
0.000585792
0.000586467
0.000586985
0.000587367
0.000587522
0.000587585
0.000587351
0.00058708
0.000586741
0.000586299
0.000586027
0.00058576
0.000585346
0.000584791
0.000584106
0.000583293
0.00058236
0.000581306
0.000580134
0.000578846
0.000577446
0.000575934
0.000574312
0.000572654
0.000570792
0.000568947
0.00056694
0.000564831
0.000562716
0.000560442
0.000558147
0.00055577
0.000553346
0.000550871
0.00054835
0.000545788
0.000543185
0.000540541
0.000537858
0.000535138
0.000532384
0.000529602
0.000526795
0.000523964
0.000521107
0.000518217
0.000515287
0.000512276
0.000509135
0.000505786
0.000502092
0.000497757
0.00049203
0.000476041
1.8775e-11
3.212e-09
6.0615e-08
3.7099e-07
1.04673e-06
2.94136e-06
6.22458e-06
1.0819e-05
1.64974e-05
2.29495e-05
2.97995e-05
3.65985e-05
4.27246e-05
4.78284e-05
5.16824e-05
5.42199e-05
5.55779e-05
5.59061e-05
5.4376e-05
5.15153e-05
4.68203e-05
4.0892e-05
3.37103e-05
2.65263e-05
1.9946e-05
1.42861e-05
9.72365e-06
6.4993e-06
4.14257e-06
2.75803e-06
1.95675e-06
1.5823e-06
1.32998e-06
2.28634e-06
4.34371e-06
1.80514e-05
3.73035e-05
5.57298e-05
6.49188e-05
6.2916e-05
5.05898e-05
4.14224e-05
4.09352e-05
4.72761e-05
5.45156e-05
6.41852e-05
7.72091e-05
8.95801e-05
0.000102632
0.000119971
0.000138597
0.000159524
0.000181922
0.000207533
0.000236776
0.000267828
0.000300339
0.000332075
0.000363364
0.000391887
0.000421181
0.000448556
0.00047402
0.0004997
0.000523569
0.000546773
0.000568937
0.000590286
0.000610971
0.000631028
0.000650571
0.000669643
0.000688316
0.000706622
0.000724608
0.000742295
0.000759712
0.000776873
0.000793795
0.000810487
0.000826958
0.000843215
0.000859262
0.000875102
0.000890738
0.000906168
0.000921394
0.000936412
0.000951218
0.000965808
0.000980173
0.000994294
0.00100815
0.00102172
0.00103498
0.00104787
0.00106037
0.00107242
0.00108399
0.00109507
0.00110582
0.00111642
0.00112671
0.00113677
0.00114654
0.00115606
0.00116529
0.00117423
0.00118289
0.00119124
0.00119929
0.00120704
0.00121447
0.00122158
0.00122836
0.00123481
0.00124093
0.00124672
0.00125216
0.00125726
0.00126201
0.00126641
0.00127045
0.00127415
0.00127748
0.00128046
0.00128308
0.00128535
0.00128727
0.00128884
0.00129004
0.00129094
0.00129137
0.00129157
0.00129166
0.00129151
0.00129117
0.00129058
0.00128968
0.00128846
0.00128696
0.00128517
0.0012831
0.00128076
0.00127816
0.0012753
0.0012722
0.00126885
0.00126527
0.00126151
0.00125745
0.00125328
0.00124883
0.00124418
0.0012394
0.00123438
0.00122925
0.00122395
0.00121854
0.00121301
0.00120738
0.00120166
0.00119586
0.00118996
0.00118398
0.00117792
0.0011718
0.00116561
0.00115938
0.0011531
0.00114678
0.00114039
0.0011339
0.00112726
0.00112036
0.00111303
0.00110497
0.00109542
0.00108252
0.00105349
6.89575e-11
1.16439e-08
1.84008e-07
8.22709e-07
2.49664e-06
6.89855e-06
1.36695e-05
2.27818e-05
3.35404e-05
4.48455e-05
5.57704e-05
6.57589e-05
7.43149e-05
8.08367e-05
8.57271e-05
8.88381e-05
9.00926e-05
8.9849e-05
8.82411e-05
8.50613e-05
8.04606e-05
7.49233e-05
6.75457e-05
5.87637e-05
4.90555e-05
3.93277e-05
3.03554e-05
2.28723e-05
1.71216e-05
1.24924e-05
9.70172e-06
7.25686e-06
7.96011e-06
1.21729e-05
2.74342e-05
5.11923e-05
7.0309e-05
7.96947e-05
7.70152e-05
7.40155e-05
7.40397e-05
7.76819e-05
8.54361e-05
9.66515e-05
0.000111288
0.000123218
0.000143073
0.000166158
0.000192854
0.000225349
0.000260525
0.000299723
0.00034114
0.000385171
0.000430477
0.00047616
0.000521471
0.000565318
0.000607735
0.000648363
0.000687845
0.000725347
0.00076135
0.000796393
0.000829852
0.000862227
0.000893514
0.000923904
0.000953503
0.000982396
0.00101067
0.0010384
0.00106563
0.00109241
0.00111878
0.00114476
0.00117037
0.00119563
0.00122055
0.00124514
0.0012694
0.00129335
0.00131697
0.00134027
0.00136325
0.00138591
0.00140824
0.00143023
0.00145188
0.00147318
0.00149412
0.00151467
0.00153482
0.00155455
0.00157384
0.00159265
0.00161098
0.00162882
0.00164617
0.00166308
0.00167961
0.00169579
0.00171157
0.00172696
0.00174194
0.00175651
0.00177066
0.00178437
0.00179764
0.00181046
0.00182282
0.00183472
0.00184614
0.00185709
0.00186755
0.00187752
0.00188699
0.00189597
0.00190444
0.00191239
0.00191984
0.00192677
0.00193319
0.00193909
0.00194446
0.00194932
0.00195366
0.00195749
0.0019608
0.0019636
0.00196589
0.00196768
0.00196888
0.00196969
0.0019703
0.00197042
0.00197014
0.00196942
0.00196826
0.00196664
0.00196458
0.00196211
0.00195922
0.00195592
0.00195223
0.00194816
0.00194373
0.00193893
0.00193379
0.00192834
0.00192252
0.00191644
0.00191001
0.00190328
0.0018963
0.00188902
0.00188153
0.0018738
0.00186588
0.00185779
0.00184954
0.00184115
0.00183261
0.00182394
0.00181514
0.00180623
0.0017972
0.00178809
0.0017789
0.00176964
0.00176032
0.00175091
0.00174136
0.00173161
0.00172152
0.00171088
0.00169928
0.00168567
0.00166756
0.00163313
2.36779e-10
3.51828e-08
4.15319e-07
1.94919e-06
6.76269e-06
1.62525e-05
3.01288e-05
4.66368e-05
6.38379e-05
8.00351e-05
9.40731e-05
0.000105051
0.000113153
0.000118717
0.000121782
0.000122953
0.000122481
0.000120635
0.000117618
0.000113423
0.000108049
0.00010207
9.46591e-05
8.60027e-05
7.59924e-05
6.49748e-05
5.3746e-05
4.35777e-05
3.51476e-05
2.83777e-05
2.23885e-05
2.09858e-05
2.66753e-05
4.47617e-05
6.95035e-05
8.53636e-05
9.31591e-05
9.66592e-05
9.94528e-05
0.000104557
0.000113527
0.000127263
0.000140215
0.000153361
0.0001753
0.000204427
0.000236886
0.000275855
0.000319153
0.000367159
0.000417516
0.000470634
0.000524856
0.000580061
0.000635123
0.000689546
0.000742823
0.000794507
0.000844585
0.000892705
0.000939643
0.000984984
0.00102871
0.00107111
0.00111216
0.00115207
0.00119092
0.00122885
0.00126596
0.00130232
0.00133802
0.0013731
0.00140762
0.00144162
0.00147512
0.00150816
0.00154073
0.00157285
0.00160453
0.00163578
0.00166659
0.00169697
0.00172692
0.00175643
0.0017855
0.00181413
0.00184231
0.00187003
0.00189729
0.00192407
0.00195037
0.00197618
0.00200148
0.00202625
0.00205049
0.00207419
0.00209735
0.00211998
0.00214209
0.00216369
0.00218481
0.00220545
0.00222558
0.00224519
0.00226428
0.00228283
0.00230084
0.00231828
0.00233517
0.00235147
0.00236719
0.00238232
0.00239686
0.00241079
0.00242411
0.00243682
0.0024489
0.00246037
0.0024712
0.00248141
0.00249098
0.00249991
0.00250821
0.00251588
0.00252291
0.0025293
0.00253506
0.0025402
0.0025447
0.00254859
0.00255183
0.00255447
0.0025564
0.00255788
0.00255896
0.00255944
0.00255938
0.00255877
0.0025576
0.00255588
0.00255362
0.00255084
0.00254755
0.00254375
0.00253947
0.00253472
0.0025295
0.00252384
0.00251775
0.00251125
0.00250433
0.00249703
0.00248932
0.00248124
0.00247281
0.00246402
0.00245494
0.00244557
0.00243594
0.00242608
0.002416
0.00240573
0.00239526
0.00238462
0.0023738
0.00236281
0.00235168
0.00234043
0.00232906
0.00231758
0.002306
0.00229431
0.00228247
0.0022704
0.00225798
0.00224498
0.00223099
0.00221496
0.00219402
0.00215935
7.56507e-10
8.65094e-08
1.04005e-06
5.2796e-06
1.71947e-05
3.62563e-05
5.91033e-05
8.23978e-05
0.000102755
0.000118799
0.000130682
0.000139352
0.000144662
0.000147522
0.000148445
0.000147814
0.000145881
0.000142833
0.000138814
0.000133785
0.000127841
0.000121326
0.00011361
0.000104847
9.3967e-05
7.8411e-05
6.3379e-05
4.93353e-05
3.78773e-05
3.28731e-05
3.39804e-05
4.59385e-05
6.80495e-05
9.01146e-05
0.000105611
0.000115018
0.000121033
0.000127485
0.000137962
0.000154438
0.000165666
0.000179335
0.000202918
0.000232267
0.000268122
0.000310911
0.000358308
0.000411106
0.000466854
0.000525483
0.000585535
0.0006468
0.000708285
0.000769701
0.000830394
0.000890093
0.000948216
0.00100489
0.00106041
0.00111426
0.00116665
0.00121753
0.001267
0.00131518
0.00136214
0.001408
0.00145286
0.0014968
0.00153992
0.00158227
0.00162393
0.00166493
0.00170531
0.00174511
0.00178434
0.00182301
0.00186114
0.00189873
0.00193577
0.00197228
0.00200824
0.00204367
0.00207855
0.00211288
0.00214666
0.00217988
0.00221255
0.00224465
0.00227618
0.00230713
0.00233751
0.0023673
0.00239649
0.00242508
0.00245306
0.00248043
0.0025072
0.00253338
0.00255897
0.00258397
0.00260839
0.00263221
0.00265543
0.00267804
0.00270002
0.00272138
0.00274209
0.00276215
0.00278155
0.00280028
0.00281834
0.00283571
0.0028524
0.0028684
0.0028837
0.00289831
0.00291221
0.00292541
0.0029379
0.00294969
0.00296076
0.00297113
0.00298078
0.00298973
0.00299797
0.00300551
0.00301235
0.0030185
0.00302398
0.0030287
0.00303275
0.00303613
0.00303873
0.00304084
0.00304242
0.00304333
0.00304362
0.00304328
0.00304232
0.00304076
0.0030386
0.00303586
0.00303256
0.00302867
0.00302424
0.00301928
0.00301381
0.00300783
0.00300136
0.00299442
0.00298701
0.00297914
0.00297083
0.00296208
0.00295292
0.00294336
0.00293343
0.00292317
0.0029126
0.00290175
0.00289063
0.00287926
0.00286765
0.00285582
0.00284377
0.00283151
0.00281907
0.00280647
0.00279372
0.00278083
0.00276783
0.00275469
0.00274138
0.00272786
0.00271401
0.00269963
0.00268435
0.00266725
0.00264568
0.00261292
2.43752e-09
2.22128e-07
2.76095e-06
1.44368e-05
3.76137e-05
6.67923e-05
9.45848e-05
0.000117169
0.000134326
0.000146985
0.000155819
0.000161187
0.000164001
0.000164906
0.000164336
0.000162578
0.000159814
0.000156134
0.000151485
0.000145785
0.000139239
0.000131676
0.000122766
0.000106673
9.10995e-05
7.73977e-05
6.51651e-05
5.62073e-05
5.46397e-05
6.28786e-05
7.6532e-05
0.000101495
0.000120357
0.000133482
0.000143048
0.000151382
0.000162424
0.000179267
0.000188777
0.000202018
0.000224685
0.000253075
0.000289141
0.000331673
0.000380777
0.000435322
0.000493509
0.000554922
0.000618124
0.000682817
0.000748162
0.000813793
0.000879161
0.000944007
0.00100767
0.0010702
0.00113199
0.00119229
0.00125124
0.00130878
0.00136498
0.00141984
0.00147344
0.00152586
0.00157717
0.00162746
0.00167678
0.00172523
0.00177287
0.00181974
0.00186589
0.00191136
0.00195618
0.00200036
0.0020439
0.00208683
0.00212913
0.0021708
0.00221184
0.00225224
0.00229201
0.00233113
0.00236961
0.00240744
0.00244462
0.00248115
0.00251703
0.00255225
0.00258681
0.00262071
0.00265396
0.00268655
0.00271846
0.00274971
0.00278029
0.0028102
0.00283943
0.00286798
0.00289584
0.00292304
0.00294958
0.00297544
0.00300063
0.00302513
0.00304894
0.00307205
0.00309445
0.00311615
0.00313713
0.00315741
0.00317696
0.00319579
0.00321388
0.00323123
0.00324784
0.00326369
0.00327881
0.00329317
0.00330678
0.00331963
0.00333174
0.0033431
0.00335371
0.00336357
0.00337269
0.00338107
0.00338871
0.00339567
0.00340187
0.00340728
0.003412
0.003416
0.00341918
0.00342188
0.00342393
0.00342529
0.00342597
0.003426
0.00342538
0.00342411
0.00342222
0.00341971
0.00341661
0.00341297
0.00340876
0.00340399
0.00339867
0.00339281
0.00338643
0.00337954
0.00337214
0.00336425
0.00335587
0.00334702
0.00333772
0.00332798
0.00331784
0.00330731
0.00329644
0.00328524
0.00327373
0.00326193
0.00324984
0.00323749
0.00322488
0.00321203
0.00319895
0.00318567
0.00317221
0.00315859
0.00314483
0.00313091
0.00311683
0.00310254
0.00308797
0.00307296
0.00305721
0.00303999
0.00301926
0.0029895
7.36262e-09
5.8924e-07
7.45642e-06
3.08963e-05
6.4922e-05
9.91022e-05
0.000127349
0.000148098
0.000162207
0.000170824
0.000175189
0.000176972
0.000177036
0.000175778
0.000173522
0.000170428
0.000166462
0.000161525
0.000155715
0.000149159
0.000141717
0.000132981
0.00011594
9.92061e-05
8.53405e-05
7.56366e-05
7.26723e-05
7.65141e-05
8.60311e-05
0.000106729
0.000132215
0.000155398
0.00017005
0.000180129
0.000191665
0.000202065
0.000209243
0.00022199
0.00024211
0.000268401
0.000302496
0.000343057
0.000390624
0.000444026
0.000502459
0.000564424
0.000628714
0.000694775
0.000761848
0.000829569
0.000897443
0.000965149
0.00103216
0.00109827
0.00116393
0.0012285
0.00129196
0.00135418
0.00141518
0.00147495
0.00153351
0.0015909
0.00164716
0.00170235
0.00175652
0.00180974
0.00186207
0.00191356
0.00196426
0.00201422
0.00206346
0.00211202
0.00215991
0.00220713
0.00225367
0.00229954
0.00234473
0.00238923
0.00243302
0.00247609
0.00251845
0.00256008
0.00260098
0.00264115
0.0026806
0.0027193
0.00275728
0.00279453
0.00283106
0.00286687
0.00290197
0.00293635
0.00297001
0.00300296
0.00303519
0.0030667
0.00309748
0.00312752
0.00315684
0.00318545
0.00321336
0.00324056
0.00326704
0.00329279
0.00331782
0.00334212
0.00336567
0.00338849
0.00341055
0.00343185
0.0034524
0.00347218
0.0034912
0.00350945
0.00352694
0.00354365
0.00355959
0.00357476
0.00358917
0.0036028
0.00361567
0.00362778
0.00363912
0.00364971
0.00365954
0.00366863
0.00367698
0.00368465
0.00369148
0.00369757
0.00370296
0.0037076
0.00371145
0.00371478
0.00371742
0.00371935
0.00372061
0.00372119
0.00372111
0.00372038
0.00371901
0.00371701
0.00371439
0.00371116
0.00370734
0.00370294
0.00369797
0.00369244
0.00368636
0.00367975
0.00367261
0.00366495
0.00365677
0.0036481
0.00363894
0.00362932
0.00361927
0.00360881
0.00359796
0.00358675
0.00357519
0.00356331
0.00355111
0.0035386
0.00352579
0.00351271
0.00349936
0.00348579
0.003472
0.00345803
0.00344388
0.00342956
0.00341507
0.00340039
0.00338548
0.00337026
0.00335461
0.00333784
0.00331837
0.00329216
1.9228e-08
1.46939e-06
1.66174e-05
5.20299e-05
9.28665e-05
0.000127398
0.000153083
0.000170213
0.000180915
0.000186422
0.000188129
0.000187149
0.000184432
0.000180693
0.000176321
0.000171418
0.000165913
0.00015982
0.000153075
0.000145802
0.000137765
0.000126319
0.000113831
0.000106363
0.000101735
9.71741e-05
0.000101361
0.000116519
0.000136476
0.000157964
0.00017832
0.000195254
0.000207459
0.000216592
0.000226031
0.000238219
0.000256227
0.000279845
0.00031076
0.000348274
0.000392612
0.000442897
0.000498795
0.000559118
0.000622756
0.000688545
0.000755727
0.000823841
0.000892435
0.000961195
0.00102979
0.00109762
0.00116507
0.00123199
0.00129798
0.00136296
0.00142689
0.00148973
0.00155146
0.00161209
0.00167164
0.00173014
0.00178762
0.00184414
0.00189974
0.00195447
0.00200837
0.00206148
0.00211386
0.00216554
0.00221655
0.0022669
0.0023166
0.00236566
0.00241402
0.00246168
0.00250864
0.00255487
0.00260035
0.00264507
0.002689
0.00273214
0.0027745
0.00281607
0.00285687
0.00289694
0.00293623
0.00297471
0.00301242
0.00304934
0.00308549
0.00312088
0.0031555
0.00318936
0.00322247
0.00325483
0.00328644
0.00331733
0.00334748
0.0033769
0.00340558
0.00343353
0.00346073
0.00348719
0.0035129
0.00353786
0.00356206
0.0035855
0.00360818
0.00363009
0.00365123
0.00367159
0.00369119
0.00371001
0.00372805
0.00374533
0.00376183
0.00377756
0.00379253
0.00380673
0.00382017
0.00383285
0.00384477
0.00385594
0.00386637
0.00387605
0.00388505
0.00389331
0.00390076
0.00390751
0.00391356
0.00391885
0.00392341
0.0039274
0.0039307
0.0039333
0.00393522
0.00393648
0.00393708
0.00393704
0.00393635
0.00393504
0.00393311
0.00393057
0.00392743
0.00392371
0.00391942
0.00391456
0.00390915
0.00390319
0.00389669
0.00388966
0.00388209
0.00387401
0.00386543
0.00385637
0.00384686
0.00383692
0.00382656
0.00381581
0.0038047
0.00379322
0.00378139
0.00376922
0.00375673
0.00374392
0.00373082
0.00371746
0.00370385
0.00369003
0.003676
0.00366179
0.0036474
0.00363283
0.00361806
0.00360304
0.00358763
0.00357138
0.00355303
0.00352992
4.29317e-08
3.40282e-06
3.00212e-05
7.59512e-05
0.000120259
0.000153853
0.00017593
0.000189785
0.000196371
0.000197566
0.000195265
0.000190842
0.000185221
0.000178967
0.000172333
0.000165178
0.000157834
0.000149779
0.000141756
0.00013349
0.000124849
0.000116827
0.000111195
0.000110486
0.000116394
0.000128284
0.00014434
0.000162257
0.00018068
0.00019812
0.000212789
0.000224483
0.000236688
0.000250098
0.000267037
0.000288364
0.000316039
0.000349935
0.000390298
0.000436523
0.000488286
0.000544869
0.000605578
0.000669352
0.000735221
0.000802384
0.00087033
0.000938707
0.00100722
0.00107533
0.00114295
0.00121055
0.00127732
0.00134333
0.00140843
0.00147258
0.00153573
0.00159787
0.00165899
0.0017191
0.00177822
0.00183639
0.00189366
0.00195008
0.00200569
0.00206053
0.00211464
0.002168
0.00222072
0.00227284
0.00232438
0.00237534
0.00242576
0.00247565
0.00252511
0.00257396
0.00262209
0.00266943
0.00271598
0.00276169
0.00280655
0.00285055
0.00289368
0.00293593
0.00297732
0.00301781
0.00305747
0.00309634
0.00313442
0.00317172
0.00320826
0.00324404
0.00327907
0.00331335
0.00334688
0.00337967
0.00341173
0.00344306
0.00347365
0.0035035
0.0035326
0.00356096
0.00358858
0.00361544
0.00364155
0.0036669
0.0036915
0.00371533
0.00373841
0.00376072
0.00378226
0.00380304
0.00382305
0.00384229
0.00386077
0.00387849
0.00389544
0.00391164
0.00392708
0.00394177
0.00395572
0.00396892
0.00398138
0.00399311
0.00400411
0.00401441
0.00402403
0.00403287
0.00404099
0.00404842
0.00405516
0.00406118
0.00406651
0.00407124
0.00407528
0.00407864
0.00408135
0.0040834
0.00408481
0.00408558
0.00408573
0.00408525
0.00408417
0.00408249
0.00408022
0.00407736
0.00407394
0.00406996
0.00406542
0.00406034
0.0040547
0.00404853
0.00404181
0.00403457
0.00402682
0.00401858
0.00400988
0.00400072
0.00399114
0.00398115
0.00397076
0.00395999
0.00394883
0.00393731
0.00392544
0.00391322
0.00390068
0.00388785
0.00387474
0.00386139
0.00384781
0.00383402
0.00382004
0.00380588
0.00379155
0.00377702
0.00376222
0.00374682
0.00372979
0.00371006
8.17006e-08
6.97934e-06
4.45363e-05
9.67732e-05
0.000142658
0.000175133
0.000195298
0.000204885
0.000207073
0.000204407
0.000198747
0.000191374
0.000183101
0.000174201
0.000165516
0.000156667
0.00014855
0.000141366
0.000135589
0.000131147
0.000128907
0.000129908
0.000134691
0.000143284
0.000155215
0.000169593
0.000185283
0.000201243
0.000216068
0.000228887
0.000242383
0.000257656
0.000274671
0.000294773
0.000319752
0.000350153
0.000386433
0.000428251
0.000475327
0.00052714
0.000583233
0.00064297
0.00070562
0.000770326
0.00083634
0.000903093
0.000970199
0.00103734
0.00110397
0.00117051
0.00123661
0.00130208
0.00136673
0.00143051
0.00149335
0.00155523
0.00161615
0.00167612
0.00173517
0.0017933
0.00185049
0.00190681
0.00196238
0.00201723
0.00207144
0.00212508
0.0021783
0.00223133
0.00228387
0.00233589
0.00238739
0.00243837
0.00248886
0.00253882
0.00258816
0.00263689
0.00268497
0.0027323
0.00277889
0.00282469
0.00286967
0.00291379
0.00295704
0.00299943
0.00304096
0.00308168
0.0031216
0.00316072
0.00319905
0.00323662
0.00327342
0.00330947
0.00334477
0.00337933
0.00341315
0.00344624
0.00347859
0.00351021
0.0035411
0.00357125
0.00360066
0.00362934
0.00365727
0.00368446
0.0037109
0.0037366
0.00376155
0.00378575
0.0038092
0.0038319
0.00385384
0.00387502
0.00389546
0.00391514
0.00393407
0.00395225
0.00396969
0.00398639
0.00400235
0.00401758
0.00403208
0.00404586
0.00405892
0.00407127
0.0040829
0.00409389
0.00410414
0.00411369
0.00412255
0.00413074
0.00413826
0.00414509
0.00415128
0.00415685
0.00416174
0.00416598
0.00416958
0.00417254
0.00417488
0.00417659
0.0041777
0.0041782
0.0041781
0.00417741
0.00417615
0.00417431
0.00417192
0.00416896
0.00416546
0.00416142
0.00415682
0.00415168
0.00414599
0.00413977
0.00413303
0.0041258
0.00411809
0.00410992
0.00410132
0.00409229
0.00408284
0.00407299
0.00406274
0.00405209
0.00404106
0.00402966
0.00401792
0.00400585
0.00399349
0.00398085
0.00396795
0.00395482
0.00394147
0.00392794
0.00391424
0.00390039
0.00388634
0.00387188
0.0038561
0.00383928
1.30596e-07
1.19704e-05
6.0462e-05
0.000118468
0.00016443
0.000194935
0.000211233
0.000217001
0.00021575
0.000210145
0.000202133
0.000192731
0.000183295
0.000174189
0.000166134
0.000159146
0.000153672
0.000150455
0.000149284
0.000150417
0.000154149
0.00016056
0.000169474
0.0001805
0.000193128
0.000206795
0.00022042
0.000233174
0.000246712
0.000262641
0.000280433
0.00029989
0.000323093
0.000350646
0.000383166
0.000420676