/*--------------------------------*- C++ -*----------------------------------*\
  =========                 |
  \\      /  F ield         | OpenFOAM: The Open Source CFD Toolbox
   \\    /   O peration     | Website:  https://openfoam.org
    \\  /    A nd           | Version:  8
     \\/     M anipulation  |
\*---------------------------------------------------------------------------*/
FoamFile
{
    version     2.0;
    format      ascii;
    class       volScalarField;
    location    "1400";
    object      omega;
}
// * * * * * * * * * * * * * * * * * * * * * * * * * * * * * * * * * * * * * //

dimensions      [0 0 -1 0 0 0 0];

internalField   nonuniform List<scalar> 
12225
(
32582.3
32582.3
45196.7
46453.6
52433.3
49379.8
52435.1
45872.4
41607.3
32582.3
32582.3
32582.3
32582.3
32582.3
40971
46908.3
42287
32582.3
78.9491
6595.8
11349.9
16693.8
20431.8
22197.1
20546.3
18946.7
18214.5
18162.1
19160.4
17731.4
18356.7
18453.8
17851.5
18620.6
18121.9
17507
547.424
1133.89
1857.01
3011.62
3849.39
4868.42
5479.67
5834.11
6217.39
6411.53
6795.16
7001.87
7247.66
7414.22
7498.83
7619.94
7756.64
7818.25
400.13
612.783
751.713
941.512
1123.26
1370.43
1569.49
1751.61
1899.53
2034.84
2147.75
2270.53
2355.77
2461.21
2521.28
2607.87
2648.83
2733.18
417.914
480.579
529.409
554.675
600.536
668.835
729.625
796.03
848.604
906.83
949.491
1002.97
1037.62
1085.72
1112.73
1155.65
1175.71
1216.67
435.676
442.975
454.341
460.908
472.356
492.793
511.737
536.427
556.27
580.907
598.889
622.436
638.024
660.155
673.115
693.967
704.192
724.149
438.178
436.875
438.177
438.888
439.848
443.748
448.046
455.715
462.005
471.228
478.045
487.655
494.169
503.763
509.687
519.191
524.308
533.618
438.912
436.559
435.003
433.84
432.91
432.967
433.264
434.636
436.134
439.207
441.52
445.317
447.869
452.044
454.62
459.079
461.488
466.147
439.015
436.723
434.614
432.866
431.131
429.872
428.704
428.101
427.623
427.717
427.963
428.651
429.234
430.424
431.199
432.74
433.639
435.514
439.005
436.793
434.637
432.719
430.812
429.148
427.508
426.148
424.848
423.846
422.899
422.269
421.617
421.28
420.888
420.803
420.605
420.753
439
436.794
434.661
432.692
430.776
429.012
427.289
425.719
424.193
422.831
421.504
420.35
419.213
418.253
417.287
416.519
415.701
415.104
438.999
436.785
434.666
432.676
430.767
428.973
427.249
425.631
424.073
422.617
421.212
419.908
418.645
417.482
416.351
415.318
414.31
413.395
439.001
436.779
434.664
432.663
430.757
428.952
427.229
425.598
424.038
422.56
421.146
419.807
418.524
417.31
416.146
415.044
413.988
412.989
439.001
436.775
434.66
432.654
430.748
428.936
427.214
425.575
424.015
422.53
421.114
419.766
418.48
417.254
416.083
414.968
413.902
412.885
439.001
436.773
434.657
432.648
430.74
428.926
427.201
425.56
423.997
422.509
421.09
419.739
418.45
417.221
416.047
414.928
413.858
412.838
439.001
436.771
434.655
432.644
430.734
428.919
427.191
425.548
423.983
422.492
421.072
419.718
418.427
417.196
416.02
414.899
413.828
412.805
439
436.769
434.651
432.639
430.727
428.909
427.18
425.535
423.968
422.476
421.054
419.698
418.406
417.173
415.996
414.873
413.8
412.776
439
436.77
434.651
432.639
430.726
428.908
427.178
425.533
423.964
422.472
421.049
419.694
418.4
417.167
415.989
414.865
413.792
412.768
439.001
436.772
434.655
432.643
430.732
428.914
427.186
425.54
423.974
422.481
421.059
419.703
418.41
417.176
416
414.876
413.803
412.778
439.001
436.773
434.656
432.646
430.735
428.919
427.19
425.546
423.98
422.489
421.067
419.713
418.421
417.188
416.012
414.89
413.818
412.795
439.001
436.773
434.659
432.649
430.74
428.924
427.199
425.555
423.992
422.502
421.085
419.732
418.446
417.219
416.051
414.936
413.875
412.86
439.004
436.773
434.665
432.651
430.749
428.93
427.212
425.571
424.023
422.548
421.159
419.835
418.596
417.413
416.311
415.254
414.271
413.321
439.008
436.768
434.677
432.645
430.769
428.947
427.292
425.703
424.29
422.966
421.786
420.699
419.772
418.907
418.193
417.494
416.934
416.342
438.992
436.75
434.7
432.68
431.028
429.436
428.312
427.199
426.83
426.221
426.217
426.425
426.997
427.633
428.54
429.278
430.284
430.981
438.707
436.906
435.152
434.11
434.265
435.236
436.674
438.885
442.591
446.443
451.357
455.994
461.396
466.173
471.529
475.989
480.926
484.721
437.225
441.595
442.474
448.981
459.854
471.463
485.723
500.303
517.547
533.949
552.251
568.505
586.241
601.196
617.343
630.134
643.99
654.148
443.442
474.984
501.845
553.472
607.073
661.837
718.733
773.27
830.57
882.969
937.565
984.587
1034.58
1075.3
1119.39
1152.35
1188.65
1213.4
570.024
737.937
982.534
1233.06
1467.92
1699.01
1909.74
2101.72
2279.86
2436.71
2582.53
2706.36
2827.49
2926.27
3029.37
3104.72
3187.42
3241.37
1983.02
3594.49
5215.42
6503.17
7468.67
8135.38
8607.66
8932.74
9155.87
9284.66
9360.44
9380.42
9373.69
9355.62
9326.71
9296.17
9280.03
9259.47
16112.1
20805.3
23193.3
24386.9
24948.7
25055.8
24999
24850.1
24604.9
24335.7
24063.9
23800.4
23552.3
23322.1
23111.1
22918.6
22742.6
22584.7
11463.3
2494.65
2496.87
2499.12
2501.38
2503.67
2505.98
2508.3
2510.65
2513.02
2515.42
2517.83
2520.27
2522.73
2525.21
2527.72
2530.25
2532.8
2535.37
2537.97
2540.6
2543.25
2545.92
2548.62
2551.34
2554.09
2556.87
2559.67
2562.5
2565.35
2568.23
2571.14
2574.08
2577.04
2580.04
2583.06
2586.11
2589.19
2592.3
2595.43
2598.6
2601.8
2605.03
2608.29
2611.59
2614.91
2618.27
2621.66
2625.08
2628.54
2632.03
2635.55
2639.11
3134.95
3217.77
3251.25
3283.77
3205.61
2661.21
3216.26
3384.29
2672.76
3343.44
3377.98
3486.72
3567.24
3648.82
3727.05
3802
3874.8
3945.18
4013.82
4080.5
4145.77
4209.4
4271.78
4332.79
4392.65
4451.3
4508.88
4565.33
4620.78
4675.16
4728.57
4780.92
4832.33
4882.67
4932.05
4980.36
5027.67
5073.89
5119
5162.94
5205.67
5247.13
5287.3
5326.13
5363.69
5400.05
5435.53
5470.6
5504.35
5537.23
5569.11
5600
5629.93
5658.83
5686.74
5713.61
5739.46
5764.27
5788.03
5810.73
5832.38
5852.96
5872.47
5890.92
5908.3
5924.61
5939.85
5954.04
5967.15
5979.25
5990.27
6000.32
6009.34
6017.47
6025.02
6031.56
6035.44
6041.13
6042.14
6045.28
6046.32
6047.72
6047.8
6046.98
6044.47
6041.37
6037.23
6032.45
6026.87
6020.64
6013.68
6006.09
5997.83
5989
5979.6
5969.72
5959.41
5948.49
5937.3
5925.48
5913.48
5901.11
5888.43
5875.64
5862.66
5849.66
5836.64
5823.62
5810.65
5797.72
5784.88
5772.12
5759.52
5747.08
5734.9
5722.99
5711.42
5700.13
5689.13
5678.31
5667.45
5656.18
5643.8
5629.33
5610.23
5581.4
5464.47
11463.3
1993.45
997.258
811.154
693.721
623.236
630.317
626.244
615.223
592.633
568.441
544.802
523.117
505.178
492.976
484.242
483.71
485.752
511.972
561.107
645.709
747.26
857.452
966.81
1064.61
1140.42
1182.63
1176.59
1134.09
1054.62
930.187
776.052
646.447
563.254
497.214
461.513
456.756
464.739
486.662
518.848
549.038
594.826
678.45
813.272
1019.05
1332.35
1637.53
1849.85
1987.09
2054.01
2072.95
2061.96
2029.28
2020.43
1960.37
1903.18
1847.37
1786.7
1719.55
1724.47
1696.28
1658.95
1690.12
1668.99
1669.32
1666.81
1666.28
1668.3
1671.3
1675.65
1680.79
1686.73
1693.16
1700.09
1707.29
1714.77
1722.4
1730.16
1737.97
1745.82
1753.65
1761.46
1769.2
1776.87
1784.42
1791.86
1799.15
1806.28
1813.22
1819.98
1826.52
1832.84
1838.95
1844.86
1850.61
1856.28
1861.98
1867.9
1874.32
1881.65
1890.43
1898.3
1906.29
1913.9
1921.36
1928.56
1935.55
1942.3
1948.82
1955.12
1961.18
1967.02
1972.62
1977.99
1983.14
1988.05
1992.74
1997.21
2001.45
2005.47
2009.28
2012.87
2016.25
2019.42
2022.4
2025.18
2027.78
2030.2
2032.39
2034.35
2036.23
2037.72
2039.3
2040.64
2041.8
2042.47
2042.41
2041.86
2041.1
2040.16
2039.05
2037.78
2036.33
2034.72
2032.96
2031.04
2028.98
2026.8
2024.52
2021.9
2019.53
2016.66
2013.94
2011.16
2008.04
2005.12
2001.98
1998.86
1995.69
1992.48
1989.24
1985.99
1982.72
1979.45
1976.18
1972.92
1969.68
1966.47
1963.31
1960.2
1957.17
1954.21
1951.32
1948.55
1945.97
1943.62
1941.6
1940.46
1939.18
1948.23
11463.3
2009.98
815.048
640.988
681.943
682.857
655.205
599.59
539.703
483.453
433.741
391.655
358.615
332.72
312.808
297.497
286.841
278.671
276.569
278.855
289.452
308.001
340.306
384.167
439.236
499.532
560.968
607.923
638.806
636.768
614.632
573.074
510.712
442.255
391.925
385.147
396.787
420.723
458.326
530.249
641.951
797.052
990.284
1169.1
1317.44
1449.13
1535.93
1563.42
1560.79
1512.85
1459.18
1398.47
1342.74
1294.15
1249.04
1211.06
1179.42
1154.91
1135.56
1125.63
1115.09
1108.94
1106.9
1103.2
1102.66
1102.43
1103.48
1105.29
1107.65
1110.51
1113.72
1117.23
1120.97
1124.89
1128.94
1133.1
1137.32
1141.6
1145.91
1150.24
1154.56
1158.87
1163.16
1167.42
1171.63
1175.79
1179.9
1183.94
1187.93
1191.85
1195.7
1199.51
1203.27
1207.02
1210.76
1214.55
1218.41
1222.4
1226.54
1230.85
1235.16
1239.25
1243.28
1247.15
1250.92
1254.55
1258.06
1261.44
1264.69
1267.82
1270.81
1273.68
1276.41
1279.02
1281.5
1283.84
1286.06
1288.15
1290.11
1291.95
1293.65
1295.23
1296.69
1298.03
1299.24
1300.34
1301.32
1302.18
1302.91
1303.52
1304.03
1304.4
1304.69
1304.85
1304.86
1304.65
1304.22
1303.62
1302.92
1302.12
1301.23
1300.23
1299.14
1297.95
1296.66
1295.29
1293.83
1292.29
1290.66
1288.93
1287.19
1285.3
1283.42
1281.47
1279.41
1277.37
1275.24
1273.09
1270.88
1268.65
1266.38
1264.08
1261.75
1259.41
1257.04
1254.67
1252.29
1249.9
1247.52
1245.15
1242.81
1240.52
1238.28
1236.16
1234.22
1232.57
1231.37
1231.27
1232.65
1242.98
11463.3
2038.93
1013.05
976.108
905.076
775.587
658.328
551.114
466.487
403.406
356.016
318.984
290.208
268.156
251.32
238.515
228.897
221.915
217.265
215.561
216.667
219.69
227.973
242.135
263.643
292.169
326.731
361.841
393.374
416.713
422.831
416.4
394.174
395.935
434.994
526.108
591.57
648.131
718.825
820.261
954.111
1072.06
1150.99
1219.08
1271.83
1291.96
1255.65
1211.33
1165.85
1112.18
1067.24
1025.63
991.95
963.497
940.442
921.934
907.579
897.162
889.68
884.853
881.326
879.637
879.092
878.896
879.769
881.13
883.028
885.284
887.837
890.632
893.616
896.755
900.015
903.374
906.809
910.304
913.843
917.415
921.008
924.613
928.221
931.826
935.42
938.997
942.552
946.082
949.583
953.052
956.49
959.899
963.279
966.636
969.975
973.304
976.631
979.964
983.308
986.663
990.018
993.344
996.588
999.724
1002.78
1005.73
1008.59
1011.34
1014
1016.55
1019.01
1021.36
1023.6
1025.74
1027.77
1029.7
1031.52
1033.23
1034.83
1036.33
1037.72
1038.99
1040.17
1041.23
1042.18
1043.03
1043.77
1044.41
1044.94
1045.36
1045.68
1045.89
1046
1046
1045.9
1045.69
1045.36
1044.89
1044.28
1043.56
1042.75
1041.86
1040.88
1039.82
1038.67
1037.43
1036.12
1034.73
1033.26
1031.72
1030.1
1028.41
1026.67
1024.85
1023
1021.08
1019.1
1017.09
1015.02
1012.91
1010.76
1008.57
1006.34
1004.09
1001.8
999.495
997.165
994.817
992.453
990.079
987.698
985.318
982.954
980.624
978.348
976.168
974.142
972.374
971.019
970.601
971.6
977.901
11463.3
2315.49
1471.3
1188.19
943.254
729.023
562.277
450.544
374.425
321.21
283.23
256.125
236.471
221.68
210.302
201.526
194.918
190.118
186.911
185.406
185.72
186.998
190.899
197.613
208.386
224.144
245.161
268.999
293.103
312.108
327.766
358.023
417.669
522.52
612.54
681.257
750.96
826.841
899.302
963.085
1018.59
1066.44
1096.99
1105.28
1074.68
1027.88
990.595
948.831
912.065
878.087
850.822
827.346
808.759
793.595
781.861
772.92
766.446
762.102
759.405
758.295
757.846
758.217
759.337
760.925
762.988
765.372
768.036
770.911
773.958
777.147
780.45
783.847
787.32
790.857
794.444
798.07
801.728
805.408
809.102
812.804
816.508
820.208
823.899
827.575
831.234
834.871
838.484
842.07
845.629
849.16
852.664
856.14
859.59
863.014
866.412
869.782
873.118
876.412
879.65
882.82
885.906
888.903
891.813
894.632
897.358
899.989
902.524
904.961
907.299
909.536
911.671
913.702
915.628
917.447
919.16
920.763
922.258
923.643
924.917
926.081
927.134
928.076
928.906
929.625
930.233
930.729
931.114
931.386
931.547
931.593
931.544
931.376
931.099
930.709
930.204
929.575
928.832
927.986
927.046
926.014
924.891
923.68
922.382
921.001
919.538
917.992
916.368
914.667
912.891
911.045
909.138
907.162
905.133
903.046
900.901
898.708
896.464
894.174
891.842
889.469
887.059
884.617
882.146
879.65
877.13
874.589
872.03
869.459
866.881
864.311
861.753
859.225
856.745
854.348
852.085
850.042
848.348
847.362
847.577
850.723
11463.3
2933.68
1736.34
1211.31
834.831
588.565
445.027
356.271
301.199
265.505
240.787
222.647
208.726
197.796
189.069
182.117
176.742
172.815
170.252
169.16
169.481
170.81
174.082
179.284
187.085
198.75
215.229
236.736
265.009
307.16
363.658
457.196
568.23
657.929
725.956
788.223
840.694
881.249
915.871
949.333
966.967
969.382
940.726
909.374
876.581
842.248
812.695
784.476
761.144
741.079
724.917
711.617
701.252
693.225
687.389
683.366
681.126
680.165
680.008
680.798
682.239
684.249
686.697
689.485
692.554
695.837
699.295
702.891
706.601
710.405
714.286
718.233
722.234
726.279
730.361
734.472
738.604
742.751
746.905
751.062
755.215
759.36
763.491
767.603
771.694
775.758
779.793
783.795
787.762
791.693
795.587
799.441
803.253
807.021
810.742
814.411
818.022
821.565
825.033
828.419
831.718
834.926
838.042
841.062
843.984
846.806
849.524
852.137
854.643
857.042
859.331
861.506
863.567
865.512
867.338
869.046
870.633
872.099
873.442
874.662
875.759
876.731
877.579
878.303
878.901
879.374
879.722
879.943
880.029
880.013
879.869
879.598
879.204
878.688
878.049
877.286
876.405
875.413
874.316
873.116
871.815
870.416
868.92
867.335
865.659
863.893
862.04
860.104
858.087
855.994
853.831
851.599
849.304
846.947
844.529
842.056
839.53
836.955
834.335
831.671
828.97
826.235
823.471
820.679
817.864
815.027
812.171
809.302
806.426
803.553
800.692
797.858
795.069
792.352
789.752
787.339
785.213
783.627
782.923
783.956
11463.3
3441.59
1780.86
1038.08
651.962
458.218
358.903
303.136
267.712
242.993
224.426
209.883
198.125
188.363
180.248
173.62
168.423
164.643
162.385
161.759
162.58
165.075
169.79
177.082
187.818
202.411
224.264
258.822
312.99
397.337
504.775
597.477
667.247
726.892
773.959
809.309
837.584
859.708
868.945
865.967
843.179
820.415
793.746
767.976
742.712
719.147
698.89
681.112
666.507
654.374
644.711
637.144
631.543
627.618
625.403
624.498
624.413
625.352
627.045
629.379
632.208
635.45
639.012
642.828
646.848
651.028
655.338
659.752
664.253
668.825
673.458
678.141
682.867
687.629
692.418
697.229
702.053
706.884
711.716
716.542
721.356
726.153
730.928
735.675
740.392
745.072
749.712
754.308
758.856
763.354
767.801
772.191
776.522
780.792
784.995
789.13
793.191
797.175
801.076
804.886
808.597
812.208
815.716
819.116
822.406
825.583
828.643
831.584
834.401
837.089
839.647
842.076
844.374
846.54
848.571
850.466
852.223
853.842
855.321
856.66
857.858
858.914
859.829
860.602
861.232
861.72
862.066
862.258
862.315
862.249
862.034
861.68
861.187
860.559
859.795
858.898
857.872
856.723
855.455
854.072
852.576
850.969
849.253
847.418
845.479
843.441
841.306
839.078
836.761
834.359
831.879
829.323
826.697
824.003
821.243
818.423
815.545
812.615
809.636
806.613
803.549
800.451
797.323
794.167
790.986
787.783
784.561
781.327
778.087
774.849
771.624
768.425
765.267
762.176
759.185
756.352
753.756
751.565
749.947
749.401
11463.3
3585.72
1565.81
816.976
516.542
382.427
313.612
273.655
247.934
229.793
215.833
204.087
193.821
184.928
177.375
171.23
166.678
163.888
162.812
163.345
165.693
170.469
178.219
190.775
210.714
240.669
286.843
359.715
449.021
532.077
598.068
653.739
700.268
737.269
766.917
785.731
792.33
785.59
768.489
750.591
729.545
709.63
689.454
670.407
652.581
636.773
623.326
611.965
602.723
595.338
589.712
585.67
583.197
582.111
581.932
582.779
584.48
586.935
590.005
593.586
597.579
601.912
606.514
611.334
616.328
621.462
626.71
632.05
637.468
642.948
648.481
654.058
659.67
665.311
670.974
676.65
682.332
688.012
693.682
699.336
704.966
710.567
716.133
721.659
727.14
732.573
737.95
743.267
748.518
753.703
758.818
763.858
768.819
773.7
778.495
783.202
787.818
792.344
796.766
801.078
805.274
809.351
813.307
817.136
820.838
824.407
827.841
831.137
834.291
837.301
840.166
842.882
845.448
847.861
850.12
852.223
854.168
855.955
857.581
859.046
860.349
861.491
862.47
863.287
863.941
864.432
864.758
864.907
864.918
864.771
864.461
863.992
863.368
862.591
861.663
860.587
859.367
858.009
856.517
854.895
853.146
851.274
849.28
847.171
844.949
842.616
840.178
837.638
835
832.269
829.45
826.551
823.574
820.522
817.4
814.212
810.963
807.659
804.303
800.901
797.457
793.976
790.463
786.923
783.357
779.769
776.163
772.546
768.924
765.305
761.701
758.122
754.583
751.105
747.716
744.456
741.361
738.574
736.165
734.302
11463.3
3408.44
1282.77
661.38
442.748
347.448
296.424
265.585
244.281
228.16
215.338
204.697
195.627
187.849
181.398
176.495
173.463
172.471
173.782
177.43
184.3
195.786
213.304
241.166
284.753
344.182
413.123
477.872
535.946
586.115
628.826
664.545
695.116
716.48
724.2
720.936
708.08
693.675
677.086
661.192
645.356
630.372
615.795
602.192
589.875
579.217
570.279
562.966
557.223
552.936
550.025
548.573
548.154
548.686
550.183
552.528
555.61
559.33
563.593
568.313
573.412
578.826
584.497
590.376
596.427
602.617
608.923
615.325
621.803
628.341
634.928
641.551
648.201
654.869
661.554
668.242
674.924
681.59
688.232
694.843
701.415
707.941
714.416
720.832
727.179
733.444
739.637
745.755
751.794
757.749
763.616
769.393
775.073
780.653
786.129
791.495
796.748
801.879
806.883
811.756
816.494
821.093
825.549
829.859
834.018
838.025
841.875
845.565
849.092
852.452
855.643
858.663
861.51
864.181
866.676
868.991
871.124
873.076
874.843
876.426
877.824
879.036
880.064
880.906
881.563
882.033
882.308
882.4
882.327
882.067
881.627
881.008
880.215
879.249
878.115
876.816
875.356
873.741
871.976
870.065
868.012
865.821
863.497
861.044
858.466
855.768
852.953
850.026
846.992
843.855
840.623
837.302
833.896
830.41
826.848
823.216
819.52
815.765
811.957
808.1
804.199
800.26
796.288
792.288
788.262
784.215
780.152
776.08
772.004
767.935
763.881
759.854
755.866
751.936
748.087
744.356
740.781
737.455
734.39
731.499
11463.3
2977.08
1033.31
561.546
400.061
327.526
288.695
263.296
245.866
233.028
222.708
213.979
206.568
200.565
196.322
194.512
195.251
199.416
207.051
218.598
236.145
261.766
297.221
341.558
390.013
439.346
486.16
528.28
565.828
598.007
626.304
649.975
661.01
662.429
655.391
645.036
632.111
619.403
606.935
595.204
583.842
572.935
562.492
552.885
544.392
537.203
531.349
526.793
523.494
521.533
520.768
520.847
521.986
524.035
526.928
530.582
534.911
539.834
545.274
551.159
557.426
564.013
570.865
577.935
585.186
592.583
600.107
607.745
615.458
623.228
631.04
638.877
646.72
654.547
662.32
670.063
677.792
685.499
693.175
700.808
708.393
715.921
723.386
730.782
738.105
745.355
752.511
759.561
766.5
773.325
780.032
786.618
793.078
799.408
805.603
811.659
817.571
823.335
828.948
834.406
839.705
844.839
849.805
854.6
859.221
863.663
867.924
871.999
875.885
879.579
883.078
886.38
889.482
892.384
895.083
897.578
899.865
901.944
903.814
905.474
906.923
908.162
909.191
910.011
910.622
911.018
911.195
911.182
910.963
910.538
909.911
909.086
908.067
906.855
905.455
903.872
902.111
900.178
898.078
895.816
893.397
890.827
888.11
885.251
882.256
879.129
875.877
872.503
869.012
865.411
861.706
857.904
854.011
850.032
845.973
841.841
837.643
833.384
829.07
824.705
820.295
815.845
811.363
806.851
802.314
797.758
793.188
788.613
784.037
779.47
774.921
770.4
765.92
761.495
757.146
752.902
748.792
744.888
741.171
737.333
11463.3
2496.51
886.69
518.251
385.003
323.356
289.317
269.04
255.499
245.511
237.657
231.454
227.017
225.055
225.501
229.696
237.772
248.956
263.613
283.914
310.146
341.435
376.172
412.2
447.66
481.454
512.673
540.225
565.246
588.301
602.434
606.812
605.411
599.977
591.401
581.929
572.31
563.231
554.553
546.219
538.079
530.211
522.787
516.092
510.339
505.653
502.074
499.617
498.412
498.134
498.838
500.498
503.09
506.546
510.803
515.786
521.423
527.644
534.383
541.578
549.19
557.15
565.392
573.867
582.533
591.344
600.239
609.144
618.123
627.171
636.268
645.395
654.526
663.644
672.751
681.825
690.852
699.831
708.739
717.568
726.313
734.969
743.531
751.992
760.343
768.572
776.669
784.628
792.444
800.116
807.641
815.014
822.232
829.289
836.182
842.906
849.459
855.836
862.035
868.05
873.877
879.51
884.947
890.184
895.218
900.045
904.662
909.065
913.251
917.216
920.959
924.475
927.765
930.827
933.658
936.259
938.625
940.756
942.652
944.311
945.733
946.92
947.872
948.589
949.074
949.314
949.328
949.115
948.673
948.004
947.113
946.002
944.677
943.141
941.397
939.453
937.314
934.986
932.474
929.786
926.927
923.904
920.722
917.386
913.903
910.279
906.52
902.632
898.62
894.49
890.249
885.904
881.462
876.931
872.317
867.628
862.872
858.054
853.181
848.257
843.286
838.275
833.231
828.157
823.06
817.947
812.825
807.7
802.579
797.471
792.383
787.326
782.311
777.351
772.464
767.675
763.004
758.509
754.162
749.469
11463.3
2078.95
786.728
487.38
377.337
324.819
297.209
280.993
270.574
263.456
258.559
256.027
255.514
257.845
263.657
273.012
285.384
300.535
319.231
341.261
365.79
391.77
418.169
444.096
468.821
491.518
512.792
533.128
548.276
555.22
556.895
556.237
552.23
546.538
540.019
533.468
527.103
520.992
515.015
509.126
503.338
497.792
492.691
488.262
484.674
482.024
480.502
479.979
480.369
481.758
484.097
487.358
491.51
496.528
502.372
508.931
516.139
523.933
532.24
540.973
550.001
559.319
568.954
578.873
589.037
599.402
609.938
620.639
631.428
642.257
653.096
663.928
674.704
685.388
695.967
706.42
716.734
726.901
736.941
746.863
756.668
766.358
775.932
785.38
794.692
803.851
812.845
821.665
830.307
838.77
847.052
855.149
863.056
870.769
878.283
885.595
892.703
899.604
906.295
912.77
919.025
925.055
930.855
936.424
941.759
946.856
951.714
956.327
960.693
964.809
968.672
972.281
975.634
978.732
981.572
984.154
986.476
988.537
990.335
991.872
993.148
994.162
994.919
995.416
995.657
995.638
995.366
994.843
994.07
993.05
991.788
990.288
988.554
986.592
984.406
982.003
979.39
976.573
973.559
970.355
966.968
963.405
959.673
955.778
951.727
947.528
943.186
938.709
934.103
929.374
924.529
919.575
914.52
909.374
904.146
898.843
893.474
888.044
882.558
877.023
871.441
865.819
860.163
854.479
848.776
843.061
837.341
831.625
825.918
820.227
814.561
808.927
803.338
797.805
792.346
786.981
781.725
776.625
771.66
766.174
11463.3
1943.25
769.214
484.252
380.221
333.496
309.778
296.552
288.735
284.383
282.645
282.67
285.489
291.135
299.589
310.583
323.814
339.305
356.703
375.405
394.794
414.21
433.077
451.077
468.521
485.546
499.64
508.17
512.297
513.738
513.75
511.87
508.706
504.945
500.951
496.938
492.942
488.954
484.959
481.002
477.192
473.695
470.697
468.379
466.998
466.524
466.982
468.573
471.103
474.558
478.916
484.144
490.181
496.909
504.234
512.288
521.054
530.476
540.492
551.043
562.106
573.611
585.482
597.665
610.113
622.768
635.576
648.506
661.471
674.371
687.14
699.705
712.047
724.15
736.005
747.607
758.963
770.098
781.047
791.843
802.498
813.021
823.419
833.681
843.786
853.707
863.426
872.934
882.228
891.307
900.169
908.811
917.227
925.411
933.36
941.071
948.543
955.775
962.762
969.501
975.986
982.213
988.177
993.878
999.313
1004.48
1009.38
1014
1018.35
1022.42
1026.2
1029.71
1032.93
1035.87
1038.53
1040.91
1043.01
1044.81
1046.34
1047.58
1048.54
1049.21
1049.6
1049.72
1049.56
1049.13
1048.42
1047.44
1046.19
1044.68
1042.91
1040.89
1038.62
1036.1
1033.35
1030.37
1027.17
1023.75
1020.13
1016.3
1012.28
1008.08
1003.7
999.154
994.445
989.581
984.571
979.424
974.145
968.742
963.223
957.589
951.854
946.031
940.129
934.155
928.117
922.02
915.871
909.672
903.43
897.149
890.833
884.494
878.14
871.781
865.425
859.078
852.746
846.435
840.153
833.906
827.706
821.568
815.506
809.538
803.675
797.956
792.378
786.145
11463.3
1884.51
746.123
482.011
387.488
345.405
324.658
313.6
307.696
305.111
304.591
306.535
311.082
317.894
326.687
337.145
349.011
362.018
375.812
389.975
404.092
418.031
431.956
445.591
457.318
465.499
471.231
475.085
477.129
477.931
478.043
477.247
475.871
474.184
472.316
470.337
468.286
466.212
464.197
462.392
461.031
460.258
460.037
460.531
461.877
464.045
466.956
470.398
474.752
480.091
486.416
493.704
501.921
511.058
521.115
532.012
543.709
556.126
569.181
582.804
596.937
611.492
626.374
641.513
656.872
672.355
687.821
703.14
718.222
733.01
747.438
761.449
775.009
788.106
800.739
812.912
824.68
836.115
847.326
858.399
869.339
880.172
890.924
901.571
912.067
922.349
932.396
942.207
951.776
961.1
970.175
978.996
987.558
995.854
1003.88
1011.64
1019.12
1026.33
1033.27
1039.93
1046.31
1052.4
1058.2
1063.7
1068.92
1073.83
1078.46
1082.78
1086.81
1090.53
1093.95
1097.07
1099.88
1102.39
1104.59
1106.5
1108.11
1109.42
1110.42
1111.12
1111.53
1111.63
1111.45
1110.98
1110.21
1109.15
1107.81
1106.19
1104.29
1102.11
1099.67
1096.96
1093.99
1090.78
1087.31
1083.61
1079.69
1075.54
1071.17
1066.6
1061.84
1056.88
1051.75
1046.44
1040.97
1035.35
1029.58
1023.67
1017.64
1011.48
1005.21
998.824
992.344
985.783
979.15
972.45
965.688
958.872
952.005
945.094
938.143
931.157
924.137
917.1
910.058
903.02
895.992
888.98
881.988
875.024
868.092
861.199
854.359
847.588
840.898
834.305
827.816
821.462
815.274
808.333
11463.3
1850.79
744.325
488.835
398.845
359.125
339.607
329.316
324.063
321.958
321.715
324.135
328.787
335.165
342.859
351.538
360.999
371.014
381.348
391.803
402.541
412.919
421.845
429.193
435.209
440.405
444.489
447.685
450.179
452.177
453.843
455.256
456.42
457.352
458.115
458.775
459.395
460.047
460.791
461.657
462.528
463.84
465.913
469.012
473.184
478.357
484.54
491.859
500.249
509.739
520.337
531.995
544.659
558.294
572.861
588.3
604.643
621.647
639.164
657.081
675.287
693.672
712.121
730.516
748.713
766.613
784.157
801.243
817.765
833.622
848.725
863.049
876.598
889.402
901.493
912.83
923.571
933.863
943.99
954.202
964.349
974.492
984.733
994.979
1005.13
1015.12
1024.9
1034.44
1043.72
1052.72
1061.46
1069.91
1078.08
1085.96
1093.54
1100.81
1107.79
1114.47
1120.86
1126.95
1132.73
1138.21
1143.37
1148.21
1152.75
1156.97
1160.88
1164.48
1167.76
1170.72
1173.37
1175.69
1177.7
1179.39
1180.77
1181.86
1182.63
1183.09
1183.22
1183.07
1182.62
1181.85
1180.78
1179.43
1177.77
1175.83
1173.6
1171.08
1168.29
1165.21
1161.87
1158.25
1154.38
1150.26
1145.89
1141.28
1136.44
1131.38
1126.11
1120.63
1114.96
1109.1
1103.06
1096.86
1090.49
1083.98
1077.32
1070.53
1063.62
1056.59
1049.46
1042.25
1034.97
1027.62
1020.2
1012.72
1005.18
997.596
989.963
982.291
974.586
966.853
959.09
951.323
943.563
935.815
928.085
920.377
912.698
905.052
897.442
889.877
882.374
874.948
867.611
860.376
853.248
846.25
839.453
831.839
11463.3
1829.6
744.534
497.484
408.894
370.184
351.406
341.1
335.628
333.36
332.965
334.958
338.871
344.142
350.364
357.286
364.795
372.777
381.01
388.982
396.586
403.751
410.722
417.214
423.324
429.123
434.578
439.724
444.546
449.006
453.041
456.456
459.506
462.453
465.393
468.414
471.604
475.063
478.893
483.227
488.317
494.316
501.451
510.007
519.831
530.768
542.854
556.152
570.606
586.227
603.153
621.144
640.016
659.629
679.844
700.494
721.355
742.394
763.508
784.58
805.497
826.154
846.456
866.316
885.651
904.393
922.485
939.861
956.441
972.106
986.704
1000.33
1013.08
1025.04
1036.28
1046.85
1056.78
1066.09
1074.92
1083.42
1091.71
1100.11
1109.05
1118.12
1127.13
1136.02
1144.71
1153.13
1161.27
1169.12
1176.67
1183.93
1190.89
1197.54
1203.87
1209.88
1215.58
1220.98
1226.09
1230.89
1235.38
1239.56
1243.42
1246.96
1250.19
1253.1
1255.71
1258.01
1259.99
1261.67
1263.03
1264.07
1264.79
1265.21
1265.31
1265.15
1264.69
1263.9
1262.81
1261.44
1259.77
1257.8
1255.55
1253.02
1250.2
1247.11
1243.74
1240.1
1236.19
1232.01
1227.57
1222.87
1217.92
1212.73
1207.31
1201.65
1195.78
1189.7
1183.41
1176.92
1170.25
1163.4
1156.38
1149.2
1141.88
1134.41
1126.8
1119.08
1111.24
1103.3
1095.26
1087.16
1079
1070.78
1062.5
1054.16
1045.77
1037.33
1028.85
1020.35
1011.82
1003.28
994.754
986.241
977.744
969.265
960.81
952.383
943.99
935.639
927.329
919.075
910.896
902.806
894.812
886.927
879.156
871.511
864.109
855.861
11463.3
1818.79
748.344
503.137
415.459
377.881
359.291
348.783
343.113
340.685
340.174
341.883
345.434
350.335
356.162
362.7
369.771
377.2
384.914
392.998
401.055
408.968
416.875
424.706
432.524
440.355
448.215
456.124
463.988
471.755
479.501
487.348
495.373
503.634
512.228
521.255
530.823
541.05
552.049
563.95
576.901
590.934
606.047
622.08
639.034
657.032
676.123
696.36
717.633
739.753
762.444
785.889
809.798
833.904
858.011
881.922
905.469
928.525
950.972
972.707
993.658
1013.79
1033.06
1051.48
1069.01
1085.69
1101.51
1116.5
1130.65
1143.99
1156.57
1168.27
1179.17
1189.48
1199.27
1208.64
1217.45
1225.62
1233.11
1239.89
1246.41
1253.24
1260.27
1267.2
1273.94
1280.44
1286.67
1292.63
1298.3
1303.7
1308.82
1313.67
1318.24
1322.52
1326.51
1330.22
1333.65
1336.82
1339.73
1342.39
1344.77
1346.86
1348.67
1350.21
1351.47
1352.47
1353.19
1353.64
1353.81
1353.72
1353.36
1352.69
1351.75
1350.55
1349.08
1347.35
1345.36
1343.11
1340.58
1337.79
1334.74
1331.43
1327.87
1324.05
1319.99
1315.68
1311.13
1306.33
1301.29
1296
1290.48
1284.73
1278.75
1272.55
1266.15
1259.53
1252.72
1245.71
1238.52
1231.15
1223.6
1215.9
1208.03
1200.03
1191.88
1183.61
1175.21
1166.7
1158.08
1149.36
1140.55
1131.65
1122.69
1113.65
1104.55
1095.39
1086.18
1076.93
1067.65
1058.33
1049
1039.67
1030.36
1021.07
1011.8
1002.56
993.336
984.15
975.006
965.912
956.891
947.954
939.105
930.353
921.706
913.175
904.767
896.486
888.488
879.657
11463.3
1810.36
751.375
506.901
419.126
383.697
365.638
355.768
351.519
350.035
350.563
353.586
358.323
364.361
371.716
380.531
389.963
399.862
410.736
422.719
435.305
448.192
461.722
475.896
490.715
506.126
522.126
538.648
555.715
573.333
591.539
610.354
629.738
649.645
670.119
691.216
713.046
735.771
759.414
783.899
809.117
834.954
861.252
887.839
914.665
941.77
969.224
997.45
1026.05
1054.35
1081.9
1108.3
1133.56
1157.67
1180.54
1202.1
1222.27
1240.98
1258.26
1274.11
1288.61
1301.8
1313.81
1324.67
1334.5
1343.36
1351.35
1358.54
1365.06
1371.06
1376.86
1382.45
1387.87
1393.03
1397.89
1402.43
1406.49
1410.12
1413.59
1417.17
1421.16
1425.16
1428.56
1431.49
1434.1
1436.46
1438.61
1440.57
1442.35
1443.95
1445.35
1446.57
1447.59
1448.41
1449.05
1449.5
1449.79
1449.91
1449.86
1449.66
1449.23
1448.62
1447.81
1446.81
1445.62
1444.25
1442.69
1440.93
1438.96
1436.78
1434.41
1431.81
1429.01
1426.01
1422.81
1419.4