/*--------------------------------*- C++ -*----------------------------------*\
  =========                 |
  \\      /  F ield         | OpenFOAM: The Open Source CFD Toolbox
   \\    /   O peration     | Website:  https://openfoam.org
    \\  /    A nd           | Version:  8
     \\/     M anipulation  |
\*---------------------------------------------------------------------------*/
FoamFile
{
    version     2.0;
    format      ascii;
    class       volScalarField;
    location    "1400";
    object      p;
}
// * * * * * * * * * * * * * * * * * * * * * * * * * * * * * * * * * * * * * //

dimensions      [0 2 -2 0 0 0 0];

internalField   nonuniform List<scalar> 
12225
(
-4.20727
-5.08515
-5.47153
-5.59922
-5.74052
-5.89637
-6.02479
-6.12581
-6.21318
-6.29807
-6.38022
-6.45723
-6.52845
-6.59581
-6.66379
-6.73249
-6.81299
-6.90124
-4.46973
-5.10848
-5.43533
-5.56091
-5.69902
-5.85624
-5.99027
-6.09511
-6.18196
-6.26725
-6.35299
-6.43123
-6.50589
-6.57615
-6.63977
-6.7073
-6.77779
-6.83551
-4.67311
-5.11028
-5.42035
-5.57047
-5.71031
-5.86164
-5.99238
-6.09559
-6.18318
-6.26858
-6.35251
-6.42969
-6.50173
-6.5684
-6.63018
-6.69253
-6.75316
-6.80074
-4.82407
-5.13957
-5.43217
-5.5894
-5.72003
-5.8589
-5.98322
-6.08497
-6.17319
-6.25779
-6.33966
-6.41539
-6.48567
-6.55106
-6.61216
-6.67118
-6.72633
-6.7709
-4.9551
-5.19021
-5.45165
-5.60714
-5.73087
-5.86065
-5.98041
-6.08116
-6.16926
-6.2524
-6.33194
-6.40591
-6.47459
-6.53839
-6.59767
-6.65334
-6.70407
-6.74557
-5.07388
-5.24693
-5.47127
-5.62312
-5.74312
-5.86539
-5.98003
-6.07861
-6.16552
-6.24679
-6.324
-6.39604
-6.46287
-6.52468
-6.58178
-6.63445
-6.68173
-6.72116
-5.18093
-5.30645
-5.49451
-5.63961
-5.75563
-5.87037
-5.97922
-6.07505
-6.16041
-6.23988
-6.31493
-6.385
-6.44987
-6.50971
-6.56472
-6.61494
-6.6598
-6.69805
-5.2634
-5.3591
-5.51901
-5.65532
-5.76685
-5.87517
-5.97878
-6.07177
-6.15537
-6.23306
-6.30614
-6.37434
-6.43747
-6.49563
-6.54898
-6.5975
-6.64087
-6.67836
-5.33064
-5.40635
-5.54326
-5.67036
-5.77743
-5.88009
-5.97888
-6.06901
-6.15073
-6.22661
-6.29781
-6.36426
-6.42578
-6.48247
-6.53443
-6.58162
-6.62391
-6.66082
-5.39772
-5.45717
-5.57184
-5.68796
-5.78956
-5.8862
-5.97967
-6.06636
-6.14574
-6.21947
-6.28857
-6.35306
-6.41283
-6.46793
-6.5184
-6.56426
-6.60548
-6.64179
-5.46382
-5.51012
-5.60445
-5.70826
-5.80329
-5.89362
-5.98137
-6.06405
-6.14059
-6.21185
-6.2786
-6.34095
-6.3988
-6.45215
-6.50106
-6.54555
-6.58571
-6.62139
-5.52761
-5.56371
-5.64032
-5.73117
-5.81857
-5.90234
-5.98411
-6.06225
-6.13546
-6.20391
-6.26809
-6.3281
-6.38386
-6.43535
-6.48262
-6.52572
-6.5648
-6.5998
-5.58795
-5.61618
-5.678
-5.7561
-5.83513
-5.91216
-5.98781
-6.06103
-6.13045
-6.19578
-6.25716
-6.31467
-6.3682
-6.41774
-6.46331
-6.50503
-6.54302
-6.57731
-5.64312
-5.66548
-5.71545
-5.78184
-5.85229
-5.92252
-5.99213
-6.06022
-6.12557
-6.18751
-6.24596
-6.30083
-6.35208
-6.39961
-6.44351
-6.48383
-6.52077
-6.55432
-5.69119
-5.70921
-5.75006
-5.80646
-5.86878
-5.93247
-5.99634
-6.05944
-6.12063
-6.17912
-6.23457
-6.28682
-6.33578
-6.38137
-6.42364
-6.46266
-6.49855
-6.53142
-5.72936
-5.74433
-5.77861
-5.8272
-5.8826
-5.9405
-5.99929
-6.0579
-6.11523
-6.17045
-6.22308
-6.27288
-6.31972
-6.36352
-6.4043
-6.44212
-6.47707
-6.50928
-5.75373
-5.76677
-5.79687
-5.84027
-5.89072
-5.94428
-5.99921
-6.05433
-6.10861
-6.16116
-6.21147
-6.25924
-6.30432
-6.34663
-6.38617
-6.42298
-6.45717
-6.48885
-5.75797
-5.77037
-5.79911
-5.8407
-5.88921
-5.94093
-5.99406
-6.04755
-6.10026
-6.15142
-6.20041
-6.24702
-6.29104
-6.33245
-6.3712
-6.4074
-6.4411
-6.47246
-5.74161
-5.75471
-5.78494
-5.82819
-5.87801
-5.93054
-5.98426
-6.0381
-6.09104
-6.14219
-6.1911
-6.23749
-6.28129
-6.32241
-6.36093
-6.39689
-6.43043
-6.46165
-5.7099
-5.72487
-5.75912
-5.80695
-5.8605
-5.91587
-5.97188
-6.02766
-6.08207
-6.1343
-6.18393
-6.23084
-6.27494
-6.31626
-6.35485
-6.39087
-6.42441
-6.45568
-5.66609
-5.68433
-5.72531
-5.78037
-5.83944
-5.89893
-5.95848
-6.01727
-6.07403
-6.12797
-6.17886
-6.22668
-6.27142
-6.31316
-6.35202
-6.38819
-6.42184
-6.45319
-5.61215
-5.63549
-5.68653
-5.7512
-5.81687
-5.88128
-5.94524
-6.00778
-6.06737
-6.12338
-6.17582
-6.22476
-6.27029
-6.31253
-6.35171
-6.38805
-6.42181
-6.45322
-5.54891
-5.58026
-5.64547
-5.7217
-5.79425
-5.86401
-5.93305
-5.99977
-6.06239
-6.12061
-6.17471
-6.22487
-6.27119
-6.31393
-6.35336
-6.38984
-6.42361
-6.45504
-5.4766
-5.52049
-5.60495
-5.69357
-5.77239
-5.84781
-5.9225
-5.99354
-6.05913
-6.11953
-6.1753
-6.22663
-6.2737
-6.31684
-6.35645
-6.39295
-6.42669
-6.45805
-5.39454
-5.45803
-5.56792
-5.66837
-5.75186
-5.83296
-5.91358
-5.98888
-6.05727
-6.11977
-6.17714
-6.22956
-6.27726
-6.32067
-6.36029
-6.39665
-6.43018
-6.46137
-5.30237
-5.39451
-5.5357
-5.64649
-5.73326
-5.81973
-5.90579
-5.98474
-6.0556
-6.1201
-6.17909
-6.23267
-6.28109
-6.32486
-6.36457
-6.40084
-6.43422
-6.4654
-5.20022
-5.33373
-5.5054
-5.62299
-5.71434
-5.80788
-5.89941
-5.98147
-6.05436
-6.12047
-6.18065
-6.23498
-6.28378
-6.32761
-6.36712
-6.40311
-6.43622
-6.46723
-5.07878
-5.28832
-5.48104
-5.59356
-5.68983
-5.79416
-5.89379
-5.98089
-6.05754
-6.12663
-6.18899
-6.24468
-6.29417
-6.33811
-6.37723
-6.41256
-6.44523
-6.47667
-4.89466
-5.26495
-5.48946
-5.58526
-5.67685
-5.78529
-5.88805
-5.97662
-6.05468
-6.12536
-6.18917
-6.246
-6.29623
-6.34046
-6.37929
-6.41342
-6.44414
-6.47283
-4.63134
-5.19013
-5.47975
-5.58568
-5.68484
-5.80158
-5.90975
-6.00103
-6.08046
-6.15198
-6.21623
-6.27325
-6.32332
-6.367
-6.40476
-6.4364
-6.4627
-6.48407
-7.42507
-7.42518
-7.42523
-7.42522
-7.42491
-7.4237
-7.42119
-7.41785
-7.41467
-7.41265
-7.41278
-7.41525
-7.41956
-7.42493
-7.4306
-7.4359
-7.44026
-7.44326
-7.44489
-7.44548
-7.44532
-7.44459
-7.44355
-7.4425
-7.44166
-7.44116
-7.44094
-7.44084
-7.44065
-7.44029
-7.43975
-7.43906
-7.43816
-7.43698
-7.43558
-7.43424
-7.43358
-7.43429
-7.43649
-7.43952
-7.44246
-7.44478
-7.44662
-7.44839
-7.4505
-7.45348
-7.45701
-7.46007
-7.46228
-7.4657
-7.47412
-7.49163
-7.51843
-7.5531
-7.59505
-7.64486
-7.7029
-7.76774
-7.83756
-7.91046
-7.98412
-8.05649
-8.12653
-8.19329
-8.25575
-8.31357
-8.3666
-8.41479
-8.4582
-8.49691
-8.53103
-8.56066
-8.58588
-8.60674
-8.6233
-8.63556
-8.64351
-8.64715
-8.64642
-8.64129
-8.63169
-8.61758
-8.59888
-8.57556
-8.54752
-8.51472
-8.47703
-8.43439
-8.38668
-8.33387
-8.27592
-8.21277
-8.14435
-8.07058
-7.99142
-7.90681
-7.81673
-7.72124
-7.62039
-7.51405
-7.40174
-7.2834
-7.15923
-7.02929
-6.89362
-6.75224
-6.60516
-6.45244
-6.29411
-6.13022
-5.96085
-5.78607
-5.60597
-5.42063
-5.2302
-5.03476
-4.83447
-4.62946
-4.41989
-4.20591
-3.98772
-3.76548
-3.53939
-3.30965
-3.07648
-2.84006
-2.60065
-2.35847
-2.11378
-1.8668
-1.61776
-1.36686
-1.11436
-0.860497
-0.605603
-0.349974
-0.0937731
0.1631
0.420495
0.678036
0.93546
1.19254
1.44908
1.7049
1.95985
2.21376
2.46652
2.71796
2.96794
3.21631
3.46294
3.70771
3.9505
4.1912
4.42969
4.66588
4.89968
5.13103
5.35985
5.58607
5.80965
6.03052
6.2486
6.46384
6.67616
6.88547
7.09172
7.29481
7.49467
7.69122
7.88436
8.07399
8.26001
8.44229
8.62071
8.79521
8.966
9.13295
9.2991
9.45556
-7.42628
-7.42646
-7.42682
-7.4272
-7.42719
-7.42637
-7.42445
-7.42199
-7.42024
-7.42014
-7.42199
-7.42562
-7.43052
-7.43603
-7.44154
-7.44655
-7.45069
-7.45377
-7.45558
-7.45593
-7.45491
-7.45284
-7.45017
-7.44738
-7.44488
-7.44297
-7.44168
-7.44084
-7.44018
-7.43957
-7.43898
-7.4384
-7.43777
-7.437
-7.43603
-7.43529
-7.4355
-7.43717
-7.44011
-7.44333
-7.44568
-7.44671
-7.44687
-7.44619
-7.44484
-7.44436
-7.44718
-7.45365
-7.46014
-7.46685
-7.47738
-7.49314
-7.51549
-7.54741
-7.59112
-7.64638
-7.71057
-7.78103
-7.85518
-7.93031
-8.00438
-8.07643
-8.14508
-8.20912
-8.26861
-8.32349
-8.37374
-8.41945
-8.4607
-8.4976
-8.53023
-8.55866
-8.58294
-8.60309
-8.61912
-8.63102
-8.63875
-8.64228
-8.64155
-8.63651
-8.62707
-8.61318
-8.59477
-8.57178
-8.54413
-8.51176
-8.47457
-8.43247
-8.38536
-8.3332
-8.27596
-8.21357
-8.14595
-8.07302
-7.99473
-7.91097
-7.82168
-7.72675
-7.62604
-7.5195
-7.40738
-7.28975
-7.16645
-7.03744
-6.90271
-6.76227
-6.61615
-6.46438
-6.307
-6.14407
-5.97564
-5.80179
-5.62261
-5.4382
-5.24865
-5.0541
-4.85467
-4.6505
-4.44175
-4.22857
-4.01115
-3.78965
-3.56427
-3.33521
-3.10268
-2.86689
-2.62805
-2.38641
-2.14221
-1.89568
-1.64705
-1.3965
-1.14426
-0.890573
-0.635659
-0.379725
-0.123034
0.134037
0.391319
0.648752
0.906087
1.16311
1.41962
1.67545
1.93042
2.18439
2.43721
2.68875
2.93883
3.18733
3.4341
3.67903
3.922
4.16289
4.4016
4.63801
4.87205
5.10364
5.33271
5.55919
5.78302
6.00415
6.2225
6.43802
6.65062
6.86022
7.06676
7.27016
7.47034
7.66721
7.8607
8.0507
8.23715
8.41997
8.59905
8.77433
8.94597
9.11332
9.2815
9.43727
-7.42758
-7.42757
-7.4276
-7.42768
-7.42776
-7.4278
-7.42802
-7.42894
-7.43105
-7.43448
-7.43902
-7.44432
-7.44995
-7.45549
-7.46054
-7.46482
-7.46813
-7.47034
-7.47139
-7.47121
-7.46983
-7.46739
-7.46405
-7.46002
-7.45557
-7.45096
-7.4465
-7.44245
-7.43903
-7.43632
-7.43425
-7.43261
-7.43114
-7.42986
-7.42923
-7.42995
-7.43257
-7.43688
-7.44148
-7.44451
-7.44462
-7.44263
-7.44063
-7.44017
-7.44083
-7.4425
-7.44768
-7.45772
-7.47191
-7.49079
-7.51527
-7.54552
-7.58196
-7.62512
-7.67515
-7.73128
-7.7919
-7.85541
-7.92034
-7.98523
-8.04906
-8.11115
-8.17081
-8.22735
-8.28052
-8.33015
-8.37612
-8.41837
-8.45686
-8.49159
-8.52253
-8.54966
-8.57297
-8.59242
-8.60796
-8.61955
-8.62713
-8.63063
-8.62998
-8.62511
-8.61594
-8.6024
-8.58439
-8.56186
-8.53472
-8.50291
-8.46633
-8.42488
-8.37849
-8.32709
-8.27064
-8.20909
-8.14234
-8.07033
-7.99299
-7.91025
-7.82203
-7.72824
-7.62877
-7.52353
-7.41262
-7.29611
-7.17394
-7.04609
-6.91253
-6.77329
-6.62836
-6.4778
-6.32162
-6.15989
-5.99266
-5.82002
-5.64202
-5.45879
-5.27041
-5.07701
-4.87871
-4.67566
-4.46799
-4.25588
-4.03948
-3.81898
-3.59457
-3.36645
-3.1348
-2.89987
-2.66185
-2.42098
-2.17751
-1.93166
-1.68366
-1.4337
-1.18201
-0.928847
-0.67445
-0.419035
-0.16283
0.0938576
0.350842
0.607992
0.865073
1.12188
1.37821
1.63389
1.88875
2.14264
2.39541
2.6469
2.89698
3.14548
3.39229
3.63727
3.88032
4.12131
4.36013
4.59667
4.83086
5.06259
5.29181
5.51845
5.74243
5.96371
6.18221
6.39786
6.6106
6.82035
7.02702
7.23054
7.43084
7.62783
7.82143
8.01155
8.19809
8.38096
8.56015
8.73564
8.90793
9.07581
9.24672
9.39844
-7.42871
-7.42843
-7.42807
-7.42809
-7.42927
-7.43202
-7.43614
-7.44125
-7.44702
-7.45314
-7.45931
-7.46526
-7.4708
-7.47572
-7.47985
-7.48307
-7.48527
-7.48639
-7.4864
-7.48527
-7.48301
-7.47971
-7.47544
-7.4703
-7.46438
-7.45782
-7.45082
-7.44365
-7.43669
-7.43029
-7.42473
-7.4202
-7.41697
-7.41551
-7.41656
-7.4204
-7.42602
-7.43141
-7.43504
-7.43651
-7.43635
-7.43608
-7.43729
-7.44077
-7.44703
-7.45683
-7.47103
-7.49029
-7.51473
-7.54402
-7.57769
-7.61544
-7.65704
-7.70228
-7.75099
-7.80282
-7.85718
-7.91329
-7.97033
-8.02743
-8.08388
-8.13906
-8.19242
-8.24353
-8.29205
-8.33775
-8.38043
-8.41996
-8.45625
-8.48919
-8.51872
-8.54476
-8.56724
-8.58609
-8.60122
-8.61256
-8.62002
-8.62351
-8.62296
-8.61827
-8.60936
-8.59613
-8.57851
-8.55642
-8.52977
-8.49849
-8.46249
-8.42167
-8.37594
-8.32525
-8.26956
-8.20878
-8.14284
-8.07165
-7.99515
-7.91325
-7.82587
-7.73296
-7.63442
-7.53023
-7.4204
-7.30496
-7.18386
-7.05709
-6.92462
-6.78648
-6.64266
-6.49321
-6.33815
-6.17753
-6.01142
-5.83988
-5.66299
-5.48084
-5.29355
-5.10121
-4.90396
-4.70194
-4.49528
-4.28415
-4.06871
-3.84915
-3.62564
-3.39838
-3.16758
-2.93345
-2.6962
-2.45606
-2.21328
-1.96808
-1.72068
-1.47129
-1.22013
-0.967465
-0.713543
-0.4586
-0.202853
0.0534592
0.310147
0.567022
0.823858
1.08045
1.3366
1.59213
1.84688
2.10068
2.35339
2.60484
2.85488
3.10338
3.3502
3.59522
3.83833
4.07939
4.3183
4.55495
4.78925
5.0211
5.25045
5.47721
5.70133
5.92273
6.14135
6.35713
6.56998
6.77984
6.98661
7.19022
7.3906
7.58765
7.78131
7.9715
8.15813
8.34113
8.5205
8.69618
8.86883
9.03666
9.2083
9.3538
-7.43102
-7.43043
-7.43005
-7.43151
-7.43579
-7.44216
-7.44955
-7.45725
-7.4648
-7.47187
-7.47831
-7.48406
-7.48906
-7.49325
-7.49655
-7.49888
-7.50016
-7.50035
-7.49942
-7.49735
-7.49416
-7.48986
-7.48452
-7.47819
-7.47093
-7.46281
-7.45392
-7.44447
-7.43479
-7.42537
-7.41683
-7.40995
-7.40572
-7.40509
-7.40806
-7.41283
-7.41771
-7.42194
-7.42532
-7.42827
-7.43156
-7.43633
-7.44358
-7.45429
-7.46926
-7.48882
-7.51253
-7.53983
-7.57046
-7.60409
-7.64046
-7.67952
-7.7212
-7.76542
-7.81198
-7.86058
-7.91076
-7.962
-8.01373
-8.06537
-8.11643
-8.16643
-8.21498
-8.26173
-8.30639
-8.34871
-8.38851
-8.4256
-8.45985
-8.49112
-8.5193
-8.54426
-8.5659
-8.58411
-8.59877
-8.60979
-8.61705
-8.62045
-8.6199
-8.61529
-8.60654
-8.59353
-8.57619
-8.55442
-8.52815
-8.49729
-8.46175
-8.42144
-8.37626
-8.32616
-8.27109
-8.21097
-8.14571
-8.07523
-7.99944
-7.91828
-7.83167
-7.73954
-7.64183
-7.53852
-7.42958
-7.31502
-7.19481
-7.06892
-6.93735
-6.8001
-6.65719
-6.50863
-6.35447
-6.19475
-6.02954
-5.85888
-5.68287
-5.50159
-5.31516
-5.12366
-4.92725
-4.72603
-4.52018
-4.30982
-4.09514
-3.8763
-3.6535
-3.42692
-3.19678
-2.96326
-2.72662
-2.48705
-2.24481
-2.00011
-1.75318
-1.50421
-1.25348
-1.0012
-0.747646
-0.493038
-0.237607
0.0184339
0.274879
0.531525
0.788155
1.04456
1.30056
1.55596
1.8106
2.06432
2.31695
2.56835
2.81836
3.06683
3.31365
3.55869
3.80182
4.04292
4.28188
4.5186
4.75297
4.98492
5.21435
5.44122
5.66543
5.88694
6.10567
6.32156
6.53451
6.74446
6.95134
7.15505
7.35553
7.55269
7.74645
7.93674
8.12349
8.30662
8.48611
8.66185
8.83446
9.0016
9.17272
9.31147
-7.43531
-7.43441
-7.43496
-7.43952
-7.44707
-7.45564
-7.46433
-7.47264
-7.48028
-7.48718
-7.49333
-7.49871
-7.50328
-7.50695
-7.50966
-7.51135
-7.51195
-7.51145
-7.50981
-7.50703
-7.50311
-7.49808
-7.49196
-7.48473
-7.47642
-7.46711
-7.45694
-7.4461
-7.43497
-7.4242
-7.41461
-7.40744
-7.40379
-7.40352
-7.40525
-7.4078
-7.41105
-7.41534
-7.42097
-7.42791
-7.43644
-7.44774
-7.46281
-7.48177
-7.50436
-7.53016
-7.55889
-7.59016
-7.62373
-7.65944
-7.69713
-7.73672
-7.7781
-7.82114
-7.86567
-7.91142
-7.9581
-8.00536
-8.05282
-8.10011
-8.14687
-8.19277
-8.2375
-8.28075
-8.32228
-8.36184
-8.39924
-8.43429
-8.46681
-8.49664
-8.52363
-8.54764
-8.56851
-8.58612
-8.60033
-8.61101
-8.61805
-8.62132
-8.62071
-8.61612
-8.60744
-8.59456
-8.57741
-8.55587
-8.52987
-8.49932
-8.46413
-8.4242
-8.37945
-8.32981
-8.27524
-8.21564
-8.15092
-8.081
-8.00579
-7.92522
-7.83922
-7.74772
-7.65067
-7.54804
-7.43979
-7.32591
-7.20638
-7.08117
-6.95028
-6.81371
-6.67147
-6.52359
-6.3701
-6.21105
-6.04649
-5.87649
-5.70112
-5.52049
-5.33467
-5.1438
-4.94798
-4.74735
-4.54206
-4.33226
-4.11811
-3.89979
-3.67749
-3.45139
-3.2217
-2.98863
-2.7524
-2.51324
-2.27137
-2.02701
-1.7804
-1.53174
-1.2813
-1.02931
-0.776013
-0.521649
-0.266438
-0.0105975
0.245657
0.502122
0.758581
1.01483
1.27069
1.52597
1.78051
2.03414
2.28669
2.53801
2.78795
3.03638
3.28315
3.52817
3.77128
4.01238
4.25134
4.48806
4.72245
4.95442
5.1839
5.4108
5.63507
5.85663
6.07541
6.29135
6.50437
6.71439
6.92133
7.12511
7.32566
7.52289
7.71672
7.90709
8.09389
8.27706
8.45656
8.63216
8.80445
8.97063
9.14096
9.27316
-7.44064
-7.44021
-7.443
-7.45033
-7.45924
-7.46809
-7.47653
-7.48441
-7.49167
-7.49827
-7.50417
-7.50928
-7.51353
-7.51685
-7.51916
-7.52042
-7.52058
-7.51962
-7.51751
-7.51426
-7.50988
-7.50439
-7.49771
-7.48978
-7.48073
-7.47075
-7.46004
-7.44889
-7.43774
-7.42736
-7.41891
-7.4132
-7.4098
-7.40782
-7.40721
-7.40841
-7.41202
-7.41798
-7.42619
-7.43729
-7.45182
-7.46975
-7.49089
-7.51498
-7.54177
-7.57092
-7.60221
-7.63548
-7.67056
-7.70727
-7.74545
-7.78498
-7.8257
-7.86751
-7.91024
-7.95371
-7.99772
-8.04203
-8.08638
-8.13052
-8.17417
-8.21706
-8.25896
-8.2996
-8.33875
-8.37621
-8.41176
-8.4452
-8.47635
-8.50502
-8.53105
-8.55426
-8.57449
-8.59159
-8.60539
-8.61577
-8.62258
-8.62569
-8.62499
-8.62036
-8.61169
-8.59888
-8.58183
-8.56043
-8.5346
-8.50426
-8.46932
-8.42967
-8.38523
-8.33593
-8.28173
-8.22251
-8.1582
-8.0887
-8.01392
-7.9338
-7.84825
-7.75723
-7.66067
-7.55853
-7.45078
-7.3374
-7.21835
-7.09362
-6.96321
-6.82711
-6.68535
-6.53793
-6.3849
-6.22631
-6.0622
-5.89264
-5.71771
-5.5375
-5.3521
-5.16163
-4.9662
-4.76597
-4.56104
-4.3516
-4.13779
-3.91981
-3.69782
-3.47202
-3.24261
-3.00982
-2.77385
-2.53494
-2.29329
-2.04916
-1.80273
-1.55428
-1.30403
-1.05223
-0.799113
-0.544921
-0.289866
-0.0341782
0.22193
0.478247
0.734565
0.990685
1.24642
1.50159
1.75602
2.00954
2.262
2.51322
2.76308
3.01141
3.25812
3.50307
3.74613
3.98717
4.22608
4.46276
4.69711
4.92905
5.1585
5.38538
5.60964
5.8312
6.05001
6.26596
6.47899
6.68903
6.89598
7.09979
7.30036
7.49762
7.69149
7.88187
8.06868
8.25182
8.43121
8.60657
8.7784
8.94352
9.11311
9.23923
-7.44479
-7.44567
-7.45114
-7.45954
-7.46811
-7.47634
-7.48422
-7.49169
-7.49867
-7.50507
-7.51078
-7.51572
-7.51978
-7.5229
-7.525
-7.52603
-7.52595
-7.52475
-7.52241
-7.51893
-7.51434
-7.50854
-7.50145
-7.49324
-7.48413
-7.47427
-7.46387
-7.45339
-7.44356
-7.43515
-7.42851
-7.42308
-7.41838
-7.41505
-7.41399
-7.41553
-7.42013
-7.42832
-7.44017
-7.45554
-7.47413
-7.49571
-7.52001
-7.54675
-7.5757
-7.60662
-7.63933
-7.67364
-7.70939
-7.74641
-7.78457
-7.82373
-7.86377
-7.90456
-7.94597
-7.98785
-8.03004
-8.07236
-8.11462
-8.1566
-8.19812
-8.23893
-8.27885
-8.31765
-8.35512
-8.39106
-8.42526
-8.45754
-8.48768
-8.51549
-8.54079
-8.5634
-8.58312
-8.5998
-8.61328
-8.62338
-8.62997
-8.63293
-8.63211
-8.6274
-8.61869
-8.60588
-8.58885
-8.56752
-8.54178
-8.51156
-8.47676
-8.43729
-8.39305
-8.34399
-8.29004
-8.2311
-8.16707
-8.09786
-8.02338
-7.94357
-7.85834
-7.76765
-7.67142
-7.56961
-7.46219
-7.34913
-7.2304
-7.10598
-6.97587
-6.84007
-6.69859
-6.55146
-6.39871
-6.24039
-6.07655
-5.90725
-5.73258
-5.55262
-5.36746
-5.17722
-4.98202
-4.782
-4.57728
-4.36804
-4.15442
-3.93661
-3.71478
-3.48914
-3.25988
-3.02722
-2.79139
-2.5526
-2.31107
-2.06704
-1.82072
-1.57238
-1.32224
-1.07056
-0.817547
-0.563462
-0.308516
-0.0529404
0.203053
0.459251
0.71545
0.971454
1.22708
1.48214
1.73646
1.98987
2.24221
2.49332
2.74306
2.9913
3.23791
3.48277
3.72573
3.96668
4.20549
4.44207
4.67633
4.90819
5.13757
5.36439
5.5886
5.81014
6.02891
6.24484
6.45784
6.66785
6.87479
7.07858
7.27914
7.4764
7.67027
7.86064
8.04742
8.23047
8.4097
8.58474
8.75607
8.92013
9.08905
9.20973
-7.44605
-7.44861
-7.45565
-7.46375
-7.47165
-7.47938
-7.48692
-7.49416
-7.501
-7.50732
-7.51298
-7.51788
-7.52192
-7.52501
-7.52709
-7.5281
-7.52802
-7.52682
-7.52449
-7.52102
-7.51637
-7.51047
-7.5034
-7.49542
-7.48672
-7.47752
-7.46828
-7.45948
-7.45153
-7.44446
-7.43807
-7.43223
-7.42729
-7.42425
-7.42397
-7.42703
-7.43381
-7.4444
-7.45852
-7.47598
-7.4965
-7.51978
-7.54557
-7.57359
-7.60361
-7.63541
-7.66879
-7.70358
-7.7396
-7.77671
-7.81477
-7.85364
-7.89321
-7.93333
-7.9739
-8.01478
-8.05584
-8.09692
-8.13786
-8.1785
-8.21865
-8.25815
-8.29679
-8.33441
-8.37079
-8.40575
-8.43908
-8.47059
-8.50006
-8.52729
-8.55209
-8.57426
-8.59362
-8.60999
-8.62319
-8.63306
-8.63945
-8.64223
-8.64127
-8.63645
-8.62766
-8.61478
-8.59772
-8.57638
-8.55065
-8.52046
-8.48572
-8.44634
-8.40222
-8.3533
-8.29951
-8.24075
-8.17689
-8.10786
-8.03357
-7.95395
-7.86892
-7.77842
-7.68237
-7.58076
-7.47352
-7.36063
-7.24206
-7.11781
-6.98785
-6.85219
-6.71086
-6.56386
-6.41124
-6.25304
-6.08933
-5.92015
-5.74559
-5.56572
-5.38067
-5.19052
-4.99541
-4.79546
-4.59083
-4.38164
-4.16809
-3.95033
-3.72855
-3.50294
-3.27373
-3.0411
-2.80531
-2.56654
-2.32505
-2.08103
-1.83476
-1.58646
-1.33639
-1.08475
-0.831806
-0.577784
-0.322917
-0.0674258
0.188471
0.444566
0.700658
0.956553
1.21206
1.46701
1.72121
1.97449
2.2267
2.47767
2.72728
2.97538
3.22187
3.46661
3.70945
3.95026
4.18894
4.42539
4.65952
4.89126
5.12053
5.34726
5.57139
5.79286
6.01157
6.22744
6.44039
6.65035
6.85723
7.06098
7.26152
7.45876
7.65261
7.84295
8.02966
8.2126
8.39162
8.56631
8.7371
8.90016
9.06847
9.18441
-7.44283
-7.44678
-7.454
-7.46155
-7.46914
-7.4767
-7.48415
-7.49138
-7.49827
-7.50468
-7.51049
-7.51557
-7.5198
-7.52309
-7.52537
-7.52658
-7.52668
-7.52563
-7.52342
-7.52005
-7.51549
-7.50977
-7.50307
-7.49567
-7.48784
-7.47989
-7.47208
-7.4645
-7.45723
-7.4504
-7.44413
-7.43876
-7.43493
-7.43338
-7.43473
-7.43938
-7.44758
-7.45936
-7.47457
-7.49301
-7.51442
-7.5385
-7.56499
-7.59361
-7.62415
-7.65638
-7.69012
-7.72517
-7.76137
-7.79859
-7.83666
-7.87544
-7.9148
-7.95463
-7.99481
-8.03521
-8.0757
-8.11615
-8.15641
-8.19634
-8.23578
-8.27458
-8.31255
-8.34953
-8.38534
-8.41977
-8.45263
-8.48372
-8.5128
-8.53969
-8.56416
-8.58604
-8.60512
-8.62123
-8.63418
-8.64383
-8.65002
-8.65261
-8.6515
-8.64654
-8.63764
-8.62467
-8.60753
-8.58612
-8.56034
-8.53012
-8.49537
-8.45601
-8.41194
-8.36308
-8.30937
-8.25068
-8.18692
-8.11797
-8.04377
-7.96423
-7.87928
-7.78885
-7.69288
-7.59133
-7.48415
-7.37132
-7.2528
-7.12858
-6.99866
-6.86303
-6.72171
-6.57473
-6.42212
-6.26394
-6.10023
-5.93105
-5.75649
-5.57663
-5.39156
-5.2014
-5.00628
-4.80631
-4.60165
-4.39244
-4.17886
-3.96106
-3.73924
-3.51359
-3.28433
-3.05167
-2.81583
-2.57703
-2.3355
-2.09147
-1.84518
-1.5969
-1.34683
-1.09521
-0.842301
-0.588322
-0.333515
-0.078097
0.177713
0.433713
0.6897
0.945485
1.20088
1.45569
1.70975
1.96288
2.21493
2.46574
2.71518
2.96313
3.20948
3.45408
3.69676
3.93741
4.17591
4.41219
4.64616
4.87774
5.10686
5.33346
5.55748
5.77886
5.9975
6.21329
6.42615
6.63602
6.84284
7.04653
7.24702
7.44422
7.63804
7.82833
8.01495
8.19774
8.37654
8.55084
8.72109
8.88319
9.05093
9.16287
-7.43315
-7.43777
-7.44471
-7.45225
-7.46004
-7.46781
-7.47545
-7.4829
-7.49006
-7.49678
-7.50293
-7.50836
-7.51293
-7.51654
-7.51912
-7.52061
-7.52095
-7.52014
-7.51818
-7.51506
-7.51086
-7.50569
-7.49976
-7.49326
-7.48635
-7.47919
-7.47194
-7.46474
-7.45773
-7.45119
-7.44555
-7.44123
-7.43869
-7.43848
-7.44111
-7.44694
-7.45614
-7.46876
-7.48469
-7.50374
-7.52566
-7.55018
-7.57704
-7.60601
-7.63687
-7.66941
-7.70344
-7.73878
-7.77525
-7.81269
-7.85094
-7.88987
-7.92934
-7.96924
-8.00943
-8.04979
-8.09019
-8.13051
-8.17062
-8.21038
-8.24964
-8.28823
-8.326
-8.36277
-8.39836
-8.43259
-8.46526
-8.49615
-8.52506
-8.55176
-8.57606
-8.59774
-8.61662
-8.63252
-8.64525
-8.65468
-8.66066
-8.66307
-8.66177
-8.65665
-8.64761
-8.63451
-8.61725
-8.59572
-8.56984
-8.53951
-8.5047
-8.46529
-8.4212
-8.37234
-8.31864
-8.25996
-8.19619
-8.12725
-8.05306
-7.97352
-7.88857
-7.79812
-7.70214
-7.60056
-7.49336
-7.38049
-7.26193
-7.13767
-7.00768
-6.87199
-6.73061
-6.58356
-6.43089
-6.27264
-6.10885
-5.93961
-5.76497
-5.58504
-5.39989
-5.20966
-5.01445
-4.81442
-4.60966
-4.40038
-4.18669
-3.96882
-3.7469
-3.52117
-3.29182
-3.05909
-2.82317
-2.58431
-2.34271
-2.09863
-1.85232
-1.60403
-1.35396
-1.10235
-0.849454
-0.595524
-0.340777
-0.0854411
0.170277
0.426171
0.682044
0.937701
1.19296
1.44762
1.70152
1.95448
2.20635
2.45698
2.70623
2.95399
3.20017
3.44462
3.68711
3.92755
4.16585
4.40192
4.63569
4.86708
5.09603
5.32248
5.54637
5.76766
5.98621
6.2019
6.41465
6.62443
6.83116
7.03478
7.23521
7.43238
7.62616
7.8164
8.00292
8.18554
8.36408
8.538
8.70772
8.86893
9.0361
9.14477
-7.41544
-7.42009
-7.4272
-7.43553
-7.44403
-7.45229
-7.46031
-7.46812
-7.47569
-7.48291
-7.48956
-7.49548
-7.50049
-7.50451
-7.50748
-7.50935
-7.51008
-7.50967
-7.50814
-7.50553
-7.50191
-7.49738
-7.49208
-7.48615
-7.47972
-7.47294
-7.46595
-7.45897
-7.45232
-7.44635
-7.44139
-7.43788
-7.43631
-7.43716
-7.44085
-7.44766
-7.45774
-7.4711
-7.48764
-7.50718
-7.52949
-7.55435
-7.58153
-7.61081
-7.64201
-7.67491
-7.70932
-7.74504
-7.78191
-7.81975
-7.85842
-7.89777
-7.93766
-7.97796
-8.01853
-8.05921
-8.09991
-8.14048
-8.1808
-8.22073
-8.26014
-8.29886
-8.33675
-8.37362
-8.4093
-8.4436
-8.47629
-8.50719
-8.53607
-8.56271
-8.58689
-8.60842
-8.62712
-8.6428
-8.65528
-8.66442
-8.67012
-8.67227
-8.67073
-8.66541
-8.65619
-8.64293
-8.62552
-8.60383
-8.57777
-8.54728
-8.51234
-8.47287
-8.42874
-8.37985
-8.3261
-8.26739
-8.20358
-8.13461
-8.06037
-7.9808
-7.8958
-7.80529
-7.70924
-7.60758
-7.5003
-7.38735
-7.2687
-7.14434
-7.01426
-6.87846
-6.73697
-6.58981
-6.43704
-6.27868
-6.1148
-5.94545
-5.77071
-5.59067
-5.40542
-5.21508
-5.01977
-4.81963
-4.61478
-4.4054
-4.19163
-3.97365
-3.75165
-3.52584
-3.29642
-3.0636
-2.8276
-2.58866
-2.34699
-2.10287
-1.85654
-1.60824
-1.35817
-1.10657
-0.853718
-0.599846
-0.345177
-0.0899348
0.165677
0.421451
0.677193
0.932705
1.1878
1.4423
1.69601
1.94877
2.20043
2.45084
2.69988
2.94742
3.19345
3.43775
3.68003
3.92023
4.15828
4.39411
4.62765
4.85884
5.0876
5.31387
5.53763
5.75882
5.97728
6.19283
6.40547
6.61513
6.82177
7.02531
7.22568
7.4228
7.61656
7.80673
7.99313
8.17558
8.35386
8.5274
8.69659
8.85698
9.02356
9.12969
-7.38934
-7.39384
-7.40188
-7.41162
-7.42114
-7.42997
-7.43843
-7.44677
-7.45505
-7.46305
-7.47045
-7.47701
-7.48258
-7.48711
-7.49057
-7.49294
-7.49419
-7.49432
-7.49332
-7.49124
-7.48815
-7.48411
-7.47924
-7.47364
-7.46745
-7.46083
-7.45404
-7.44733
-7.44102
-7.43543
-7.43099
-7.42818
-7.42745
-7.42923
-7.43384
-7.44153
-7.45239
-7.46641
-7.48347
-7.50344
-7.5261
-7.55129
-7.57881
-7.60848
-7.6401
-7.67349
-7.70843
-7.74473
-7.7822
-7.82065
-7.85995
-7.89993
-7.94045
-7.98135
-8.02251
-8.06377
-8.10502
-8.14611
-8.18692
-8.22729
-8.26709
-8.30619
-8.34442
-8.38162
-8.41758
-8.45211
-8.48501
-8.51603
-8.54492
-8.57143
-8.59538
-8.61663
-8.635
-8.65031
-8.66236
-8.67106
-8.67637
-8.67819
-8.6764
-8.67089
-8.66153
-8.64816
-8.63062
-8.60877
-8.58248
-8.55172
-8.51661
-8.4771
-8.43296
-8.38405
-8.33026
-8.2715
-8.20765
-8.13864
-8.06438
-7.98477
-7.89971
-7.80913
-7.71299
-7.61125
-7.50388
-7.39085
-7.27212
-7.14767
-7.01748
-6.88157
-6.73997
-6.59271
-6.43984
-6.2814
-6.11743
-5.94799
-5.77317
-5.59303
-5.40769
-5.21725
-5.02186
-4.82162
-4.61672
-4.40727
-4.19345
-3.97542
-3.75339
-3.52754
-3.29808
-3.06522
-2.82918
-2.59018
-2.34849
-2.10435
-1.85805
-1.60976
-1.35972
-1.10818
-0.855419
-0.60165
-0.34711
-0.0920059
0.16345
0.419059
0.67462
0.929941
1.18483
1.4391
1.69257
1.94509
2.1965
2.44665
2.69543
2.94274
3.18867
3.43288
3.67495
3.91487
4.15264
4.38822
4.62153
4.85249
5.08106
5.30716
5.53079
5.75194
5.97032
6.18574
6.39824
6.60779
6.81433
7.01779
7.2181
7.4152
7.60894
7.79905
7.98533
8.16759
8.34562
8.51876
8.68746
8.84709
9.01304
9.11732
-7.35607
-7.36089
-7.37046
-7.38201
-7.39263
-7.4022
-7.41144
-7.42051
-7.42952
-7.43844
-7.44693
-7.45448
-7.46074
-7.46575
-7.4697
-7.47261
-7.47441
-7.47507
-7.47458
-7.47297
-7.47027
-7.46654
-7.46188
-7.45641
-7.45031
-7.44378
-7.43705
-7.43043
-7.42428
-7.41901
-7.41505
-7.41286
-7.41286
-7.41542
-7.4208
-7.4292
-7.44066
-7.45518
-7.47267
-7.49303
-7.51607
-7.54164
-7.56957
-7.59968
-7.63181
-7.66575
-7.70129
-7.73823
-7.77639
-7.81559
-7.85566
-7.89642
-7.93772
-7.97939
-8.02129
-8.06328
-8.10523
-8.147
-8.18844
-8.22941
-8.26975
-8.30932
-8.34796
-8.3855
-8.42174
-8.45647
-8.48946
-8.52043
-8.54911
-8.57523
-8.59867
-8.61939
-8.63724
-8.65198
-8.6633
-8.67125
-8.67604
-8.67757
-8.67564
-8.67013
-8.66086
-8.64759
-8.63012
-8.60826
-8.58179
-8.55069
-8.51536
-8.47585
-8.43175
-8.38281
-8.32895
-8.2701
-8.20619
-8.13715
-8.06287
-7.98321
-7.89807
-7.80737
-7.71111
-7.60926
-7.5018
-7.38868
-7.26986
-7.1453
-7.01499
-6.87895
-6.73723
-6.58988
-6.43691
-6.27839
-6.11436
-5.94485
-5.76994
-5.58973
-5.40434
-5.21386
-5.01844
-4.81819
-4.61327
-4.4038
-4.18995
-3.9719
-3.74983
-3.52396
-3.2945
-3.06164
-2.82563
-2.58671
-2.34514
-2.10115
-1.85496
-1.60679
-1.35689
-1.10554
-0.852984
-0.599448
-0.345162
-0.0903293
0.164838
0.420142
0.67538
0.930358
1.18488
1.43877
1.69185
1.94396
2.19496
2.44468
2.69302
2.9399
3.18558
3.42962
3.67138
3.91096
4.14842
4.38371
4.61676
4.84749
5.07585
5.30177
5.5253
5.74651
5.96491
6.1802
6.39256
6.602
6.80845
7.01185
7.21213
7.40925
7.60302
7.79308
7.97923
8.16131
8.33908
8.51185
8.68007
8.839
9.00427
9.10735
-7.31868
-7.32441
-7.33602
-7.34977
-7.36156
-7.37145
-7.38112
-7.39128
-7.40159
-7.41168
-7.42124
-7.4298
-7.43684
-7.44236
-7.44675
-7.45015
-7.45246
-7.45359
-7.45351
-7.45221
-7.44973
-7.44613
-7.44152
-7.43602
-7.42982
-7.42315
-7.41631
-7.40965
-7.40358
-7.39853
-7.39493
-7.39319
-7.3937
-7.39677
-7.40263
-7.41143
-7.42322
-7.43803
-7.45578
-7.47639
-7.4997
-7.5256
-7.55391
-7.58448
-7.61713
-7.65164
-7.68779
-7.72542
-7.76433
-7.80432
-7.84521
-7.88681
-7.92896
-7.97147
-8.0142
-8.05698
-8.09966
-8.14206
-8.18404
-8.22545
-8.26616
-8.30599
-8.3448
-8.38242
-8.41865
-8.45327
-8.48603
-8.51664
-8.54473
-8.56993
-8.59232
-8.61216
-8.62932
-8.64337
-8.65352
-8.66013
-8.66405
-8.6652
-8.6633
-8.65809
-8.64926
-8.63647
-8.61943
-8.59803
-8.5723
-8.54221
-8.50765
-8.46849
-8.4245
-8.37556
-8.32165
-8.26271
-8.19872
-8.12958
-8.05518
-7.97537
-7.89004
-7.79914
-7.70267
-7.60062
-7.49296
-7.37965
-7.26063
-7.13586
-7.00533
-6.86908
-6.72716
-6.57962
-6.42649
-6.26782
-6.10364
-5.934
-5.75897
-5.57867
-5.39319
-5.20266
-5.00719
-4.80692
-4.60195
-4.39247
-4.17858
-3.9605
-3.7384
-3.51253
-3.28306
-3.05023
-2.81428
-2.57549
-2.33408
-2.09026
-1.84421
-1.59621
-1.34651
-1.09541
-0.843126
-0.589893
-0.335927
-0.0814466
0.173348
0.42825
0.683065
0.937591
1.19164
1.44503
1.69759
1.94915
2.19956
2.44868
2.69634
2.94244
3.18688
3.42961
3.67053
3.90954
4.14651
4.38136
4.614
4.84434
5.07233
5.29789
5.52116
5.7423
5.96066
6.17579
6.388
6.59734
6.80372
7.00707
7.20734
7.40457
7.59849
7.78856
7.97461
8.15652
8.33404
8.50647
8.67424
8.83252
8.99706
9.09958
-7.28083
-7.28779
-7.30191
-7.31761
-7.32975
-7.34013
-7.35093
-7.36228
-7.3737
-7.38486
-7.39544
-7.40493
-7.41272
-7.41883
-7.42377
-7.42769
-7.43047
-7.43199
-7.4322
-7.43109
-7.42868
-7.42501
-7.42021
-7.41444
-7.40791
-7.4009
-7.39374
-7.38684
-7.38059
-7.37545
-7.37181
-7.37008
-7.37059
-7.37365
-7.37946
-7.38819
-7.3999
-7.41463
-7.43232
-7.45292
-7.47632
-7.50244
-7.5311
-7.56214
-7.59533
-7.63046
-7.66732
-7.7057
-7.74543
-7.78627
-7.82803
-7.87047
-7.91342
-7.95667
-8.00006
-8.0434
-8.08652
-8.12925
-8.17144
-8.21295
-8.25363
-8.29334
-8.33193
-8.36923
-8.4051
-8.4393
-8.4716
-8.50164
-8.52878
-8.55217
-8.57228
-8.5903
-8.60648
-8.62045
-8.63156
-8.63935
-8.64376
-8.64495
-8.64307
-8.63796
-8.6293
-8.61671
-8.59987
-8.5788
-8.55377
-8.52468
-8.49088
-8.45203
-8.40815
-8.35929
-8.30542
-8.24654
-8.18255
-8.11337
-8.03889
-7.95899
-7.87356
-7.78257
-7.68601
-7.58386
-7.47609
-7.36266
-7.24352
-7.11862
-6.98797
-6.85162
-6.70961
-6.56198
-6.40877
-6.25003
-6.0858