/*--------------------------------*- C++ -*----------------------------------*\
| =========                 |                                                 |
| \\      /  F ield         | OpenFOAM: The Open Source CFD Toolbox           |
|  \\    /   O peration     | Version:  v2012                                 |
|   \\  /    A nd           | Website:  www.openfoam.com                      |
|    \\/     M anipulation  |                                                 |
\*---------------------------------------------------------------------------*/
FoamFile
{
    version     2.0;
    format      ascii;
    class       volVectorField;
    location    "1400";
    object      U;
}
// * * * * * * * * * * * * * * * * * * * * * * * * * * * * * * * * * * * * * //

dimensions      [0 1 -1 0 0 0 0];


internalField   nonuniform List<vector> 
12225
(
(9.76753 0.0436865 0)
(9.32985 0.0785814 0)
(8.9077 0.0842984 0)
(8.51192 0.0811912 0)
(8.15803 0.0744701 0)
(7.84846 0.0661832 0)
(7.57877 0.0574113 0)
(7.34515 0.04885 0)
(7.144 0.041179 0)
(6.96975 0.0347644 0)
(6.81778 0.0293815 0)
(6.6862 0.0247596 0)
(6.57202 0.0206305 0)
(6.47448 0.0168605 0)
(6.39194 0.0131999 0)
(6.32459 0.00919959 0)
(6.27522 0.00497676 0)
(6.23929 -0.00660109 0)
(10.0798 0.0579813 0)
(10.2309 0.092088 0)
(10.3062 0.091348 0)
(10.3285 0.0880851 0)
(10.3176 0.0854839 0)
(10.2845 0.0821355 0)
(10.2345 0.078043 0)
(10.1722 0.0736653 0)
(10.1024 0.0692528 0)
(10.0296 0.0649857 0)
(9.95686 0.0609862 0)
(9.88503 0.057059 0)
(9.81562 0.0531027 0)
(9.74877 0.0489611 0)
(9.68579 0.0444574 0)
(9.62638 0.0390357 0)
(9.57254 0.0318917 0)
(9.51825 0.0196026 0)
(10.0184 0.0428818 0)
(10.0751 0.0654262 0)
(10.1256 0.0680893 0)
(10.1618 0.0721909 0)
(10.1915 0.0763315 0)
(10.2163 0.078055 0)
(10.2348 0.0777357 0)
(10.2472 0.0762876 0)
(10.2538 0.074241 0)
(10.2562 0.0718689 0)
(10.255 0.0691778 0)
(10.2513 0.0661812 0)
(10.2453 0.0628671 0)
(10.2379 0.0591652 0)
(10.2294 0.0548801 0)
(10.22 0.0494414 0)
(10.2098 0.0423751 0)
(10.1959 0.0312121 0)
(10.0083 0.030529 0)
(10.041 0.0550478 0)
(10.0718 0.0621739 0)
(10.0942 0.0671935 0)
(10.1136 0.0708886 0)
(10.1321 0.0722439 0)
(10.1488 0.0719088 0)
(10.1632 0.0707399 0)
(10.1754 0.0691273 0)
(10.186 0.067196 0)
(10.1951 0.0649823 0)
(10.203 0.0625014 0)
(10.2098 0.059704 0)
(10.2158 0.0564857 0)
(10.221 0.0526395 0)
(10.2254 0.0477609 0)
(10.2286 0.0415813 0)
(10.2293 0.0335117 0)
(10.005 0.023927 0)
(10.0287 0.0486405 0)
(10.0524 0.0571572 0)
(10.0699 0.0618382 0)
(10.085 0.0652866 0)
(10.0997 0.0668835 0)
(10.1134 0.0669749 0)
(10.1256 0.0662056 0)
(10.1366 0.0649311 0)
(10.1466 0.0632803 0)
(10.1558 0.061316 0)
(10.1642 0.0590375 0)
(10.1721 0.0563979 0)
(10.1794 0.0532997 0)
(10.1862 0.0495925 0)
(10.1923 0.0450395 0)
(10.1973 0.0395576 0)
(10.2006 0.0331648 0)
(10.0032 0.0190562 0)
(10.0211 0.0421082 0)
(10.0408 0.0514169 0)
(10.0563 0.0563882 0)
(10.0695 0.0600405 0)
(10.0824 0.0619696 0)
(10.0945 0.0623842 0)
(10.1055 0.0618622 0)
(10.1155 0.0607796 0)
(10.1247 0.0592789 0)
(10.1333 0.0574267 0)
(10.1414 0.055227 0)
(10.149 0.0526533 0)
(10.1561 0.0496332 0)
(10.1627 0.0460729 0)
(10.1686 0.0418503 0)
(10.1736 0.0369768 0)
(10.1773 0.0316204 0)
(10.0022 0.0152375 0)
(10.0156 0.0360263 0)
(10.0322 0.0457756 0)
(10.0464 0.0511192 0)
(10.0585 0.0548951 0)
(10.0701 0.0570075 0)
(10.0813 0.0576445 0)
(10.0915 0.0573224 0)
(10.1008 0.0564062 0)
(10.1095 0.0550387 0)
(10.1177 0.053289 0)
(10.1253 0.0511736 0)
(10.1325 0.0486852 0)
(10.1393 0.0457792 0)
(10.1455 0.0424083 0)
(10.1511 0.0385283 0)
(10.1559 0.0342002 0)
(10.1596 0.0296248 0)
(10.0016 0.0125898 0)
(10.0121 0.0313538 0)
(10.0264 0.041196 0)
(10.0394 0.0467258 0)
(10.0508 0.050516 0)
(10.0617 0.0527161 0)
(10.0721 0.053502 0)
(10.0818 0.0533296 0)
(10.0908 0.0525384 0)
(10.0991 0.051273 0)
(10.1069 0.0496066 0)
(10.1143 0.0475676 0)
(10.1212 0.0451642 0)
(10.1276 0.0423757 0)
(10.1336 0.0391881 0)
(10.1389 0.0356016 0)
(10.1434 0.0316963 0)
(10.1471 0.027656 0)
(10.0012 0.0106272 0)
(10.0097 0.0275508 0)
(10.0221 0.0372091 0)
(10.034 0.0428047 0)
(10.0447 0.0465808 0)
(10.055 0.0488305 0)
(10.0649 0.0497268 0)
(10.0742 0.0496727 0)
(10.0828 0.0489833 0)
(10.0908 0.0478055 0)
(10.0983 0.0462154 0)
(10.1054 0.0442527 0)
(10.1121 0.0419372 0)
(10.1182 0.039269 0)
(10.1239 0.0362558 0)
(10.129 0.0329247 0)
(10.1333 0.0293607 0)
(10.137 0.0257263 0)
(10.0009 0.00890579 0)
(10.0077 0.0238261 0)
(10.0182 0.0330517 0)
(10.029 0.0386062 0)
(10.039 0.0423131 0)
(10.0486 0.0445733 0)
(10.0579 0.0455575 0)
(10.0667 0.0456082 0)
(10.0749 0.0450144 0)
(10.0826 0.0439247 0)
(10.0898 0.0424189 0)
(10.0966 0.0405461 0)
(10.103 0.0383379 0)
(10.1088 0.0358129 0)
(10.1142 0.0329961 0)
(10.1191 0.0299323 0)
(10.1232 0.0267032 0)
(10.1268 0.0234478 0)
(10.0007 0.00737624 0)
(10.006 0.0202173 0)
(10.0148 0.028782 0)
(10.0244 0.0341602 0)
(10.0336 0.0377246 0)
(10.0426 0.0399373 0)
(10.0512 0.0409735 0)
(10.0595 0.0411104 0)
(10.0673 0.0406045 0)
(10.0746 0.0396039 0)
(10.0815 0.0381923 0)
(10.0879 0.0364256 0)
(10.094 0.0343461 0)
(10.0995 0.0319873 0)
(10.1046 0.0293876 0)
(10.1092 0.0266001 0)
(10.1132 0.0236991 0)
(10.1167 0.0207976 0)
(10.0005 0.00601148 0)
(10.0047 0.0167816 0)
(10.012 0.0244622 0)
(10.0204 0.0295013 0)
(10.0287 0.0328397 0)
(10.0369 0.0349367 0)
(10.0449 0.0359734 0)
(10.0527 0.0361685 0)
(10.06 0.0357385 0)
(10.0669 0.0348264 0)
(10.0734 0.0335181 0)
(10.0795 0.0318747 0)
(10.0852 0.029946 0)
(10.0905 0.0277761 0)
(10.0953 0.0254106 0)
(10.0996 0.0229046 0)
(10.1034 0.0203214 0)
(10.1068 0.0177511 0)
(10.0004 0.00479159 0)
(10.0037 0.0135543 0)
(10.0096 0.0201557 0)
(10.0168 0.0246765 0)
(10.0243 0.027691 0)
(10.0318 0.0295945 0)
(10.0392 0.0305673 0)
(10.0463 0.0307798 0)
(10.0532 0.0304067 0)
(10.0597 0.0295781 0)
(10.0658 0.0283796 0)
(10.0715 0.0268745 0)
(10.0769 0.0251162 0)
(10.0818 0.0231535 0)
(10.0863 0.0210344 0)
(10.0904 0.0188107 0)
(10.0941 0.0165345 0)
(10.0974 0.0142772 0)
(10.0003 0.00369121 0)
(10.0029 0.0105377 0)
(10.0077 0.0159146 0)
(10.0139 0.0197399 0)
(10.0205 0.0223157 0)
(10.0272 0.0239392 0)
(10.034 0.024773 0)
(10.0405 0.0249496 0)
(10.0469 0.0246039 0)
(10.053 0.0238463 0)
(10.0587 0.0227577 0)
(10.0641 0.021399 0)
(10.0691 0.0198235 0)
(10.0737 0.0180792 0)
(10.078 0.0162122 0)
(10.0819 0.0142677 0)
(10.0854 0.0122877 0)
(10.0886 0.0103282 0)
(10.0003 0.00268304 0)
(10.0023 0.00770493 0)
(10.0063 0.0117628 0)
(10.0115 0.0147335 0)
(10.0173 0.0167472 0)
(10.0234 0.0179964 0)
(10.0294 0.0186096 0)
(10.0355 0.0186876 0)
(10.0413 0.0183284 0)
(10.047 0.0176199 0)
(10.0523 0.0166311 0)
(10.0573 0.0154175 0)
(10.062 0.0140269 0)
(10.0664 0.0125027 0)
(10.0704 0.010885 0)
(10.0741 0.00921196 0)
(10.0775 0.00751582 0)
(10.0806 0.00584057 0)
(10.0002 0.00173738 0)
(10.0019 0.00500382 0)
(10.0052 0.00768034 0)
(10.0097 0.00966341 0)
(10.0148 0.0109911 0)
(10.0202 0.0117666 0)
(10.0257 0.0120755 0)
(10.0312 0.011986 0)
(10.0366 0.0115645 0)
(10.0419 0.010873 0)
(10.0468 0.00996488 0)
(10.0515 0.00888437 0)
(10.056 0.00767054 0)
(10.0601 0.00635872 0)
(10.0639 0.00498099 0)
(10.0675 0.00356691 0)
(10.0707 0.0021405 0)
(10.0737 0.000735806 0)
(10.0002 0.000817997 0)
(10.0016 0.0023532 0)
(10.0045 0.00359384 0)
(10.0084 0.00448112 0)
(10.013 0.00500823 0)
(10.0179 0.00521349 0)
(10.023 0.00513448 0)
(10.0281 0.00480824 0)
(10.0331 0.0042699 0)
(10.038 0.00355661 0)
(10.0426 0.00270044 0)
(10.047 0.00173199 0)
(10.0512 0.000677272 0)
(10.0551 -0.000438194 0)
(10.0588 -0.00159258 0)
(10.0622 -0.00276464 0)
(10.0653 -0.00393857 0)
(10.0683 -0.00508883 0)
(10.0002 -7.18617e-05 0)
(10.0015 -0.000217788 0)
(10.0042 -0.000399609 0)
(10.0079 -0.000628969 0)
(10.0122 -0.000935564 0)
(10.0168 -0.00133746 0)
(10.0216 -0.00183927 0)
(10.0264 -0.00243785 0)
(10.0312 -0.00312409 0)
(10.0358 -0.0038888 0)
(10.0403 -0.00471891 0)
(10.0445 -0.00560236 0)
(10.0485 -0.00652456 0)
(10.0523 -0.00747314 0)
(10.0559 -0.00843445 0)
(10.0592 -0.00939713 0)
(10.0622 -0.0103509 0)
(10.0651 -0.0112791 0)
(10.0002 -0.000903483 0)
(10.0016 -0.00261444 0)
(10.0043 -0.00411226 0)
(10.0081 -0.00536053 0)
(10.0124 -0.00642226 0)
(10.017 -0.00737267 0)
(10.0217 -0.00825779 0)
(10.0265 -0.00910254 0)
(10.0312 -0.00992505 0)
(10.0357 -0.0107394 0)
(10.0401 -0.0115532 0)
(10.0442 -0.0123685 0)
(10.0481 -0.0131839 0)
(10.0519 -0.0139965 0)
(10.0553 -0.014802 0)
(10.0586 -0.0155951 0)
(10.0616 -0.0163719 0)
(10.0645 -0.0171203 0)
(10.0002 -0.00170835 0)
(10.0018 -0.00491067 0)
(10.0048 -0.00761236 0)
(10.0089 -0.00973774 0)
(10.0135 -0.0114251 0)
(10.0182 -0.0128223 0)
(10.023 -0.0140127 0)
(10.0279 -0.0150448 0)
(10.0326 -0.0159632 0)
(10.0371 -0.0168036 0)
(10.0415 -0.017592 0)
(10.0456 -0.0183414 0)
(10.0496 -0.0190624 0)
(10.0533 -0.0197588 0)
(10.0567 -0.0204349 0)
(10.06 -0.0210894 0)
(10.063 -0.0217232 0)
(10.0659 -0.0223277 0)
(10.0002 -0.00255568 0)
(10.0022 -0.00727795 0)
(10.0058 -0.0111047 0)
(10.0104 -0.0139634 0)
(10.0153 -0.0161462 0)
(10.0203 -0.0178906 0)
(10.0254 -0.0193062 0)
(10.0304 -0.0204618 0)
(10.0352 -0.0214284 0)
(10.0399 -0.0222664 0)
(10.0443 -0.0230113 0)
(10.0485 -0.0236892 0)
(10.0524 -0.0243156 0)
(10.0562 -0.0249056 0)
(10.0597 -0.0254653 0)
(10.0629 -0.0260012 0)
(10.066 -0.0265137 0)
(10.0689 -0.0269996 0)
(10.0003 -0.00351402 0)
(10.0028 -0.0098636 0)
(10.0072 -0.0147284 0)
(10.0126 -0.0181558 0)
(10.018 -0.0207007 0)
(10.0234 -0.0226969 0)
(10.0288 -0.0242563 0)
(10.034 -0.0254709 0)
(10.039 -0.0264428 0)
(10.0438 -0.0272479 0)
(10.0484 -0.0279322 0)
(10.0526 -0.0285265 0)
(10.0567 -0.0290564 0)
(10.0604 -0.0295412 0)
(10.064 -0.0299941 0)
(10.0673 -0.0304224 0)
(10.0704 -0.030831 0)
(10.0733 -0.0312155 0)
(10.0004 -0.00466881 0)
(10.0037 -0.0128058 0)
(10.0094 -0.0185639 0)
(10.0156 -0.0223604 0)
(10.0217 -0.0251493 0)
(10.0275 -0.0273106 0)
(10.0332 -0.0289352 0)
(10.0388 -0.0301466 0)
(10.044 -0.0310836 0)
(10.049 -0.0318329 0)
(10.0537 -0.0324411 0)
(10.0581 -0.0329439 0)
(10.0623 -0.0333741 0)
(10.0662 -0.0337559 0)
(10.0698 -0.034108 0)
(10.0732 -0.0344392 0)
(10.0764 -0.0347562 0)
(10.0794 -0.0350546 0)
(10.0006 -0.00612253 0)
(10.0052 -0.0162797 0)
(10.0125 -0.0226626 0)
(10.0198 -0.0265834 0)
(10.0264 -0.0295052 0)
(10.0328 -0.0317626 0)
(10.039 -0.0333897 0)
(10.0449 -0.0345553 0)
(10.0505 -0.0354326 0)
(10.0557 -0.0361084 0)
(10.0607 -0.036627 0)
(10.0653 -0.0370296 0)
(10.0697 -0.0373541 0)
(10.0737 -0.0376334 0)
(10.0775 -0.0378872 0)
(10.081 -0.0381301 0)
(10.0844 -0.0383669 0)
(10.0875 -0.0385943 0)
(10.0009 -0.00800076 0)
(10.0075 -0.0204478 0)
(10.017 -0.0270739 0)
(10.0254 -0.0308729 0)
(10.0327 -0.0338059 0)
(10.0398 -0.0360779 0)
(10.0466 -0.0376614 0)
(10.0531 -0.0387683 0)
(10.0592 -0.0395824 0)
(10.0648 -0.0401801 0)
(10.0702 -0.040601 0)
(10.0751 -0.0408913 0)
(10.0798 -0.0410984 0)
(10.084 -0.0412606 0)
(10.088 -0.0414052 0)
(10.0917 -0.0415491 0)
(10.0952 -0.0417008 0)
(10.0985 -0.0418486 0)
(10.0015 -0.0105426 0)
(10.0109 -0.0252947 0)
(10.0235 -0.0317707 0)
(10.0334 -0.0354142 0)
(10.0418 -0.0382994 0)
(10.0499 -0.040437 0)
(10.0578 -0.0418557 0)
(10.0652 -0.0428351 0)
(10.072 -0.0435536 0)
(10.0783 -0.0440576 0)
(10.0842 -0.0443776 0)
(10.0897 -0.0445623 0)
(10.0948 -0.0446625 0)
(10.0994 -0.0447246 0)
(10.1037 -0.0447787 0)
(10.1076 -0.0448481 0)
(10.1113 -0.044944 0)
(10.1147 -0.0450441 0)
(10.0027 -0.0146167 0)
(10.0176 -0.030706 0)
(10.0344 -0.0361557 0)
(10.0471 -0.0398947 0)
(10.0578 -0.0430678 0)
(10.0681 -0.0451713 0)
(10.0779 -0.0463816 0)
(10.0869 -0.0471349 0)
(10.095 -0.0476289 0)
(10.1025 -0.0478966 0)
(10.1094 -0.0479705 0)
(10.1157 -0.0479082 0)
(10.1214 -0.0477711 0)
(10.1264 -0.0476108 0)
(10.131 -0.0474685 0)
(10.1351 -0.0473711 0)
(10.1388 -0.0473304 0)
(10.1421 -0.0472949 0)
(10.0068 -0.0224359 0)
(10.0361 -0.0379953 0)
(10.062 -0.0402063 0)
(10.0819 -0.0429596 0)
(10.0989 -0.0464465 0)
(10.1147 -0.049036 0)
(10.1288 -0.050659 0)
(10.1409 -0.0517508 0)
(10.1513 -0.0524894 0)
(10.1603 -0.0528891 0)
(10.1678 -0.0529894 0)
(10.1741 -0.0528646 0)
(10.179 -0.0526019 0)
(10.1827 -0.0522694 0)
(10.1855 -0.0519539 0)
(10.1872 -0.0517195 0)
(10.1884 -0.0515807 0)
(10.1889 -0.051577 0)
(10.0414 -0.0340671 0)
(10.1213 -0.0591558 0)
(10.1758 -0.0605939 0)
(10.2088 -0.0592963 0)
(10.2297 -0.0587198 0)
(10.2425 -0.0579608 0)
(10.2479 -0.0569225 0)
(10.2467 -0.055885 0)
(10.2402 -0.0548842 0)
(10.2296 -0.0538264 0)
(10.2155 -0.0526719 0)
(10.1987 -0.0514419 0)
(10.1797 -0.0501849 0)
(10.1589 -0.0489734 0)
(10.1369 -0.0478774 0)
(10.1144 -0.0470037 0)
(10.0918 -0.046395 0)
(10.0698 -0.0464259 0)
(9.88977 -0.0267724 0)
(9.69346 -0.0520434 0)
(9.49221 -0.0600135 0)
(9.29232 -0.0620145 0)
(9.10403 -0.0618894 0)
(8.93045 -0.0603072 0)
(8.77039 -0.0577984 0)
(8.62221 -0.0548727 0)
(8.48533 -0.051773 0)
(8.35952 -0.0485623 0)
(8.24424 -0.045313 0)
(8.13884 -0.0420952 0)
(8.0426 -0.0389615 0)
(7.95478 -0.0359685 0)
(7.87458 -0.0332375 0)
(7.80064 -0.030956 0)
(7.73156 -0.0291481 0)
(7.66717 -0.0281102 0)
(-0.00345039 0.00963667 0)
(-0.0160009 0.0157479 0)
(-0.0329945 0.0171398 0)
(-0.0516803 0.0146928 0)
(-0.0679353 0.00758941 0)
(-0.0730354 -0.00372765 0)
(-0.0587265 -0.0185695 -6.63804e-19)
(-0.0295052 -0.0356153 7.87055e-19)
(0.011304 -0.04998 0)
(0.0596969 -0.0582011 5.50385e-19)
(0.112796 -0.0605698 0)
(0.166885 -0.0587424 0)
(0.218137 -0.0539707 0)
(0.26415 -0.0472836 -2.25611e-19)
(0.303675 -0.0394576 0)
(0.33613 -0.0310209 0)
(0.36124 -0.0222807 1.80781e-19)
(0.378848 -0.0133525 0)
(0.388871 -0.00413772 0)
(0.391087 0.00558626 0)
(0.384331 0.0157233 -1.75199e-19)
(0.369095 0.0257317 0)
(0.345791 0.0348434 -1.89179e-19)
(0.314886 0.0422586 0)
(0.277218 0.047206 0)
(0.23412 0.0489145 -2.54565e-19)
(0.187466 0.0467185 0)
(0.139645 0.0402413 3.68252e-19)
(0.0934916 0.0296435 0)
(0.0521838 0.0160787 -6.51872e-19)
(0.0190287 0.00250304 0)
(-0.00368214 -0.00638207 0)
(-0.0181298 -0.00810151 0)
(-0.0271019 -0.00493849 0)
(-0.0325662 -0.000430559 0)
(-0.0368898 0.00243002 9.42658e-19)
(-0.0410751 0.00215119 0)
(-0.0423869 -0.0016048 -1.83346e-18)
(-0.0358486 -0.00843768 0)
(-0.0192321 -0.0172859 2.11682e-18)
(0.00690535 -0.0262148 0)
(0.0399065 -0.0321846 0)
(0.0753292 -0.0328477 -1.09715e-18)
(0.108213 -0.0285168 0)
(0.134063 -0.0209578 -8.05031e-19)
(0.150355 -0.0122855 7.64744e-19)
(0.156962 -0.00414506 0)
(0.154844 0.00159847 7.67038e-19)
(0.148377 0.00359405 7.90016e-19)
(0.142051 0.00334349 0)
(0.139053 0.00117354 0)
(0.146682 -0.010101 0)
(0.156569 -0.0270325 0)
(0.159977 -0.0452484 0)
(0.141658 -0.0517558 -7.73016e-19)
(0.0955794 -0.0346149 0)
(0.0109192 0.00640941 9.24315e-19)
(-0.126356 0.0541538 0)
(-0.280926 0.0897079 0)
(-0.44907 0.114142 -2.49332e-19)
(-0.623875 0.128405 0)
(-0.798346 0.133692 1.60314e-19)
(-0.967055 0.131419 0)
(-1.12601 0.124157 0)
(-1.27272 0.114253 0)
(-1.40616 0.103194 -1.04403e-19)
(-1.5263 0.092109 0)
(-1.63399 0.0816471 0)
(-1.73022 0.0721578 -8.96372e-20)
(-1.81624 0.0637986 0)
(-1.89335 0.0565695 -8.39279e-20)
(-1.96276 0.0503954 0)
(-2.02558 0.0451523 0)
(-2.08277 0.0407082 0)
(-2.13515 0.0369334 7.66315e-20)
(-2.18339 0.0337076 0)
(-2.22805 0.030929 0)
(-2.26959 0.0285124 7.28352e-20)
(-2.30837 0.0263884 7.17342e-20)
(-2.34469 0.0244986 0)
(-2.37879 0.0227981 6.96931e-20)
(-2.41085 0.0212504 0)
(-2.44102 0.0198266 1.3561e-19)
(-2.46943 0.0185038 0)
(-2.49618 0.0172631 1.32037e-19)
(-2.52133 0.0160893 0)
(-2.54496 0.0149694 -1.28599e-19)
(-2.5671 0.0138921 0)
(-2.5878 0.0128469 0)
(-2.60709 0.0118245 0)
(-2.62496 0.0108147 1.21928e-19)
(-2.64145 0.0098081 0)
(-2.65653 0.00879496 -1.1863e-19)
(-2.67021 0.00776565 0)
(-2.68245 0.00671158 1.15326e-19)
(-2.69323 0.00562639 1.13668e-19)
(-2.70249 0.00450926 1.12005e-19)
(-2.71018 0.00337126 0)
(-2.71625 0.00225138 0)
(-2.72064 0.001225 0)
(-2.72329 0.000365167 0)
(-2.7245 -0.000349104 0)
(-2.72449 -0.00100302 0)
(-2.72324 -0.00163954 0)
(-2.72077 -0.00226585 0)
(-2.71707 -0.00288608 -9.61185e-20)
(-2.71215 -0.00350027 -9.41695e-20)
(-2.706 -0.00410896 0)
(-2.69862 -0.00471146 0)
(-2.69 -0.00530793 0)
(-2.68014 -0.00589753 -8.59129e-20)
(-2.66904 -0.00648043 0)
(-2.6567 -0.0070557 0)
(-2.64313 -0.00762352 0)
(-2.62832 -0.00818296 0)
(-2.61228 -0.00873418 7.44122e-20)
(-2.59502 -0.00927631 0)
(-2.57653 -0.00980942 0)
(-2.55684 -0.0103327 -6.67832e-20)
(-2.53595 -0.0108461 6.41053e-20)
(-2.51386 -0.0113486 0)
(-2.4906 -0.0118393 5.85324e-20)
(-2.46617 -0.0123166 0)
(-2.44059 -0.0127768 -5.26528e-20)
(-2.41388 -0.0132138 0)
(-2.38606 -0.0136152 0)
(-2.35716 -0.0139553 0)
(-2.32721 -0.0142066 0)
(-2.29626 -0.0143215 0)
(-2.26436 -0.014276 6.58939e-20)
(-2.2315 -0.0143825 5.86845e-20)
(-2.19762 -0.0147226 0)
(-2.16274 -0.0150548 0)
(-2.12691 -0.0153654 0)
(-2.09017 -0.0156624 -2.7653e-20)
(-2.05255 -0.015945 0)
(-2.01409 -0.0162154 0)
(-1.9748 -0.0164736 0)
(-1.93471 -0.0167198 7.47099e-21)
(-1.89386 -0.016954 -1.69825e-20)
(-1.85226 -0.017177 0)
(-1.80996 -0.0173889 0)
(-1.76697 -0.017591 -4.75083e-20)
(-1.72333 -0.0177835 -5.84072e-20)
(-1.67907 -0.0179673 0)
(-1.6342 -0.0181433 0)
(-1.58876 -0.0183125 9.35787e-20)
(-1.54276 -0.0184729 -1.06218e-19)
(-1.49623 -0.0186311 0)
(-1.4492 -0.018778 0)
(-1.40168 -0.0189245 -1.47274e-19)
(-1.35373 -0.0190604 0)
(-1.30533 -0.019197 0)
(-1.25657 -0.0193248 -1.93924e-19)
(-1.20741 -0.0194576 0)
(-1.15792 -0.0195857 -2.2874e-19)
(-1.10807 -0.0197244 0)
(-1.05793 -0.0198628 0)
(-1.00744 -0.020016 0)
(-0.956657 -0.020174 3.09695e-19)
(-0.905535 -0.0203456 0)
(-0.854105 -0.0205305 0)
(-0.80235 -0.0207254 0)
(-0.750277 -0.0209343 0)
(-0.697887 -0.0211584 0)
(-0.645178 -0.0214011 0)
(-0.592143 -0.0216659 5.06463e-19)
(-0.538771 -0.0219562 5.43186e-19)
(-0.485048 -0.0222742 0)
(-0.430959 -0.0226199 0)
(-0.376498 -0.0229904 0)
(-0.321676 -0.0233781 -7.24953e-19)
(-0.266535 -0.023778 0)
(-0.211159 -0.0241929 1.69055e-18)
(-0.155715 -0.0245668 -1.83181e-18)
(-0.100516 -0.0247716 -1.99041e-18)
(-0.0459846 -0.0246432 2.16924e-18)
(0.00489562 -0.0234147 -2.27704e-18)
(0.0621253 -0.0211742 2.2476e-18)
(0.0754632 -0.00998928 0)
(5.61685e-06 0.0254334 0)
(-0.00655961 0.0442563 0)
(-0.0152078 0.0472661 1.9748e-18)
(-0.0193736 0.0395304 0)
(-0.00904415 0.0187899 -2.33126e-18)
(0.0223758 -0.0198407 -1.62364e-18)
(0.0646078 -0.0704646 -4.66135e-19)
(0.115055 -0.116321 -3.14342e-19)
(0.169376 -0.148155 0)
(0.22341 -0.163859 -1.93066e-19)
(0.274107 -0.165461 0)
(0.31965 -0.156942 0)
(0.359407 -0.142166 2.7158e-19)
(0.393369 -0.123846 1.27336e-19)
(0.421667 -0.103846 -2.44692e-19)
(0.444589 -0.0833163 -2.3816e-19)
(0.462495 -0.0628464 -1.17143e-19)
(0.475743 -0.0426823 0)
(0.484645 -0.0228001 0)
(0.489779 -0.00301939 0)
(0.491927 0.0168239 -1.20693e-19)
(0.490684 0.036595 0)
(0.485494 0.0559657 3.72468e-19)
(0.475625 0.0744926 0)
(0.460221 0.091456 0)
(0.438459 0.105831 1.37754e-19)
(0.409714 0.116304 0)
(0.373799 0.121408 -1.57981e-19)
(0.331144 0.119856 -3.50489e-19)
(0.282912 0.110993 2.00166e-19)
(0.231107 0.0953636 0)
(0.178584 0.074993 0)
(0.128638 0.0526594 0)
(0.0854938 0.0313212 -1.014e-18)
(0.0533231 0.0139158 -1.36619e-18)
(0.034341 0.00158097 -8.86035e-19)
(0.0281701 -0.00889835 0)
(0.0361466 -0.0218338 1.81784e-18)
(0.0535051 -0.0393791 0)
(0.0792129 -0.0607691 -9.72491e-19)
(0.11054 -0.0795318 0)
(0.141693 -0.0875197 0)
(0.166882 -0.0822269 4.95956e-19)
(0.183916 -0.066678 0)
(0.192157 -0.0458811 1.38131e-18)
(0.192427 -0.0243791 -4.83431e-19)
(0.185833 -0.0055714 0)
(0.175194 0.00585503 -5.54428e-19)
(0.162657 0.00640067 -6.04261e-19)
(0.146612 -0.00220431 0)
(0.117725 -0.0132288 0)
(0.0582545 -0.0098433 0)
(-0.064443 0.0353331 0)
(-0.235473 0.106275 0)
(-0.42044 0.174116 2.42864e-19)
(-0.610593 0.235165 3.53285e-19)
(-0.799748 0.286571 -1.37885e-19)
(-0.984262 0.322716 0)
(-1.1574 0.34065 1.97852e-19)
(-1.31629 0.342684 -8.90122e-20)
(-1.45803 0.332318 0)
(-1.58186 0.313006 -7.44037e-20)
(-1.68842 0.288211 0)
(-1.7793 0.260849 0)
(-1.85673 0.233235 -1.31113e-19)
(-1.92305 0.206949 6.31205e-20)
(-1.98046 0.182943 -1.23884e-19)
(-2.03083 0.161636 1.21062e-19)
(-2.07567 0.143088 5.90597e-20)
(-2.11619 0.127163 0)
(-2.15326 0.113599 5.70394e-20)
(-2.18755 0.102088 0)
(-2.21951 0.0923173 0)
(-2.2495 0.0839917 0)
(-2.27773 0.0768522 5.37509e-20)
(-2.30439 0.0706764 0)
(-2.32962 0.0652795 1.04517e-19)
(-2.3535 0.0605108 -1.54694e-19)
(-2.37611 0.0562477 -5.08994e-20)
(-2.3975 0.0523927 0)
(-2.41771 0.0488683 -4.95848e-20)
(-2.43677 0.0456133 0)
(-2.45472 0.0425788 -9.66147e-20)
(-2.47157 0.0397263 0)
(-2.48733 0.0370249 -9.41052e-20)
(-2.50203 0.0344497 1.8562e-19)
(-2.51566 0.0319804 9.16174e-20)
(-2.52824 0.0295998 0)
(-2.53977 0.0272937 0)
(-2.55025 0.0250492 0)
(-2.55968 0.0228551 -8.66312e-20)
(-2.56807 0.0207012 0)
(-2.57542 0.0185782 8.41043e-20)
(-2.58173 0.0164773 0)
(-2.58702 0.01439 -2.44641e-19)
(-2.5913 0.0123081 -8.02453e-20)
(-2.59462 0.0102233 -7.89388e-20)
(-2.59701 0.00813043 0)
(-2.59855 0.00604301 0)
(-2.59933 0.00401304 0)
(-2.59944 0.00211397 0)
(-2.59863 0.000350309 0)
(-2.59667 -0.00133991 -1.41505e-19)
(-2.59355 -0.00299404 -1.38592e-19)
(-2.58925 -0.00462142 0)
(-2.58374 -0.00622703 6.62215e-20)
(-2.57703 -0.00781108 6.46847e-20)
(-2.56912 -0.00937357 0)
(-2.55999 -0.0109132 1.23307e-19)
(-2.54964 -0.0124293 0)
(-2.53807 -0.0139202 -5.85512e-20)
(-2.52528 -0.0153852 0)
(-2.51127 -0.0168225 0)
(-2.49604 -0.0182316 1.06665e-19)
(-2.47959 -0.0196106 0)
(-2.46193 -0.020959 -4.96056e-20)
(-2.44306 -0.0222749 0)
(-2.42299 -0.0235579 0)
(-2.40172 -0.0248064 -4.44432e-20)
(-2.37927 -0.0260198 -4.20864e-20)
(-2.35565 -0.0271968 0)
(-2.33087 -0.0283367 3.85933e-20)
(-2.30494 -0.0294386 0)
(-2.27787 -0.030502 -3.45066e-20)
(-2.24969 -0.0315271 -6.42804e-20)
(-2.22041 -0.0325144 0)
(-2.19005 -0.0334681 0)
(-2.15862 -0.0343959 0)
(-2.12612 -0.0353068 0)
(-2.09256 -0.036196 -4.13466e-20)
(-2.05796 -0.0370474 -1.11057e-19)
(-2.0224 -0.0378333 0)
(-1.9859 -0.0385514 0)
(-1.94846 -0.0392149 0)
(-1.91012 -0.039835 1.68189e-20)
(-1.87089 -0.0404148 0)
(-1.83082 -0.0409542 0)
(-1.78993 -0.0414512 -3.44032e-21)
(-1.74824 -0.0419084 3.01453e-21)
(-1.70578 -0.0423262 9.97705e-21)
(-1.66257 -0.042706 0)
(-1.61866 -0.0430486 0)
(-1.57407 -0.0433561 2.72216e-20)
(-1.52882 -0.0436293 -3.1661e-20)
(-1.48294 -0.0438699 0)
(-1.43646 -0.0440783 0)
(-1.3894 -0.0442582 -5.1688e-20)
(-1.34179 -0.0444046 1.72686e-19)
(-1.29364 -0.044531 0)
(-1.24499 -0.0446257 0)
(-1.19585 -0.044698 7.79934e-20)
(-1.14626 -0.0447389 0)
(-1.09622 -0.0447576 1.8216e-19)
(-1.0458 -0.0447473 -9.74211e-20)
(-0.994975 -0.0447212 0)
(-0.943813 -0.0446747 1.1385e-19)
(-0.892288 -0.0446219 2.41131e-19)
(-0.840451 -0.0445585 0)
(-0.788269 -0.0444968 0)
(-0.735783 -0.0444369 -1.45192e-19)
(-0.682956 -0.0443771 0)
(-0.629811 -0.0443254 3.2194e-19)
(-0.576336 -0.0442731 0)
(-0.522534 -0.0442241 0)
(-0.468405 -0.0441792 0)
(-0.413947 -0.0441421 0)
(-0.359154 -0.0441168 -2.06945e-19)
(-0.304014 -0.0441075 -2.16604e-19)
(-0.248514 -0.044116 0)
(-0.19264 -0.0441406 0)
(-0.136383 -0.0441741 0)
(-0.0797496 -0.0441999 2.5771e-19)
(-0.0227742 -0.0441871 0)
(0.0344811 -0.04408 -5.46944e-19)
(0.0919086 -0.0438065 5.48034e-19)
(0.149235 -0.043238 5.49203e-19)
(0.206371 -0.0421685 5.47284e-19)
(0.261188 -0.0401682 5.53395e-19)
(0.31909 -0.0362633 5.55864e-19)
(0.35458 -0.024329 0)
(0.000992675 0.0274506 0)
(0.00197197 0.0500918 0)
(0.00627344 0.0475869 -2.14057e-18)
(0.0233779 0.019156 -1.70579e-18)
(0.0625959 -0.0429805 1.02934e-18)
(0.119212 -0.122015 6.29052e-19)
(0.181345 -0.192296 -3.24746e-22)
(0.239383 -0.238945 0)
(0.288961 -0.259643 0)
(0.329267 -0.259188 0)
(0.361334 -0.244241 0)
(0.386821 -0.220683 0)
(0.407253 -0.192905 -6.18116e-19)
(0.423711 -0.163676 0)
(0.436911 -0.134514 1.91992e-19)
(0.447306 -0.106165 1.88866e-19)
(0.455194 -0.0789231 0)
(0.460769 -0.0528377 0)
(0.464207 -0.027859 0)
(0.465635 -0.00386171 0)
(0.465426 0.0193968 1.94824e-19)
(0.463876 0.0422898 0)
(0.461309 0.065091 -2.00438e-19)
(0.457893 0.0878344 0)
(0.453504 0.110221 0)
(0.447627 0.131551 0)
(0.439346 0.150689 -4.65374e-19)
(0.427367 0.166079 0)
(0.410238 0.175914 2.5803e-19)
(0.386721 0.178472 -5.53266e-19)
(0.356323 0.172579 0)
(0.319802 0.158094 0)
(0.279435 0.135975 0)
(0.238936 0.108099 4.47298e-19)
(0.202682 0.0768845 5.306e-19)
(0.17473 0.0444345 0)
(0.158357 0.0111554 0)
(0.153696 -0.0237619 -1.46635e-18)
(0.16061 -0.06016 -1.27082e-18)
(0.174612 -0.0936371 1.03794e-18)
(0.187423 -0.113177 0)
(0.191707 -0.11146 0)
(0.186338 -0.0926533 0)
(0.172524 -0.0639376 0)
(0.151404 -0.0331496 -7.54126e-19)
(0.124371 -0.00597183 -8.31994e-19)
(0.0913209 0.0183738 9.70943e-19)
(0.0478145 0.0382097 0)
(-0.0259199 0.0551498 0)
(-0.146064 0.0998214 0)
(-0.303682 0.168799 0)
(-0.484508 0.245963 -3.76708e-19)
(-0.674694 0.323048 0)
(-0.862805 0.392664 0)
(-1.03884 0.448125 -1.93837e-19)
(-1.19762 0.48861 -1.68116e-19)
(-1.33317 0.512435 0)
(-1.4441 0.518482 2.76889e-19)
(-1.53292 0.507997 -1.27141e-19)
(-1.60321 0.484187 1.19466e-19)
(-1.65921 0.450992 0)
(-1.70504 0.41235 0)
(-1.74422 0.37171 0)
(-1.77947 0.331783 0)
(-1.81258 0.294419 9.78766e-20)
(-1.84462 0.260675 1.91858e-19)
(-1.87606 0.230962 9.28183e-20)
(-1.90708 0.205248 -9.06558e-20)
(-1.93764 0.183232 0)
(-1.96764 0.164489 1.74124e-19)
(-1.99694 0.148553 1.70612e-19)
(-2.02543 0.134973 1.67359e-19)
(-2.05302 0.123332 -1.64294e-19)
(-2.07962 0.113274 0)
(-2.10521 0.104503 -2.38053e-19)
(-2.12976 0.096773 0)
(-2.15325 0.0898851 7.67493e-20)
(-2.17568 0.0836761 7.56531e-20)
(-2.19707 0.0780169 0)
(-2.2174 0.0728059 0)
(-2.2367 0.067962 1.44384e-19)
(-2.25496 0.0634209 0)
(-2.27221 0.0591314 1.40078e-19)
(-2.28845 0.0550523 0)
(-2.30369 0.0511505 -1.35891e-19)
(-2.31793 0.047399 -2.67759e-19)
(-2.33118 0.0437758 0)
(-2.34344 0.0402621 0)
(-2.35471 0.0368422 0)
(-2.365 0.0335027 -1.25686e-19)
(-2.37431 0.0302322 0)
(-2.38264 0.0270219 -1.21635e-19)
(-2.38999 0.0238648 0)
(-2.39637 0.0207571 0)
(-2.40178 0.0176974 2.31083e-19)
(-2.40622 0.014688 0)
(-2.4097 0.0117348 1.11449e-19)
(-2.41223 0.00884679 0)
(-2.4138 0.00603196 1.07325e-19)
(-2.41438 0.00328532 0)
(-2.41393 0.000575332 0)
(-2.41238 -0.00212461 0)
(-2.40971 -0.00480769 2.9559e-19)
(-2.4059 -0.00746153 9.6199e-20)
(-2.40095 -0.010084 0)
(-2.39484 -0.0126741 0)
(-2.38757 -0.0152304 0)
(-2.37912 -0.0177513 0)
(-2.36948 -0.0202352 -8.45195e-20)
(-2.35867 -0.0226799 1.64612e-19)
(-2.34667 -0.0250836 7.96547e-20)
(-2.33348 -0.0274443 -1.5482e-19)
(-2.3191 -0.0297599 -1.49834e-19)
(-2.30354 -0.0320284 -7.21328e-20)
(-2.28678 -0.0342477 0)
(-2.26885 -0.0364161 -1.34497e-19)
(-2.24973 -0.0385315 0)
(-2.22944 -0.0405921 1.23947e-19)
(-2.20799 -0.042596 5.89598e-20)
(-2.18538 -0.0445417 0)
(-2.16162 -0.0464271 -1.07616e-19)
(-2.13673 -0.0482507 -5.06537e-20)
(-2.11072 -0.0500105 0)
(-2.08359 -0.0517046 -4.57183e-20)
(-2.05537 -0.0533311 1.26902e-19)
(-2.02607 -0.054888 0)
(-1.99571 -0.0563738 0)
(-1.96431 -0.0577889 0)
(-1.93187 -0.0591349 0)
(-1.89841 -0.0604179 5.48187e-20)
(-1.86396 -0.0616505 4.76633e-20)
(-1.82857 -0.062824 0)
(-1.79225 -0.0639206 0)
(-1.75502 -0.0649392 0)
(-1.7169 -0.0658868 0)
(-1.67793 -0.0667675 0)
(-1.63812 -0.0675806 0)
(-1.5975 -0.0683252 2.14168e-21)
(-1.55609 -0.0690031 -1.05468e-21)
(-1.51394 -0.0696154 0)
(-1.47105 -0.0701643 0)
(-1.42746 -0.0706512 -2.41456e-20)
(-1.3832 -0.0710787 0)
(-1.3383 -0.0714485 3.92735e-20)
(-1.29277 -0.0717631 4.52586e-20)
(-1.24666 -0.0720237 0)
(-1.19997 -0.0722355 0)
(-1.15273 -0.0723959 -6.80271e-20)
(-1.10498 -0.0725141 -1.48388e-19)
(-1.05672 -0.072587 0)
(-1.00798 -0.0726156 0)
(-0.95878 -0.0725982 0)
(-0.909155 -0.0725355 -1.05187e-19)
(-0.859122 -0.0724308 1.12803e-19)
(-0.808712 -0.0722894 0)
(-0.757936 -0.0721188 2.53939e-19)
(-0.70682 -0.0719255 1.33504e-19)
(-0.655367 -0.0717182 -2.85037e-19)
(-0.603592 -0.0715004 0)
(-0.551491 -0.0712839 0)
(-0.499066 -0.0710616 -3.32372e-19)
(-0.446316 -0.0708435 -1.75388e-19)
(-0.393239 -0.0706204 0)
(-0.339835 -0.0703947 0)
(-0.286102 -0.0701678 0)
(-0.232039 -0.0699442 0)
(-0.177638 -0.0697288 -4.29567e-19)
(-0.122888 -0.0695264 0)
(-0.0677769 -0.0693387 0)
(-0.0122893 -0.0691621 0)
(0.0435849 -0.0689837 0)
(0.0998459 -0.0687794 0)
(0.156475 -0.0685093 0)
(0.213421 -0.0681017 -5.09554e-19)
(0.270597 -0.0674598 0)
(0.327797 -0.066426 0)
(0.385033 -0.0647497 -1.05962e-18)
(0.44079 -0.0619765 5.35744e-19)
(0.499097 -0.0571546 -5.47441e-19)
(0.544762 -0.0452189 5.59632e-19)
(-0.00122198 0.0267801 0)
(0.000702969 0.039009 4.72758e-18)
(0.0187408 0.0063892 0)
(0.0672023 -0.0792981 9.2529e-19)
(0.136292 -0.184054 0)
(0.206622 -0.270563 0)
(0.264848 -0.321677 -2.98211e-19)
(0.307105 -0.338633 0)
(0.33556 -0.330814 0)
(0.3543 -0.308232 0)
(0.367024 -0.278235 0)
(0.376266 -0.24524 0)
(0.383484 -0.211588 6.9273e-19)
(0.389382 -0.178407 3.36772e-19)
(0.394222 -0.146198 -3.30623e-19)
(0.39805 -0.11516 0)
(0.400834 -0.0853577 0)
(0.402542 -0.0567831 0)
(0.403158 -0.0294005 0)
(0.402696 -0.00315284 0)
(0.401254 0.0220693 3.44589e-19)
(0.398954 0.0464174 3.47589e-19)
(0.396034 0.0700543 -3.53015e-19)
(0.39281 0.0931345 3.61039e-19)
(0.389584 0.115704 0)
(0.386545 0.137609 0)
(0.383668 0.158418 4.05966e-19)
(0.38059 0.177299 0)
(0.37651 0.192954 0)
(0.370222 0.20365 4.80226e-19)
(0.360376 0.207405 5.11691e-19)
(0.345956 0.202387 5.49513e-19)
(0.3268 0.18736 0)
(0.303931 0.16207 0)
(0.279515 0.127506 -7.47127e-19)
(0.256615 0.0855676 0)
(0.238223 0.0387433 0)
(0.225972 -0.0105302 1.05304e-18)
(0.218431 -0.059295 -9.24736e-19)
(0.207738 -0.0940915 7.73689e-19)
(0.187773 -0.102349 0)
(0.157427 -0.0858715 0)
(0.117589 -0.0545618 1.38603e-18)
(0.0690247 -0.0147675 0)
(0.0113029 0.0295745 1.73178e-18)
(-0.0666161 0.0755684 2.34253e-18)
(-0.172524 0.131082 -1.78422e-18)
(-0.303772 0.20055 8.93078e-19)
(-0.460074 0.278787 0)
(-0.632563 0.362402 0)
(-0.808072 0.44386 4.4158e-19)
(-0.975055 0.515419 1.85538e-19)
(-1.12432 0.570897 0)
(-1.25053 0.607872 0)
(-1.35284 0.627058 1.30644e-19)
(-1.43222 0.630363 2.4308e-19)
(-1.49047 0.619727 0)
(-1.53164 0.597161 -2.10746e-19)
(-1.5606 0.565115 2.01419e-19)
(-1.58205 0.526598 -1.91417e-19)
(-1.59995 0.4846 0)
(-1.61713 0.441711 0)