/*--------------------------------*- C++ -*----------------------------------*\
  =========                 |
  \\      /  F ield         | OpenFOAM: The Open Source CFD Toolbox
   \\    /   O peration     | Website:  https://openfoam.org
    \\  /    A nd           | Version:  8
     \\/     M anipulation  |
\*---------------------------------------------------------------------------*/
FoamFile
{
    version     2.0;
    format      ascii;
    class       volVectorField;
    location    "1000";
    object      U;
}
// * * * * * * * * * * * * * * * * * * * * * * * * * * * * * * * * * * * * * //

dimensions      [0 1 -1 0 0 0 0];

internalField   nonuniform List<vector> 
12225
(
(9.76926 0.0457357 0)
(9.33102 0.0859109 0)
(8.90953 0.0905853 0)
(8.53061 0.084614 0)
(8.19039 0.0810796 0)
(7.90769 0.0691511 0)
(7.66856 0.0549325 0)
(7.45747 0.0438189 0)
(7.26983 0.0317341 0)
(7.13253 0.0266031 0)
(7.00448 0.0243373 0)
(6.9071 0.0136232 0)
(6.82967 0.00139312 0)
(6.75964 0.00830166 0)
(6.70827 0.0106816 0)
(6.67221 0.00394947 0)
(6.65193 0.0111119 0)
(6.64661 0.00615817 0)
(10.0781 0.0574319 0)
(10.234 0.0896039 0)
(10.3111 0.0870837 0)
(10.3218 0.0827213 0)
(10.3014 0.0789134 0)
(10.2366 0.0753179 0)
(10.1673 0.0708614 0)
(10.091 0.0662336 0)
(10.0137 0.0610649 0)
(9.9204 0.0544941 0)
(9.83574 0.048729 0)
(9.74601 0.0464804 0)
(9.662 0.0448562 0)
(9.58681 0.0390158 0)
(9.50603 0.0330404 0)
(9.43293 0.0280105 0)
(9.36241 0.0211607 0)
(9.29116 0.014692 0)
(10.018 0.042647 0)
(10.0736 0.0644341 0)
(10.1255 0.0680662 0)
(10.1609 0.0733598 0)
(10.1905 0.0781843 0)
(10.2142 0.0791409 0)
(10.23 0.0783121 0)
(10.2387 0.0777375 0)
(10.2422 0.0758608 0)
(10.2384 0.0730055 0)
(10.2312 0.0697365 0)
(10.2197 0.0649533 0)
(10.2039 0.0601053 0)
(10.1874 0.0570962 0)
(10.1699 0.0535933 0)
(10.1512 0.0492391 0)
(10.1317 0.0450732 0)
(10.11 0.0377049 0)
(10.0084 0.0304588 0)
(10.0408 0.0540912 0)
(10.0717 0.061906 0)
(10.0933 0.0674091 0)
(10.1123 0.071585 0)
(10.1308 0.0725301 0)
(10.1467 0.0712587 0)
(10.1598 0.0699052 0)
(10.1711 0.0683597 0)
(10.1806 0.0664542 0)
(10.1885 0.064225 0)
(10.1948 0.0613795 0)
(10.1991 0.0579326 0)
(10.2023 0.055135 0)
(10.205 0.0520503 0)
(10.2069 0.048471 0)
(10.2083 0.0450479 0)
(10.2083 0.039959 0)
(10.0051 0.0241465 0)
(10.0287 0.0477667 0)
(10.0525 0.0568402 0)
(10.0703 0.0621937 0)
(10.0855 0.065998 0)
(10.1003 0.0673459 0)
(10.1134 0.0668547 0)
(10.1247 0.0659073 0)
(10.1348 0.0646396 0)
(10.144 0.0629177 0)
(10.1525 0.0608618 0)
(10.16 0.0584085 0)
(10.1665 0.0556297 0)
(10.1723 0.0530999 0)
(10.1777 0.0502983 0)
(10.1826 0.0470792 0)
(10.187 0.0436224 0)
(10.1906 0.0393139 0)
(10.0033 0.0192077 0)
(10.0212 0.0411871 0)
(10.041 0.0510888 0)
(10.0571 0.0567942 0)
(10.0709 0.0608324 0)
(10.084 0.0626277 0)
(10.0959 0.0626555 0)
(10.1063 0.0619588 0)
(10.1157 0.0608321 0)
(10.1244 0.0592373 0)
(10.1324 0.0573 0)
(10.1397 0.0549971 0)
(10.1463 0.0524512 0)
(10.1522 0.0499256 0)
(10.1578 0.0472148 0)
(10.1629 0.0442067 0)
(10.1676 0.0409182 0)
(10.1715 0.0371797 0)
(10.0023 0.0153667 0)
(10.0158 0.0349947 0)
(10.0324 0.045259 0)
(10.047 0.0512777 0)
(10.0599 0.0554558 0)
(10.072 0.0575706 0)
(10.0833 0.0580092 0)
(10.0932 0.0575882 0)
(10.1023 0.056652 0)
(10.1106 0.0552416 0)
(10.1183 0.0534669 0)
(10.1254 0.051355 0)
(10.1318 0.0490165 0)
(10.1377 0.046598 0)
(10.1431 0.0440199 0)
(10.1482 0.0412059 0)
(10.1527 0.0381408 0)
(10.1567 0.0348109 0)
(10.0016 0.0126777 0)
(10.0123 0.0304689 0)
(10.0267 0.0407233 0)
(10.0401 0.0468252 0)
(10.0521 0.0509518 0)
(10.0635 0.0532203 0)
(10.0742 0.0539372 0)
(10.0839 0.0537519 0)
(10.0928 0.0529842 0)
(10.1009 0.0517258 0)
(10.1085 0.0500645 0)
(10.1154 0.0480789 0)
(10.1217 0.0458649 0)
(10.1275 0.0435322 0)
(10.1329 0.0410454 0)
(10.1378 0.0383692 0)
(10.1422 0.0354874 0)
(10.1461 0.0324633 0)
(10.0013 0.0106813 0)
(10.0098 0.0265692 0)
(10.0223 0.0365601 0)
(10.0346 0.0426839 0)
(10.0459 0.0467969 0)
(10.0566 0.0491745 0)
(10.0668 0.0500821 0)
(10.0762 0.0500593 0)
(10.0848 0.0494261 0)
(10.0928 0.0483046 0)
(10.1002 0.0467857 0)
(10.107 0.0449518 0)
(10.1132 0.0428937 0)
(10.1189 0.0406892 0)
(10.1242 0.0383423 0)
(10.129 0.0358196 0)
(10.1334 0.0331401 0)
(10.1372 0.030355 0)
(10.001 0.00893268 0)
(10.0077 0.022793 0)
(10.0184 0.0322955 0)
(10.0295 0.0383143 0)
(10.0399 0.0423354 0)
(10.0499 0.0447472 0)
(10.0596 0.0458007 0)
(10.0685 0.0459223 0)
(10.0768 0.0454289 0)
(10.0846 0.0444472 0)
(10.0917 0.0430784 0)
(10.0984 0.0413961 0)
(10.1045 0.039488 0)
(10.1101 0.0374322 0)
(10.1153 0.0352215 0)
(10.12 0.032876 0)
(10.1243 0.0304002 0)
(10.1281 0.02787 0)
(10.0007 0.00738277 0)
(10.006 0.0191842 0)
(10.0149 0.0279792 0)
(10.0248 0.033753 0)
(10.0343 0.0375923 0)
(10.0436 0.0399685 0)
(10.0526 0.0411066 0)
(10.0611 0.0413511 0)
(10.069 0.0409736 0)
(10.0764 0.0401241 0)
(10.0833 0.0388897 0)
(10.0897 0.0373553 0)
(10.0957 0.0356076 0)
(10.1012 0.0337043 0)
(10.1062 0.0316575 0)
(10.1108 0.0294992 0)
(10.115 0.0272515 0)
(10.1188 0.0249433 0)
(10.0006 0.00599928 0)
(10.0047 0.0157368 0)
(10.012 0.0236047 0)
(10.0206 0.0289757 0)
(10.0293 0.0325496 0)
(10.0378 0.034813 0)
(10.0461 0.0359772 0)
(10.0541 0.0363011 0)
(10.0616 0.0360304 0)
(10.0686 0.0352928 0)
(10.0752 0.0341985 0)
(10.0813 0.0328131 0)
(10.0871 0.0312426 0)
(10.0924 0.0294909 0)
(10.0972 0.0276418 0)
(10.1017 0.0256694 0)
(10.1058 0.0236504 0)
(10.1094 0.0215701 0)
(10.0004 0.0047541 0)
(10.0037 0.0125188 0)
(10.0097 0.0192563 0)
(10.0171 0.0240358 0)
(10.0248 0.0272426 0)
(10.0326 0.029301 0)
(10.0402 0.0304095 0)
(10.0476 0.0307685 0)
(10.0546 0.0305685 0)
(10.0613 0.029942 0)
(10.0675 0.0289761 0)
(10.0734 0.0277654 0)
(10.0789 0.026348 0)
(10.084 0.0247986 0)
(10.0887 0.0231153 0)
(10.0929 0.0213703 0)
(10.0969 0.0195522 0)
(10.1004 0.0177196 0)
(10.0004 0.00362579 0)
(10.0029 0.009513 0)
(10.0078 0.0149665 0)
(10.0141 0.0189708 0)
(10.021 0.0216902 0)
(10.028 0.0234466 0)
(10.035 0.0244103 0)
(10.0418 0.0247435 0)
(10.0484 0.0245763 0)
(10.0547 0.024041 0)
(10.0606 0.0232021 0)
(10.0661 0.0221492 0)
(10.0714 0.020907 0)
(10.0762 0.0195399 0)
(10.0807 0.0180575 0)
(10.0848 0.0165223 0)
(10.0886 0.0149347 0)
(10.092 0.0133298 0)
(10.0003 0.00257774 0)
(10.0024 0.00667074 0)
(10.0064 0.0107287 0)
(10.0118 0.0137979 0)
(10.0178 0.0159001 0)
(10.0241 0.0172514 0)
(10.0305 0.0179869 0)
(10.0368 0.0182127 0)
(10.043 0.0180447 0)
(10.0489 0.0175553 0)
(10.0545 0.0168357 0)
(10.0597 0.0159114 0)
(10.0647 0.0148531 0)
(10.0693 0.0136579 0)
(10.0736 0.012401 0)
(10.0776 0.0110735 0)
(10.0812 0.0097369 0)
(10.0845 0.00836788 0)
(10.0002 0.00158234 0)
(10.002 0.00392033 0)
(10.0053 0.00650976 0)
(10.01 0.00850236 0)
(10.0154 0.00985493 0)
(10.0211 0.0106949 0)
(10.027 0.0111035 0)
(10.0328 0.0111559 0)
(10.0386 0.0109163 0)
(10.0441 0.010447 0)
(10.0494 0.00979735 0)
(10.0544 0.00900394 0)
(10.0592 0.00809692 0)
(10.0636 0.00710327 0)
(10.0677 0.00605249 0)
(10.0715 0.00496526 0)
(10.0751 0.00386371 0)
(10.0783 0.00275858 0)
(10.0002 0.000598726 0)
(10.0017 0.00118328 0)
(10.0047 0.00223427 0)
(10.0089 0.00301128 0)
(10.0138 0.00349066 0)
(10.0191 0.00369515 0)
(10.0246 0.00368829 0)
(10.0301 0.00347352 0)
(10.0355 0.00311264 0)
(10.0408 0.00260575 0)
(10.0458 0.00200743 0)
(10.0506 0.0013117 0)
(10.0552 0.00056124 0)
(10.0594 -0.000248376 0)
(10.0634 -0.00108058 0)
(10.0671 -0.00193774 0)
(10.0706 -0.0027926 0)
(10.0737 -0.00364554 0)
(10.0002 -0.000369719 0)
(10.0017 -0.00148738 0)
(10.0045 -0.00201347 0)
(10.0086 -0.0024863 0)
(10.0133 -0.00295963 0)
(10.0184 -0.00343174 0)
(10.0237 -0.00392887 0)
(10.0291 -0.004434 0)
(10.0343 -0.0049753 0)
(10.0395 -0.00552551 0)
(10.0444 -0.00611387 0)
(10.0491 -0.00670736 0)
(10.0535 -0.00733316 0)
(10.0577 -0.00795549 0)
(10.0616 -0.00859781 0)
(10.0652 -0.00922521 0)
(10.0686 -0.00986052 0)
(10.0717 -0.0104687 0)
(10.0002 -0.00129159 0)
(10.0018 -0.00401945 0)
(10.0048 -0.00604172 0)
(10.009 -0.00769218 0)
(10.0139 -0.0090502 0)
(10.0191 -0.0101638 0)
(10.0245 -0.0111028 0)
(10.0298 -0.0118917 0)
(10.0352 -0.0125775 0)
(10.0403 -0.0131802 0)
(10.0452 -0.0137353 0)
(10.0499 -0.014248 0)
(10.0543 -0.0147395 0)
(10.0584 -0.0152073 0)
(10.0623 -0.0156636 0)
(10.066 -0.0161026 0)
(10.0693 -0.0165313 0)
(10.0725 -0.0169415 0)
(10.0002 -0.00219853 0)
(10.002 -0.00651724 0)
(10.0054 -0.00992885 0)
(10.0101 -0.0126338 0)
(10.0153 -0.0147369 0)
(10.0209 -0.0163965 0)
(10.0265 -0.0176846 0)
(10.0321 -0.0186945 0)
(10.0376 -0.0194675 0)
(10.0428 -0.020093 0)
(10.0478 -0.0205861 0)
(10.0526 -0.0210127 0)
(10.0571 -0.021363 0)
(10.0612 -0.0216882 0)
(10.0651 -0.0219702 0)
(10.0688 -0.022244 0)
(10.0722 -0.0224903 0)
(10.0753 -0.0227304 0)
(10.0003 -0.00316346 0)
(10.0024 -0.00915606 0)
(10.0065 -0.0138983 0)
(10.0119 -0.0175078 0)
(10.0177 -0.0202428 0)
(10.0237 -0.0223231 0)
(10.0297 -0.0238867 0)
(10.0356 -0.0250154 0)
(10.0414 -0.0258364 0)
(10.0468 -0.0264144 0)
(10.052 -0.0268417 0)
(10.0569 -0.0271336 0)
(10.0614 -0.0273617 0)
(10.0657 -0.0275164 0)
(10.0696 -0.0276558 0)
(10.0733 -0.027752 0)
(10.0768 -0.0278531 0)
(10.08 -0.0279239 0)
(10.0003 -0.0042522 0)
(10.0031 -0.0120757 0)
(10.0082 -0.0180722 0)
(10.0144 -0.0224403 0)
(10.0209 -0.025671 0)
(10.0275 -0.0280816 0)
(10.034 -0.0298086 0)
(10.0404 -0.0309927 0)
(10.0464 -0.031778 0)
(10.0522 -0.0322802 0)
(10.0575 -0.0325826 0)
(10.0626 -0.0327418 0)
(10.0672 -0.0328069 0)
(10.0716 -0.0328142 0)
(10.0757 -0.0327843 0)
(10.0794 -0.0327393 0)
(10.0829 -0.0326789 0)
(10.0861 -0.0326236 0)
(10.0005 -0.00554574 0)
(10.0042 -0.0153987 0)
(10.0105 -0.0225156 0)
(10.0179 -0.0274622 0)
(10.0252 -0.0310807 0)
(10.0324 -0.0337262 0)
(10.0395 -0.0355316 0)
(10.0464 -0.0366835 0)
(10.0528 -0.0373767 0)
(10.0589 -0.037757 0)
(10.0645 -0.0379044 0)
(10.0697 -0.0379042 0)
(10.0746 -0.037795 0)
(10.079 -0.037641 0)
(10.0832 -0.0374494 0)
(10.087 -0.0372574 0)
(10.0906 -0.0370585 0)
(10.0939 -0.0368721 0)
(10.0007 -0.00714869 0)
(10.0057 -0.0192627 0)
(10.0138 -0.0272614 0)
(10.0224 -0.0325706 0)
(10.0306 -0.036477 0)
(10.0386 -0.0392826 0)
(10.0464 -0.0410878 0)
(10.0539 -0.0421458 0)
(10.0608 -0.0426993 0)
(10.0672 -0.0429117 0)
(10.0731 -0.042881 0)
(10.0786 -0.0426851 0)
(10.0836 -0.0423974 0)
(10.0883 -0.0420577 0)
(10.0926 -0.0417116 0)
(10.0965 -0.0413665 0)
(10.1002 -0.0410475 0)
(10.1035 -0.0407386 0)
(10.001 -0.00917716 0)
(10.0081 -0.0237944 0)
(10.0185 -0.0323623 0)
(10.0285 -0.0378183 0)
(10.0377 -0.0418943 0)
(10.0466 -0.044765 0)
(10.0553 -0.0465004 0)
(10.0634 -0.0474181 0)
(10.0709 -0.0477997 0)
(10.0778 -0.0478189 0)
(10.0842 -0.0475791 0)
(10.09 -0.0471725 0)
(10.0953 -0.0466712 0)
(10.1001 -0.0461338 0)
(10.1046 -0.0456026 0)
(10.1087 -0.0451047 0)
(10.1125 -0.044643 0)
(10.1159 -0.0442182 0)
(10.0015 -0.0119148 0)
(10.0118 -0.0289475 0)
(10.0252 -0.0377879 0)
(10.037 -0.0433694 0)
(10.0476 -0.0475192 0)
(10.0579 -0.0502618 0)
(10.0678 -0.0517724 0)
(10.077 -0.0524706 0)
(10.0853 -0.0526324 0)
(10.093 -0.0524495 0)
(10.1 -0.0520106 0)
(10.1064 -0.0514103 0)
(10.1121 -0.050726 0)
(10.1174 -0.0500091 0)
(10.1221 -0.0493261 0)
(10.1264 -0.0486941 0)
(10.1304 -0.0481204 0)
(10.134 -0.0475867 0)
(10.0027 -0.0162546 0)
(10.0187 -0.0347355 0)
(10.0367 -0.043038 0)
(10.0516 -0.0488817 0)
(10.0651 -0.0533544 0)
(10.0781 -0.0560269 0)
(10.0904 -0.0572541 0)
(10.1017 -0.0576094 0)
(10.1119 -0.0574214 0)
(10.121 -0.0568713 0)
(10.1293 -0.0560763 0)
(10.1366 -0.0551394 0)
(10.1432 -0.0541351 0)
(10.1489 -0.0531403 0)
(10.1539 -0.0522174 0)
(10.1582 -0.0513944 0)
(10.1621 -0.0506634 0)
(10.1654 -0.0499844 0)
(10.0073 -0.0242413 0)
(10.0379 -0.0426088 0)
(10.0669 -0.0482282 0)
(10.091 -0.053704 0)
(10.1132 -0.0588441 0)
(10.134 -0.0621183 0)
(10.1526 -0.0637534 0)
(10.1686 -0.0643377 0)
(10.1819 -0.0642467 0)
(10.1927 -0.0636182 0)
(10.2013 -0.0626137 0)
(10.2078 -0.0613572 0)
(10.2123 -0.0599555 0)
(10.2151 -0.0585318 0)
(10.2164 -0.0571614 0)
(10.2163 -0.0559435 0)
(10.2153 -0.0549113 0)
(10.2135 -0.0541449 0)
(10.0417 -0.0349179 0)
(10.1317 -0.0631476 0)
(10.198 -0.0683693 0)
(10.2415 -0.0700494 0)
(10.2697 -0.0712202 0)
(10.2846 -0.0710417 0)
(10.2873 -0.0697346 0)
(10.2795 -0.0678019 0)
(10.2635 -0.0655462 0)
(10.2415 -0.0630668 0)
(10.215 -0.0604584 0)
(10.1851 -0.0577988 0)
(10.153 -0.0551711 0)
(10.1193 -0.0526432 0)
(10.0846 -0.0503027 0)
(10.0496 -0.048214 0)
(10.015 -0.0464054 0)
(9.98159 -0.0453534 0)
(9.89058 -0.0347245 0)
(9.66919 -0.0665184 0)
(9.4304 -0.0779582 0)
(9.18514 -0.0812388 0)
(8.94964 -0.08022 0)
(8.73325 -0.0760708 0)
(8.53676 -0.0704107 0)
(8.35949 -0.0641297 0)
(8.20091 -0.0576961 0)
(8.05995 -0.0514411 0)
(7.93522 -0.0455315 0)
(7.8251 -0.0400393 0)
(7.7281 -0.0350086 0)
(7.64265 -0.0304565 0)
(7.56734 -0.0263779 0)
(7.50084 -0.0228769 0)
(7.44107 -0.0200587 0)
(7.38722 -0.0182561 0)
(-0.00276004 0.00765385 0)
(-0.0128378 0.012732 0)
(-0.0266069 0.0138939 0)
(-0.0412111 0.0119117 0)
(-0.0519421 0.00613278 0)
(-0.0512208 -0.00342553 0)
(-0.0355634 -0.0163876 -8.13453e-19)
(-0.00838721 -0.0299965 9.29577e-19)
(0.0271468 -0.0402529 0)
(0.0680801 -0.0452874 5.3479e-19)
(0.111435 -0.0457668 0)
(0.153754 -0.042875 0)
(0.192262 -0.0376885 0)
(0.225275 -0.0310285 -2.61075e-19)
(0.251916 -0.0234729 0)
(0.271756 -0.0153872 0)
(0.284459 -0.006976 2.25432e-19)
(0.290224 0.00182625 0)
(0.287941 0.0109144 0)
(0.277797 0.0198063 0)
(0.260434 0.0277456 -2.41514e-19)
(0.236495 0.0339374 0)
(0.20692 0.0376503 -2.85848e-19)
(0.173115 0.0382576 0)
(0.136948 0.0353276 0)
(0.100705 0.0288502 -4.65991e-19)
(0.066903 0.0195246 0)
(0.0379899 0.00907316 7.78294e-19)
(0.0157302 0.000149605 0)
(0.00050632 -0.00518663 -1.32246e-18)
(-0.00895588 -0.00765005 0)
(-0.0136471 -0.00936691 0)
(-0.0123463 -0.0115813 0)
(-0.00471938 -0.0152205 0)
(0.0103273 -0.0207712 0)
(0.0330304 -0.0268768 8.38228e-19)
(0.0618997 -0.0312347 0)
(0.0926438 -0.0314101 -9.87263e-19)
(0.120117 -0.0270069 0)
(0.140086 -0.0194593 7.8413e-19)
(0.150784 -0.011323 0)
(0.153386 -0.00477756 0)
(0.150525 -0.00116212 -7.72042e-19)
(0.146078 -0.00145675 0)
(0.143085 -0.00643031 -8.02642e-19)
(0.139865 -0.0153196 8.10758e-19)
(0.130104 -0.0228622 0)
(0.106434 -0.0190916 8.9113e-19)
(0.0634662 -0.000633989 1.04942e-18)
(-0.00945791 0.0199705 0)
(-0.104675 0.0406242 0)
(-0.209181 0.0644753 0)
(-0.326048 0.0857736 0)
(-0.454166 0.0935285 0)
(-0.58946 0.0988557 -1.94398e-19)
(-0.722231 0.107965 0)
(-0.853269 0.114243 1.44455e-19)
(-0.981494 0.112127 0)
(-1.10388 0.104626 0)
(-1.21765 0.0958177 -1.14744e-19)
(-1.32342 0.0880889 0)
(-1.42088 0.0783812 1.03517e-19)
(-1.51027 0.0706985 0)
(-1.59249 0.0653361 0)
(-1.6685 0.0591114 0)
(-1.73846 0.0541618 -8.91529e-20)
(-1.80331 0.0496821 0)
(-1.86359 0.0457831 0)
(-1.91986 0.0423837 -8.28342e-20)
(-1.97263 0.0394045 0)
(-2.0223 0.0367887 -7.96291e-20)
(-2.06922 0.0344669 0)
(-2.11368 0.0323946 0)
(-2.15592 0.0305175 0)
(-2.19611 0.02881 7.4549e-20)
(-2.23442 0.0272304 0)
(-2.27097 0.0257661 0)
(-2.30585 0.0243858 7.14285e-20)
(-2.33914 0.0230859 7.04724e-20)
(-2.37091 0.0218416 0)
(-2.4012 0.0206558 6.86496e-20)
(-2.43006 0.0195071 0)
(-2.45752 0.0184027 1.33836e-19)
(-2.4836 0.017323 0)
(-2.50833 0.0162771 1.30498e-19)
(-2.53173 0.0152459 0)
(-2.55379 0.0142388 -1.27238e-19)
(-2.57453 0.013238 0)
(-2.59392 0.0122489 0)
(-2.61196 0.0112616 0)
(-2.62867 0.0102715 1.2081e-19)
(-2.64407 0.00926682 0)
(-2.65813 0.00824475 -1.1759e-19)
(-2.67079 0.00719617 0)
(-2.68201 0.00611823 1.14333e-19)
(-2.69175 0.00500665 1.12687e-19)
(-2.69993 0.00386767 1.1103e-19)
(-2.70652 0.0027243 0)
(-2.71145 0.00163549 0)
(-2.71464 0.000685234 0)
(-2.71622 -9.63584e-05 0)
(-2.71658 -0.000787986 0)
(-2.71567 -0.00146004 0)
(-2.71354 -0.00211814 0)
(-2.71017 -0.00277075 0)
(-2.70557 -0.00341625 -9.48504e-20)
(-2.69973 -0.00405727 -9.28517e-20)
(-2.69265 -0.00469155 0)
(-2.68433 -0.00532102 0)
(-2.67476 -0.0059433 0)
(-2.66394 -0.00656022 -8.43864e-20)
(-2.65188 -0.00716927 0)
(-2.63857 -0.0077723 0)
(-2.62401 -0.00836655 0)
(-2.60822 -0.00895408 0)
(-2.59119 -0.00953167 7.25994e-20)
(-2.57293 -0.0101019 0)
(-2.55345 -0.0106608 0)
(-2.53275 -0.0112118 -6.47738e-20)
(-2.51086 -0.01175 6.20247e-20)
(-2.48778 -0.0122799 0)
(-2.46353 -0.0127956 5.62993e-20)
(-2.43811 -0.0133024 0)
(-2.41156 -0.0137935 -5.02539e-20)
(-2.38388 -0.0142752 0)
(-2.35509 -0.0147394 0)
(-2.32522 -0.0151934 0)
(-2.2943 -0.0156234 0)
(-2.26234 -0.0160476 0)
(-2.22937 -0.0164427 5.9974e-20)
(-2.19543 -0.0168237 5.25444e-20)
(-2.16054 -0.0171739 0)
(-2.12473 -0.0174729 0)
(-2.088 -0.0176907 0)
(-2.05045 -0.0177565 -2.06585e-20)
(-2.01216 -0.0176176 0)
(-1.97319 -0.0174216 0)
(-1.93346 -0.0175181 0)
(-1.89292 -0.0178034 1.50083e-20)
(-1.85162 -0.018022 -2.46194e-20)
(-1.80962 -0.0182308 0)
(-1.76695 -0.0184227 0)
(-1.72367 -0.0186033 -5.53356e-20)
(-1.67981 -0.0187713 -6.62548e-20)
(-1.63537 -0.0189278 0)
(-1.59039 -0.0190731 0)
(-1.54487 -0.0192075 1.01346e-19)
(-1.49885 -0.0193355 -1.13906e-19)
(-1.45233 -0.0194577 0)
(-1.40534 -0.01958 0)
(-1.35792 -0.0196973 -1.54581e-19)
(-1.31006 -0.0198151 0)
(-1.2618 -0.0199286 0)
(-1.21316 -0.020042 -2.00513e-19)
(-1.16416 -0.0201569 0)
(-1.11483 -0.0202746 -2.3467e-19)
(-1.06516 -0.0203984 0)
(-1.01517 -0.0205318 0)
(-0.964863 -0.0206753 0)
(-0.914232 -0.020833 3.13749e-19)
(-0.863272 -0.0210041 0)
(-0.811975 -0.0211911 0)
(-0.760332 -0.021392 0)
(-0.708341 -0.0216086 0)
(-0.655998 -0.0218401 0)
(-0.603299 -0.0220898 0)
(-0.550241 -0.0223589 5.04418e-19)
(-0.496812 -0.0226513 5.39783e-19)
(-0.443004 -0.0229678 0)
(-0.388801 -0.0233099 0)
(-0.334199 -0.023674 0)
(-0.279204 -0.0240578 -7.13719e-19)
(-0.223848 -0.0244663 0)
(-0.168206 -0.0248843 1.65551e-18)
(-0.112448 -0.0252484 -1.78857e-18)
(-0.0569387 -0.0254193 -1.93724e-18)
(-0.00188592 -0.0249907 2.04393e-18)
(0.0494353 -0.0232797 -2.03132e-18)
(0.106239 -0.0208173 1.96773e-18)
(0.122231 -0.00946389 0)
(-0.000224831 0.0205523 0)
(-0.00580875 0.0358131 0)
(-0.012407 0.0371397 2.17113e-18)
(-0.0130159 0.0278068 0)
(0.000725307 0.00612901 -2.27745e-18)
(0.0301441 -0.0307763 -1.45118e-18)
(0.0691458 -0.072372 -4.56269e-19)
(0.113772 -0.106591 -3.25311e-19)
(0.15999 -0.127697 0)
(0.204344 -0.135291 -2.12489e-19)
(0.244624 -0.132011 0)
(0.279876 -0.121259 0)
(0.309775 -0.105945 3.16477e-19)
(0.334333 -0.0881669 1.50747e-19)
(0.353775 -0.0692849 -2.9383e-19)
(0.368412 -0.0500801 -2.90402e-19)
(0.378633 -0.0309405 -1.45218e-19)
(0.384613 -0.0120063 0)
(0.387344 0.00673573 0)
(0.386737 0.0251157 0)
(0.382408 0.0427766 -1.53509e-19)
(0.373854 0.0591715 0)
(0.360505 0.0735492 4.91324e-19)
(0.341878 0.0849167 0)
(0.31775 0.0921384 0)
(0.288356 0.094117 1.99066e-19)
(0.254587 0.090112 0)
(0.218101 0.0801869 -2.52325e-19)
(0.181254 0.0654109 -5.91239e-19)
(0.146988 0.0475957 3.53924e-19)
(0.118442 0.0283697 0)
(0.0989189 0.00859663 0)
(0.0897485 -0.0118705 0)
(0.0926542 -0.0321076 -1.03179e-18)
(0.105749 -0.0522523 -8.65367e-19)
(0.125387 -0.0696029 -3.57843e-19)
(0.14548 -0.0768964 0)
(0.160115 -0.0709662 5.16956e-19)
(0.166803 -0.0549303 0)
(0.165211 -0.0342626 -5.0295e-19)
(0.156064 -0.0155993 0)
(0.140191 -0.00309103 0)
(0.117311 0.00451448 6.43866e-19)
(0.081704 0.0114834 0)
(0.0234284 0.0245949 2.48324e-18)
(-0.0697294 0.055118 -6.2523e-19)
(-0.188604 0.0972813 0)
(-0.318803 0.14144 -2.68708e-19)
(-0.455801 0.18364 -1.99796e-19)
(-0.59936 0.219062 0)
(-0.744294 0.246113 0)
(-0.887035 0.265466 0)
(-1.02519 0.276782 0)
(-1.15675 0.279363 0)
(-1.27764 0.273776 8.48328e-20)
(-1.38669 0.262782 1.59005e-19)
(-1.48405 0.248003 -7.45528e-20)
(-1.57083 0.230867 0)
(-1.64753 0.212667 1.37783e-19)
(-1.71594 0.194536 -6.70081e-20)
(-1.77671 0.177238 0)
(-1.83191 0.161265 -6.30983e-20)
(-1.88177 0.146637 0)
(-1.92766 0.133781 0)
(-1.96999 0.122349 -1.1864e-19)
(-2.00964 0.112362 5.81985e-20)
(-2.04695 0.103646 -1.14528e-19)
(-2.08227 0.0960407 1.1269e-19)
(-2.11586 0.0893785 5.54935e-20)
(-2.14789 0.0835065 0)
(-2.17851 0.0782931 5.39332e-20)
(-2.20781 0.0736174 0)
(-2.23587 0.0693874 0)
(-2.26276 0.0655153 0)
(-2.28851 0.0619431 5.10686e-20)
(-2.31316 0.0586088 0)
(-2.33673 0.0554797 9.96992e-20)
(-2.35923 0.0525105 -1.47762e-19)
(-2.38068 0.0496862 -4.86852e-20)
(-2.40108 0.0469716 0)
(-2.42045 0.044363 -4.75053e-20)
(-2.43879 0.0418313 0)
(-2.45609 0.0393799 -9.26937e-20)
(-2.47236 0.0369838 0)
(-2.48761 0.0346507 -9.03966e-20)
(-2.50182 0.0323582 1.78374e-19)
(-2.51501 0.0301153 8.80983e-20)
(-2.52715 0.0279037 0)
(-2.53824 0.0257282 0)
(-2.54826 0.0235818 0)
(-2.55724 0.0214576 -8.34299e-20)
(-2.5652 0.0193474 0)
(-2.57212 0.0172497 8.10365e-20)
(-2.578 0.0151579 0)
(-2.58284 0.0130697 -2.3578e-19)
(-2.58667 0.0109775 -7.73354e-20)
(-2.58952 0.00887771 -7.60707e-20)
(-2.59146 0.00677433 0)
(-2.59258 0.00470243 0)
(-2.59297 0.00273309 0)
(-2.59258 0.000911409 0)
(-2.59104 -0.000813502 0)
(-2.58834 -0.00249969 -1.3602e-19)
(-2.58446 -0.0041546 -1.33134e-19)
(-2.57938 -0.00578779 0)
(-2.5731 -0.00739774 6.35082e-20)
(-2.56561 -0.00898668 6.19821e-20)
(-2.5569 -0.0105516 0)
(-2.54697 -0.0120937 1.17961e-19)
(-2.53582 -0.0136097 0)
(-2.52345 -0.0151005 -5.59081e-20)
(-2.50985 -0.0165631 0)
(-2.49503 -0.017998 0)
(-2.47898 -0.0194021 1.01429e-19)
(-2.46172 -0.0207762 0)
(-2.44324 -0.022117 -4.70006e-20)
(-2.42355 -0.0234255 0)
(-2.40266 -0.0246981 0)
(-2.38058 -0.0259365 -4.18967e-20)
(-2.35732 -0.0271366 -3.95239e-20)
(-2.33288 -0.028301 0)
(-2.30729 -0.0294244 3.608e-20)
(-2.28056 -0.0305109 0)
(-2.25271 -0.0315538 -3.20138e-20)
(-2.22375 -0.0325587 -5.92816e-20)
(-2.19371 -0.0335181 0)
(-2.16261 -0.0344389 0)
(-2.13047 -0.0353129 0)
(-2.09731 -0.036147 0)
(-2.06317 -0.0369348 -3.64393e-20)
(-2.02807 -0.0376823 -9.65471e-20)
(-1.99205 -0.038381 0)
(-1.95512 -0.0390321 0)
(-1.91729 -0.0396359 0)
(-1.87858 -0.0402189 1.21393e-20)
(-1.83902 -0.0407876 0)
(-1.79861 -0.0413432 0)
(-1.75741 -0.0418545 5.39563e-21)
(-1.7155 -0.0422971 7.31188e-21)
(-1.67287 -0.0426718 1.41968e-20)
(-1.62954 -0.0430012 0)
(-1.58556 -0.0432885 0)
(-1.54096 -0.0435418 3.09915e-20)
(-1.49576 -0.0437603 -3.52265e-20)
(-1.44998 -0.0439473 0)
(-1.40366 -0.0441007 0)
(-1.3568 -0.044223 -5.45967e-20)
(-1.30941 -0.0443168 1.80615e-19)
(-1.26153 -0.0443878 0)
(-1.21317 -0.044442 0)
(-1.16436 -0.0444782 7.97425e-20)
(-1.11511 -0.0444961 0)
(-1.06544 -0.0444947 1.84263e-19)
(-1.01536 -0.0444722 -9.80777e-20)
(-0.964915 -0.0444363 0)
(-0.914104 -0.0443871 1.1364e-19)
(-0.862944 -0.0443316 2.399e-19)
(-0.811443 -0.0442738 0)
(-0.759602 -0.0442184 0)
(-0.707419 -0.0441691 -1.43064e-19)
(-0.654889 -0.0441285 0)
(-0.602003 -0.0440972 3.15583e-19)
(-0.548753 -0.0440736 0)
(-0.495134 -0.0440566 0)
(-0.441143 -0.0440455 0)
(-0.386775 -0.0440419 0)
(-0.332025 -0.0440479 -2.00709e-19)
(-0.276882 -0.0440668 -2.09705e-19)
(-0.221338 -0.0440999 0)
(-0.165379 -0.0441474 0)
(-0.109 -0.0442026 0)
(-0.0522077 -0.0442495 2.47946e-19)
(0.00496275 -0.0442539 0)
(0.0624504 -0.0441658 -5.16234e-19)
(0.120149 -0.0439225 5.17646e-19)
(0.177782 -0.0433879 5.19099e-19)
(0.235278 -0.0422392 5.17504e-19)
(0.290404 -0.0400242 5.23477e-19)
(0.348234 -0.0359052 5.25581e-19)
(0.384322 -0.023456 0)
(0.000356101 0.0233039 0)
(0.000797589 0.0401816 0)
(0.00649979 0.0331854 -2.31353e-18)
(0.0263233 0.000252059 -1.63556e-18)
(0.0658127 -0.0592815 9.75867e-19)
(0.117249 -0.12554 6.3193e-19)
(0.170135 -0.178309 -3.45247e-22)
(0.217531 -0.208723 0)
(0.256719 -0.217541 0)
(0.287714 -0.20998 0)
(0.311739 -0.191878 0)
(0.330255 -0.167974 0)
(0.344484 -0.141492 -7.19777e-19)
(0.355286 -0.114342 0)
(0.363232 -0.0875487 2.29628e-19)
(0.368697 -0.061597 2.29039e-19)
(0.371953 -0.0366762 0)
(0.373193 -0.0128587 0)
(0.372673 0.0098851 0)
(0.370718 0.0317225 0)
(0.367588 0.0527916 2.43859e-19)
(0.36346 0.073025 0)
(0.358251 0.0920489 -2.61346e-19)
(0.351565 0.109107 0)
(0.342708 0.123069 0)
(0.330816 0.132504 0)
(0.315095 0.135915 -6.54714e-19)
(0.295227 0.132096 0)
(0.271772 0.120551 3.89149e-19)
(0.246364 0.101662 -8.68786e-19)
(0.221587 0.0765808 0)
(0.200399 0.0467359 0)
(0.185371 0.0138151 0)
(0.176672 -0.0212605 6.36536e-19)
(0.172937 -0.0548179 5.57104e-19)
(0.167399 -0.076295 0)
(0.153509 -0.0765927 0)
(0.131304 -0.0589034 -7.62516e-19)
(0.10172 -0.0311012 -7.84339e-19)
(0.0649604 0.00204567 8.73098e-19)
(0.0187056 0.0358323 0)
(-0.0471113 0.0675112 0)
(-0.13773 0.105887 0)
(-0.247864 0.154715 0)
(-0.374313 0.208883 -4.00819e-19)
(-0.511569 0.264067 -3.18132e-19)
(-0.652179 0.316226 2.61268e-19)
(-0.790351 0.360606 0)
(-0.921966 0.395667 0)
(-1.04336 0.420531 0)
(-1.15273 0.434346 0)
(-1.2493 0.437615 -1.45106e-19)
(-1.33255 0.431044 0)
(-1.40367 0.415524 0)
(-1.46451 0.393351 -1.2124e-19)
(-1.51737 0.367522 -1.14437e-19)
(-1.56401 0.339853 0)
(-1.60603 0.311642 2.13599e-19)
(-1.64487 0.284108 -1.02565e-19)
(-1.68174 0.258346 9.96967e-20)
(-1.71716 0.234825 0)
(-1.7516 0.213777 0)
(-1.78525 0.195234 0)
(-1.8181 0.179102 0)
(-1.85015 0.164985 8.87189e-20)
(-1.88145 0.152693 1.74179e-19)
(-1.91197 0.141946 8.54341e-20)
(-1.94168 0.132498 -8.39424e-20)
(-1.97058 0.124132 0)
(-1.99863 0.116657 1.62287e-19)
(-2.02584 0.109915 1.59695e-19)
(-2.05218 0.103772 1.57214e-19)
(-2.07765 0.0981192 -1.5483e-19)
(-2.10224 0.0928649 0)
(-2.12596 0.0879399 -2.25536e-19)
(-2.14878 0.0832836 0)
(-2.1707 0.0788535 7.29299e-20)
(-2.19173 0.0746093 7.2067e-20)
(-2.21184 0.070526 0)
(-2.23104 0.0665758 0)
(-2.24931 0.0627444 1.38004e-19)
(-2.26666 0.0590115 0)
(-2.28307 0.0553694 1.34158e-19)
(-2.29854 0.0518024 0)
(-2.31307 0.0483068 -1.30372e-19)
(-2.32665 0.0448701 -2.57083e-19)
(-2.33928 0.0414911 0)
(-2.35094 0.0381601 0)
(-2.36162 0.0348758 0)
(-2.37132 0.0316345 -1.20965e-19)
(-2.38005 0.0284309 0)
(-2.38782 0.0252623 -1.17173e-19)
(-2.39462 0.0221277 0)
(-2.40045 0.019031 0)
(-2.40529 0.0159768 2.22774e-19)
(-2.40916 0.0129721 0)
(-2.41205 0.0100263 1.07463e-19)
(-2.41398 0.0071494 0)
(-2.41492 0.00434549 1.03417e-19)
(-2.41484 0.0015952 0)
(-2.41367 -0.00113678 0)
(-2.41139 -0.00385679 0)
(-2.40798 -0.0065481 2.84302e-19)
(-2.40343 -0.0092076 9.24577e-20)
(-2.39772 -0.0118342 0)
(-2.39085 -0.0144267 0)
(-2.3828 -0.0169837 0)
(-2.37358 -0.0195037 0)
(-2.36318 -0.0219847 -8.09121e-20)
(-2.35159 -0.0244251 1.57465e-19)
(-2.33881 -0.0268227 7.60989e-20)
(-2.32484 -0.0291759 -1.47776e-19)
(-2.30968 -0.0314822 -1.42842e-19)
(-2.29333 -0.0337399 -6.86566e-20)
(-2.27579 -0.0359464 0)
(-2.25706 -0.0381002 -1.27666e-19)
(-2.23716 -0.0401985 0)
(-2.21608 -0.0422402 1.17223e-19)
(-2.19384 -0.0442225 5.56149e-20)
(-2.17044 -0.0461445 0)
(-2.14591 -0.0480038 -1.01044e-19)
(-2.12024 -0.0497993 -4.73809e-20)
(-2.09346 -0.051529 0)
(-2.06558 -0.0531916 -4.25125e-20)
(-2.03662 -0.0547856 1.17309e-19)
(-2.00659 -0.0563097 0)
(-1.97553 -0.0577631 0)
(-1.94346 -0.0591439 0)
(-1.91039 -0.0604528 0)
(-1.87636 -0.0616889 4.86867e-20)
(-1.84139 -0.0628507 4.15851e-20)
(-1.8055 -0.063933 0)
(-1.76872 -0.0649306 0)
(-1.73106 -0.0658405 0)
(-1.69254 -0.0666757 0)
(-1.6532 -0.0674452 0)
(-1.61306 -0.0681654 0)
(-1.57217 -0.0688415 -3.37157e-21)
(-1.53057 -0.0694539 -1.05054e-21)
(-1.48827 -0.0699862 0)
(-1.44529 -0.0704491 0)
(-1.40167 -0.070847 -2.90971e-20)
(-1.35743 -0.0711867 0)
(-1.3126 -0.0714697 4.38264e-20)
(-1.2672 -0.0716994 4.96145e-20)
(-1.22125 -0.0718753 0)
(-1.17476 -0.0720015 0)
(-1.12776 -0.0720819 -7.16103e-20)
(-1.08026 -0.0721242 -1.55081e-19)
(-1.03229 -0.0721351 0)
(-0.983857 -0.0721159 0)
(-0.934984 -0.0720635 0)
(-0.885686 -0.0719789 -1.07238e-19)
(-0.835982 -0.0718587 1.14482e-19)
(-0.785891 -0.0717118 0)
(-0.735429 -0.071541 2.55909e-19)
(-0.684608 -0.0713548 1.34173e-19)
(-0.633435 -0.0711599 -2.8546e-19)
(-0.581912 -0.070963 0)
(-0.53004 -0.0707695 0)
(-0.477812 -0.0705831 -3.3042e-19)
(-0.425222 -0.0704047 -1.73959e-19)
(-0.372262 -0.070232 0)
(-0.318926 -0.0700624 0)
(-0.265211 -0.0698941 0)
(-0.211112 -0.0697291 0)
(-0.156622 -0.0695691 -4.2274e-19)
(-0.101734 -0.069418 0)
(-0.0464367 -0.0692761 0)
(0.00927878 -0.0691416 0)
(0.0654205 -0.069003 0)
(0.12199 -0.0688392 0)
(0.178968 -0.0686063 0)
(0.236299 -0.0682402 -4.96039e-19)
(0.293891 -0.0676501 0)
(0.351522 -0.0666681 0)
(0.409187 -0.0649989 -1.03131e-18)
(0.465329 -0.0621403 5.21325e-19)
(0.523841 -0.0570983 -5.32413e-19)
(0.569818 -0.0445981 5.43691e-19)
(-0.00114047 0.0234655 0)
(0.00186543 0.0270738 5.03684e-18)
(0.0234497 -0.0140924 0)
(0.0712457 -0.0969565 8.69139e-19)
(0.132278 -0.185193 0)
(0.190124 -0.249622 0)
(0.235382 -0.281192 -3.25282e-19)
(0.266754 -0.284749 0)
(0.28703 -0.269759 0)
(0.299862 -0.244617 0)
(0.308159 -0.214855 0)
(0.313763 -0.183549 0)
(0.317667 -0.152243 8.13019e-19)
(0.320327 -0.121649 3.99828e-19)
(0.321911 -0.0920813 -3.97228e-19)
(0.322461 -0.0636803 0)
(0.321992 -0.0365077 0)
(0.320516 -0.0106023 0)
(0.318091 0.0140266 0)
(0.314808 0.0374088 0)
(0.310812 0.0595861 4.29655e-19)
(0.306322 0.0805675 4.41203e-19)
(0.30155 0.100264 -4.57387e-19)
(0.296606 0.118363 4.79527e-19)
(0.29139 0.134225 0)
(0.285554 0.146811 0)
(0.278488 0.154668 5.81302e-19)
(0.269436 0.156076 0)
(0.257812 0.149455 0)
(0.243449 0.133708 7.5048e-19)
(0.227031 0.108637 8.38337e-19)
(0.209689 0.0753032 9.49755e-19)
(0.192816 0.0359699 0)
(0.175413 -0.00469842 0)
(0.1504 -0.0343183 -9.58183e-19)
(0.113144 -0.0397059 0)
(0.0654294 -0.0219165 0)
(0.00807407 0.0122784 7.57913e-19)
(-0.0618958 0.0573408 -6.7528e-19)
(-0.147486 0.111404 5.43239e-19)
(-0.247592 0.171976 0)
(-0.361542 0.234744 0)
(-0.485755 0.298125 5.87938e-19)
(-0.614573 0.360872 0)
(-0.742631 0.419281 4.22125e-19)
(-0.864842 0.468277 5.55782e-19)
(-0.976375 0.505683 -4.95622e-19)
(-1.07488 0.531404 2.9954e-19)
(-1.1596 0.545293 0)
(-1.23027 0.548071 0)
(-1.28823 0.540899 2.37768e-19)
(-1.33524 0.52519 1.10892e-19)
(-1.37346 0.502567 0)
(-1.40549 0.474777 0)
(-1.43376 0.443963 9.53385e-20)
(-1.46013 0.41222 1.84291e-19)
(-1.48576 0.380883 0)
(-1.51142 0.350771 -1.69847e-19)
(-1.5376 0.32251 1.65405e-19)
(-1.56449 0.296534 -1.6045e-19)
(-1.59207 0.272972 0)
(-1.62017 0.251851 0)
(-1.64863 0.233053 0)
(-1.67718 0.216408 0)
(-1.70564 0.201652 0)
(-1.73387 0.188558 -1.38492e-19)
(-1.76172 0.176889 0)
(-1.7891 0.166426 0)
(-1.81591 0.156977 0)
(-1.8421 0.148373 -2.57366e-19)