/*--------------------------------*- C++ -*----------------------------------*\
  =========                 |
  \\      /  F ield         | OpenFOAM: The Open Source CFD Toolbox
   \\    /   O peration     | Website:  https://openfoam.org
    \\  /    A nd           | Version:  8
     \\/     M anipulation  |
\*---------------------------------------------------------------------------*/
FoamFile
{
    version     2.0;
    format      ascii;
    class       volVectorField;
    location    "1000";
    object      wallShearStress;
}
// * * * * * * * * * * * * * * * * * * * * * * * * * * * * * * * * * * * * * //

dimensions      [0 2 -2 0 0 0 0];

internalField   uniform (0 0 0);

boundaryField
{
    inlet
    {
        type            calculated;
        value           uniform (0 0 0);
    }
    outlet
    {
        type            calculated;
        value           uniform (0 0 0);
    }
    upperWall
    {
        type            calculated;
        value           nonuniform List<vector> 
223
(
(-0.444189 0.00301441 0)
(-0.48247 0.0055469 0)
(-0.501745 0.00684112 0)
(-0.505352 0.00736151 0)
(-0.500796 0.00738111 0)
(-0.490456 0.00702964 0)
(-0.478566 0.00651815 0)
(-0.466527 0.00594152 0)
(-0.454116 0.00533785 0)
(-0.442436 0.00475233 0)
(-0.431713 0.00420373 0)
(-0.422002 0.00369935 0)
(-0.413303 0.00324273 0)
(-0.405546 0.00283447 0)
(-0.398657 0.00247276 0)
(-0.392541 0.00216752 0)
(-0.387063 0.00192331 0)
(-0.382176 0.00177788 0)
(-0.378266 0.00170097 0)
(-0.375171 0.00165486 5.91546e-22)
(-0.372146 0.00158761 0)
(-0.369201 0.00150897 0)
(-0.366335 0.00142427 0)
(-0.363552 0.00133741 6.0266e-22)
(-0.360856 0.00124981 0)
(-0.35825 0.00116404 0)
(-0.355735 0.00107997 0)
(-0.35331 0.000999235 -1.22506e-21)
(-0.350975 0.000921356 1.22975e-21)
(-0.34873 0.000847344 1.23437e-21)
(-0.346571 0.000776485 0)
(-0.3445 0.00070967 -1.2434e-21)
(-0.342513 0.000646176 0)
(-0.34061 0.00058667 1.2522e-21)
(-0.338787 0.0005308 1.25654e-21)
(-0.337042 0.000478532 -1.26084e-21)
(-0.335372 0.00042973 0)
(-0.333776 0.000384396 0)
(-0.33225 0.000342444 0)
(-0.330792 0.000303766 0)
(-0.329399 0.000268312 -1.28198e-21)
(-0.328067 0.00023591 0)
(-0.326794 0.000206565 0)
(-0.325578 0.000180116 1.29465e-21)
(-0.324413 0.000156345 0)
(-0.323299 0.000135316 1.30318e-21)
(-0.32223 0.000116865 -1.30749e-21)
(-0.321207 0.000100808 1.31184e-21)
(-0.320223 8.72431e-05 0)
(-0.319277 7.61579e-05 0)
(-0.318364 6.72694e-05 0)
(-0.317483 6.05316e-05 1.32967e-21)
(-0.316629 5.58853e-05 -1.33426e-21)
(-0.3158 5.29026e-05 0)
(-0.314993 5.16721e-05 0)
(-0.314207 5.19046e-05 0)
(-0.313436 5.34212e-05 0)
(-0.312685 5.61791e-05 0)
(-0.311938 6.00756e-05 0)
(-0.311214 6.48152e-05 0)
(-0.310481 7.03378e-05 0)
(-0.30978 7.66852e-05 1.37883e-21)
(-0.309056 8.38464e-05 -1.38413e-21)
(-0.308358 9.18013e-05 0)
(-0.307657 9.99087e-05 0)
(-0.306922 0.000109702 0)
(-0.306268 0.000118739 -1.40657e-21)
(-0.305487 0.000130103 0)
(-0.304791 0.000135997 0)
(-0.304033 0.000111825 0)
(-0.303188 0.000147874 0)
(-0.303037 0.000241994 0)
(-0.303518 0.000321111 -2.90687e-21)
(-0.302058 0.000402576 0)
(-0.301541 0.000316048 0)
(-0.301733 0.000211377 0)
(-0.300856 0.000228687 0)
(-0.300653 0.000135082 0)
(-0.337691 0.000104232 0)
(-0.320639 0.000217714 0)
(-0.310373 0.000188937 3.11532e-21)
(-0.343928 0.000221467 0)
(-0.329262 5.6496e-05 0)
(-0.347051 0.000580138 0)
(-0.331898 0.00110046 -3.34616e-21)
(-0.325159 0.000763963 0)
(-0.319066 0.00037045 -3.26467e-21)
(-0.306468 7.23565e-05 0)
(-0.308097 9.78265e-05 0)
(-0.298122 0.000143558 0)
(-0.346513 0.000447528 -3.63852e-21)
(-0.328274 0.000553829 0)
(-0.317756 0.00043613 3.35956e-21)
(-0.305396 0.000322607 3.2518e-21)
(-0.299459 0.000115639 0)
(-0.296608 0.000110603 3.19036e-21)
(-0.296328 0.000230919 0)
(-0.306812 0.000263557 0)
(-0.358356 0.000523189 0)
(-0.332788 0.000560357 -3.61139e-21)
(-0.314505 0.00018771 0)
(-0.316516 7.12813e-05 -3.4438e-21)
(-0.353659 0.000440084 3.84805e-21)
(-0.328679 0.00135834 0)
(-0.30712 0.00148469 0)
(-0.305037 0.000719954 0)
(-0.301252 0.000244783 0)
(-0.291389 2.27473e-06 0)
(-0.310415 -3.86261e-05 0)
(-0.346381 0.000417812 0)
(-0.31778 0.000567858 -3.45107e-21)
(-0.289291 0.000177756 0)
(-0.33266 0.00085531 0)
(-0.307054 0.00109823 0)
(-0.298675 0.000517766 0)
(-0.286747 0.000649541 0)
(-0.286092 0.0013706 0)
(-0.28497 0.00122896 0)
(-0.284058 0.000511044 0)
(-0.283457 -0.000121313 0)
(-0.30004 8.63208e-05 0)
(-0.281841 0.000482189 0)
(-0.280978 -6.54505e-05 0)
(-0.287417 -1.02103e-05 -5.88983e-21)
(-0.317028 6.55292e-05 0)
(-0.313957 0.00098306 0)
(-0.29477 0.0021193 0)
(-0.275108 0.00177313 5.24341e-21)
(-0.273889 0.0010278 0)
(-0.272603 0.00112508 0)
(-0.270948 0.00143154 4.97386e-21)
(-0.269322 0.000681323 0)
(-0.268265 -0.000134198 -4.80471e-21)
(-0.281908 0.000285613 0)
(-0.265908 0.000512017 0)
(-0.291063 0.000678903 0)
(-0.263874 0.000599668 4.18378e-21)
(-0.292383 0.000618983 0)
(-0.261738 0.000518615 -3.83562e-21)
(-0.288816 0.000534892 0)
(-0.259347 0.000499562 0)
(-0.282547 0.000529963 0)
(-0.25665 0.000526581 0)
(-0.274647 0.00054862 0)
(-0.253664 0.000557668 0)
(-0.265733 0.000564492 0)
(-0.250454 0.000588984 0)
(-0.256202 0.000653604 0)
(-0.246829 0.000847101 0)
(-0.262718 0.000176952 0)
(-0.264042 -0.000170308 -1.24655e-21)
(-0.241987 -0.000173054 8.63333e-22)
(-0.23677 0.00115589 0)
(-0.236186 0.00145517 0)
(-0.234327 0.000123854 0)
(-0.231773 -9.41335e-05 0)
(-0.229606 0.000213317 -7.97497e-22)
(-0.227029 0.000887072 1.15044e-21)
(-0.237382 0.00170105 -1.54727e-21)
(-0.224723 0.00215081 0)
(-0.223306 0.00164959 -2.18591e-21)
(-0.22245 0.000451186 -5.26358e-21)
(-0.218055 0.000360261 0)
(-0.215919 0.000548951 -7.10293e-21)
(-0.213045 0.000142734 8.05546e-21)
(-0.210271 0.000573245 0)
(-0.211856 0.00129432 0)
(-0.216825 0.00127058 0)
(-0.213855 0.000963635 0)
(-0.206382 0.000566058 0)
(-0.199847 0.000482628 -1.40164e-20)
(-0.197043 0.00144994 0)
(-0.203835 0.00123548 -1.62642e-20)
(-0.194922 0.000731507 0)
(-0.199464 0.00103482 0)
(-0.194793 -0.000415723 0)
(-0.188795 -0.000437085 0)
(-0.186668 0.00157774 0)
(-0.187443 0.00127177 2.26907e-20)
(-0.184296 -0.000341357 0)
(-0.179592 -0.000172653 0)
(-0.177358 0.00115871 -2.824e-20)
(-0.178521 0.00177445 0)
(-0.179241 0.00143456 0)
(-0.178148 0.00100358 0)
(-0.175397 0.000657529 3.25353e-20)
(-0.170273 0.000238809 0)
(-0.16228 -2.47091e-06 0)
(-0.151585 0.00024168 0)
(-0.139523 0.000679922 0)
(-0.126794 0.00120876 -5.7458e-20)
(-0.114047 0.00153561 0)
(-0.102314 0.00164011 0)
(-0.0910199 0.00157597 0)
(-0.0815216 0.00142452 9.21592e-20)
(-0.0705154 0.00138992 0)
(-0.0649088 0.00179917 0)
(-0.0356481 0.00148314 -1.37903e-19)
(-0.0680864 0.000443383 6.01853e-36)
(-0.102399 0.00576826 1.17829e-17)
(-0.125972 0.0102191 2.1108e-17)
(-0.138541 0.01283 1.9821e-17)
(-0.145962 0.0142771 1.90479e-17)
(-0.151461 0.0151615 1.8437e-17)
(-0.155744 0.0157827 -1.79256e-17)
(-0.158734 0.0162174 -1.74549e-17)
(-0.160999 0.0165087 -6.01853e-36)
(-0.163033 0.0167332 -3.33677e-17)
(-0.165049 0.016929 -1.63172e-17)
(-0.167115 0.0171182 5.59723e-34)
(-0.169507 0.0173145 -1.20371e-35)
(-0.172342 0.017551 -3.00666e-17)
(-0.175818 0.0178383 -2.89553e-17)
(-0.179908 0.0181918 -2.76516e-17)
(-0.184781 0.0186119 -2.40741e-35)
(-0.190345 0.0191066 4.88456e-17)
(-0.196865 0.0196841 2.24362e-17)
(-0.204035 0.0203355 2.40741e-35)
(-0.212751 0.0211143 -3.50486e-17)
(-0.221024 0.0218945 -1.23681e-20)
(-0.234635 0.0230561 3.00927e-36)
(-0.238884 0.02378 1.31848e-17)
(-0.264723 0.0253493 -7.12106e-18)
)
;
    }
    lowerWall
    {
        type            calculated;
        value           nonuniform List<vector> 
250
(
(-0.623877 -0.00580526 0)
(-0.595636 -0.00919538 0)
(-0.644554 -0.0108088 0)
(-0.634079 -0.0103777 0)
(-0.670902 -0.0108349 0)
(-0.578601 -0.00829024 0)
(-0.529824 -0.00637102 0)
(-0.475826 -0.00484432 0)
(-0.508038 -0.00399259 0)
(-0.49139 -0.00331405 0)
(-0.530495 -0.00330275 0)
(-0.548284 -0.00215783 0)
(-0.501394 -0.000718508 0)
(-0.510851 -0.00134913 0)
(-0.459845 -0.00132511 0)
(-0.499355 -0.000649128 0)
(-0.456194 -0.00112597 0)
(-0.425143 -0.000704794 0)
(0.00207157 8.02356e-05 0)
(0.00230476 -0.00279281 0)
(0.00256885 -0.00577251 0)
(0.00290123 -0.0089466 1.17461e-19)
(0.00324077 -0.0121107 -9.92971e-20)
(0.00352259 -0.0159392 8.74641e-20)
(0.00329746 -0.0161968 -7.76907e-20)
(0.00790498 -0.0355726 0)
(-0.0475813 -0.10608 0)
(0.000222282 -0.000276556 0)
(5.73873e-05 -0.000791733 0)
(-9.40291e-06 -0.000878101 0)
(5.53898e-05 -0.000879477 0)
(3.49453e-05 -0.000857494 1.54191e-19)
(-0.000137525 -0.000305816 -1.50772e-19)
(-0.000569897 0.00110833 0)
(-0.00116814 0.00378214 -1.73805e-19)
(-0.00155291 0.00720831 1.32776e-19)
(-0.00150581 0.0104541 0)
(-0.00111804 0.0128559 0)
(-0.000587971 0.014123 0)
(-7.70991e-05 0.0142273 0)
(0.000326207 0.0133512 0)
(0.000660082 0.0117822 0)
(0.000983619 0.00956568 0)
(0.00133572 0.00674048 0)
(0.00173263 0.00335348 0)
(-0.000144082 -0.000278274 0)
(0.000167863 -0.00044894 0)
(0.000477482 -0.000503459 0)
(0.000799935 -0.000436886 0)
(0.00105904 -0.000205946 -0)
(0.00111113 0.000180062 -0)
(0.000869658 0.00064468 1.4388e-20)
(0.000362868 0.00108307 -1.6446e-20)
(-0.00034436 0.00140444 0)
(-0.00115743 0.00156647 -9.46018e-21)
(-0.00199662 0.00158265 0)
(-0.00279748 0.00148287 0)
(-0.00351431 0.00130352 0)
(-0.00412176 0.0010754 4.62443e-21)
(-0.00460828 0.00081958 0)
(-0.0049694 0.000547899 0)
(-0.00520269 0.000268765 -4.0055e-21)
(-0.00531237 -2.3626e-05 -0)
(-0.005274 -0.00032681 0)
(-0.00508549 -0.000619691 -0)
(-0.00475575 -0.000881939 4.31051e-21)
(-0.00429653 -0.00109321 -0)
(-0.00372603 -0.00123221 5.10955e-21)
(-0.0030718 -0.00127934 0)
(-0.00237209 -0.00121999 -0)
(-0.00167653 -0.00105094 8.33735e-21)
(-0.00104338 -0.000788459 0)
(-0.000531046 -0.000477935 -1.39296e-20)
(-0.000173061 -0.000193616 0)
(4.97577e-05 -2.72862e-07 2.36853e-20)
(0.000191691 0.000112244 0)
(0.000273827 0.000207273 0)
(0.000264655 0.000321108 0)
(0.000152068 0.000475142 0)
(-0.000100579 0.000680489 0)
(-0.000517784 0.000892168 -1.5054e-20)
(-0.00108015 0.00103355 0)
(-0.00169642 0.00102945 1.77442e-20)
(-0.00224628 0.000871466 0)
(-0.00263286 0.000610609 -1.41149e-20)
(-0.00281951 0.000333817 0)
(-0.00283625 0.000113754 0)
(-0.00273909 -5.40511e-06 1.39322e-20)
(-0.00260211 1.22086e-06 0)
(-0.00249218 0.000126697 1.45049e-20)
(-0.0024192 0.000311021 -1.46642e-20)
(-0.00232892 0.000403118 0)
(-0.0020732 0.000167825 -1.61507e-20)
(-0.00140526 -0.000489754 -1.90377e-20)
(-9.65398e-05 -0.0012097 0)
(0.00161192 -0.00183957 0)
(0.003508 -0.00250291 0)
(0.005737 -0.00311215 0)
(0.00817159 -0.00337072 -0)
(0.0106303 -0.0035124 3.59021e-21)
(0.013049 -0.00370891 0)
(0.0155143 -0.00383615 -2.68325e-21)
(0.0179464 -0.00374333 -0)
(0.0202314 -0.00349674 -0)
(0.022352 -0.00321453 2.1381e-21)
(0.0251285 -0.00305602 0)
(0.0278575 -0.00282756 -2.05726e-21)
(0.0284623 -0.00246101 -0)
(0.0311061 -0.00235124 0)
(0.0332193 -0.00217533 -0)
(0.0352246 -0.00202894 1.82827e-21)
(0.037189 -0.00189647 0)
(0.0390545 -0.00177742 -0)
(0.0408506 -0.00167192 1.781e-21)
(0.0425908 -0.00157834 0)
(0.0442661 -0.00149463 1.75964e-21)
(0.0458991 -0.00141963 0)
(0.0474786 -0.00135158 0)
(0.049022 -0.00128918 0)
(0.0505202 -0.00123138 -1.72861e-21)
(0.0519849 -0.00117721 -0)
(0.0534101 -0.00112597 0)
(0.0548027 -0.00107682 -1.70938e-21)
(0.0561582 -0.00102961 -1.70307e-21)
(0.0574815 -0.000983586 -0)
(0.0587685 -0.000938783 -1.6902e-21)
(0.0600229 -0.000894617 0)
(0.0612408 -0.000851215 -3.35303e-21)
(0.0624249 -0.000808047 -0)
(0.0635717 -0.000765436 -3.32312e-21)
(0.0646836 -0.000722652 -0)
(0.0657563 -0.000680028 3.28987e-21)
(0.0667917 -0.000636938 0)
(0.0677857 -0.000593494 0)
(0.0687391 -0.000549627 0)
(0.0696499 -0.000505282 -3.21064e-21)
(0.0705176 -0.000459848 -0)
(0.0713396 -0.000412886 3.16351e-21)
(0.0721133 -0.000364049 0)
(0.0728361 -0.000313338 -3.11051e-21)
(0.0735058 -0.000260444 -3.08173e-21)
(0.0741192 -0.00020566 -3.05148e-21)
(0.0746748 -0.000149906 -0)
(0.0751714 -9.5186e-05 0)
(0.0756098 -4.55495e-05 0)
(0.0759965 -4.23057e-06 0)
(0.0763351 3.24073e-05 0)
(0.0766274 6.84286e-05 0)
(0.0768725 0.000103889 0)
(0.07707 0.000139259 0)
(0.0772195 0.000174414 2.70349e-21)
(0.0773203 0.000209478 2.65498e-21)
(0.0773722 0.000244304 0)
(0.0773748 0.000278989 0)
(0.0773273 0.000313422 0)
(0.0772299 0.000347575 2.43964e-21)
(0.0770823 0.000381372 0)
(0.0768843 0.000414911 0)
(0.0766356 0.000447944 0)
(0.0763371 0.000480579 0)
(0.075988 0.000512711 -2.11951e-21)
(0.0755891 0.000544351 0)
(0.0751404 0.000575364 0)
(0.0746424 0.000605799 1.89804e-21)
(0.0740958 0.000635446 -1.81903e-21)
(0.0735013 0.000664517 0)
(0.0728591 0.000692761 -1.65296e-21)
(0.0721703 0.00072031 0)
(0.0714357 0.00074688 1.47584e-21)
(0.0706567 0.000772798 0)
(0.0698334 0.000797619 0)
(0.0689684 0.000821605 0)
(0.0680658 0.000844313 0)
(0.0671226 0.00086642 0)
(0.0661257 0.000886701 -1.75026e-21)
(0.0651152 0.000906297 -1.52945e-21)
(0.0640368 0.000923824 0)
(0.0629495 0.000939355 0)
(0.0618173 0.000950958 0)
(0.0606644 0.000955894 5.81477e-22)
(0.059481 0.000952042 0)
(0.0582739 0.000945814 0)
(0.0570351 0.000951246 0)
(0.0557685 0.000963919 -4.71896e-22)
(0.0544739 0.000973379 7.54031e-22)
(0.0531574 0.000981978 0)
(0.0518192 0.000989435 0)
(0.0504622 0.00099599 1.64958e-21)
(0.0490878 0.00100178 1.96558e-21)
(0.0476966 0.00100684 0)
(0.0462904 0.00101118 0)
(0.04487 0.00101482 -2.97255e-21)
(0.0434373 0.00101795 3.32985e-21)
(0.0419932 0.00102065 0)
(0.0405391 0.00102303 0)
(0.0390756 0.001025 4.47637e-21)
(0.0376047 0.00102681 0)
(0.0361257 0.00102815 0)
(0.0346422 0.0010293 5.75309e-21)
(0.0331536 0.00103028 0)
(0.031662 0.00103123 6.69161e-21)
(0.0301676 0.00103232 0)
(0.0286712 0.00103366 0)
(0.0271735 0.00103533 0)
(0.0256745 0.00103752 -8.83663e-21)
(0.0241742 0.00104018 0)
(0.0226726 0.00104344 0)
(0.0211696 0.00104719 0)
(0.0196654 0.00105148 0)
(0.0181598 0.00105629 0)
(0.016653 0.00106174 0)
(0.015145 0.0010679 -1.39066e-20)
(0.0136357 0.00107491 -1.48372e-20)
(0.0121247 0.00108282 0)
(0.0106118 0.00109166 0)
(0.00909662 0.00110126 0)
(0.00757933 0.00111144 1.93919e-20)
(0.00606059 0.00112222 0)
(0.00454207 0.00113273 -4.47258e-20)
(0.00302791 0.00114003 4.81798e-20)
(0.00152702 0.00113902 5.20238e-20)
(4.40083e-05 0.00110925 -5.47036e-20)
(-0.00132923 0.00104542 5.41473e-20)
(-0.00285541 0.000881065 -5.2167e-20)
(-0.00319325 0.000495651 0)
(-0.00516902 0.00110922 -3.10925e-18)
(-0.00827143 0.000883749 -2.81676e-18)
(-0.0113481 0.000539416 -3.00927e-36)
(-0.014523 0.000216689 -4.78934e-18)
(-0.0179101 -0.000122704 -8.90529e-18)
(-0.0215136 -0.000481412 -4.15484e-18)
(-0.0253444 -0.000860326 3.88718e-18)
(-0.0294238 -0.00126356 -1.80556e-35)
(-0.0337779 -0.00169423 0)
(-0.0384231 -0.00215602 3.21586e-18)
(-0.0433775 -0.00265064 3.02379e-18)
(-0.0486582 -0.00314058 3.00927e-36)
(-0.0542728 -0.00365672 0)
(-0.0602838 -0.00425287 0)
(-0.0667447 -0.00491092 -2.77417e-36)
(-0.0736605 -0.00562295 -1.31655e-35)
(-0.0811794 -0.00639043 6.01853e-35)
(-0.0891614 -0.00721838 -3.74996e-18)
(-0.0981709 -0.00811737 -3.4168e-18)
(-0.107278 -0.00908989 0)
(-0.118876 -0.01016 5.3779e-18)
(-0.128481 -0.0113332 8.92762e-18)
(-0.14595 -0.0125705 -6.01853e-36)
(-0.153378 -0.0140832 -4.30601e-18)
(-0.18811 -0.0164371 -6.01853e-36)
)
;
    }
    frontAndBack
    {
        type            empty;
    }
}


// ************************************************************************* //
