/*--------------------------------*- C++ -*----------------------------------*\
| =========                 |                                                 |
| \\      /  F ield         | OpenFOAM: The Open Source CFD Toolbox           |
|  \\    /   O peration     | Version:  v2012                                 |
|   \\  /    A nd           | Website:  www.openfoam.com                      |
|    \\/     M anipulation  |                                                 |
\*---------------------------------------------------------------------------*/
FoamFile
{
    version     2.0;
    format      ascii;
    class       volScalarField;
    location    "4200";
    object      nut;
}
// * * * * * * * * * * * * * * * * * * * * * * * * * * * * * * * * * * * * * //

dimensions      [0 2 -1 0 0 0 0];


internalField   nonuniform List<scalar> 
12225
(
0.0122671
0.00158819
0.000666128
0.000410104
0.00029404
0.000227808
0.000186418
0.000144343
0.000166323
0.000215676
0.000223826
0.000214193
0.000195171
0.000167533
0.000161406
0.000145536
0.000132332
0.000120154
0.0323823
0.00744532
0.00330638
0.00204329
0.00146802
0.00114429
0.00093866
0.000784862
0.000690369
0.000626884
0.000569547
0.000518718
0.000475219
0.000435573
0.000404981
0.000372256
0.00034712
0.000321107
0.0490123
0.01515
0.00728196
0.00457854
0.00330639
0.00258047
0.00211327
0.00178187
0.00154674
0.00137249
0.00123147
0.00111529
0.00101836
0.000936112
0.000866701
0.0008043
0.000753567
0.000701008
0.063054
0.0237783
0.0122894
0.00788815
0.00573397
0.00448496
0.0036744
0.00310418
0.00268715
0.00236996
0.00211791
0.00191316
0.00174402
0.00160223
0.00148243
0.00137861
0.00129107
0.00120453
0.074932
0.0328517
0.0181452
0.0119262
0.00874549
0.00686412
0.00563086
0.00476129
0.00411867
0.00362571
0.00323515
0.00291875
0.002658
0.00244005
0.00225597
0.00209833
0.00196335
0.00183981
0.0849536
0.0420208
0.0246655
0.0166359
0.0123325
0.00972587
0.0079954
0.0067674
0.00585403
0.00515004
0.0045919
0.00413983
0.00376743
0.00345635
0.00319352
0.00296907
0.00277613
0.00260657
0.0933822
0.0510219
0.0316642
0.0219415
0.016474
0.0130717
0.0107779
0.00913539
0.00790598
0.00695436
0.00619833
0.00558532
0.0050801
0.00465802
0.00430137
0.00399702
0.00373534
0.00350913
0.0993794
0.0583363
0.0378386
0.0268568
0.0204171
0.0163053
0.0134892
0.011453
0.00991905
0.0087267
0.00777697
0.0070057
0.00636943
0.00583762
0.00538816
0.00500468
0.00467516
0.00439182
0.104023
0.0645454
0.0433804
0.0314239
0.0241571
0.0194092
0.0161097
0.0137018
0.0118767
0.0104523
0.00931473
0.0083894
0.00762525
0.00698615
0.00644586
0.00598491
0.00558899
0.00524916
0.108368
0.0708939
0.0493757
0.0365496
0.0284517
0.0230231
0.0191863
0.0163548
0.0141927
0.0124969
0.0111382
0.0100306
0.00911457
0.00834784
0.00769937
0.00714607
0.00667098
0.00626328
0.112368
0.0772557
0.0557282
0.0421918
0.0332976
0.0271652
0.0227468
0.0194433
0.0168984
0.0148904
0.013275
0.0119546
0.0108607
0.00994396
0.00916816
0.00850607
0.00793759
0.0074494
0.115994
0.0834975
0.0623054
0.0482612
0.0386474
0.0318167
0.026789
0.0229739
0.0200047
0.0176453
0.0157379
0.0141737
0.012875
0.0117851
0.010862
0.0100738
0.0093969
0.00881485
0.119234
0.0894856
0.0689377
0.0546109
0.0443919
0.0369007
0.0312597
0.0269089
0.0234837
0.02074
0.0185097
0.0166735
0.015145
0.0138601
0.0127705
0.0118397
0.0110399
0.010351
0.122086
0.095084
0.075415
0.0610223
0.0503361
0.0422535
0.0360231
0.0311353
0.0272402
0.0240931
0.0215191
0.0193909
0.0176141
0.0161175
0.0148467
0.0137601
0.0128258
0.0120198
0.124546
0.100135
0.0814619
0.0671726
0.056158
0.047577
0.0408126
0.0354174
0.031066
0.0275197
0.0246013
0.0221778
0.0201482
0.018435
0.0169783
0.0157315
0.0146584
0.0137312
0.126578
0.104396
0.0866605
0.0725515
0.0613228
0.0523526
0.0451453
0.0393148
0.0345631
0.0306611
0.0274325
0.024741
0.0224806
0.020569
0.0189413
0.0175468
0.0163455
0.0153062
0.128011
0.107322
0.0902141
0.0762353
0.0648743
0.0556509
0.0481493
0.0420254
0.0370012
0.0328553
0.0294126
0.0265352
0.0241143
0.0220643
0.0203171
0.0188191
0.0175275
0.0164083
0.128006
0.107313
0.0902048
0.0762269
0.0648674
0.0556454
0.048145
0.0420221
0.0369988
0.0328537
0.0294117
0.0265349
0.0241147
0.0220651
0.0203184
0.0188205
0.0175286
0.0164082
0.126509
0.104255
0.0864922
0.0723807
0.0611613
0.052205
0.0450128
0.0391967
0.0344584
0.0305685
0.0273506
0.0246684
0.0224163
0.0205118
0.0188902
0.0175006
0.0163023
0.015263
0.124267
0.0995604
0.0807712
0.0664676
0.0554886
0.0469631
0.0402594
0.0349227
0.0306248
0.0271258
0.0242487
0.0218611
0.0198625
0.0181762
0.0167425
0.0155151
0.0144574
0.0135404
0.12136
0.0936399
0.0737261
0.0593348
0.0487592
0.0408248
0.0347467
0.0300003
0.0262308
0.0231928
0.0207127
0.018665
0.0169572
0.0155197
0.0142998
0.0132566
0.0123582
0.0115797
0.117686
0.0865903
0.0656967
0.0514791
0.0415374
0.0343608
0.0290183
0.0249322
0.0217348
0.0191848
0.0171184
0.0154211
0.0140105
0.0128262
0.0118228
0.0109656
0.0102279
0.00958884
0.11305
0.0784122
0.056921
0.0432687
0.0342296
0.0279652
0.0234365
0.0200435
0.0174263
0.0153598
0.0136967
0.012337
0.0112107
0.0102671
0.00946865
0.00878715
0.00820095
0.00769338
0.107169
0.0691009
0.0476372
0.035029
0.0271566
0.021922
0.0182437
0.0155401
0.0134818
0.0118708
0.0105819
0.00953233
0.00866517
0.0079399
0.00732685
0.00680388
0.00635416
0.00596493
0.0996761
0.0587036
0.0381279
0.0270699
0.0205782
0.0164329
0.0135949
0.0115437
0.00999935
0.00879954
0.00784424
0.00706856
0.00642885
0.00589442
0.00544294
0.00505789
0.00472676
0.00444031
0.0901097
0.0473665
0.0287363
0.0196847
0.0146976
0.0116311
0.00957849
0.0081152
0.0070235
0.00618081
0.00551237
0.00497029
0.0045235
0.00415043
0.00383518
0.00356625
0.00333476
0.00313473
0.0779076
0.0353826
0.0198606
0.0131383
0.00966105
0.00759295
0.00623348
0.00527409
0.00456424
0.00402037
0.00359044
0.00324086
0.00295218
0.00271097
0.00250659
0.00233209
0.00218115
0.0020512
0.06238
0.0232554
0.0119461
0.00765493
0.00556336
0.00435253
0.00356719
0.00301614
0.0026133
0.00231034
0.00207205
0.00187473
0.00171031
0.00157262
0.00145426
0.0013534
0.0012641
0.00118801
0.0426105
0.0117794
0.0054693
0.00341385
0.0024607
0.00192004
0.00157265
0.00132941
0.00115828
0.00104121
0.000949559
0.00086505
0.000791999
0.000730627
0.000670316
0.000626292
0.000581732
0.000541938
0.0168348
0.00255985
0.00110002
0.000683429
0.000493725
0.00038681
0.000318007
0.000268388
0.000267458
0.000336002
0.000374565
0.000354285
0.000319521
0.000292544
0.000240355
0.000284136
0.000266854
0.000218864
5.28806e-10
1.01548e-07
1.14774e-06
5.16857e-06
9.86056e-06
1.28025e-05
1.31252e-05
1.11694e-05
8.84788e-06
5.76847e-06
3.39721e-06
1.93938e-06
1.35873e-06
1.47335e-06
2.01101e-06
2.48068e-06
2.41325e-06
1.63495e-06
7.30631e-07
3.70697e-07
4.1144e-07
1.22095e-06
5.52232e-06
2.83895e-05
5.71792e-05
7.50008e-05
9.13894e-05
0.000105184
0.000117324
0.000127438
0.000136296
0.000143909
0.00015057
0.000156371
0.000161434
0.000165903
0.000169864
0.000173403
0.000176576
0.000179427
0.000181985
0.000184273
0.000186308
0.000188106
0.000189683
0.00019105
0.000192218
0.000193193
0.000193975
0.000194558
0.00019482
0.000195069
0.000195118
0.000194989
0.00019469
0.000194243
0.000193643
0.000192895
0.000192
0.00019096
0.000189778
0.000188456
0.000186995
0.000185398
0.000183668
0.000181808
0.000179817
0.000177698
0.000175454
0.000173088
0.000170601
0.000167995
0.000165272
0.000162433
0.00015948
0.000156414
0.000153234
0.000149942
0.000146536
0.000143015
0.000139376
0.000135618
0.000131734
0.000127719
0.000123565
0.000119261
0.000114794
0.000110151
0.000105312
0.000100253
9.49466e-05
8.9367e-05
8.3507e-05
7.7435e-05
7.14311e-05
6.61714e-05
6.24439e-05
6.01207e-05
5.83734e-05
5.67686e-05
5.51925e-05
5.36242e-05
5.20621e-05
5.05078e-05
4.89632e-05
4.74304e-05
4.5912e-05
4.44144e-05
4.2966e-05
4.17336e-05
4.05292e-05
3.93398e-05
3.81674e-05
3.70131e-05
3.58775e-05
3.47615e-05
3.36659e-05
3.25914e-05
3.15386e-05
3.0508e-05
2.94998e-05
2.85147e-05
2.75531e-05
2.66157e-05
2.57022e-05
2.48127e-05
2.39483e-05
2.3139e-05
2.24051e-05
2.16898e-05
2.09894e-05
2.03125e-05
1.96637e-05
1.9029e-05
1.84083e-05
1.78049e-05
1.72194e-05
1.66522e-05
1.61031e-05
1.55715e-05
1.50571e-05
1.45594e-05
1.40782e-05
1.36128e-05
1.31629e-05
1.27282e-05
1.23083e-05
1.19028e-05
1.15113e-05
1.11334e-05
1.07688e-05
1.04169e-05
1.00777e-05
9.75056e-06
9.4354e-06
9.13182e-06
8.83963e-06
8.5585e-06
8.28828e-06
8.0287e-06
7.77962e-06
7.54082e-06
7.31217e-06
7.09345e-06
6.88449e-06
6.68501e-06
6.4947e-06
6.31314e-06
6.13976e-06
5.97386e-06
5.81445e-06
5.66053e-06
5.50995e-06
5.36265e-06
5.20926e-06
5.06538e-06
4.86233e-06
4.72081e-06
4.30637e-06
3.6829e-06
3.34195e-09
6.03708e-06
6.1562e-05
0.00013785
0.000181886
0.000205998
0.000215522
0.000214024
0.000205549
0.000188723
0.000167815
0.00014771
0.000137593
0.000143068
0.000156909
0.000165315
0.000167422
0.000168284
0.00017376
0.000183527
0.00019976
0.000218062
0.000235162
0.000251138
0.000262452
0.000272237
0.000281082
0.000294262
0.000313153
0.000327058
0.000339732
0.000350617
0.000360519
0.000369574
0.000377449
0.00038464
0.00039134
0.000397771
0.000404063
0.000410279
0.000416414
0.000422426
0.000428262
0.00043388
0.000439254
0.000444366
0.000449202
0.000453748
0.000458007
0.000461985
0.00046569
0.000469144
0.000472336
0.000475277
0.000477966
0.000480407
0.000482599
0.000484543
0.00048624
0.00048769
0.000488893
0.000489851
0.000490566
0.000491042
0.000491289
0.000491313
0.000491108
0.000490671
0.000490017
0.00048915
0.000488077
0.000486804
0.000485337
0.000483684
0.000481852
0.000479847
0.000477678
0.000475351
0.000472874
0.000470256
0.000467503
0.000464624
0.000461627
0.00045852
0.00045531
0.000452007
0.000448617
0.00044515
0.000441613
0.000438016
0.000434363
0.000430661
0.000426909
0.000423098
0.00041921
0.000415219
0.000411108
0.000406906
0.000402665
0.000398408
0.000394143
0.000389874
0.000385604
0.000381336
0.000377075
0.000372823
0.000368583
0.000364358
0.000360148
0.000355949
0.000351774
0.000347626
0.000343507
0.00033942
0.000335366
0.000331346
0.000327362
0.000323416
0.00031951
0.000315643
0.000311817
0.000308033
0.000304292
0.000300595
0.000296943
0.000293336
0.000289773
0.000286254
0.000282776
0.000279343
0.000275953
0.000272616
0.000269331
0.000266082
0.00026287
0.000259698
0.000256571
0.00025349
0.000250453
0.00024746
0.000244512
0.000241607
0.000238744
0.000235924
0.000233145
0.000230408
0.000227712
0.000225056
0.00022244
0.000219864
0.000217326
0.000214827
0.000212367
0.000209945
0.000207561
0.000205217
0.000202911
0.000200645
0.00019842
0.000196236
0.000194096
0.000192
0.00018995
0.000187948
0.000185997
0.000184096
0.000182249
0.000180453
0.00017871
0.000177018
0.000175371
0.00017377
0.000172193
0.000170673
0.000169077
0.000167724
0.000165686
0.000165081
0.000161982
0.000160551
7.63256e-08
3.98442e-05
0.000162901
0.000245616
0.000298881
0.000329074
0.000339961
0.000336945
0.000323951
0.000304608
0.00028491
0.000272514
0.000270565
0.000277542
0.000288083
0.00029912
0.000312179
0.000329339
0.000350989
0.000376351
0.000403781
0.000431996
0.00047129
0.000517466
0.000563062
0.000607137
0.000650194
0.000693838
0.000732899
0.000763972
0.000788806
0.000808498
0.000824114
0.000836508
0.000846463
0.000854747
0.00086206
0.000869042
0.000876224
0.00088396
0.000892352
0.000901276
0.000910492
0.000919764
0.000928917
0.000937831
0.00094643
0.000954667
0.000962505
0.000969917
0.000976876
0.000983362
0.000989363
0.000994875
0.000999897
0.00100443
0.00100847
0.00101201
0.00101507
0.00101763
0.00101969
0.00102127
0.00102235
0.00102289
0.00102305
0.00102276
0.00102197
0.00102072
0.00101903
0.00101691
0.00101438
0.00101143
0.00100809
0.00100437
0.00100029
0.000995859
0.00099109
0.000986001
0.000980605
0.000974919
0.000968957
0.000962735
0.000956268
0.00094957
0.000942658
0.000935545
0.000928246
0.000920777
0.00091315
0.000905378
0.000897475
0.00088945
0.000881314
0.000873074
0.000864739
0.000856317
0.000847823
0.000839271
0.000830679
0.000822058
0.000813421
0.000804776
0.00079613
0.000787492
0.000778869
0.000770267
0.000761694
0.000753154
0.000744655
0.0007362
0.000727797
0.00071945
0.000711163
0.000702942
0.000694789
0.000686708
0.000678702
0.000670774
0.000662927
0.000655162
0.000647483
0.00063989
0.000632385
0.000624972
0.00061765
0.00061042
0.000603283
0.000596239
0.000589288
0.000582432
0.000575671
0.000569005
0.000562432
0.000555946
0.000549547
0.000543237
0.000537018
0.000530891
0.000524855
0.000518909
0.000513054
0.000507287
0.000501608
0.000496015
0.000490509
0.000485087
0.000479749
0.000474493
0.000469319
0.000464225
0.00045921
0.000454273
0.000449412
0.000444626
0.000439915
0.000435277
0.000430711
0.000426216
0.000421791
0.000417434
0.000413145
0.00040892
0.00040476
0.000400661
0.000396621
0.000392636
0.000388704
0.000384817
0.00038097
0.000377155
0.000373358
0.000369567
0.000365754
0.000361909
0.000357936
0.000353925
0.00034939
0.000345137
0.000338559
0.000326864
6.16228e-07
8.21584e-05
0.000213011
0.000308831
0.000372264
0.000409344
0.00042463
0.000424846
0.00041475
0.000401425
0.000393595
0.00039303
0.000402632
0.000420128
0.000443119
0.000471102
0.000504661
0.000544068
0.000588491
0.000652292
0.000726399
0.000806359
0.00089023
0.00096049
0.00102265
0.00107855
0.00112876
0.00117347
0.00121255
0.00124628
0.00127539
0.00130063
0.00132267
0.00134216
0.00135966
0.00137565
0.00139056
0.00140472
0.00141837
0.00143172
0.00144489
0.00145794
0.00147089
0.00148375
0.00149644
0.0015089
0.00152102
0.00153272
0.00154391
0.0015545
0.00156445
0.00157372
0.00158229
0.00159015
0.00159729
0.00160369
0.00160936
0.0016143
0.00161849
0.00162195
0.00162467
0.00162665
0.00162781
0.00162824
0.00162811
0.0016272
0.00162557
0.00162325
0.00162025
0.00161659
0.00161229
0.00160736
0.00160184
0.00159574
0.00158908
0.00158188
0.00157417
0.00156597
0.00155731
0.0015482
0.00153866
0.00152873
0.00151843
0.00150777
0.00149678
0.00148549
0.00147391
0.00146207
0.00144999
0.00143769
0.00142519
0.00141251
0.00139966
0.00138666
0.00137352
0.00136027
0.00134692
0.00133349
0.00132
0.00130646
0.0012929
0.00127933
0.00126576
0.0012522
0.00123866
0.00122516
0.0012117
0.0011983
0.00118496
0.00117169
0.00115851
0.00114541
0.0011324
0.0011195
0.0011067
0.00109401
0.00108144
0.001069
0.00105667
0.00104448
0.00103242
0.00102049
0.0010087
0.000997052
0.000985544
0.000974178
0.000962956
0.000951879
0.000940947
0.000930162
0.000919523
0.000909031
0.000898681
0.000888471
0.000878399
0.000868467
0.000858676
0.000849026
0.000839516
0.000830146
0.000820915
0.000811821
0.000802862
0.000794038
0.000785346
0.000776785
0.000768354
0.00076005
0.000751872
0.000743818
0.000735885
0.000728072
0.000720377
0.000712798
0.000705334
0.000697982
0.000690741
0.000683609
0.000676583
0.000669662
0.000662843
0.000656123
0.000649501
0.000642971
0.00063653
0.000630174
0.000623895
0.000617688
0.000611541
0.000605443
0.000599378
0.000593325
0.000587252
0.000581127
0.000574876
0.000568472
0.000561638
0.000554634
0.000546168
0.000529919
1.39954e-06
0.000101864
0.000234925
0.000354657
0.000433283
0.0004805
0.000503932
0.000512336
0.000513971
0.000515199
0.000522455
0.000539033
0.000565504
0.000600877
0.000644385
0.00069607
0.000756737
0.000840638
0.000936714
0.00103246
0.00112123
0.0012054
0.00128447
0.00135691
0.00142345
0.00148466
0.00154095
0.00159264
0.0016401
0.00168374
0.00172407
0.00176156
0.00179663
0.00182965
0.00186095
0.00189076
0.00191927
0.00194664
0.00197295
0.00199826
0.00202261
0.002046
0.00206844
0.0020899
0.00211035
0.00212978
0.00214814
0.00216542
0.00218157
0.00219659
0.00221046
0.00222318
0.00223477
0.00224524
0.00225461
0.00226289
0.0022701
0.00227626
0.00228139
0.00228549
0.00228858
0.00229063
0.00229154
0.00229163
0.00229075
0.00228887
0.00228603
0.00228226
0.00227757
0.00227198
0.00226553
0.00225824
0.00225014
0.00224126
0.00223163
0.00222127
0.00221022
0.00219852
0.00218618
0.00217325
0.00215975
0.00214572
0.00213118
0.00211616
0.00210071
0.00208484
0.0020686
0.002052
0.00203507
0.00201785
0.00200037
0.00198264
0.0019647
0.00194656
0.00192825
0.00190979
0.00189121
0.00187253
0.00185377
0.00183496
0.00181611
0.00179725
0.0017784
0.00175956
0.00174076
0.00172201
0.00170332
0.00168471
0.00166619
0.00164777
0.00162946
0.00161128
0.00159322
0.0015753
0.00155753
0.00153992
0.00152246
0.00150517
0.00148806
0.00147112
0.00145436
0.00143779
0.0014214
0.00140521
0.00138921
0.0013734
0.0013578
0.00134239
0.00132718
0.00131216
0.00129735
0.00128274
0.00126833
0.0012541
0.00124007
0.00122624
0.00121259
0.00119914
0.00118587
0.0011728
0.00115992
0.00114722
0.00113471
0.00112238
0.00111023
0.00109826
0.00108647
0.00107485
0.0010634
0.00105211
0.001041
0.00103004
0.00101925
0.00100861
0.000998128
0.000987799
0.000977619
0.000967586
0.000957697
0.00094795
0.00093834
0.000928865
0.00091952
0.000910302
0.000901205
0.000892222
0.000883348
0.000874571
0.000865882
0.000857264
0.0008487
0.000840164
0.000831623
0.000823033
0.000814325
0.000805437
0.000796165
0.000786546
0.000776374
0.000756597
2.32582e-06
0.000118225
0.000256258
0.000389869
0.000486686
0.000548388
0.00058614
0.000609631
0.000627568
0.00064721
0.000673756
0.000709796
0.000756029
0.000812725
0.00088043
0.000971352
0.00107676
0.00117841
0.0012775
0.00137276
0.00146324
0.00154902
0.00163004
0.0017063
0.00177808
0.00184573
0.0019096
0.00197001
0.00202731
0.00208181
0.00213385
0.0021837
0.00223162
0.00227781
0.00232243
0.0023656
0.00240741
0.00244792
0.00248715
0.00252511
0.00256181
0.0025972
0.00263128
0.002664
0.00269533
0.00272522
0.00275364
0.00278055
0.0028059
0.00282966
0.00285181
0.00287233
0.00289119
0.0029084
0.00292393
0.0029378
0.00294999
0.00296053
0.00296943
0.00297669
0.00298234
0.00298642
0.00298885
0.00298975
0.00298928
0.00298731
0.00298397
0.00297926
0.00297325
0.002966
0.00295755
0.00294795
0.00293726
0.00292553
0.00291281
0.00289914
0.00288458
0.00286916
0.00285293
0.00283594
0.00281822
0.00279982
0.00278079
0.00276115
0.00274096
0.00272025
0.00269906
0.00267742
0.00265539
0.00263299
0.00261025
0.00258722
0.00256392
0.00254039
0.00251665
0.00249274
0.00246869
0.00244451
0.00242025
0.00239593
0.00237157
0.00234719
0.00232283
0.0022985
0.00227421
0.00224999
0.00222586
0.00220183
0.00217792
0.00215414
0.00213051
0.00210703
0.00208372
0.00206059
0.00203765
0.0020149
0.00199237
0.00197004
0.00194794
0.00192606
0.00190441
0.001883
0.00186183
0.00184091
0.00182023
0.00179979
0.00177961
0.00175968
0.00174
0.00172058
0.00170141
0.00168249
0.00166382
0.0016454
0.00162722
0.00160929
0.0015916
0.00157416
0.00155695
0.00153999
0.00152327
0.00150678
0.00149052
0.0014745
0.0014587
0.00144313
0.00142778
0.00141265
0.00139773
0.00138302
0.00136852
0.00135423
0.00134014
0.00132625
0.00131255
0.00129904
0.00128572
0.00127259
0.00125963
0.00124686
0.00123426
0.00122182
0.00120956
0.00119745
0.0011855
0.00117369
0.00116202
0.00115048
0.00113905
0.00112773
0.00111648
0.00110529
0.00109411
0.00108289
0.00107158
0.00106011
0.00104828
0.00103612
0.00102383
0.00100138
2.7944e-06
0.000126785
0.000269165
0.000407463
0.000526047
0.000607445
0.00066362
0.00070573
0.000743021
0.000782736
0.000829891
0.00088739
0.000956958
0.00104972
0.00115701
0.00126364
0.00136971
0.00147296
0.00157287
0.00166905
0.00176125
0.0018495
0.00193389
0.00201458
0.00209182
0.00216588
0.00223703
0.00230554
0.00237167
0.00243566
0.0024977
0.00255798
0.00261665
0.00267383
0.00272958
0.00278398
0.00283706
0.00288882
0.00293927
0.00298838
0.00303612
0.00308246
0.00312735
0.00317074
0.00321258
0.00325282
0.0032914
0.00332828
0.00336339
0.0033967
0.00342816
0.00345774
0.00348539
0.00351109
0.00353481
0.00355653
0.00357624
0.00359392
0.00360957
0.00362319
0.00363479
0.00364437
0.00365195
0.00365757
0.00366122
0.00366284
0.00366275
0.00366076
0.00365699
0.00365147
0.00364426
0.00363542
0.003625
0.00361306
0.00359968
0.00358491
0.00356882
0.00355147
0.00353294
0.00351329
0.00349258
0.00347089
0.00344829
0.00342482
0.00340057
0.00337559
0.00334994
0.00332369
0.00329688
0.00326957
0.00324182
0.00321366
0.00318515
0.00315634
0.00312725
0.00309794
0.00306844
0.00303879
0.00300902
0.00297917
0.00294927
0.00291935
0.00288944
0.00285956
0.00282974
0.0028
0.00277036
0.00274084
0.00271146
0.00268225
0.0026532
0.00262435
0.0025957
0.00256727
0.00253907
0.00251111
0.0024834
0.00245594
0.00242875
0.00240184
0.0023752
0.00234885
0.00232279
0.00229702
0.00227155
0.00224638
0.00222151
0.00219694
0.00217268
0.00214872
0.00212507
0.00210172
0.00207867
0.00205592
0.00203347
0.00201132
0.00198945
0.00196788
0.0019466
0.00192561
0.00190491
0.00188449
0.00186435
0.00184448
0.00182489
0.00180557
0.00178652
0.00176772
0.00174919
0.0017309
0.00171287
0.00169509
0.00167754
0.00166024
0.00164317
0.00162633
0.00160971
0.00159332
0.00157715
0.00156119
0.00154544
0.0015299
0.00151455
0.0014994
0.00148444
0.00146965
0.00145504
0.00144059
0.00142628
0.0014121
0.00139803
0.00138404
0.00137009
0.00135613
0.0013421
0.00132793
0.00131345
0.00129871
0.00128365
0.00125941
2.93942e-06
0.000128665
0.000270492
0.000406976
0.000537576
0.000641155
0.000718461
0.000780056
0.00083612
0.000894369
0.000962813
0.00105544
0.00116561
0.00128714
0.00140265
0.00151385
0.00162158
0.00172603
0.00182714
0.00192486
0.0020192
0.00211024
0.00219815
0.00228311
0.00236533
0.00244504
0.00252247
0.00259782
0.00267129
0.00274305
0.00281323
0.00288197
0.00294933
0.0030154
0.00308021
0.00314378
0.00320611
0.00326719
0.00332698
0.00338544
0.00344254
0.0034982
0.00355238
0.00360501
0.00365603
0.00370536
0.00375295
0.00379874
0.00384265
0.00388463
0.00392462
0.00396259
0.00399846
0.00403222
0.00406381
0.0040932
0.00412038
0.00414531
0.00416798
0.00418838
0.0042065
0.00422235
0.00423594
0.00424726
0.00425635
0.00426322
0.00426794
0.00427039
0.00427083
0.00426918
0.00426551
0.00425987
0.0042523
0.00424287
0.00423164
0.00421867
0.00420402
0.00418776
0.00416996
0.00415069
0.00413003
0.00410803
0.00408478
0.00406035
0.00403481
0.00400823
0.00398069
0.00395225
0.00392297
0.00389294
0.00386221
0.00383085
0.00379892
0.00376647
0.00373357
0.00370027
0.00366663
0.0036327
0.00359852
0.00356414
0.00352962
0.00349498
0.00346028
0.00342555
0.00339081
0.00335612
0.00332149
0.00328695
0.00325254
0.00321827
0.00318418
0.00315027
0.00311657
0.00308309
0.00304986
0.00301689
0.00298419
0.00295177
0.00291964
0.00288781
0.0028563
0.00282511
0.00279424
0.00276371
0.00273351
0.00270365
0.00267413
0.00264496
0.00261614
0.00258766
0.00255954
0.00253176
0.00250433
0.00247724
0.00245049
0.00242409
0.00239802
0.00237229
0.0023469
0.00232184
0.00229711
0.0022727
0.00224862
0.00222486
0.00220142
0.00217829
0.00215546
0.00213294
0.00211072
0.0020888
0.00206716
0.00204581
0.00202474
0.00200395
0.00198344
0.00196319
0.0019432
0.00192348
0.00190401
0.0018848
0.00186583
0.0018471
0.0018286
0.00181034
0.00179229
0.00177446
0.00175683
0.0017394
0.00172214
0.00170505
0.00168808
0.00167123
0.00165444
0.00163767
0.00162086
0.00160392
0.00158672
0.00156932
0.00155137
0.00152522
2.75525e-06
0.000125157
0.000263798
0.00039533
0.000519862
0.000632139
0.000726078
0.000807571
0.000891503
0.000987438
0.00109726
0.00122239
0.00135888
0.00148629
0.0016065
0.00172143
0.00183204
0.00193869
0.00204171
0.00214146
0.00223815
0.00233199
0.00242318
0.00251192
0.00259843
0.0026829
0.00276552
0.00284648
0.00292592
0.00300397
0.00308073
0.0031563
0.00323071
0.00330401
0.00337621
0.0034473
0.00351725
0.00358604
0.00365361
0.0037199
0.00378486
0.00384841
0.00391047
0.00397097
0.00402983
0.00408697
0.00414232
0.0041958
0.00424734
0.00429686
0.00434431
0.00438962
0.00443273
0.0044736
0.00451217
0.00454842
0.00458229
0.00461377
0.00464283
0.00466946
0.00469363
0.00471536
0.00473464
0.00475147
0.00476587
0.00477786
0.00478746
0.0047947
0.00479963
0.0048022
0.00480258
0.00480077
0.0047968
0.00479074
0.00478264
0.00477255
0.00476055
0.0047467
0.00473106
0.0047137
0.00469469
0.0046741
0.00465201
0.00462849
0.0046036
0.00457743
0.00455004
0.00452151
0.00449192
0.00446132
0.0044298
0.00439741
0.00436424
0.00433033
0.00429576
0.00426059
0.00422489
0.0041887
0.00415209
0.00411512
0.00407784
0.0040403
0.00400254
0.00396462
0.00392658
0.00388847
0.00385031
0.00381215
0.00377403
0.00373597
0.003698
0.00366017
0.00362248
0.00358497
0.00354766
0.00351058
0.00347373
0.00343714
0.00340083
0.0033648
0.00332908
0.00329367
0.00325859
0.00322384
0.00318943
0.00315537
0.00312167
0.00308833
0.00305535
0.00302274
0.0029905
0.00295863
0.00292713
0.002896
0.00286524
0.00283486
0.00280484
0.00277519
0.0027459
0.00271698
0.00268842
0.00266022
0.00263238
0.00260489
0.00257776
0.00255096
0.00252451
0.0024984
0.00247262
0.00244717
0.00242205
0.00239725
0.00237276
0.00234858
0.00232472
0.00230115
0.00227789
0.00225492
0.00223223
0.00220984
0.00218772
0.00216588
0.0021443
0.00212299
0.00210193
0.00208112
0.00206054
0.00204018
0.00202003
0.00200007
0.00198027
0.0019606
0.00194103
0.0019215
0.00190194
0.00188228
0.00186239
0.00184232
0.00182157
0.00179323
2.33897e-06
0.000117866
0.000252631
0.000380644
0.00050352
0.000620025
0.000731018
0.000840506
0.000955914
0.00108229
0.00122078
0.00137084
0.00151305
0.00164492
0.00176908
0.00188742
0.00200103
0.00211058
0.00221643
0.0023188
0.00241809
0.00251468
0.00260888
0.00270093
0.00279107
0.0028795
0.0029664
0.00305193
0.00313623
0.0032194
0.00330152
0.00338266
0.00346284
0.00354208
0.00362038
0.0036977
0.00377401
0.00384925
0.00392336
0.00399626
0.00406787
0.00413812
0.0042069
0.00427414
0.00433973
0.00440359
0.00446562
0.00452576
0.0045839
0.00463996
0.00469389
0.0047456
0.00479503
0.00484212
0.00488682
0.00492909
0.00496887
0.00500614
0.00504087
0.00507304
0.00510264
0.00512965
0.00515407
0.0051759
0.00519516
0.00521187
0.00522603
0.00523769
0.00524686
0.00525358
0.0052579
0.00525984
0.0052595
0.00525689
0.00525207
0.00524511
0.00523605
0.00522498
0.00521193
0.005197
0.00518024
0.00516172
0.00514151
0.0051197
0.00509634
0.00507151
0.00504529
0.00501774
0.00498895
0.00495897
0.00492789
0.00489576
0.00486267
0.00482868
0.00479384
0.00475824
0.00472194
0.00468499
0.00464745
0.0046094
0.00457088
0.00453196
0.00449268
0.0044531
0.00441326
0.00437322
0.00433302
0.0042927
0.0042523
0.00421186
0.00417142
0.00413101
0.00409066
0.00405041
0.00401029
0.00397031
0.00393051
0.0038909
0.00385152
0.00381237
0.00377349
0.00373487
0.00369655
0.00365852
0.00362081
0.00358343
0.00354638
0.00350968
0.00347332
0.00343733
0.00340169
0.00336643
0.00333153
0.003297
0.00326285
0.00322908
0.00319568
0.00316265
0.00313001
0.00309774
0.00306584
0.00303432
0.00300317
0.00297239
0.00294198
0.00291193
0.00288225
0.00285292
0.00282395
0.00279533
0.00276706
0.00273913
0.00271154
0.00268429
0.00265737
0.00263078
0.00260451
0.00257856
0.00255293
0.00252761
0.00250259
0.00247788
0.00245346
0.00242932
0.00240547
0.00238189
0.00235857
0.0023355
0.00231266
0.00229004
0.0022676
0.00224531
0.00222313
0.00220102
0.0021789
0.0021567
0.00213429
0.00211171
0.00208841
0.00205774
1.92442e-06
0.00011021
0.000242401
0.000369695
0.000495429
0.000619933
0.000745122
0.000874873
0.00101263
0.00116035
0.00131819
0.00147982
0.00162745
0.00176377
0.00189176
0.00201342
0.00213002
0.00224236
0.002351
0.00245631
0.00255859
0.00265805
0.00275513
0.00285017
0.00294346
0.00303525
0.00312573
0.00321506
0.00330337
0.00339076
0.00347731
0.00356307
0.00364804
0.00373224
0.00381564
0.0038982
0.00397987
0.00406057
0.00414023
0.00421877
0.00429608
0.00437206
0.00444663
0.00451966
0.00459107
0.00466074
0.00472858
0.00479449
0.00485838
0.00492016
0.00497975
0.00503706
0.00509203
0.0051446
0.00519469
0.00524227
0.00528728
0.00532969
0.00536947
0.00540658
0.00544102
0.00547276
0.00550182
0.00552817
0.00555185
0.00557285
0.0055912
0.00560692
0.00562005
0.0056306
0.00563863
0.00564417
0.00564728
0.00564801
0.0056464
0.00564253
0.00563644
0.00562819
0.00561785
0.00560549
0.00559117
0.00557495
0.00555692
0.00553714
0.00551569
0.00549263
0.00546804
0.00544199
0.00541456
0.00538581
0.00535581
0.00532464
0.00529237
0.00525905
0.00522477
0.00518958
0.00515355
0.00511675
0.00507923
0.00504107
0.00500231
0.00496302
0.00492325
0.00488306
0.0048425
0.00480162
0.00476046
0.00471908
0.00467751
0.0046358
0.00459398
0.00455211
0.0045102
0.00446831
0.00442645
0.00438466
0.00434297
0.00430141
0.00426
0.00421876
0.00417771
0.00413689
0.0040963
0.00405596
0.00401588
0.0039761
0.0039366
0.00389741
0.00385855
0.00382
0.0037818
0.00374393
0.00370642
0.00366926
0.00363245
0.00359601
0.00355993
0.00352422
0.00348887
0.0034539
0.0034193
0.00338506
0.0033512
0.00331771
0.00328459
0.00325184
0.00321946
0.00318743
0.00315577
0.00312447
0.00309353
0.00306294
0.0030327
0.00300281
0.00297327
0.00294406
0.0029152
0.00288666
0.00285846
0.00283059
0.00280304
0.00277581
0.00274889
0.00272227
0.00269596
0.00266994
0.00264419
0.00261872
0.0025935
0.0025685
0.00254371
0.0025191
0.00249461
0.00247021
0.00244581
0.00242136
0.00239673
0.00237193
0.00234642
0.0023136
1.53425e-06
0.000102063
0.000231946
0.000358922
0.000487631
0.000619015
0.000755734
0.000899705
0.0010526
0.00121493
0.00138721
0.001553
0.00170461
0.00184479
0.00197629
0.00210106
0.00222047
0.00233542
0.0024466
0.00255449
0.00265947
0.00276186
0.00286191
0.00295983
0.00305603
0.00315081
0.00324441
0.003337
0.00342874
0.00351973
0.00361003
0.00369971
0.00378876
0.00387717
0.00396493
0.00405196
0.00413822
0.00422361
0.00430805
0.00439143
0.00447365
0.0045546
0.00463417
0.00471224
0.00478869
0.00486342
0.00493632
0.00500728
0.00507619
0.00514297
0.00520752
0.00526976
0.00532961
0.005387
0.00544186
0.00549415
0.0055438
0.00559079
0.00563506
0.0056766
0.00571539
0.0057514
0.00578464
0.0058151
0.0058428
0.00586773
0.00588993
0.00590941
0.0059262
0.00594033
0.00595185
0.00596079
0.0059672
0.00597112
0.00597261
0.00597174
0.00596858
0.00596315
0.00595553
0.00594578
0.00593397
0.00592017
0.00590445
0.00588688
0.00586753
0.00584647
0.00582378
0.00579952
0.00577378
0.00574661
0.00571809
0.00568829
0.00565728
0.00562512
0.00559189
0.00555764
0.00552245
0.00548638
0.00544949
0.00541185
0.00537351
0.00533454
0.00529499
0.00525491
0.00521436
0.00517339
0.00513205
0.00509039
0.00504844
0.00500627
0.0049639
0.00492138
0.00487875
0.00483604
0.00479329
0.00475054
0.0047078
0.00466512
0.00462252
0.00458002
0.00453766