/*--------------------------------*- C++ -*----------------------------------*\
  =========                 |
  \\      /  F ield         | OpenFOAM: The Open Source CFD Toolbox
   \\    /   O peration     | Website:  https://openfoam.org
    \\  /    A nd           | Version:  8
     \\/     M anipulation  |
\*---------------------------------------------------------------------------*/
FoamFile
{
    version     2.0;
    format      ascii;
    class       volScalarField;
    location    "4200";
    object      nut;
}
// * * * * * * * * * * * * * * * * * * * * * * * * * * * * * * * * * * * * * //

dimensions      [0 2 -1 0 0 0 0];

internalField   nonuniform List<scalar> 
12225
(
0.0122671
0.00158819
0.000666129
0.000410105
0.000294025
0.00022806
0.000183261
0.000170805
0.000132697
0.000106844
9.46735e-05
8.80085e-05
7.89856e-05
7.2233e-05
6.77318e-05
6.4507e-05
6.12104e-05
6.46338e-05
0.0323823
0.00744532
0.00330638
0.00204329
0.00146801
0.0011445
0.000936338
0.000799975
0.00067951
0.000577234
0.000506286
0.000452432
0.00041054
0.000378806
0.000350182
0.000327767
0.000311172
0.000292818
0.0490123
0.01515
0.00728196
0.00457854
0.00330639
0.00258054
0.00211233
0.00178913
0.00154181
0.00134762
0.00119772
0.0010787
0.000982057
0.000902481
0.000835978
0.000780909
0.000735547
0.00068717
0.063054
0.0237783
0.0122894
0.00788814
0.00573397
0.00448498
0.00367412
0.00310733
0.00268471
0.00235805
0.00210111
0.00189458
0.00172531
0.00158451
0.00146613
0.00136604
0.00128146
0.00119789
0.074932
0.0328517
0.0181452
0.0119262
0.00874548
0.00686412
0.0056308
0.00476254
0.00411748
0.0036203
0.00322731
0.00290992
0.00264899
0.00243143
0.00224799
0.00209188
0.00195826
0.00183626
0.0849536
0.0420208
0.0246655
0.0166359
0.0123325
0.00972587
0.00799539
0.00676785
0.00585345
0.00514769
0.00458844
0.00413587
0.00376334
0.00345239
0.00318983
0.00296596
0.0027736
0.00260471
0.0933822
0.0510219
0.0316642
0.0219415
0.016474
0.0130717
0.0107778
0.00913551
0.0079057
0.0069534
0.0061969
0.00558367
0.00507837
0.00465632
0.00429976
0.00399561
0.00373414
0.00350818
0.0993794
0.0583363
0.0378386
0.0268568
0.0204171
0.0163053
0.0134891
0.011453
0.00991891
0.00872629
0.00777635
0.00700497
0.00636866
0.00583685
0.0053874
0.00500398
0.00467452
0.00439126
0.104023
0.0645454
0.0433804
0.0314239
0.0241571
0.0194092
0.0161097
0.0137018
0.0118766
0.0104521
0.00931443
0.00838904
0.00762485
0.00698574
0.00644544
0.00598449
0.00558858
0.00524877
0.108368
0.0708939
0.0493756
0.0365496
0.0284517
0.0230231
0.0191863
0.0163547
0.0141926
0.0124968
0.011138
0.0100303
0.00911434
0.00834759
0.0076991
0.00714579
0.00667068
0.00626298
0.112368
0.0772557
0.0557282
0.0421918
0.0332976
0.0271652
0.0227467
0.0194432
0.0168984
0.0148903
0.0132749
0.0119544
0.0108605
0.00994379
0.00916796
0.00850586
0.00793736
0.00744915
0.115994
0.0834975
0.0623053
0.0482611
0.0386474
0.0318167
0.026789
0.0229739
0.0200046
0.0176452
0.0157378
0.0141736
0.0128749
0.011785
0.0108618
0.0100736
0.00939671
0.00881464
0.119234
0.0894856
0.0689377
0.0546109
0.0443919
0.0369007
0.0312597
0.0269088
0.0234836
0.02074
0.0185096
0.0166735
0.0151449
0.01386
0.0127704
0.0118396
0.0110397
0.0103508
0.122086
0.095084
0.075415
0.0610223
0.0503361
0.0422534
0.0360231
0.0311353
0.0272402
0.024093
0.021519
0.0193909
0.017614
0.0161174
0.0148466
0.01376
0.0128257
0.0120196
0.124546
0.100135
0.0814619
0.0671725
0.056158
0.047577
0.0408126
0.0354174
0.031066
0.0275196
0.0246012
0.0221777
0.0201481
0.0184349
0.0169782
0.0157314
0.0146583
0.0137311
0.126578
0.104396
0.0866605
0.0725515
0.0613228
0.0523526
0.0451453
0.0393148
0.0345631
0.0306611
0.0274325
0.0247409
0.0224806
0.020569
0.0189413
0.0175468
0.0163454
0.0153061
0.128011
0.107322
0.0902141
0.0762353
0.0648743
0.0556509
0.0481493
0.0420254
0.0370012
0.0328553
0.0294126
0.0265352
0.0241143
0.0220643
0.0203172
0.0188191
0.0175275
0.0164083
0.128006
0.107313
0.0902048
0.0762269
0.0648674
0.0556454
0.048145
0.0420222
0.0369988
0.0328537
0.0294117
0.0265349
0.0241147
0.0220652
0.0203185
0.0188206
0.0175287
0.0164083
0.126509
0.104255
0.0864922
0.0723807
0.0611613
0.052205
0.0450128
0.0391967
0.0344584
0.0305686
0.0273506
0.0246684
0.0224163
0.0205118
0.0188903
0.0175006
0.0163024
0.0152631
0.124267
0.0995604
0.0807712
0.0664676
0.0554886
0.0469631
0.0402594
0.0349228
0.0306248
0.0271258
0.0242488
0.0218611
0.0198626
0.0181762
0.0167426
0.0155152
0.0144575
0.0135405
0.12136
0.0936399
0.0737261
0.0593348
0.0487592
0.0408249
0.0347467
0.0300003
0.0262308
0.0231928
0.0207127
0.018665
0.0169572
0.0155198
0.0142999
0.0132567
0.0123583
0.0115798
0.117686
0.0865903
0.0656967
0.0514791
0.0415374
0.0343608
0.0290184
0.0249322
0.0217348
0.0191848
0.0171184
0.0154211
0.0140106
0.0128263
0.0118229
0.0109657
0.010228
0.00958895
0.11305
0.0784122
0.056921
0.0432687
0.0342296
0.0279652
0.0234365
0.0200435
0.0174263
0.0153597
0.0136966
0.0123369
0.0112106
0.010267
0.00946866
0.00878719
0.00820101
0.00769346
0.107169
0.0691009
0.0476372
0.035029
0.0271566
0.021922
0.0182437
0.0155401
0.0134817
0.0118706
0.0105816
0.00953197
0.00866487
0.00793965
0.0073267
0.00680377
0.00635411
0.00596494
0.0996761
0.0587036
0.0381279
0.0270699
0.0205782
0.016433
0.0135949
0.0115438
0.00999923
0.00879908
0.00784341
0.00706755
0.00642793
0.00589353
0.00544234
0.00505736
0.00472636
0.00444011
0.0901097
0.0473665
0.0287363
0.0196847
0.0146976
0.0116312
0.00957853
0.00811528
0.00702332
0.00617994
0.00551058
0.0049679
0.00452123
0.00414796
0.00383348
0.00356466
0.00333342
0.00313388
0.0779076
0.0353826
0.0198606
0.0131383
0.00966107
0.00759298
0.00623352
0.0052743
0.004564
0.00401882
0.00358701
0.00323599
0.00294752
0.00270526
0.00250288
0.00232854
0.0021779
0.00204891
0.06238
0.0232554
0.0119461
0.00765493
0.00556337
0.00435256
0.00356724
0.00301639
0.00261307
0.00230792
0.00206665
0.00186689
0.00170308
0.00156251
0.0014487
0.00134759
0.00125907
0.00118357
0.0426105
0.0117794
0.0054693
0.00341385
0.00246071
0.00192005
0.00157275
0.00132885
0.00115943
0.00103846
0.000944042
0.000857504
0.000785386
0.00072053
0.000665877
0.000615683
0.000576586
0.000531896
0.0168348
0.00255985
0.00110002
0.000683428
0.000493724
0.000386803
0.000318219
0.000266307
0.000272613
0.00032205
0.000354121
0.00033789
0.000300244
0.000268116
0.000240464
0.000205925
0.000197281
0.000141055
3.99452e-09
5.91156e-07
2.00086e-06
6.28928e-06
1.08024e-05
1.35315e-05
1.32567e-05
1.17917e-05
9.06384e-06
5.94794e-06
3.52403e-06
2.02505e-06
1.41002e-06
1.50304e-06
2.06722e-06
2.56615e-06
2.45456e-06
2.0692e-06
2.54275e-06
8.67652e-06
9.0252e-06
5.55415e-06
6.75125e-06
2.651e-05
5.67515e-05
7.44246e-05
9.09783e-05
0.000104826
0.000117047
0.000127208
0.000136112
0.000143758
0.000150449
0.000156276
0.000161358
0.000165844
0.000169818
0.000173369
0.000176551
0.00017941
0.000181975
0.000184268
0.000186308
0.000188111
0.000189692
0.000191063
0.000192235
0.000193215
0.000194004
0.000194476
0.000194974
0.000195083
0.000195144
0.000195019
0.00019472
0.000194275
0.000193676
0.000192929
0.000192035
0.000190997
0.000189816
0.000188494
0.000187034
0.000185439
0.00018371
0.000181851
0.000179861
0.000177744
0.000175502
0.000173138
0.000170653
0.00016805
0.000165331
0.000162495
0.000159545
0.00015648
0.000153302
0.000150011
0.000146611
0.000143104
0.000139492
0.000135763
0.000131896
0.000127854
0.00012362
0.000119226
0.000114747
0.000110215
0.000105506
0.000100424
9.49888e-05
8.94147e-05
8.36581e-05
7.75492e-05
7.15152e-05
6.62622e-05
6.24868e-05
6.01516e-05
5.83965e-05
5.67914e-05
5.5215e-05
5.36466e-05
5.20845e-05
5.05301e-05
4.89854e-05
4.74525e-05
4.5934e-05
4.4436e-05
4.29868e-05
4.17497e-05
4.05457e-05
3.93559e-05
3.81833e-05
3.70287e-05
3.58928e-05
3.47765e-05
3.36806e-05
3.26057e-05
3.15526e-05
3.05215e-05
2.9513e-05
2.85274e-05
2.75654e-05
2.66274e-05
2.57135e-05
2.48234e-05
2.39584e-05
2.31463e-05
2.2412e-05
2.16964e-05
2.09958e-05
2.03184e-05
1.96691e-05
1.90341e-05
1.84131e-05
1.78092e-05
1.72233e-05
1.66556e-05
1.61059e-05
1.5574e-05
1.50592e-05
1.45613e-05
1.40797e-05
1.36142e-05
1.31641e-05
1.27293e-05
1.23092e-05
1.19035e-05
1.15117e-05
1.11336e-05
1.07687e-05
1.04167e-05
1.00773e-05
9.75012e-06
9.43485e-06
9.13122e-06
8.83895e-06
8.55779e-06
8.28752e-06
8.02792e-06
7.7788e-06
7.53998e-06
7.3113e-06
7.09257e-06
6.88358e-06
6.68408e-06
6.49374e-06
6.31215e-06
6.13876e-06
5.9728e-06
5.81349e-06
5.65922e-06
5.50958e-06
5.3596e-06
5.21385e-06
5.04782e-06
4.89384e-06
4.64748e-06
4.48931e-06
3.59428e-06
1.68177e-07
6.14248e-06
6.38824e-05
0.000139685
0.00018324
0.000207004
0.000216378
0.000214885
0.00020654
0.000189837
0.000169045
0.000148911
0.000138498
0.000143713
0.000157683
0.000166605
0.000169023
0.000170206
0.000175609
0.000185311
0.000200066
0.000217505
0.000234338
0.000250841
0.000262142
0.000272045
0.000280861
0.000293706
0.000312803
0.000326749
0.000339492
0.000350417
0.000360346
0.000369445
0.000377345
0.000384558
0.000391273
0.000397715
0.000404015
0.000410238
0.00041638
0.000422398
0.000428241
0.000433865
0.000439244
0.000444361
0.000449201
0.000453752
0.000458014
0.000461988
0.000465713
0.000469155
0.000472352
0.000475294
0.000477985
0.000480427
0.00048262
0.000484565
0.000486263
0.000487714
0.000488918
0.000489877
0.000490593
0.000491069
0.000491318
0.000491342
0.000491138
0.000490701
0.000490049
0.000489183
0.000488111
0.000486839
0.000485374
0.000483723
0.000481892
0.000479888
0.000477719
0.000475393
0.000472917
0.000470301
0.000467555
0.000464685
0.000461698
0.000458593
0.000455368
0.000452033
0.000448619
0.000445167
0.000441682
0.000438112
0.000434418
0.000430676
0.000426959
0.000423168
0.000419253
0.000415274
0.000411165
0.000406963
0.000402723
0.000398466
0.000394201
0.000389932
0.000385662
0.000381394
0.000377133
0.000372881
0.000368641
0.000364416
0.000360205
0.000356006
0.00035183
0.000347682
0.000343563
0.000339475
0.00033542
0.0003314
0.000327416
0.000323469
0.000319561
0.000315694
0.000311866
0.000308081
0.000304339
0.000300641
0.000296988
0.00029338
0.000289815
0.000286294
0.000282815
0.000279381
0.000275989
0.00027265
0.000269363
0.000266113
0.000262899
0.000259726
0.000256596
0.000253512
0.000250473
0.000247479
0.000244529
0.000241622
0.000238758
0.000235937
0.000233158
0.000230419
0.000227722
0.000225064
0.000222447
0.000219868
0.000217329
0.000214829
0.000212367
0.000209944
0.00020756
0.000205214
0.000202908
0.000200641
0.000198416
0.000196232
0.000194091
0.000191995
0.000189945
0.000187944
0.000185993
0.000184093
0.000182246
0.000180452
0.00017871
0.000177019
0.000175374
0.000173774
0.000172196
0.000170682
0.000169071
0.000167749
0.000165617
0.000164901
0.000162094
0.000160721
7.68595e-07
4.45414e-05
0.000164288
0.000246522
0.000299857
0.000330178
0.000341216
0.000338348
0.000325516
0.000306242
0.000286468
0.000273747
0.000271487
0.000278168
0.000288524
0.000299354
0.000312116
0.00032907
0.00035067
0.000375832
0.000403222
0.000431578
0.000469792
0.000516179
0.000561834
0.000605991
0.000649094
0.000692767
0.000732108
0.000763399
0.000788408
0.000808233
0.000823949
0.000836418
0.000846422
0.000854739
0.000862068
0.000869055
0.000876236
0.000883967
0.000892356
0.000901279
0.000910497
0.000919774
0.000928932
0.000937851
0.000946455
0.000954696
0.000962539
0.000969954
0.00097692
0.000983406
0.00098941
0.000994926
0.00099995
0.00100448
0.00100852
0.00101207
0.00101513
0.00101769
0.00101976
0.00102134
0.00102242
0.00102296
0.00102312
0.00102284
0.00102204
0.0010208
0.00101911
0.00101699
0.00101446
0.00101151
0.00100818
0.00100446
0.00100038
0.00099595
0.000991183
0.000986095
0.000980701
0.000975017
0.000969058
0.000962839
0.000956375
0.000949681
0.000942769
0.000935652
0.000928347
0.000920878
0.000913262
0.000905503
0.000897595
0.00088956
0.000881429
0.000873198
0.000864857
0.000856438
0.000847945
0.000839394
0.000830802
0.000822182
0.000813545
0.000804899
0.000796254
0.000787616
0.000778992
0.00077039
0.000761816
0.000753276
0.000744776
0.000736321
0.000727917
0.000719569
0.000711281
0.000703059
0.000694904
0.000686822
0.000678814
0.000670885
0.000663035
0.000655269
0.000647587
0.000639992
0.000632485
0.000625069
0.000617744
0.000610511
0.000603371
0.000596323
0.00058937
0.00058251
0.000575745
0.000569076
0.000562499
0.00055601
0.000549607
0.000543293
0.000537071
0.000530939
0.000524899
0.00051895
0.000513091
0.000507322
0.00050164
0.000496045
0.000490537
0.000485113
0.000479772
0.000474514
0.000469338
0.000464241
0.000459224
0.000454285
0.000449422
0.000444635
0.000439923
0.000435285
0.000430719
0.000426224
0.0004218
0.000417444
0.000413156
0.000408933
0.000404775
0.000400678
0.00039664
0.000392659
0.000388729
0.000384846
0.000381002
0.00037719
0.000373397
0.000369609
0.0003658
0.000361953
0.000357994
0.000353954
0.000349472
0.000345079
0.000338588
0.00032713
5.07076e-07
8.12892e-05
0.00021297
0.000309204
0.000372988
0.0004104
0.000425974
0.000426365
0.000416354
0.000402951
0.000394796
0.00039396
0.000403187
0.000420399
0.000443154
0.000470909
0.000504262
0.000543572
0.00058803
0.000650266
0.00072413
0.000803922
0.000888185
0.000958847
0.00102128
0.0010774
0.00112782
0.00117272
0.00121199
0.00124587
0.00127512
0.00130045
0.00132257
0.00134211
0.00135965
0.00137567
0.0013906
0.00140476
0.00141842
0.00143177
0.00144494
0.00145799
0.00147095
0.00148381
0.0014965
0.00150896
0.00152109
0.0015328
0.00154399
0.00155459
0.00156454
0.00157382
0.00158239
0.00159025
0.00159739
0.0016038
0.00160947
0.00161441
0.00161861
0.00162207
0.00162479
0.00162677
0.00162793
0.00162837
0.00162824
0.00162733
0.0016257
0.00162338
0.00162038
0.00161673
0.00161243
0.00160751
0.00160199
0.00159589
0.00158923
0.00158204
0.00157433
0.00156614
0.00155747
0.00154836
0.00153883
0.0015289
0.0015186
0.00150795
0.00149696
0.00148567
0.0014741
0.00146226
0.00145018
0.00143789
0.00142539
0.0014127
0.00139985
0.00138685
0.00137372
0.00136047
0.00134712
0.00133369
0.0013202
0.00130667
0.00129311
0.00127953
0.00126596
0.0012524
0.00123886
0.00122536
0.0012119
0.0011985
0.00118516
0.00117189
0.0011587
0.0011456
0.00113259
0.00111969
0.00110689
0.0010942
0.00108163
0.00106918
0.00105685
0.00104465
0.00103259
0.00102066
0.00100886
0.00099721
0.000985697
0.000974326
0.000963099
0.000952017
0.00094108
0.000930289
0.000919645
0.000909146
0.000898791
0.000888575
0.000878498
0.00086856
0.000858762
0.000849106
0.000839591
0.000830215
0.000820979
0.00081188
0.000802918
0.00079409
0.000785395
0.000776831
0.000768396
0.000760089
0.000751908
0.000743851
0.000735915
0.0007281
0.000720404
0.000712824
0.00070536
0.000698008
0.000690767
0.000683636
0.000676612
0.000669693
0.000662876
0.000656159
0.000649539
0.000643013
0.000636576
0.000630224
0.00062395
0.000617747
0.000611605
0.000605512
0.000599451
0.000593402
0.000587334
0.000581211
0.000574968
0.000568549
0.000561772
0.000554581
0.000546338
0.000530148
1.49342e-06
0.000102058
0.000235123
0.000355059
0.000433976
0.000481484
0.000505122
0.000513592
0.000515167
0.000516156
0.000523036
0.000539198
0.000565256
0.000600243
0.00064337
0.000694654
0.000754739
0.000838159
0.000933833
0.00103005
0.00111906
0.00120346
0.0012828
0.0013555
0.00142227
0.00148368
0.00154014
0.001592
0.0016396
0.00168337
0.0017238
0.00176136
0.0017965
0.00182958
0.00186091
0.00189076
0.0019193
0.00194669
0.00197301
0.00199834
0.0020227
0.00204611
0.00206855
0.00209002
0.00211049
0.00212992
0.00214829
0.00216556
0.00218172
0.00219674
0.00221062
0.00222334
0.00223494
0.00224541
0.00225478
0.00226306
0.00227028
0.00227644
0.00228157
0.00228568
0.00228877
0.00229082
0.00229174
0.00229183
0.00229095
0.00228907
0.00228624
0.00228247
0.00227778
0.0022722
0.00226575
0.00225847
0.00225037
0.00224149
0.00223186
0.00222151
0.00221046
0.00219876
0.00218643
0.0021735
0.00216
0.00214597
0.00213144
0.00211643
0.00210097
0.00208511
0.00206887
0.00205227
0.00203535
0.00201813
0.00200065
0.00198292
0.00196498
0.00194684
0.00192854
0.00191008
0.0018915
0.00187282
0.00185406
0.00183525
0.00181641
0.00179755
0.00177869
0.00175985
0.00174105
0.0017223
0.00170361
0.001685
0.00166648
0.00164806
0.00162974
0.00161155
0.0015935
0.00157558
0.0015578
0.00154018
0.00152272
0.00150543
0.00148831
0.00147137
0.0014546
0.00143803
0.00142163
0.00140544
0.00138943
0.00137362
0.001358
0.00134259
0.00132737
0.00131235
0.00129753
0.00128291
0.00126849
0.00125426
0.00124022
0.00122637
0.00121272
0.00119926
0.00118599
0.00117291
0.00116002
0.00114731
0.0011348
0.00112246
0.00111031
0.00109834
0.00108654
0.00107491
0.00106346
0.00105217
0.00104105
0.00103009
0.0010193
0.00100866
0.000998178
0.000987849
0.000977671
0.000967639
0.000957753
0.000948008
0.000938402
0.000928931
0.000919591
0.000910378
0.000901286
0.000892309
0.00088344
0.000874669
0.000865986
0.000857374
0.000848816
0.000840286
0.00083175
0.000823164
0.000814461
0.000805571
0.000796327
0.000786584
0.000776615
0.000756796
2.27167e-06
0.000118202
0.000256368
0.000390152
0.000487241
0.000549159
0.000587024
0.000610489
0.000628248
0.000647574
0.000673718
0.000709331
0.000755149
0.000811445
0.000878622
0.000969126
0.00107426
0.00117598
0.0012752
0.00137071
0.00146141
0.00154741
0.00162865
0.00170511
0.00177707
0.00184489
0.00190891
0.00196946
0.00202687
0.00208148
0.0021336
0.00218353
0.00223151
0.00227776
0.00232242
0.00236564
0.00240749
0.00244802
0.00248728
0.00252527
0.00256198
0.0025974
0.00263149
0.00266422
0.00269556
0.00272547
0.00275389
0.0027808
0.00280616
0.00282993
0.00285209
0.00287261
0.00289147
0.00290868
0.00292421
0.00293808
0.00295028
0.00296082
0.00296971
0.00297698
0.00298263
0.00298671
0.00298914
0.00299004
0.00298958
0.00298761
0.00298427
0.00297956
0.00297356
0.00296631
0.00295786
0.00294827
0.00293758
0.00292586
0.00291314
0.00289947
0.00288491
0.00286949
0.00285327
0.00283628
0.00281857
0.00280017
0.00278114
0.00276151
0.00274132
0.00272061
0.00269942
0.00267779
0.00265576
0.00263336
0.00261063
0.0025876
0.00256431
0.00254078
0.00251704
0.00249313
0.00246908
0.00244491
0.00242064
0.00239632
0.00237196
0.00234759
0.00232322
0.00229889
0.0022746
0.00225038
0.00222625
0.00220222
0.0021783
0.00215452
0.00213088
0.0021074
0.00208409
0.00206095
0.00203801
0.00201526
0.00199272
0.00197039
0.00194828
0.00192639
0.00190474
0.00188332
0.00186215
0.00184121
0.00182052
0.00180008
0.00177989
0.00175995
0.00174026
0.00172083
0.00170165
0.00168272
0.00166404
0.0016456
0.00162742
0.00160947
0.00159178
0.00157432
0.00155711
0.00154014
0.0015234
0.00150691
0.00149065
0.00147462
0.00145881
0.00144323
0.00142788
0.00141274
0.00139782
0.00138311
0.00136861
0.00135431
0.00134022
0.00132633
0.00131263
0.00129912
0.00128581
0.00127267
0.00125973
0.00124695
0.00123436
0.00122193
0.00120967
0.00119757
0.00118562
0.00117382
0.00116216
0.00115063
0.00113921
0.00112789
0.00111665
0.00110546
0.00109429
0.00108308
0.00107178
0.0010603
0.00104849
0.00103627
0.00102409
0.00100161
2.80552e-06
0.00012682
0.000269279
0.000407726
0.000526501
0.000608037
0.000664243
0.000706253
0.000743312
0.000782685
0.000829428
0.000886492
0.0009555
0.00104783
0.00115483
0.00126144
0.00136755
0.00147092
0.00157099
0.00166735
0.00175974
0.00184818
0.00193275
0.0020136
0.00209099
0.00216519
0.00223647
0.0023051
0.00237134
0.00243541
0.00249754
0.00255789
0.00261663
0.00267386
0.00272966
0.00278411
0.00283723
0.00288903
0.0029395
0.00298864
0.00303641
0.00308277
0.00312768
0.00317109
0.00321295
0.0032532
0.00329179
0.00332867
0.0033638
0.00339711
0.00342858
0.00345816
0.00348581
0.00351152
0.00353524
0.00355696
0.00357667
0.00359435
0.00361001
0.00362363
0.00363523
0.00364481
0.00365239
0.00365801
0.00366166
0.00366328
0.00366319
0.0036612
0.00365743
0.00365191
0.0036447
0.00363586
0.00362545
0.00361351
0.00360013
0.00358536
0.00356927
0.00355193
0.0035334
0.00351375
0.00349305
0.00347136
0.00344876
0.0034253
0.00340105
0.00337607
0.00335043
0.00332418
0.00329737
0.00327006
0.00324231
0.00321416
0.00318565
0.00315683
0.00312775
0.00309844
0.00306894
0.00303929
0.00300953
0.00297968
0.00294978
0.00291986
0.00288994
0.00286006
0.00283023
0.00280049
0.00277085
0.00274133
0.00271195
0.00268273
0.00265368
0.00262483
0.00259618
0.00256774
0.00253953
0.00251156
0.00248384
0.00245638
0.00242919
0.00240226
0.00237562
0.00234926
0.00232319
0.00229741
0.00227193
0.00224675
0.00222186
0.00219729
0.00217301
0.00214904
0.00212538
0.00210202
0.00207895
0.00205619
0.00203373
0.00201156
0.00198968
0.0019681
0.00194681
0.00192581
0.00190509
0.00188466
0.00186452
0.00184464
0.00182504
0.00180572
0.00178666
0.00176786
0.00174932
0.00173103
0.001713
0.00169521
0.00167767
0.00166036
0.00164329
0.00162645
0.00160984
0.00159346
0.00157729
0.00156133
0.00154559
0.00153005
0.00151472
0.00149957
0.00148462
0.00146984
0.00145524
0.0014408
0.0014265
0.00141233
0.00139826
0.00138428
0.00137034
0.00135639
0.00134236
0.00132819
0.00131371
0.00129896
0.00128395
0.0012597
2.94241e-06
0.000128734
0.000270668
0.000407306
0.000538107
0.000641776
0.000719041
0.000780495
0.0008363
0.000894158
0.000961765
0.00105373
0.00116337
0.0012851
0.00140068
0.00151196
0.00161979
0.00172437
0.00182562
0.0019235
0.00201799
0.0021092
0.00219725
0.00228235
0.0023647
0.00244454
0.00252208
0.00259753
0.0026711
0.00274294
0.0028132
0.002882
0.00294943
0.00301556
0.00308042
0.00314403
0.00320641
0.00326752
0.00332734
0.00338584
0.00344296
0.00349865
0.00355286
0.00360551
0.00365654
0.00370589
0.00375349
0.00379929
0.00384321
0.0038852
0.0039252
0.00396317
0.00399905
0.00403281
0.0040644
0.0040938
0.00412098
0.00414591
0.00416858
0.00418898
0.00420711
0.00422296
0.00423654
0.00424787
0.00425696
0.00426383
0.00426855
0.004271
0.00427144
0.00426979
0.00426612
0.00426048
0.00425291
0.00424348
0.00423225
0.00421928
0.00420463
0.00418838
0.00417058
0.00415131
0.00413065
0.00410865
0.00408541
0.00406098
0.00403544
0.00400886
0.00398132
0.00395288
0.00392361
0.00389357
0.00386284
0.00383148
0.00379955
0.00376711
0.00373421
0.00370091
0.00366727
0.00363333
0.00359915
0.00356478
0.00353025
0.00349561
0.00346091
0.00342617
0.00339143
0.00335674
0.0033221
0.00328757
0.00325315
0.00321888
0.00318477
0.00315086
0.00311715
0.00308367
0.00305043
0.00301745
0.00298474
0.00295231
0.00292018
0.00288834
0.00285682
0.00282562
0.00279474
0.00276419
0.00273398
0.00270411
0.00267458
0.0026454
0.00261656
0.00258807
0.00255993
0.00253213
0.00250468
0.00247758
0.00245082
0.0024244
0.00239832
0.00237258
0.00234717
0.0023221
0.00229735
0.00227294
0.00224885
0.00222508
0.00220163
0.00217849
0.00215566
0.00213313
0.00211091
0.00208898
0.00206734
0.00204599
0.00202492
0.00200413
0.00198362
0.00196338
0.0019434
0.00192368
0.00190422
0.00188501
0.00186604
0.00184732
0.00182883
0.00181058
0.00179254
0.00177472
0.0017571
0.00173968
0.00172243
0.00170534
0.00168839
0.00167154
0.00165476
0.001638
0.00162119
0.00160426
0.00158706
0.00156966
0.00155172
0.00152558
2.75936e-06
0.000125268
0.000264043
0.000395767
0.000520539
0.000633071
0.000727059
0.000808266
0.000891331
0.000986681
0.00109593
0.00122063
0.00135704
0.00148457
0.00160487
0.0017199
0.00183061
0.00193739
0.00204054
0.00214042
0.00223724
0.00233121
0.00242253
0.00251139
0.00259802
0.00268259
0.00276532
0.00284637
0.00292589
0.00300402
0.00308086
0.00315649
0.00323096
0.00330432
0.00337657
0.0034477
0.0035177
0.00358652
0.00365413
0.00372046
0.00378544
0.00384901
0.0039111
0.00397162
0.0040305
0.00408766
0.00414302
0.00419651
0.00424806
0.0042976
0.00434505
0.00439037
0.00443349
0.00447436
0.00451294
0.00454918
0.00458306
0.00461454
0.00464361
0.00467023
0.00469441
0.00471614
0.00473541
0.00475225
0.00476665
0.00477864
0.00478824
0.00479548
0.00480041
0.00480298
0.00480337
0.00480155
0.00479759
0.00479152
0.00478342
0.00477334
0.00476134
0.00474749
0.00473184
0.00471449
0.00469548
0.00467489
0.0046528
0.00462927
0.00460439
0.00457822
0.00455083
0.0045223
0.00449271
0.00446211
0.00443059
0.0043982
0.00436502
0.00433112
0.00429655
0.00426138
0.00422567
0.00418948
0.00415287
0.0041159
0.00407861
0.00404107
0.00400331
0.00396539
0.00392734
0.00388922
0.00385106
0.0038129
0.00377477
0.0037367
0.00369873
0.00366089
0.00362319
0.00358568
0.00354836
0.00351127
0.00347441
0.00343781
0.00340149
0.00336545
0.00332972
0.0032943
0.0032592
0.00322444
0.00319001
0.00315594
0.00312222
0.00308886
0.00305587
0.00302324
0.00299098
0.0029591
0.00292758
0.00289644
0.00286566
0.00283526
0.00280522
0.00277556
0.00274626
0.00271732
0.00268875
0.00266054
0.00263269
0.00260519
0.00257804
0.00255124
0.00252479
0.00249867
0.00247288
0.00244743
0.00242231
0.0023975
0.00237302
0.00234884
0.00232498
0.00230142
0.00227816
0.00225519
0.00223252
0.00221013
0.00218802
0.00216618
0.00214462
0.00212331
0.00210226
0.00208146
0.00206089
0.00204054
0.0020204
0.00200045
0.00198066
0.001961
0.00194143
0.00192191
0.00190235
0.0018827
0.00186281
0.00184275
0.001822
0.00179368
2.34432e-06
0.000117988
0.000252846
0.000380972
0.000503944
0.00062048
0.000731374
0.000840488
0.000955422
0.00108133
0.00121945
0.00136923
0.00151155
0.00164354
0.00176781
0.00188624
0.00199996
0.00210962
0.00221558
0.00231807
0.00241747
0.00251418
0.00260849
0.00270065
0.00279089
0.00287941
0.00296641
0.00305202
0.0031364
0.00321964
0.00330183
0.00338303
0.00346327
0.00354257
0.00362091
0.00369828
0.00377462
0.0038499
0.00392404
0.00399698
0.00406862
0.00413889
0.0042077
0.00427495
0.00434056
0.00440444
0.00446649
0.00452663
0.00458479
0.00464087
0.0046948
0.00474652
0.00479595
0.00484305
0.00488776
0.00493002
0.00496981
0.00500709
0.00504182
0.00507399
0.00510359
0.00513059
0.00515502
0.00517685
0.00519612
0.00521282
0.00522699
0.00523864
0.00524781
0.00525454
0.00525886
0.00526079
0.00526045
0.00525784
0.00525302
0.00524606
0.00523701
0.00522593
0.00521289
0.00519795
0.00518119
0.00516267
0.00514246
0.00512065
0.00509729
0.00507246
0.00504624
0.00501869
0.00498989
0.00495992
0.00492883
0.00489671
0.00486361
0.00482962
0.00479478
0.00475918
0.00472287
0.00468592
0.00464838
0.00461032
0.0045718
0.00453288
0.00449359
0.00445401
0.00441417
0.00437412
0.00433391
0.00429358
0.00425318
0.00421273
0.00417228
0.00413186
0.00409151
0.00405125
0.00401111
0.00397113
0.00393132
0.0038917
0.00385231
0.00381315
0.00377425
0.00373562
0.00369728
0.00365924
0.00362152
0.00358412
0.00354705
0.00351033
0.00347396
0.00343794
0.00340229
0.003367
0.00333209
0.00329754
0.00326337
0.00322958
0.00319616
0.00316312
0.00313046
0.00309817
0.00306626
0.00303473
0.00300357
0.00297278
0.00294236
0.0029123
0.00288261
0.00285328
0.0028243
0.00279568
0.00276741
0.00273948
0.00271189
0.00268464
0.00265772
0.00263114
0.00260487
0.00257893
0.0025533
0.00252799
0.00250298
0.00247827
0.00245386
0.00242974
0.00240589
0.00238232
0.00235901
0.00233595
0.00231312
0.0022905
0.00226807
0.00224579
0.00222362
0.00220152
0.0021794
0.0021572
0.0021348
0.00211223
0.00208892
0.00205826
1.92684e-06
0.000110307
0.000242562
0.000369906
0.000495647
0.00062008
0.000745008
0.000874502
0.00101187
0.00115921
0.00131664
0.00147844
0.00162626
0.00176271
0.00189082
0.00201258
0.00212928
0.00224173
0.00235046
0.00245588
0.00255827
0.00265783
0.002755
0.00285013
0.00294352
0.0030354
0.00312595
0.00321536
0.00330374
0.00339121
0.00347782
0.00356363
0.00364866
0.00373291
0.00381636
0.00389896
0.00398066
0.0040614
0.0041411
0.00421966
0.004297
0.00437301
0.00444759
0.00452065
0.00459207
0.00466176
0.00472961
0.00479554
0.00485944
0.00492123
0.00498082
0.00503815
0.00509312
0.00514569
0.00519579
0.00524338
0.00528839
0.0053308
0.00537058
0.0054077
0.00544213
0.00547388
0.00550293
0.00552929
0.00555297
0.00557397
0.00559232
0.00560804
0.00562116
0.00563172
0.00563975
0.00564529
0.0056484
0.00564912
0.00564752
0.00564364
0.00563755
0.0056293
0.00561896
0.0056066
0.00559228
0.00557606
0.00555803
0.00553825
0.00551679
0.00549373
0.00546914
0.00544309
0.00541566
0.0053869
0.00535691
0.00532574
0.00529346
0.00526014
0.00522585
0.00519066
0.00515463
0.00511782
0.0050803
0.00504213
0.00500337
0.00496408
0.00492431
0.00488411
0.00484354
0.00480265
0.00476149
0.0047201
0.00467852
0.0046368
0.00459498
0.00455309
0.00451118
0.00446928
0.00442741
0.00438561
0.00434391
0.00430233
0.00426091
0.00421965
0.0041786
0.00413776
0.00409715
0.00405679
0.00401671
0.0039769
0.00393739
0.00389818
0.0038593
0.00382073
0.00378251
0.00374462
0.00370709
0.00366991
0.00363308
0.00359662
0.00356052
0.00352479
0.00348943
0.00345444
0.00341982
0.00338558
0.00335171
0.0033182
0.00328507
0.00325231
0.00321992
0.00318789
0.00315623
0.00312492
0.00309398
0.00306339
0.00303315
0.00300326
0.00297372
0.00294452
0.00291566
0.00288713
0.00285894
0.00283107
0.00280353
0.0027763
0.00274939
0.00272278
0.00269648
0.00267046
0.00264473
0.00261926
0.00259404
0.00256906
0.00254428
0.00251967
0.00249519
0.00247079
0.0024464
0.00242195
0.00239733
0.00237253
0.00234702
0.0023142
1.54345e-06
0.000102166
0.000232071
0.000359052
0.000487718
0.000618988
0.000755521
0.000899235
0.00105186
0.00121392
0.00138595
0.00155193
0.00170372
0.00184404
0.00197566
0.00210054
0.00222004
0.00233509
0.00244636
0.00255435
0.00265942
0.0027619
0.00286204
0.00296005
0.00305634
0.00315119
0.00324486
0.00333753
0.00342933
0.00352038
0.00361075
0.00370047
0.00378957
0.00387804
0.00396583
0.00405291
0.0041392
0.00422462
0.00430909
0.0043925
0.00447475
0.00455572
0.00463531
0.0047134
0.00478987
0.00486461
0.00493752
0.00500849
0.00507742
0.00514421
0.00520877
0.00527101
0.00533087
0.00538826
0.00544313
0.00549542
0.00554507
0.00559206
0.00563634
0.00567788
0.00571666
0.00575268
0.00578592
0.00581638
0.00584407
0.00586901
0.0058912
0.00591068
0.00592747
0.00594161
0.00595312
0.00596206
0.00596847
0.00597239
0.00597388
0.00597301
0.00596984
0.00596441
0.00595679
0.00594704
0.00593523
0.00592143
0.00590571
0.00588813
0.00586878
0.00584772
0.00582503
0.00580077
0.00577502
0.00574785
0.00571933
0.00568953
0.00565851
0.00562635
0.00559311
0.00555886
0.00552367
0.00548759
0.0054507
0.00541305
0.00537471
0.00533573
0.00529617
0.00525609
0.00521553
0.00517456
0.00513321
0.00509153
0.00504958
0.0050074
0.00496502
0.0049225
0.00487985
0.00483714
0.00479438
0.00475161
0.00470886
0.00466616
0.00462355
0.00458104
0.00453866
0.00449644
0.00445439
0.00441253
0.00437089
0.00432948
0.00428831
0.00424741
0.00420677
0.00416643
0.00412638