/*--------------------------------*- C++ -*----------------------------------*\
| =========                 |                                                 |
| \\      /  F ield         | OpenFOAM: The Open Source CFD Toolbox           |
|  \\    /   O peration     | Version:  v2012                                 |
|   \\  /    A nd           | Website:  www.openfoam.com                      |
|    \\/     M anipulation  |                                                 |
\*---------------------------------------------------------------------------*/
FoamFile
{
    version     2.0;
    format      ascii;
    class       surfaceScalarField;
    location    "4200";
    object      phi;
}
// * * * * * * * * * * * * * * * * * * * * * * * * * * * * * * * * * * * * * //

dimensions      [0 3 -1 0 0 0 0];
oriented        oriented;


internalField   nonuniform List<scalar> 
24170
(
3.92539e-06
-7.91497e-07
3.76461e-06
1.60757e-07
3.63337e-06
1.31208e-07
3.43319e-06
2.00139e-07
3.28007e-06
1.53079e-07
3.18941e-06
9.06315e-08
3.12905e-06
6.02567e-08
3.08114e-06
4.76227e-08
3.04124e-06
3.94786e-08
3.00435e-06
3.63575e-08
2.96977e-06
3.40791e-08
2.9378e-06
3.15094e-08
2.90854e-06
2.8879e-08
2.88206e-06
2.61844e-08
2.85833e-06
2.35103e-08
2.83878e-06
1.94724e-08
2.83076e-06
8.11758e-09
-9.43935e-09
2.84034e-06
3.58444e-06
-9.19498e-07
3.80423e-06
-5.90408e-08
3.74279e-06
1.92619e-07
3.69054e-06
2.52362e-07
3.63724e-06
2.06335e-07
3.58983e-06
1.37986e-07
3.55256e-06
9.73972e-08
3.52376e-06
7.61918e-08
3.50035e-06
6.25354e-08
3.48088e-06
5.53597e-08
3.46383e-06
5.06211e-08
3.44835e-06
4.64714e-08
3.43409e-06
4.26953e-08
3.42065e-06
3.92363e-08
3.40805e-06
3.57974e-08
3.39628e-06
3.10368e-08
3.38466e-06
1.96845e-08
3.75805e-09
3.37119e-06
3.68518e-06
-7.92483e-07
3.83638e-06
-2.10251e-07
3.91492e-06
1.14075e-07
3.94499e-06
2.22287e-07
3.94406e-06
2.07264e-07
3.92721e-06
1.54832e-07
3.9078e-06
1.16824e-07
3.89026e-06
9.3775e-08
3.87465e-06
7.8242e-08
3.86141e-06
6.87248e-08
3.84987e-06
6.22951e-08
3.83928e-06
5.71498e-08
3.82933e-06
5.26953e-08
3.81991e-06
4.86412e-08
3.8112e-06
4.44617e-08
3.8031e-06
3.90652e-08
3.79328e-06
2.94391e-08
1.75062e-08
3.77926e-06
4.05359e-06
-6.41512e-07
4.11459e-06
-2.71265e-07
4.20798e-06
2.06768e-08
4.26634e-06
1.63914e-07
4.29068e-06
1.82904e-07
4.29272e-06
1.52756e-07
4.28601e-06
1.23507e-07
4.27704e-06
1.02761e-07
4.2676e-06
8.77514e-08
4.25884e-06
7.75903e-08
4.25084e-06
7.03786e-08
4.24333e-06
6.47128e-08
4.23612e-06
5.99026e-08
4.22915e-06
5.55676e-08
4.22237e-06
5.11564e-08
4.2154e-06
4.5934e-08
4.20618e-06
3.85266e-08
3.03179e-08
4.19311e-06
4.50491e-06
-5.09116e-07
4.51536e-06
-2.81713e-07
4.58528e-06
-4.92464e-08
4.64664e-06
1.02552e-07
4.68256e-06
1.46981e-07
4.6968e-06
1.38523e-07
4.69972e-06
1.2062e-07
4.69775e-06
1.04804e-07
4.69354e-06
9.20851e-08
4.68862e-06
8.26493e-08
4.6836e-06
7.55497e-08
4.67855e-06
6.98946e-08
4.67342e-06
6.51151e-08
4.66817e-06
6.08577e-08
4.66264e-06
5.66842e-08
4.65633e-06
5.21993e-08
4.64781e-06
4.69665e-08
4.21095e-08
4.63586e-06
5.00014e-06
-3.94666e-07
4.98614e-06
-2.67713e-07
5.03068e-06
-9.37971e-08
5.08505e-06
4.81743e-08
5.12452e-06
1.07492e-07
5.14606e-06
1.1696e-07
5.15605e-06
1.10626e-07
5.15977e-06
1.01113e-07
5.16003e-06
9.19031e-08
5.15855e-06
8.42305e-08
5.15619e-06
7.80144e-08
5.15327e-06
7.28939e-08
5.1499e-06
6.85391e-08
5.14605e-06
6.47146e-08
5.14154e-06
6.1157e-08
5.13595e-06
5.77406e-08
5.12833e-06
5.4503e-08
5.23566e-08
5.11791e-06
5.54382e-06
-2.97478e-07
5.51664e-06
-2.40536e-07
5.54055e-06
-1.177e-07
5.58387e-06
4.85151e-09
5.62165e-06
6.97153e-08
5.64657e-06
9.20479e-08
5.66124e-06
9.5983e-08
5.66932e-06
9.30765e-08
5.67329e-06
8.79964e-08
5.67482e-06
8.27827e-08
5.67485e-06
7.80624e-08
5.67387e-06
7.39487e-08
5.67207e-06
7.03868e-08
5.66951e-06
6.73062e-08
5.66603e-06
6.46285e-08
5.66134e-06
6.24067e-08
5.65491e-06
6.08738e-08
6.07964e-08
5.64641e-06
4.34788e-06
-2.39245e-07
4.32251e-06
-2.15173e-07
4.33078e-06
-1.25971e-07
4.35419e-06
-1.85641e-08
4.3784e-06
4.54951e-08
4.39647e-06
7.39635e-08
4.40847e-06
8.39904e-08
4.41605e-06
8.55087e-08
4.42064e-06
8.34378e-08
4.42326e-06
8.01993e-08
4.42457e-06
7.68001e-08
4.42494e-06
7.36287e-08
4.42454e-06
7.08136e-08
4.42345e-06
6.84089e-08
4.42162e-06
6.64524e-08
4.41892e-06
6.50864e-08
4.41518e-06
6.46086e-08
6.55835e-08
4.41032e-06
5.08622e-06
-1.85604e-07
5.05777e-06
-1.86728e-07
5.0584e-06
-1.26598e-07
5.07686e-06
-3.70315e-08
5.09918e-06
2.31792e-08
5.11774e-06
5.54022e-08
5.13129e-06
7.04489e-08
5.14066e-06
7.61614e-08
5.14692e-06
7.72064e-08
5.15097e-06
7.61691e-08
5.15347e-06
7.4331e-08
5.15481e-06
7.23165e-08
5.15521e-06
7.04308e-08
5.15477e-06
6.88499e-08
5.1535e-06
6.77175e-08
5.15134e-06
6.72356e-08
5.14822e-06
6.76908e-08
6.9548e-08
5.14424e-06
5.94839e-06
-1.38198e-07
5.91832e-06
-1.5666e-07
5.91161e-06
-1.19889e-07
5.924e-06
-4.94312e-08
5.94286e-06
4.31471e-09
5.9606e-06
3.76635e-08
5.97485e-06
5.6206e-08
5.98553e-06
6.54878e-08
5.99325e-06
6.94972e-08
5.99871e-06
7.07294e-08
6.00246e-06
7.06001e-08
6.00488e-06
6.99034e-08
6.00623e-06
6.90874e-08
6.00664e-06
6.84472e-08
6.00616e-06
6.81981e-08
6.00481e-06
6.85716e-08
6.00267e-06
6.98399e-08
7.22807e-08
5.9999e-06
6.95439e-06
-9.83187e-08
6.92402e-06
-1.2629e-07
6.91113e-06
-1.0701e-07
6.91681e-06
-5.51052e-08
6.93088e-06
-9.76345e-09
6.94638e-06
2.21687e-08
6.9602e-06
4.23874e-08
6.97146e-06
5.42328e-08
6.98023e-06
6.0739e-08
6.98688e-06
6.408e-08
6.99184e-06
6.56545e-08
6.99541e-06
6.63292e-08
6.99784e-06
6.66614e-08
6.99928e-06
6.70037e-08
6.99985e-06
6.76363e-08
6.99964e-06
6.87894e-08
6.99879e-06
7.06697e-08
7.34829e-08
6.99759e-06
8.12719e-06
-6.64939e-08
8.09793e-06
-9.7033e-08
8.08056e-06
-8.96371e-08
8.07955e-06
-5.41029e-08
8.08794e-06
-1.81506e-08
8.09987e-06
1.02383e-08
8.11202e-06
3.02396e-08
8.12291e-06
4.33567e-08
8.13207e-06
5.15802e-08
8.13954e-06
5.66124e-08
8.14552e-06
5.96811e-08
8.15021e-06
6.16441e-08
8.1538e-06
6.30627e-08
8.15646e-06
6.43492e-08
8.15833e-06
6.57757e-08
8.15955e-06
6.75674e-08
8.16034e-06
6.98867e-08
7.28337e-08
8.16096e-06
9.49368e-06
-4.24462e-08
9.4668e-06
-7.01562e-08
9.44683e-06
-6.96718e-08
9.43991e-06
-4.71814e-08
9.4423e-06
-2.05381e-08
9.44967e-06
2.86143e-09
9.45898e-06
2.09381e-08
9.46844e-06
3.3904e-08
9.4772e-06
4.28303e-08
9.48494e-06
4.88745e-08
9.49161e-06
5.30133e-08
9.49728e-06
5.59714e-08
9.50206e-06
5.82932e-08
9.50606e-06
6.03427e-08
9.50944e-06
6.24008e-08
9.51236e-06
6.46412e-08
9.51504e-06
6.7199e-08
7.01118e-08
9.51775e-06
1.10854e-05
-2.51673e-08
1.10618e-05
-4.65173e-08
1.1041e-05
-4.88411e-08
1.10294e-05
-3.56053e-08
1.10261e-05
-1.7244e-08
1.10284e-05
5.05408e-10
1.1034e-05
1.53461e-08
1.10411e-05
2.68088e-08
1.10487e-05
3.52937e-08
1.10561e-05
4.14826e-08
1.10631e-05
4.60438e-08
1.10695e-05
4.95392e-08
1.10754e-05
5.23935e-08
1.10808e-05
5.49266e-08
1.10858e-05
5.73531e-08
1.10906e-05
5.98255e-08
1.10954e-05
6.24167e-08
6.51609e-08
1.11004e-05
1.29396e-05
-1.31272e-08
1.29194e-05
-2.62941e-08
1.28988e-05
-2.82865e-08
1.28839e-05
-2.07418e-08
1.28758e-05
-9.07162e-09
1.28732e-05
3.04552e-09
1.28748e-05
1.38131e-08
1.2879e-05
2.26314e-08
1.28847e-05
2.95554e-08
1.28913e-05
3.49215e-08
1.28982e-05
3.91284e-08
1.29052e-05
4.25397e-08
1.29121e-05
4.54473e-08
1.2919e-05
4.807e-08
1.29258e-05
5.05567e-08
1.29326e-05
5.3001e-08
1.29395e-05
5.54462e-08
5.78955e-08
1.29468e-05
1.50998e-05
-4.4914e-09
1.50822e-05
-8.69269e-09
1.50621e-05
-8.14789e-09
1.50448e-05
-3.51224e-09
1.50327e-05
3.03643e-09
1.50259e-05
9.84105e-09
1.50237e-05
1.60397e-08
1.5025e-05
2.13138e-08
1.50289e-05
2.56746e-08
1.50346e-05
2.9276e-08
1.50414e-05
3.23158e-08
1.50489e-05
3.49744e-08
1.5057e-05
3.73958e-08
1.50654e-05
3.96824e-08
1.5074e-05
4.1897e-08
1.5083e-05
4.40706e-08
1.50922e-05
4.62058e-08
4.82837e-08
1.51018e-05
1.76171e-05
2.88486e-09
1.75999e-05
8.50351e-09
1.75787e-05
1.29918e-08
1.7559e-05
1.62271e-08
1.75436e-05
1.83992e-08
1.75336e-05
1.98688e-08
1.75287e-05
2.09377e-08
1.75282e-05
2.18593e-08
1.75311e-05
2.27772e-08
1.75366e-05
2.37995e-08
1.75439e-05
2.49628e-08
1.75526e-05
2.62888e-08
1.75622e-05
2.77611e-08
1.75726e-05
2.93597e-08
1.75834e-05
3.10448e-08
1.75947e-05
3.27793e-08
1.76064e-05
3.45144e-08
3.62074e-08
1.76184e-05
1.78181e-05
1.09933e-08
1.77994e-05
2.71849e-08
1.77768e-05
3.55867e-08
1.7756e-05
3.70028e-08
1.77402e-05
3.42634e-08
1.77302e-05
2.98638e-08
1.77257e-05
2.54078e-08
1.77259e-05
2.16627e-08
1.77298e-05
1.89456e-08
1.77363e-05
1.72443e-08
1.77449e-05
1.64563e-08
1.77547e-05
1.64006e-08
1.77656e-05
1.69179e-08
1.77771e-05
1.78436e-08
1.77891e-05
1.90538e-08
1.78015e-05
2.0427e-08
1.78141e-05
2.1883e-08
2.33352e-08
1.7827e-05
1.58702e-05
2.21267e-08
1.58478e-05
4.9552e-08
1.58233e-05
6.00906e-08
1.58032e-05
5.71851e-08
1.57899e-05
4.75481e-08
1.57834e-05
3.63056e-08
1.57827e-05
2.61219e-08
1.57863e-05
1.80654e-08
1.5793e-05
1.2269e-08
1.58018e-05
8.50182e-09
1.58119e-05
6.36341e-09
1.58228e-05
5.47125e-09
1.58343e-05
5.4818e-09
1.5846e-05
6.12389e-09
1.58579e-05
7.17651e-09
1.58699e-05
8.47914e-09
1.58818e-05
9.89864e-09
1.13506e-08
1.58938e-05
1.41313e-05
3.95337e-08
1.41021e-05
7.86778e-08
1.40745e-05
8.77474e-08
1.40557e-05
7.59869e-08
1.40469e-05
5.63579e-08
1.40462e-05
3.69855e-08
1.40512e-05
2.1154e-08
1.40597e-05
9.53069e-09
1.40703e-05
1.70483e-09
1.40819e-05
-3.10721e-09
1.4094e-05
-5.68032e-09
1.41062e-05
-6.66369e-09
1.41182e-05
-6.55053e-09
1.41301e-05
-5.72463e-09
1.41417e-05
-4.44856e-09
1.41531e-05
-2.92765e-09
1.41643e-05
-1.29439e-09
3.46631e-10
1.41753e-05
1.25772e-05
6.73513e-08
1.25392e-05
1.16713e-07
1.25091e-05
1.17851e-07
1.24942e-05
9.08429e-08
1.24928e-05
5.77633e-08
1.25002e-05
2.9634e-08
1.25123e-05
9.10146e-09
1.25263e-05
-4.53418e-09
1.25409e-05
-1.28364e-08
1.25552e-05
-1.73448e-08
1.25688e-05
-1.92837e-08
1.25817e-05
-1.95332e-08
1.25939e-05
-1.87305e-08
1.26055e-05
-1.72696e-08
1.26165e-05
-1.54605e-08
1.2627e-05
-1.34763e-08
1.26372e-05
-1.14622e-08
-9.49156e-09
1.2647e-05
1.11862e-05
1.10913e-07
1.11384e-05
1.64548e-07
1.11088e-05
1.47485e-07
1.11022e-05
9.74393e-08
1.11117e-05
4.82653e-08
1.1129e-05
1.23686e-08
1.11486e-05
-1.04975e-08
1.11678e-05
-2.37168e-08
1.11855e-05
-3.04899e-08
1.12014e-05
-3.3194e-08
1.12156e-05
-3.34462e-08
1.12283e-05
-3.22699e-08
1.12399e-05
-3.02934e-08
1.12506e-05
-2.7913e-08
1.12605e-05
-2.53576e-08
1.12699e-05
-2.27912e-08
1.12787e-05
-2.0302e-08
-1.79593e-08
1.12872e-05
9.93908e-06
1.7645e-07
9.88248e-06
2.21145e-07
9.85874e-06
1.71233e-07
9.86596e-06
9.0233e-08
9.88965e-06
2.45921e-08
9.91763e-06
-1.56032e-08
9.94397e-06
-3.67964e-08
9.96672e-06
-4.64222e-08
9.98578e-06
-4.9469e-08
1.00017e-05
-4.90693e-08
1.00151e-05
-4.6862e-08
1.00267e-05
-4.38204e-08
1.00368e-05
-4.0388e-08
1.0046e-05
-3.6956e-08
1.00543e-05
-3.36181e-08
1.0062e-05
-3.04661e-08
1.00693e-05
-2.75323e-08
-2.48409e-08
1.00762e-05
8.81963e-06
2.69915e-07
8.75785e-06
2.82932e-07
8.74788e-06
1.81199e-07
8.77483e-06
6.32817e-08
8.81462e-06
-1.51845e-08
8.85218e-06
-5.31317e-08
8.88273e-06
-6.72764e-08
8.90635e-06
-6.99611e-08
8.92439e-06
-6.7544e-08
8.93844e-06
-6.30381e-08
8.94966e-06
-5.80184e-08
8.95901e-06
-5.2911e-08
8.96692e-06
-4.82199e-08
8.97391e-06
-4.38219e-08
8.9802e-06
-3.98512e-08
8.98599e-06
-3.6193e-08
8.9914e-06
-3.28937e-08
-2.99678e-08
8.99652e-06
7.81391e-06
3.96675e-07
7.7539e-06
3.42934e-07
7.76868e-06
1.66416e-07
7.82055e-06
1.14187e-08
7.87572e-06
-7.03355e-08
7.91918e-06
-9.6579e-08
7.94976e-06
-9.78486e-08
7.97067e-06
-9.07985e-08
7.98507e-06
-8.1717e-08
7.99528e-06
-7.31549e-08
8.00302e-06
-6.55564e-08
8.00907e-06
-5.89943e-08
8.01415e-06
-5.307e-08
8.01848e-06
-4.8045e-08
8.02239e-06
-4.36039e-08
8.02598e-06
-3.97364e-08
8.02931e-06
-3.62412e-08
-3.31483e-08
8.03251e-06
6.90424e-06
5.66769e-07
6.86137e-06
3.85802e-07
6.91717e-06
1.10611e-07
6.99676e-06
-6.81801e-08
7.06257e-06
-1.36154e-07
7.10537e-06
-1.3938e-07
7.13035e-06
-1.22705e-07
7.14455e-06
-1.04955e-07
7.1525e-06
-8.96687e-08
7.15716e-06
-7.76518e-08
7.16016e-06
-6.84457e-08
7.16234e-06
-6.084e-08
7.16388e-06
-5.45643e-08
7.16519e-06
-4.9292e-08
7.16631e-06
-4.47541e-08
7.16745e-06
-4.08826e-08
7.16856e-06
-3.73121e-08
-3.42237e-08
7.16956e-06
6.07162e-06
7.97663e-07
6.08525e-06
3.7216e-07
6.19865e-06
-2.79308e-09
6.29991e-06
-1.69442e-07
6.3653e-06
-2.01548e-07
6.3976e-06
-1.71662e-07
6.41008e-06
-1.35317e-07
6.41335e-06
-1.07912e-07
6.41236e-06
-8.8734e-08
6.40994e-06
-7.52249e-08
6.40742e-06
-6.58648e-08
6.4049e-06
-5.84171e-08
6.40237e-06
-5.21891e-08
6.40013e-06
-4.69608e-08
6.39798e-06
-4.26072e-08
6.39635e-06
-3.92904e-08
6.3949e-06
-3.59415e-08
-3.27615e-08
6.39348e-06
5.35805e-06
1.05451e-06
5.50649e-06
2.23712e-07
5.64777e-06
-1.4409e-07
5.73566e-06
-2.57339e-07
5.77649e-06
-2.42406e-07
5.78329e-06
-1.78577e-07
5.77502e-06
-1.26917e-07
5.76262e-06
-9.55975e-08
5.75012e-06
-7.6432e-08
5.73922e-06
-6.46281e-08
5.73034e-06
-5.71938e-08
5.72239e-06
-5.07727e-08
5.71489e-06
-4.49717e-08
5.70803e-06
-4.03153e-08
5.70147e-06
-3.61745e-08
5.69649e-06
-3.44475e-08
5.69215e-06
-3.16244e-08
-2.8149e-08
5.68749e-06
5.04576e-06
1.01105e-06
5.36491e-06
-9.54592e-08
5.35252e-06
-1.31739e-07
5.33288e-06
-2.37719e-07
5.29604e-06
-2.05641e-07
5.25012e-06
-1.32763e-07
5.20828e-06
-8.51107e-08
5.17418e-06
-6.16615e-08
5.14673e-06
-4.93814e-08
5.12462e-06
-4.29912e-08
5.10671e-06
-3.96888e-08
5.09095e-06
-3.55831e-08
5.07638e-06
-3.1005e-08
5.06322e-06
-2.75245e-08
5.0501e-06
-2.33048e-08
5.03951e-06
-2.40078e-08
5.03071e-06
-2.28937e-08
-2.08117e-08
5.02336e-06
5.4676e-06
5.37214e-06
5.2404e-06
5.00267e-06
4.79701e-06
4.66425e-06
4.57911e-06
4.51739e-06
4.46793e-06
4.42486e-06
4.38507e-06
4.34935e-06
4.31826e-06
4.29067e-06
4.26732e-06
4.2433e-06
4.2204e-06
4.19959e-06
2.47686e-08
-2.478e-08
2.38631e-07
-2.13841e-07
4.89946e-07
-2.51348e-07
7.09244e-07
-2.19295e-07
8.7591e-07
-1.66696e-07
9.8602e-07
-1.10107e-07
1.04056e-06
-5.45677e-08
1.04185e-06
-1.28034e-09
9.95231e-07
4.65977e-08
9.11065e-07
8.41982e-08
8.04655e-07
1.0641e-07
6.95409e-07
1.09318e-07
6.02994e-07
9.2498e-08
5.36887e-07
6.6047e-08
4.85451e-07
5.15687e-08
4.24204e-07
6.09213e-08
3.36511e-07
8.78228e-08
2.08133e-07
1.2829e-07
3.1732e-08
1.76546e-07
-2.13782e-07
2.45832e-07
-5.18769e-07
3.05047e-07
-8.60006e-07
3.41387e-07
-1.22351e-06
3.63484e-07
-1.60004e-06
3.76545e-07
-1.9808e-06
3.80719e-07
-2.3557e-06
3.74884e-07
-2.71678e-06
3.61052e-07
-3.05884e-06
3.42041e-07
-3.3781e-06
3.1924e-07
-3.67224e-06
2.94133e-07
-3.94046e-06
2.68204e-07
-4.18307e-06
2.42611e-07
-4.40113e-06
2.18055e-07
-4.59611e-06
1.94982e-07
-4.76973e-06
1.73614e-07
-4.92376e-06
1.54031e-07
-5.05995e-06
1.36189e-07
-5.17992e-06
1.19973e-07
-5.28514e-06
1.05219e-07
-5.37689e-06
9.17495e-08
-5.45627e-06
7.93816e-08
-5.52421e-06
6.79444e-08
-5.58149e-06
5.72828e-08
-5.62875e-06
4.72643e-08
-5.66653e-06
3.77801e-08
-5.69527e-06
2.87442e-08
-5.71536e-06
2.00852e-08
-5.72713e-06
1.17746e-08
-5.73108e-06
3.94799e-09
-5.72805e-06
-3.02335e-09
-5.71915e-06
-8.90022e-09
-5.70514e-06
-1.40064e-08
-5.68641e-06
-1.8727e-08
-5.66322e-06
-2.31897e-08
-5.63574e-06
-2.74832e-08
-5.6041e-06
-3.16344e-08
-5.56844e-06
-3.56583e-08
-5.52888e-06
-3.95613e-08
-5.48554e-06
-4.33445e-08
-5.43853e-06
-4.70066e-08
-5.38798e-06
-5.05452e-08
-5.33403e-06
-5.39565e-08
-5.27679e-06
-5.72374e-08
-5.2164e-06
-6.03844e-08
-5.15301e-06
-6.33951e-08
-5.08674e-06
-6.62663e-08
-5.01775e-06
-6.89946e-08
-4.94617e-06
-7.15777e-08
-4.87215e-06
-7.40139e-08
-4.79585e-06
-7.63019e-08
-4.71741e-06
-7.84411e-08
-4.63698e-06
-8.0431e-08
-4.5547e-06
-8.22721e-08
-4.47074e-06
-8.39648e-08
-4.38523e-06
-8.55105e-08
-4.29832e-06
-8.69107e-08
-4.21015e-06
-8.81676e-08
-4.12086e-06
-8.92838e-08
-4.0306e-06
-9.02624e-08
-3.93949e-06
-9.11067e-08
-3.84767e-06
-9.18208e-08
-3.75526e-06
-9.24089e-08
-3.66238e-06
-9.28761e-08
-3.56915e-06
-9.32278e-08
-3.47568e-06
-9.34702e-08
-3.38207e-06
-9.36105e-08
-3.28841e-06
-9.36573e-08
-3.19479e-06
-9.3621e-08
-3.10127e-06
-9.35145e-08
-3.00792e-06
-9.33536e-08
-2.91476e-06
-9.31596e-08
-2.8218e-06
-9.29576e-08
-2.72903e-06
-9.27655e-08
-2.63647e-06
-9.25618e-08
-2.5442e-06
-9.22601e-08
-2.45244e-06
-9.17592e-08
-2.36147e-06
-9.09746e-08
-2.27154e-06
-8.99266e-08
-2.18277e-06
-8.87731e-08
-2.09515e-06
-8.76188e-08
-2.00869e-06
-8.64627e-08
-1.9234e-06
-8.52891e-08
-1.8393e-06
-8.40907e-08
-1.75644e-06
-8.28669e-08
-1.67482e-06
-8.16199e-08
-1.59446e-06
-8.03539e-08
-1.51539e-06
-7.90723e-08
-1.43761e-06
-7.77782e-08
-1.36114e-06
-7.64689e-08
-1.28602e-06
-7.5124e-08
-1.21226e-06
-7.37555e-08
-1.13987e-06
-7.23922e-08
-1.06884e-06
-7.10276e-08
-9.99171e-07
-6.96638e-08
-9.30867e-07
-6.83011e-08
-8.63924e-07
-6.69418e-08
-7.98334e-07
-6.55873e-08
-7.3409e-07
-6.42413e-08
-6.71183e-07
-6.29045e-08
-6.09603e-07
-6.15774e-08
-5.49339e-07
-6.02596e-08
-4.90381e-07
-5.89551e-08
-4.32706e-07
-5.76693e-08
-3.76293e-07
-5.64089e-08
-3.21119e-07
-5.5168e-08
-2.67169e-07
-5.39438e-08
-2.14422e-07
-5.27398e-08
-1.62858e-07
-5.15556e-08
-1.12471e-07
-5.03787e-08
-6.32517e-08
-4.921e-08
-1.53293e-08
-4.79129e-08
3.14386e-08
-4.67598e-08
7.73593e-08
-4.59126e-08
1.22315e-07
-4.49488e-08
1.66212e-07
-4.38883e-08
2.09043e-07
-4.28246e-08
2.50828e-07
-4.17795e-08
2.91598e-07
-4.07649e-08
3.31387e-07
-3.97819e-08
3.70225e-07
-3.88288e-08
4.08141e-07
-3.79034e-08
4.4516e-07
-3.70042e-08
4.81308e-07
-3.6131e-08
5.16608e-07
-3.52825e-08
5.51084e-07
-3.44592e-08
5.84756e-07
-3.366e-08
6.17646e-07
-3.28881e-08
6.49778e-07
-3.2141e-08
6.81182e-07
-3.14202e-08
7.11885e-07
-3.0723e-08
7.41913e-07
-3.00501e-08
7.71291e-07
-2.93998e-08
8.00042e-07
-2.87743e-08
8.28195e-07
-2.81716e-08
8.55771e-07
-2.75942e-08
8.82797e-07
-2.70393e-08
9.09295e-07
-2.65095e-08
9.35292e-07
-2.60019e-08
9.60807e-07
-2.55183e-08
9.85866e-07
-2.50556e-08
1.01048e-06
-2.46145e-08
1.03468e-06
-2.41912e-08
1.05848e-06
-2.37844e-08
1.08188e-06
-2.33886e-08
1.1049e-06
-2.29991e-08
1.12752e-06
-2.2607e-08
1.14974e-06
-2.22012e-08
1.17152e-06
-2.17659e-08
1.19281e-06
-2.12789e-08
1.21353e-06
-2.07094e-08
1.23356e-06
-2.00131e-08
1.25269e-06
-1.91265e-08
1.27064e-06
-1.79524e-08
1.28698e-06
-1.63463e-08
1.30101e-06
-1.40352e-08
1.31159e-06
-1.06019e-08
1.31611e-06
-4.53872e-09
1.3092e-06
6.89093e-09
1.27957e-06
2.96081e-08
7.245e-08
1.2071e-06
2.53687e-07
-2.78473e-07
4.88911e-07
-4.49059e-07
6.38076e-07
-4.00526e-07
7.22248e-07
-3.03467e-07
7.61227e-07
-2.05686e-07
7.66608e-07
-1.15488e-07
7.45117e-07
-3.30879e-08
7.02447e-07
4.13925e-08
6.41565e-07
1.07474e-07
5.6243e-07
1.63346e-07
4.64251e-07
2.04594e-07
3.45337e-07
2.28241e-07
1.99448e-07
2.38423e-07
1.4786e-08
2.50652e-07
-2.19038e-07
2.85405e-07
-5.06303e-07
3.48113e-07
-8.44981e-07
4.26503e-07
-1.22387e-06
5.07196e-07
-1.62903e-06
5.81739e-07
-2.02934e-06
6.46195e-07
-2.41715e-06
6.92886e-07
-2.79203e-06
7.16294e-07
-3.14688e-06
7.18337e-07
-3.47361e-06
7.03277e-07
-3.76738e-06
6.74481e-07
-4.02739e-06
6.34886e-07
-4.25419e-06
5.8784e-07
-4.44916e-06
5.37003e-07
-4.61526e-06
4.85326e-07
-4.75598e-06
4.34848e-07
-4.87469e-06
3.8691e-07
-4.97454e-06
3.42466e-07
-5.05841e-06
3.01918e-07
-5.12877e-06
2.65346e-07
-5.18774e-06
2.32583e-07
-5.23704e-06
2.03326e-07
-5.27805e-06
1.77204e-07
-5.3119e-06
1.53827e-07
-5.3395e-06
1.32815e-07
-5.36157e-06
1.1382e-07
-5.37872e-06
9.65306e-08
-5.39145e-06
8.06842e-08
-5.40023e-06
6.60599e-08
-5.40544e-06
5.24777e-08
-5.40745e-06
3.97916e-08
-5.40659e-06
2.7888e-08
-5.4032e-06
1.66901e-08
-5.39758e-06
6.16381e-09
-5.3899e-06
-3.73501e-09
-5.37972e-06
-1.32001e-08
-5.36616e-06
-2.24653e-08
-5.3486e-06
-3.15584e-08
-5.32691e-06
-4.04183e-08
-5.30106e-06
-4.90375e-08
-5.27112e-06
-5.74234e-08
-5.23717e-06
-6.55823e-08
-5.19931e-06
-7.35171e-08
-5.15765e-06
-8.12269e-08
-5.11228e-06
-8.87085e-08
-5.06333e-06
-9.59561e-08
-5.01091e-06
-1.02963e-07
-4.95515e-06
-1.09721e-07
-4.89616e-06
-1.16223e-07
-4.83408e-06
-1.22462e-07
-4.76905e-06
-1.28432e-07
-4.70118e-06
-1.34128e-07
-4.63063e-06
-1.39542e-07
-4.55754e-06
-1.44669e-07
-4.48205e-06
-1.49506e-07
-4.4043e-06
-1.5405e-07
-4.32444e-06
-1.58301e-07
-4.24262e-06
-1.62257e-07
-4.15897e-06
-1.65919e-07
-4.07364e-06
-1.69288e-07
-3.98679e-06
-1.72366e-07
-3.89854e-06
-1.75157e-07
-3.80904e-06
-1.77666e-07
-3.71843e-06
-1.79896e-07
-3.62684e-06
-1.81855e-07
-3.53439e-06
-1.83548e-07
-3.44123e-06
-1.84984e-07
-3.34747e-06
-1.86171e-07
-3.25322e-06
-1.87118e-07
-3.15862e-06
-1.87835e-07
-3.06375e-06
-1.88332e-07
-2.96874e-06
-1.88622e-07
-2.87368e-06
-1.88715e-07
-2.77868e-06
-1.88627e-07
-2.68382e-06
-1.88368e-07
-2.58922e-06
-1.87952e-07
-2.49499e-06
-1.87391e-07
-2.40125e-06
-1.86692e-07
-2.30817e-06
-1.85849e-07
-2.21589e-06
-1.84835e-07
-2.12455e-06
-1.83604e-07
-2.03418e-06
-1.82128e-07
-1.94475e-06
-1.80404e-07
-1.8562e-06
-1.78474e-07
-1.76856e-06
-1.76415e-07
-1.6819e-06
-1.74279e-07
-1.59628e-06
-1.7208e-07
-1.51175e-06
-1.69818e-07
-1.42835e-06
-1.67495e-07
-1.3461e-06
-1.65116e-07
-1.26503e-06
-1.62684e-07
-1.18518e-06
-1.60207e-07
-1.10656e-06
-1.57688e-07
-1.02921e-06
-1.55133e-07
-9.53135e-07
-1.52541e-07
-8.78343e-07
-1.49915e-07
-8.04831e-07
-1.47267e-07
-7.32612e-07
-1.4461e-07
-6.61691e-07
-1.41948e-07
-5.92067e-07
-1.39286e-07
-5.23742e-07
-1.36625e-07
-4.56713e-07
-1.33969e-07
-3.90977e-07
-1.31322e-07
-3.26528e-07
-1.28688e-07
-2.63356e-07
-1.26074e-07
-2.01451e-07
-1.2348e-07
-1.40805e-07
-1.20904e-07
-8.14045e-08
-1.18352e-07
-2.32448e-08
-1.15826e-07
3.3688e-08
-1.13338e-07
8.94222e-08
-1.10899e-07
1.43975e-07
-1.08493e-07
1.97358e-07
-1.06119e-07
2.49586e-07
-1.0378e-07
3.00688e-07
-1.01476e-07
3.50691e-07
-9.92096e-08
3.9976e-07
-9.69789e-08
4.47859e-07
-9.48566e-08
4.94772e-07
-9.28222e-08
5.40573e-07
-9.07469e-08
5.85336e-07
-8.86486e-08
6.29092e-07
-8.65799e-08
6.71873e-07
-8.45587e-08
7.13701e-07
-8.25922e-08
7.54601e-07
-8.06799e-08
7.94596e-07
-7.88209e-08
8.33711e-07
-7.70128e-08
8.71967e-07
-7.52547e-08
9.09388e-07
-7.35452e-08
9.45996e-07
-7.18841e-08
9.81813e-07
-7.02702e-08
1.01686e-06
-6.8706e-08
1.05116e-06
-6.719e-08
1.08473e-06
-6.57245e-08
1.1176e-06
-6.43057e-08
1.1498e-06
-6.29351e-08
1.18134e-06
-6.16092e-08
1.21225e-06
-6.03305e-08
1.24256e-06
-5.90973e-08
1.27229e-06
-5.79112e-08
1.30145e-06
-5.67712e-08
1.33008e-06
-5.56776e-08
1.3582e-06
-5.46302e-08
1.38582e-06
-5.36273e-08
1.41297e-06
-5.26691e-08
1.43967e-06
-5.17519e-08
1.46594e-06
-5.08752e-08
1.49179e-06
-5.00323e-08
1.51724e-06
-4.92206e-08
1.5423e-06
-4.84286e-08
1.56696e-06
-4.76489e-08
1.59124e-06
-4.68623e-08
1.6151e-06
-4.6051e-08
1.63854e-06
-4.51822e-08
1.66149e-06
-4.42179e-08
1.6839e-06
-4.30981e-08
1.70564e-06
-4.17435e-08
1.72655e-06
-4.00347e-08
1.7464e-06
-3.77961e-08
1.76481e-06
-3.47584e-08
1.78123e-06
-3.04609e-08
1.79476e-06
-2.41485e-08
1.80445e-06
-1.42411e-08
1.80927e-06
2.05533e-09
1.80733e-06
3.15199e-08
8.81755e-08
1.79159e-06
2.45027e-07
-5.23501e-07
3.40224e-07
-5.44252e-07
3.55987e-07
-4.16295e-07
3.44633e-07
-2.92109e-07
3.16603e-07
-1.77663e-07
2.72156e-07
-7.1037e-08
2.10555e-07
2.85052e-08
1.30785e-07
1.21167e-07
3.1739e-08
2.06515e-07
-8.87653e-08
2.83853e-07
-2.36569e-07
3.52398e-07
-4.22319e-07
4.13982e-07
-6.59371e-07
4.75478e-07
-9.5422e-07
5.45476e-07
-1.29607e-06
6.27252e-07
-1.66302e-06
7.15044e-07
-2.03444e-06
7.97922e-07
-2.39384e-06
8.66613e-07
-2.72791e-06
9.15832e-07
-3.02527e-06
9.43574e-07
-3.28154e-06
9.49166e-07
-3.49871e-06
9.33478e-07
-3.68022e-06
8.99856e-07
-3.82987e-06
8.52924e-07
-3.9523e-06
7.9691e-07
-4.0529e-06
7.35481e-07
-4.13696e-06
6.71898e-07
-4.20884e-06
6.08886e-07
-4.27196e-06
5.48443e-07
-4.32891e-06
4.91794e-07
-4.38154e-06
4.39535e-07
-4.43096e-06
3.91886e-07
-4.4778e-06
3.48758e-07
-4.52232e-06
3.09866e-07
-4.56455e-06
2.7482e-07
-4.60441e-06
2.4318e-07
-4.64171e-06
2.14508e-07
-4.67627e-06
1.88391e-07
-4.70791e-06
1.64454e-07
-4.73646e-06
1.42368e-07
-4.76178e-06
1.21853e-07
-4.78377e-06
1.02672e-07
-4.80234e-06
8.46291e-08
-4.81742e-06
6.75594e-08
-4.82895e-06
5.13245e-08
-4.83687e-06
3.58061e-08
-4.84108e-06
2.09029e-08
-4.84143e-06
6.52151e-09
-4.83772e-06
-7.44462e-09
-4.82981e-06
-2.11093e-08
-4.81775e-06
-3.45305e-08
-4.80161e-06
-4.76953e-08
-4.78144e-06
-6.05819e-08
-4.7573e-06
-7.31816e-08
-4.72923e-06
-8.54877e-08
-4.69732e-06
-9.74943e-08
-4.66164e-06
-1.09194e-07
-4.62229e-06
-1.20579e-07
-4.57936e-06
-1.31639e-07
-4.53295e-06
-1.42361e-07
-4.48318e-06
-1.52733e-07
-4.43016e-06
-1.62744e-07
-4.37401e-06
-1.72378e-07
-4.31484e-06
-1.81625e-07
-4.2528e-06
-1.90478e-07
-4.188e-06
-1.98926e-07
-4.12058e-06
-2.06957e-07
-4.05068e-06
-2.14566e-07
-3.97844e-06
-2.21747e-07
-3.904e-06
-2.28495e-07
-3.82749e-06
-2.34809e-07
-3.74906e-06
-2.40686e-07
-3.66885e-06
-2.46127e-07
-3.587e-06
-2.51135e-07
-3.50366e-06
-2.55712e-07
-3.41895e-06
-2.59863e-07
-3.33302e-06
-2.63593e-07
-3.24601e-06
-2.66911e-07
-3.15804e-06
-2.69824e-07
-3.06924e-06
-2.72342e-07
-2.97975e-06
-2.74476e-07
-2.88968e-06
-2.76238e-07
-2.79916e-06
-2.77639e-07
-2.7083e-06
-2.78693e-07
-2.61722e-06
-2.79415e-07
-2.52602e-06
-2.79818e-07
-2.43482e-06
-2.79918e-07
-2.34371e-06
-2.7973e-07
-2.25281e-06
-2.79269e-07
-2.16222e-06
-2.78546e-07
-2.07203e-06
-2.77574e-07
-1.98237e-06
-2.76358e-07
-1.89332e-06
-2.74898e-07
-1.80497e-06
-2.73181e-07
-1.71738e-06
-2.71191e-07
-1.63058e-06
-2.68927e-07
-1.54458e-06
-2.66404e-07
-1.4594e-06
-2.63659e-07
-1.37507e-06
-2.60738e-07
-1.29168e-06
-2.57675e-07
-1.20926e-06
-2.54491e-07
-1.12788e-06
-2.51197e-07
-1.04758e-06
-2.47804e-07
-9.68372e-07
-2.44319e-07
-8.90302e-07
-2.40754e-07
-8.13392e-07
-2.37116e-07
-7.37665e-07
-2.33415e-07
-6.63141e-07
-2.29657e-07
-5.89833e-07
-2.25849e-07
-5.17747e-07
-2.22e-07
-4.46891e-07
-2.18122e-07
-3.77277e-07
-2.14224e-07
-3.08909e-07
-2.10316e-07
-2.4179e-07
-2.06404e-07
-1.75919e-07
-2.02495e-07
-1.11296e-07
-1.98592e-07
-4.7915e-08
-1.94702e-07
1.42286e-08
-1.90831e-07
7.51393e-08
-1.86984e-07
1.34826e-07
-1.83165e-07
1.93301e-07
-1.79378e-07
2.50577e-07
-1.75628e-07
3.0667e-07
-1.71918e-07
3.61592e-07
-1.68259e-07
4.15348e-07
-1.64654e-07
4.67956e-07
-1.61099e-07
5.19434e-07
-1.57595e-07
5.69801e-07
-1.54146e-07
6.19081e-07
-1.50754e-07
6.67303e-07
-1.47429e-07
7.14509e-07
-1.44184e-07
7.60682e-07
-1.41027e-07
8.05787e-07
-1.37925e-07
8.49876e-07
-1.34833e-07
8.9299e-07
-1.31761e-07
9.35153e-07
-1.28741e-07
9.76384e-07
-1.25788e-07
1.0167e-06
-1.22907e-07
1.05613e-06
-1.20101e-07
1.09468e-06
-1.17367e-07
1.13238e-06
-1.14706e-07
1.16924e-06
-1.12117e-07
1.20531e-06
-1.09598e-07
1.24058e-06
-1.07149e-07
1.27509e-06
-1.04771e-07
1.30885e-06
-1.02464e-07
1.34189e-06
-1.00228e-07
1.37422e-06
-9.80645e-08
1.40588e-06
-9.59702e-08
1.43689e-06
-9.39449e-08
1.46726e-06
-9.19871e-08
1.49702e-06
-9.00978e-08
1.52619e-06
-8.82765e-08
1.5548e-06
-8.65237e-08
1.58286e-06
-8.48392e-08
1.6104e-06
-8.32227e-08
1.63744e-06
-8.16739e-08
1.664e-06
-8.01908e-08
1.69011e-06
-7.87729e-08
1.71577e-06
-7.7416e-08
1.74101e-06
-7.61177e-08
1.76586e-06
-7.48703e-08
1.79031e-06
-7.3668e-08
1.81438e-06
-7.24968e-08
1.83808e-06
-7.13437e-08
1.8614e-06
-7.01839e-08
1.88435e-06
-6.89905e-08
1.90689e-06
-6.7719e-08
1.92899e-06
-6.63153e-08
1.95059e-06
-6.46965e-08
1.9716e-06
-6.2752e-08
1.99188e-06
-6.03176e-08
2.01124e-06
-5.71539e-08
2.02937e-06
-5.28979e-08
2.04586e-06
-4.69581e-08
2.06011e-06
-3.83964e-08
2.07131e-06
-2.54562e-08
2.07862e-06
-5.2655e-09
2.08249e-06
2.76461e-08
8.56577e-08
2.085e-06
9.2363e-08
-6.15863e-07
6.09394e-08
-5.1282e-07
1.19202e-08
-3.67278e-07
-4.57136e-08
-2.34468e-07
-1.15765e-07
-1.07615e-07
-2.01697e-07
1.48998e-08
-3.06525e-07
1.3333e-07
-4.32662e-07
2.47305e-07
-5.82709e-07
3.56561e-07
-7.60066e-07
4.61208e-07
-9.69497e-07
5.6183e-07
-1.21524e-06
6.59717e-07
-1.4958e-06
7.56036e-07
-1.8001e-06
8.4977e-07
-2.10934e-06
9.36488e-07
-2.40409e-06
1.00979e-06
-2.67015e-06
1.06399e-06
-2.89951e-06
1.09598e-06
-3.08901e-06
1.10534e-06
-3.23927e-06
1.09384e-06
-3.35457e-06
1.06448e-06
-3.44173e-06
1.02064e-06
-3.50799e-06
9.66117e-07
-3.5598e-06
9.04737e-07
-3.60258e-06
8.39689e-07
-3.64069e-06
7.73593e-07
-3.67733e-06
7.08536e-07
-3.71449e-06
6.46044e-07
-3.75314e-06
5.87098e-07
-3.79355e-06
5.32205e-07
-3.83553e-06
4.81508e-07
-3.87856e-06
4.34925e-07
-3.92203e-06
3.92219e-07
-3.96523e-06
3.53069e-07
-4.00752e-06
3.17112e-07
-4.04832e-06
2.83979e-07
-4.08713e-06
2.53315e-07
-4.12352e-06
2.24789e-07
-4.15717e-06
1.98105e-07
-4.1878e-06
1.72997e-07
-4.21519e-06
1.4924e-07
-4.23915e-06
1.26637e-07
-4.25954e-06
1.05023e-07
-4.27624e-06
8.42581e-08
-4.28914e-06
6.4223e-08
-4.29815e-06
4.48167e-08
-4.3032e-06
2.59538e-08
-4.30424e-06
7.55779e-09
-4.30123e-06
-1.04446e-08
-4.29423e-06
-2.8114e-08
-4.28328e-06
-4.54775e-08
-4.26844e-06
-6.25316e-08
-4.24976e-06
-7.92633e-08
-4.22728e-06
-9.566e-08
-4.20106e-06
-1.11708e-07
-4.17116e-06
-1.27393e-07
-4.13766e-06
-1.42698e-07
-4.10063e-06
-1.57608e-07
-4.06016e-06
-1.72104e-07
-4.01636e-06
-1.86168e-07
-3.96931e-06
-1.99782e-07
-3.91912e-06
-2.12928e-07
-3.86591e-06
-2.25585e-07
-3.8098e-06
-2.37737e-07
-3.7509e-06
-2.49375e-07
-3.68935e-06
-2.60482e-07
-3.62526e-06
-2.71046e-07
-3.55877e-06
-2.81057e-07
-3.49001e-06
-2.90507e-07
-3.41911e-06
-2.9939e-07
-3.34622e-06
-3.07702e-07
-3.27146e-06
-3.15442e-07
-3.19498e-06
-3.22609e-07
-3.11691e-06
-3.29206e-07
-3.03738e-06
-3.35237e-07
-2.95654e-06
-3.40707e-07
-2.87451e-06
-3.45624e-07
-2.79142e-06
-3.49997e-07
-2.70741e-06
-3.53836e-07
-2.62259e-06
-3.57155e-07
-2.5371e-06
-3.59966e-07
-2.45106e-06
-3.62283e-07
-2.36457e-06
-3.64123e-07
-2.27776e-06
-3.65502e-07
-2.19074e-06
-3.66437e-07
-2.10361e-06
-3.66946e-07
-2.01648e-06
-3.67046e-07
-1.92946e-06
-3.66757e-07
-1.84263e-06
-3.66094e-07
-1.7561e-06
-3.65073e-07
-1.66997e-06
-3.63709e-07
-1.58431e-06
-3.62012e-07
-1.49922e-06
-3.5999e-07
-1.41476e-06
-3.57643e-07
-1.33097e-06
-3.54974e-07
-1.24791e-06
-3.51994e-07
-1.16559e-06
-3.48721e-07
-1.08406e-06
-3.45188e-07
-1.00337e-06
-3.41429e-07
-9.23569e-07
-3.37476e-07
-8.4471e-07
-3.3335e-07
-7.66836e-07
-3.29071e-07
-6.89986e-07
-3.24654e-07
-6.14192e-07
-3.20113e-07
-5.39483e-07
-3.15463e-07
-4.65885e-07
-3.10714e-07
-3.9342e-07