/*--------------------------------*- C++ -*----------------------------------*\
  =========                 |
  \\      /  F ield         | OpenFOAM: The Open Source CFD Toolbox
   \\    /   O peration     | Website:  https://openfoam.org
    \\  /    A nd           | Version:  8
     \\/     M anipulation  |
\*---------------------------------------------------------------------------*/
FoamFile
{
    version     2.0;
    format      ascii;
    class       surfaceScalarField;
    location    "4200";
    object      phi;
}
// * * * * * * * * * * * * * * * * * * * * * * * * * * * * * * * * * * * * * //

dimensions      [0 3 -1 0 0 0 0];

internalField   nonuniform List<scalar> 
24170
(
3.92539e-06
-7.91498e-07
3.76465e-06
1.6075e-07
3.63345e-06
1.31209e-07
3.43331e-06
2.00144e-07
3.28028e-06
1.53027e-07
3.18901e-06
9.11906e-08
3.13091e-06
5.81103e-08
3.08609e-06
4.58912e-08
3.04613e-06
4.23238e-08
3.01059e-06
3.81632e-08
2.97876e-06
3.38029e-08
2.94904e-06
3.07706e-08
2.92188e-06
2.7378e-08
2.89642e-06
2.52e-08
2.87227e-06
2.36052e-08
2.85193e-06
1.94836e-08
2.84097e-06
9.85629e-09
-6.37847e-09
2.84668e-06
3.58445e-06
-9.19499e-07
3.80424e-06
-5.90412e-08
3.74282e-06
1.92629e-07
3.6906e-06
2.52374e-07
3.63729e-06
2.06333e-07
3.59023e-06
1.3828e-07
3.55289e-06
9.55995e-08
3.52309e-06
7.56598e-08
3.49853e-06
6.65699e-08
3.47732e-06
5.92154e-08
3.45871e-06
5.25294e-08
3.44252e-06
4.72645e-08
3.42795e-06
4.23376e-08
3.41466e-06
3.8786e-08
3.40269e-06
3.57299e-08
3.39122e-06
3.10518e-08
3.38036e-06
2.08411e-08
4.77927e-09
3.36944e-06
3.68518e-06
-7.92482e-07
3.83639e-06
-2.10251e-07
3.91494e-06
1.14082e-07
3.94502e-06
2.22293e-07
3.94408e-06
2.07264e-07
3.92749e-06
1.54897e-07
3.90755e-06
1.15615e-07
3.88932e-06
9.36446e-08
3.874e-06
8.11968e-08
3.86056e-06
7.19161e-08
3.84834e-06
6.42561e-08
3.83728e-06
5.81352e-08
3.82691e-06
5.2779e-08
3.8174e-06
4.84749e-08
3.80891e-06
4.44334e-08
3.80097e-06
3.92532e-08
3.79195e-06
3.02068e-08
1.77961e-08
3.77944e-06
4.05359e-06
-6.4151e-07
4.1146e-06
-2.71259e-07
4.20799e-06
2.06916e-08
4.26635e-06
1.63932e-07
4.2907e-06
1.82926e-07
4.29287e-06
1.52749e-07
4.28571e-06
1.22819e-07
4.27631e-06
1.02843e-07
4.26727e-06
8.96863e-08
4.25873e-06
7.98175e-08
4.25056e-06
7.19496e-08
4.24283e-06
6.56346e-08
4.23534e-06
6.02462e-08
4.22824e-06
5.5693e-08
4.22149e-06
5.13523e-08
4.21464e-06
4.63453e-08
4.20599e-06
3.91836e-08
3.06589e-08
4.19351e-06
4.50491e-06
-5.09114e-07
4.51536e-06
-2.81708e-07
4.58529e-06
-4.92342e-08
4.64665e-06
1.02566e-07
4.68258e-06
1.46992e-07
4.69688e-06
1.38473e-07
4.69946e-06
1.20237e-07
4.69723e-06
1.04926e-07
4.69331e-06
9.32551e-08
4.68868e-06
8.40573e-08
4.68366e-06
7.66418e-08
4.67851e-06
7.0608e-08
4.67321e-06
6.54944e-08
4.66783e-06
6.11058e-08
4.66227e-06
5.70051e-08
4.65606e-06
5.27033e-08
4.64786e-06
4.75909e-08
4.26048e-08
4.63612e-06
5.00014e-06
-3.94663e-07
4.98614e-06
-2.67704e-07
5.03069e-06
-9.37789e-08
5.08506e-06
4.81979e-08
5.12454e-06
1.07517e-07
5.14608e-06
1.1694e-07
5.15584e-06
1.10489e-07
5.1594e-06
1.01285e-07
5.15985e-06
9.26078e-08
5.15859e-06
8.50836e-08
5.15629e-06
7.87429e-08
5.15333e-06
7.34426e-08
5.14984e-06
6.89338e-08
5.14589e-06
6.50638e-08
5.14136e-06
6.15869e-08
5.13584e-06
5.83097e-08
5.12839e-06
5.51486e-08
5.30512e-08
5.11808e-06
5.54382e-06
-2.97475e-07
5.51664e-06
-2.40529e-07
5.54055e-06
-1.17686e-07
5.58388e-06
4.87037e-09
5.62166e-06
6.97344e-08
5.64656e-06
9.20462e-08
5.66107e-06
9.59684e-08
5.66906e-06
9.32471e-08
5.67315e-06
8.84243e-08
5.67481e-06
8.33011e-08
5.67491e-06
7.85518e-08
5.6739e-06
7.43756e-08
5.67204e-06
7.07658e-08
5.6694e-06
6.7696e-08
5.66591e-06
6.50999e-08
5.66127e-06
6.29884e-08
5.65494e-06
6.15473e-08
6.15322e-08
5.6465e-06
4.34788e-06
-2.39242e-07
4.32251e-06
-2.15162e-07
4.33078e-06
-1.25951e-07
4.35419e-06
-1.85363e-08
4.3784e-06
4.5526e-08
4.39646e-06
7.39849e-08
4.40841e-06
8.40228e-08
4.41597e-06
8.56736e-08
4.42059e-06
8.37676e-08
4.42325e-06
8.05976e-08
4.42456e-06
7.71965e-08
4.4249e-06
7.40028e-08
4.42447e-06
7.11801e-08
4.42334e-06
6.88104e-08
4.42151e-06
6.6937e-08
4.41885e-06
6.56711e-08
4.41514e-06
6.5269e-08
6.63489e-08
4.41035e-06
5.08621e-06
-1.85599e-07
5.05777e-06
-1.86718e-07
5.0584e-06
-1.26578e-07
5.07686e-06
-3.70023e-08
5.09918e-06
2.3214e-08
5.11773e-06
5.54362e-08
5.13124e-06
7.0507e-08
5.14059e-06
7.63167e-08
5.14686e-06
7.74755e-08
5.15094e-06
7.64971e-08
5.15344e-06
7.46762e-08
5.15477e-06
7.26663e-08
5.15514e-06
7.07968e-08
5.15468e-06
6.92642e-08
5.15341e-06
6.82102e-08
5.15128e-06
6.78134e-08
5.14821e-06
6.83505e-08
7.0272e-08
5.14429e-06
5.94839e-06
-1.38193e-07
5.91832e-06
-1.56649e-07
5.91161e-06
-1.19866e-07
5.924e-06
-4.93967e-08
5.94286e-06
4.35868e-09
5.96058e-06
3.77168e-08
5.97479e-06
5.62912e-08
5.98546e-06
6.56464e-08
5.9932e-06
6.97357e-08
5.99867e-06
7.10172e-08
6.00242e-06
7.09153e-08
6.00484e-06
7.02396e-08
6.00618e-06
6.94579e-08
6.00658e-06
6.88671e-08
6.0061e-06
6.86876e-08
6.00478e-06
6.91353e-08
6.00267e-06
7.04613e-08
7.2975e-08
5.99997e-06
6.95439e-06
-9.83129e-08
6.92401e-06
-1.26278e-07
6.91113e-06
-1.06984e-07
6.9168e-06
-5.50656e-08
6.93087e-06
-9.71039e-09
6.94635e-06
2.22394e-08
6.96015e-06
4.24928e-08
6.9714e-06
5.43962e-08
6.98017e-06
6.09614e-08
6.98684e-06
6.43475e-08
6.9918e-06
6.5955e-08
6.99537e-06
6.66644e-08
6.9978e-06
6.70302e-08
6.99924e-06
6.74237e-08
6.99982e-06
6.81128e-08
6.99963e-06
6.93238e-08
6.99883e-06
7.12667e-08
7.41283e-08
6.99768e-06
8.12719e-06
-6.64877e-08
8.09793e-06
-9.7021e-08
8.08056e-06
-8.96088e-08
8.07955e-06
-5.40586e-08
8.08793e-06
-1.80893e-08
8.09985e-06
1.03228e-08
8.11198e-06
3.03589e-08
8.12286e-06
4.35221e-08
8.13202e-06
5.17953e-08
8.1395e-06
5.68676e-08
8.14548e-06
5.99753e-08
8.15018e-06
6.19697e-08
8.15378e-06
6.34309e-08
8.15644e-06
6.47565e-08
8.15832e-06
6.62328e-08
8.15958e-06
6.80734e-08
8.1604e-06
7.044e-08
7.34379e-08
8.16109e-06
9.49368e-06
-4.24386e-08
9.4668e-06
-7.01427e-08
9.44683e-06
-6.96402e-08
9.43991e-06
-4.71317e-08
9.44229e-06
-2.04679e-08
9.44965e-06
2.95545e-09
9.45895e-06
2.10644e-08
9.4684e-06
3.40704e-08
9.47716e-06
4.30361e-08
9.48491e-06
4.91204e-08
9.49159e-06
5.32932e-08
9.49727e-06
5.62911e-08
9.50205e-06
5.86458e-08
9.50607e-06
6.07376e-08
9.50947e-06
6.28334e-08
9.51243e-06
6.51193e-08
9.51515e-06
6.77135e-08
7.06694e-08
9.51792e-06
1.10854e-05
-2.5159e-08
1.10618e-05
-4.65025e-08
1.1041e-05
-4.88066e-08
1.10294e-05
-3.55516e-08
1.10261e-05
-1.71697e-08
1.10284e-05
6.04876e-10
1.1034e-05
1.54746e-08
1.10411e-05
2.69706e-08
1.10487e-05
3.54915e-08
1.10561e-05
4.17154e-08
1.1063e-05
4.63128e-08
1.10695e-05
4.98423e-08
1.10754e-05
5.2734e-08
1.10808e-05
5.5302e-08
1.10859e-05
5.77667e-08
1.10908e-05
6.02717e-08
1.10956e-05
6.28975e-08
6.56675e-08
1.11006e-05
1.29396e-05
-1.31186e-08
1.29194e-05
-2.62785e-08
1.28988e-05
-2.82519e-08
1.28839e-05
-2.06876e-08
1.28758e-05
-8.99579e-09
1.28732e-05
3.14481e-09
1.28748e-05
1.39399e-08
1.28789e-05
2.27882e-08
1.28847e-05
2.97442e-08
1.28913e-05
3.51427e-08
1.28982e-05
3.93828e-08
1.29052e-05
4.28274e-08
1.29122e-05
4.57688e-08
1.29191e-05
4.84239e-08
1.29259e-05
5.09418e-08
1.29327e-05
5.34141e-08
1.29398e-05
5.58839e-08
5.83542e-08
1.29471e-05
1.50998e-05
-4.48306e-09
1.50822e-05
-8.67589e-09
1.50621e-05
-8.11345e-09
1.50448e-05
-3.45816e-09
1.50327e-05
3.10964e-09
1.50259e-05
9.93855e-09
1.50237e-05
1.61616e-08
1.5025e-05
2.14639e-08
1.50289e-05
2.58528e-08
1.50346e-05
2.94841e-08
1.50414e-05
3.25536e-08
1.5049e-05
3.52421e-08
1.50571e-05
3.76926e-08
1.50655e-05
4.00064e-08
1.50742e-05
4.22462e-08
1.50832e-05
4.44412e-08
1.50925e-05
4.65942e-08
4.86867e-08
1.51021e-05
1.76171e-05
2.89315e-09
1.75999e-05
8.52328e-09
1.75787e-05
1.30298e-08
1.7559e-05
1.62779e-08
1.75436e-05
1.84724e-08
1.75336e-05
1.99574e-08
1.75287e-05
2.10518e-08
1.75282e-05
2.1993e-08
1.75311e-05
2.29389e-08
1.75366e-05
2.39845e-08
1.7544e-05
2.51763e-08
1.75527e-05
2.65267e-08
1.75624e-05
2.80247e-08
1.75727e-05
2.96449e-08
1.75836e-05
3.13506e-08
1.7595e-05
3.3101e-08
1.76067e-05
3.485e-08
3.65531e-08
1.76188e-05
1.78181e-05
1.10003e-08
1.77994e-05
2.72127e-08
1.77768e-05
3.56242e-08
1.7756e-05
3.70585e-08
1.77402e-05
3.4326e-08
1.77302e-05
2.99461e-08
1.77257e-05
2.54995e-08
1.7726e-05
2.17774e-08
1.77298e-05
1.9074e-08
1.77364e-05
1.73991e-08
1.77449e-05
1.66314e-08
1.77549e-05
1.66023e-08
1.77658e-05
1.714e-08
1.77773e-05
1.80877e-08
1.77894e-05
1.9313e-08
1.78017e-05
2.07022e-08
1.78144e-05
2.21664e-08
2.36291e-08
1.78274e-05
1.58702e-05
2.21334e-08
1.58478e-05
4.95815e-08
1.58233e-05
6.01323e-08
1.58032e-05
5.72345e-08
1.57899e-05
4.76104e-08
1.57834e-05
3.63713e-08
1.57827e-05
2.61974e-08
1.57864e-05
1.8146e-08
1.57931e-05
1.23647e-08
1.58019e-05
8.61161e-09
1.5812e-05
6.49632e-09
1.5823e-05
5.62804e-09
1.58345e-05
5.66406e-09
1.58462e-05
6.32767e-09
1.58581e-05
7.39886e-09
1.58701e-05
8.71442e-09
1.58821e-05
1.01455e-08
1.16036e-08
1.58942e-05
1.41313e-05
3.95386e-08
1.41021e-05
7.8707e-08
1.40745e-05
8.77878e-08
1.40557e-05
7.60384e-08
1.40469e-05
5.64134e-08
1.40462e-05
3.704e-08
1.40512e-05
2.12106e-08
1.40597e-05
9.58289e-09
1.40704e-05
1.763e-09
1.4082e-05
-3.04858e-09
1.40941e-05
-5.60433e-09
1.41063e-05
-6.56013e-09
1.41184e-05
-6.41555e-09
1.41303e-05
-5.56006e-09
1.41419e-05
-4.26342e-09
1.41534e-05
-2.72417e-09
1.41646e-05
-1.07979e-09
5.72104e-10
1.41756e-05
1.25772e-05
6.73555e-08
1.25392e-05
1.1674e-07
1.25091e-05
1.17889e-07
1.24942e-05
9.0891e-08
1.24928e-05
5.78141e-08
1.25002e-05
2.96837e-08
1.25122e-05
9.13267e-09
1.25264e-05
-4.49441e-09
1.25409e-05
-1.28332e-08
1.25552e-05
-1.73454e-08
1.25689e-05
-1.92804e-08
1.25819e-05
-1.94983e-08
1.25941e-05
-1.86526e-08
1.26057e-05
-1.71583e-08
1.26167e-05
-1.5315e-08
1.26273e-05
-1.33132e-08
1.26375e-05
-1.12753e-08
-9.29318e-09
1.26473e-05
1.11862e-05
1.10916e-07
1.11384e-05
1.6457e-07
1.11088e-05
1.4752e-07
1.11022e-05
9.74848e-08
1.11117e-05
4.83135e-08
1.11289e-05
1.24031e-08
1.11486e-05
-1.04585e-08
1.11678e-05
-2.37228e-08
1.11855e-05
-3.05021e-08
1.12014e-05
-3.32841e-08
1.12157e-05
-3.35505e-08
1.12285e-05
-3.23512e-08
1.12402e-05
-3.03003e-08
1.12508e-05
-2.78606e-08
1.12608e-05
-2.52745e-08
1.12701e-05
-2.2673e-08
1.1279e-05
-2.01613e-08
-1.778e-08
1.12875e-05
9.93908e-06
1.76452e-07
9.88248e-06
2.21163e-07
9.85873e-06
1.71262e-07
9.86593e-06
9.02757e-08
9.88961e-06
2.46395e-08
9.9176e-06
-1.55537e-08
9.94392e-06
-3.6791e-08
9.96668e-06
-4.64031e-08
9.98571e-06
-4.96017e-08
1.00017e-05
-4.92785e-08
1.00152e-05
-4.71148e-08
1.00269e-05
-4.39959e-08
1.00371e-05
-4.05231e-08
1.00462e-05
-3.70144e-08
1.00546e-05
-3.36414e-08
1.00623e-05
-3.04406e-08
1.00696e-05
-2.74409e-08
-2.47048e-08
1.00765e-05
8.81963e-06
2.69916e-07
8.75785e-06
2.82944e-07
8.74788e-06
1.81226e-07
8.77481e-06
6.33231e-08
8.81458e-06
-1.51283e-08
8.85212e-06
-5.30898e-08
8.88269e-06
-6.72248e-08
8.90623e-06
-7.00189e-08
8.92427e-06
-6.7606e-08
8.93842e-06
-6.33586e-08
8.94983e-06
-5.83949e-08
8.95924e-06
-5.33306e-08
8.96721e-06
-4.84663e-08
8.97418e-06
-4.40025e-08
8.98049e-06
-3.99941e-08
8.98632e-06
-3.62921e-08
8.99174e-06
-3.29049e-08
-2.98872e-08
8.99691e-06
7.81391e-06
3.96675e-07
7.75391e-06
3.42943e-07
7.76868e-06
1.6644e-07
7.82054e-06
1.14612e-08
7.87567e-06
-7.02735e-08
7.91913e-06
-9.64894e-08
7.94967e-06
-9.78324e-08
7.97057e-06
-9.06426e-08
7.98484e-06
-8.15755e-08
7.99524e-06
-7.35382e-08
8.00315e-06
-6.60958e-08
8.00936e-06
-5.94353e-08
8.01442e-06
-5.33078e-08
8.01874e-06
-4.81907e-08
8.02269e-06
-4.38825e-08
8.02632e-06
-3.99555e-08
8.02969e-06
-3.63291e-08
-3.32002e-08
8.03296e-06
6.90424e-06
5.66768e-07
6.86137e-06
3.85805e-07
6.91717e-06
1.10634e-07
6.99674e-06
-6.81331e-08
7.06253e-06
-1.36071e-07
7.10529e-06
-1.39267e-07
7.13032e-06
-1.22546e-07
7.14448e-06
-1.04614e-07
7.15208e-06
-8.89754e-08
7.15709e-06
-7.57942e-08
7.16036e-06
-6.66435e-08
7.16269e-06
-5.96182e-08
7.16412e-06
-5.41356e-08
7.16536e-06
-4.91606e-08
7.16661e-06
-4.52166e-08
7.16779e-06
-4.16575e-08
7.16889e-06
-3.77472e-08
-3.46635e-08
7.1701e-06
6.07162e-06
7.97662e-07
6.08526e-06
3.72164e-07
6.19865e-06
-2.77353e-09
6.2999e-06
-1.69398e-07
6.36526e-06
-2.01462e-07
6.39754e-06
-1.71504e-07
6.41011e-06
-1.35219e-07
6.41343e-06
-1.06942e-07
6.41239e-06
-8.57931e-08
6.40989e-06
-7.40074e-08
6.40746e-06
-6.45096e-08
6.40486e-06
-5.76807e-08
6.40233e-06
-5.11081e-08
6.39997e-06
-4.64765e-08
6.39809e-06
-4.37501e-08
6.39676e-06
-4.01719e-08
6.39514e-06
-3.64424e-08
-3.40961e-08
6.3939e-06
5.35805e-06
1.05451e-06
5.50649e-06
2.23716e-07
5.64777e-06
-1.44085e-07
5.73564e-06
-2.57314e-07
5.77646e-06
-2.42347e-07
5.78324e-06
-1.78425e-07
5.77528e-06
-1.26643e-07
5.76328e-06
-9.40044e-08
5.74975e-06
-7.56509e-08
5.73931e-06
-6.40089e-08
5.73029e-06
-5.65004e-08
5.72239e-06
-5.00012e-08
5.71428e-06
-4.41822e-08
5.70724e-06
-3.97257e-08
5.70186e-06
-3.77857e-08
5.69671e-06
-3.54023e-08
5.6917e-06
-3.14652e-08
-2.96538e-08
5.68737e-06
5.04576e-06
1.01105e-06
5.36491e-06
-9.54497e-08
5.35251e-06
-1.31766e-07
5.33285e-06
-2.37745e-07
5.296e-06
-2.05651e-07
5.25016e-06
-1.32589e-07
5.20891e-06
-8.47328e-08
5.17485e-06
-6.08215e-08
5.14634e-06
-4.98255e-08
5.12483e-06
-4.29547e-08
5.10676e-06
-3.93127e-08
5.09059e-06
-3.55901e-08
5.07487e-06
-3.02686e-08
5.06152e-06
-2.66321e-08
5.05062e-06
-2.70199e-08
5.0397e-06
-2.44148e-08
5.02919e-06
-2.02438e-08
-2.11069e-08
5.0213e-06
5.4676e-06
5.37215e-06
5.24037e-06
5.00261e-06
4.79694e-06
4.66444e-06
4.57967e-06
4.51835e-06
4.46847e-06
4.42535e-06
4.38573e-06
4.34971e-06
4.31933e-06
4.29269e-06
4.26567e-06
4.24143e-06
4.22142e-06
4.20064e-06
2.31295e-08
-2.31314e-08
2.37203e-07
-2.1408e-07
4.89326e-07
-2.52093e-07
7.09589e-07
-2.20243e-07
8.77303e-07
-1.67694e-07
9.8843e-07
-1.11118e-07
1.04409e-06
-5.56505e-08
1.04651e-06
-2.42109e-09
1.00101e-06
4.55124e-08
9.17738e-07
8.3266e-08
8.11941e-07
1.05807e-07
7.02757e-07
1.09172e-07
6.09978e-07
9.27757e-08
5.43695e-07
6.62943e-08
4.92552e-07
5.116e-08
4.33372e-07
5.98806e-08
3.47062e-07
8.61684e-08
2.21957e-07
1.25873e-07
4.36464e-08
1.77889e-07
-2.01824e-07
2.44836e-07
-5.04363e-07
3.02281e-07
-8.45355e-07
3.40739e-07
-1.2097e-06
3.64347e-07
-1.58709e-06
3.77406e-07
-1.96869e-06
3.8164e-07
-2.34452e-06
3.75851e-07
-2.70655e-06
3.62057e-07
-3.04963e-06
3.43087e-07
-3.36992e-06
3.20305e-07
-3.66509e-06
2.95177e-07
-3.93428e-06
2.69193e-07
-4.1778e-06
2.43526e-07
-4.39669e-06
2.18885e-07
-4.59241e-06
1.95723e-07
-4.76667e-06
1.74268e-07
-4.92128e-06
1.54602e-07
-5.05796e-06
1.36685e-07
-5.17836e-06
1.20401e-07
-5.28395e-06
1.05589e-07
-5.37602e-06
9.2068e-08
-5.45568e-06
7.96566e-08
-5.52386e-06
6.81822e-08
-5.58135e-06
5.74896e-08
-5.6288e-06
4.74447e-08
-5.66673e-06
3.79386e-08
-5.69562e-06
2.88839e-08
-5.71583e-06
2.02094e-08
-5.72771e-06
1.18852e-08
-5.73175e-06
4.03928e-09
-5.72881e-06
-2.94023e-09
-5.71998e-06
-8.83865e-09
-5.70601e-06
-1.39653e-08
-5.68733e-06
-1.86816e-08
-5.66418e-06
-2.3149e-08
-5.63674e-06
-2.74456e-08
-5.60514e-06
-3.15993e-08
-5.56951e-06
-3.56251e-08
-5.52998e-06
-3.95298e-08
-5.48667e-06
-4.33143e-08
-5.43969e-06
-4.69777e-08
-5.38918e-06
-5.05173e-08
-5.33525e-06
-5.39297e-08
-5.27804e-06
-5.72115e-08
-5.21768e-06
-6.03594e-08
-5.15431e-06
-6.33709e-08
-5.08806e-06
-6.62429e-08
-5.01909e-06
-6.89719e-08
-4.94754e-06
-7.15557e-08
-4.87354e-06
-7.39926e-08
-4.79726e-06
-7.62815e-08
-4.71884e-06
-7.84214e-08
-4.63843e-06
-8.04122e-08
-4.55618e-06
-8.22541e-08
-4.47223e-06
-8.39479e-08
-4.38674e-06
-8.54945e-08
-4.29984e-06
-8.68958e-08
-4.21169e-06
-8.81536e-08
-4.12242e-06
-8.92705e-08
-4.03217e-06
-9.02494e-08
-3.94108e-06
-9.10937e-08
-3.84927e-06
-9.18088e-08
-3.75687e-06
-9.23993e-08
-3.664e-06
-9.28714e-08
-3.57077e-06
-9.32297e-08
-3.4773e-06
-9.34747e-08
-3.38369e-06
-9.36104e-08
-3.29004e-06
-9.36458e-08
-3.19644e-06
-9.36025e-08
-3.10294e-06
-9.35056e-08
-3.00958e-06
-9.33619e-08
-2.91641e-06
-9.31679e-08
-2.82346e-06
-9.295e-08
-2.73071e-06
-9.27565e-08
-2.63815e-06
-9.25622e-08
-2.54589e-06
-9.22595e-08
-2.45413e-06
-9.17611e-08
-2.36315e-06
-9.09838e-08
-2.27321e-06
-8.99382e-08
-2.18442e-06
-8.87853e-08
-2.0968e-06
-8.76305e-08
-2.01032e-06
-8.64745e-08
-1.92502e-06
-8.53011e-08
-1.84092e-06
-8.41031e-08
-1.75804e-06
-8.28796e-08
-1.67641e-06
-8.16331e-08
-1.59604e-06
-8.03673e-08
-1.51696e-06
-7.90861e-08
-1.43917e-06
-7.77922e-08
-1.36269e-06
-7.64834e-08
-1.28755e-06
-7.51391e-08
-1.21378e-06
-7.37712e-08
-1.14137e-06
-7.24077e-08
-1.07033e-06
-7.10434e-08
-1.00065e-06
-6.96795e-08
-9.32333e-07
-6.83171e-08
-8.65377e-07
-6.69576e-08
-7.99774e-07
-6.56034e-08
-7.35518e-07
-6.4257e-08
-6.72598e-07
-6.29205e-08
-6.11006e-07
-6.15932e-08
-5.5073e-07
-6.02757e-08
-4.9176e-07
-5.8971e-08
-4.34075e-07
-5.76849e-08
-3.77652e-07
-5.64232e-08
-3.22471e-07
-5.51817e-08
-2.68514e-07
-5.39569e-08
-2.15761e-07
-5.27528e-08
-1.64193e-07
-5.15687e-08
-1.138e-07
-5.03926e-08
-6.45749e-08
-4.92245e-08
-1.66401e-08
-4.79342e-08
3.01368e-08
-4.67761e-08
7.60628e-08
-4.59251e-08
1.21031e-07
-4.49676e-08
1.6494e-07
-4.39074e-08
2.07784e-07
-4.28434e-08
2.49582e-07
-4.17967e-08
2.90363e-07
-4.07798e-08
3.3016e-07
-3.97948e-08
3.69001e-07
-3.88403e-08
4.06917e-07
-3.79143e-08
4.43934e-07
-3.70155e-08
4.80078e-07
-3.61428e-08
5.15374e-07
-3.52954e-08
5.49848e-07
-3.44728e-08
5.83525e-07
-3.36748e-08
6.16427e-07
-3.29011e-08
6.4858e-07
-3.21514e-08
6.80007e-07
-3.14258e-08
7.10733e-07
-3.07242e-08
7.40781e-07
-3.00466e-08
7.70176e-07
-2.93931e-08
7.98942e-07
-2.87635e-08
8.27102e-07
-2.81581e-08
8.54681e-07
-2.75767e-08
8.81703e-07
-2.70194e-08
9.08191e-07
-2.64859e-08
9.34169e-07
-2.5976e-08
9.5966e-07
-2.54893e-08
9.84687e-07
-2.50249e-08
1.00927e-06
-2.45815e-08
1.03343e-06
-2.41573e-08
1.05718e-06
-2.37494e-08
1.08054e-06
-2.33538e-08
1.1035e-06
-2.29648e-08
1.12608e-06
-2.25743e-08
1.14825e-06
-2.21708e-08
1.16999e-06
-2.17386e-08
1.19125e-06
-2.12557e-08
1.21195e-06
-2.06908e-08
1.23195e-06
-1.99999e-08
1.25107e-06
-1.9119e-08
1.26902e-06
-1.79507e-08
1.28537e-06
-1.6351e-08
1.29942e-06
-1.40444e-08
1.31004e-06
-1.06206e-08
1.31461e-06
-4.55605e-09
1.30776e-06
6.85922e-09
1.27822e-06
2.95387e-08
7.23303e-08
1.20589e-06
2.54183e-07
-2.77337e-07
4.9008e-07
-4.49975e-07
6.39663e-07
-4.01672e-07
7.24294e-07
-3.04872e-07
7.63807e-07
-2.07199e-07
7.69753e-07
-1.17068e-07
7.48821e-07
-3.47129e-08
7.06639e-07
3.97532e-08
6.4628e-07
1.05877e-07
5.67653e-07
1.61884e-07
4.7004e-07
2.03427e-07
3.51772e-07
2.27429e-07
2.0681e-07
2.37744e-07
2.3612e-08
2.49508e-07
-2.08606e-07
2.83385e-07
-4.9425e-07
3.45617e-07
-8.32213e-07
4.24219e-07
-1.21207e-06
5.05747e-07
-1.61589e-06
5.81665e-07
-2.01733e-06
6.46222e-07
-2.40736e-06
6.92254e-07
-2.78283e-06
7.16202e-07
-3.13778e-06
7.1929e-07
-3.4652e-06
7.04834e-07
-3.75996e-06
6.76407e-07
-4.0211e-06
6.37e-07
-4.24904e-06
5.90001e-07
-4.44506e-06
5.39105e-07
-4.61205e-06
4.87302e-07
-4.75353e-06
4.36663e-07
-4.87288e-06
3.88539e-07
-4.97325e-06
3.43903e-07
-5.05754e-06
3.03169e-07
-5.12824e-06
2.66425e-07
-5.18748e-06
2.33506e-07
-5.23699e-06
2.04112e-07
-5.27817e-06
1.77872e-07
-5.31217e-06
1.54395e-07
-5.33988e-06
1.33298e-07
-5.36204e-06
1.14231e-07
-5.37926e-06
9.68819e-08
-5.39207e-06
8.09854e-08
-5.4009e-06
6.63192e-08
-5.40616e-06
5.27019e-08
-5.4082e-06
3.99864e-08
-5.40738e-06
2.80579e-08
-5.40401e-06
1.68386e-08
-5.39842e-06
6.29366e-09
-5.39076e-06
-3.62092e-09
-5.3806e-06
-1.30949e-08
-5.36707e-06
-2.23683e-08
-5.34957e-06
-3.14705e-08
-5.32792e-06
-4.03356e-08
-5.30211e-06
-4.896e-08
-5.2722e-06
-5.73507e-08
-5.23829e-06
-6.55136e-08
-5.20046e-06
-7.34518e-08
-5.15883e-06
-8.11647e-08
-5.11349e-06
-8.86489e-08
-5.06457e-06
-9.58989e-08
-5.01218e-06
-1.02908e-07
-4.95644e-06
-1.09668e-07
-4.89748e-06
-1.16172e-07
-4.83543e-06
-1.22412e-07
-4.77042e-06
-1.28384e-07
-4.70258e-06
-1.34082e-07
-4.63205e-06
-1.39497e-07
-4.55898e-06
-1.44625e-07
-4.48351e-06
-1.49464e-07
-4.40579e-06
-1.5401e-07
-4.32595e-06
-1.58262e-07
-4.24414e-06
-1.6222e-07
-4.16051e-06
-1.65884e-07
-4.0752e-06
-1.69254e-07
-3.98836e-06
-1.72335e-07
-3.90013e-06
-1.75128e-07
-3.81065e-06
-1.77638e-07
-3.72005e-06
-1.7987e-07
-3.62847e-06
-1.8183e-07
-3.53604e-06
-1.83526e-07
-3.44288e-06
-1.84964e-07
-3.34913e-06
-1.86154e-07
-3.2549e-06
-1.87105e-07
-3.1603e-06
-1.87825e-07
-3.06545e-06
-1.88324e-07
-2.97045e-06
-1.88612e-07
-2.8754e-06
-1.88703e-07
-2.78039e-06
-1.88616e-07
-2.68553e-06
-1.88363e-07
-2.59094e-06
-1.87953e-07
-2.49671e-06
-1.87392e-07
-2.40297e-06
-1.86691e-07
-2.30988e-06
-1.85851e-07
-2.2176e-06
-1.84841e-07
-2.12625e-06
-1.83612e-07
-2.03587e-06
-1.82141e-07
-1.94644e-06
-1.80421e-07
-1.85788e-06
-1.78493e-07
-1.77023e-06
-1.76435e-07
-1.68357e-06
-1.743e-07
-1.59794e-06
-1.72101e-07
-1.5134e-06
-1.6984e-07
-1.42999e-06
-1.67519e-07
-1.34773e-06
-1.6514e-07
-1.26665e-06
-1.62709e-07
-1.18679e-06
-1.60233e-07
-1.10816e-06
-1.57715e-07
-1.03079e-06
-1.5516e-07
-9.5471e-07
-1.52569e-07
-8.79906e-07
-1.49943e-07
-8.06383e-07
-1.47296e-07
-7.34152e-07
-1.44639e-07
-6.63218e-07
-1.41978e-07
-5.93582e-07
-1.39316e-07
-5.25245e-07
-1.36655e-07
-4.58204e-07
-1.33999e-07
-3.92456e-07
-1.31352e-07
-3.27996e-07
-1.28718e-07
-2.64814e-07
-1.26104e-07
-2.02898e-07
-1.2351e-07
-1.4224e-07
-1.20934e-07
-8.28298e-08
-1.18382e-07
-2.46594e-08
-1.15856e-07
3.22846e-08
-1.13368e-07
8.80304e-08
-1.10928e-07
1.42595e-07
-1.08522e-07
1.95989e-07
-1.06147e-07
2.48228e-07
-1.03808e-07
2.99339e-07
-1.01503e-07
3.4935e-07
-9.92359e-08
3.98421e-07
-9.70048e-08
4.46525e-07
-9.48796e-08
4.93445e-07
-9.28447e-08
5.39249e-07
-9.07713e-08
5.84014e-07
-8.86727e-08
6.27773e-07
-8.66019e-08
6.70555e-07
-8.45779e-08
7.12383e-07
-8.26076e-08
7.53281e-07
-8.06924e-08
7.93273e-07
-7.8831e-08
8.32381e-07
-7.70217e-08
8.70629e-07
-7.5263e-08
9.0804e-07
-7.35537e-08
9.44638e-07
-7.18928e-08
9.80446e-07
-7.02799e-08
1.01549e-06
-6.87143e-08
1.04978e-06
-6.71959e-08
1.08336e-06
-6.57243e-08
1.11623e-06
-6.42997e-08
1.14843e-06
-6.29218e-08
1.17997e-06
-6.15908e-08
1.21089e-06
-6.03065e-08
1.2412e-06
-5.90691e-08
1.27092e-06
-5.78785e-08
1.30008e-06
-5.67346e-08
1.3287e-06
-5.56373e-08
1.3568e-06
-5.45861e-08
1.3844e-06
-5.35803e-08
1.41154e-06
-5.26188e-08
1.43821e-06
-5.16998e-08
1.46445e-06
-5.08207e-08
1.49027e-06
-4.99775e-08
1.51569e-06
-4.91648e-08
1.54071e-06
-4.83745e-08
1.56535e-06
-4.75956e-08
1.58959e-06
-4.68129e-08
1.61342e-06
-4.60049e-08
1.63683e-06
-4.51422e-08
1.65976e-06
-4.41838e-08
1.68214e-06
-4.30719e-08
1.70387e-06
-4.17251e-08
1.72477e-06
-4.00252e-08
1.74462e-06
-3.77957e-08
1.76304e-06
-3.47669e-08
1.77947e-06
-3.04782e-08
1.79303e-06
-2.41772e-08
1.80275e-06
-1.42702e-08
1.80762e-06
2.00061e-09
1.80573e-06
3.14264e-08
8.80332e-08
1.79002e-06
2.46006e-07
-5.23364e-07
3.42318e-07
-5.46291e-07
3.58604e-07
-4.17957e-07
3.4756e-07
-2.93819e-07
3.19858e-07
-1.79492e-07
2.75775e-07
-7.29843e-08
2.14599e-07
2.64655e-08
1.35279e-07
1.19068e-07
3.67546e-08
2.04403e-07
-8.3138e-08
2.81773e-07
-2.30104e-07
3.50394e-07
-4.14664e-07
4.11989e-07
-6.50229e-07
4.73306e-07
-9.43717e-07
5.43e-07
-1.28497e-06
6.24633e-07
-1.65207e-06
7.12716e-07
-2.02417e-06
7.96322e-07
-2.38443e-06
8.6599e-07
-2.71894e-06
9.1616e-07
-3.01716e-06
9.44432e-07
-3.27523e-06
9.5032e-07
-3.49412e-06
9.35102e-07
-3.67683e-06
9.02001e-07
-3.82739e-06
8.55399e-07
-3.95053e-06
7.99549e-07
-4.05166e-06
7.38133e-07
-4.13611e-06
6.74455e-07
-4.20828e-06
6.11272e-07
-4.27159e-06
5.50617e-07
-4.32867e-06
4.93742e-07
-4.38139e-06
4.41256e-07
-4.43088e-06
3.93392e-07
-4.47777e-06
3.50066e-07
-4.52235e-06
3.10998e-07
-4.56464e-06
2.75796e-07
-4.60455e-06
2.44022e-07
-4.64191e-06
2.15234e-07
-4.67653e-06
1.89018e-07
-4.70823e-06
1.64997e-07
-4.73684e-06
1.42839e-07
-4.76222e-06
1.22263e-07
-4.78426e-06
1.0303e-07
-4.80289e-06
8.49428e-08
-4.81802e-06
6.78356e-08
-4.82961e-06
5.15689e-08
-4.83757e-06
3.60234e-08
-4.84183e-06
2.10974e-08
-4.84223e-06
6.69699e-09
-4.83857e-06
-7.2845e-09
-4.8307e-06
-2.09614e-08
-4.81868e-06
-3.43933e-08
-4.80258e-06
-4.75678e-08
-4.78246e-06
-6.04626e-08
-4.75835e-06
-7.30695e-08
-4.73032e-06
-8.53818e-08
-4.69844e-06
-9.73938e-08
-4.66279e-06
-1.09099e-07
-4.62347e-06
-1.20488e-07
-4.58057e-06
-1.31551e-07
-4.53419e-06
-1.42276e-07
-4.48445e-06
-1.52652e-07
-4.43145e-06
-1.62665e-07
-4.37532e-06
-1.72302e-07
-4.31618e-06
-1.81552e-07
-4.25416e-06
-1.90407e-07
-4.18938e-06
-1.98857e-07
-4.12199e-06
-2.06891e-07
-4.05211e-06
-2.14502e-07
-3.97989e-06
-2.21685e-07
-3.90547e-06
-2.28436e-07
-3.82898e-06
-2.34752e-07
-3.75057e-06
-2.40632e-07
-3.67038e-06
-2.46076e-07
-3.58854e-06
-2.51086e-07
-3.50521e-06
-2.55665e-07
-3.42052e-06
-2.59819e-07
-3.33461e-06
-2.63552e-07
-3.24761e-06
-2.66873e-07
-3.15965e-06
-2.69789e-07
-3.07087e-06
-2.7231e-07
-2.98138e-06
-2.74447e-07
-2.89132e-06
-2.76212e-07
-2.80081e-06
-2.77617e-07
-2.70996e-06
-2.78675e-07
-2.61889e-06
-2.79399e-07
-2.5277e-06
-2.79804e-07
-2.4365e-06
-2.79906e-07
-2.34539e-06
-2.79721e-07
-2.25449e-06
-2.79264e-07
-2.1639e-06
-2.78546e-07
-2.07372e-06
-2.77575e-07
-1.98405e-06
-2.76362e-07
-1.89499e-06
-2.74906e-07
-1.80664e-06
-2.73193e-07
-1.71905e-06
-2.71206e-07
-1.63224e-06
-2.68946e-07
-1.54624e-06
-2.66426e-07
-1.46105e-06
-2.63684e-07
-1.37672e-06
-2.60765e-07
-1.29331e-06
-2.57704e-07
-1.2109e-06
-2.54522e-07
-1.12951e-06
-2.51229e-07
-1.04919e-06
-2.47837e-07
-9.69976e-07
-2.44354e-07
-8.91896e-07
-2.4079e-07
-8.14975e-07
-2.37154e-07
-7.39238e-07
-2.33453e-07
-6.64702e-07
-2.29696e-07
-5.91382e-07
-2.25889e-07
-5.19285e-07
-2.22041e-07
-4.48418e-07
-2.18163e-07
-3.78792e-07
-2.14266e-07
-3.10412e-07
-2.10358e-07
-2.43282e-07
-2.06447e-07
-1.77399e-07
-2.02538e-07
-1.12764e-07
-1.98635e-07
-4.93723e-08
-1.94745e-07
1.27829e-08
-1.90874e-07
7.37055e-08
-1.87027e-07
1.33404e-07
-1.83208e-07
1.9189e-07
-1.79421e-07
2.49177e-07
-1.7567e-07
3.05281e-07
-1.7196e-07
3.60213e-07
-1.68299e-07
4.13978e-07
-1.64693e-07
4.66594e-07
-1.61138e-07
5.18079e-07
-1.57633e-07
5.68453e-07
-1.54182e-07
6.17739e-07
-1.50789e-07
6.65965e-07
-1.47462e-07
7.13174e-07
-1.44214e-07
7.59349e-07
-1.41055e-07
8.04457e-07
-1.37952e-07
8.48545e-07
-1.34859e-07
8.91659e-07
-1.31786e-07
9.3382e-07
-1.28763e-07
9.75048e-07
-1.25806e-07
1.01536e-06
-1.22921e-07
1.05478e-06
-1.2011e-07
1.09332e-06
-1.17374e-07
1.13101e-06
-1.14711e-07
1.16787e-06
-1.12121e-07
1.20392e-06
-1.09602e-07
1.23918e-06
-1.07153e-07
1.27368e-06
-1.04774e-07
1.30743e-06
-1.02465e-07
1.34046e-06
-1.00225e-07
1.37279e-06
-9.80542e-08
1.40444e-06
-9.5952e-08
1.43544e-06
-9.39187e-08
1.4658e-06
-9.19542e-08
1.49555e-06
-9.00585e-08
1.52472e-06
-8.82317e-08
1.55331e-06
-8.64738e-08
1.58136e-06
-8.47845e-08
1.60889e-06
-8.31635e-08
1.63592e-06
-8.16103e-08
1.66246e-06
-8.01236e-08
1.68854e-06
-7.87019e-08
1.71419e-06
-7.73426e-08
1.73941e-06
-7.60416e-08
1.76423e-06
-7.47935e-08
1.78865e-06
-7.35902e-08
1.8127e-06
-7.24206e-08
1.83637e-06
-7.1269e-08
1.85968e-06
-7.01138e-08
1.8826e-06
-6.8925e-08
1.90512e-06
-6.76613e-08
1.9272e-06
-6.62655e-08
1.94879e-06
-6.46573e-08
1.96979e-06
-6.27236e-08
1.99006e-06
-6.03017e-08
2.00942e-06
-5.71509e-08
2.02756e-06
-5.29078e-08
2.04407e-06
-4.69819e-08
2.05832e-06
-3.84334e-08
2.06956e-06
-2.55027e-08
2.0769e-06
-5.34591e-09
2.0808e-06
2.7525e-08
8.54944e-08
2.08335e-06
9.37314e-08
-6.17107e-07
6.23863e-08
-5.1496e-07
1.39024e-08
-3.69466e-07
-4.31891e-08
-2.36721e-07
-1.12686e-07
-1.09989e-07
-1.98058e-07
1.23912e-08
-3.02289e-07
1.30697e-07
-4.27794e-07
2.44573e-07
-5.7715e-07
3.53758e-07
-7.53741e-07
4.58364e-07
-9.62324e-07
5.58975e-07
-1.20722e-06
6.56882e-07
-1.48721e-06
7.53291e-07
-1.79149e-06
8.47284e-07
-2.10138e-06
9.34512e-07
-2.39723e-06
1.00856e-06
-2.66457e-06
1.06365e-06
-2.89512e-06
1.09653e-06
-3.08562e-06
1.10665e-06
-3.23688e-06
1.09569e-06
-3.35326e-06
1.0667e-06
-3.4413e-06
1.02315e-06
-3.50811e-06
9.68822e-07
-3.56023e-06
9.07519e-07
-3.60313e-06
8.42451e-07
-3.64124e-06
7.7625e-07
-3.67782e-06
7.11029e-07
-3.71488e-06
6.48338e-07
-3.75344e-06
5.89178e-07
-3.79377e-06
5.3407e-07
-3.83569e-06
4.83169e-07
-3.87869e-06
4.36394e-07
-3.92213e-06
3.93514e-07
-3.96534e-06
3.54207e-07
-4.00766e-06
3.18112e-07
-4.04849e-06
2.84857e-07
-4.08735e-06
2.54086e-07
-4.1238e-06
2.25468e-07
-4.1575e-06
1.98702e-07
-4.18819e-06
1.73525e-07
-4.21563e-06
1.49707e-07
-4.23965e-06
1.27051e-07
-4.2601e-06
1.05392e-07
-4.27685e-06
8.45877e-08
-4.28981e-06
6.45188e-08
-4.29887e-06
4.50836e-08
-4.30396e-06
2.61958e-08
-4.30505e-06
7.77869e-09
-4.30209e-06
-1.02415e-08
-4.29513e-06
-2.79258e-08
-4.28422e-06
-4.53023e-08
-4.26942e-06
-6.23678e-08
-4.25077e-06
-7.91096e-08
-4.22833e-06
-9.5515e-08
-4.20214e-06
-1.1157e-07
-4.17227e-06
-1.27262e-07
-4.13879e-06
-1.42573e-07
-4.10179e-06
-1.57488e-07
-4.06136e-06
-1.71989e-07
-4.01758e-06
-1.86057e-07
-3.97055e-06
-1.99675e-07
-3.92039e-06
-2.12825e-07
-3.86721e-06
-2.25485e-07
-3.81112e-06
-2.37641e-07
-3.75225e-06
-2.49281e-07
-3.69071e-06
-2.60392e-07
-3.62665e-06
-2.70959e-07
-3.56018e-06
-2.80973e-07
-3.49143e-06
-2.90426e-07
-3.42056e-06
-2.99312e-07
-3.34768e-06
-3.07627e-07
-3.27294e-06
-3.1537e-07
-3.19648e-06
-3.22541e-07
-3.11842e-06
-3.29142e-07
-3.03891e-06
-3.35176e-07
-2.95808e-06
-3.4065e-07
-2.87607e-06
-3.4557e-07
-2.79299e-06
-3.49947e-07
-2.70899e-06
-3.53791e-07
-2.62419e-06
-3.57113e-07
-2.53871e-06
-3.59928e-07
-2.45267e-06
-3.6225e-07
-2.36619e-06
-3.64094e-07
-2.27939e-06
-3.65477e-07
-2.19237e-06
-3.66415e-07
-2.10525e-06
-3.66928e-07
-2.01812e-06
-3.67032e-07
-1.9311e-06
-3.66747e-07
-1.84427e-06
-3.66089e-07
-1.75775e-06
-3.65072e-07
-1.67161e-06
-3.63712e-07
-1.58596e-06
-3.62019e-07
-1.50086e-06
-3.60001e-07
-1.41639e-06
-3.57659e-07
-1.33261e-06
-3.54995e-07
-1.24954e-06
-3.52018e-07
-1.16721e-06
-3.48749e-07
-1.08568e-06
-3.45219e-07
-1.00498e-06
-3.41463e-07
-9.25174e-07
-3.37512e-07
-8.46307e-07
-3.33389e-07
-7.68425e-07
-3.29112e-07
-6.91565e-07
-3.24697e-07
-6.15762e-07
-3.20158e-07
-5.41044e-07
-3.15509e-07
-4.67435e-07
-3.10762e-07
-3.94959e-07
-3.0593e-07
-3.23634e-07
-3.01022e-07
-2.53472e-07
-2.96052e-07
-1.84483e-07
-2.9103e-07
-1.16678e-07
-2.85969e-07
-5.00648e-08
-2.8088e-07
1.53518e-08
-2.75775e-07