/*--------------------------------*- C++ -*----------------------------------*\
| =========                 |                                                 |
| \\      /  F ield         | OpenFOAM: The Open Source CFD Toolbox           |
|  \\    /   O peration     | Version:  v2012                                 |
|   \\  /    A nd           | Website:  www.openfoam.com                      |
|    \\/     M anipulation  |                                                 |
\*---------------------------------------------------------------------------*/
FoamFile
{
    version     2.0;
    format      ascii;
    class       volVectorField;
    location    "4200";
    object      U;
}
// * * * * * * * * * * * * * * * * * * * * * * * * * * * * * * * * * * * * * //

dimensions      [0 1 -1 0 0 0 0];


internalField   nonuniform List<vector> 
12225
(
(9.2745 -4.73371 0)
(13.1094 -1.71343 0)
(12.4776 -0.395208 0)
(11.2768 -0.0422189 0)
(10.6311 0.0141929 0)
(10.2977 -0.000764652 0)
(10.0738 -0.00390416 0)
(9.90472 -0.0202844 0)
(9.76604 -0.0504098 0)
(9.64448 -0.047565 0)
(9.53091 -0.0363778 0)
(9.42438 -0.0323751 0)
(9.32651 -0.0304379 0)
(9.23722 -0.0235997 0)
(9.156 -0.00822667 0)
(9.09023 0.00274737 0)
(9.02985 0.0102206 0)
(9.0534 0.0214233 0)
(10.2592 0.0928024 0)
(10.7814 0.199338 0)
(10.9593 0.24565 0)
(10.7468 0.229136 0)
(10.5874 0.172971 0)
(10.4521 0.115302 0)
(10.329 0.0819296 0)
(10.2315 0.0693245 0)
(10.1584 0.0652032 0)
(10.0981 0.058538 0)
(10.0454 0.0524221 0)
(9.99829 0.0500468 0)
(9.9554 0.0495183 0)
(9.91579 0.0482867 0)
(9.87822 0.0443169 0)
(9.84359 0.0387361 0)
(9.80756 0.0217461 0)
(9.77576 -0.00133518 0)
(9.87768 -0.24504 0)
(9.74284 0.00579075 0)
(10.1971 0.125738 0)
(10.3244 0.179357 0)
(10.3563 0.161543 0)
(10.3308 0.119985 0)
(10.2777 0.0911818 0)
(10.2263 0.0753379 0)
(10.183 0.0657982 0)
(10.1458 0.0604676 0)
(10.1137 0.0571536 0)
(10.0848 0.0544058 0)
(10.0579 0.0516812 0)
(10.0325 0.0486556 0)
(10.0087 0.0450307 0)
(9.98678 0.0400315 0)
(9.96323 0.0289335 0)
(9.93581 0.0101109 0)
(9.83416 -0.443933 0)
(9.57654 -0.163148 0)
(9.91602 0.0336626 0)
(10.0932 0.134214 0)
(10.1892 0.145462 0)
(10.2166 0.120724 0)
(10.2052 0.0985138 0)
(10.1835 0.0839232 0)
(10.161 0.0740694 0)
(10.1394 0.0682758 0)
(10.1196 0.0645313 0)
(10.1012 0.0615249 0)
(10.0837 0.0588584 0)
(10.0669 0.0564125 0)
(10.0505 0.0536717 0)
(10.0344 0.0494903 0)
(10.0157 0.0411513 0)
(9.99144 0.0293978 0)
(9.87825 -0.387477 0)
(9.61653 -0.196151 0)
(9.81622 -0.0186796 0)
(9.96134 0.091601 0)
(10.0698 0.122183 0)
(10.1218 0.113646 0)
(10.1356 0.0996319 0)
(10.134 0.0883589 0)
(10.1264 0.0798875 0)
(10.1163 0.0742378 0)
(10.1055 0.0703847 0)
(10.0946 0.0675106 0)
(10.0836 0.0651777 0)
(10.0724 0.0631142 0)
(10.0609 0.0607949 0)
(10.0484 0.0575262 0)
(10.033 0.0521637 0)
(10.0121 0.0460529 0)
(9.91439 -0.288041 0)
(9.68303 -0.18518 0)
(9.78716 -0.0532177 0)
(9.88916 0.050986 0)
(9.98794 0.0936667 0)
(10.0476 0.0992271 0)
(10.0753 0.0940634 0)
(10.0867 0.087419 0)
(10.0896 0.0814277 0)
(10.088 0.076939 0)
(10.0841 0.0737198 0)
(10.0788 0.0713573 0)
(10.0726 0.0695228 0)
(10.0656 0.0679773 0)
(10.0575 0.0663809 0)
(10.0479 0.0644493 0)
(10.0354 0.0619834 0)
(10.0183 0.0603216 0)
(9.93763 -0.214042 0)
(9.74855 -0.167539 0)
(9.79243 -0.0752239 0)
(9.85608 0.0162102 0)
(9.93594 0.0644137 0)
(9.99283 0.0806142 0)
(10.0262 0.0836361 0)
(10.045 0.0821259 0)
(10.0549 0.0793255 0)
(10.0594 0.0767197 0)
(10.0605 0.0746765 0)
(10.0596 0.0731731 0)
(10.057 0.0720916 0)
(10.0532 0.0713314 0)
(10.0479 0.0707668 0)
(10.0408 0.0704093 0)
(10.0312 0.0705156 0)
(10.0182 0.0722747 0)
(9.95263 -0.167336 0)
(9.79947 -0.149684 0)
(9.81178 -0.0846561 0)
(9.84959 -0.00623281 0)
(9.91142 0.0419028 0)
(9.9611 0.0638702 0)
(9.9944 0.0725148 0)
(10.0157 0.0751357 0)
(10.029 0.0752265 0)
(10.0368 0.0745374 0)
(10.041 0.0737804 0)
(10.0428 0.0732253 0)
(10.0427 0.0729584 0)
(10.041 0.0730238 0)
(10.0377 0.0734564 0)
(10.0327 0.0744287 0)
(10.0255 0.0763482 0)
(10.0158 0.0801878 0)
(9.96406 -0.132092 0)
(9.84003 -0.131995 0)
(9.83337 -0.0877042 0)
(9.85306 -0.0213541 0)
(9.89928 0.0243892 0)
(9.94105 0.0494882 0)
(9.97214 0.062085 0)
(9.99396 0.0679459 0)
(10.0087 0.0704428 0)
(10.0185 0.0714767 0)
(10.0246 0.0719826 0)
(10.0283 0.0724145 0)
(10.0299 0.0730012 0)
(10.0298 0.0738965 0)
(10.0282 0.0752528 0)
(10.0249 0.077338 0)
(10.0198 0.0806112 0)
(10.0128 0.0858671 0)
(9.97418 -0.100208 0)
(9.87757 -0.112396 0)
(9.85857 -0.0853809 0)
(9.86388 -0.0323552 0)
(9.89488 0.00890024 0)
(9.92745 0.0351916 0)
(9.95445 0.0506632 0)
(9.97512 0.0593695 0)
(9.99024 0.0642232 0)
(10.001 0.0670774 0)
(10.0085 0.0689849 0)
(10.0136 0.0705426 0)
(10.0167 0.0721046 0)
(10.0181 0.073931 0)
(10.0181 0.0762632 0)
(10.0165 0.0794218 0)
(10.0136 0.083851 0)
(10.0094 0.0901611 0)
(9.98253 -0.0727123 0)
(9.91035 -0.0922036 0)
(9.88507 -0.0782608 0)
(9.88002 -0.0386336 0)
(9.89747 -0.00340931 0)
(9.92045 0.0221225 0)
(9.94201 0.0391105 0)
(9.96006 0.0499485 0)
(9.97433 0.0568541 0)
(9.98525 0.0614483 0)
(9.99345 0.0647833 0)
(9.99947 0.0675296 0)
(10.0037 0.0701362 0)
(10.0065 0.0729367 0)
(10.0079 0.0762342 0)
(10.0081 0.0803581 0)
(10.0073 0.085693 0)
(10.0057 0.0926686 0)
(9.98894 -0.0502604 0)
(9.93733 -0.0723857 0)
(9.91073 -0.0674663 0)
(9.89917 -0.0400122 0)
(9.90567 -0.0116914 0)
(9.91957 0.0113937 0)
(9.935 0.0284425 0)
(9.94939 0.040444 0)
(9.96175 0.0488322 0)
(9.97193 0.0548696 0)
(9.98013 0.0594927 0)
(9.98663 0.0633722 0)
(9.99167 0.0669896 0)
(9.99547 0.0707201 0)
(9.99821 0.0748828 0)
(10.0001 0.0797879 0)
(10.0012 0.0857345 0)
(10.002 0.0930139 0)
(9.99348 -0.0329129 0)
(9.9582 -0.0538192 0)
(9.93368 -0.0543036 0)
(9.91899 -0.0368201 0)
(9.91756 -0.0155012 0)
(9.92368 0.00392737 0)
(9.93304 0.0196785 0)
(9.94322 0.0317385 0)
(9.95294 0.0408256 0)
(9.96166 0.047789 0)
(9.96925 0.0533704 0)
(9.97572 0.0581604 0)
(9.98119 0.062618 0)
(9.98578 0.0671093 0)
(9.98963 0.071937 0)
(9.9929 0.0773603 0)
(9.99578 0.083611 0)
(9.99856 0.0908477 0)
(9.99643 -0.0202074 0)
(9.97327 -0.0372189 0)
(9.95261 -0.0400676 0)
(9.93731 -0.0298468 0)
(9.9309 -0.0148762 0)
(9.93104 0.000293078 0)
(9.93506 0.013673 0)
(9.94107 0.0247057 0)
(9.94784 0.0335816 0)
(9.95466 0.0407706 0)
(9.96118 0.0467856 0)
(9.96724 0.0520833 0)
(9.9728 0.0570516 0)
(9.97788 0.0619999 0)
(9.98256 0.0671861 0)
(9.98697 0.0728102 0)
(9.99123 0.0790282 0)
(9.99557 0.0859302 0)
(9.99816 -0.0112929 0)
(9.9833 -0.0229402 0)
(9.96682 -0.0257859 0)
(9.95243 -0.0201145 0)
(9.94344 -0.0102966 0)
(9.93953 0.000599209 0)
(9.93941 0.0109282 0)
(9.94184 0.0200106 0)
(9.94583 0.0277555 0)
(9.95069 0.0343633 0)
(9.95596 0.0401347 0)
(9.96138 0.0453815 0)
(9.96678 0.0503787 0)
(9.97211 0.0553618 0)
(9.97736 0.0605117 0)
(9.98259 0.0659705 0)
(9.98789 0.0718236 0)
(9.99335 0.0781179 0)
(9.99906 -0.00508612 0)
(9.98922 -0.010791 0)
(9.97612 -0.01194 0)
(9.96309 -0.00852061 0)
(9.9531 -0.0024891 0)
(9.94686 0.00450361 0)
(9.94399 0.0114583 0)
(9.94384 0.0178925 0)
(9.94569 0.0236785 0)
(9.94895 0.0288847 0)
(9.95315 0.033667 0)
(9.95796 0.0382025 0)
(9.96316 0.0426562 0)
(9.96861 0.0471664 0)
(9.97426 0.0518377 0)
(9.98007 0.0567416 0)
(9.98607 0.0619138 0)
(9.9923 0.0673567 0)
(9.99942 -0.000372387 0)
(9.99181 0.000140271 0)
(9.98042 0.00180827 0)
(9.96821 0.00455725 0)
(9.9579 0.00786695 0)
(9.95061 0.011331 0)
(9.94642 0.0147232 0)
(9.94497 0.017971 0)
(9.94575 0.0210868 0)
(9.94822 0.0241411 0)
(9.95194 0.0272118 0)
(9.95656 0.0303797 0)
(9.9618 0.0337051 0)
(9.96748 0.0372353 0)
(9.9735 0.0409928 0)
(9.97979 0.0449854 0)
(9.98631 0.0491976 0)
(9.99305 0.0536006 0)
(9.99935 0.00408008 0)
(9.9911 0.011158 0)
(9.97897 0.0161082 0)
(9.96616 0.0186997 0)
(9.95552 0.0195637 0)
(9.94818 0.019482 0)
(9.94419 0.0190786 0)
(9.9431 0.0187605 0)
(9.94435 0.0187711 0)
(9.94738 0.0192239 0)
(9.95169 0.0201629 0)
(9.95692 0.021581 0)
(9.96279 0.0234508 0)
(9.96909 0.0257265 0)
(9.97571 0.0283597 0)
(9.98255 0.031292 0)
(9.98956 0.0344694 0)
(9.99672 0.0378265 0)
(9.99882 0.0097256 0)
(9.98675 0.0240306 0)
(9.97123 0.0318204 0)
(9.95642 0.0332576 0)
(9.94559 0.0306592 0)
(9.93942 0.0262946 0)
(9.93734 0.0216821 0)
(9.93843 0.017659 0)
(9.94184 0.014599 0)
(9.94682 0.0125929 0)
(9.95286 0.0115882 0)
(9.95955 0.0114629 0)
(9.96664 0.0120833 0)
(9.97396 0.0133124 0)
(9.98141 0.0150298 0)
(9.98893 0.0171239 0)
(9.99647 0.0195009 0)
(10.004 0.0220743 0)
(9.99757 0.0182065 0)
(9.97774 0.0404367 0)
(9.95665 0.0495506 0)
(9.93945 0.0474442 0)
(9.92962 0.0393818 0)
(9.92659 0.0296024 0)
(9.92849 0.0204388 0)
(9.93356 0.0129125 0)
(9.94052 0.0072829 0)
(9.94851 0.00344262 0)
(9.95697 0.00112588 0)
(9.96558 4.81258e-05 0)
(9.97416 -5.3114e-05 0)
(9.98262 0.00059438 0)
(9.99093 0.00180769 0)
(9.99908 0.00343449 0)
(10.0071 0.00535269 0)
(10.0149 0.00746526 0)
(9.99502 0.0318118 0)
(9.96178 0.062116 0)
(9.93372 0.0695259 0)
(9.91535 0.060081 0)
(9.90934 0.0439131 0)
(9.91251 0.0276217 0)
(9.92085 0.0139596 0)
(9.93162 0.00360144 0)
(9.94321 -0.00366999 0)
(9.95475 -0.00840219 0)
(9.96586 -0.0111699 0)
(9.9764 -0.0124643 0)
(9.98636 -0.0126818 0)
(9.99578 -0.0121132 0)
(10.0047 -0.0109921 0)
(10.0133 -0.00948441 0)
(10.0215 -0.00772442 0)
(10.0294 -0.00580921 0)
(9.99018 0.0534598 0)
(9.93561 0.0901366 0)
(9.90099 0.090604 0)
(9.88516 0.0687248 0)
(9.88782 0.0417837 0)
(9.90124 0.0186272 0)
(9.91858 0.0013901 0)
(9.93629 -0.0104118 0)
(9.95286 -0.017941 0)
(9.96783 -0.0223602 0)
(9.9812 -0.0246127 0)
(9.99317 -0.0253796 0)
(10.004 -0.0251447 0)
(10.0139 -0.0242265 0)
(10.023 -0.0228619 0)
(10.0316 -0.021209 0)
(10.0396 -0.0193904 0)
(10.0473 -0.0174913 0)
(9.9819 0.0862458 0)
(9.89549 0.124245 0)
(9.85818 0.109862 0)
(9.85211 0.0697437 0)
(9.87037 0.030304 0)
(9.89846 0.00141805 0)
(9.92662 -0.0172226 0)
(9.95139 -0.0283274 0)
(9.97225 -0.0343675 0)
(9.98961 -0.0372151 0)
(10.0042 -0.0380672 0)
(10.0166 -0.0377069 0)
(10.0273 -0.0365747 0)
(10.0369 -0.0350228 0)
(10.0456 -0.0332071 0)
(10.0536 -0.0312672 0)
(10.061 -0.0292769 0)
(10.068 -0.027305 0)
(9.96925 0.133989 0)
(9.83823 0.163079 0)
(9.80793 0.122572 0)
(9.82313 0.0587712 0)
(9.86516 0.00727168 0)
(9.91144 -0.0240601 0)
(9.95041 -0.0406115 0)
(9.98058 -0.048359 0)
(10.0036 -0.051161 0)
(10.0213 -0.0513247 0)
(10.0352 -0.0501597 0)
(10.0466 -0.0482791 0)
(10.0562 -0.0461119 0)
(10.0645 -0.0438087 0)
(10.0719 -0.0415086 0)
(10.0786 -0.0392345 0)
(10.0848 -0.0370518 0)
(10.0907 -0.0350023 0)
(9.94951 0.20714 0)
(9.76128 0.207015 0)
(9.75726 0.123461 0)
(9.81044 0.0319826 0)
(9.88386 -0.0279023 0)
(9.9488 -0.0560409 0)
(9.99535 -0.066099 0)
(10.0268 -0.0678366 0)
(10.0482 -0.0660016 0)
(10.0632 -0.0629012 0)
(10.0742 -0.0595178 0)
(10.0827 -0.0561697 0)
(10.0896 -0.0529818 0)
(10.0954 -0.0500468 0)
(10.1006 -0.04733 0)
(10.1052 -0.0448189 0)
(10.1095 -0.0424819 0)
(10.1136 -0.0403691 0)
(9.91094 0.322718 0)
(9.65922 0.254541 0)
(9.71887 0.107392 0)
(9.8333 -0.011953 0)
(9.94177 -0.0727025 0)
(10.02 -0.0902343 0)
(10.0662 -0.089383 0)
(10.0918 -0.0833257 0)
(10.1062 -0.0763753 0)
(10.1145 -0.0702166 0)
(10.1196 -0.0650198 0)
(10.1232 -0.0605177 0)
(10.1257 -0.0565645 0)
(10.1276 -0.0532482 0)
(10.1293 -0.0503154 0)
(10.1309 -0.0477719 0)
(10.1324 -0.0453589 0)
(10.1338 -0.0432267 0)
(9.84404 0.43511 0)
(9.53797 0.261024 0)
(9.7269 0.0591211 0)
(9.92369 -0.0731459 0)
(10.0584 -0.121611 0)
(10.1345 -0.120285 0)
(10.1665 -0.105379 0)
(10.1757 -0.0911106 0)
(10.1758 -0.0799026 0)
(10.1725 -0.0717663 0)
(10.1686 -0.0659015 0)
(10.1647 -0.0608262 0)
(10.1606 -0.0563888 0)
(10.1567 -0.0526732 0)
(10.1531 -0.0497137 0)
(10.1502 -0.0475093 0)
(10.1476 -0.0451321 0)
(10.1453 -0.0429177 0)
(9.83598 0.319667 0)
(9.5502 0.0912487 0)
(9.91739 -0.0687342 0)
(10.1507 -0.160136 0)
(10.2635 -0.172186 0)
(10.3033 -0.142827 0)
(10.2975 -0.112245 0)
(10.2753 -0.0910004 0)
(10.2514 -0.0771141 0)
(10.2304 -0.0683373 0)
(10.2132 -0.0630355 0)
(10.1985 -0.0583722 0)
(10.1848 -0.0534867 0)
(10.1719 -0.0488722 0)
(10.1599 -0.0446325 0)
(10.1496 -0.0418357 0)
(10.1411 -0.0395786 0)
(10.1331 -0.0380583 0)
(10.2049 -0.0633776 0)
(10.4095 -0.19171 0)
(10.7164 -0.282555 0)
(10.6879 -0.282293 0)
(10.6191 -0.230121 0)
(10.5417 -0.163759 0)
(10.4537 -0.117627 0)
(10.375 -0.0936277 0)
(10.3135 -0.0804899 0)
(10.2654 -0.0696573 0)
(10.226 -0.0603303 0)
(10.1922 -0.0557685 0)
(10.1621 -0.0548388 0)
(10.1345 -0.0536711 0)
(10.1087 -0.0510968 0)
(10.0847 -0.0468069 0)
(10.0641 -0.0452859 0)
(10.0489 -0.0444928 0)
(9.41631 4.45107 0)
(12.7294 2.07612 0)
(12.5649 0.621224 0)
(11.5691 0.127666 0)
(10.9311 0.00342832 0)
(10.5862 -0.00225981 0)
(10.363 0.0138663 0)
(10.2007 0.0311961 0)
(10.0778 0.0446992 0)
(9.97624 0.0440145 0)
(9.88355 0.033374 0)
(9.79819 0.0318906 0)
(9.72256 0.0355711 0)
(9.65742 0.0323094 0)
(9.59976 0.0267083 0)
(9.54726 0.0012418 0)
(9.49757 -0.00292459 0)
(9.4479 0.0052936 0)
(-0.0249923 0.0909288 0)
(0.137452 -0.182579 0)
(0.325841 -0.304433 0)
(0.525617 -0.313543 0)
(0.7023 -0.270727 0)
(0.83183 -0.209999 0)
(0.907186 -0.145204 -8.60534e-20)
(0.936876 -0.0812885 8.67352e-20)
(0.914872 -0.0190277 0)
(0.853247 0.0356403 9.21132e-20)
(0.76541 0.0747688 0)
(0.665824 0.0923545 0)
(0.57203 0.0876007 0)
(0.499585 0.0662614 -1.44205e-19)
(0.44965 0.0373073 0)
(0.405478 0.00986696 0)
(0.344998 -0.00843213 1.8986e-19)
(0.259113 -0.00784548 0)
(0.123168 0.0109639 0)
(-0.0755714 0.111785 0)
(-0.30513 0.206884 -1.39726e-19)
(-0.601185 0.247733 0)
(-0.929118 0.269587 -7.49094e-20)
(-1.26405 0.296682 0)
(-1.60268 0.323481 0)
(-1.94154 0.336021 -4.11667e-20)
(-2.27307 0.335041 0)
(-2.58932 0.325756 3.44721e-20)
(-2.88715 0.309508 0)
(-3.16325 0.288669 -3.13072e-20)
(-3.4167 0.265543 0)
(-3.64716 0.241705 0)
(-3.85536 0.218178 0)
(-4.0424 0.195657 0)
(-4.20973 0.174511 0)
(-4.3589 0.154944 2.82147e-20)
(-4.49149 0.136986 0)
(-4.60899 0.120565 -5.55405e-20)
(-4.71276 0.105552 0)
(-4.80402 0.0917884 5.47403e-20)
(-4.88382 0.0791123 0)
(-4.95304 0.0673729 0)
(-5.01244 0.0564425 -5.35155e-20)
(-5.06263 0.0462259 0)
(-5.10411 0.0366641 -5.26218e-20)
(-5.1373 0.0277415 5.21431e-20)
(-5.16257 0.0195038 0)
(-5.18033 0.0120984 5.11144e-20)
(-5.19085 0.00578833 5.05616e-20)
(-5.19429 0.000722645 0)
(-5.19191 -0.00319932 0)
(-5.18494 -0.00645236 0)
(-5.17351 -0.00940085 0)
(-5.15795 -0.0121091 0)
(-5.13841 -0.0146758 -4.61356e-20)
(-5.11504 -0.0171142 0)
(-5.08793 -0.0194358 4.42686e-20)
(-5.05721 -0.0216494 0)
(-5.02296 -0.0237572 0)
(-4.9853 -0.025761 -4.10879e-20)
(-4.94432 -0.0276612 0)
(-4.90013 -0.0294576 3.87104e-20)
(-4.85284 -0.0311503 0)
(-4.80257 -0.0327389 0)
(-4.74943 -0.0342237 0)
(-4.69355 -0.0356042 -3.3327e-20)
(-4.63504 -0.0368811 0)
(-4.57403 -0.0380552 0)
(-4.51064 -0.039127 -2.87264e-20)
(-4.44502 -0.0400974 0)
(-4.37728 -0.0409677 -2.53827e-20)
(-4.30756 -0.0417393 0)
(-4.23599 -0.0424138 0)
(-4.1627 -0.042993 0)
(-4.08782 -0.043479 1.79998e-20)
(-4.01149 -0.0438739 0)
(-3.93383 -0.0441799 0)
(-3.85498 -0.0443996 1.1813e-20)
(-3.77504 -0.0445356 9.6174e-21)
(-3.69415 -0.0445907 0)
(-3.61242 -0.044568 5.01172e-21)
(-3.52998 -0.0444709 0)
(-3.44692 -0.0443034 1.9868e-22)
(-3.36337 -0.0440702 0)
(-3.27941 -0.0437775 -1.03011e-20)
(-3.19515 -0.0434341 0)
(-3.11068 -0.0430525 2.15552e-20)
(-3.02608 -0.0426517 0)
(-2.94141 -0.0422609 0)
(-2.85673 -0.0419234 0)
(-2.77209 -0.0417025 -4.67757e-20)
(-2.6875 -0.0416812 0)
(-2.60297 -0.0419495 6.10692e-20)
(-2.51848 -0.0425617 0)
(-2.43398 -0.0434556 -7.67595e-20)
(-2.34972 -0.0443546 -8.51483e-20)
(-2.26596 -0.0447976 -9.38663e-20)
(-2.18294 -0.0445788 0)
(-2.10083 -0.04397 0)
(-2.01966 -0.0432711 0)
(-1.93943 -0.042566 0)
(-1.86015 -0.0418658 0)
(-1.78184 -0.0411712 0)
(-1.70454 -0.0404843 0)
(-1.62826 -0.0398086 0)
(-1.55302 -0.03915 1.93118e-19)
(-1.47885 -0.0385157 2.07463e-19)
(-1.40576 -0.0379111 0)
(-1.33376 -0.0373245 0)
(-1.26288 -0.0366982 0)
(-1.19316 -0.0360397 2.74851e-19)
(-1.12459 -0.0354061 0)
(-1.05719 -0.0347906 0)
(-0.990949 -0.0341952 0)
(-0.925874 -0.0336213 0)
(-0.861965 -0.0330713 -3.9174e-19)
(-0.79922 -0.0325472 0)
(-0.737635 -0.0320528 0)
(-0.677202 -0.0315911 4.90169e-19)
(-0.617917 -0.0311639 -5.29979e-19)
(-0.559771 -0.0307745 0)
(-0.502756 -0.030434 -6.23875e-19)
(-0.446861 -0.0301665 0)
(-0.392064 -0.0300176 7.43265e-19)
(-0.338344 -0.0299957 0)
(-0.285689 -0.0300619 0)
(-0.234082 -0.0302042 0)
(-0.183495 -0.030434 0)
(-0.133904 -0.0307667 0)
(-0.0853547 -0.0312217 -2.85695e-18)
(-0.0380645 -0.0316748 -3.29049e-18)
(0.00803229 -0.0313432 0)
(0.0534473 -0.0298153 0)
(0.0981786 -0.0279638 0)
(0.142089 -0.0262504 2.67945e-18)
(0.185086 -0.0247218 0)
(0.22715 -0.0233522 0)
(0.268306 -0.0221183 0)
(0.308587 -0.0209997 2.03696e-18)
(0.348025 -0.0199792 -1.93099e-18)
(0.386648 -0.0190426 0)
(0.424483 -0.0181787 0)
(0.461551 -0.0173787 -1.68488e-18)
(0.497877 -0.0166349 -1.62036e-18)
(0.533483 -0.0159415 0)
(0.568387 -0.0152933 0)
(0.602609 -0.0146873 1.46238e-18)
(0.636172 -0.0141185 -1.41895e-18)
(0.6691 -0.0135845 0)
(0.701421 -0.0130813 0)
(0.73316 -0.0126069 -1.30879e-18)
(0.76434 -0.0121588 0)
(0.794986 -0.0117361 0)
(0.825121 -0.0113365 -1.22143e-18)
(0.854769 -0.0109596 0)
(0.883956 -0.0106032 -1.17248e-18)
(0.912703 -0.0102672 0)
(0.941034 -0.00994946 0)
(0.968974 -0.00964993 0)
(0.996543 -0.00936666 1.09082e-18)
(1.02376 -0.00909933 0)
(1.05065 -0.00884595 0)
(1.07723 -0.00860568 0)
(1.10351 -0.00837622 0)
(1.12949 -0.00815572 0)
(1.15519 -0.00794098 0)
(1.18059 -0.00772835 9.8255e-19)
(1.20567 -0.00751261 9.69672e-19)
(1.23038 -0.00728684 0)
(1.25466 -0.00704156 0)
(1.2784 -0.00676333 0)
(1.30143 -0.00643338 -9.24396e-19)
(1.32351 -0.00602282 0)
(1.34424 -0.00549051 1.81365e-18)
(1.36317 -0.00475644 -1.80028e-18)
(1.37888 -0.00370829 -1.79149e-18)
(1.39145 -0.00195799 1.78972e-18)
(1.39174 0.00137572 -1.79544e-18)
(1.3891 0.00810802 1.80779e-18)
(1.30962 0.019864 0)
(0.0969349 -0.271897 0)
(0.332999 -0.681543 0)
(0.512993 -0.705211 1.57318e-19)
(0.610192 -0.569393 0)
(0.66078 -0.406651 -1.11247e-19)
(0.680718 -0.251437 -1.08273e-19)
(0.674201 -0.109686 -5.63909e-20)
(0.643305 0.0181331 -5.63127e-20)
(0.600011 0.127856 0)
(0.540346 0.214066 -6.09855e-20)
(0.463043 0.268916 0)
(0.368024 0.283774 0)
(0.251494 0.256128 1.71589e-19)
(0.103023 0.211555 9.90364e-20)
(-0.0831947 0.208445 -1.84326e-19)
(-0.310858 0.275507 -1.42779e-19)
(-0.590081 0.387171 -5.68095e-20)
(-0.91613 0.515785 0)
(-1.2708 0.642535 0)
(-1.62788 0.755067 0)
(-1.98073 0.841349 -2.83633e-20)
(-2.32654 0.894757 0)
(-2.65619 0.917546 6.88779e-20)
(-2.96233 0.913582 0)
(-3.24109 0.886779 0)
(-3.49073 0.842362 1.98157e-20)
(-3.71007 0.785696 0)
(-3.90002 0.722296 -1.97658e-20)
(-4.06255 0.65633 -4.18019e-20)
(-4.2012 0.590486 2.01768e-20)
(-4.31887 0.526869 0)
(-4.41846 0.467227 0)
(-4.50266 0.412375 0)
(-4.57386 0.362653 -4.42611e-20)
(-4.6341 0.318014 -4.47645e-20)
(-4.68507 0.278183 -2.21901e-20)
(-4.72813 0.242748 0)
(-4.76438 0.211228 4.53002e-20)
(-4.7947 0.183125 0)
(-4.81981 0.157962 -4.5865e-20)
(-4.8403 0.1353 0)
(-4.85664 0.114746 0)
(-4.86927 0.0959626 4.60673e-20)
(-4.87854 0.0786604 0)
(-4.8848 0.0626005 1.38089e-19)
(-4.88837 0.0475905 -4.55817e-20)
(-4.88951 0.033496 0)
(-4.88848 0.0202896 -4.49093e-20)
(-4.88553 0.0080888 -4.44506e-20)
(-4.88093 -0.00294324 0)
(-4.87374 -0.0128691 0)
(-4.86288 -0.021985 0)
(-4.84833 -0.0305284 0)
(-4.83 -0.0386144 0)
(-4.80792 -0.0463124 4.01787e-20)
(-4.78215 -0.0536588 7.90864e-20)
(-4.75277 -0.0606745 -3.84e-20)
(-4.71985 -0.0673705 0)
(-4.68348 -0.0737526 7.34039e-20)
(-4.64377 -0.0798231 -3.5925e-20)
(-4.6008 -0.0855829 0)
(-4.55468 -0.0910314 -3.32235e-20)
(-4.50552 -0.0961688 0)
(-4.45342 -0.100996 0)
(-4.39849 -0.105515 -5.98009e-20)
(-4.34086 -0.109726 2.8339e-20)
(-4.28064 -0.113629 -5.46062e-20)
(-4.21795 -0.117227 5.18858e-20)
(-4.15292 -0.120524 2.42449e-20)
(-4.08567 -0.123523 0)
(-4.01633 -0.126231 2.13102e-20)
(-3.94503 -0.128653 0)
(-3.87189 -0.130795 0)
(-3.79705 -0.132665 0)
(-3.72063 -0.134272 1.55801e-20)
(-3.64276 -0.135623 0)
(-3.56357 -0.136728 2.36527e-20)
(-3.48317 -0.137596 -2.97998e-20)
(-3.40169 -0.138239 -7.88228e-21)
(-3.31925 -0.138667 0)
(-3.23596 -0.138891 -4.07903e-21)
(-3.15194 -0.138922 0)
(-3.06729 -0.138772 -1.61523e-22)
(-2.98213 -0.138454 0)
(-2.89654 -0.13798 8.25069e-21)
(-2.81064 -0.137361 -2.38495e-20)
(-2.72451 -0.136609 -1.71109e-20)
(-2.63825 -0.135734 0)
(-2.55194 -0.134746 0)
(-2.46569 -0.133648 0)
(-2.37957 -0.132441 3.63455e-20)
(-2.29371 -0.131115 0)
(-2.20825 -0.129643 -4.68265e-20)
(-2.12333 -0.127967 0)
(-2.03909 -0.126037 1.72423e-19)
(-1.95561 -0.123878 6.38186e-20)
(-1.87289 -0.121594 6.98556e-20)
(-1.79088 -0.11929 0)
(-1.70955 -0.117022 0)
(-1.62896 -0.114788 0)
(-1.54918 -0.112566 0)
(-1.47026 -0.110341 0)
(-1.39223 -0.10811 2.1996e-19)
(-1.31514 -0.105873 2.35469e-19)
(-1.239 -0.103633 0)
(-1.16385 -0.101394 -1.35022e-19)
(-1.08972 -0.0991576 -1.43812e-19)
(-1.01663 -0.0969262 0)
(-0.944594 -0.0947017 -3.23626e-19)
(-0.87364 -0.0924886 0)
(-0.803758 -0.0903005 1.81645e-19)
(-0.734957 -0.0881431 0)
(-0.667248 -0.0860165 0)
(-0.600636 -0.0839232 -4.3519e-19)
(-0.535122 -0.0818644 0)
(-0.470708 -0.079842 2.45242e-19)
(-0.407394 -0.0778589 0)
(-0.345178 -0.0759211 0)
(-0.284054 -0.074037 2.90253e-19)
(-0.224013 -0.0722047 3.09589e-19)
(-0.165049 -0.0704185 0)
(-0.107156 -0.0686819 -3.46953e-19)
(-0.0503383 -0.0669946 0)
(0.00540518 -0.0653481 3.82921e-19)
(0.0601167 -0.0637354 7.66014e-19)
(0.11383 -0.0621688 0)
(0.166545 -0.0606625 0)
(0.218264 -0.0592209 0)
(0.269001 -0.0578417 0)
(0.31879 -0.0565275 7.09063e-19)
(0.367702 -0.0552661 2.09591e-18)
(0.415824 -0.0538818 0)
(0.463063 -0.0522285 0)
(0.509279 -0.0504525 0)
(0.554546 -0.0487065 -6.65438e-19)
(0.598945 -0.047041 0)
(0.642502 -0.0454633 0)
(0.685236 -0.0439709 1.28753e-18)
(0.727168 -0.0425564 6.36742e-19)
(0.76832 -0.0412126 6.32216e-19)
(0.808714 -0.0399323 0)
(0.84837 -0.0387107 0)
(0.887311 -0.0375433 6.15661e-19)
(0.925555 -0.0364267 -6.09416e-19)
(0.963125 -0.0353579 0)
(1.00004 -0.0343355 0)
(1.03632 -0.0333576 -5.96551e-19)
(1.07198 -0.0324225 1.77566e-18)
(1.10705 -0.0315275 0)
(1.14156 -0.0306711 0)
(1.17551 -0.029851 5.80088e-19)
(1.20895 -0.0290666 0)
(1.24188 -0.0283167 1.14451e-18)
(1.27434 -0.0276004 -5.68339e-19)
(1.30634 -0.0269169 0)
(1.3379 -0.026265 5.62274e-19)
(1.36906 -0.0256443 1.11732e-18)
(1.39982 -0.0250528 0)
(1.43022 -0.0244902 0)
(1.46027 -0.0239539 -5.49561e-19)
(1.48999 -0.0234433 0)
(1.51941 -0.0229547 1.08655e-18)
(1.54853 -0.0224867 0)
(1.57736 -0.0220339 0)
(1.60592 -0.0215927 0)
(1.63421 -0.0211551 0)
(1.66221 -0.0207134 -5.29171e-19)
(1.68991 -0.0202544 -5.26413e-19)
(1.71727 -0.0197628 0)
(1.74422 -0.0192151 0)
(1.77068 -0.0185805 0)
(1.79651 -0.0178131 5.16318e-19)
(1.8215 -0.0168459 0)
(1.84531 -0.0155767 -1.02518e-18)
(1.86754 -0.0138269 1.02292e-18)
(1.88726 -0.0113146 1.02249e-18)
(1.90402 -0.00730149 1.02361e-18)
(1.91421 -0.000504404 1.02892e-18)
(1.92642 0.0124683 1.02029e-18)
(1.90686 0.0362543 0)
(0.118665 -0.861442 0)
(0.266983 -1.05279 0)
(0.313904 -0.823112 -1.2569e-19)
(0.312982 -0.581186 -1.08201e-19)
(0.295268 -0.370609 1.00676e-19)
(0.263744 -0.185363 1.00954e-19)
(0.217201 -0.0198331 -6.48079e-22)
(0.154933 0.127913 0)
(0.0767891 0.258361 0)
(-0.0184876 0.369025 0)
(-0.134558 0.454262 0)
(-0.27963 0.514989 0)
(-0.466698 0.569144 -2.66144e-19)
(-0.705934 0.644882 0)
(-0.993013 0.758376 6.58983e-20)
(-1.31192 0.900407 5.68667e-20)
(-1.64481 1.04764 0)
(-1.97514 1.18022 0)
(-2.28801 1.28604 0)
(-2.57116 1.3591 0)
(-2.81881 1.39449 3.48462e-20)
(-3.03133 1.39103 0)
(-3.2102 1.35383 -3.23081e-20)
(-3.35846 1.2908 0)
(-3.48043 1.20917 0)
(-3.58069 1.11527 0)
(-3.66404 1.0151 -6.85895e-20)
(-3.73479 0.913926 0)
(-3.79645 0.81583 3.31335e-20)
(-3.85177 0.723553 -7.07143e-20)
(-3.90266 0.638585 0)
(-3.95038 0.561638 0)
(-3.99568 0.492748 0)
(-4.03893 0.431524 3.65708e-20)
(-4.08022 0.377312 3.71547e-20)
(-4.1195 0.329342 0)
(-4.15665 0.28682 0)
(-4.19148 0.248989 -7.77807e-20)
(-4.22382 0.215158 -7.81683e-20)
(-4.25351 0.184721 7.83964e-20)
(-4.2804 0.157163 0)
(-4.30438 0.132058 0)
(-4.32536 0.10906 0)
(-4.34326 0.087888 0)
(-4.35803 0.0683085 -7.69631e-20)
(-4.36962 0.0501237 -7.68616e-20)
(-4.37794 0.0331501 7.62164e-20)
(-4.38286 0.0171871 0)
(-4.38421 0.00197819 0)
(-4.38184 -0.0127632 0)
(-4.37568 -0.0271642 0)
(-4.36579 -0.0411367 -7.10424e-20)
(-4.35224 -0.0545926 0)
(-4.33505 -0.0675188 0)
(-4.31426 -0.0799198 -6.69273e-20)
(-4.28993 -0.0918042 -6.49006e-20)
(-4.26212 -0.103179 0)
(-4.23091 -0.114049 1.24429e-19)
(-4.19637 -0.124415 -5.99595e-20)
(-4.15858 -0.134278 5.81819e-20)
(-4.11763 -0.143635 0)
(-4.07363 -0.152484 0)
(-4.02666 -0.160824 0)
(-3.97684 -0.168653 0)
(-3.92426 -0.175975 4.83451e-20)
(-3.86905 -0.18279 9.36193e-20)
(-3.81131 -0.189098 4.39776e-20)
(-3.75117 -0.194903 -4.17044e-20)
(-3.68874 -0.200211 0)
(-3.62414 -0.205027 7.52591e-20)
(-3.5575 -0.20936 7.03737e-20)
(-3.48895 -0.21322 6.53718e-20)
(-3.4186 -0.216615 -6.02541e-20)
(-3.34658 -0.219559 0)
(-3.27302 -0.222063 -7.38318e-20)
(-3.19804 -0.22414 0)
(-3.12177 -0.225807 2.00037e-20)
(-3.04432 -0.227076 1.57788e-20)
(-2.96581 -0.227966 0)
(-2.88637 -0.228493 0)
(-2.80611 -0.228673 1.51657e-20)
(-2.72514 -0.228525 0)
(-2.64356 -0.228067 2.72451e-21)
(-2.5615 -0.227317 0)
(-2.47905 -0.226295 1.02058e-20)
(-2.39631 -0.225021 3.51474e-20)
(-2.31338 -0.223512 0)
(-2.23036 -0.22179 0)
(-2.14735 -0.219871 0)
(-2.06444 -0.217775 4.48117e-20)
(-1.98173 -0.215515 0)
(-1.89931 -0.213104 5.96429e-20)
(-1.81728 -0.210542 0)
(-1.73573 -0.207814 0)
(-1.65474 -0.204894 -1.67563e-19)
(-1.57433 -0.201768 0)
(-1.49452 -0.198449 -9.9579e-20)
(-1.41533 -0.194981 0)
(-1.33677 -0.191421 -1.1687e-19)
(-1.25891 -0.187809 0)
(-1.18181 -0.18416 0)
(-1.10551 -0.180483 0)
(-1.03007 -0.176784 -4.63607e-19)
(-0.955507 -0.173069 -1.65356e-19)
(-0.881859 -0.169346 0)
(-0.809153 -0.165621 0)
(-0.737414 -0.1619 0)
(-0.666663 -0.158188 0)
(-0.596917 -0.15449 2.19194e-19)
(-0.528188 -0.15081 -4.59198e-19)
(-0.460483 -0.14716 -2.43047e-19)
(-0.393813 -0.143546 5.08431e-19)
(-0.328187 -0.139975 5.34251e-19)
(-0.263613 -0.136452 2.81787e-19)
(-0.20009 -0.13298 0)
(-0.137622 -0.129559 6.17093e-19)
(-0.076209 -0.126193 0)
(-0.0158525 -0.122883 -6.74156e-19)
(0.0434534 -0.119632 -3.45291e-19)
(0.101722 -0.116441 0)
(0.15896 -0.113312 6.93358e-19)
(0.215174 -0.110249 3.48938e-19)
(0.270374 -0.107252 0)
(0.32457 -0.104311 3.48818e-19)
(0.37777 -0.101415 -1.05307e-18)
(0.429984 -0.0985735 0)
(0.481225 -0.0957973 0)
(0.53151 -0.0930886 0)
(0.580857 -0.0904483 0)
(0.629288 -0.087881 -7.07845e-19)
(0.676839 -0.0853938 -7.10323e-19)
(0.723531 -0.0830019 0)
(0.76933 -0.0806913 0)
(0.814221 -0.0784229 0)
(0.858259 -0.0761968 0)
(0.901486 -0.0740295 0)
(0.943917 -0.0719292 0)
(0.985565 -0.0698984 -7.14008e-19)
(1.02645 -0.067936 -1.09189e-21)
(1.06659 -0.0660403 0)
(1.10599 -0.0642093 0)
(1.14469 -0.0624411 -7.13793e-19)
(1.18271 -0.0607341 0)
(1.22005 -0.0590867 7.14824e-19)
(1.25674 -0.0574977 7.13946e-19)
(1.29281 -0.0559672 0)
(1.32826 -0.0544935 0)
(1.36313 -0.0530762 -7.14465e-19)
(1.39743 -0.0517126 -1.42712e-18)
(1.43118 -0.050402 0)
(1.46441 -0.049142 0)
(1.49714 -0.0479327 0)
(1.52939 -0.0467726 -7.13195e-19)
(1.56117 -0.0456613 7.12835e-19)
(1.59252 -0.0445976 0)
(1.62345 -0.0435807 1.42291e-18)
(1.65399 -0.0426095 7.10468e-19)
(1.68415 -0.0416821 -1.42099e-18)
(1.71396 -0.0407976 0)
(1.74344 -0.0399531 0)
(1.7726 -0.0391469 -1.41743e-18)
(1.80147 -0.0383744 -7.08464e-19)
(1.83006 -0.0376327 0)
(1.85839 -0.0369144 0)
(1.88645 -0.0362135 0)
(1.91426 -0.0355182 0)
(1.94182 -0.0348165 -1.40767e-18)
(1.9691 -0.0340886 0)
(1.99607 -0.0333112 0)
(2.0227 -0.0324485 0)
(2.0489 -0.0314541 0)
(2.07455 -0.0302589 0)
(2.09948 -0.0287627 0)
(2.12344 -0.0268141 -1.39829e-18)
(2.14608 -0.0241611 0)
(2.16674 -0.0203998 0)
(2.18517 -0.0147365 -2.81785e-18)
(2.1986 -0.00584895 1.41892e-18)
(2.21323 0.00892243 -1.41684e-18)
(2.20812 0.0363275 1.41246e-18)
(0.0332951 -1.16451 0)
(0.0682739 -1.02602 3.60413e-19)
(0.0322873 -0.743153 0)
(-0.0125213 -0.502668 1.10926e-19)
(-0.0683341 -0.279764 0)
(-0.136692 -0.0699727 0)
(-0.220449 0.127046 -8.26682e-20)
(-0.32199 0.310532 0)
(-0.443446 0.480054 0)
(-0.587454 0.636187 0)
(-0.75789 0.781531 0)
(-0.959959 0.922262 0)
(-1.19611 1.06645 2.03388e-19)
(-1.46044 1.21722 9.20919e-20)
(-1.73828 1.36802 -8.34054e-20)
(-2.01135 1.50546 0)
(-2.26415 1.61587 0)
(-2.48692 1.6902 0)
(-2.67504 1.72499 0)
(-2.82694 1.72181 0)
(-2.94511 1.6844 6.00914e-20)
(-3.03526 1.6177 5.87858e-20)
(-3.10364 1.52864 -5.79501e-20)
(-3.15658 1.42501 5.76679e-20)
(-3.19939 1.31347 0)
(-3.23636 1.1994 0)
(-3.27093 1.08711 5.58628e-20)
(-3.30539 0.97982 0)
(-3.341 0.879619 0)
(-3.37824 0.787511 5.87171e-20)
(-3.41712 0.70372 6.15211e-20)
(-3.45727 0.628008 6.223e-20)
(-3.49818 0.559839 0)
(-3.53922 0.498517 0)
(-3.57979 0.443283 -6.40293e-20)
(-3.61933 0.393382 0)
(-3.65734 0.348107 0)
(-3.69342 0.30682 6.42944e-20)
(-3.72722 0.268956 -6.60043e-20)
(-3.75847 0.234032 6.6012e-20)
(-3.78694 0.201636 0)
(-3.81245 0.171418 0)
(-3.83485 0.143084 1.29945e-19)
(-3.85401 0.116386 0)
(-3.86983 0.0911137 1.28547e-19)
(-3.88221 0.0670909 1.90913e-19)
(-3.89106 0.0441753 -1.89265e-19)
(-3.89633 0.0222472 1.25239e-19)
(-3.89798 0.00119003 0)
(-3.89599 -0.0191115 0)
(-3.89042 -0.0387341 1.19771e-19)
(-3.88131 -0.057696 5.83537e-20)
(-3.86869 -0.0759932 0)
(-3.8526 -0.0936241 0)
(-3.83308 -0.110588 5.48447e-20)
(-3.81018 -0.126884 1.08138e-19)
(-3.78394 -0.14251 0)
(-3.75444 -0.157464 -1.01682e-19)
(-3.72175 -0.171741 9.98509e-20)
(-3.68593 -0.185336 -9.68775e-20)
(-3.64707 -0.198246 0)
(-3.60527 -0.210464 0)
(-3.56061 -0.221985 0)
(-3.51318 -0.232806 0)
(-3.4631 -0.242931 0)
(-3.41047 -0.252362 -7.57953e-20)
(-3.3554 -0.261096 0)
(-3.298 -0.269138 0)
(-3.23838 -0.276497 0)
(-3.17667 -0.283179 -1.22354e-19)
(-3.11298 -0.289197 -5.65678e-20)
(-3.04743 -0.294561 -5.24649e-20)
(-2.98014 -0.299287 9.77615e-20)
(-2.91123 -0.303389 -4.52216e-20)
(-2.84082 -0.306884 3.96677e-20)
(-2.76904 -0.309792 0)
(-2.69599 -0.312131 -3.07413e-20)
(-2.62181 -0.313923 0)