/*--------------------------------*- C++ -*----------------------------------*\
  =========                 |
  \\      /  F ield         | OpenFOAM: The Open Source CFD Toolbox
   \\    /   O peration     | Website:  https://openfoam.org
    \\  /    A nd           | Version:  8
     \\/     M anipulation  |
\*---------------------------------------------------------------------------*/
FoamFile
{
    version     2.0;
    format      ascii;
    class       volVectorField;
    location    "2000";
    object      wallShearStress;
}
// * * * * * * * * * * * * * * * * * * * * * * * * * * * * * * * * * * * * * //

dimensions      [0 2 -2 0 0 0 0];

internalField   uniform (0 0 0);

boundaryField
{
    inlet
    {
        type            calculated;
        value           uniform (0 0 0);
    }
    outlet
    {
        type            calculated;
        value           uniform (0 0 0);
    }
    upperWall
    {
        type            calculated;
        value           nonuniform List<vector> 
223
(
(-0.444232 0.00296047 0)
(-0.478939 0.00549744 0)
(-0.500088 0.00688028 0)
(-0.504391 0.00741188 0)
(-0.500097 0.00739623 0)
(-0.489888 0.00702549 0)
(-0.478034 0.00650368 0)
(-0.466032 0.00592218 0)
(-0.453671 0.00531654 0)
(-0.442033 0.00473092 0)
(-0.431342 0.00418407 0)
(-0.421652 0.00368355 0)
(-0.412962 0.00323209 0)
(-0.405195 0.00283007 0)
(-0.398279 0.00247586 0)
(-0.392117 0.00217743 0)
(-0.386579 0.00193712 0)
(-0.381625 0.00179393 0)
(-0.377643 0.00171303 0)
(-0.374498 0.00166329 5.9299e-22)
(-0.371429 0.00159196 0)
(-0.36845 0.00150801 0)
(-0.365562 0.00141803 0)
(-0.362769 0.00132583 6.0497e-22)
(-0.360072 0.00123387 0)
(-0.357474 0.0011437 0)
(-0.354974 0.0010565 0)
(-0.35257 0.000972971 -1.23119e-21)
(-0.35026 0.000893335 1.23619e-21)
(-0.348042 0.000817819 1.2411e-21)
(-0.345914 0.000746432 0)
(-0.343875 0.00067914 -1.25064e-21)
(-0.341921 0.000615884 0)
(-0.34005 0.000556713 1.25991e-21)
(-0.33826 0.000501486 1.26447e-21)
(-0.336548 0.000450157 -1.269e-21)
(-0.33491 0.000402528 0)
(-0.333346 0.000358627 0)
(-0.331849 0.000318253 0)
(-0.330419 0.000281281 0)
(-0.329052 0.000247573 -1.29126e-21)
(-0.327745 0.000217003 0)
(-0.326493 0.000189434 0)
(-0.325297 0.000164688 1.30459e-21)
(-0.32415 0.000142799 0)
(-0.323052 0.000123487 1.31355e-21)
(-0.321997 0.000106579 -1.31807e-21)
(-0.320985 9.21978e-05 1.32262e-21)
(-0.32001 8.0318e-05 0)
(-0.319072 7.07208e-05 0)
(-0.318163 6.34e-05 0)
(-0.317285 5.81536e-05 1.34122e-21)
(-0.31643 5.49689e-05 -1.34599e-21)
(-0.3156 5.35421e-05 0)
(-0.314787 5.38908e-05 0)
(-0.313994 5.56986e-05 0)
(-0.31321 5.89251e-05 0)
(-0.312444 6.33537e-05 0)
(-0.31168 6.89698e-05 0)
(-0.310931 7.55676e-05 0)
(-0.310176 8.28599e-05 0)
(-0.309435 9.10081e-05 1.39162e-21)
(-0.308683 9.99043e-05 -1.39699e-21)
(-0.30794 0.000109828 0)
(-0.307179 0.000120073 0)
(-0.306442 0.000128416 0)
(-0.305629 0.000144628 -1.41902e-21)
(-0.304935 0.000162081 0)
(-0.304008 0.000162287 0)
(-0.303341 0.000165497 0)
(-0.30255 0.00017067 0)
(-0.305273 0.000164162 0)
(-0.30132 0.000161603 -2.91163e-21)
(-0.33 0.000170392 0)
(-0.32946 0.000149733 0)
(-0.366959 0.000162491 0)
(-0.379845 0.000181524 0)
(-0.389379 0.000237389 0)
(-0.39552 0.000723866 0)
(-0.367715 0.000739644 0)
(-0.346931 0.000613485 3.46168e-21)
(-0.331724 0.000825332 0)
(-0.320175 0.000836131 0)
(-0.311988 0.000630013 0)
(-0.309342 0.000307929 -3.19608e-21)
(-0.305528 0.000113212 0)
(-0.300412 6.19856e-05 -3.16129e-21)
(-0.297143 0.000139677 0)
(-0.296924 6.48529e-05 0)
(-0.306464 3.52775e-05 0)
(-0.355553 0.000388464 -3.82109e-21)
(-0.333679 0.000507694 0)
(-0.318241 0.000380512 3.43759e-21)
(-0.304271 0.000337127 3.30538e-21)
(-0.295058 0.000447697 0)
(-0.294663 0.000528817 3.22658e-21)
(-0.294231 0.000242748 0)
(-0.30512 7.843e-05 0)
(-0.354051 0.000299266 0)
(-0.354975 0.000511708 -3.92828e-21)
(-0.316733 0.00034266 0)
(-0.340439 0.000514168 -3.77113e-21)
(-0.320925 0.00127466 3.53706e-21)
(-0.297696 0.00118104 0)
(-0.298863 0.000492632 0)
(-0.294694 0.000124433 0)
(-0.290253 0.000249157 0)
(-0.289815 0.000817032 0)
(-0.298003 0.00107973 0)
(-0.288484 0.000626811 0)
(-0.292005 0.000203087 -3.19544e-21)
(-0.287766 -0.000109913 0)
(-0.316885 -0.000204003 0)
(-0.320269 -1.69879e-05 0)
(-0.338457 0.000938209 0)
(-0.308525 0.00107731 0)
(-0.288717 0.000613197 0)
(-0.284283 0.000773746 0)
(-0.283514 0.000943954 0)
(-0.282476 0.000802377 0)
(-0.281727 0.000125061 0)
(-0.30844 -0.000108347 0)
(-0.309763 -8.24186e-05 0)
(-0.318893 0.000576845 -6.68066e-21)
(-0.288149 0.000778896 0)
(-0.277313 0.000262976 0)
(-0.30973 0.000762218 0)
(-0.279741 0.00100282 5.48005e-21)
(-0.274594 0.000966019 0)
(-0.273403 0.000746369 0)
(-0.272476 0.000217188 5.07336e-21)
(-0.279193 7.90388e-05 0)
(-0.295789 0.000569965 -5.37475e-21)
(-0.2724 0.00110424 0)
(-0.267178 0.000762179 0)
(-0.283301 0.000201012 0)
(-0.295154 0.000769514 4.81022e-21)
(-0.263277 0.000829102 0)
(-0.286195 0.000961557 -4.3256e-21)
(-0.260441 0.000850326 0)
(-0.281574 0.000877823 0)
(-0.257567 0.000779819 0)
(-0.275396 0.000757649 0)
(-0.254417 0.00066768 0)
(-0.262277 8.73616e-05 0)
(-0.266302 0.000725638 0)
(-0.248877 0.00074748 0)
(-0.251892 0.00073354 0)
(-0.245294 0.000671024 0)
(-0.243192 0.000901503 0)
(-0.241811 0.00215061 -1.22662e-21)
(-0.240072 0.00207993 9.2763e-22)
(-0.238421 0.000801637 0)
(-0.250652 0.00078521 0)
(-0.235027 0.00132394 0)
(-0.233256 0.000439695 0)
(-0.235529 0.000650502 -6.62164e-22)
(-0.229314 0.000399009 9.97173e-22)
(-0.226692 -0.000850924 -1.43052e-21)
(-0.223517 -0.000550261 0)
(-0.219951 0.000803605 -2.23084e-21)
(-0.226037 0.00121692 -5.2157e-21)
(-0.216298 0.000657803 0)
(-0.216107 0.000282354 -6.99557e-21)
(-0.211468 0.000213746 8.01153e-21)
(-0.209729 0.00103088 0)
(-0.218345 0.00137637 0)
(-0.22204 0.000827422 0)
(-0.21069 0.00110353 0)
(-0.203967 0.00210448 0)
(-0.203588 0.00174733 -1.31634e-20)
(-0.201994 9.41468e-05 0)
(-0.197238 -0.000202704 -1.62811e-20)
(-0.20186 0.00143909 0)
(-0.196112 0.00155859 0)
(-0.195446 0.000992173 0)
(-0.200057 0.00100166 0)
(-0.192836 0.00170914 0)
(-0.192282 -0.00020839 2.14644e-20)
(-0.186942 -0.00270763 0)
(-0.181585 -0.0021881 0)
(-0.17544 0.000340328 -2.97191e-20)
(-0.175854 0.0022327 0)
(-0.174844 0.00144101 0)
(-0.171122 0.000712631 0)
(-0.166763 0.000418961 3.48145e-20)
(-0.16187 0.000348107 0)
(-0.156465 0.000433755 0)
(-0.149882 0.000709505 0)
(-0.141426 0.000975926 0)
(-0.130516 0.00139776 -5.49447e-20)
(-0.117708 0.00177816 0)
(-0.1045 0.00196099 0)
(-0.0917955 0.00186596 0)
(-0.0810454 0.00163844 9.22499e-20)
(-0.069616 0.00146465 0)
(-0.063986 0.00180087 0)
(-0.0348458 0.00145985 -1.38862e-19)
(-0.0674397 0.000401368 6.01853e-36)
(-0.101573 0.00573645 1.18268e-17)
(-0.124994 0.0101545 2.12002e-17)
(-0.137504 0.0127454 1.99114e-17)
(-0.14491 0.0141728 1.91355e-17)
(-0.150416 0.0150503 1.85205e-17)
(-0.154704 0.0156696 -1.80057e-17)
(-0.157682 0.0161057 -1.75323e-17)
(-0.15996 0.0163974 -6.01853e-36)
(-0.161983 0.016623 -3.35096e-17)
(-0.164041 0.0168202 -1.63834e-17)
(-0.166125 0.0170153 6.86113e-34)
(-0.168571 0.0172141 0)
(-0.171433 0.017456 -3.01662e-17)
(-0.174955 0.0177457 -2.90527e-17)
(-0.179071 0.0181046 -2.77362e-17)
(-0.183978 0.0185275 0)
(-0.189583 0.0190268 4.89896e-17)
(-0.196128 0.0196071 2.25043e-17)
(-0.203366 0.020263 1.20371e-35)
(-0.212094 0.0210451 -3.5145e-17)
(-0.220479 0.0218308 -1.23631e-20)
(-0.234074 0.0229968 0)
(-0.238463 0.023728 1.32275e-17)
(-0.264219 0.0253021 -7.1037e-18)
)
;
    }
    lowerWall
    {
        type            calculated;
        value           nonuniform List<vector> 
250
(
(-0.624083 -0.00616832 0)
(-0.661404 -0.0116761 0)
(-0.596595 -0.0112788 0)
(-0.555803 -0.00932397 0)
(-0.522505 -0.00777812 0)
(-0.504145 -0.00640564 0)
(-0.488842 -0.00528148 0)
(-0.475904 -0.00467763 0)
(-0.464676 -0.00394009 0)
(-0.467842 -0.00319096 0)
(-0.536168 -0.00319632 0)
(-0.535791 -0.00277307 0)
(-0.548444 -0.00169595 0)
(-0.534087 -0.00164762 0)
(-0.484304 -0.00216074 0)
(-0.423952 -0.00102978 0)
(-0.422376 -0.000475092 0)
(-0.421519 -4.27024e-05 0)
(0.00208576 0.000141494 0)
(0.0023142 -0.00270911 0)
(0.00255642 -0.00563834 0)
(0.00285984 -0.0087044 1.16122e-19)
(0.00318812 -0.0117326 -9.7215e-20)
(0.00339555 -0.0153838 8.50898e-20)
(0.00295922 -0.0152298 -7.6712e-20)
(0.00892519 -0.034208 0)
(-0.0457969 -0.106024 0)
(0.000221578 -0.000274317 0)
(5.74056e-05 -0.000785519 0)
(-8.23505e-06 -0.000870796 0)
(5.51406e-05 -0.000871798 0)
(3.17221e-05 -0.000840436 1.54482e-19)
(-0.000143909 -0.000273072 -1.50165e-19)
(-0.000580166 0.00116727 0)
(-0.00117593 0.00386466 -1.72625e-19)
(-0.00155162 0.00729386 1.32241e-19)
(-0.00149601 0.0105258 0)
(-0.00110396 0.0129065 0)
(-0.000573304 0.0141529 0)
(-6.55264e-05 0.0142396 0)
(0.000335761 0.0133585 0)
(0.00066796 0.0117893 0)
(0.00099149 0.00957938 0)
(0.00134491 0.00676634 0)
(0.00174382 0.00339562 0)
(-0.000142772 -0.000276627 0)
(0.000167842 -0.000446093 0)
(0.000476006 -0.00049854 0)
(0.000795459 -0.000429399 0)
(0.00104978 -0.00019582 -0)
(0.00109516 0.000191971 -0)
(0.000847097 0.000657398 1.45877e-20)
(0.000333587 0.0010938 -1.6466e-20)
(-0.000377269 0.00141068 0)
(-0.00119138 0.00156913 -9.4152e-21)
(-0.00203015 0.00158237 0)
(-0.00282932 0.00148069 0)
(-0.00354383 0.00130031 0)
(-0.00414878 0.00107183 4.64073e-21)
(-0.00463274 0.00081602 0)
(-0.0049915 0.00054459 0)
(-0.00522252 0.000265874 -4.02723e-21)
(-0.00533034 -2.61595e-05 -0)
(-0.00528984 -0.000328847 0)
(-0.00509967 -0.000620817 -0)
(-0.00476877 -0.000881955 4.33668e-21)
(-0.00430901 -0.00109199 -0)
(-0.00373858 -0.00122974 5.13923e-21)
(-0.00308515 -0.0012758 0)
(-0.00238689 -0.00121588 -0)
(-0.00169335 -0.00104711 8.3652e-21)
(-0.00106238 -0.000786177 0)
(-0.000551417 -0.000478463 -1.39101e-20)
(-0.000193057 -0.000196865 0)
(3.1038e-05 -4.16142e-06 2.37414e-20)
(0.000173241 0.000108673 0)
(0.000255387 0.000203825 0)
(0.000245711 0.000317052 0)
(0.000132972 0.000469465 0)
(-0.000117301 0.000672122 0)
(-0.000532314 0.000883016 -1.49836e-20)
(-0.00109105 0.00102336 0)
(-0.00170398 0.00102078 1.77953e-20)
(-0.00225204 0.00086542 0)
(-0.00263853 0.00060722 -1.41893e-20)
(-0.0028261 0.0003326 0)
(-0.00284491 0.000114092 0)
(-0.0027513 -4.1947e-06 1.40122e-20)
(-0.00261971 2.32398e-06 0)
(-0.00251738 0.000128239 1.45335e-20)
(-0.00245306 0.000317576 -1.46326e-20)
(-0.0023734 0.000424837 0)
(-0.00213729 0.000215097 -1.59362e-20)
(-0.00148974 -0.000451226 -1.86343e-20)
(-0.000150741 -0.00114846 0)
(0.00161095 -0.00173899 0)
(0.00350886 -0.00239613 0)
(0.00568757 -0.00306147 0)
(0.00809117 -0.00356752 -0)
(0.010613 -0.00384001 3.43634e-21)
(0.0131435 -0.00391753 0)
(0.0157877 -0.00388903 -2.76506e-21)
(0.0188269 -0.00382813 -0)
(0.0202358 -0.00343784 -0)
(0.0229832 -0.00333088 2.20868e-21)
(0.025981 -0.00315407 0)
(0.0261097 -0.00263945 -1.94156e-21)
(0.0289814 -0.00249464 -0)
(0.0310738 -0.00231997 0)
(0.0331714 -0.00216936 -0)
(0.0352566 -0.0020206 1.84431e-21)
(0.0371573 -0.00188475 0)
(0.0390406 -0.00176583 -0)
(0.0408148 -0.00165899 1.79441e-21)
(0.0425488 -0.00156467 0)
(0.0442113 -0.00148017 1.77286e-21)
(0.0458321 -0.00140436 0)
(0.0473997 -0.00133549 0)
(0.0489288 -0.00127239 0)
(0.0504142 -0.001214 -1.74123e-21)
(0.0518642 -0.00115923 -0)
(0.0532756 -0.00110741 0)
(0.0546528 -0.0010579 -1.72139e-21)
(0.0559941 -0.00101039 -1.71483e-21)
(0.057302 -0.000964272 -0)
(0.0585749 -0.000919377 -1.70132e-21)
(0.0598137 -0.000875461 0)
(0.0610181 -0.000832289 -3.37358e-21)
(0.062187 -0.000789785 -0)
(0.0633212 -0.000747808 -3.34153e-21)
(0.064419 -0.000706195 -0)
(0.0654808 -0.000664802 3.30582e-21)
(0.0665044 -0.000623706 0)
(0.0674909 -0.000582627 0)
(0.0684378 -0.000541123 0)
(0.0693445 -0.000499228 -3.22134e-21)
(0.070209 -0.000456426 -0)
(0.0710299 -0.000412514 3.17139e-21)
(0.0718051 -0.000367077 0)
(0.0725324 -0.000319746 -3.11577e-21)
(0.0732097 -0.000270381 -3.08586e-21)
(0.0738345 -0.000218766 -3.05457e-21)
(0.0744046 -0.000165799 -0)
(0.0749189 -0.000112806 0)
(0.0753764 -6.29265e-05 0)
(0.0757813 -2.08405e-05 0)
(0.0761389 1.48591e-05 0)
(0.076452 4.92459e-05 0)
(0.0767199 8.30703e-05 0)
(0.076942 0.000116843 0)
(0.0771178 0.000150573 2.70836e-21)
(0.0772465 0.000184199 2.66119e-21)
(0.0773281 0.000217898 0)
(0.077361 0.000251554 0)
(0.0773453 0.000285153 0)
(0.0772802 0.000318545 2.45289e-21)
(0.0771658 0.000351988 0)
(0.0770007 0.000385103 0)
(0.0767859 0.000418117 0)
(0.0765201 0.000450766 0)
(0.0762042 0.000483317 -2.14451e-21)
(0.0758368 0.000515391 0)
(0.0754193 0.000547241 0)
(0.0749509 0.000578548 1.93107e-21)
(0.0744325 0.000609539 -1.85482e-21)
(0.073864 0.000639942 0)
(0.0732458 0.00066999 -1.69423e-21)
(0.0725785 0.000699257 0)
(0.0718634 0.000728093 1.52244e-21)
(0.0711002 0.000756146 0)
(0.0702911 0.000783588 0)
(0.0694364 0.00081018 0)
(0.0685389 0.000836048 0)
(0.0675912 0.000860664 0)
(0.0666141 0.000884798 -1.86861e-21)
(0.0655717 0.000907287 -1.64936e-21)
(0.0645112 0.000928764 0)
(0.0633923 0.000948074 0)
(0.0622526 0.000963103 0)
(0.0610784 0.000971981 7.04321e-22)
(0.0598737 0.0009717 0)
(0.058641 0.000966284 0)
(0.0573735 0.000972548 0)
(0.0560756 0.000988294 -3.60018e-22)
(0.0547456 0.00100006 6.47218e-22)
(0.0533921 0.00101078 0)
(0.0520157 0.0010201 0)
(0.0506201 0.00102873 1.56365e-21)
(0.0492058 0.00103616 1.88835e-21)
(0.0477758 0.00104289 0)
(0.0463306 0.0010483 0)
(0.0448734 0.00105299 -2.92531e-21)
(0.0434044 0.00105657 3.29357e-21)
(0.0419256 0.00105943 0)
(0.0404374 0.00106135 0)
(0.0389398 0.0010621 4.47522e-21)
(0.0374376 0.00106211 0)
(0.0359286 0.00106113 0)
(0.0344183 0.00105966 5.78715e-21)
(0.0329054 0.00105765 0)
(0.0313926 0.00105523 6.74702e-21)
(0.0298809 0.00105271 0)
(0.0283705 0.00105022 0)
(0.0268627 0.00104791 0)
(0.0253576 0.00104604 -8.92284e-21)
(0.0238552 0.00104467 0)
(0.0223555 0.00104395 0)
(0.0208581 0.00104383 0)
(0.019363 0.00104445 0)
(0.0178699 0.00104575 0)
(0.0163785 0.00104798 0)
(0.0148885 0.00105114 -1.39851e-20)
(0.0133994 0.00105553 -1.49066e-20)
(0.0119105 0.00106111 0)
(0.0104211 0.00106806 0)
(0.00893036 0.0010761 0)
(0.00743806 0.0010852 1.94022e-20)
(0.00594432 0.00109537 0)
(0.00445056 0.0011058 -4.46586e-20)
(0.00296058 0.00111345 4.80604e-20)
(0.00148286 0.00111314 5.18451e-20)
(2.26656e-05 0.00108468 -5.4556e-20)
(-0.00132803 0.00102307 5.40693e-20)
(-0.00283376 0.000861559 -5.20927e-20)
(-0.00315544 0.000480392 0)
(-0.00511549 0.0011017 -3.10412e-18)
(-0.00820242 0.000878669 -2.81108e-18)
(-0.0112659 0.000537432 -3.00927e-36)
(-0.0144331 0.00021765 -4.77646e-18)
(-0.0178176 -0.000119829 -8.87873e-18)
(-0.0214221 -0.000477376 -4.1415e-18)
(-0.0252575 -0.000855468 3.87398e-18)
(-0.0293446 -0.00125829 -3.00927e-35)
(-0.03371 -0.00168869 0)
(-0.038367 -0.00215093 3.20436e-18)
(-0.0433345 -0.00264525 3.0131e-18)
(-0.0486292 -0.00313586 6.01853e-36)
(-0.0542552 -0.00365296 0)
(-0.0602777 -0.00424979 0)
(-0.0667456 -0.00490818 -9.06541e-35)
(-0.0736685 -0.00562064 -1.46702e-35)
(-0.081194 -0.00638894 7.82409e-35)
(-0.0891814 -0.00721771 -3.74203e-18)
(-0.0981926 -0.00811739 -3.41051e-18)
(-0.107305 -0.00909079 6.01853e-36)
(-0.118896 -0.0101611 5.37089e-18)
(-0.128515 -0.0113348 8.91831e-18)
(-0.145933 -0.012572 6.01853e-36)
(-0.153443 -0.0140862 -4.30341e-18)
(-0.18799 -0.0164425 0)
)
;
    }
    frontAndBack
    {
        type            empty;
    }
}


// ************************************************************************* //
