/*--------------------------------*- C++ -*----------------------------------*\
  =========                 |
  \\      /  F ield         | OpenFOAM: The Open Source CFD Toolbox
   \\    /   O peration     | Website:  https://openfoam.org
    \\  /    A nd           | Version:  8
     \\/     M anipulation  |
\*---------------------------------------------------------------------------*/
FoamFile
{
    version     2.0;
    format      ascii;
    class       volScalarField;
    location    "300";
    object      p;
}
// * * * * * * * * * * * * * * * * * * * * * * * * * * * * * * * * * * * * * //

dimensions      [0 2 -2 0 0 0 0];

internalField   nonuniform List<scalar> 
12225
(
-1.24341
-3.50839
-4.62643
-4.941
-5.11955
-5.2887
-5.42075
-5.51613
-5.59275
-5.6605
-5.72108
-5.77693
-5.82841
-5.87751
-5.92505
-5.96778
-6.02288
-6.01356
-4.46611
-5.27281
-5.43042
-5.32766
-5.31213
-5.3806
-5.45906
-5.52537
-5.58554
-5.64347
-5.69886
-5.75096
-5.80065
-5.84849
-5.8957
-5.94002
-5.99108
-6.03577
-4.8811
-4.85791
-4.9817
-5.06499
-5.1659
-5.29039
-5.40053
-5.48734
-5.56052
-5.62687
-5.68812
-5.74444
-5.79747
-5.84778
-5.89709
-5.94387
-5.99646
-6.0436
-4.75823
-4.69127
-4.93803
-5.10731
-5.21284
-5.31943
-5.41769
-5.49846
-5.56769
-5.63121
-5.69047
-5.74554
-5.79764
-5.84731
-5.89596
-5.94307
-5.99304
-6.04051
-4.75154
-4.77426
-5.00402
-5.15188
-5.23599
-5.32672
-5.41819
-5.49677
-5.56491
-5.62764
-5.68646
-5.74146
-5.79357
-5.8434
-5.89209
-5.93959
-5.98808
-6.03588
-4.81648
-4.86579
-5.03531
-5.16185
-5.24436
-5.33138
-5.41967
-5.49696
-5.56445
-5.62656
-5.68488
-5.73962
-5.79151
-5.84119
-5.88952
-5.9367
-5.98385
-6.03048
-4.88459
-4.92795
-5.05508
-5.17185
-5.25704
-5.34034
-5.42371
-5.49853
-5.56483
-5.62602
-5.68359
-5.73782
-5.78928
-5.83856
-5.88633
-5.93285
-5.97867
-6.02359
-4.93691
-4.97343
-5.07839
-5.18615
-5.26982
-5.34879
-5.42759
-5.49999
-5.5651
-5.62538
-5.68218
-5.73585
-5.78683
-5.83564
-5.8828
-5.92855
-5.97322
-6.0166
-4.98064
-5.01321
-5.10242
-5.20041
-5.28114
-5.35647
-5.43145
-5.50159
-5.56549
-5.62484
-5.68086
-5.73392
-5.78437
-5.83266
-5.87918
-5.92415
-5.96775
-6.00979
-5.02613
-5.05523
-5.12983
-5.21703
-5.2938
-5.36545
-5.43642
-5.50389
-5.56621
-5.62438
-5.67939
-5.73164
-5.78138
-5.82895
-5.87466
-5.91868
-5.9611
-6.0017
-5.07278
-5.09819
-5.15999
-5.23641
-5.30822
-5.3759
-5.44268
-5.50703
-5.56739
-5.62408
-5.67785
-5.72905
-5.77785
-5.8245
-5.86921
-5.91209
-5.9532
-5.99234
-5.11959
-5.1413
-5.19236
-5.2585
-5.32442
-5.38773
-5.45022
-5.51114
-5.56914
-5.62405
-5.67631
-5.72619
-5.77381
-5.81931
-5.86283
-5.90443
-5.94414
-5.98179
-5.16547
-5.18375
-5.22597
-5.28267
-5.34216
-5.40075
-5.45892
-5.5162
-5.57147
-5.62428
-5.67477
-5.72308
-5.76928
-5.81343
-5.85558
-5.89577
-5.93402
-5.97018
-5.20912
-5.2244
-5.25944
-5.30787
-5.36087
-5.41457
-5.46845
-5.52199
-5.57427
-5.62471
-5.67318
-5.7197
-5.76427
-5.80688
-5.84753
-5.88623
-5.92298
-5.95771
-5.24887
-5.26169
-5.29104
-5.33253
-5.37952
-5.42841
-5.47813
-5.52801
-5.57722
-5.62511
-5.6714
-5.71597
-5.75876
-5.7997
-5.83877
-5.87594
-5.91122
-5.94456
-5.28255
-5.29346
-5.31852
-5.35456
-5.39643
-5.44098
-5.48692
-5.53342
-5.57968
-5.62504
-5.66912
-5.71171
-5.75268
-5.79192
-5.8294
-5.86508
-5.89895
-5.93099
-5.30718
-5.31676
-5.33887
-5.37108
-5.40914
-5.4503
-5.49318
-5.5369
-5.58065
-5.62378
-5.66585
-5.7066
-5.74586
-5.78353
-5.81952
-5.85382
-5.88641
-5.91729
-5.31765
-5.32661
-5.34737
-5.37779
-5.41402
-5.45341
-5.4946
-5.53669
-5.57888
-5.62053
-5.6612
-5.70062
-5.73862
-5.77508
-5.80993
-5.84315
-5.87474
-5.90471
-5.31301
-5.32204
-5.34299
-5.37373
-5.41025
-5.44974
-5.4908
-5.53261
-5.57442
-5.61559
-5.65569
-5.69447
-5.7318
-5.76757
-5.80174
-5.8343
-5.86525
-5.89463
-5.29715
-5.30671
-5.32901
-5.36178
-5.40038
-5.44143
-5.48357
-5.52616
-5.5685
-5.60994
-5.65009
-5.68878
-5.7259
-5.76139
-5.79524
-5.82744
-5.85803
-5.88707
-5.27314
-5.28344
-5.30806
-5.34457
-5.38671
-5.43031
-5.47437
-5.51855
-5.56208
-5.60427
-5.64485
-5.68376
-5.72096
-5.75642
-5.79016
-5.8222
-5.8526
-5.88145
-5.24325
-5.25395
-5.28184
-5.32426
-5.37129
-5.41785
-5.46425
-5.51061
-5.55579
-5.59902
-5.64025
-5.67958
-5.71703
-5.75259
-5.78631
-5.81829
-5.8486
-5.87732
-5.20951
-5.21937
-5.25124
-5.30217
-5.35543
-5.40534
-5.45447
-5.50324
-5.5501
-5.59441
-5.63639
-5.67625
-5.71402
-5.74974
-5.78353
-5.8155
-5.84577
-5.87444
-5.17342
-5.18093
-5.21883
-5.27964
-5.33843
-5.39223
-5.44546
-5.49724
-5.54566
-5.59082
-5.63344
-5.67376
-5.71178
-5.7476
-5.78141
-5.81337
-5.84359
-5.87219
-5.13481
-5.13469
-5.19052
-5.26395
-5.32272
-5.37784
-5.43578
-5.49137
-5.54169
-5.58791
-5.63131
-5.67216
-5.71045
-5.74638
-5.7802
-5.81213
-5.84231
-5.8709
-5.09982
-5.05844
-5.15463
-5.25748
-5.31715
-5.37021
-5.42946
-5.48642
-5.53737
-5.58413
-5.62811
-5.6694
-5.70796
-5.74405
-5.77796
-5.80994
-5.84015
-5.86877
-5.11686
-4.96058
-5.07276
-5.21414
-5.29847
-5.36605
-5.43184
-5.49039
-5.54132
-5.58791
-5.63166
-5.67258
-5.7107
-5.74637
-5.77987
-5.81147
-5.84138
-5.86986
-5.23575
-5.05435
-5.06208
-5.12908
-5.21044
-5.30228
-5.38753
-5.45778
-5.51688
-5.56981
-5.61827
-5.66253
-5.70303
-5.74043
-5.77521
-5.80773
-5.83847
-5.86804
-4.97001
-5.5038
-5.58682
-5.47354
-5.42051
-5.44335
-5.48648
-5.52691
-5.56602
-5.60604
-5.64573
-5.68363
-5.7194
-5.75313
-5.78493
-5.81484
-5.84309
-5.87174
-2.08705
-3.71805
-4.68277
-4.98496
-5.13423
-5.27449
-5.38654
-5.46624
-5.5289
-5.5842
-5.63411
-5.67899
-5.71969
-5.75704
-5.79149
-5.82308
-5.85155
-5.87507
-6.71962
-6.71963
-6.71998
-6.7207
-6.72165
-6.72274
-6.72398
-6.72541
-6.72705
-6.72896
-6.73119
-6.73377
-6.73675
-6.74018
-6.74411
-6.74857
-6.75361
-6.75927
-6.7656
-6.77264
-6.78043
-6.78903
-6.79848
-6.80885
-6.82021
-6.83262
-6.84622
-6.86112
-6.87751
-6.89551
-6.91495
-6.93479
-6.95368
-6.97261
-6.99497
-7.02078
-7.04825
-7.07705
-7.106
-7.13374
-7.1592
-7.1814
-7.20152
-7.22491
-7.25184
-7.27972
-7.30858
-7.33801
-7.36785
-7.39794
-7.42817
-7.45841
-7.48856
-7.51853
-7.5482
-7.57749
-7.60628
-7.63448
-7.66196
-7.68862
-7.71434
-7.73899
-7.76244
-7.78455
-7.80517
-7.82417
-7.84137
-7.85664
-7.86978
-7.88064
-7.88904
-7.8948
-7.89773
-7.89764
-7.89435
-7.88766
-7.87738
-7.86331
-7.84525
-7.82302
-7.79642
-7.76525
-7.72933
-7.68847
-7.6425
-7.59123
-7.5345
-7.47215
-7.404
-7.32993
-7.2498
-7.16349
-7.07087
-6.97182
-6.86628
-6.75432
-6.63606
-6.51133
-6.37955
-6.24059
-6.09471
-5.94195
-5.78237
-5.61599
-5.44285
-5.26301
-5.07652
-4.88346
-4.68393
-4.47804
-4.2659
-4.04766
-3.82347
-3.59348
-3.35789
-3.11687
-2.87062
-2.61938
-2.36334
-2.10276
-1.83788
-1.56895
-1.29623
-1.01999
-0.7405
-0.458048
-0.172914
0.114606
0.404232
0.69568
0.988671
1.28289
1.578
1.87371
2.16977
2.46588
2.76175
3.05708
3.3516
3.64502
3.93708
4.22752
4.51609
4.80254
5.08662
5.3681
5.64676
5.92238
6.19475
6.46369
6.729
6.99051
7.24806
7.50149
7.75065
7.9954
8.23561
8.47116
8.70194
8.92785
9.14879
9.36468
9.57549
9.78128
9.9819
10.177
10.3666
10.5505
10.7287
10.9014
11.0683
11.2296
11.3852
11.5353
11.6799
11.8195
11.9553
12.0888
12.2312
12.3798
-6.7186
-6.71885
-6.71932
-6.71998
-6.72063
-6.72119
-6.72177
-6.72251
-6.72352
-6.72485
-6.72654
-6.72864
-6.73116
-6.73413
-6.73758
-6.74154
-6.74606
-6.75116
-6.7569
-6.76333
-6.77048
-6.77841
-6.78719
-6.79685
-6.80746
-6.81905
-6.83164
-6.84521
-6.85973
-6.87502
-6.89085
-6.9073
-6.92585
-6.94795
-6.97077
-6.99175
-7.01189
-7.03126
-7.05063
-7.07203
-7.09684
-7.12724
-7.16321
-7.19778
-7.22826
-7.25823
-7.28809
-7.31801
-7.34802
-7.37812
-7.40825
-7.43834
-7.46832
-7.4981
-7.52759
-7.55669
-7.58533
-7.61338
-7.64075
-7.66733
-7.69299
-7.71761
-7.74107
-7.76323
-7.78394
-7.80306
-7.82044
-7.83591
-7.84931
-7.86047
-7.86922
-7.87536
-7.87873
-7.87914
-7.87638
-7.87028
-7.86064
-7.84725
-7.82994
-7.8085
-7.78273
-7.75246
-7.71749
-7.67763
-7.63271
-7.58255
-7.52698
-7.46585
-7.39899
-7.32626
-7.24753
-7.16268
-7.07158
-6.97412
-6.87018
-6.75963
-6.64229
-6.51801
-6.38703
-6.24945
-6.10512
-5.95399
-5.79606
-5.63135
-5.45988
-5.28171
-5.0969
-4.90552
-4.70766
-4.50342
-4.29293
-4.07631
-3.85372
-3.62532
-3.39127
-3.15177
-2.90702
-2.65722
-2.4026
-2.14339
-1.87983
-1.61217
-1.34067
-1.0656
-0.787232
-0.50584
-0.221712
0.0648628
0.353599
0.644223
0.936453
1.22997
1.52445
1.8196
2.11515
2.41083
2.70634
3.00137
3.29566
3.58891
3.88088
4.17129
4.4599
4.74644
5.03069
5.31239
5.59134
5.8673
6.14007
6.40947
6.6753
6.93738
7.19555
7.44965
7.69954
7.94506
8.18608
8.4225
8.65419
8.88105
9.10302
9.32005
9.53196
9.73839
9.93921
10.1345
10.3243
10.5085
10.6871
10.8602
11.0276
11.1893
11.3455
11.4963
11.6418
11.7825
11.9201
12.0554
12.2008
12.3442
-6.71501
-6.71588
-6.71712
-6.71819
-6.71888
-6.71929
-6.71965
-6.72013
-6.72087
-6.72195
-6.72341
-6.72529
-6.72762
-6.73042
-6.73372
-6.73756
-6.74197
-6.74698
-6.75265
-6.75901
-6.76612
-6.77402
-6.78277
-6.79242
-6.80303
-6.81462
-6.82723
-6.8409
-6.85559
-6.87118
-6.88752
-6.90462
-6.92305
-6.9433
-6.96467
-6.98628
-7.00813
-7.03024
-7.05274
-7.07598
-7.10039
-7.12678
-7.15538
-7.18466
-7.21365
-7.24282
-7.27213
-7.30156
-7.33109
-7.36068
-7.39028
-7.41983
-7.44927
-7.47853
-7.50752
-7.53615
-7.56433
-7.59197
-7.61896
-7.64519
-7.67055
-7.69491
-7.71815
-7.74013
-7.76072
-7.77976
-7.79711
-7.81261
-7.82608
-7.83738
-7.84631
-7.85271
-7.85638
-7.85715
-7.85483
-7.84922
-7.84013
-7.82736
-7.81073
-7.79004
-7.7651
-7.73571
-7.70168
-7.66284
-7.619
-7.56999
-7.51563
-7.45576
-7.39023
-7.31888
-7.24159
-7.15822
-7.06865
-6.97277
-6.87049
-6.76169
-6.64621
-6.5239
-6.39484
-6.25911
-6.11666
-5.96745
-5.81148
-5.64875
-5.47929
-5.30313
-5.12035
-4.931
-4.73518
-4.53298
-4.32452
-4.10993
-3.88935
-3.66293
-3.43086
-3.19331
-2.95048
-2.70258
-2.44981
-2.19242
-1.93064
-1.66471
-1.3949
-1.12146
-0.844673
-0.564806
-0.282149
0.00301493
0.290398
0.579733
0.870734
1.16308
1.45647
1.7506
2.0452
2.33999
2.63468
2.92897
3.22258
3.51523
3.80666
4.09661
4.38482
4.67103
4.95501
5.23652
5.51533
5.79122
6.06398
6.33342
6.59935
6.86159
7.11996
7.37432
7.62449
7.87036
8.11177
8.3486
8.58072
8.80803
9.0304
9.24776
9.46009
9.66725
9.86916
10.0657
10.2568
10.4423
10.6222
10.7965
10.9652
11.1283
11.2859
11.4381
11.5852
11.7279
11.8678
12.005
12.1528
12.2846
-6.70907
-6.71067
-6.7131
-6.71509
-6.71635
-6.71717
-6.71782
-6.71848
-6.71931
-6.72041
-6.72186
-6.72371
-6.72601
-6.72878
-6.73207
-6.73589
-6.7403
-6.74532
-6.751
-6.75737
-6.7645
-6.77241
-6.78116
-6.79079
-6.80134
-6.81284
-6.82533
-6.83879
-6.85322
-6.86854
-6.88468
-6.90168
-6.9197
-6.93888
-6.9591
-6.98009
-7.00179
-7.02425
-7.04758
-7.07187
-7.09717
-7.12346
-7.15063
-7.17836
-7.20644
-7.23486
-7.26352
-7.29237
-7.32137
-7.35045
-7.37958
-7.40867
-7.43768
-7.46652
-7.49512
-7.5234
-7.55126
-7.5786
-7.60534
-7.63135
-7.65652
-7.68074
-7.70388
-7.7258
-7.74637
-7.76543
-7.78284
-7.79844
-7.81207
-7.82356
-7.83273
-7.83941
-7.84342
-7.84457
-7.84266
-7.83752
-7.82895
-7.81675
-7.80073
-7.78069
-7.75645
-7.72781
-7.69458
-7.65657
-7.61361
-7.56553
-7.51213
-7.45328
-7.38879
-7.31853
-7.24235
-7.16012
-7.0717
-6.97699
-6.87588
-6.76827
-6.65406
-6.53315
-6.40554
-6.27127
-6.13027
-5.98254
-5.82806
-5.66684
-5.49891
-5.32429
-5.14305
-4.95525
-4.76097
-4.56032
-4.3534
-4.14035
-3.92129
-3.6964
-3.46583
-3.22976
-2.98839
-2.74192
-2.49057
-2.23455
-1.97412
-1.70951
-1.44098
-1.16879
-0.893208
-0.614504
-0.332967
-0.048881
0.237474
0.525832
0.815899
1.10735
1.39988
1.69324
1.98712
2.28124
2.5753
2.86901
3.16211
3.4543
3.74532
4.03491
4.32281
4.60877
4.89254
5.17389
5.45259
5.72842
6.00116
6.27063
6.53662
6.79896
7.05748
7.31201
7.5624
7.80849
8.05015
8.28726
8.51972
8.7474
8.97019
9.188
9.40078
9.6085
9.81107
10.0084
10.2002
10.3866
10.5674
10.7425
10.9121
11.0762
11.2347
11.388
11.5362
11.68
11.821
11.9582
12.1043
12.2227
-6.70213
-6.70453
-6.70837
-6.71154
-6.71362
-6.71506
-6.71622
-6.71729
-6.71845
-6.71982
-6.7215
-6.72354
-6.72602
-6.72896
-6.73241
-6.7364
-6.74098
-6.74618
-6.75205
-6.75862
-6.76594
-6.77405
-6.78299
-6.7928
-6.80352
-6.81517
-6.82776
-6.8413
-6.85578
-6.87116
-6.88742
-6.90458
-6.92268
-6.94176
-6.96173
-6.98251
-7.00405
-7.02637
-7.04954
-7.07362
-7.09863
-7.12454
-7.15117
-7.17834
-7.2059
-7.23378
-7.26194
-7.29031
-7.31885
-7.3475
-7.37622
-7.40493
-7.43358
-7.46209
-7.49039
-7.51838
-7.54599
-7.57312
-7.59966
-7.62551
-7.65056
-7.67469
-7.69777
-7.71966
-7.74023
-7.75934
-7.77682
-7.79253
-7.8063
-7.81796
-7.82734
-7.83426
-7.83853
-7.83998
-7.83842
-7.83364
-7.82547
-7.8137
-7.79814
-7.7786
-7.75488
-7.72679
-7.69414
-7.65674
-7.61442
-7.567
-7.51429
-7.45615
-7.3924
-7.3229
-7.2475
-7.16608
-7.07849
-6.98462
-6.88437
-6.77764
-6.66434
-6.54441
-6.41782
-6.28454
-6.14455
-5.99784
-5.84438
-5.68419
-5.51729
-5.34371
-5.16351
-4.97676
-4.78353
-4.58393
-4.37806
-4.16604
-3.94802
-3.72415
-3.49459
-3.25953
-3.01915
-2.77365
-2.52325
-2.26818
-2.00866
-1.74495
-1.47729
-1.20594
-0.931173
-0.653262
-0.372485
-0.0891331
0.19653
0.484228
0.773658
1.06449
1.35646
1.64929
1.94269
2.23636
2.53001
2.82335
3.11611
3.40801
3.69877
3.98815
4.27587
4.56169
4.84536
5.12664
5.40531
5.68114
5.95393
6.22346
6.48957
6.75205
7.01073
7.26545
7.51605
7.7624
8.00436
8.2418
8.4746
8.70265
8.92583
9.14404
9.3572
9.56524
9.76812
9.96574
10.158
10.3447
10.526
10.7016
10.8717
11.0363
11.1953
11.3491
11.4979
11.642
11.7829
11.9188
12.0615
12.1674
-6.69563
-6.69878
-6.70397
-6.7083
-6.71126
-6.71342
-6.71518
-6.71679
-6.71841
-6.72019
-6.72224
-6.72463
-6.72744
-6.7307
-6.73447
-6.73878
-6.74368
-6.74921
-6.7554
-6.7623
-6.76995
-6.77839
-6.78766
-6.79779
-6.80881
-6.82074
-6.83359
-6.84737
-6.86207
-6.87767
-6.89414
-6.9115
-6.92973
-6.94884
-6.96878
-6.98952
-7.01103
-7.03331
-7.05635
-7.08017
-7.10477
-7.13013
-7.15615
-7.18273
-7.20975
-7.23715
-7.26485
-7.29281
-7.32096
-7.34926
-7.37764
-7.40605
-7.43442
-7.46268
-7.49075
-7.51854
-7.54598
-7.57296
-7.59939
-7.62516
-7.65015
-7.67425
-7.69733
-7.71925
-7.73987
-7.75906
-7.77665
-7.79249
-7.80641
-7.81825
-7.82783
-7.83497
-7.83949
-7.84121
-7.83993
-7.83546
-7.82761
-7.81618
-7.80099
-7.78182
-7.75849
-7.73082
-7.69859
-7.66164
-7.61978
-7.57282
-7.52061
-7.46296
-7.39973
-7.33075
-7.25589
-7.17501
-7.08798
-6.99469
-6.89504
-6.78892
-6.67625
-6.55698
-6.43105
-6.29845
-6.15913
-6.01309
-5.86031
-5.7008
-5.53458
-5.3617
-5.18219
-4.99614
-4.80361
-4.6047
-4.39953
-4.18821
-3.97088
-3.7477
-3.51883
-3.28445
-3.04474
-2.79991
-2.55017
-2.29574
-2.03686
-1.77377
-1.50672
-1.23597
-0.96178
-0.684431
-0.404204
-0.121377
0.163787
0.450998
0.739946
1.03032
1.32187
1.61431
1.90735
2.20067
2.494
2.78705
3.07955
3.37121
3.66177
3.95097
4.23854
4.52424
4.80782
5.08903
5.36766
5.64349
5.91629
6.18587
6.45204
6.71462
6.97343
7.22831
7.4791
7.72566
7.96785
8.20554
8.4386
8.66693
8.8904
9.10891
9.32236
9.53066
9.73376
9.93161
10.1241
10.3111
10.4927
10.6686
10.8391
11.0039
11.1633
11.3173
11.4663
11.6103
11.7505
11.8844
12.0237
12.1187
-6.69062
-6.69447
-6.70076
-6.7061
-6.70989
-6.71276
-6.71516
-6.71733
-6.71948
-6.72174
-6.72423
-6.72705
-6.73027
-6.73394
-6.73811
-6.74283
-6.74813
-6.75406
-6.76065
-6.76795
-6.776
-6.78483
-6.79447
-6.80496
-6.81631
-6.82855
-6.84169
-6.85572
-6.87064
-6.88643
-6.90308
-6.92058
-6.93891
-6.95805
-6.97798
-6.99867
-7.02012
-7.04231
-7.06522
-7.08886
-7.11319
-7.13818
-7.16378
-7.18992
-7.21652
-7.24353
-7.27087
-7.2985
-7.32636
-7.35439
-7.38253
-7.41072
-7.4389
-7.46699
-7.49493
-7.52261
-7.54996
-7.57689
-7.60328
-7.62904
-7.65405
-7.67819
-7.70132
-7.72332
-7.74405
-7.76335
-7.78108
-7.79708
-7.81117
-7.8232
-7.83297
-7.84033
-7.84507
-7.84702
-7.84598
-7.84176
-7.83417
-7.82301
-7.80809
-7.7892
-7.76616
-7.73877
-7.70684
-7.67019
-7.62863
-7.58198
-7.53008
-7.47275
-7.40983
-7.34118
-7.26665
-7.18611
-7.09943
-7.00649
-6.9072
-6.80145
-6.68917
-6.5703
-6.44478
-6.31258
-6.17367
-6.02803
-5.87567
-5.71657
-5.55078
-5.37831
-5.19924
-5.01361
-4.82152
-4.62305
-4.41832
-4.20744
-3.99056
-3.76782
-3.5394
-3.30547
-3.06621
-2.82182
-2.57253
-2.31854
-2.06011
-1.79745
-1.53083
-1.2605
-0.98673
-0.709791
-0.429969
-0.147528
0.137257
0.424084
0.712648
1.00267
1.29388
1.58602
1.87875
2.17179
2.46484
2.75764
3.0499
3.34135
3.63171
3.92073
4.20815
4.49372
4.77718
5.0583
5.33686
5.61263
5.8854
6.15497
6.42116
6.68378
6.94266
7.19762
7.44853
7.69522
7.93755
8.17541
8.40865
8.63718
8.86086
9.07959
9.29326
9.50178
9.70509
9.90314
10.0958
10.2831
10.4649
10.6411
10.8118
10.9769
11.1364
11.2906
11.4394
11.583
11.7224
11.854
11.9901
12.0757
-6.68785
-6.69224
-6.69933
-6.70545
-6.70995
-6.71346
-6.71645
-6.71918
-6.72183
-6.72458
-6.72754
-6.73081
-6.73446
-6.73857
-6.74317
-6.74831
-6.75403
-6.76038
-6.76739
-6.7751
-6.78354
-6.79275
-6.80276
-6.81359
-6.82526
-6.83779
-6.85118
-6.86543
-6.88054
-6.89649
-6.91327
-6.93087
-6.94926
-6.96843
-6.98835
-7.00901
-7.0304
-7.05249
-7.07528
-7.09875
-7.12287
-7.14762
-7.17294
-7.19879
-7.22511
-7.25184
-7.27894
-7.30634
-7.334
-7.36186
-7.38986
-7.41793
-7.44601
-7.47404
-7.50192
-7.52959
-7.55694
-7.58389
-7.61032
-7.63615
-7.66123
-7.68547
-7.70872
-7.73085
-7.75171
-7.77117
-7.78906
-7.80523
-7.8195
-7.83171
-7.84168
-7.84922
-7.85416
-7.8563
-7.85546
-7.85143
-7.84403
-7.83306
-7.81832
-7.79962
-7.77676
-7.74955
-7.71779
-7.68131
-7.63992
-7.59344
-7.54169
-7.48452
-7.42176
-7.35327
-7.2789
-7.19851
-7.11199
-7.01921
-6.92008
-6.81451
-6.70241
-6.58372
-6.4584
-6.32639
-6.18768
-6.04224
-5.89007
-5.73118
-5.56559
-5.39335
-5.21449
-5.02909
-4.83723
-4.639
-4.43451
-4.22388
-4.00726
-3.78479
-3.55664
-3.32298
-3.084
-2.8399
-2.59089
-2.3372
-2.07906
-1.8167
-1.55038
-1.28035
-1.00688
-0.730246
-0.45072
-0.168569
0.115916
0.402434
0.690694
0.980427
1.27138
1.56325
1.85572
2.14851
2.44132
2.73389
3.02593
3.31718
3.60735
3.8962
4.18345
4.46886
4.75218
5.03318
5.31164
5.58732
5.86003
6.12956
6.39572
6.65834
6.91722
7.17222
7.42317
7.66993
7.91236
8.15032
8.38369
8.61234
8.83617
9.05506
9.2689
9.47761
9.6811
9.87933
10.0722
10.2597
10.4416
10.618
10.7889
10.9541
11.1138
11.2679
11.4165
11.5595
11.6977
11.827
11.9603
12.0377
-6.68766
-6.69239
-6.69997
-6.70662
-6.71166
-6.7157
-6.7192
-6.72241
-6.72553
-6.72873
-6.73212
-6.73581
-6.73987
-6.74438
-6.74937
-6.75491
-6.76102
-6.76776
-6.77515
-6.78323
-6.79203
-6.80158
-6.81191
-6.82303
-6.83496
-6.84772
-6.86131
-6.87574
-6.89098
-6.90704
-6.92391
-6.94156
-6.95999
-6.97917
-6.99908
-7.01972
-7.04105
-7.06308
-7.08578
-7.10914
-7.13312
-7.15771
-7.18286
-7.20853
-7.23468
-7.26125
-7.28821
-7.31549
-7.34306
-7.37084
-7.39879
-7.42683
-7.45492
-7.48296
-7.51088
-7.5386
-7.56603
-7.59307
-7.61962
-7.64556
-7.67078
-7.69516
-7.71856
-7.74086
-7.76189
-7.78152
-7.79959
-7.81593
-7.83037
-7.84275
-7.85288
-7.86059
-7.86568
-7.86797
-7.86726
-7.86337
-7.85609
-7.84522
-7.83058
-7.81197
-7.78919
-7.76204
-7.73034
-7.69391
-7.65256
-7.6061
-7.55438
-7.49723
-7.43448
-7.36599
-7.29162
-7.21124
-7.12471
-7.03194
-6.93281
-6.82725
-6.71516
-6.59649
-6.47119
-6.3392
-6.20052
-6.05511
-5.90297
-5.74413
-5.57859
-5.4064
-5.22761
-5.04228
-4.8505
-4.65236
-4.44797
-4.23746
-4.02096
-3.79862
-3.57061
-3.3371
-3.09828
-2.85436
-2.60553
-2.35203
-2.09409
-1.83193
-1.56582
-1.29602
-1.02277
-0.746369
-0.467069
-0.185155
0.0990796
0.385339
0.673347
0.962836
1.25356
1.54519
1.83743
2.12998
2.42257
2.71492
3.00675
3.29778
3.58776
3.87641
4.16349
4.44873
4.7319
5.01276
5.29108
5.56666
5.83927
6.10872
6.37483
6.63739
6.89625
7.15124
7.4022
7.64898
7.89145
8.12947
8.36292
8.59167
8.8156
9.03461
9.24858
9.45743
9.66107
9.85944
10.0525
10.2401
10.4222
10.5987
10.7696
10.9349
11.0946
11.2486
11.3968
11.5391
11.676
11.8031
11.9337
12.0042
-6.69007
-6.69496
-6.70274
-6.70968
-6.71507
-6.7195
-6.7234
-6.727
-6.73051
-6.73407
-6.73782
-6.74186
-6.74627
-6.75112
-6.75645
-6.76232
-6.76876
-6.77581
-6.78351
-6.79188
-6.80096
-6.81077
-6.82134
-6.83268
-6.8448
-6.85772
-6.87144
-6.88597
-6.90129
-6.91742
-6.93432
-6.952
-6.97043
-6.98961
-7.00951
-7.03013
-7.05144
-7.07343
-7.09608
-7.11938
-7.1433
-7.16781
-7.19289
-7.21848
-7.24457
-7.27109
-7.29801
-7.32527
-7.35283
-7.38063
-7.40862
-7.43672
-7.46488
-7.49302
-7.52105
-7.5489
-7.57646
-7.60365
-7.63036
-7.65647
-7.68186
-7.70641
-7.72999
-7.75246
-7.77367
-7.79347
-7.8117
-7.82819
-7.84278
-7.8553
-7.86555
-7.87337
-7.87856
-7.88093
-7.88028
-7.87644
-7.86919
-7.85835
-7.84371
-7.82508
-7.80227
-7.77508
-7.74332
-7.70682
-7.66538
-7.61883
-7.56701
-7.50974
-7.44687
-7.37826
-7.30376
-7.22324
-7.13658
-7.04367
-6.94442
-6.83872
-6.72651
-6.60772
-6.48231
-6.35021
-6.21143
-6.06592
-5.9137
-5.75478
-5.58917
-5.41692
-5.23808
-5.05272
-4.86092
-4.66277
-4.45839
-4.2479
-4.03143
-3.80914
-3.58119
-3.34775
-3.10903
-2.8652
-2.61649
-2.36312
-2.10532
-1.84332
-1.57738
-1.30775
-1.03469
-0.758478
-0.479377
-0.197679
0.0863245
0.372352
0.660126
0.949387
1.23988
1.53128
1.82327
2.11558
2.40794
2.70005
2.99165
3.28246
3.57222
3.86066
4.14754
4.43259
4.71557
4.99627
5.27444
5.54987
5.82235
6.09169
6.35769
6.62018
6.87898
7.13392
7.38485
7.63162
7.8741
8.11214
8.34563
8.57443
8.79844
9.01753
9.2316
9.44056
9.64432
9.8428
10.0359
10.2236
10.4059
10.5825
10.7535
10.9188
11.0784
11.2321
11.3799
11.5214
11.6569
11.7819
11.9101
11.9747
-6.69492
-6.69979
-6.7075
-6.7145
-6.72007
-6.72474
-6.7289
-6.73277
-6.73656
-6.7404
-6.74442
-6.74873
-6.7534
-6.75849
-6.76406
-6.77016
-6.77683
-6.78409
-6.79199
-6.80055
-6.80981
-6.81978
-6.83048
-6.84194
-6.85416
-6.86716
-6.88095
-6.89553
-6.91089
-6.92703
-6.94394
-6.96163
-6.98006
-6.99923
-7.01913
-7.03974
-7.06105
-7.08304
-7.10569
-7.12899
-7.15291
-7.17742
-7.2025
-7.22812
-7.25423
-7.28078
-7.30775
-7.33508
-7.36272
-7.39063
-7.41873
-7.44697
-7.47527
-7.50356
-7.53176
-7.55978
-7.58752
-7.61489
-7.64177
-7.66806
-7.69364
-7.71837
-7.74212
-7.76475
-7.78611
-7.80604
-7.82439
-7.841
-7.85568
-7.86826
-7.87857
-7.88642
-7.89162
-7.89398
-7.89332
-7.88942
-7.88211
-7.87118
-7.85643
-7.83768
-7.81472
-7.78738
-7.75545
-7.71875
-7.67711
-7.63035
-7.57831
-7.52081
-7.4577
-7.38885
-7.3141
-7.23334
-7.14644
-7.05329
-6.9538
-6.84787
-6.73543
-6.61643
-6.4908
-6.3585
-6.21952
-6.07383
-5.92144
-5.76236
-5.59661
-5.42422
-5.24527
-5.05981
-4.86792
-4.66971
-4.46528
-4.25475
-4.03827
-3.81598
-3.58805
-3.35466
-3.11599
-2.87224
-2.62362
-2.37036
-2.11268
-1.85082
-1.58504
-1.31558
-1.0427
-0.766682
-0.487793
-0.206323
0.0774406
0.363227
0.650751
0.939767
1.23001
1.52115
1.81287
2.10492
2.39701
2.68886
2.9802
3.27076
3.56027
3.84847
4.1351
4.41992
4.70269
4.98317
5.26115
5.5364
5.80872
6.07791
6.34378
6.60615
6.86484
7.1197
7.37057
7.61729
7.85974
8.09778
8.33127
8.5601
8.78414
9.00329
9.21743
9.42648
9.63033
9.82891
10.0221
10.2099
10.3922
10.5689
10.7399
10.9052
11.0646
11.218
11.3653
11.5059
11.6401
11.763
11.8891
11.9489
-6.70187
-6.70658
-6.71401
-6.72086
-6.72643
-6.73119
-6.73547
-6.7395
-6.74344
-6.74745
-6.75163
-6.75608
-6.76089
-6.76612
-6.77181
-6.77802
-6.78478
-6.79213
-6.80011
-6.80875
-6.81806
-6.82809
-6.83884
-6.85034
-6.86259
-6.87561
-6.88941
-6.90399
-6.91935
-6.93548
-6.95239
-6.97006
-6.98849
-7.00766
-7.02757
-7.0482
-7.06954
-7.09156
-7.11426
-7.13761
-7.16159
-7.18617
-7.21131
-7.237
-7.26319
-7.28985
-7.31694
-7.34441
-7.37221
-7.40027
-7.42855
-7.45697
-7.48545
-7.51393
-7.54231
-7.57051
-7.59843
-7.62598
-7.65304
-7.67949
-7.70521
-7.73008
-7.75395
-7.77669
-7.79813
-7.81814
-7.83653
-7.85316
-7.86784
-7.8804
-7.89066
-7.89844
-7.90355
-7.90579
-7.90499
-7.90093
-7.89343
-7.88229
-7.86733
-7.84833
-7.82512
-7.7975
-7.76528
-7.72829
-7.68634
-7.63926
-7.58689
-7.52906
-7.46562
-7.39643
-7.32135
-7.24026
-7.15303
-7.05956
-6.95975
-6.85352
-6.74079
-6.6215
-6.49559
-6.36304
-6.22381
-6.07789
-5.92528
-5.76599
-5.60006
-5.42751
-5.24841
-5.06283
-4.87083
-4.67253
-4.46804
-4.25747
-4.04096
-3.81867
-3.59077
-3.35742
-3.11881
-2.87515
-2.62664
-2.37351
-2.11598
-1.85429
-1.58869
-1.31942
-1.04676
-0.770973
-0.492334
-0.211126
0.0723737
0.357882
0.645119
0.933854
1.2238
1.51463
1.80604
2.09778
2.38955
2.68109
2.97213
3.26238
3.55158
3.83949
4.12583
4.41038
4.69288
4.97311
5.25084
5.52587
5.79798
6.06697
6.33266
6.59487
6.85343
7.10816
7.35893
7.60557
7.84796
8.08595
8.31942
8.54825
8.77231
8.99148
9.20568
9.41478
9.61871
9.81737
10.0107
10.1986
10.3809
10.5576
10.7286
10.8938
11.053
11.2061
11.3528
11.4924
11.6253
11.7463
11.8703
11.9263
-6.71052
-6.71498
-6.72196
-6.7285
-6.73392
-6.73861
-6.74288
-6.74692
-6.75088
-6.7549
-6.7591
-6.76357
-6.76838
-6.77359
-6.77926
-6.78545
-6.79219
-6.79951
-6.80747
-6.81607
-6.82536
-6.83535
-6.84606
-6.85752
-6.86974
-6.88272
-6.89648
-6.91102
-6.92635
-6.94245
-6.95934
-6.977
-6.99543
-7.01461
-7.03455
-7.05522
-7.07661
-7.0987
-7.12146
-7.14489
-7.16895
-7.19362
-7.21887
-7.24468
-7.27102
-7.29784
-7.3251
-7.35275
-7.38073
-7.40899
-7.43745
-7.46605
-7.49472
-7.52336
-7.5519
-7.58025
-7.60831
-7.63597
-7.66314
-7.68968
-7.71547
-7.74039
-7.76428
-7.78702
-7.80844
-7.82839
-7.84672
-7.86324
-7.87779
-7.8902
-7.90029
-7.90786
-7.91274
-7.91474
-7.91366
-7.90931
-7.90151
-7.89005
-7.87473
-7.85538
-7.8318
-7.8038
-7.7712
-7.73381
-7.69145
-7.64397
-7.59119
-7.53295
-7.46911
-7.39951
-7.32404
-7.24256
-7.15496
-7.06112
-6.96096
-6.85438
-6.74132
-6.62172
-6.49552
-6.36269
-6.2232
-6.07704
-5.92421
-5.76473
-5.59862
-5.42592
-5.24669
-5.06099
-4.86891
-4.67055
-4.46602
-4.25544
-4.03895
-3.8167
-3.58885
-3.35559
-3.11709
-2.87356
-2.62521
-2.37226
-2.11492
-1.85345
-1.58809
-1.31908
-1.0467
-0.771207
-0.492881
-0.21199
0.071185
0.356344
0.643233
0.931627
1.22121
1.51165
1.80268
2.09404
2.38544
2.6766
2.96726
3.25714
3.54598
3.83353
4.11953
4.40373
4.68591
4.96583
5.24327
5.51802
5.78986
6.05862
6.32408
6.58609
6.84446
7.09903
7.34965
7.59618
7.83847
8.07638
8.3098
8.53859
8.76264
8.98183
9.19605
9.4052
9.60918
9.8079
10.0013
10.1892
10.3716
10.5483
10.7193
10.8844
11.0434
11.196
11.3421
11.4808
11.6124
11.7316
11.8536
11.9066
-6.72049
-6.72461
-6.73104
-6.73714
-6.74227
-6.74674
-6.75083
-6.75471
-6.75853
-6.76241
-6.76647
-6.77078
-6.77544
-6.78051
-6.78604
-6.79209
-6.79868
-6.80588
-6.8137
-6.82218
-6.83134
-6.84122
-6.85182
-6.86318
-6.8753
-6.8882
-6.90188
-6.91636
-6.93163
-6.9477
-6.96457
-6.98222
-7.00065
-7.01985
-7.0398
-7.0605
-7.08194
-7.10408
-7.12692
-7.15043
-7.17459
-7.19938
-7.22478
-7.25075
-7.27724
-7.30423
-7.33165
-7.35946
-7.38761
-7.41601
-7.44461
-7.47333
-7.50209
-7.53082
-7.55942
-7.58781
-7.61589
-7.64355
-7.67069
-7.69718
-7.7229
-7.74772
-7.77148
-7.79406
-7.8153
-7.83504
-7.85312
-7.86938
-7.88365
-7.89575
-7.9055
-7.91272
-7.91723
-7.91884
-7.91736
-7.9126
-7.90436
-7.89246
-7.8767
-7.8569
-7.83286
-7.8044
-7.77134
-7.73348
-7.69067
-7.64273
-7.5895
-7.53082
-7.46654
-7.39652
-7.32064
-7.23877
-7.15078
-7.05657
-6.95606
-6.84915
-6.73578
-6.61588
-6.48941
-6.35633
-6.21661
-6.07024
-5.91724
-5.75759
-5.59135
-5.41854
-5.23923
-5.05348
-4.86138
-4.66302
-4.45851
-4.24798
-4.03157
-3.80943
-3.58172
-3.34862
-3.11032
-2.86701
-2.61889
-2.3662
-2.10916
-1.848
-1.58296
-1.31431
-1.0423
-0.767202
-0.489268
-0.208776
0.0739734
0.35869
0.645154
0.933123
1.22224
1.5122
1.80277
2.09366
2.3846
2.6753
2.9655
3.25493
3.54333
3.83044
4.11602
4.39982
4.6816
4.96115
5.23823
5.51264
5.78417
6.05262
6.31781
6.57955
6.83769
7.09206
7.3425
7.58886
7.83102
8.06883
8.30216
8.53089
8.75491
8.97408
9.18831
9.39749
9.60151
9.80029
9.99371
10.1817
10.3641
10.5408
10.7118
10.8767
11.0354
11.1877
11.3331
11.4709
11.6012
11.7188
11.8389
11.8896
-6.73144
-6.73519
-6.74101
-6.74656
-6.75125
-6.75534
-6.75907
-6.76261
-6.7661
-6.76965
-6.77339
-6.77741
-6.78178
-6.78656
-6.79182
-6.79761
-6.80396
-6.81092
-6.81852
-6.82679
-6.83576
-6.84545
-6.85589
-6.8671
-6.87908
-6.89186
-6.90543
-6.9198
-6.93498
-6.95098
-6.96777
-6.98537
-7.00377
-7.02295
-7.0429
-7.06361
-7.08506
-7.10725
-7.13015
-7.15376
-7.17803
-7.20293
-7.22843
-7.25449
-7.28107
-7.30813
-7.33561
-7.36346
-7.39163
-7.42004
-7.44863
-7.47731
-7.50601
-7.53464
-7.56312
-7.59136
-7.61927
-7.64674
-7.67366
-7.69991
-7.72536
-7.74987
-7.77332
-7.79555
-7.81641
-7.83576
-7.85343
-7.86926
-7.88308
-7.89471
-7.90399
-7.91073
-7.91474
-7.91585
-7.91386
-7.90859
-7.89984
-7.88742
-7.87115
-7.85084
-7.82629
-7.79733
-7.76376
-7.72542
-7.68213
-7.63372
-7.58003
-7.52091
-7.45621
-7.3858
-7.30953
-7.22729
-7.13895
-7.04442
-6.9436
-6.83641
-6.72279
-6.60266
-6.47598
-6.34272
-6.20285
-6.05636
-5.90325
-5.74354
-5.57726
-5.40443
-5.22514
-5.03943
-4.84741
-4.64915
-4.44478
-4.23441
-4.0182
-3.79628
-3.56883
-3.33601
-3.09801
-2.85503
-2.60728
-2.35497
-2.09834
-1.83761
-1.57303
-1.30485
-1.03335
-0.758738
-0.481305
-0.201336
0.0808611
0.365027
0.650974
0.9384
1.22692
1.51631
1.80631
2.09663
2.387
2.67715
2.96679
3.25568
3.54355
3.83014
4.11521
4.39852
4.67984
4.95893
5.23558
5.50959
5.78073
6.04882
6.31368
6.57512
6.83297
7.08708
7.33729
7.58346
7.82545
8.06311
8.29634
8.52499
8.74894
8.96809
9.18231
9.3915
9.59555
9.79437
9.98784
10.1759
10.3583
10.535
10.7059
10.8707
11.0291
11.181
11.3258
11.4626
11.5917
11.7077
11.826
11.8752
-6.74316
-6.74656
-6.75178
-6.75672
-6.76082
-6.76433
-6.76749
-6.77047
-6.7734
-6.77644
-6.77967
-6.78321
-6.78712
-6.79148
-6.79635
-6.80176
-6.80776
-6.8144
-6.82169
-6.82967
-6.83837
-6.84781
-6.85801
-6.86898
-6.88075
-6.89333
-6.90671
-6.92092
-6.93594
-6.95179
-6.96844
-6.98591
-7.0042
-7.02329
-7.04318
-7.06385
-7.08527
-7.10743
-7.13031
-7.15388
-7.17811
-7.20295
-7.22837
-7.25434
-7.2808
-7.30771
-7.33502
-7.36268
-7.39063
-7.41882
-7.44717
-7.47559
-7.50399
-7.53229
-7.56042
-7.58828
-7.61578
-7.64283
-7.6693
-7.69508
-7.72003
-7.74404
-7.76695
-7.78864
-7.80894
-7.82772
-7.84482
-7.86007
-7.8733
-7.88436
-7.89305
-7.8992
-7.90264
-7.90317
-7.90062
-7.89478
-7.88548
-7.87253
-7.85573
-7.8349
-7.80986
-7.78041
-7.74637
-7.70757
-7.66385
-7.61502
-7.56094
-7.50146
-7.43641
-7.36567
-7.2891
-7.20657
-7.11798
-7.02322
-6.9222
-6.81484
-6.70106
-6.58082
-6.45405
-6.32073
-6.18083
-6.03435
-5.88127
-5.72163
-5.55543
-5.38274
-5.20359
-5.01807
-4.82626
-4.62825
-4.42416
-4.21411
-3.99825
-3.7767
-3.54965
-3.31726
-3.07972
-2.83723
-2.58999
-2.33822
-2.08215
-1.82201
-1.55804
-1.29049
-1.0196
-0.745617
-0.468834
-0.189541