/*--------------------------------*- C++ -*----------------------------------*\
  =========                 |
  \\      /  F ield         | OpenFOAM: The Open Source CFD Toolbox
   \\    /   O peration     | Website:  https://openfoam.org
    \\  /    A nd           | Version:  8
     \\/     M anipulation  |
\*---------------------------------------------------------------------------*/
FoamFile
{
    version     2.0;
    format      ascii;
    class       surfaceScalarField;
    location    "300";
    object      phi;
}
// * * * * * * * * * * * * * * * * * * * * * * * * * * * * * * * * * * * * * //

dimensions      [0 3 -1 0 0 0 0];

internalField   nonuniform List<scalar> 
24170
(
3.07329e-06
6.06008e-08
2.98873e-06
8.45602e-08
2.914e-06
7.47316e-08
2.84409e-06
6.99119e-08
2.77875e-06
6.53406e-08
2.72078e-06
5.79633e-08
2.67121e-06
4.9577e-08
2.62928e-06
4.1925e-08
2.59384e-06
3.54414e-08
2.56376e-06
3.00815e-08
2.538e-06
2.57582e-08
2.5157e-06
2.22991e-08
2.49618e-06
1.95215e-08
2.47888e-06
1.72996e-08
2.46344e-06
1.54351e-08
2.44914e-06
1.4304e-08
2.43633e-06
1.28087e-08
1.55862e-08
2.42075e-06
3.49416e-06
2.28817e-08
3.49784e-06
8.08823e-08
3.49084e-06
8.17387e-08
3.4786e-06
8.21507e-08
3.46291e-06
8.10251e-08
3.4447e-06
7.61754e-08
3.42444e-06
6.98318e-08
3.40285e-06
6.35158e-08
3.38067e-06
5.76284e-08
3.35849e-06
5.22568e-08
3.33684e-06
4.74069e-08
3.31601e-06
4.31291e-08
3.2962e-06
3.93325e-08
3.27745e-06
3.60502e-08
3.25986e-06
3.30244e-08
3.24333e-06
3.08339e-08
3.22823e-06
2.79108e-08
2.79617e-08
3.21585e-06
3.81775e-06
1.7328e-08
3.82931e-06
6.93187e-08
3.83605e-06
7.4996e-08
3.84057e-06
7.76328e-08
3.84249e-06
7.91054e-08
3.84165e-06
7.70199e-08
3.83846e-06
7.302e-08
3.83344e-06
6.85355e-08
3.827e-06
6.40611e-08
3.81952e-06
5.97388e-08
3.81129e-06
5.56368e-08
3.80258e-06
5.18391e-08
3.7936e-06
4.8317e-08
3.78452e-06
4.51287e-08
3.77544e-06
4.21084e-08
3.76668e-06
3.95933e-08
3.75784e-06
3.67466e-08
3.50574e-08
3.75075e-06
4.2045e-06
1.73878e-08
4.21552e-06
5.82954e-08
4.2228e-06
6.77199e-08
4.2289e-06
7.15298e-08
4.23383e-06
7.41791e-08
4.23718e-06
7.36712e-08
4.23916e-06
7.10365e-08
4.24005e-06
6.76469e-08
4.24004e-06
6.40703e-08
4.23929e-06
6.04851e-08
4.23795e-06
5.69776e-08
4.23615e-06
5.36433e-08
4.23398e-06
5.04826e-08
4.23157e-06
4.75436e-08
4.22895e-06
4.47301e-08
4.22634e-06
4.2197e-08
4.22351e-06
3.95763e-08
3.72611e-08
4.22131e-06
4.63826e-06
1.64324e-08
4.64695e-06
4.96073e-08
4.65319e-06
6.1483e-08
4.65877e-06
6.59491e-08
4.66405e-06
6.88979e-08
4.66852e-06
6.91977e-08
4.67214e-06
6.74142e-08
4.67504e-06
6.47515e-08
4.67732e-06
6.17932e-08
4.67907e-06
5.87323e-08
4.68038e-06
5.5662e-08
4.68135e-06
5.26772e-08
4.68203e-06
4.98011e-08
4.68251e-06
4.70688e-08
4.6828e-06
4.44315e-08
4.68305e-06
4.19485e-08
4.68318e-06
3.94542e-08
3.70043e-08
4.68343e-06
5.11638e-06
1.4649e-08
5.12329e-06
4.26976e-08
5.12915e-06
5.56193e-08
5.13451e-06
6.05931e-08
5.13982e-06
6.35839e-08
5.14466e-06
6.4363e-08
5.14887e-06
6.32027e-08
5.15253e-06
6.10869e-08
5.15573e-06
5.85941e-08
5.15853e-06
5.59323e-08
5.16099e-06
5.32036e-08
5.16317e-06
5.04971e-08
5.16512e-06
4.78529e-08
5.16689e-06
4.52964e-08
5.16851e-06
4.2808e-08
5.17006e-06
4.04012e-08
5.17152e-06
3.79995e-08
3.558e-08
5.17294e-06
5.64281e-06
1.28449e-08
5.64873e-06
3.6783e-08
5.65463e-06
4.97151e-08
5.66001e-06
5.52078e-08
5.66534e-06
5.82626e-08
5.67033e-06
5.93726e-08
5.67482e-06
5.87051e-08
5.67888e-06
5.70336e-08
5.68255e-06
5.4917e-08
5.6859e-06
5.2581e-08
5.68897e-06
5.01357e-08
5.6918e-06
4.76656e-08
5.69444e-06
4.52203e-08
5.69691e-06
4.28226e-08
5.69925e-06
4.04686e-08
5.7015e-06
3.81557e-08
5.70365e-06
3.58487e-08
3.35193e-08
5.70571e-06
4.40734e-06
1.16193e-08
4.41111e-06
3.30048e-08
4.41535e-06
4.54795e-08
4.4193e-06
5.1261e-08
4.42314e-06
5.44182e-08
4.42681e-06
5.5704e-08
4.43019e-06
5.53229e-08
4.43329e-06
5.39368e-08
4.43614e-06
5.20662e-08
4.43878e-06
4.99419e-08
4.44123e-06
4.76809e-08
4.44353e-06
4.53678e-08
4.44569e-06
4.30557e-08
4.44775e-06
4.07684e-08
4.44971e-06
3.85092e-08
4.45159e-06
3.62741e-08
4.4534e-06
3.40429e-08
3.17971e-08
4.45512e-06
5.1411e-06
1.03752e-08
5.14488e-06
2.92216e-08
5.14934e-06
4.10255e-08
5.15363e-06
4.69728e-08
5.15784e-06
5.02042e-08
5.1619e-06
5.16388e-08
5.1657e-06
5.15273e-08
5.16921e-06
5.04219e-08
5.17248e-06
4.87978e-08
5.17554e-06
4.6889e-08
5.1784e-06
4.48173e-08
5.1811e-06
4.26677e-08
5.18366e-06
4.04957e-08
5.1861e-06
3.83285e-08
5.18843e-06
3.61745e-08
5.19067e-06
3.40332e-08
5.19282e-06
3.18946e-08
2.97526e-08
5.19487e-06
5.99706e-06
9.11115e-09
6.00079e-06
2.5491e-08
6.00539e-06
3.64185e-08
6.01e-06
4.23659e-08
6.01458e-06
4.56207e-08
6.01906e-06
4.71642e-08
6.02329e-06
4.72952e-08
6.02725e-06
4.64612e-08
6.03096e-06
4.50828e-08
6.03446e-06
4.33937e-08
6.03776e-06
4.15186e-08
6.04088e-06
3.95423e-08
6.04386e-06
3.75218e-08
6.0467e-06
3.5488e-08
6.04942e-06
3.34548e-08
6.05202e-06
3.14267e-08
6.05452e-06
2.94017e-08
2.73853e-08
6.05688e-06
6.99554e-06
7.84139e-09
6.99916e-06
2.18631e-08
7.00387e-06
3.17142e-08
7.00876e-06
3.74692e-08
7.0137e-06
4.06832e-08
7.01858e-06
4.22843e-08
7.02326e-06
4.26134e-08
7.02769e-06
4.20303e-08
7.03188e-06
4.08927e-08
7.03585e-06
3.94257e-08
7.03961e-06
3.77551e-08
7.04319e-06
3.5964e-08
7.0466e-06
3.41099e-08
7.04986e-06
3.22275e-08
7.05298e-06
3.03355e-08
7.05597e-06
2.8444e-08
7.05881e-06
2.65571e-08
2.46894e-08
7.06151e-06
8.16027e-06
6.58735e-09
8.16377e-06
1.8359e-08
8.16852e-06
2.69703e-08
8.17366e-06
3.23274e-08
8.17893e-06
3.54119e-08
8.1842e-06
3.7009e-08
8.18934e-06
3.74773e-08
8.19426e-06
3.71111e-08
8.19895e-06
3.62018e-08
8.20342e-06
3.49557e-08
8.20768e-06
3.3496e-08
8.21174e-06
3.1903e-08
8.21562e-06
3.02331e-08
8.21932e-06
2.85236e-08
8.22286e-06
2.67971e-08
8.22623e-06
2.50687e-08
8.22944e-06
2.33472e-08
2.16526e-08
8.23248e-06
9.51895e-06
5.36485e-09
9.52233e-06
1.49813e-08
9.52706e-06
2.22349e-08
9.5324e-06
2.69915e-08
9.53798e-06
2.98296e-08
9.54364e-06
3.13482e-08
9.54923e-06
3.18869e-08
9.55465e-06
3.16898e-08
9.55987e-06
3.09868e-08
9.56487e-06
2.99552e-08
9.56965e-06
2.87102e-08
9.57423e-06
2.73276e-08
9.5786e-06
2.5861e-08
9.58278e-06
2.4348e-08
9.58676e-06
2.28141e-08
9.59055e-06
2.12772e-08
9.59415e-06
1.97495e-08
1.82533e-08
9.59755e-06
1.11039e-05
4.18073e-09
1.11072e-05
1.17162e-08
1.11119e-05
1.75301e-08
1.11173e-05
2.15035e-08
1.11232e-05
2.39575e-08
1.11293e-05
2.53081e-08
1.11353e-05
2.58403e-08
1.11412e-05
2.57541e-08
1.1147e-05
2.52245e-08
1.11526e-05
2.43946e-08
1.11579e-05
2.33647e-08
1.1163e-05
2.2203e-08
1.11679e-05
2.09583e-08
1.11726e-05
1.96662e-08
1.11771e-05
1.83523e-08
1.11813e-05
1.7036e-08
1.11853e-05
1.57302e-08
1.44577e-08
1.11891e-05
1.29528e-05
3.03048e-09
1.2956e-05
8.53047e-09
1.29607e-05
1.28412e-08
1.29663e-05
1.58748e-08
1.29724e-05
1.78003e-08
1.29789e-05
1.88797e-08
1.29854e-05
1.93233e-08
1.29919e-05
1.92833e-08
1.29982e-05
1.88865e-08
1.30043e-05
1.82393e-08
1.30103e-05
1.7421e-08
1.3016e-05
1.64884e-08
1.30215e-05
1.54827e-08
1.30267e-05
1.44346e-08
1.30317e-05
1.33675e-08
1.30364e-05
1.22995e-08
1.30409e-05
1.12428e-08
1.02185e-08
1.30452e-05
1.51096e-05
1.89558e-09
1.51128e-05
5.3629e-09
1.51175e-05
8.10289e-09
1.51233e-05
1.00606e-08
1.51298e-05
1.13171e-08
1.51367e-05
1.20166e-08
1.51437e-05
1.22879e-08
1.51507e-05
1.22295e-08
1.51577e-05
1.19229e-08
1.51645e-05
1.14368e-08
1.51711e-05
1.08254e-08
1.51775e-05
1.01291e-08
1.51836e-05
9.37833e-09
1.51894e-05
8.59641e-09
1.5195e-05
7.80159e-09
1.52003e-05
7.00843e-09
1.52053e-05
6.22701e-09
5.47488e-09
1.521e-05
1.76256e-05
7.40445e-10
1.76289e-05
2.10564e-09
1.76338e-05
3.17331e-09
1.76399e-05
3.92024e-09
1.76469e-05
4.37531e-09
1.76543e-05
4.59061e-09
1.7662e-05
4.6131e-09
1.76697e-05
4.48169e-09
1.76774e-05
4.23068e-09
1.7685e-05
3.89053e-09
1.76923e-05
3.48608e-09
1.76994e-05
3.0374e-09
1.77062e-05
2.56049e-09
1.77127e-05
2.06867e-09
1.7719e-05
1.57271e-09
1.77249e-05
1.08182e-09
1.77305e-05
6.02173e-10
1.4695e-10
1.77358e-05
1.78273e-05
-3.49476e-10
1.78304e-05
-9.84729e-10
1.78351e-05
-1.5322e-09
1.7841e-05
-1.97975e-09
1.78477e-05
-2.32909e-09
1.78549e-05
-2.60715e-09
1.78623e-05
-2.84586e-09
1.78699e-05
-3.06499e-09
1.78774e-05
-3.27413e-09
1.78848e-05
-3.48044e-09
1.78919e-05
-3.68803e-09
1.78989e-05
-3.89828e-09
1.79055e-05
-4.10957e-09
1.79119e-05
-4.31968e-09
1.7918e-05
-4.52548e-09
1.79238e-05
-4.72388e-09
1.79293e-05
-4.91251e-09
-5.08277e-09
1.79346e-05
1.58823e-05
-1.32967e-09
1.58851e-05
-3.76014e-09
1.58893e-05
-5.76821e-09
1.58946e-05
-7.28184e-09
1.59006e-05
-8.32452e-09
1.5907e-05
-9.01379e-09
1.59136e-05
-9.46275e-09
1.59203e-05
-9.73965e-09
1.59269e-05
-9.89291e-09
1.59334e-05
-9.96434e-09
1.59397e-05
-9.98567e-09
1.59458e-05
-9.97599e-09
1.59516e-05
-9.94678e-09
1.59572e-05
-9.9046e-09
1.59625e-05
-9.85352e-09
1.59676e-05
-9.79485e-09
1.59724e-05
-9.72988e-09
-9.6529e-09
1.5977e-05
1.41496e-05
-2.25512e-09
1.41522e-05
-6.38884e-09
1.41562e-05
-9.79681e-09
1.41612e-05
-1.22814e-08
1.41668e-05
-1.38992e-08
1.41727e-05
-1.49062e-08
1.41787e-05
-1.55e-08
1.41848e-05
-1.57859e-08
1.41907e-05
-1.58494e-08
1.41966e-05
-1.57687e-08
1.42022e-05
-1.55994e-08
1.42076e-05
-1.53755e-08
1.42127e-05
-1.51183e-08
1.42177e-05
-1.48424e-08
1.42224e-05
-1.45569e-08
1.42269e-05
-1.42669e-08
1.42311e-05
-1.39756e-08
-1.368e-08
1.42351e-05
1.26059e-05
-3.13824e-09
1.26085e-05
-8.97331e-09
1.26125e-05
-1.3797e-08
1.26174e-05
-1.71506e-08
1.26227e-05
-1.92111e-08
1.26282e-05
-2.04474e-08
1.26338e-05
-2.11176e-08
1.26394e-05
-2.13501e-08
1.26448e-05
-2.12784e-08
1.26501e-05
-2.10206e-08
1.26551e-05
-2.06507e-08
1.266e-05
-2.02122e-08
1.26646e-05
-1.97344e-08
1.2669e-05
-1.92379e-08
1.26732e-05
-1.87353e-08
1.26771e-05
-1.82342e-08
1.26809e-05
-1.77387e-08
-1.72474e-08
1.26845e-05
1.12306e-05
-3.93336e-09
1.12332e-05
-1.15853e-08
1.12373e-05
-1.79264e-08
1.12422e-05
-2.19818e-08
1.12473e-05
-2.43266e-08
1.12526e-05
-2.5721e-08
1.12578e-05
-2.64033e-08
1.1263e-05
-2.65156e-08
1.1268e-05
-2.62619e-08
1.12728e-05
-2.58012e-08
1.12773e-05
-2.52186e-08
1.12817e-05
-2.4563e-08
1.12858e-05
-2.38699e-08
1.12898e-05
-2.31638e-08
1.12935e-05
-2.24593e-08
1.1297e-05
-2.17641e-08
1.13003e-05
-2.10831e-08
-2.04148e-08
1.13035e-05
1.00052e-05
-4.54013e-09
1.00079e-05
-1.42656e-08
1.00123e-05
-2.23148e-08
1.00171e-05
-2.68176e-08
1.00221e-05
-2.92858e-08
1.00271e-05
-3.07697e-08
1.00321e-05
-3.1385e-08
1.00369e-05
-3.13126e-08
1.00415e-05
-3.08439e-08
1.00459e-05
-3.01652e-08
1.005e-05
-2.93627e-08
1.00539e-05
-2.84896e-08
1.00576e-05
-2.75867e-08
1.00612e-05
-2.66808e-08
1.00645e-05
-2.57866e-08
1.00676e-05
-2.49117e-08
1.00706e-05
-2.40601e-08
-2.32309e-08
1.00734e-05
8.91342e-06
-4.85846e-09
8.91627e-06
-1.7122e-08
8.92087e-06
-2.69077e-08
8.92562e-06
-3.15732e-08
8.93047e-06
-3.41396e-08
8.93537e-06
-3.56628e-08
8.94009e-06
-3.61044e-08
8.94455e-06
-3.57796e-08
8.94878e-06
-3.50709e-08
8.95278e-06
-3.41647e-08
8.95655e-06
-3.31378e-08
8.96011e-06
-3.20464e-08
8.96346e-06
-3.09355e-08
8.96661e-06
-2.98329e-08
8.96958e-06
-2.87532e-08
8.97237e-06
-2.77036e-08
8.975e-06
-2.66868e-08
-2.56999e-08
8.97747e-06
7.94029e-06
-4.48082e-09
7.9439e-06
-2.07272e-08
7.94845e-06
-3.14664e-08
7.9529e-06
-3.60178e-08
7.95768e-06
-3.89173e-08
7.96252e-06
-4.05118e-08
7.96712e-06
-4.06978e-08
7.97139e-06
-4.00548e-08
7.97538e-06
-3.90562e-08
7.97909e-06
-3.78772e-08
7.98254e-06
-3.65873e-08
7.98574e-06
-3.52466e-08
7.98871e-06
-3.39027e-08
7.99146e-06
-3.25827e-08
7.994e-06
-3.13012e-08
7.99637e-06
-3.00652e-08
7.99856e-06
-2.88771e-08
-2.77334e-08
8.00059e-06
7.07144e-06
-1.58655e-09
7.07705e-06
-2.6341e-08
7.08197e-06
-3.63829e-08
7.08647e-06
-4.05237e-08
7.09142e-06
-4.38674e-08
7.09633e-06
-4.54233e-08
7.10086e-06
-4.52273e-08
7.10498e-06
-4.41693e-08
7.1087e-06
-4.2779e-08
7.11204e-06
-4.12197e-08
7.11502e-06
-3.95686e-08
7.11767e-06
-3.78952e-08
7.12002e-06
-3.625e-08
7.12209e-06
-3.46574e-08
7.12392e-06
-3.31325e-08
7.12554e-06
-3.16798e-08
7.12696e-06
-3.03002e-08
-2.89802e-08
7.12821e-06
6.29507e-06
5.85588e-09
6.30331e-06
-3.45794e-08
6.31001e-06
-4.30815e-08
6.31612e-06
-4.66376e-08
6.322e-06
-4.97515e-08
6.32707e-06
-5.04896e-08
6.33123e-06
-4.93897e-08
6.33465e-06
-4.75874e-08
6.33744e-06
-4.55669e-08
6.33966e-06
-4.34389e-08
6.34136e-06
-4.12752e-08
6.34262e-06
-3.91501e-08
6.34348e-06
-3.71133e-08
6.34401e-06
-3.51825e-08
6.34425e-06
-3.33713e-08
6.34425e-06
-3.16801e-08
6.34405e-06
-3.01093e-08
-2.8633e-08
6.34371e-06
5.61011e-06
1.06493e-08
5.61835e-06
-4.28274e-08
5.62589e-06
-5.06213e-08
5.63325e-06
-5.39908e-08
5.63958e-06
-5.60811e-08
5.64401e-06
-5.49219e-08
5.64654e-06
-5.19246e-08
5.64752e-06
-4.85672e-08
5.64728e-06
-4.53236e-08
5.64607e-06
-4.22319e-08
5.64411e-06
-3.9309e-08
5.64155e-06
-3.65947e-08
5.63854e-06
-3.41051e-08
5.63519e-06
-3.18347e-08
5.6316e-06
-2.9775e-08
5.62784e-06
-2.79235e-08
5.62401e-06
-2.62766e-08
-2.47543e-08
5.62013e-06
5.03204e-06
-1.90852e-08
5.03726e-06
-4.80442e-08
5.03796e-06
-5.13241e-08
5.03607e-06
-5.21053e-08
5.03236e-06
-5.23624e-08
5.02647e-06
-4.90329e-08
5.0184e-06
-4.38616e-08
5.00863e-06
-3.87941e-08
4.99767e-06
-3.43631e-08
4.98597e-06
-3.05346e-08
4.9739e-06
-2.72405e-08
4.96173e-06
-2.44265e-08
4.94965e-06
-2.20228e-08
4.93779e-06
-1.99686e-08
4.92622e-06
-1.82114e-08
4.91505e-06
-1.67489e-08
4.90439e-06
-1.56143e-08
-1.52696e-08
4.8949e-06
4.43746e-06
4.38942e-06
4.3381e-06
4.28599e-06
4.23363e-06
4.18459e-06
4.14073e-06
4.10194e-06
4.06758e-06
4.03704e-06
4.0098e-06
3.98537e-06
3.96335e-06
3.94338e-06
3.92517e-06
3.90842e-06
3.89281e-06
3.87754e-06
1.06564e-08
-1.06973e-08
2.37109e-08
-1.31103e-08
3.3372e-08
-9.71653e-09
3.80937e-08
-4.76295e-09
3.76667e-08
3.79058e-10
3.26442e-08
4.98576e-09
2.39042e-08
8.69597e-09
1.23625e-08
1.15059e-08
-1.25649e-09
1.35786e-08
-1.64706e-08
1.51791e-08
-3.30046e-08
1.65e-08
-5.06792e-08
1.76394e-08
-6.93964e-08
1.86853e-08
-8.91143e-08
1.96817e-08
-1.09792e-07
2.06477e-08
-1.3142e-07
2.15893e-08
-1.53958e-07
2.2508e-08
-1.774e-07
2.34022e-08
-2.017e-07
2.42708e-08
-2.26853e-07
2.5111e-08
-2.528e-07
2.59212e-08
-2.79539e-07
2.66966e-08
-3.06997e-07
2.74362e-08
-3.35174e-07
2.81369e-08
-3.63993e-07
2.8805e-08
-3.93475e-07
2.94504e-08
-4.23581e-07
3.0099e-08
-4.5439e-07
3.07898e-08
-4.85872e-07
3.14823e-08
-5.179e-07
3.20208e-08
-5.50552e-07
3.26569e-08
-5.83722e-07
3.3168e-08
-6.1676e-07
3.30432e-08
-6.49971e-07
3.32087e-08
-6.84822e-07
3.4854e-08
-7.21612e-07
3.67866e-08
-7.60087e-07
3.84762e-08
-8.00872e-07
4.07811e-08
-8.45553e-07
4.46824e-08
-8.93207e-07
4.76505e-08
-9.43837e-07
5.06319e-08
-9.86533e-07
4.26931e-08
-1.02072e-06
3.41938e-08
-1.06018e-06
3.94573e-08
-1.10214e-06
4.1966e-08
-1.14535e-06
4.32033e-08
-1.18924e-06
4.39007e-08
-1.23343e-06
4.41893e-08
-1.27768e-06
4.42496e-08
-1.32185e-06
4.4181e-08
-1.36589e-06
4.40352e-08
-1.40972e-06
4.38372e-08
-1.45332e-06
4.36039e-08
-1.49666e-06
4.33436e-08
-1.53972e-06
4.30621e-08
-1.58248e-06
4.27619e-08
-1.62493e-06
4.24438e-08
-1.66703e-06
4.21079e-08
-1.70879e-06
4.17531e-08
-1.75016e-06
4.1378e-08
-1.79114e-06
4.0981e-08
-1.8317e-06
4.056e-08
-1.87182e-06
4.01132e-08
-1.91146e-06
3.96385e-08
-1.95059e-06
3.9134e-08
-1.98919e-06
3.85976e-08
-2.02722e-06
3.80279e-08
-2.06464e-06
3.74229e-08
-2.10142e-06
3.67814e-08
-2.13753e-06
3.6102e-08
-2.17291e-06
3.53835e-08
-2.20754e-06
3.4625e-08
-2.24136e-06
3.38257e-08
-2.27435e-06
3.29849e-08
-2.30645e-06
3.21023e-08
-2.33763e-06
3.11776e-08
-2.36784e-06
3.02107e-08
-2.39704e-06
2.92017e-08
-2.4252e-06
2.81506e-08
-2.45225e-06
2.70578e-08
-2.47818e-06
2.59237e-08
-2.50293e-06
2.47487e-08
-2.52646e-06
2.35333e-08
-2.54874e-06
2.2278e-08
-2.56972e-06
2.09832e-08
-2.58937e-06
1.96492e-08
-2.60765e-06
1.82763e-08
-2.62452e-06
1.68643e-08
-2.63993e-06
1.54122e-08
-2.65385e-06
1.39175e-08
-2.66623e-06
1.23765e-08
-2.67701e-06
1.07836e-08
-2.68615e-06
9.13291e-09
-2.69357e-06
7.41602e-09
-2.69919e-06
5.6197e-09
-2.70292e-06
3.72702e-09
-2.70466e-06
1.74222e-09
-2.70443e-06
-2.40085e-10
-2.7024e-06
-2.02892e-09
-2.69877e-06
-3.63752e-09
-2.69356e-06
-5.2075e-09
-2.6868e-06
-6.7659e-09
-2.67847e-06
-8.32542e-09
-2.66859e-06
-9.88771e-09
-2.65714e-06
-1.14526e-08
-2.64412e-06
-1.30185e-08
-2.62954e-06
-1.45838e-08
-2.6134e-06
-1.61467e-08
-2.5957e-06
-1.77052e-08
-2.57645e-06
-1.92575e-08
-2.55565e-06
-2.08016e-08
-2.53332e-06
-2.23357e-08
-2.50946e-06
-2.38578e-08
-2.4841e-06
-2.53663e-08
-2.45725e-06
-2.68589e-08
-2.42892e-06
-2.83343e-08
-2.39914e-06
-2.97903e-08
-2.36792e-06
-3.12256e-08
-2.33528e-06
-3.26379e-08
-2.30127e-06
-3.4026e-08
-2.26588e-06
-3.53877e-08
-2.22917e-06
-3.6722e-08
-2.19115e-06
-3.80265e-08
-2.15186e-06
-3.93006e-08
-2.11132e-06
-4.05418e-08
-2.06957e-06
-4.17503e-08
-2.02665e-06
-4.29246e-08
-1.98259e-06
-4.40656e-08
-1.93742e-06
-4.51712e-08
-1.89118e-06
-4.62402e-08
-1.8439e-06
-4.72726e-08
-1.79563e-06
-4.8269e-08
-1.7464e-06
-4.92217e-08
-1.69627e-06
-5.01344e-08
-1.64526e-06
-5.10101e-08
-1.59341e-06
-5.18452e-08
-1.54077e-06
-5.26348e-08
-1.48738e-06
-5.33813e-08
-1.43329e-06
-5.40852e-08
-1.37854e-06
-5.47478e-08
-1.32317e-06
-5.5367e-08
-1.26722e-06
-5.59435e-08
-1.21073e-06
-5.64747e-08
-1.15375e-06
-5.6963e-08
-1.09632e-06
-5.74075e-08
-1.03848e-06
-5.78108e-08
-9.8027e-07
-5.81727e-08
-9.21737e-07
-5.84948e-08
-8.62919e-07
-5.87777e-08
-8.03858e-07
-5.90221e-08
-7.44592e-07
-5.92295e-08
-6.85157e-07
-5.94004e-08
-6.25588e-07
-5.95365e-08
-5.65919e-07
-5.9638e-08
-5.06185e-07
-5.9707e-08
-4.46416e-07
-5.97435e-08
-3.86645e-07
-5.97496e-08
-3.269e-07
-5.97241e-08
-2.67215e-07
-5.96686e-08
-2.07617e-07
-5.95835e-08
-1.48133e-07
-5.94726e-08
-8.87859e-08
-5.93376e-08
-2.96557e-08
-5.91239e-08
2.92171e-08
-5.88676e-08
8.78695e-08
-5.86509e-08
1.46263e-07
-5.8393e-08
2.04341e-07
-5.80808e-08
2.62105e-07
-5.77684e-08
3.19553e-07
-5.74545e-08
3.7667e-07
-5.71259e-08
4.33424e-07
-5.6766e-08
4.89758e-07
-5.63471e-08
5.45569e-07
-5.5827e-08
6.0068e-07
-5.51292e-08
6.54772e-07
-5.4112e-08
7.07225e-07
-5.2475e-08
7.56732e-07
-4.9531e-08
8.00169e-07
-4.34598e-08
8.29514e-07
-2.93665e-08
1.54495e-08
8.14049e-07
8.97619e-09
-1.97119e-08
1.23146e-08
-1.64929e-08
1.10171e-08
-8.45201e-09
6.52786e-09
-2.97499e-10
-4.8245e-10
7.36501e-09
-9.78849e-09
1.4272e-08
-2.13637e-08
2.02502e-08
-3.51279e-08
2.52519e-08
-5.09305e-08
2.93625e-08
-6.8526e-08
3.27568e-08
-8.76736e-08
3.56302e-08
-1.08203e-07
3.81516e-08
-1.29982e-07
4.04472e-08
-1.5292e-07
4.26013e-08
-1.76953e-07
4.46646e-08
-2.02049e-07
4.66659e-08
-2.28179e-07
4.86212e-08
-2.55337e-07
5.05399e-08
-2.8351e-07
5.24274e-08
-3.12708e-07
5.42874e-08
-3.42926e-07
5.61227e-08
-3.74187e-07
5.79347e-08
-4.06491e-07
5.97258e-08
-4.39873e-07
6.14974e-08
-4.74334e-07
6.32543e-08
-5.09908e-07
6.50067e-08
-5.46591e-07
6.67746e-08
-5.84374e-07
6.85629e-08
-6.23233e-07
7.03395e-08
-6.63285e-07
7.20693e-08
-7.0443e-07
7.38035e-08
-7.46793e-07
7.55307e-08
-7.90905e-07
7.71574e-08
-8.36597e-07
7.89001e-08
-8.82824e-07
8.10825e-08
-9.29372e-07
8.33327e-08
-9.76281e-07
8.53855e-08
-1.02296e-06
8.74588e-08
-1.06776e-06
8.94846e-08
-1.11087e-06
9.07567e-08
-1.15096e-06
9.07214e-08
-1.19625e-06
8.79788e-08
-1.24692e-06
8.48663e-08
-1.29213e-06
8.46711e-08
-1.33492e-06
8.47566e-08
-1.37644e-06
8.47229e-08
-1.4171e-06
8.45605e-08
-1.45717e-06
8.42646e-08
-1.49677e-06
8.38529e-08
-1.53595e-06
8.33592e-08
-1.57472e-06
8.28069e-08
-1.61309e-06
8.2211e-08
-1.65106e-06
8.15806e-08
-1.68864e-06
8.09205e-08
-1.72581e-06
8.02326e-08
-1.76256e-06
7.9517e-08
-1.79889e-06
7.87722e-08
-1.83478e-06
7.79956e-08
-1.87021e-06
7.71843e-08
-1.90517e-06
7.63348e-08
-1.93963e-06
7.54434e-08
-1.97358e-06
7.45065e-08
-2.00698e-06
7.35203e-08
-2.03983e-06
7.24814e-08
-2.07208e-06
7.13862e-08
-2.10371e-06
7.02318e-08
-2.1347e-06
6.9015e-08
-2.16501e-06
6.77333e-08
-2.19461e-06
6.63844e-08
-2.22348e-06
6.4966e-08
-2.25157e-06
6.34767e-08
-2.27886e-06
6.19148e-08
-2.30532e-06
6.02792e-08
-2.3309e-06
5.85691e-08
-2.35558e-06
5.6784e-08
-2.37933e-06
5.49236e-08
-2.40211e-06
5.29879e-08
-2.42388e-06
5.0977e-08
-2.44463e-06
4.88916e-08
-2.4643e-06
4.67321e-08
-2.48288e-06
4.44996e-08
-2.50032e-06
4.21948e-08
-2.51661e-06
3.9819e-08
-2.53171e-06
3.73732e-08
-2.54558e-06
3.48588e-08
-2.55821e-06
3.22769e-08
-2.56956e-06
2.96288e-08
-2.57962e-06
2.69155e-08
-2.58834e-06
2.41381e-08
-2.59572e-06
2.12967e-08
-2.60174e-06
1.83917e-08
-2.60638e-06
1.54245e-08
-2.60965e-06
1.23977e-08
-2.61155e-06
9.31511e-09
-2.61211e-06
6.1842e-09
-2.61141e-06
3.02402e-09
-2.60955e-06
-1.24173e-10
-2.60657e-06
-3.21536e-09
-2.60234e-06
-6.26877e-09
-2.59665e-06
-9.3277e-09
-2.58946e-06
-1.23964e-08
-2.58075e-06
-1.5474e-08
-2.57052e-06
-1.8562e-08
-2.55875e-06
-2.16584e-08
-2.54544e-06
-2.47606e-08
-2.5306e-06
-2.78654e-08
-2.51422e-06
-3.09691e-08
-2.4963e-06
-3.4068e-08
-2.47685e-06
-3.71584e-08
-2.45587e-06
-4.02364e-08
-2.43338e-06
-4.32983e-08
-2.40937e-06
-4.63403e-08
-2.38388e-06
-4.93588e-08
-2.3569e-06
-5.235e-08
-2.32845e-06
-5.53103e-08
-2.29855e-06
-5.82361e-08
-2.26722e-06
-6.1124e-08
-2.23448e-06
-6.39705e-08
-2.20035e-06
-6.67721e-08
-2.16485e-06
-6.95254e-08
-2.12802e-06
-7.22273e-08
-2.08987e-06
-7.48743e-08
-2.05044e-06
-7.74634e-08
-2.00975e-06
-7.99915e-08
-1.96784e-06
-8.24557e-08
-1.92474e-06
-8.4854e-08
-1.88048e-06
-8.71845e-08
-1.8351e-06
-8.9447e-08
-1.78863e-06
-9.164e-08
-1.74111e-06
-9.37618e-08
-1.69257e-06
-9.58118e-08
-1.64305e-06
-9.77867e-08
-1.59259e-06
-9.96782e-08
-1.54124e-06
-1.0149e-07
-1.48902e-06
-1.03226e-07
-1.43598e-06
-1.04881e-07
-1.38217e-06
-1.06449e-07
-1.32761e-06
-1.07931e-07
-1.27237e-06
-1.09328e-07
-1.21647e-06
-1.10641e-07
-1.15997e-06
-1.11869e-07
-1.1029e-06
-1.13011e-07
-1.0453e-06
-1.14065e-07
-9.87221e-07
-1.15034e-07
-9.28698e-07
-1.15917e-07
-8.69776e-07
-1.16717e-07
-8.10495e-07
-1.17434e-07
-7.50897e-07
-1.18072e-07
-6.91023e-07
-1.18631e-07
-6.30912e-07
-1.19114e-07
-5.706e-07
-1.19522e-07
-5.10125e-07
-1.19858e-07
-4.49521e-07
-1.20124e-07
-3.88823e-07
-1.20321e-07
-3.28064e-07
-1.20453e-07
-2.67275e-07
-1.2052e-07
-2.06487e-07
-1.20526e-07
-1.45731e-07
-1.20471e-07
-8.50342e-08
-1.20357e-07
-2.44253e-08
-1.20186e-07
3.60728e-08
-1.19966e-07
9.64349e-08
-1.19697e-07
1.56666e-07
-1.19352e-07
2.16722e-07
-1.18924e-07
2.76496e-07
-1.18424e-07
3.35967e-07
-1.17866e-07
3.95157e-07
-1.17273e-07
4.54055e-07
-1.1667e-07
5.12646e-07
-1.1605e-07
5.70907e-07
-1.15394e-07
6.288e-07
-1.14667e-07
6.86261e-07
-1.13818e-07
7.43187e-07
-1.12763e-07
7.99398e-07
-1.11353e-07
8.54584e-07
-1.09311e-07
9.08198e-07
-1.06104e-07
9.59168e-07
-1.00516e-07
1.0058e-06
-9.0113e-08
1.04464e-06
-6.82155e-08
-1.62463e-08
1.07632e-06
6.27834e-10
-2.03674e-08
-4.88818e-09
-1.10064e-08
-1.31097e-08
-2.5096e-10
-2.30487e-08
9.62738e-09
-3.43595e-08
1.86622e-08
-4.69688e-08
2.687e-08
-6.09463e-08
3.42162e-08
-7.63898e-08
4.06849e-08
-9.33601e-08
4.63222e-08
-1.11849e-07
5.12358e-08
-1.31795e-07
5.55668e-08
-1.53114e-07
5.94596e-08
-1.75714e-07
6.30391e-08
-1.99525e-07
6.64017e-08
-2.24485e-07
6.96163e-08
-2.50559e-07
7.273e-08
-2.77719e-07
7.57737e-08
-3.05958e-07
7.87682e-08
-3.35267e-07
8.1728e-08
-3.65654e-07
8.46629e-08
-3.9712e-07
8.75802e-08
-4.29682e-07
9.04842e-08
-4.63342e-07
9.33773e-08
-4.98117e-07
9.62592e-08
-5.33997e-07
9.91275e-08
-5.70976e-07
1.01975e-07
-6.08991e-07
1.04784e-07
-6.47963e-07
1.07528e-07
-6.87791e-07
1.10166e-07
-7.28381e-07
1.12658e-07
-7.69558e-07
1.14982e-07
-8.11137e-07
1.1711e-07
-8.53004e-07
1.19026e-07
-8.94931e-07
1.20827e-07
-9.36428e-07
1.22581e-07
-9.77302e-07
1.24206e-07
-1.01747e-06
1.25549e-07
-1.05664e-06
1.26631e-07
-1.09447e-06
1.27317e-07
-1.13111e-06
1.27399e-07
-1.16708e-06
1.26683e-07
-1.20434e-06
1.25243e-07
-1.24307e-06
1.23599e-07
-1.28089e-06
1.22486e-07
-1.31775e-06
1.21618e-07
-1.35389e-06
1.20867e-07
-1.38948e-06
1.20146e-07
-1.42462e-06
1.19407e-07
-1.45939e-06
1.18631e-07
-1.49385e-06
1.17818e-07
-1.52801e-06
1.16969e-07
-1.56189e-06
1.16087e-07
-1.59548e-06
1.15172e-07
-1.62878e-06
1.14224e-07
-1.66179e-06
1.1324e-07
-1.69449e-06
1.12218e-07
-1.72687e-06
1.11153e-07
-1.75891e-06
1.1004e-07
-1.7906e-06
1.08875e-07
-1.82192e-06
1.07652e-07
-1.85284e-06
1.06366e-07
-1.88335e-06
1.05011e-07
-1.91341e-06
1.03583e-07
-1.94301e-06
1.02076e-07
-1.97211e-06
1.00486e-07
-2.00068e-06
9.88091e-08
-2.02871e-06
9.70404e-08
-2.05615e-06
9.51766e-08
-2.08298e-06
9.32147e-08
-2.10917e-06
9.11516e-08
-2.13468e-06
8.89851e-08
-2.15948e-06
8.67133e-08
-2.18353e-06
8.43346e-08
-2.20681e-06
8.18478e-08
-2.22928e-06
7.92522e-08
-2.25091e-06
7.65477e-08
-2.27165e-06
7.3734e-08
-2.29149e-06
7.08117e-08
-2.31038e-06
6.77814e-08
-2.32829e-06
6.46443e-08
-2.34519e-06
6.14017e-08
-2.36105e-06
5.80551e-08
-2.37584e-06
5.46064e-08
-2.38953e-06
5.10577e-08
-2.40208e-06
4.74113e-08
-2.41347e-06
4.36698e-08
-2.42368e-06
3.98358e-08
-2.43268e-06
3.59124e-08
-2.44044e-06
3.19028e-08
-2.44696e-06
2.78105e-08
-2.4522e-06
2.36397e-08
-2.45618e-06
1.93961e-08
-2.45887e-06
1.50875e-08
-2.46028e-06
1.07234e-08
-2.46041e-06
6.31649e-09
-2.45927e-06
1.88461e-09
-2.45685e-06
-2.551e-09
-2.45308e-06
-6.98338e-09
-2.44792e-06
-1.1435e-08
-2.44132e-06
-1.59233e-08
-2.43328e-06
-2.04428e-08
-2.42376e-06
-2.49877e-08
-2.41277e-06
-2.95528e-08
-2.4003e-06
-3.41331e-08
-2.38634e-06
-3.87233e-08
-2.37089e-06
-4.3318e-08
-2.35395e-06
-4.79115e-08
-2.33552e-06
-5.24983e-08
-2.31561e-06
-5.70729e-08
-2.29421e-06
-6.16295e-08
-2.27135e-06
-6.61625e-08
-2.24703e-06
-7.06665e-08
-2.22125e-06
-7.51359e-08
-2.19404e-06
-7.95653e-08
-2.1654e-06
-8.39493e-08
-2.13536e-06
-8.82826e-08
-2.10393e-06
-9.25601e-08
-2.07112e-06
-9.67765e-08
-2.03697e-06
-1.00927e-07
-2.00149e-06
-1.05006e-07
-1.96471e-06
-1.0901e-07
-1.92666e-06
-1.12933e-07
-1.88735e-06
-1.16771e-07
-1.84683e-06
-1.20518e-07
-1.80511e-06
-1.24172e-07
-1.76224e-06
-1.27728e-07
-1.71824e-06
-1.31184e-07
-1.67315e-06
-1.34538e-07
-1.62701e-06
-1.37789e-07
-1.57983e-06
-1.40935e-07
-1.53167e-06
-1.43974e-07
-1.48255e-06
-1.46901e-07
-1.43252e-06
-1.49708e-07
-1.38162e-06
-1.52397e-07
-1.32987e-06
-1.5497e-07
-1.27733e-06
-1.57423e-07
-1.22403e-06
-1.59749e-07
-1.17001e-06
-1.61948e-07
-1.11532e-06
-1.64021e-07
-1.05999e-06
-1.65968e-07
-1.00407e-06
-1.67789e-07
-9.47598e-07
-1.69481e-07
-8.90614e-07
-1.71045e-07
-8.3316e-07
-1.72482e-07
-7.75275e-07
-1.73792e-07
-7.17003e-07
-1.74979e-07
-6.58382e-07
-1.76043e-07
-5.99454e-07
-1.76988e-07
-5.40258e-07
-1.77816e-07
-4.80832e-07
-1.78529e-07
-4.21213e-07
-1.79132e-07
-3.61437e-07
-1.79626e-07
-3.01539e-07
-1.80015e-07
-2.41551e-07
-1.80302e-07
-1.81508e-07
-1.8049e-07
-1.2144e-07
-1.80583e-07
-6.13772e-08
-1.80585e-07
-1.3464e-09
-1.80498e-07
5.86235e-08
-1.80324e-07
1.18504e-07
-1.80064e-07
1.78267e-07
-1.79726e-07
2.37883e-07
-1.79311e-07
2.97342e-07
-1.7881e-07
3.56629e-07
-1.78209e-07
4.15712e-07
-1.77506e-07
4.74565e-07
-1.76718e-07
5.33169e-07
-1.75877e-07
5.91503e-07
-1.75003e-07
6.4954e-07
-1.74088e-07
7.07252e-07
-1.73106e-07
7.64598e-07
-1.72013e-07
8.21513e-07
-1.70734e-07
8.77897e-07
-1.69148e-07
9.33585e-07
-1.67042e-07
9.88307e-07
-1.64036e-07
1.04162e-06
-1.59419e-07
1.09284e-06
-1.51739e-07
1.14104e-06
-1.38312e-07
1.18573e-06
-1.12911e-07
-6.21167e-08
1.2316e-06
-7.23761e-09
-1.3151e-08
-1.87226e-08
4.58435e-10
-3.15799e-08
1.25932e-08
-4.52756e-08
2.33136e-08
-5.97072e-08
3.3085e-08
-7.49092e-08
4.20643e-08
-9.09875e-08
5.02873e-08
-1.08072e-07
5.77622e-08
-1.26275e-07
6.45187e-08
-1.45669e-07
7.06232e-08
-1.66279e-07
7.61708e-08
-1.88094e-07
8.12688e-08
-2.11081e-07
8.60204e-08
-2.35199e-07
9.05146e-08
-2.60408e-07
9.48219e-08
-2.86678e-07
9.89947e-08
-3.13978e-07
1.03071e-07
-3.42292e-07
1.07076e-07
-3.71595e-07
1.11029e-07
-4.01876e-07
1.14939e-07
-4.3311e-07
1.18811e-07
-4.65277e-07
1.22644e-07
-4.98335e-07
1.26432e-07
-5.32244e-07
1.3016e-07
-5.66927e-07
1.33807e-07
-6.023e-07
1.3734e-07
-6.38235e-07
1.40718e-07
-6.74601e-07
1.4389e-07
-7.11245e-07
1.4681e-07
-7.48023e-07
1.49435e-07
-7.84779e-07
1.51738e-07
-8.2137e-07
1.53703e-07
-8.57684e-07
1.55341e-07
-8.93571e-07
1.56715e-07
-9.28873e-07
1.57884e-07
-9.63507e-07
1.58841e-07
-9.97491e-07
1.59533e-07
-1.0308e-06
1.59938e-07
-1.06347e-06
1.59985e-07
-1.09567e-06
1.59603e-07
-1.12776e-06
1.58775e-07
-1.16013e-06
1.57611e-07
-1.19284e-06
1.56305e-07
-1.22543e-06
1.55078e-07
-1.25776e-06
1.53952e-07
-1.2898e-06
1.52904e-07
-1.32155e-06
1.51899e-07
-1.35305e-06
1.50904e-07
-1.38432e-06
1.499e-07
-1.41538e-06
1.48877e-07
-1.44623e-06
1.47828e-07
-1.47689e-06
1.46747e-07
-1.50735e-06
1.45631e-07
-1.5376e-06
1.44473e-07
-1.56763e-06
1.43269e-07
-1.59742e-06
1.42013e-07
-1.62697e-06
1.40699e-07
-1.65625e-06
1.39319e-07
-1.68524e-06
1.37867e-07
-1.71392e-06
1.36336e-07
-1.74228e-06
1.34719e-07
-1.77028e-06
1.3301e-07
-1.7979e-06
1.31201e-07
-1.82511e-06
1.29288e-07
-1.85188e-06
1.27263e-07
-1.8782e-06
1.25123e-07
-1.90402e-06
1.22861e-07
-1.92932e-06
1.20473e-07
-1.95406e-06
1.17955e-07
-1.97821e-06
1.15305e-07
-2.00174e-06
1.12518e-07
-2.02462e-06
1.09592e-07
-2.04681e-06
1.06527e-07
-2.06829e-06
1.03319e-07
-2.089e-06
9.99686e-08
-2.10893e-06
9.64753e-08
-2.12804e-06
9.28391e-08
-2.14629e-06
8.90607e-08
-2.16365e-06
8.51411e-08
-2.18008e-06
8.10817e-08
-2.19557e-06
7.68845e-08
-2.21006e-06
7.25518e-08
-2.22354e-06
6.80863e-08
-2.23598e-06
6.3491e-08
-2.24734e-06
5.87694e-08
-2.25759e-06
5.39253e-08
-2.26672e-06
4.89631e-08
-2.27469e-06
4.38873e-08
-2.28149e-06
3.87032e-08
-2.2871e-06
3.34167e-08
-2.2915e-06
2.80343e-08
-2.29466e-06
2.25639e-08
-2.29659e-06
1.7015e-08
-2.29727e-06
1.1398e-08
-2.29668e-06
5.72478e-09
-2.2948e-06
7.88706e-12
-2.29161e-06
-5.74259e-09
-2.28707e-06
-1.15268e-08
-2.28115e-06
-1.73562e-08
-2.27384e-06
-2.3236e-08
-2.26512e-06
-2.91603e-08
-2.25499e-06
-3.51213e-08
-2.24343e-06
-4.11112e-08
-2.23044e-06
-4.71226e-08
-2.21602e-06
-5.31479e-08
-2.20016e-06
-5.91797e-08
-2.18286e-06
-6.52106e-08
-2.16413e-06
-7.12332e-08
-2.14396e-06
-7.724e-08
-2.12237e-06
-8.32236e-08
-2.09935e-06
-8.91769e-08
-2.07493e-06
-9.50922e-08
-2.04911e-06
-1.00963e-07
-2.02189e-06
-1.06781e-07
-1.9933e-06
-1.1254e-07
-1.96335e-06
-1.18233e-07
-1.93206e-06
-1.23852e-07