/*--------------------------------*- C++ -*----------------------------------*\
  =========                 |
  \\      /  F ield         | OpenFOAM: The Open Source CFD Toolbox
   \\    /   O peration     | Website:  https://openfoam.org
    \\  /    A nd           | Version:  8
     \\/     M anipulation  |
\*---------------------------------------------------------------------------*/
FoamFile
{
    version     2.0;
    format      ascii;
    class       volVectorField;
    location    "300";
    object      U;
}
// * * * * * * * * * * * * * * * * * * * * * * * * * * * * * * * * * * * * * //

dimensions      [0 1 -1 0 0 0 0];

internalField   nonuniform List<vector> 
12225
(
(9.85175 -0.900712 0)
(9.65344 -0.750059 0)
(9.43314 -0.433332 0)
(9.19287 -0.22317 0)
(8.96717 -0.106256 0)
(8.7691 -0.0453954 0)
(8.59785 -0.0147195 0)
(8.45299 0.000903919 0)
(8.3296 0.00857564 0)
(8.22602 0.0124687 0)
(8.13735 0.0142357 0)
(8.06132 0.0151293 0)
(7.99491 0.0154863 0)
(7.93653 0.0156092 0)
(7.88416 0.0155939 0)
(7.83912 0.0150834 0)
(7.78765 0.0180337 0)
(7.77974 0.0076325 0)
(10.0563 0.237266 0)
(10.1254 0.341966 0)
(10.1231 0.273642 0)
(10.0868 0.194673 0)
(10.0425 0.139973 0)
(9.99367 0.104545 0)
(9.93874 0.0814879 0)
(9.87753 0.0659208 0)
(9.8138 0.0550898 0)
(9.74903 0.047085 0)
(9.68545 0.0410011 0)
(9.62378 0.0362537 0)
(9.56486 0.0324177 0)
(9.5091 0.0293932 0)
(9.45619 0.0267254 0)
(9.40763 0.0254555 0)
(9.35981 0.0216543 0)
(9.32338 0.0291766 0)
(10.0031 0.0593507 0)
(10.0294 0.0556495 0)
(10.0556 0.0312167 0)
(10.0707 0.0303174 0)
(10.0782 0.0390213 0)
(10.0796 0.0457771 0)
(10.0747 0.0491669 0)
(10.0636 0.0504907 0)
(10.0483 0.0506195 0)
(10.0298 0.0500404 0)
(10.0091 0.0490713 0)
(9.98668 0.0479304 0)
(9.96339 0.0467362 0)
(9.9396 0.0455939 0)
(9.91565 0.0443963 0)
(9.89224 0.0436178 0)
(9.86909 0.0422496 0)
(9.84733 0.0426518 0)
(9.99737 0.0106283 0)
(10.0097 0.0259974 0)
(10.0341 0.0372173 0)
(10.0523 0.0490931 0)
(10.0647 0.0569976 0)
(10.0741 0.0598039 0)
(10.0806 0.0598628 0)
(10.084 0.0589885 0)
(10.0849 0.0578138 0)
(10.0839 0.0565128 0)
(10.0814 0.0551489 0)
(10.0776 0.0538201 0)
(10.0728 0.0525209 0)
(10.0673 0.0513202 0)
(10.0613 0.0500998 0)
(10.055 0.0491296 0)
(10.0486 0.0478191 0)
(10.0421 0.0468967 0)
(9.9993 0.00696199 0)
(10.0085 0.0318802 0)
(10.0269 0.0448238 0)
(10.0414 0.0509154 0)
(10.0524 0.0544495 0)
(10.0626 0.0559328 0)
(10.0715 0.0561371 0)
(10.0786 0.0558137 0)
(10.0841 0.0552493 0)
(10.0884 0.0545285 0)
(10.0917 0.0536972 0)
(10.0941 0.0528347 0)
(10.0958 0.0519537 0)
(10.0971 0.0511003 0)
(10.0979 0.0502112 0)
(10.0984 0.0493977 0)
(10.0988 0.0483731 0)
(10.0991 0.0473493 0)
(10.0004 0.00915484 0)
(10.0081 0.0311472 0)
(10.0222 0.0412259 0)
(10.0344 0.0456 0)
(10.0444 0.0491378 0)
(10.054 0.0515046 0)
(10.063 0.0525507 0)
(10.0708 0.0528188 0)
(10.0775 0.0526934 0)
(10.0833 0.052324 0)
(10.0884 0.0517863 0)
(10.0929 0.0511564 0)
(10.0969 0.0504659 0)
(10.1006 0.0497456 0)
(10.1039 0.0489663 0)
(10.1069 0.0481605 0)
(10.1099 0.0471984 0)
(10.1127 0.0460805 0)
(10.0005 0.00882571 0)
(10.0068 0.0264546 0)
(10.0183 0.0359868 0)
(10.0293 0.041069 0)
(10.0386 0.0450808 0)
(10.0475 0.047804 0)
(10.056 0.0491376 0)
(10.0637 0.0496276 0)
(10.0705 0.0496944 0)
(10.0767 0.0494991 0)
(10.0824 0.0491165 0)
(10.0876 0.0486116 0)
(10.0924 0.0480219 0)
(10.0969 0.0473679 0)
(10.1012 0.0466372 0)
(10.1052 0.0458293 0)
(10.1091 0.044879 0)
(10.1129 0.043741 0)
(10.0004 0.0077873 0)
(10.0057 0.0228979 0)
(10.0156 0.0324473 0)
(10.0256 0.0379148 0)
(10.0344 0.0418672 0)
(10.0428 0.0445539 0)
(10.0509 0.0459907 0)
(10.0583 0.0466241 0)
(10.065 0.0468242 0)
(10.0712 0.0467445 0)
(10.077 0.0464598 0)
(10.0824 0.0460313 0)
(10.0874 0.0454989 0)
(10.0922 0.0448801 0)
(10.0967 0.0441704 0)
(10.1011 0.0433599 0)
(10.1053 0.0424103 0)
(10.1093 0.0412826 0)
(10.0004 0.00692803 0)
(10.005 0.0203322 0)
(10.0135 0.0295198 0)
(10.0227 0.0350158 0)
(10.031 0.0388673 0)
(10.0389 0.0415372 0)
(10.0466 0.0430751 0)
(10.0538 0.0438316 0)
(10.0604 0.0441347 0)
(10.0665 0.0441397 0)
(10.0722 0.0439245 0)
(10.0776 0.0435493 0)
(10.0827 0.0430544 0)
(10.0876 0.0424576 0)
(10.0922 0.0417584 0)
(10.0967 0.0409475 0)
(10.101 0.0399999 0)
(10.1051 0.0388909 0)
(10.0004 0.0061273 0)
(10.0043 0.0178941 0)
(10.0115 0.0264281 0)
(10.0198 0.0318145 0)
(10.0276 0.0355655 0)
(10.0351 0.0382068 0)
(10.0423 0.039821 0)
(10.0492 0.0406791 0)
(10.0556 0.0410685 0)
(10.0616 0.041145 0)
(10.0673 0.0409889 0)
(10.0726 0.0406583 0)
(10.0777 0.0401931 0)
(10.0825 0.0396129 0)
(10.0872 0.0389212 0)
(10.0916 0.0381125 0)
(10.0959 0.0371716 0)
(10.0999 0.03609 0)
(10.0004 0.00533618 0)
(10.0036 0.0154891 0)
(10.0097 0.0232222 0)
(10.0171 0.0283934 0)
(10.0243 0.0320066 0)
(10.0313 0.03457 0)
(10.0381 0.0362111 0)
(10.0446 0.0371397 0)
(10.0508 0.0375963 0)
(10.0566 0.0377307 0)
(10.0622 0.0376237 0)
(10.0674 0.0373308 0)
(10.0724 0.0368912 0)
(10.0772 0.0363262 0)
(10.0817 0.035644 0)
(10.0861 0.0348443 0)
(10.0903 0.0339203 0)
(10.0942 0.0328769 0)
(10.0003 0.00454588 0)
(10.003 0.0131468 0)
(10.0082 0.0199758 0)
(10.0146 0.0247926 0)
(10.0211 0.0281959 0)
(10.0276 0.0306233 0)
(10.034 0.0322348 0)
(10.0402 0.0331953 0)
(10.0461 0.0336952 0)
(10.0517 0.0338708 0)
(10.057 0.0338014 0)
(10.0621 0.0335398 0)
(10.067 0.0331235 0)
(10.0716 0.032576 0)
(10.0761 0.0319094 0)
(10.0803 0.031129 0)
(10.0844 0.030235 0)
(10.0882 0.0292422 0)
(10.0003 0.00376873 0)
(10.0025 0.0108888 0)
(10.0068 0.0167293 0)
(10.0123 0.0210416 0)
(10.0183 0.0241445 0)
(10.0242 0.0263729 0)
(10.0301 0.0278921 0)
(10.0359 0.0288344 0)
(10.0415 0.0293449 0)
(10.0469 0.0295397 0)
(10.052 0.0294934 0)
(10.057 0.0292554 0)
(10.0617 0.0288613 0)
(10.0662 0.0283353 0)
(10.0704 0.027693 0)
(10.0745 0.0269443 0)
(10.0784 0.026095 0)
(10.0821 0.0251658 0)
(10.0002 0.00301292 0)
(10.0021 0.00871176 0)
(10.0057 0.0135021 0)
(10.0104 0.0171733 0)
(10.0157 0.0198729 0)
(10.0211 0.0218282 0)
(10.0266 0.0231841 0)
(10.032 0.0240474 0)
(10.0373 0.0245254 0)
(10.0424 0.0247107 0)
(10.0473 0.0246688 0)
(10.052 0.0244444 0)
(10.0565 0.0240702 0)
(10.0609 0.0235701 0)
(10.065 0.0229613 0)
(10.0689 0.022257 0)
(10.0726 0.0214662 0)
(10.0762 0.0206126 0)
(10.0002 0.00227884 0)
(10.0018 0.00659904 0)
(10.0048 0.0102952 0)
(10.0089 0.0132092 0)
(10.0135 0.0153959 0)
(10.0185 0.0169921 0)
(10.0235 0.0181074 0)
(10.0285 0.0188236 0)
(10.0335 0.0192173 0)
(10.0383 0.0193571 0)
(10.043 0.0192957 0)
(10.0475 0.0190711 0)
(10.0518 0.0187116 0)
(10.056 0.0182392 0)
(10.0599 0.0176709 0)
(10.0637 0.0170211 0)
(10.0672 0.0162998 0)
(10.0706 0.0155309 0)
(10.0002 0.0015591 0)
(10.0015 0.00452032 0)
(10.0041 0.00708181 0)
(10.0077 0.0091384 0)
(10.0118 0.0107023 0)
(10.0163 0.0118459 0)
(10.0209 0.0126387 0)
(10.0256 0.0131361 0)
(10.0303 0.0133883 0)
(10.0348 0.013441 0)
(10.0393 0.0133318 0)
(10.0436 0.0130893 0)
(10.0477 0.0127359 0)
(10.0517 0.0122896 0)
(10.0554 0.0117652 0)
(10.059 0.0111758 0)
(10.0624 0.0105309 0)
(10.0657 0.00985218 0)
(10.0001 0.000836664 0)
(10.0013 0.00242512 0)
(10.0036 0.00380079 0)
(10.0068 0.00490759 0)
(10.0106 0.00574375 0)
(10.0147 0.0063391 0)
(10.019 0.00672614 0)
(10.0234 0.00693273 0)
(10.0278 0.00698457 0)
(10.0322 0.0069059 0)
(10.0364 0.00671755 0)
(10.0405 0.00643666 0)
(10.0445 0.00607727 0)
(10.0482 0.00565154 0)
(10.0519 0.00516995 0)
(10.0553 0.00464234 0)
(10.0586 0.00407593 0)
(10.0617 0.00348858 0)
(10.0001 0.000126953 0)
(10.0012 0.000362346 0)
(10.0034 0.00054838 0)
(10.0064 0.000674561 0)
(10.01 0.000739472 0)
(10.014 0.000742996 0)
(10.0181 0.000684 0)
(10.0223 0.000563228 0)
(10.0266 0.000383881 0)
(10.0308 0.000149733 0)
(10.0349 -0.000135247 0)
(10.0388 -0.000466928 0)
(10.0426 -0.000840615 0)
(10.0463 -0.00125151 0)
(10.0498 -0.00169453 0)
(10.0532 -0.00216446 0)
(10.0563 -0.00265726 0)
(10.0593 -0.00315981 0)
(10.0001 -0.000528898 0)
(10.0012 -0.00154881 0)
(10.0034 -0.00247595 0)
(10.0065 -0.00327031 0)
(10.0101 -0.00392568 0)
(10.0141 -0.00447123 0)
(10.0182 -0.00494247 0)
(10.0224 -0.00536423 0)
(10.0266 -0.0057543 0)
(10.0307 -0.00612821 0)
(10.0348 -0.00649836 0)
(10.0387 -0.00687284 0)
(10.0424 -0.00725624 0)
(10.046 -0.0076508 0)
(10.0495 -0.00805716 0)
(10.0527 -0.00847442 0)
(10.0559 -0.00890192 0)
(10.0588 -0.00933052 0)
(10.0001 -0.00113264 0)
(10.0013 -0.00331896 0)
(10.0036 -0.00528285 0)
(10.0069 -0.00691119 0)
(10.0107 -0.00819439 0)
(10.0148 -0.0092074 0)
(10.0191 -0.0100227 0)
(10.0234 -0.0106861 0)
(10.0276 -0.0112365 0)
(10.0318 -0.0117105 0)
(10.0358 -0.0121365 0)
(10.0397 -0.0125333 0)
(10.0435 -0.0129131 0)
(10.047 -0.0132841 0)
(10.0504 -0.0136518 0)
(10.0537 -0.0140189 0)
(10.0568 -0.0143872 0)
(10.0597 -0.0147509 0)
(10.0001 -0.00170444 0)
(10.0014 -0.00503418 0)
(10.004 -0.00801946 0)
(10.0076 -0.0104083 0)
(10.0118 -0.0122173 0)
(10.0161 -0.0136138 0)
(10.0206 -0.014708 0)
(10.025 -0.0155553 0)
(10.0294 -0.0162144 0)
(10.0337 -0.0167462 0)
(10.0377 -0.0171954 0)
(10.0417 -0.0175903 0)
(10.0454 -0.0179494 0)
(10.049 -0.0182865 0)
(10.0524 -0.0186105 0)
(10.0556 -0.018927 0)
(10.0587 -0.0192393 0)
(10.0616 -0.019544 0)
(10.0001 -0.00223732 0)
(10.0015 -0.00673466 0)
(10.0044 -0.0107868 0)
(10.0086 -0.0138779 0)
(10.0132 -0.0161079 0)
(10.0179 -0.0177937 0)
(10.0226 -0.0190847 0)
(10.0272 -0.0200466 0)
(10.0318 -0.0207636 0)
(10.0361 -0.021318 0)
(10.0403 -0.0217642 0)
(10.0443 -0.0221366 0)
(10.0481 -0.02246 0)
(10.0516 -0.0227529 0)
(10.0551 -0.0230273 0)
(10.0583 -0.0232904 0)
(10.0613 -0.0235469 0)
(10.0642 -0.0237947 0)
(10.0001 -0.00271392 0)
(10.0015 -0.0084574 0)
(10.0049 -0.0135837 0)
(10.0098 -0.017292 0)
(10.0149 -0.019912 0)
(10.02 -0.0218604 0)
(10.025 -0.0232678 0)
(10.0299 -0.0242463 0)
(10.0346 -0.0249469 0)
(10.0391 -0.0254772 0)
(10.0433 -0.0258916 0)
(10.0473 -0.0262239 0)
(10.0512 -0.0265021 0)
(10.0548 -0.0267472 0)
(10.0582 -0.0269723 0)
(10.0614 -0.0271849 0)
(10.0645 -0.02739 0)
(10.0674 -0.0275866 0)
(10 -0.00308634 0)
(10.0014 -0.0105341 0)
(10.0055 -0.0165595 0)
(10.0111 -0.0204482 0)
(10.0168 -0.0233534 0)
(10.0222 -0.0256478 0)
(10.0276 -0.0272217 0)
(10.0328 -0.0282071 0)
(10.0377 -0.0288564 0)
(10.0423 -0.0293219 0)
(10.0467 -0.0296656 0)
(10.0508 -0.0299255 0)
(10.0546 -0.0301336 0)
(10.0583 -0.0303125 0)
(10.0617 -0.0304749 0)
(10.0649 -0.0306278 0)
(10.068 -0.0307748 0)
(10.0708 -0.0309136 0)
(9.9998 -0.00276703 0)
(10.0009 -0.0134112 0)
(10.006 -0.020767 0)
(10.0125 -0.0241961 0)
(10.0185 -0.0267237 0)
(10.0244 -0.0290011 0)
(10.0304 -0.0306496 0)
(10.036 -0.0316976 0)
(10.0413 -0.0323831 0)
(10.0461 -0.03285 0)
(10.0506 -0.0331621 0)
(10.0548 -0.0333684 0)
(10.0587 -0.0335107 0)
(10.0623 -0.033617 0)
(10.0656 -0.0337038 0)
(10.0687 -0.0337804 0)
(10.0715 -0.0338515 0)
(10.0742 -0.0339153 0)
(9.99853 0.000145876 0)
(9.9983 -0.0138666 0)
(10.0058 -0.0247799 0)
(10.0142 -0.0296774 0)
(10.021 -0.0321197 0)
(10.0276 -0.033595 0)
(10.0343 -0.034449 0)
(10.0405 -0.0349784 0)
(10.0461 -0.0353613 0)
(10.051 -0.035633 0)
(10.0555 -0.0358005 0)
(10.0595 -0.03589 0)
(10.063 -0.0359309 0)
(10.0661 -0.0359432 0)
(10.0689 -0.0359408 0)
(10.0713 -0.0359321 0)
(10.0734 -0.0359208 0)
(10.0753 -0.0359017 0)
(9.99503 0.00204016 0)
(9.99236 -0.00672398 0)
(10.004 -0.0182521 0)
(10.0171 -0.0293093 0)
(10.0269 -0.036967 0)
(10.0352 -0.0405471 0)
(10.0424 -0.0415971 0)
(10.0485 -0.0416357 0)
(10.0534 -0.0413382 0)
(10.0574 -0.0408952 0)
(10.0604 -0.0403852 0)
(10.0628 -0.0398645 0)
(10.0645 -0.0393692 0)
(10.0655 -0.0389107 0)
(10.0661 -0.0384969 0)
(10.0663 -0.0381278 0)
(10.0661 -0.0378013 0)
(10.0657 -0.0374847 0)
(9.99445 -0.0269578 0)
(9.99759 -0.0202554 0)
(10.0114 -0.00243081 0)
(10.0263 -0.00196989 0)
(10.0387 -0.0109798 0)
(10.0484 -0.0195687 0)
(10.0548 -0.0254942 0)
(10.0579 -0.0294627 0)
(10.0584 -0.0321001 0)
(10.057 -0.0337446 0)
(10.0541 -0.0346736 0)
(10.05 -0.0351319 0)
(10.045 -0.0352935 0)
(10.0393 -0.0352698 0)
(10.0331 -0.0351446 0)
(10.0265 -0.0349745 0)
(10.0197 -0.0348172 0)
(10.0128 -0.034618 0)
(10.0234 -0.168335 0)
(10.0675 -0.26776 0)
(10.0785 -0.232371 0)
(10.0721 -0.176473 0)
(10.0639 -0.133718 0)
(10.0547 -0.103828 0)
(10.0414 -0.0828454 0)
(10.0234 -0.0681933 0)
(10.0024 -0.057941 0)
(9.9795 -0.0505503 0)
(9.95562 -0.0450282 0)
(9.93129 -0.0407759 0)
(9.90699 -0.0374282 0)
(9.88298 -0.0347306 0)
(9.85953 -0.0325275 0)
(9.83674 -0.0307353 0)
(9.8149 -0.0293206 0)
(9.79402 -0.0285563 0)
(9.94527 0.650405 0)
(9.8925 0.581565 0)
(9.80525 0.367769 0)
(9.68415 0.213303 0)
(9.55851 0.119094 0)
(9.44257 0.0645573 0)
(9.33878 0.0334001 0)
(9.24635 0.0154434 0)
(9.16429 0.00494397 0)
(9.09164 -0.0012893 0)
(9.02702 -0.00501059 0)
(8.96927 -0.00725963 0)
(8.91729 -0.00861736 0)
(8.87032 -0.00945673 0)
(8.82757 -0.00996851 0)
(8.7885 -0.0103252 0)
(8.75227 -0.0106525 0)
(8.71856 -0.0113095 0)
(0.00452436 -0.0105648 0)
(0.0157892 -0.0171026 0)
(0.0258682 -0.0151684 0)
(0.0324496 -0.00935166 0)
(0.0346023 -0.00244896 0)
(0.0320186 0.00388512 0)
(0.025736 0.00881412 -3.65338e-19)
(0.0165983 0.0122277 3.4296e-19)
(0.00530363 0.014402 0)
(-0.00758125 0.0157178 2.8359e-19)
(-0.0217083 0.0165606 0)
(-0.036919 0.0172116 0)
(-0.0530997 0.017813 0)
(-0.0701976 0.0184213 -1.58533e-19)
(-0.0881805 0.0190495 0)
(-0.107029 0.0196923 0)
(-0.126723 0.0203379 1.16728e-19)
(-0.147244 0.0209713 0)
(-0.168568 0.0215755 0)
(-0.190675 0.0221284 0)
(-0.213537 0.0226027 -8.7378e-20)
(-0.237132 0.0229627 0)
(-0.261425 0.0231683 -7.84372e-20)
(-0.286387 0.023174 0)
(-0.311982 0.022943 0)
(-0.338183 0.0224528 -6.88003e-20)
(-0.364978 0.0217291 0)
(-0.392366 0.0209074 6.38025e-20)
(-0.420407 0.0199773 0)
(-0.449223 0.0189075 -5.93505e-20)
(-0.478783 0.0193426 0)
(-0.508734 0.0211518 0)
(-0.538743 0.0227957 0)
(-0.568621 0.0266148 0)
(-0.599065 0.0350742 0)
(-0.631178 0.0442961 4.8039e-20)
(-0.665675 0.0526828 0)
(-0.701754 0.0634157 -9.45132e-20)
(-0.740708 0.0791862 0)
(-0.78305 0.0908186 9.30179e-20)
(-0.827648 0.0995633 0)
(-0.869098 0.0683914 0)
(-0.9068 0.0270611 -1.27766e-19)
(-0.939042 0.0313865 0)
(-0.976766 0.0330981 -1.19714e-19)
(-1.01591 0.0339863 1.16029e-19)
(-1.05591 0.0346635 0)
(-1.09651 0.0348439 1.09367e-19)
(-1.13729 0.034774 1.06353e-19)
(-1.17812 0.0345726 0)
(-1.21891 0.0343029 0)
(-1.25961 0.0339873 0)
(-1.30016 0.0336448 0)
(-1.34056 0.0332832 0)
(-1.38077 0.0329089 -9.17776e-20)
(-1.42077 0.0325244 0)
(-1.46056 0.0321312 8.79449e-20)
(-1.50012 0.0317296 0)
(-1.53943 0.0313191 0)
(-1.57846 0.030899 -8.28848e-20)
(-1.61722 0.0304679 0)
(-1.65566 0.0300248 7.98873e-20)
(-1.69377 0.0295683 0)
(-1.73153 0.0290971 0)
(-1.7689 0.0286099 0)
(-1.80587 0.0281057 -7.45954e-20)
(-1.84239 0.0275833 0)
(-1.87845 0.0270419 0)
(-1.91399 0.0264807 -7.11066e-20)
(-1.949 0.025899 0)
(-1.98343 0.0252965 -6.89569e-20)
(-2.01725 0.0246726 0)
(-2.05042 0.0240273 0)
(-2.08289 0.0233605 0)
(-2.11464 0.0226723 6.49774e-20)
(-2.14561 0.0219627 0)
(-2.17578 0.0212322 0)
(-2.20509 0.020481 6.21959e-20)
(-2.23352 0.0197096 6.12958e-20)
(-2.26101 0.0189185 0)
(-2.28754 0.0181081 5.95242e-20)
(-2.31305 0.0172791 0)
(-2.33751 0.0164319 1.15557e-19)
(-2.36088 0.0155667 0)
(-2.38312 0.0146838 1.12089e-19)
(-2.40419 0.0137832 0)
(-2.42405 0.0128641 -1.08619e-19)
(-2.44266 0.0119255 0)
(-2.45999 0.010965 0)
(-2.47599 0.00997853 0)
(-2.49062 0.00896103 1.01577e-19)
(-2.50383 0.0079055 0)
(-2.51557 0.00680316 -9.79662e-20)
(-2.52576 0.00564385 0)
(-2.53433 0.00442155 9.42749e-20)
(-2.54123 0.00314984 9.23978e-20)
(-2.54636 0.0018841 9.05004e-20)
(-2.54959 0.000723256 0)
(-2.55092 -0.000265666 0)
(-2.55084 -0.00114831 0)
(-2.54925 -0.00200612 0)
(-2.54621 -0.00285123 0)
(-2.5417 -0.00369052 0)
(-2.53572 -0.00452452 0)
(-2.52827 -0.00535341 0)
(-2.51934 -0.00617648 -7.12614e-20)
(-2.50891 -0.00699318 -6.88473e-20)
(-2.497 -0.00780265 0)
(-2.48359 -0.00860428 0)
(-2.46868 -0.00939724 0)
(-2.45229 -0.0101809 -5.85287e-20)
(-2.43441 -0.0109546 0)
(-2.41505 -0.0117176 0)
(-2.39421 -0.0124694 0)
(-2.3719 -0.0132093 0)
(-2.34814 -0.0139368 4.39494e-20)
(-2.32293 -0.0146513 0)
(-2.29629 -0.0153524 0)
(-2.26823 -0.0160394 -3.41708e-20)
(-2.23878 -0.0167122 3.07205e-20)
(-2.20795 -0.01737 0)
(-2.17576 -0.0180126 2.35125e-20)
(-2.14223 -0.0186396 0)
(-2.10738 -0.0192509 -1.58683e-20)
(-2.07125 -0.0198462 0)
(-2.03385 -0.0204259 0)
(-1.99522 -0.0209903 0)
(-1.95537 -0.0215403 0)
(-1.91435 -0.0220753 0)
(-1.87217 -0.0225931 -2.01136e-20)
(-1.82886 -0.0230952 -2.97466e-20)
(-1.78446 -0.0235824 0)
(-1.73901 -0.0240541 0)
(-1.69253 -0.0245136 0)
(-1.64506 -0.0249582 7.16374e-20)
(-1.59664 -0.025387 0)
(-1.54729 -0.0258005 0)
(-1.49706 -0.0261999 0)
(-1.44598 -0.0265862 1.19813e-19)
(-1.3941 -0.0269604 -1.33014e-19)
(-1.34145 -0.027322 0)
(-1.28806 -0.0276719 0)
(-1.23397 -0.0280095 -1.7587e-19)
(-1.17922 -0.0283367 -1.9136e-19)
(-1.12385 -0.0286541 0)
(-1.06789 -0.0289638 0)
(-1.01139 -0.0292661 2.42054e-19)
(-0.954369 -0.0295626 -2.60535e-19)
(-0.89688 -0.0298539 0)
(-0.838955 -0.0301412 0)
(-0.780629 -0.0304258 -3.2164e-19)
(-0.721937 -0.0307086 0)
(-0.66291 -0.0309909 0)
(-0.60358 -0.0312738 -3.93035e-19)
(-0.543977 -0.0315588 0)
(-0.484132 -0.031847 -4.47823e-19)
(-0.424071 -0.0321394 0)
(-0.363825 -0.0324361 0)
(-0.303419 -0.0327387 0)
(-0.242884 -0.0330505 5.8041e-19)
(-0.182244 -0.0333879 0)
(-0.121523 -0.0337545 0)
(-0.0607717 -0.0340849 0)
(-4.40685e-05 -0.0340428 0)
(0.0606041 -0.0334101 0)
(0.121257 -0.0325442 0)
(0.181856 -0.0317022 6.95914e-19)
(0.242365 -0.0309087 6.7983e-19)
(0.30278 -0.0301574 0)
(0.363095 -0.0294384 0)
(0.423289 -0.028741 0)
(0.483319 -0.0280506 -6.25615e-19)
(0.54311 -0.0273474 0)
(0.602514 -0.0265992 1.20664e-18)
(0.661322 -0.0257478 -1.18664e-18)
(0.718909 -0.0246815 -1.16848e-18)
(0.774952 -0.0231266 1.15301e-18)
(0.82463 -0.0204467 -1.14207e-18)
(0.873605 -0.0150548 1.14215e-18)
(0.869373 0.00218537 0)
(0.00472557 -0.0324209 0)
(0.0105785 -0.0329663 0)
(0.0109223 -0.0211303 4.54991e-19)
(0.00826683 -0.00791782 0)
(0.00318923 0.00472073 -3.05093e-19)
(-0.0039818 0.0158737 -2.75587e-19)
(-0.0132522 0.0250687 -1.26213e-19)
(-0.0245348 0.0322785 -1.16739e-19)
(-0.0377104 0.0377754 0)
(-0.0525907 0.0419755 -9.99286e-20)
(-0.0689549 0.0452978 0)
(-0.0866225 0.0480729 0)
(-0.105463 0.0505166 1.58714e-19)
(-0.125382 0.052754 7.39478e-20)
(-0.146317 0.0548487 -1.38192e-19)
(-0.168228 0.0568298 -1.29744e-19)
(-0.191089 0.0587094 -6.12027e-20)
(-0.214889 0.0604916 0)
(-0.239621 0.0621777 0)
(-0.265284 0.0637671 0)
(-0.291884 0.0652606 -5.03202e-20)
(-0.319432 0.0666575 0)
(-0.34794 0.0679632 1.40002e-19)
(-0.377429 0.0691853 0)
(-0.40792 0.0703478 0)
(-0.43943 0.0714939 4.24168e-20)
(-0.471971 0.0726941 0)
(-0.505563 0.0739941 -4.01616e-20)
(-0.540225 0.075402 -7.8494e-20)
(-0.575986 0.0768746 3.82821e-20)
(-0.612666 0.0783505 0)
(-0.650242 0.0797023 0)
(-0.689236 0.0806969 0)
(-0.730041 0.0814966 -7.05303e-20)
(-0.771739 0.0827165 -6.91362e-20)
(-0.814134 0.0837612 -3.44676e-20)
(-0.856757 0.0844258 0)
(-0.899461 0.084858 6.80512e-20)
(-0.941014 0.0850795 0)
(-0.980881 0.0847919 -6.72159e-20)
(-1.018 0.0841985 0)
(-1.05932 0.0840078 0)
(-1.10285 0.0853511 6.73727e-20)
(-1.14653 0.0877787 0)
(-1.18694 0.0890283 1.91966e-19)
(-1.22574 0.0892758 -6.2674e-20)
(-1.26364 0.0890001 0)
(-1.30097 0.0884074 -6.00075e-20)
(-1.3379 0.0875934 -5.87836e-20)
(-1.37447 0.0866437 0)
(-1.41072 0.0856088 0)
(-1.44667 0.0845201 0)
(-1.48231 0.0833962 0)
(-1.51765 0.0822478 0)
(-1.55268 0.0810809 5.26056e-20)
(-1.58739 0.0798982 1.03178e-19)
(-1.62178 0.0786999 -5.08888e-20)
(-1.65583 0.0774852 0)
(-1.68952 0.0762521 9.83246e-20)
(-1.72286 0.0749984 -4.82743e-20)
(-1.7558 0.0737213 0)
(-1.78834 0.0724183 -4.7115e-20)
(-1.82046 0.0710866 0)
(-1.85213 0.0697238 0)
(-1.88334 0.0683274 -8.99812e-20)
(-1.91404 0.0668955 4.44871e-20)
(-1.94422 0.0654263 -8.74932e-20)
(-1.97386 0.0639183 8.62901e-20)
(-2.00291 0.0623703 4.26734e-20)
(-2.03136 0.0607815 0)
(-2.05917 0.0591513 4.15185e-20)
(-2.08631 0.0574795 0)
(-2.11275 0.0557661 0)
(-2.13846 0.0540115 0)
(-2.16341 0.0522161 3.91006e-20)
(-2.18756 0.0503808 0)
(-2.21089 0.0485066 7.62449e-20)
(-2.23335 0.0465948 -1.12849e-19)
(-2.25493 0.0446466 -3.71357e-20)
(-2.27558 0.0426636 0)
(-2.29528 0.0406473 -3.60595e-20)
(-2.31399 0.0385995 0)
(-2.33169 0.0365219 -6.99539e-20)
(-2.34834 0.0344161 0)
(-2.36391 0.0322838 -6.77633e-20)
(-2.37838 0.0301267 1.33125e-19)
(-2.39172 0.0279462 6.55354e-20)
(-2.40389 0.0257436 0)
(-2.41487 0.0235194 0)
(-2.42464 0.0212734 0)
(-2.43317 0.0190047 -6.09245e-20)
(-2.44046 0.0167125 0)
(-2.44648 0.0143959 5.85229e-20)
(-2.45125 0.0120519 0)
(-2.45477 0.00967494 -1.68182e-19)
(-2.45708 0.00726429 -5.47838e-20)
(-2.45825 0.00484692 -5.35016e-20)
(-2.45839 0.00249789 0)
(-2.45755 0.000294472 0)
(-2.45535 -0.00179836 0)
(-2.45177 -0.00384838 0)
(-2.44677 -0.00586798 0)
(-2.44033 -0.00786475 -9.05512e-20)
(-2.43245 -0.0098392 -8.76222e-20)
(-2.42311 -0.0117906 0)
(-2.41231 -0.0137172 4.0647e-20)
(-2.40005 -0.0156171 3.90884e-20)
(-2.38631 -0.0174883 0)
(-2.3711 -0.019329 7.2168e-20)
(-2.35442 -0.0211372 0)
(-2.33626 -0.0229111 -3.30194e-20)
(-2.31664 -0.0246489 0)
(-2.29556 -0.026349 0)
(-2.27302 -0.0280097 5.52927e-20)
(-2.24903 -0.0296296 0)
(-2.2236 -0.0312073 -2.37769e-20)
(-2.19675 -0.0327414 0)
(-2.16849 -0.0342307 0)
(-2.13883 -0.0356739 -1.87908e-20)
(-2.10778 -0.03707 -1.62034e-20)
(-2.07537 -0.0384179 0)
(-2.04162 -0.0397167 1.29548e-20)
(-2.00655 -0.0409655 0)
(-1.97017 -0.0421636 -8.91111e-21)
(-1.93252 -0.0433102 -1.29035e-20)
(-1.89362 -0.0444056 0)
(-1.8535 -0.0454498 0)
(-1.81218 -0.0464437 0)
(-1.76969 -0.0473874 0)
(-1.72605 -0.0482812 9.66391e-21)
(-1.68131 -0.0491262 4.08021e-20)
(-1.63548 -0.0499217 0)
(-1.5886 -0.0506617 0)
(-1.54072 -0.0513508 0)
(-1.49185 -0.0519947 -3.29391e-20)
(-1.44203 -0.05259 0)
(-1.3913 -0.0531333 0)
(-1.33969 -0.0536273 9.32309e-20)
(-1.28724 -0.0540739 5.06e-20)
(-1.23398 -0.0544747 5.77057e-20)
(-1.17997 -0.0548297 0)
(-1.12522 -0.05514 0)
(-1.06978 -0.0554053 7.3288e-20)
(-1.01369 -0.0556279 -7.64659e-20)
(-0.95697 -0.0558089 0)
(-0.899671 -0.0559509 0)
(-0.841827 -0.0560552 -9.49173e-20)
(-0.783476 -0.0561242 2.99233e-19)
(-0.724653 -0.0561595 0)
(-0.665396 -0.0561628 0)
(-0.605737 -0.0561363 1.17539e-19)
(-0.54571 -0.0560816 0)
(-0.485347 -0.0560008 2.56208e-19)
(-0.42468 -0.0558956 -1.32911e-19)
(-0.363739 -0.0557682 0)
(-0.302553 -0.0556199 1.47278e-19)
(-0.24115 -0.0554529 3.04562e-19)
(-0.179558 -0.0552682 0)
(-0.117804 -0.055066 0)
(-0.0559149 -0.0548474 -1.72298e-19)
(0.00608545 -0.0546092 0)
(0.0681823 -0.0543473 3.57311e-19)
(0.13037 -0.0540576 0)
(0.192634 -0.0536505 0)
(0.254876 -0.0530407 0)
(0.317044 -0.0523205 0)
(0.379145 -0.0515924 -1.88721e-19)
(0.441189 -0.0508801 -1.90416e-19)
(0.503164 -0.0501816 0)
(0.565054 -0.0494872 0)
(0.626831 -0.0487822 0)
(0.688447 -0.0480449 1.96255e-19)
(0.749821 -0.0472406 0)
(0.81081 -0.0463106 -3.97351e-19)
(0.871196 -0.0451426 3.99632e-19)
(0.930462 -0.0435257 4.01938e-19)
(0.98818 -0.0409296 4.01433e-19)
(1.04143 -0.0363784 4.07772e-19)
(1.09323 -0.0265041 4.10843e-19)
(1.12164 -0.00267967 0)
(0.000372329 -0.041129 0)
(-0.00176313 -0.028415 0)
(-0.00768806 -0.0101875 -3.08414e-19)
(-0.0156176 0.00692753 -2.22763e-19)
(-0.0250359 0.0224483 1.83246e-19)
(-0.0356419 0.036253 1.61639e-19)
(-0.0474212 0.0482333 3.43919e-23)
(-0.0604651 0.0583712 0)
(-0.0748566 0.0668038 0)
(-0.0906214 0.0737989 0)
(-0.107726 0.0796765 0)
(-0.126101 0.0847385 0)
(-0.14567 0.0892291 -3.13181e-19)
(-0.166361 0.0933252 0)
(-0.188115 0.0971438 9.45586e-20)
(-0.210894 0.100759 9.0281e-20)
(-0.23467 0.104218 0)
(-0.259432 0.107549 0)
(-0.285174 0.110773 0)
(-0.311898 0.113907 0)
(-0.339611 0.116964 7.43832e-20)
(-0.368326 0.119958 0)
(-0.398053 0.122902 -7.00332e-20)
(-0.428805 0.125812 0)
(-0.460588 0.128705 0)
(-0.493402 0.131596 0)
(-0.527228 0.134499 -1.27009e-19)
(-0.562004 0.137408 0)
(-0.597648 0.140257 6.05155e-20)
(-0.634054 0.142943 -1.1826e-19)
(-0.671041 0.145389 0)
(-0.708423 0.147482 0)
(-0.746172 0.149172 0)
(-0.78426 0.150785 5.36889e-20)
(-0.822297 0.152553 5.25035e-20)
(-0.859941 0.154343 0)
(-0.896928 0.155775 0)
(-0.933167 0.156898 -9.94199e-20)
(-0.968284 0.157446 -9.78063e-20)
(-1.00223 0.156946 9.62799e-20)
(-1.03542 0.155072 0)
(-1.0693 0.151504 0)
(-1.10434 0.147592 0)
(-1.13957 0.145297 0)
(-1.174 0.143439 -8.7834e-20)
(-1.20771 0.14174 -8.58631e-20)
(-1.2409 0.140053 8.41491e-20)
(-1.2737 0.138316 0)
(-1.30619 0.13652 0)
(-1.33842 0.134676 0)
(-1.37042 0.132797 0)
(-1.40221 0.130894 -7.66433e-20)
(-1.43379 0.128973 0)
(-1.46516 0.127036 0)
(-1.49632 0.125083 -7.28437e-20)
(-1.52726 0.123113 -7.18291e-20)
(-1.55796 0.121124 0)
(-1.58841 0.11911 1.38886e-19)
(-1.6186 0.117069 -6.85416e-20)
(-1.64852 0.114996 6.7513e-20)
(-1.67813 0.112887 0)
(-1.70743 0.110736 0)
(-1.73638 0.108541 0)
(-1.76498 0.106298 0)
(-1.79318 0.104003 6.27608e-20)
(-1.82097 0.101653 1.2345e-19)
(-1.84832 0.0992465 6.10034e-20)
(-1.87521 0.0967813 -6.0148e-20)
(-1.9016 0.094256 0)
(-1.92746 0.0916695 1.16678e-19)
(-1.95276 0.0890214 1.15046e-19)
(-1.97748 0.0863116 1.13432e-19)
(-2.00158 0.0835403 -1.11833e-19)
(-2.02504 0.0807083 0)
(-2.04781 0.0778168 -1.63124e-19)
(-2.06986 0.0748671 0)
(-2.09117 0.0718611 5.26652e-20)
(-2.1117 0.0688007 5.20924e-20)
(-2.13142 0.0656882 0)
(-2.15029 0.0625261 0)
(-2.16829 0.059317 9.93027e-20)
(-2.18538 0.0560638 0)
(-2.20153 0.0527693 9.61583e-20)
(-2.21671 0.0494366 0)
(-2.2309 0.0460687 -9.29768e-20)
(-2.24406 0.0426687 -1.82837e-19)
(-2.25616 0.0392397 0)
(-2.26718 0.035785 0)
(-2.27709 0.0323077 0)
(-2.28588 0.0288108 -8.47719e-20)
(-2.29352 0.0252981 0)
(-2.3 0.0217745 -8.13597e-20)
(-2.30531 0.0182475 0)
(-2.30944 0.014727 0)
(-2.3124 0.011227 1.52123e-19)
(-2.31418 0.00776665 0)
(-2.31478 0.00436778 7.24234e-20)
(-2.31417 0.00103608 0)
(-2.31229 -0.00225777 6.85829e-20)
(-2.30907 -0.00553219 0)
(-2.30451 -0.0087786 0)
(-2.29857 -0.0119935 0)
(-2.29124 -0.0151747 1.81616e-19)
(-2.28251 -0.0183195 5.83433e-20)
(-2.27237 -0.0214248 0)
(-2.26081 -0.0244874 0)
(-2.24783 -0.027504 0)
(-2.23342 -0.0304714 0)
(-2.21758 -0.0333863 -4.7493e-20)
(-2.20031 -0.0362458 9.10406e-20)
(-2.18161 -0.0390467 4.29499e-20)
(-2.16149 -0.0417864 -8.19039e-20)
(-2.13994 -0.044462 -7.72494e-20)
(-2.11698 -0.0470711 -3.59208e-20)
(-2.09261 -0.0496112 0)
(-2.06684 -0.05208 -6.29479e-20)
(-2.03968 -0.0544754 0)
(-2.01115 -0.0567954 5.31398e-20)
(-1.98126 -0.0590381 2.36558e-20)
(-1.95003 -0.0612018 0)
(-1.91746 -0.0632848 -3.80371e-20)
(-1.88359 -0.0652856 -1.59885e-20)
(-1.84843 -0.067203 0)
(-1.812 -0.0690356 -1.17363e-20)
(-1.77432 -0.0707826 2.53353e-20)
(-1.73543 -0.0724435 0)
(-1.69533 -0.0740185 0)
(-1.65408 -0.0755085 0)
(-1.61168 -0.0769145 0)
(-1.56816 -0.078237 -9.74412e-21)
(-1.52356 -0.0794761 -1.63781e-20)
(-1.47791 -0.0806312 0)
(-1.43123 -0.0816991 0)
(-1.38356 -0.0826815 0)
(-1.33492 -0.0835835 0)
(-1.28537 -0.0844037 0)
(-1.23491 -0.0851392 0)
(-1.1836 -0.0857922 -5.58621e-20)
(-1.13146 -0.0863652 -1.25517e-21)
(-1.07854 -0.0868601 0)
(-1.02487 -0.087278 0)
(-0.970486 -0.0876199 -7.76327e-20)
(-0.91542 -0.0878869 0)
(-0.85971 -0.0880814 9.05426e-20)
(-0.803392 -0.0882056 9.50574e-20)
(-0.746503 -0.0882623 0)
(-0.689079 -0.0882542 0)
(-0.631158 -0.0881842 -1.13904e-19)
(-0.572773 -0.088055 -2.36839e-19)
(-0.513961 -0.0878693 0)
(-0.454755 -0.0876298 0)
(-0.395187 -0.0873394 0)
(-0.335289 -0.0870006 -1.43204e-19)
(-0.275092 -0.0866161 1.49064e-19)
(-0.214627 -0.0861889 0)
(-0.153921 -0.0857212 3.18812e-19)
(-0.0930033 -0.085215 1.63879e-19)
(-0.0318995 -0.0846732 -3.42084e-19)
(0.0293663 -0.0840975 0)
(0.0907702 -0.0834898 0)
(0.152283 -0.0828489 -3.64418e-19)
(0.213877 -0.0821728 -1.86644e-19)
(0.275539 -0.0814605 0)
(0.33726 -0.0807071 0)
(0.399016 -0.0799159 0)
(0.460777 -0.0790968 0)
(0.522526 -0.0782657 -4.00569e-19)
(0.584245 -0.0774341 0)
(0.645912 -0.0765983 0)
(0.707502 -0.0757468 0)
(0.768982 -0.0748598 0)
(0.830304 -0.0739065 0)
(0.891386 -0.0728356 0)
(0.952096 -0.0715597 -4.3621e-19)
(1.01223 -0.0699175 0)
(1.07137 -0.0676062 0)
(1.12918 -0.0639807 -9.01395e-19)
(1.18375 -0.0578039 4.54911e-19)
(1.23798 -0.0460408 -4.64208e-19)
(1.27963 -0.0213482 4.74027e-19)
(-0.00456381 -0.0334929 0)
(-0.0123375 -0.0117144 8.73836e-19)
(-0.0222095 0.009908 0)
(-0.0336977 0.0291323 1.69566e-19)
(-0.0461822 0.0463977 0)
(-0.0593335 0.0619021 0)
(-0.0731913 0.0756966 -1.12053e-19)
(-0.0878882 0.0878169 0)
(-0.103546 0.0983634 0)
(-0.12025 0.107517 0)
(-0.138046 0.115509 0)
(-0.156937 0.122583 0)
(-0.176903 0.128958 3.26752e-19)
(-0.197912 0.134813 1.5655e-19)
(-0.219928 0.140282 -1.50252e-19)
(-0.24292 0.145463 0)
(-0.266864 0.150423 0)
(-0.291741 0.155208 0)
(-0.317535 0.159852 0)
(-0.344233 0.164379 0)
(-0.371823 0.168803 1.22195e-19)
(-0.400285 0.173133 1.1884e-19)
(-0.429598 0.177373 -1.1576e-19)
(-0.459727 0.181515 1.12908e-19)
(-0.490623 0.185542 0)
(-0.522218 0.189422 0)
(-0.554419 0.193098 1.05058e-19)
(-0.587107 0.196493 0)
(-0.620149 0.199524 0)
(-0.653401 0.202117 9.76032e-20)
(-0.686711 0.204219 9.51203e-20)
(-0.719945 0.205805 9.26158e-20)
(-0.753023 0.206897 0)
(-0.785872 0.207629 0)
(-0.818344 0.208139 -8.56613e-20)
(-0.850292 0.2084 0)
(-0.881645 0.208301 0)
(-0.912415 0.207813 8.00146e-20)
(-0.942609 0.206822 -7.83673e-20)
(-0.972332 0.20516 7.676e-20)
(-1.00187 0.20272 0)
(-1.03158 0.199567 0)
(-1.06161 0.196166 1.4423e-19)
(-1.09175 0.193116 0)
(-1.12177 0.190338 1.38393e-19)
(-1.15157 0.187724 2.03562e-19)
(-1.18115 0.185197 -1.99641e-19)
(-1.21053 0.182706 1.30546e-19)
(-1.23975 0.180224 0)
(-1.2688 0.177741 0)
(-1.29772 0.175251 1.23627e-19)
(-1.32651 0.172752 6.08154e-20)
(-1.35516 0.170241 0)
(-1.38366 0.167715 0)
(-1.41202 0.165168 5.78603e-20)
(-1.44022 0.162598 1.1375e-19)
(-1.46825 0.159996 0)
(-1.49609 0.157358 -1.10392e-19)
(-1.52373 0.154678 1.08584e-19)
(-1.55114 0.151949 -1.06962e-19)
(-1.57831 0.149166 0)
(-1.60522 0.146323 0)
(-1.63183 0.143415 0)
(-1.65814 0.140437 0)
(-1.68411 0.137386 0)
(-1.70972 0.134258 -9.81567e-20)
(-1.73494 0.131049 0)
(-1.75974 0.127758 0)
(-1.78409 0.124383 0)
(-1.80796 0.120923 -1.85349e-19)