/*--------------------------------*- C++ -*----------------------------------*\
  =========                 |
  \\      /  F ield         | OpenFOAM: The Open Source CFD Toolbox
   \\    /   O peration     | Website:  https://openfoam.org
    \\  /    A nd           | Version:  8
     \\/     M anipulation  |
\*---------------------------------------------------------------------------*/
FoamFile
{
    version     2.0;
    format      ascii;
    class       volScalarField;
    location    "400";
    object      nut;
}
// * * * * * * * * * * * * * * * * * * * * * * * * * * * * * * * * * * * * * //

dimensions      [0 2 -1 0 0 0 0];

internalField   nonuniform List<scalar> 
12225
(
3.17716e-06
1.32353e-05
2.85342e-05
2.20269e-05
2.57515e-05
3.53836e-05
2.70154e-05
2.14228e-05
2.67286e-05
3.41609e-05
3.76523e-05
3.64336e-05
2.88304e-05
2.096e-05
1.92134e-05
2.61171e-05
3.16554e-05
2.56485e-05
0.000133608
3.58511e-05
3.68657e-05
3.19554e-05
3.16004e-05
3.69331e-05
3.7538e-05
3.70285e-05
4.01328e-05
4.40055e-05
4.46267e-05
4.72679e-05
4.80864e-05
4.26989e-05
4.3441e-05
4.63145e-05
4.91574e-05
4.85795e-05
0.000419639
0.000180185
0.000125166
7.88249e-05
5.96649e-05
4.77272e-05
4.21054e-05
3.71528e-05
3.54259e-05
3.38308e-05
3.32021e-05
3.30884e-05
3.31154e-05
3.28059e-05
3.27946e-05
3.29975e-05
3.32651e-05
3.37395e-05
0.000441171
0.00037275
0.000336257
0.000260573
0.000204792
0.000163512
0.00013636
0.000115317
0.000103481
9.45055e-05
8.91583e-05
8.38791e-05
8.03592e-05
7.58846e-05
7.33914e-05
6.95969e-05
6.78738e-05
6.4891e-05
0.000458344
0.000439709
0.000428517
0.000407441
0.000367518
0.000327823
0.000290608
0.000259686
0.000236807
0.000220493
0.000208162
0.000198969
0.000190687
0.000185291
0.000181239
0.000175574
0.000172171
0.000167517
0.00045525
0.000452939
0.000448897
0.000445099
0.000435185
0.000417551
0.000395826
0.000377213
0.000357674
0.00034295
0.000330331
0.000321629
0.000314659
0.000308853
0.000303663
0.000300989
0.000292675
0.000288862
0.00045433
0.000453721
0.000453107
0.000452705
0.000450378
0.000446774
0.000439514
0.000431721
0.000423515
0.000416452
0.000408539
0.000402581
0.000397437
0.000393818
0.00039003
0.000387122
0.000382794
0.000381546
0.000454201
0.000453695
0.000453223
0.000453047
0.000452095
0.000451284
0.000449646
0.000447086
0.000444016
0.000440897
0.000437837
0.000435011
0.000431896
0.000429407
0.000427861
0.000425371
0.000423302
0.000421868
0.000454187
0.000453685
0.000453267
0.000452923
0.000452466
0.000451932
0.000451341
0.000450447
0.000449518
0.000448435
0.000447501
0.000446548
0.000445664
0.000444811
0.000444171
0.00044337
0.000442747
0.00044179
0.000454177
0.000453684
0.000453289
0.000452863
0.000452505
0.000452083
0.000451723
0.000451265
0.00045088
0.000450416
0.000450059
0.000449654
0.000449347
0.000448984
0.000448715
0.000448351
0.000448079
0.000447691
0.000454165
0.000453691
0.00045328
0.000452856
0.000452487
0.000452101
0.000451764
0.000451406
0.000451093
0.000450765
0.000450481
0.000450187
0.000449932
0.000449668
0.000449433
0.000449186
0.000448961
0.000448725
0.000454158
0.000453695
0.000453268
0.000452853
0.000452469
0.000452094
0.000451747
0.000451408
0.000451092
0.000450784
0.000450496
0.000450217
0.000449955
0.000449701
0.000449461
0.000449228
0.000449006
0.000448793
0.000454155
0.000453695
0.000453261
0.000452847
0.000452457
0.000452083
0.00045173
0.000451391
0.00045107
0.000450763
0.00045047
0.00045019
0.000449923
0.000449667
0.000449423
0.000449189
0.000448965
0.000448751
0.000454154
0.000453693
0.000453257
0.000452842
0.000452449
0.000452074
0.000451717
0.000451378
0.000451054
0.000450745
0.00045045
0.000450167
0.000449898
0.00044964
0.000449394
0.000449158
0.000448932
0.000448716
0.000454155
0.000453695
0.000453261
0.000452846
0.000452454
0.000452078
0.000451723
0.000451383
0.000451061
0.000450751
0.000450458
0.000450175
0.000449907
0.000449648
0.000449403
0.000449167
0.000448943
0.000448726
0.000454165
0.000453724
0.000453309
0.000452909
0.000452534
0.000452171
0.000451831
0.000451501
0.000451193
0.000450891
0.000450611
0.000450334
0.000450079
0.000449825
0.000449593
0.000449359
0.000449147
0.000448931
0.000454192
0.000453804
0.000453435
0.000453081
0.000452744
0.000452422
0.000452115
0.00045182
0.000451539
0.000451269
0.00045101
0.000450762
0.000450525
0.000450297
0.000450079
0.00044987
0.000449669
0.000449476
0.000454191
0.000453805
0.000453433
0.000453081
0.000452742
0.000452421
0.000452111
0.000451817
0.000451534
0.000451265
0.000451004
0.000450757
0.000450517
0.000450291
0.00045007
0.000449862
0.000449658
0.000449467
0.000454163
0.000453723
0.000453303
0.000452904
0.000452524
0.000452163
0.000451817
0.000451489
0.000451174
0.000450875
0.000450587
0.000450314
0.00045005
0.000449801
0.000449558
0.000449331
0.000449108
0.0004489
0.000454153
0.000453694
0.000453257
0.000452842
0.000452446
0.00045207
0.00045171
0.000451369
0.000451042
0.000450731
0.000450433
0.000450149
0.000449876
0.000449617
0.000449367
0.00044913
0.000448901
0.000448684
0.000454153
0.000453693
0.000453255
0.000452838
0.000452441
0.000452064
0.000451704
0.000451361
0.000451034
0.000450721
0.000450422
0.000450137
0.000449863
0.000449603
0.000449352
0.000449113
0.000448884
0.000448665
0.000454151
0.000453696
0.000453255
0.000452844
0.000452445
0.000452071
0.00045171
0.00045137
0.000451041
0.000450731
0.00045043
0.000450146
0.000449871
0.000449611
0.000449358
0.000449119
0.000448886
0.000448664
0.000454143
0.000453708
0.000453251
0.000452856
0.000452444
0.000452085
0.000451707
0.000451373
0.000451021
0.000450712
0.000450383
0.000450092
0.000449783
0.000449508
0.000449213
0.000448948
0.000448659
0.000448396
0.000454125
0.000453741
0.000453224
0.000452877
0.000452404
0.00045205
0.000451543
0.000451117
0.000450567
0.0004501
0.000449497
0.000448991
0.000448356
0.000447856
0.000447184
0.000446632
0.000445883
0.000445248
0.000454176
0.000453751
0.000453059
0.000452561
0.000451671
0.000450871
0.000449199
0.000447585
0.000445491
0.000443189
0.000440822
0.000438141
0.000435809
0.000433732
0.00043116
0.000428988
0.00042601
0.000423591
0.000454842
0.000452598
0.000450486
0.000444719
0.000441712
0.000436789
0.000427209
0.000418152
0.000407118
0.00039873
0.000389036
0.000381636
0.000372749
0.0003659
0.000357527
0.000351125
0.00034326
0.000337377
0.000452617
0.000439901
0.000413044
0.000399277
0.000370614
0.00034186
0.000310916
0.000286964
0.000264312
0.000247958
0.000232168
0.000220846
0.000209202
0.00020086
0.00019177
0.000185351
0.000178008
0.000172946
0.000388701
0.000300289
0.000226702
0.000200214
0.000157223
0.000130159
0.000110854
9.79282e-05
8.81196e-05
8.1283e-05
7.57535e-05
7.17853e-05
6.82796e-05
6.57894e-05
6.34196e-05
6.1789e-05
6.01055e-05
5.89688e-05
0.000156718
8.40555e-05
5.92796e-05
4.70089e-05
4.37012e-05
4.21656e-05
4.18247e-05
4.16282e-05
4.20744e-05
4.24396e-05
4.33158e-05
4.40188e-05
4.51761e-05
4.61228e-05
4.74943e-05
4.86646e-05
5.0108e-05
5.02952e-05
4.43149e-06
1.1572e-05
1.59939e-05
1.9111e-05
2.09525e-05
2.20423e-05
2.23782e-05
2.24996e-05
2.24489e-05
2.22107e-05
2.19193e-05
2.16099e-05
2.13022e-05
2.10094e-05
2.07356e-05
2.04872e-05
2.02591e-05
2.00583e-05
1.67906e-12
1.90137e-10
9.66315e-10
3.78993e-09
1.2636e-08
3.83249e-08
9.93769e-08
1.95698e-07
3.14747e-07
4.3864e-07
5.48649e-07
6.33091e-07
6.88693e-07
7.075e-07
6.97003e-07
6.6635e-07
6.1203e-07
5.20151e-07
4.43733e-07
3.77409e-07
3.14154e-07
2.52475e-07
1.92915e-07
1.37748e-07
8.9098e-08
5.18342e-08
2.74319e-08
1.3851e-08
7.10537e-09
3.91079e-09
2.41039e-09
1.87123e-09
2.33529e-09
5.01962e-09
1.12823e-08
6.48335e-08
1.4579e-07
3.07157e-07
4.46071e-07
4.66433e-07
4.25256e-07
3.38909e-07
2.83717e-07
2.82959e-07
3.11125e-07
4.17973e-07
5.65709e-07
1.15482e-06
2.66719e-06
8.3994e-06
2.1439e-05
3.70522e-05
4.88731e-05
5.36911e-05
5.06749e-05
4.63946e-05
4.03498e-05
4.33535e-05
3.81668e-05
4.04497e-05
3.34975e-05
3.05615e-05
3.23889e-05
3.31235e-05
3.35968e-05
3.43784e-05
3.48636e-05
3.55208e-05
3.60526e-05
3.66471e-05
3.71862e-05
3.77483e-05
3.8284e-05
3.88266e-05
3.93559e-05
3.98858e-05
4.04083e-05
4.09295e-05
4.14459e-05
4.19607e-05
4.2472e-05
4.29819e-05
4.34891e-05
4.39952e-05
4.44992e-05
4.50022e-05
4.55034e-05
4.60038e-05
4.65026e-05
4.70002e-05
4.74959e-05
4.79898e-05
4.84813e-05
4.89701e-05
4.94557e-05
4.99379e-05
5.04166e-05
5.08924e-05
5.13672e-05
5.18446e-05
5.23307e-05
5.28254e-05
5.33187e-05
5.38177e-05
5.43214e-05
5.48312e-05
5.53473e-05
5.58704e-05
5.64007e-05
5.69393e-05
5.74863e-05
5.80428e-05
5.86091e-05
5.91865e-05
5.97753e-05
6.03767e-05
6.09915e-05
6.16209e-05
6.22658e-05
6.29275e-05
6.36071e-05
6.43063e-05
6.50263e-05
6.5769e-05
6.65366e-05
6.73311e-05
6.81562e-05
6.90214e-05
6.98892e-05
7.08382e-05
7.17498e-05
7.27666e-05
7.37799e-05
7.48839e-05
7.60359e-05
7.72454e-05
7.83693e-05
7.81112e-05
7.78451e-05
7.75638e-05
7.72727e-05
7.69701e-05
7.66577e-05
7.63352e-05
7.60036e-05
7.56634e-05
7.53151e-05
7.49597e-05
7.45978e-05
7.42299e-05
7.38565e-05
7.34793e-05
7.30915e-05
7.27087e-05
7.23107e-05
7.19214e-05
7.15206e-05
7.11252e-05
7.07277e-05
7.03302e-05
6.99344e-05
6.95391e-05
6.91452e-05
6.87525e-05
6.83614e-05
6.79721e-05
6.75852e-05
6.72009e-05
6.68202e-05
6.64427e-05
6.60686e-05
6.56967e-05
6.53263e-05
6.49546e-05
6.45773e-05
6.41866e-05
6.37701e-05
6.33012e-05
6.27244e-05
6.11861e-05
7.68378e-12
1.25194e-09
1.69453e-08
9.00474e-08
3.97031e-07
1.23188e-06
2.83999e-06
5.1632e-06
7.97647e-06
1.116e-05
1.43492e-05
1.72968e-05
1.97572e-05
2.1612e-05
2.26216e-05
2.29127e-05
2.25091e-05
2.18226e-05
1.91147e-05
1.60142e-05
1.23201e-05
9.03991e-06
6.35695e-06
4.26732e-06
2.68866e-06
1.66029e-06
1.01842e-06
6.33326e-07
4.00162e-07
2.65135e-07
1.95027e-07
1.76351e-07
1.79352e-07
3.4824e-07
5.73928e-07
3.81918e-06
8.4398e-06
1.62333e-05
2.17166e-05
2.32052e-05
2.17299e-05
1.91536e-05
1.66964e-05
1.58603e-05
1.64522e-05
1.68204e-05
2.01461e-05
2.77101e-05
3.88769e-05
4.99531e-05
6.17408e-05
7.19168e-05
8.111e-05
8.98353e-05
9.96007e-05
0.000111179
0.000119961
0.000137215
0.000148004
0.000163126
0.000172837
0.000186135
0.000198967
0.000211378
0.000223346
0.000234986
0.000246091
0.000256799
0.000267168
0.000277143
0.000286888
0.000296312
0.000305553
0.000314557
0.000323406
0.000332079
0.000340619
0.000349021
0.000357308
0.000365479
0.000373548
0.000381515
0.000389388
0.000397168
0.00040486
0.000412464
0.000419983
0.000427417
0.000434767
0.000442032
0.000449211
0.000456302
0.000463295
0.000470184
0.00047695
0.000483571
0.000490012
0.00049622
0.000502118
0.000507595
0.000512511
0.000517018
0.000521523
0.000525852
0.000530086
0.000534184
0.000538161
0.000542006
0.000545719
0.000549296
0.000552733
0.000556029
0.000559179
0.000562181
0.000565031
0.000567728
0.000570269
0.000572651
0.000574872
0.00057693
0.000578822
0.000580547
0.000582103
0.000583488
0.000584701
0.00058574
0.000586607
0.0005873
0.000587835
0.00058823
0.000588393
0.000588432
0.000588191
0.000587903
0.00058751
0.000587049
0.000586662
0.000586413
0.000585979
0.000585404
0.000584696
0.000583859
0.000582898
0.000581817
0.000580619
0.000579307
0.000577888
0.000576365
0.000574746
0.000573032
0.000571259
0.000569331
0.000567458
0.000565318
0.000563268
0.000561009
0.000558767
0.000556457
0.000554083
0.000551682
0.000549237
0.00054676
0.000544248
0.000541702
0.00053912
0.000536507
0.000533862
0.000531189
0.000528494
0.000525777
0.00052303
0.000520247
0.000517412
0.000514504
0.000511454
0.000508192
0.000504573
0.000500312
0.000494653
0.000478752
1.9145e-11
3.24861e-09
6.08428e-08
3.54356e-07
1.23723e-06
3.05996e-06
6.50022e-06
1.1254e-05
1.70968e-05
2.36939e-05
3.06862e-05
3.75437e-05
4.3692e-05
4.87932e-05
5.25724e-05
5.50737e-05
5.63599e-05
5.66361e-05
5.48908e-05
5.18966e-05
4.70798e-05
4.09462e-05
3.36464e-05
2.63941e-05
1.97892e-05
1.41217e-05
9.61156e-06
6.41423e-06
4.10145e-06
2.74512e-06
1.96827e-06
1.61787e-06
1.35008e-06
2.5617e-06
5.06789e-06
1.92425e-05
3.94108e-05
5.67778e-05
6.46812e-05
6.1719e-05
4.87419e-05
4.03921e-05
4.06473e-05
4.70865e-05
5.4326e-05
6.41442e-05
7.69368e-05
8.95614e-05
0.000102847
0.000120416
0.00013937
0.000160972
0.000184896
0.000211603
0.000241349
0.000271637
0.000301894
0.000333614
0.000363173
0.000392344
0.00041988
0.000446734
0.000473534
0.000498168
0.000521935
0.00054479
0.000566678
0.00058782
0.000608291
0.000628153
0.000647535
0.000666444
0.000684987
0.000703168
0.000721053
0.00073865
0.000755996
0.000773098
0.000789978
0.000806641
0.000823099
0.000839356
0.000855417
0.000871284
0.00088696
0.000902444
0.000917734
0.000932828
0.00094772
0.000962405
0.000976873
0.000991111
0.0010051
0.00101882
0.00103225
0.00104534
0.00105807
0.00107038
0.00108224
0.00109361
0.00110455
0.00111521
0.00112567
0.00113585
0.00114578
0.00115544
0.00116482
0.00117392
0.00118273
0.00119124
0.00119945
0.00120735
0.00121492
0.00122218
0.00122911
0.0012357
0.00124195
0.00124786
0.00125342
0.00125863
0.00126347
0.00126796
0.00127208
0.00127584
0.00127923
0.00128226
0.00128492
0.00128721
0.00128916
0.00129074
0.00129195
0.00129282
0.00129323
0.00129338
0.00129344
0.00129318
0.00129272
0.00129209
0.00129113
0.00128986
0.00128829
0.00128643
0.00128429
0.00128188
0.00127921
0.00127629
0.00127313
0.00126973
0.00126613
0.00126231
0.00125832
0.00125409
0.00124976
0.00124511
0.00124041
0.00123544
0.0012304
0.00122522
0.00121991
0.00121452
0.00120904
0.00120348
0.00119785
0.00119215
0.00118638
0.00118053
0.00117462
0.00116866
0.00116265
0.0011566
0.0011505
0.00114432
0.00113803
0.00113158
0.00112486
0.00111769
0.00110978
0.00110037
0.00108757
0.0010587
7.33834e-11
1.24073e-08
1.94375e-07
8.23113e-07
2.64384e-06
7.22176e-06
1.42396e-05
2.36212e-05
3.45777e-05
4.60025e-05
5.70025e-05
6.70315e-05
7.55907e-05
8.20703e-05
8.69514e-05
8.99964e-05
9.11732e-05
9.08504e-05
8.91353e-05
8.5805e-05
8.11013e-05
7.53915e-05
6.78065e-05
5.88123e-05
4.89676e-05
3.91391e-05
3.01846e-05
2.27303e-05
1.70426e-05
1.24886e-05
9.71194e-06
7.42312e-06
8.35898e-06
1.34238e-05
2.95233e-05
5.35932e-05
7.16314e-05
7.88436e-05
7.58756e-05
7.3139e-05
7.35207e-05
7.75697e-05
8.57169e-05
9.73491e-05
0.000111374
0.000123782
0.00014441
0.000167064
0.00019455
0.000227028
0.000262563
0.000302005
0.000343936
0.000388124
0.000433175
0.000477995
0.000522336
0.000565459
0.000607326
0.000647564
0.000686223
0.000723259
0.000759296
0.000793818
0.000826979
0.000859027
0.000890054
0.00092021
0.000949591
0.000978292
0.0010064
0.00103398
0.00106109
0.00108776
0.00111405
0.00113997
0.00116554
0.00119079
0.00121571
0.00124032
0.00126463
0.00128863
0.00131234
0.00133574
0.00135883
0.00138162
0.0014041
0.00142626
0.00144808
0.00146957
0.0014907
0.00151146
0.00153184
0.0015518
0.00157133
0.00159041
0.00160901
0.00162713
0.00164475
0.00166189
0.00167861
0.00169497
0.00171096
0.00172655
0.00174175
0.00175653
0.00177089
0.00178482
0.00179831
0.00181135
0.00182393
0.00183605
0.00184768
0.00185883
0.00186949
0.00187965
0.0018893
0.00189844
0.00190706
0.00191516
0.00192273
0.00192977
0.00193627
0.00194224
0.00194768
0.00195258
0.00195695
0.00196079
0.00196412
0.00196691
0.00196917
0.00197092
0.00197205
0.0019728
0.00197329
0.00197328
0.00197287
0.00197205
0.00197077
0.00196903
0.00196685
0.00196424
0.00196122
0.0019578
0.00195398
0.00194979
0.00194524
0.00194035
0.00193513
0.00192961
0.00192379
0.00191766
0.00191129
0.00190457
0.00189766
0.00189044
0.00188305
0.00187546
0.00186768
0.00185977
0.00185171
0.00184354
0.00183525
0.00182685
0.00181833
0.0018097
0.00180098
0.00179218
0.00178331
0.00177437
0.00176536
0.00175625
0.00174698
0.0017375
0.00172767
0.00171725
0.00170586
0.00169246
0.00167448
0.00164026
2.48096e-10
3.65591e-08
4.2909e-07
2.073e-06
7.11209e-06
1.69519e-05
3.11893e-05
4.79327e-05
6.52761e-05
8.15748e-05
9.5663e-05
0.000106631
0.000114733
0.000120232
0.00012323
0.000124337
0.000123798
0.000121868
0.000118752
0.000114411
0.000108927
0.000102789
9.52029e-05
8.62824e-05
7.60514e-05
6.48388e-05
5.35387e-05
4.3379e-05
3.50434e-05
2.80197e-05
2.24682e-05
2.15023e-05
2.81942e-05
4.73387e-05
7.11368e-05
8.59109e-05
9.30112e-05
9.62298e-05
9.91749e-05
0.000104712
0.000114263
0.000128698
0.000140443
0.000154221
0.00017695
0.000206008
0.000239091
0.000277881
0.000321709
0.000369486
0.000419994
0.000473062
0.000527334
0.000582269
0.000636815
0.000690488
0.000743125
0.000794159
0.000843595
0.00089146
0.000937902
0.000982768
0.00102622
0.00106825
0.00110901
0.00114863
0.00118725
0.00122497
0.00126188
0.00129808
0.00133363
0.0013686
0.00140303
0.00143697
0.00147043
0.00150345
0.00153604
0.00156821
0.00159995
0.00163129
0.00166222
0.00169273
0.00172283
0.00175252
0.00178179
0.00181063
0.00183903
0.001867
0.00189451
0.00192156
0.00194813
0.00197421
0.00199979
0.00202485
0.00204938
0.00207337
0.00209681
0.00211972
0.00214209
0.00216394
0.00218529
0.00220616
0.00222653
0.00224639
0.00226573
0.00228453
0.00230279
0.00232049
0.00233762
0.00235418
0.00237015
0.00238553
0.00240029
0.00241445
0.00242799
0.00244089
0.00245317
0.0024648
0.00247579
0.00248613
0.00249582
0.00250485
0.00251322
0.00252093
0.00252799
0.0025344
0.00254015
0.00254526
0.00254973
0.00255357
0.00255676
0.00255931
0.00256112
0.00256248
0.00256339
0.00256369
0.00256345
0.00256267
0.00256131
0.00255941
0.00255696
0.00255399
0.0025505
0.00254651
0.00254204
0.00253711
0.00253173
0.00252591
0.00251969
0.00251308
0.00250609
0.00249873
0.00249101
0.00248292
0.00247453
0.0024658
0.00245681
0.00244755
0.00243807
0.00242839
0.00241853
0.0024085
0.00239831
0.00238796
0.00237746
0.00236682
0.00235604
0.00234515
0.00233414
0.00232303
0.00231183
0.0023005
0.002289
0.00227726
0.00226515
0.00225243
0.0022387
0.00222293
0.00220216
0.0021677
7.92274e-10
9.00304e-08
1.09499e-06
5.57172e-06
1.79108e-05
3.73962e-05
6.05425e-05
8.40488e-05
0.000104531
0.000120646
0.000132581
0.000141224
0.000146488
0.000149295
0.000150154
0.000149442
0.000147411
0.000144258
0.000140111
0.00013492
0.000128843
0.00012215
0.000114239
0.000105237
9.38655e-05
7.81047e-05
6.28744e-05
4.87914e-05
3.75646e-05
3.31491e-05
3.50607e-05
4.82734e-05
7.08486e-05
9.19371e-05
0.000106328
0.000115129
0.000121041
0.000127892
0.000139115
0.000156479
0.00016588
0.000180362
0.000204582
0.000234159
0.000270551
0.000313371
0.00036109
0.000413749
0.000469644
0.000528024
0.00058802
0.000649097
0.000710393
0.000771417
0.000831588
0.000890661
0.000948297
0.00100439
0.00105962
0.00111304
0.001165
0.00121552
0.0012647
0.00131259
0.00135929
0.00140493
0.00144958
0.00149336
0.00153633
0.00157857
0.00162013
0.00166107
0.00170142
0.00174121
0.00178047
0.00181919
0.00185741
0.00189511
0.00193229
0.00196897
0.00200513
0.00204077
0.00207588
0.00211047
0.00214452
0.00217804
0.00221101
0.00224343
0.00227529
0.00230658
0.00233728
0.0023674
0.00239692
0.00242584
0.00245414
0.00248183
0.0025089
0.00253537
0.00256124
0.00258652
0.0026112
0.00263529
0.00265878
0.00268165
0.0027039
0.00272552
0.00274649
0.00276681
0.00278647
0.00280546
0.00282377
0.00284138
0.0028583
0.00287451
0.00289002
0.00290481
0.00291888
0.00293223
0.00294485
0.00295674
0.0029679
0.00297832
0.00298801
0.00299697
0.00300519
0.0030127
0.00301947
0.00302554
0.00303094
0.00303558
0.00303953
0.00304276
0.00304518
0.00304711
0.00304846
0.00304914
0.00304919
0.00304862
0.00304742
0.00304561
0.0030432
0.0030402
0.00303662
0.00303248
0.00302781
0.00302261
0.0030169
0.00301071
0.00300405
0.00299695
0.0029894
0.00298143
0.00297304
0.00296424
0.00295507
0.00294552
0.00293565
0.00292547
0.00291502
0.00290432
0.00289339
0.00288225
0.00287091
0.00285937
0.00284764
0.00283573
0.00282365
0.00281143
0.00279907
0.00278658
0.00277397
0.00276123
0.00274831
0.00273516
0.00272165
0.00270759
0.00269261
0.00267577
0.00265445
0.00262188
2.53796e-09
2.31643e-07
2.89088e-06
1.50494e-05
3.87548e-05
6.82672e-05
9.62663e-05
0.000118968
0.00013626
0.000148982
0.000157826
0.000163162
0.000165945
0.000166795
0.000166144
0.000164286
0.000161407
0.000157586
0.00015275
0.000146831
0.000140077
0.000132232
0.000123041
0.000106581
9.10473e-05
7.73545e-05
6.53292e-05
5.71791e-05
5.69449e-05
6.61213e-05
7.99631e-05
0.000104944
0.000121658
0.000134171
0.000143435
0.000151951
0.00016372
0.000180984
0.000188777
0.000203062
0.000226342
0.000255031
0.000291589
0.000334349
0.000383731
0.000438283
0.00049656
0.000557852
0.000620991
0.000685447
0.000750601
0.000815971
0.000881033
0.000945474
0.00100863
0.00107076
0.00113221
0.00119205
0.00125067
0.00130786
0.00136373
0.00141832
0.00147168
0.00152389
0.00157501
0.00162513
0.00167433
0.00172267
0.00177023
0.00181705
0.00186318
0.00190866
0.00195352
0.00199776
0.00204141
0.00208447
0.00212693
0.00216879
0.00221006
0.00225071
0.00229076
0.00233018
0.00236898
0.00240716
0.0024447
0.0024816
0.00251785
0.00255346
0.00258842
0.00262272
0.00265635
0.00268932
0.00272162
0.00275323
0.00278417
0.00281442
0.00284399
0.00287287
0.00290105
0.00292855
0.00295538
0.00298152
0.00300699
0.00303176
0.00305583
0.0030792
0.00310186
0.00312379
0.003145
0.00316548
0.00318523
0.00320425
0.00322252
0.00324005
0.00325682
0.00327282
0.00328806
0.00330252
0.00331621
0.00332913
0.00334128
0.00335264
0.00336324
0.00337306
0.00338211
0.0033904
0.00339792
0.00340473
0.00341083
0.0034161
0.00342066
0.00342445
0.00342741
0.00342986
0.00343163
0.0034327
0.0034331
0.00343283
0.0034319
0.00343033
0.00342812
0.0034253
0.00342192
0.00341797
0.00341345
0.00340837
0.00340276
0.00339663
0.00338999
0.00338287
0.00337527
0.0033672
0.00335868
0.00334972
0.00334033
0.00333054
0.00332039
0.00330989
0.00329907
0.00328797
0.0032766
0.00326498
0.00325312
0.00324102
0.0032287
0.00321616
0.00320342
0.00319051
0.00317743
0.00316421
0.00315084
0.00313733
0.00312365
0.00310975
0.00309556
0.0030809
0.00306549
0.00304858
0.00302812
0.00299858
7.58822e-09
6.11834e-07
7.77167e-06
3.17023e-05
6.60892e-05
0.000100479
0.000128872
0.000149753
0.000163892
0.000172569
0.00017703
0.000178939
0.000179022
0.000177711
0.000175344
0.000172092
0.000167924
0.000162776
0.000156795
0.000150043
0.000142344
0.000133289
0.000115921
9.90576e-05
8.52797e-05
7.63161e-05
7.42739e-05
7.82202e-05
8.91265e-05
0.000110154
0.000134817
0.000157134
0.00017074
0.000180904
0.000192878
0.000201538
0.0002093
0.00022276
0.000243561
0.000270364
0.000304904
0.000345757
0.000393633
0.000447184
0.000505723
0.00056766
0.000631911
0.000697823
0.000764716
0.00083218
0.000899795
0.000967217
0.00103384
0.00109962
0.00116504
0.00122928
0.00129243
0.00135433
0.00141506
0.00147458
0.00153291
0.0015901
0.0016462
0.00170125
0.00175531
0.00180846
0.00186074
0.0019122
0.00196291
0.0020129
0.00206221
0.00211085
0.00215886
0.00220623
0.00225296
0.00229904
0.00234447
0.00238924
0.00243333
0.00247674
0.00251946
0.00256147
0.00260278
0.00264337
0.00268325
0.00272241
0.00276084
0.00279855
0.00283554
0.0028718
0.00290735
0.00294216
0.00297624
0.0030096
0.00304222
0.0030741
0.00310525
0.00313565
0.00316529
0.00319421
0.0032224
0.00324987
0.00327662
0.00330262
0.00332789
0.00335241
0.00337618
0.00339919
0.00342145
0.00344293
0.00346365
0.00348359
0.00350275
0.00352112
0.00353871
0.00355552
0.00357153
0.00358676
0.00360119
0.00361483
0.00362768
0.00363975
0.00365102
0.00366151
0.00367122
0.00368015
0.00368832
0.0036958
0.00370249
0.00370838
0.00371355
0.00371793
0.00372149
0.00372452
0.00372683
0.00372843
0.00372934
0.00372957
0.00372913
0.00372803
0.00372628
0.0037239
0.0037209
0.0037173
0.0037131
0.00370833
0.00370301
0.00369713
0.00369073
0.00368382
0.0036764
0.00366849
0.00366009
0.00365122
0.0036419
0.00363216
0.00362201
0.00361149
0.00360062
0.00358943
0.00357794
0.00356617
0.00355412
0.0035418
0.00352922
0.0035164
0.00350335
0.0034901
0.00347666
0.00346305
0.00344929
0.00343536
0.00342128
0.003407
0.00339248
0.0033777
0.00336242
0.00334601
0.00332686
0.00330092
1.95657e-08
1.51471e-06
1.70347e-05
5.28714e-05
9.3896e-05
0.00012869
0.000154618
0.000171919
0.000182771
0.000188377
0.00019012
0.000189098
0.000186292
0.000182419
0.000177865
0.000172754
0.00016701
0.000160682
0.000153683
0.000146233
0.000137993
0.000127168
0.000115023
0.000107967
0.000102216
9.87094e-05
0.000104336
0.000119656
0.000139174
0.000160052
0.0001796
0.000195741
0.000207255
0.000216345
0.000226079
0.000238875
0.000257383
0.00028165
0.000313072
0.000350965
0.000395595
0.000446085
0.000502148
0.000562533
0.000626169
0.000691874
0.000758926
0.000826857
0.000895243
0.000963765
0.00103204
0.0010996
0.0011669
0.00123356
0.00129933
0.00136407
0.00142778
0.0014904
0.00155194
0.0016124
0.00167181
0.0017302
0.00178761
0.00184408
0.00189966
0.0019544
0.00200835
0.00206153
0.00211401
0.00216581
0.00221697
0.0022675
0.0023174
0.00236668
0.00241531
0.00246326
0.00251054
0.00255711
0.00260297
0.00264808
0.00269245
0.00273605
0.00277888
0.00282093
0.00286222
0.00290275
0.00294256
0.00298158
0.00301982
0.00305727
0.00309393
0.00312982
0.00316492
0.00319924
0.00323279
0.00326556
0.00329756
0.0033288
0.00335929
0.00338902
0.00341799
0.00344621
0.00347366
0.00350036
0.00352628
0.00355143
0.00357581
0.00359941
0.00362223
0.00364426
0.00366551
0.00368597
0.00370564
0.00372452
0.00374261
0.00375991
0.00377642
0.00379214
0.00380708
0.00382122
0.00383458
0.00384716
0.00385895
0.00386998
0.00388022
0.0038897
0.00389845
0.00390652
0.00391374
0.00392023
0.00392599
0.00393098
0.00393521
0.00393885
0.00394177
0.00394398
0.00394551
0.00394637
0.00394655
0.00394608
0.00394496
0.00394321
0.00394084
0.00393786
0.00393429
0.00393014
0.00392542
0.00392015
0.00391434
0.003908
0.00390114
0.00389378
0.00388591
0.00387754
0.00386871
0.00385943
0.00384973
0.00383964
0.00382917
0.00381835
0.00380721
0.00379575
0.00378398
0.00377193
0.00375958
0.00374697
0.0037341
0.003721
0.0037077
0.0036942
0.00368053
0.0036667
0.0036527
0.00363853
0.00362417
0.00360956
0.00359456
0.00357871
0.00356075
0.00353799
4.32139e-08
3.47548e-06
3.04372e-05
7.66009e-05
0.000121142
0.000154995
0.000177409
0.00019149
0.000198215
0.000199483
0.00019718
0.000192682
0.000186921
0.000180485
0.000173565
0.000166176
0.00015849
0.000150109
0.000141909
0.000133541
0.000125009
0.00011744
0.000112641
0.00011291
0.000119333
0.000131392
0.000147049
0.000164512
0.000182341
0.000199108
0.000213129
0.000224709
0.000237068
0.000250788
0.000268123
0.000290035
0.0003182
0.000352554
0.00039324
0.000439693
0.000491621
0.000548309
0.000609073
0.000672829
0.000738622
0.000805665
0.000873458
0.000941655
0.00100997
0.00107783
0.00114533
0.00121273
0.00127934
0.00134517
0.00141011
0.00147409
0.00153709
0.00159909
0.0016601
0.00172014
0.00177921
0.00183737
0.00189465
0.00195111
0.00200679
0.00206174
0.002116
0.00216955
0.00222248
0.00227483
0.00232661
0.00237784
0.00242851
0.00247865
0.00252827
0.00257745
0.00262596
0.00267373
0.00272071
0.00276689
0.00281226
0.00285679
0.00290047
0.00294331
0.00298531
0.00302645
0.00306671
0.00310616
0.00314481
0.00318267
0.00321976
0.00325607
0.00329161
0.00332637
0.00336036
0.00339358
0.00342604
0.00345774
0.00348868
0.00351886
0.00354826
0.00357689
0.00360474
0.00363182
0.00365812
0.00368363
0.00370836
0.00373231
0.00375548
0.00377786
0.00379945
0.00382025
0.00384027
0.0038595
0.00387795
0.00389562
0.00391252
0.00392863
0.00394398
0.00395855
0.00397235
0.00398539
0.00399767
0.0040092
0.00401997
0.00402999
0.00403934
0.00404793
0.00405577
0.00406288
0.0040693
0.00407495
0.00407991
0.00408424
0.00408786
0.0040908
0.00409307
0.00409467
0.00409561
0.00409591
0.00409557
0.0040946
0.00409303
0.00409085
0.00408808
0.00408473
0.00408082
0.00407635
0.00407134
0.0040658
0.00405972
0.00405313
0.00404602
0.0040384
0.00403031
0.00402175
0.00401275
0.00400334
0.00399354
0.00398337
0.00397285
0.00396199
0.00395081
0.0039393
0.00392749
0.00391538
0.003903
0.00389037
0.0038775
0.00386443
0.00385117
0.00383773
0.00382413
0.00381038
0.00379647
0.00378238
0.00376803
0.00375308
0.00373651
0.00371722
8.14586e-08
7.05096e-06
4.47728e-05
9.71895e-05
0.000143393
0.000176251
0.000196739
0.000206594
0.000208947
0.000206336
0.000200638
0.000193169
0.000184726
0.000175732
0.000166877
0.00015797
0.000149863
0.000142664
0.000137094
0.000132933
0.000131064
0.000132412
0.000137371
0.000146028
0.00015784
0.000171933
0.000187194
0.000202643
0.000216948
0.000229589
0.000243205
0.000258652
0.000275916
0.000296452
0.000321873
0.00035271
0.00038932
0.000431391
0.00047863
0.00053055
0.000586712
0.000646479
0.000709114
0.00077376
0.000839678
0.000906311
0.00097328
0.00104021
0.00110667
0.00117314
0.00123911
0.00130444
0.00136897
0.00143262
0.00149534
0.00155712
0.00161796
0.00167788
0.00173689
0.00179502
0.00185227
0.00190867
0.00196434
0.00201934
0.00207371
0.00212754
0.00218092
0.00223407
0.00228689
0.00233924
0.0023911
0.00244247
0.00249335
0.00254371
0.00259353
0.00264268
0.00269118
0.00273896
0.00278599
0.00283226
0.00287774
0.0029224
0.00296623
0.00300922
0.00305137
0.0030927
0.00313323
0.00317296
0.0032119
0.00325007
0.00328745
0.00332407
0.00335992
0.00339501
0.00342933
0.00346288
0.00349568
0.00352771
0.00355897
0.00358947
0.0036192
0.00364815
0.00367633
0.00370373
0.00373035
0.00375618
0.00378124
0.00380551
0.003829
0.00385171
0.00387364
0.00389479
0.00391517
0.00393477
0.0039536
0.00397167
0.00398897
0.00400552
0.00402132
0.00403636
0.00405066
0.00406422
0.00407704
0.00408913
0.00410049
0.00411115
0.00412112
0.00413035
0.00413888
0.00414671
0.00415386
0.00416029
0.00416607
0.0041712
0.00417564
0.00417941
0.00418253
0.004185
0.00418683
0.00418803
0.0041886
0.00418856
0.00418792
0.00418668
0.00418486
0.00418247
0.00417952
0.00417601
0.00417197
0.00416739
0.00416227
0.00415662
0.00415045
0.00414376
0.00413658
0.00412892
0.00412082
0.00411229
0.00410335
0.00409404
0.00408435
0.00407431
0.00406392
0.00405318
0.00404212
0.00403074
0.00401907
0.00400713
0.00399494
0.00398253
0.0039699
0.0039571
0.00394412
0.00393099
0.00391774
0.00390435
0.00389081
0.00387686
0.00386163
0.00384535
1.29253e-07
1.19444e-05
6.04037e-05
0.000118666
0.000165082
0.000196026
0.000212732
0.000218785
0.000217681
0.000212119
0.000204039
0.000194555
0.000185125
0.000175972
0.000167967
0.000161012
0.000155672
0.000152589
0.000151602
0.000152891
0.000156719
0.000163137
0.000171952
0.000182799
0.000195187
0.000208508
0.000221748
0.000234342
0.000247919
0.000264039
0.000282026
0.0003018
0.000325347
0.000353265
0.000386095
0.000423845