/*--------------------------------*- C++ -*----------------------------------*\
  =========                 |
  \\      /  F ield         | OpenFOAM: The Open Source CFD Toolbox
   \\    /   O peration     | Website:  https://openfoam.org
    \\  /    A nd           | Version:  8
     \\/     M anipulation  |
\*---------------------------------------------------------------------------*/
FoamFile
{
    version     2.0;
    format      ascii;
    class       volScalarField;
    location    "400";
    object      p;
}
// * * * * * * * * * * * * * * * * * * * * * * * * * * * * * * * * * * * * * //

dimensions      [0 2 -2 0 0 0 0];

internalField   nonuniform List<scalar> 
12225
(
-4.33223
-5.21075
-5.60985
-5.74376
-5.88001
-6.03551
-6.16987
-6.27001
-6.35069
-6.42528
-6.48916
-6.54641
-6.60391
-6.66168
-6.72143
-6.78683
-6.86833
-6.96028
-4.60277
-5.23706
-5.57197
-5.70455
-5.83916
-5.99361
-6.12719
-6.23002
-6.31595
-6.39382
-6.46462
-6.52485
-6.57882
-6.63508
-6.69616
-6.76273
-6.83314
-6.8947
-4.79676
-5.22811
-5.55053
-5.71199
-5.85206
-6.00094
-6.1299
-6.23208
-6.31818
-6.39478
-6.4634
-6.52246
-6.57546
-6.62974
-6.68843
-6.75023
-6.81114
-6.86043
-4.94292
-5.25352
-5.5599
-5.72983
-5.86062
-5.99626
-6.11879
-6.21913
-6.30387
-6.37912
-6.44675
-6.50644
-6.5612
-6.61628
-6.67363
-6.73163
-6.78682
-6.83213
-5.0708
-5.30236
-5.57481
-5.74214
-5.86639
-5.99355
-6.11218
-6.21144
-6.29539
-6.36999
-6.43739
-6.49781
-6.55366
-6.60841
-6.66335
-6.71723
-6.76753
-6.80963
-5.18716
-5.3581
-5.59008
-5.75248
-5.87385
-5.99401
-6.1075
-6.20431
-6.28687
-6.36049
-6.42728
-6.48779
-6.54381
-6.59769
-6.65035
-6.70094
-6.7477
-6.78765
-5.29275
-5.41731
-5.61047
-5.7646
-5.88251
-5.99521
-6.10258
-6.19646
-6.27762
-6.35028
-6.41643
-6.47679
-6.53269
-6.58571
-6.63652
-6.68459
-6.7287
-6.76712
-5.37396
-5.46959
-5.63297
-5.77683
-5.89053
-5.99705
-6.09906
-6.19012
-6.26985
-6.34146
-6.40683
-6.46674
-6.52217
-6.5743
-6.62362
-6.66981
-6.71207
-6.74921
-5.44023
-5.51634
-5.65562
-5.78883
-5.8982
-5.99945
-6.09665
-6.18489
-6.26311
-6.3336
-6.39811
-6.45741
-6.51227
-6.56353
-6.61159
-6.65629
-6.69711
-6.73328
-5.50631
-5.56643
-5.68277
-5.80354
-5.90743
-6.00311
-6.09502
-6.17986
-6.2561
-6.32515
-6.38852
-6.44694
-6.50097
-6.55121
-6.59798
-6.64126
-6.68078
-6.71602
-5.57125
-5.61845
-5.71403
-5.8212
-5.9183
-6.00808
-6.09435
-6.17522
-6.24897
-6.31623
-6.37814
-6.43538
-6.48834
-6.5374
-6.5829
-6.62483
-6.66316
-6.69759
-5.63392
-5.67091
-5.74855
-5.84171
-5.9308
-6.0143
-6.09474
-6.17113
-6.24189
-6.30696
-6.36712
-6.42287
-6.47451
-6.52231
-6.56651
-6.60721
-6.64446
-6.67814
-5.69299
-5.72209
-5.78477
-5.86441
-5.94468
-6.02158
-6.09608
-6.16768
-6.23495
-6.29749
-6.35558
-6.4096
-6.45972
-6.50616
-6.54907
-6.58863
-6.62489
-6.65788
-5.74688
-5.76995
-5.82065
-5.88804
-5.95929
-6.02941
-6.09806
-6.16472
-6.22824
-6.2879
-6.34371
-6.39578
-6.44428
-6.48927
-6.53096
-6.56939
-6.60479
-6.63709
-5.79351
-5.81211
-5.85354
-5.91059
-5.97336
-6.0369
-6.09997
-6.16187
-6.22155
-6.27822
-6.33162
-6.38171
-6.42852
-6.47211
-6.51257
-6.55001
-6.58455
-6.61628
-5.83012
-5.84552
-5.88024
-5.92922
-5.98482
-6.04254
-6.10068
-6.15834
-6.21449
-6.26834
-6.31943
-6.36762
-6.41285
-6.45512
-6.49446
-6.531
-6.5648
-6.59602
-5.85279
-5.86615
-5.89653
-5.94011
-5.99061
-6.04396
-6.0984
-6.15283
-6.20626
-6.25785
-6.30709
-6.35374
-6.39767
-6.43886
-6.47732
-6.51314
-6.54639
-6.57722
-5.85536
-5.86803
-5.89688
-5.9385
-5.98692
-6.03845
-6.09122
-6.14425
-6.19641
-6.24697
-6.29528
-6.34119
-6.38443
-6.4251
-6.46307
-6.49855
-6.53152
-6.56222
-5.83776
-5.85105
-5.88124
-5.92431
-5.97395
-6.02625
-6.07971
-6.13324
-6.18591
-6.23673
-6.2853
-6.33128
-6.37466
-6.4153
-6.45335
-6.48879
-6.52183
-6.55253
-5.80534
-5.82041
-5.85435
-5.90177
-5.955
-6.01009
-6.06585
-6.12148
-6.17581
-6.22799
-6.27753
-6.32432
-6.36825
-6.40937
-6.4477
-6.48343
-6.51663
-6.54756
-5.76138
-5.7795
-5.81979
-5.87409
-5.93266
-5.99177
-6.05109
-6.10986
-6.16676
-6.22089
-6.27193
-6.31988
-6.3647
-6.40648
-6.4453
-6.48137
-6.51485
-6.54597
-5.70775
-5.7307
-5.78045
-5.84395
-5.90884
-5.97268
-6.03642
-6.09915
-6.15916
-6.21559
-6.26843
-6.31774
-6.36362
-6.4061
-6.44547
-6.48187
-6.51563
-6.54694
-5.64546
-5.67586
-5.73896
-5.81351
-5.8849
-5.95384
-6.0227
-6.08987
-6.15318
-6.21209
-6.26687
-6.3177
-6.36464
-6.40788
-6.4477
-6.48443
-6.51833
-6.54977
-5.57475
-5.61679
-5.69806
-5.78436
-5.86151
-5.9359
-6.01063
-6.08247
-6.14901
-6.21032
-6.26704
-6.31933
-6.3673
-6.41121
-6.45145
-6.48842
-6.52249
-6.55402
-5.49522
-5.55541
-5.66073
-5.75779
-5.83888
-5.91896
-6.00022
-6.07689
-6.14662
-6.21036
-6.26899
-6.32264
-6.37144
-6.41578
-6.45617
-6.4931
-6.527
-6.55833
-5.4061
-5.49349
-5.62889
-5.7348
-5.81814
-5.90374
-5.99111
-6.07199
-6.14461
-6.21077
-6.27142
-6.3266
-6.37643
-6.42142
-6.46214
-6.49918
-6.53309
-6.56455
-5.30634
-5.43466
-5.60007
-5.71122
-5.79833
-5.89129
-5.98455
-6.06866
-6.14331
-6.21115
-6.27304
-6.32896
-6.37916
-6.42419
-6.46474
-6.50146
-6.5351
-6.56652
-5.19048
-5.39287
-5.57564
-5.67908
-5.77077
-5.87513
-5.97711
-6.06664
-6.14555
-6.21704
-6.28173
-6.33953
-6.39084
-6.43637
-6.47682
-6.51292
-6.54597
-6.57795
-5.02867
-5.38383
-5.58921
-5.67064
-5.75653
-5.86473
-5.96947
-6.05989
-6.13979
-6.21277
-6.279
-6.33813
-6.39049
-6.43673
-6.4774
-6.5129
-6.5443
-6.57294
-4.76958
-5.31314
-5.57908
-5.66764
-5.76164
-5.87975
-5.99083
-6.08462
-6.16621
-6.23996
-6.30642
-6.36547
-6.41754
-6.46334
-6.50327
-6.53732
-6.56537
-6.58689
-7.48006
-7.48017
-7.48022
-7.48019
-7.47985
-7.47861
-7.4761
-7.47284
-7.4698
-7.46796
-7.46827
-7.47086
-7.4752
-7.48054
-7.48612
-7.49129
-7.49552
-7.49841
-7.49996
-7.50051
-7.50034
-7.49965
-7.49866
-7.49765
-7.49687
-7.4964
-7.4962
-7.49609
-7.49589
-7.49552
-7.49498
-7.49429
-7.49339
-7.4922
-7.49082
-7.48955
-7.48905
-7.48995
-7.49226
-7.49527
-7.49808
-7.50024
-7.50198
-7.50373
-7.50593
-7.50905
-7.51264
-7.51566
-7.51783
-7.52133
-7.52992
-7.54742
-7.57362
-7.60725
-7.64843
-7.69843
-7.75663
-7.8209
-7.8897
-7.96101
-8.03277
-8.10319
-8.1713
-8.23626
-8.2971
-8.35347
-8.40525
-8.45241
-8.49501
-8.53313
-8.56689
-8.59638
-8.62166
-8.64281
-8.65984
-8.67276
-8.68156
-8.68622
-8.68667
-8.68288
-8.67476
-8.66226
-8.64528
-8.62375
-8.5976
-8.56674
-8.53108
-8.49055
-8.44504
-8.39447
-8.33878
-8.27788
-8.21169
-8.14017
-8.06325
-7.98088
-7.89302
-7.79971
-7.70107
-7.59709
-7.48743
-7.37176
-7.25015
-7.12275
-6.9896
-6.85071
-6.70611
-6.55582
-6.39986
-6.23828
-6.07112
-5.89846
-5.72037
-5.53692
-5.34823
-5.15441
-4.95558
-4.75187
-4.54344
-4.33046
-4.11309
-3.89152
-3.66596
-3.43659
-3.20365
-2.96734
-2.72791
-2.48559
-2.24063
-1.99328
-1.74377
-1.49235
-1.23927
-0.984782
-0.729194
-0.47283
-0.215906
0.0416623
0.299767
0.558019
0.816163
1.07397
1.33127
1.58785
1.84358
2.09831
2.3519
2.60421
2.8551
3.10443
3.3521
3.59802
3.84208
4.08419
4.32425
4.56219
4.79794
5.03143
5.26262
5.49146
5.7179
5.94189
6.16337
6.38227
6.59852
6.81204
7.02275
7.23058
7.43541
7.63717
7.83574
8.031
8.22281
8.41104
8.59553
8.77617
8.95308
9.12615
9.2984
9.46051
-7.48127
-7.48145
-7.48179
-7.48214
-7.48209
-7.48124
-7.47932
-7.47696
-7.47536
-7.47541
-7.47738
-7.48106
-7.48594
-7.49139
-7.4968
-7.50169
-7.50572
-7.50869
-7.51043
-7.51072
-7.50968
-7.50764
-7.50502
-7.5023
-7.4999
-7.49807
-7.49685
-7.49604
-7.49541
-7.4948
-7.49422
-7.49364
-7.49301
-7.49223
-7.4913
-7.49065
-7.49102
-7.49285
-7.49584
-7.49898
-7.50114
-7.502
-7.50203
-7.50126
-7.49996
-7.49975
-7.503
-7.50963
-7.51599
-7.52265
-7.53316
-7.54874
-7.57096
-7.603
-7.64716
-7.70202
-7.76492
-7.83378
-7.90601
-7.97915
-8.05131
-8.12148
-8.18842
-8.25085
-8.30882
-8.36236
-8.41147
-8.45624
-8.49676
-8.53314
-8.56546
-8.59378
-8.61816
-8.63861
-8.65513
-8.66771
-8.6763
-8.68086
-8.68132
-8.67761
-8.66966
-8.65738
-8.64069
-8.61951
-8.59374
-8.56331
-8.52814
-8.48812
-8.44318
-8.39323
-8.33821
-8.27803
-8.21262
-8.14191
-8.06584
-7.98435
-7.89737
-7.80481
-7.70657
-7.60252
-7.49278
-7.37753
-7.25671
-7.1302
-6.99799
-6.86006
-6.71642
-6.56709
-6.4121
-6.25149
-6.08531
-5.91361
-5.73646
-5.55396
-5.3662
-5.17329
-4.97535
-4.77252
-4.56495
-4.35279
-4.13621
-3.91541
-3.69058
-3.46191
-3.22963
-2.99395
-2.75511
-2.51334
-2.26889
-2.022
-1.77291
-1.52185
-1.26907
-1.01479
-0.759231
-0.502592
-0.245123
0.0127397
0.270773
0.528935
0.787004
1.04477
1.30205
1.55865
1.81442
2.0692
2.32287
2.57527
2.82626
3.07572
3.32353
3.5696
3.81383
4.05611
4.29637
4.53451
4.77046
5.00417
5.23558
5.46463
5.69129
5.91549
6.13719
6.35633
6.57281
6.78658
6.99755
7.20563
7.41073
7.61277
7.81165
8.00724
8.19945
8.38818
8.5733
8.75469
8.93249
9.106
9.28032
9.44173
-7.48255
-7.48254
-7.48256
-7.48262
-7.48269
-7.48272
-7.48298
-7.48397
-7.48613
-7.48959
-7.49412
-7.49937
-7.50491
-7.51033
-7.51527
-7.51943
-7.52264
-7.52477
-7.52576
-7.52556
-7.52417
-7.52175
-7.51847
-7.51452
-7.51016
-7.50566
-7.50131
-7.49736
-7.49403
-7.49138
-7.48937
-7.48777
-7.48633
-7.48512
-7.48463
-7.48555
-7.48839
-7.49277
-7.49725
-7.49997
-7.49975
-7.49764
-7.49575
-7.49548
-7.49624
-7.49806
-7.50351
-7.51373
-7.52792
-7.54665
-7.57084
-7.60069
-7.63673
-7.6796
-7.72926
-7.78447
-7.84368
-7.90554
-7.96866
-8.03181
-8.09399
-8.15449
-8.21265
-8.2678
-8.31969
-8.36818
-8.41315
-8.45457
-8.49241
-8.52667
-8.55733
-8.58438
-8.60779
-8.62754
-8.64358
-8.65584
-8.66428
-8.6688
-8.66934
-8.66581
-8.65812
-8.64617
-8.62988
-8.60916
-8.5839
-8.55404
-8.51946
-8.48009
-8.43584
-8.38662
-8.33236
-8.27298
-8.20841
-8.13858
-8.06343
-7.98289
-7.89693
-7.80549
-7.70844
-7.60567
-7.49719
-7.38308
-7.26338
-7.13802
-7.00698
-6.87024
-6.72781
-6.5797
-6.42594
-6.26656
-6.10161
-5.93114
-5.75522
-5.57394
-5.38738
-5.19566
-4.99889
-4.79721
-4.59076
-4.37969
-4.16419
-3.94442
-3.72058
-3.49287
-3.2615
-3.0267
-2.78869
-2.54771
-2.30399
-2.05779
-1.80934
-1.55887
-1.30663
-1.05287
-0.797828
-0.541696
-0.28471
-0.0272303
0.230515
0.488413
0.746246
1.00381
1.26092
1.51739
1.77305
2.02776
2.28137
2.53374
2.78471
3.03417
3.282
3.52811
3.7724
4.01476
4.2551
4.49334
4.72939
4.96321
5.19472
5.42388
5.65063
5.87492
6.09671
6.31592
6.53248
6.74632
6.95735
7.16549
7.37064
7.57273
7.77165
7.96729
8.15953
8.34826
8.53343
8.71501
8.89346
9.06749
9.24458
9.40195
-7.48371
-7.48342
-7.48305
-7.48309
-7.4843
-7.48706
-7.49114
-7.49619
-7.50186
-7.50786
-7.5139
-7.51973
-7.52513
-7.52993
-7.53396
-7.53708
-7.53921
-7.54027
-7.54025
-7.53911
-7.53688
-7.53362
-7.52941
-7.52435
-7.51854
-7.5121
-7.50522
-7.49821
-7.4914
-7.48516
-7.47976
-7.47539
-7.47235
-7.47113
-7.47248
-7.47657
-7.48221
-7.48736
-7.49068
-7.49187
-7.49156
-7.49137
-7.49275
-7.49638
-7.50277
-7.51262
-7.5268
-7.54589
-7.56997
-7.59873
-7.63173
-7.66875
-7.70963
-7.75419
-7.80217
-7.85306
-7.90622
-7.96097
-8.01655
-8.0722
-8.12721
-8.18098
-8.23302
-8.28287
-8.33023
-8.37488
-8.41665
-8.45541
-8.49109
-8.5236
-8.55288
-8.57885
-8.60145
-8.62061
-8.63624
-8.64825
-8.65657
-8.6611
-8.66174
-8.6584
-8.65097
-8.63936
-8.62347
-8.6032
-8.57845
-8.54912
-8.51514
-8.47639
-8.43279
-8.38427
-8.33073
-8.27211
-8.20831
-8.13929
-8.06495
-7.98525
-7.90013
-7.80952
-7.71335
-7.61156
-7.50415
-7.39113
-7.27249
-7.14821
-7.01826
-6.88263
-6.74133
-6.59435
-6.44173
-6.2835
-6.11969
-5.95037
-5.77559
-5.59544
-5.41
-5.21939
-5.02371
-4.82309
-4.61769
-4.40764
-4.19313
-3.97432
-3.7514
-3.52459
-3.29408
-3.06009
-2.82286
-2.58262
-2.3396
-2.09406
-1.84621
-1.59631
-1.34459
-1.09132
-0.836729
-0.581056
-0.324531
-0.0674272
0.190032
0.447675
0.705282
0.962654
1.21959
1.47593
1.73148
1.98611
2.23966
2.49197
2.74292
2.99236
3.24021
3.48634
3.73066
3.97307
4.21347
4.45178
4.68792
4.92181
5.1534
5.38263
5.60946
5.83382
6.05567
6.27493
6.49155
6.70543
6.91649
7.12464
7.32981
7.53189
7.7308
7.92644
8.11872
8.30752
8.49282
8.67455
8.85331
9.02726
9.20509
9.35627
-7.48605
-7.48545
-7.48508
-7.48658
-7.49085
-7.49713
-7.50435
-7.51185
-7.5192
-7.52608
-7.53234
-7.53794
-7.54282
-7.5469
-7.55011
-7.55236
-7.55359
-7.55375
-7.55281
-7.55076
-7.5476
-7.54336
-7.5381
-7.53187
-7.52473
-7.51675
-7.50802
-7.49876
-7.48931
-7.48015
-7.47189
-7.46534
-7.46149
-7.46125
-7.46445
-7.46921
-7.47392
-7.47791
-7.4811
-7.48397
-7.48728
-7.49206
-7.4993
-7.50997
-7.5249
-7.54426
-7.56758
-7.59437
-7.62437
-7.65725
-7.69281
-7.73102
-7.77185
-7.81522
-7.86089
-7.90849
-7.95757
-8.00761
-8.05807
-8.10843
-8.15822
-8.20697
-8.25432
-8.29992
-8.34351
-8.38486
-8.42381
-8.46019
-8.49388
-8.52475
-8.5527
-8.57761
-8.59939
-8.61792
-8.6331
-8.64481
-8.65296
-8.65741
-8.65808
-8.65484
-8.6476
-8.63623
-8.62064
-8.60073
-8.57638
-8.5475
-8.51399
-8.47576
-8.43271
-8.38476
-8.33182
-8.27382
-8.21068
-8.14233
-8.0687
-7.98972
-7.90533
-7.81548
-7.7201
-7.61915
-7.51261
-7.40048
-7.28273
-7.15935
-7.0303
-6.89559
-6.7552
-6.60915
-6.45747
-6.30016
-6.13729
-5.96889
-5.79504
-5.6158
-5.43126
-5.24153
-5.04672
-4.84695
-4.64238
-4.43313
-4.2194
-4.00134
-3.77915
-3.55303
-3.32319
-3.08983
-2.85321
-2.61353
-2.37105
-2.12601
-1.87863
-1.62916
-1.37786
-1.12495
-0.870704
-0.615352
-0.359134
-0.102301
0.154932
0.412363
0.669786
0.926988
1.18379
1.43999
1.69545
1.94999
2.20346
2.45572
2.70661
2.95603
3.20385
3.44998
3.69431
3.93674
4.17716
4.4155
4.65167
4.88561
5.11725
5.34653
5.57341
5.79783
6.01973
6.23904
6.4557
6.66961
6.88071
7.08892
7.29413
7.49627
7.69523
7.89094
8.08328
8.27217
8.45756
8.6393
8.81797
8.99122
9.16852
9.31298
-7.49033
-7.48943
-7.49002
-7.49455
-7.50195
-7.51029
-7.51872
-7.52677
-7.53419
-7.54088
-7.54686
-7.5521
-7.55655
-7.56012
-7.56276
-7.56439
-7.56497
-7.56445
-7.56283
-7.56007
-7.55621
-7.55125
-7.54522
-7.53811
-7.52994
-7.52079
-7.51081
-7.5002
-7.48935
-7.47892
-7.46974
-7.46305
-7.45983
-7.45982
-7.46158
-7.46407
-7.46725
-7.47151
-7.47712
-7.48396
-7.49234
-7.50352
-7.51844
-7.53713
-7.55931
-7.58461
-7.61274
-7.64333
-7.67617
-7.71107
-7.7479
-7.7866
-7.82706
-7.86917
-7.91272
-7.95746
-8.00307
-8.04921
-8.09552
-8.14164
-8.18723
-8.23198
-8.27558
-8.31777
-8.35829
-8.39695
-8.43355
-8.46792
-8.49991
-8.52936
-8.55615
-8.58013
-8.60117
-8.61913
-8.63389
-8.6453
-8.65326
-8.65762
-8.65827
-8.65509
-8.64797
-8.63678
-8.62142
-8.60177
-8.57774
-8.5492
-8.51607
-8.47824
-8.43561
-8.38811
-8.33564
-8.27814
-8.2155
-8.14768
-8.07459
-7.99618
-7.91238
-7.82312
-7.72837
-7.62808
-7.52222
-7.41077
-7.29371
-7.17101
-7.04266
-6.90865
-6.76897
-6.62363
-6.47265
-6.31606
-6.15389
-5.9862
-5.81303
-5.63447
-5.4506
-5.26152
-5.06735
-4.8682
-4.66422
-4.45556
-4.24238
-4.02485
-3.80317
-3.57754
-3.34815
-3.11523
-2.87902
-2.63973
-2.39762
-2.15291
-1.90585
-1.65668
-1.40565
-1.15301
-0.899003
-0.643875
-0.387869
-0.131225
0.125834
0.383103
0.64037
0.89743
1.1541
1.41019
1.66554
1.91998
2.17336
2.42553
2.67634
2.92569
3.17345
3.41953
3.66381
3.9062
4.14659
4.38491
4.62106
4.85498
5.0866
5.31588
5.54276
5.76718
5.98908
6.2084
6.42507
6.63901
6.85013
7.05835
7.26359
7.46576
7.66476
7.86049
8.05287
8.24177
8.42714
8.60873
8.78707
8.95935
9.13584
9.2738
-7.49554
-7.49513
-7.49794
-7.50511
-7.51374
-7.5223
-7.53046
-7.53808
-7.54513
-7.55154
-7.55728
-7.56226
-7.5664
-7.56964
-7.57189
-7.57311
-7.57325
-7.5723
-7.57022
-7.56701
-7.5627
-7.5573
-7.55073
-7.54292
-7.53402
-7.52422
-7.51374
-7.50285
-7.49204
-7.4821
-7.47413
-7.46882
-7.46562
-7.46373
-7.4632
-7.4645
-7.46821
-7.47415
-7.48224
-7.4932
-7.50753
-7.52517
-7.54589
-7.56948
-7.59568
-7.62418
-7.65477
-7.68729
-7.72156
-7.75743
-7.79474
-7.83336
-7.87317
-7.91403
-7.95579
-7.99825
-8.04122
-8.08444
-8.12769
-8.17071
-8.21325
-8.25504
-8.29586
-8.33547
-8.37366
-8.41023
-8.445
-8.47779
-8.50842
-8.53675
-8.56259
-8.58581
-8.60623
-8.62372
-8.63811
-8.64927
-8.65705
-8.66131
-8.66193
-8.65878
-8.65173
-8.64067
-8.62548
-8.60603
-8.58223
-8.55395
-8.52109
-8.48356
-8.44125
-8.39407
-8.34195
-8.28479
-8.22253
-8.15508
-8.08239
-8.00439
-7.92101
-7.8322
-7.73791
-7.63809
-7.53272
-7.42176
-7.3052
-7.183
-7.05515
-6.92164
-6.78247
-6.63764
-6.48717
-6.33108
-6.16941
-6.0022
-5.82952
-5.65143
-5.46802
-5.27938
-5.08564
-4.8869
-4.68332
-4.47503
-4.26221
-4.04502
-3.82366
-3.59832
-3.36922
-3.13657
-2.9006
-2.66154
-2.41964
-2.17513
-1.92825
-1.67926
-1.42841
-1.17593
-0.922074
-0.667096
-0.411234
-0.154724
0.102205
0.359349
0.616489
0.873431
1.12998
1.38596
1.64119
1.89552
2.14878
2.40083
2.65153
2.90077
3.14844
3.39442
3.63862
3.88091
4.12122
4.35944
4.59551
4.82935
5.0609
5.29011
5.51693
5.74131
5.96318
6.18247
6.39911
6.61302
6.82412
7.03233
7.23756
7.43972
7.63872
7.83446
8.02682
8.21567
8.40092
8.58226
8.76016
8.9314
9.10715
9.2391
-7.4995
-7.50038
-7.50576
-7.51389
-7.52216
-7.53011
-7.53773
-7.54498
-7.55176
-7.55798
-7.56354
-7.56835
-7.57232
-7.57537
-7.57742
-7.57843
-7.57835
-7.57717
-7.57487
-7.57145
-7.56693
-7.56123
-7.55427
-7.54619
-7.53725
-7.52758
-7.51745
-7.5073
-7.49788
-7.48986
-7.48349
-7.4782
-7.47362
-7.47049
-7.4696
-7.47123
-7.47594
-7.48415
-7.49586
-7.51097
-7.52918
-7.5503
-7.57406
-7.6002
-7.62849
-7.65871
-7.69067
-7.7242
-7.75913
-7.79531
-7.8326
-7.87087
-7.91
-7.94986
-7.9903
-8.03118
-8.07233
-8.11359
-8.15477
-8.19566
-8.23607
-8.2758
-8.31465
-8.35242
-8.38893
-8.42399
-8.45741
-8.48903
-8.51867
-8.54614
-8.57127
-8.59391
-8.61386
-8.63098
-8.64509
-8.65604
-8.66368
-8.66785
-8.66844
-8.66529
-8.65829
-8.64732
-8.63224
-8.61293
-8.58929
-8.56119
-8.52853
-8.49119
-8.44909
-8.40212
-8.35022
-8.2933
-8.23127
-8.16408
-8.09164
-8.01391
-7.93081
-7.84229
-7.7483
-7.64879
-7.54374
-7.4331
-7.31686
-7.19499
-7.06747
-6.93429
-6.79545
-6.65095
-6.50081
-6.34505
-6.1837
-6.01681
-5.84443
-5.66664
-5.48351
-5.29515
-5.10166
-4.90317
-4.69981
-4.49173
-4.2791
-4.06209
-3.84089
-3.6157
-3.38673
-3.1542
-2.91835
-2.67939
-2.43758
-2.19315
-1.94636
-1.69746
-1.44669
-1.19429
-0.940513
-0.685622
-0.42985
-0.173433
0.0834032
0.340447
0.597485
0.854321
1.11076
1.36663
1.62174
1.87594
2.12907
2.38098
2.63154
2.88064
3.12818
3.37404
3.61811
3.86027
4.10044
4.33852
4.57444
4.80815
5.03959
5.26869
5.49541
5.71971
5.94151
6.16073
6.3773
6.59115
6.8022
7.01036
7.21555
7.41769
7.61668
7.81239
8.0047
8.19347
8.37856
8.5596
8.73699
8.90721
9.08229
9.20887
-7.50052
-7.50304
-7.50988
-7.51768
-7.52531
-7.53279
-7.5401
-7.54713
-7.55378
-7.55992
-7.56545
-7.57024
-7.57419
-7.57723
-7.57928
-7.58029
-7.58022
-7.57905
-7.57677
-7.57336
-7.56879
-7.563
-7.55606
-7.54823
-7.5397
-7.53075
-7.5218
-7.51332
-7.50565
-7.49878
-7.49252
-7.48679
-7.48202
-7.4792
-7.4791
-7.48227
-7.48909
-7.49957
-7.51343
-7.53054
-7.55061
-7.57337
-7.59858
-7.62597
-7.65532
-7.68641
-7.71905
-7.75307
-7.7883
-7.82459
-7.8618
-7.8998
-7.93847
-7.97767
-8.01727
-8.05716
-8.09719
-8.13721
-8.17707
-8.2166
-8.25564
-8.29403
-8.33159
-8.36815
-8.40354
-8.4376
-8.47013
-8.50096
-8.52992
-8.55681
-8.58146
-8.60368
-8.62331
-8.64016
-8.65407
-8.66487
-8.67238
-8.67648
-8.67702
-8.67387
-8.66689
-8.65597
-8.64096
-8.62174
-8.5982
-8.57021
-8.53766
-8.50044
-8.45845
-8.4116
-8.35981
-8.30301
-8.24111
-8.17404
-8.10174
-8.02415
-7.94119
-7.85283
-7.75899
-7.65964
-7.55475
-7.44429
-7.32823
-7.20654
-7.0792
-6.9462
-6.80755
-6.66324
-6.51328
-6.3577
-6.19653
-6.02982
-5.85761
-5.67997
-5.49698
-5.30875
-5.11538
-4.91699
-4.71372
-4.50572
-4.29315
-4.07619
-3.85504
-3.62987
-3.40092
-3.1684
-2.93255
-2.69359
-2.45178
-2.20736
-1.96058
-1.71168
-1.46093
-1.20855
-0.954806
-0.699958
-0.444238
-0.187885
0.0688812
0.325839
0.582786
0.839519
1.09585
1.35159
1.60657
1.86062
2.11359
2.36534
2.61574
2.86468
3.11205
3.35775
3.60165
3.84364
4.08363
4.32153
4.55728
4.79082
5.02209
5.25105
5.47764
5.70182
5.92353
6.14266
6.35914
6.57291
6.78388
6.99198
7.19712
7.39922
7.59818
7.79386
7.98611
8.17476
8.35967
8.54036
8.71725
8.88648
9.06098
9.18289
-7.49704
-7.5009
-7.50787
-7.51517
-7.52252
-7.52985
-7.53708
-7.54411
-7.55081
-7.55707
-7.56275
-7.56772
-7.57188
-7.57512
-7.57738
-7.57859
-7.57871
-7.57769
-7.57554
-7.57224
-7.56776
-7.56216
-7.55561
-7.54838
-7.54075
-7.53304
-7.52544
-7.51804
-7.51095
-7.50425
-7.49811
-7.4929
-7.48923
-7.48784
-7.48929
-7.49394
-7.50205
-7.51365
-7.52856
-7.54661
-7.56756
-7.59112
-7.61703
-7.64503
-7.67492
-7.70647
-7.73949
-7.77381
-7.80925
-7.84568
-7.88293
-7.92086
-7.95935
-7.99827
-8.03749
-8.0769
-8.11636
-8.15573
-8.19489
-8.23368
-8.27197
-8.30962
-8.34645
-8.38233
-8.41709
-8.45057
-8.48258
-8.51296
-8.54152
-8.56805
-8.59238
-8.61434
-8.63374
-8.65039
-8.66413
-8.67479
-8.6822
-8.68622
-8.68672
-8.68356
-8.67661
-8.66571
-8.65075
-8.63159
-8.60811
-8.58018
-8.54768
-8.5105
-8.46854
-8.42171
-8.36995
-8.31316
-8.25128
-8.18424
-8.11196
-8.03439
-7.95146
-7.86312
-7.76931
-7.67
-7.56516
-7.45474
-7.33873
-7.2171
-7.08983
-6.95691
-6.81832
-6.67408
-6.5242
-6.3687
-6.2076
-6.04094
-5.86879
-5.69119
-5.50824
-5.32003
-5.12667
-4.92828
-4.725
-4.51698
-4.30438
-4.08738
-3.86617
-3.64095
-3.41193
-3.17934
-2.94342
-2.70439
-2.46252
-2.21805
-1.97122
-1.72229
-1.47151
-1.21911
-0.965369
-0.710536
-0.454849
-0.198543
0.0581604
0.315042
0.571895
0.828523
1.08473
1.34034
1.59516
1.84904
2.10183
2.35339
2.60359
2.85233
3.09952
3.34504
3.58875
3.83052
4.07028
4.30796
4.54349
4.77682
5.0079
5.23667
5.46311
5.68717
5.90876
6.12777
6.34414
6.5578
6.76868
6.9767
7.18179
7.38384
7.58277
7.77839
7.97057
8.15909
8.34377
8.52411
8.70048
8.86879
9.04274
9.16073
-7.48718
-7.49165
-7.49836
-7.5057
-7.51328
-7.52084
-7.52827
-7.53551
-7.54248
-7.54904
-7.55505
-7.56037
-7.56487
-7.56843
-7.57099
-7.57248
-7.57285
-7.57208
-7.57018
-7.56716
-7.56307
-7.55805
-7.55228
-7.54593
-7.53917
-7.53216
-7.52507
-7.51801
-7.51113
-7.50473
-7.49922
-7.49501
-7.49256
-7.49241
-7.49504
-7.50079
-7.50983
-7.52221
-7.53782
-7.55647
-7.57793
-7.60194
-7.62825
-7.65663
-7.68687
-7.71877
-7.75214
-7.78678
-7.82254
-7.85923
-7.8967
-7.93482
-7.97344
-8.01244
-8.05169
-8.09105
-8.1304
-8.16962
-8.20858
-8.24715
-8.2852
-8.32258
-8.35914
-8.39473
-8.42921
-8.46241
-8.49417
-8.5243
-8.55263
-8.57897
-8.60313
-8.62491
-8.64416
-8.66068
-8.67429
-8.68483
-8.69214
-8.69609
-8.69655
-8.69338
-8.68642
-8.67555
-8.66061
-8.64147
-8.61802
-8.59011
-8.55761
-8.52039
-8.47837
-8.43148
-8.37964
-8.32278
-8.26083
-8.19372
-8.12138
-8.04374
-7.96074
-7.87233
-7.77845
-7.67908
-7.57419
-7.46374
-7.3477
-7.22604
-7.09875
-6.9658
-6.82721
-6.68296
-6.53308
-6.37757
-6.21647
-6.0498
-5.87763
-5.70001
-5.51702
-5.32876
-5.13535
-4.9369
-4.73355
-4.52545
-4.31276
-4.09566
-3.87434
-3.64901
-3.41987
-3.18718
-2.95114
-2.71202
-2.47005
-2.22549
-1.9786
-1.72962
-1.47878
-1.22636
-0.972611
-0.717792
-0.462138
-0.205881
0.0507508
0.307547
0.564295
0.8208
1.07687
1.33231
1.58696
1.84064
2.09323
2.34456
2.59454
2.84305
3.09002
3.33534
3.57882
3.82035
4.05985
4.29726
4.53254
4.76563
4.99649
5.22506
5.45132
5.67525
5.89672
6.11561
6.33185
6.54539
6.75617
6.96411
7.16913
7.37115
7.57004
7.76562
7.95771
8.14609
8.33055
8.51052
8.68639
8.85385
9.02727
9.14207
-7.4695
-7.47395
-7.48088
-7.48903
-7.49733
-7.50537
-7.51317
-7.52075
-7.52813
-7.53516
-7.54167
-7.54747
-7.5524
-7.55637
-7.55933
-7.5612
-7.56197
-7.56162
-7.56018
-7.55767
-7.55418
-7.54979
-7.54463
-7.53884
-7.53255
-7.52589
-7.51902
-7.51216
-7.50562
-7.49975
-7.49486
-7.4914
-7.48984
-7.49067
-7.49427
-7.50093
-7.51079
-7.52387
-7.54006
-7.55918
-7.58104
-7.6054
-7.63205
-7.66079
-7.69142
-7.72373
-7.75753
-7.79262
-7.82883
-7.86598
-7.90391
-7.94249
-7.98157
-8.021
-8.06063
-8.10031
-8.13994
-8.17937
-8.2185
-8.25718
-8.29529
-8.3327
-8.36928
-8.40487
-8.43933
-8.4725
-8.5042
-8.53427
-8.56252
-8.58876
-8.6128
-8.63447
-8.65359
-8.66998
-8.68347
-8.69386
-8.70103
-8.70485
-8.70522
-8.702
-8.69504
-8.68416
-8.66922
-8.65008
-8.62661
-8.59868
-8.56612
-8.5288
-8.48665
-8.43962
-8.38765
-8.33067
-8.2686
-8.20137
-8.12892
-8.05116
-7.96803
-7.87948
-7.78548
-7.68599
-7.58099
-7.47045
-7.35433
-7.23261
-7.10525
-6.97224
-6.8336
-6.68931
-6.53939
-6.38385
-6.22271
-6.056
-5.88378
-5.7061
-5.52305
-5.33472
-5.14123
-4.94269
-4.73925
-4.53105
-4.31826
-4.10105
-3.87961
-3.65416
-3.42491
-3.1921
-2.95595
-2.71672
-2.47466
-2.23002
-1.98306
-1.73403
-1.48316
-1.23071
-0.976972
-0.722178
-0.466569
-0.210378
0.0461701
0.302861
0.559487
0.815846
1.07175
1.327
1.58144
1.8349
2.08725
2.33834
2.58805
2.83629
3.08304
3.32817
3.57141
3.81265
4.05185
4.28898
4.52397
4.7568
4.98741
5.21576
5.44182
5.66562
5.88698
6.10573
6.32183
6.53524
6.74591
6.95377
7.15873
7.36072
7.55959
7.75512
7.94712
8.13535
8.31958
8.4992
8.67458
8.84127
9.01413
9.12647
-7.44369
-7.448
-7.45587
-7.46543
-7.47474
-7.48334
-7.49155
-7.49964
-7.50769
-7.51549
-7.52274
-7.52918
-7.53467
-7.53915
-7.54261
-7.545
-7.5463
-7.54651
-7.54562
-7.54367
-7.54071
-7.53681
-7.53208
-7.52661
-7.52053
-7.51403
-7.50733
-7.5007
-7.49443
-7.48888
-7.48445
-7.48161
-7.48081
-7.48247
-7.48692
-7.49438
-7.50496
-7.51863
-7.53531
-7.55485
-7.57706
-7.60178
-7.62881
-7.65796
-7.68907
-7.72192
-7.75633
-7.79206
-7.82894
-7.86677
-7.90541
-7.94468
-7.98442
-8.02449
-8.06472
-8.10498
-8.14513
-8.18504
-8.22459
-8.26363
-8.30203
-8.3397
-8.37649
-8.41226
-8.44687
-8.48016
-8.51195
-8.54206
-8.57027
-8.59638
-8.62021
-8.64163
-8.66051
-8.67667
-8.68992
-8.70004
-8.70693
-8.71054
-8.71079
-8.70755
-8.70062
-8.68978
-8.67486
-8.65573
-8.63226
-8.60431
-8.57166
-8.53414
-8.49176
-8.44457
-8.39245
-8.33533
-8.27313
-8.20579
-8.13321
-8.05532
-7.97204
-7.88334
-7.78919
-7.68957
-7.58446
-7.47383
-7.35763
-7.23583
-7.1084
-6.97533
-6.83663
-6.69231
-6.54236
-6.3868
-6.22565
-6.05892
-5.88666
-5.70895
-5.52586
-5.33748
-5.14394
-4.94534
-4.74184
-4.53357
-4.3207
-4.10341
-3.88189
-3.65636
-3.42703
-3.19413
-2.9579
-2.71859
-2.47647
-2.23179
-1.98481
-1.73575
-1.48487
-1.23246
-0.978766
-0.724042
-0.468525
-0.212449
0.0439671
0.300504
0.556956
0.813119
1.0688
1.32382
1.578
1.83119
2.08325
2.33405
2.58346
2.83141
3.07799
3.32297
3.56597
3.80689
4.04576
4.28257
4.51727
4.74983
4.98019
5.20831
5.43419
5.6579
5.87919
6.09779
6.31374
6.52703
6.7376
6.94537
7.15027
7.35224
7.55112
7.74662
7.93853
8.1266
8.31061
8.48988
8.66481
8.83078
9.00306
9.11362
-7.41105
-7.41569
-7.42506
-7.43641
-7.44682
-7.45613
-7.46508
-7.47385
-7.48258
-7.49129
-7.49961
-7.50706
-7.51326
-7.51823
-7.52219
-7.52514
-7.52703
-7.52781
-7.52746
-7.526
-7.52345
-7.51988
-7.51536
-7.51001
-7.50401
-7.49755
-7.49086
-7.48426
-7.47808
-7.47276
-7.46872
-7.4664
-7.46622
-7.46856
-7.47367
-7.48174
-7.49284
-7.50696
-7.52403
-7.54394
-7.56653
-7.59166
-7.61913
-7.6488
-7.68047
-7.71395
-7.74904
-7.78551
-7.82317
-7.86184
-7.90133
-7.94146
-7.98204
-8.0229
-8.0639
-8.10488
-8.14571
-8.18623
-8.22633
-8.26585
-8.30467
-8.34267
-8.37972
-8.41569
-8.45043
-8.48378
-8.51555
-8.54554
-8.57352
-8.59926
-8.62262
-8.64355
-8.662
-8.67782
-8.69069
-8.7003
-8.70668
-8.71002
-8.71025
-8.70714
-8.70043
-8.68982
-8.67507
-8.65606
-8.6327
-8.60482
-8.5721
-8.53432
-8.49168
-8.4443
-8.39204
-8.33478
-8.27244
-8.20497
-8.13227
-8.05423
-7.97075
-7.88184
-7.78748
-7.68769
-7.58245
-7.4717
-7.35541
-7.2335
-7.10597
-6.97282
-6.83406
-6.6897
-6.53974
-6.38418
-6.22302
-6.05628
-5.884
-5.70627
-5.52315
-5.33476
-5.1412
-4.94259
-4.73907
-4.53079
-4.31789
-4.10056
-3.879
-3.65343
-3.42407
-3.19115
-2.95492
-2.71564
-2.47356
-2.22894
-1.98202
-1.73304
-1.48227
-1.22999
-0.976472
-0.721941
-0.466644
-0.210812
0.0453346
0.301579
0.557711
0.813529
1.06884
1.32346
1.57722
1.82999
2.0816
2.33195
2.5809
2.82843
3.07468
3.3194
3.56203
3.80255
4.04105
4.27751
4.5119
4.74417
4.97428
5.20216
5.42791
5.65164
5.87292
6.09139
6.30719
6.52036
6.73084
6.93856
7.14342
7.34541
7.54434
7.73984
7.93166
8.11959
8.30337
8.48232
8.65681
8.82213
8.99376
9.10321
-7.3746
-7.38012
-7.3915
-7.40502
-7.41656
-7.42614
-7.43547
-7.44528
-7.45528
-7.46512
-7.4745
-7.48297
-7.48996
-7.49548
-7.49993
-7.50344
-7.5059
-7.5072
-7.50732
-7.50623
-7.50394
-7.50052
-7.49605
-7.49066
-7.48453
-7.47787
-7.47101
-7.46428
-7.45808
-7.45286
-7.44903
-7.44702
-7.44721
-7.44991
-7.45536
-7.46372
-7.47506
-7.4894
-7.50669
-7.52684
-7.54972
-7.5752
-7.60312
-7.63332
-7.6656
-7.69976
-7.73558
-7.77285
-7.81138
-7.85095
-7.89136
-7.93241
-7.97391
-8.01566
-8.0575
-8.09926
-8.14077
-8.18186
-8.2224
-8.26226
-8.30131
-8.33943
-8.3765
-8.41239
-8.44698
-8.48009
-8.51154
-8.5411
-8.56852
-8.59346
-8.61582
-8.63582
-8.65364
-8.66905
-8.68146
-8.69015
-8.69553
-8.69845
-8.69876
-8.69602
-8.68981
-8.6797
-8.66534
-8.64662
-8.62356
-8.59611
-8.56405
-8.52716
-8.48523
-8.43817
-8.38596
-8.32862
-8.26616
-8.19853
-8.12561
-8.04729
-7.96351
-7.87426
-7.77959
-7.67951
-7.57399
-7.463
-7.34647
-7.22435
-7.09662
-6.9633
-6.82439
-6.67991
-6.52985
-6.3742
-6.21298
-6.04617
-5.87384
-5.69605
-5.51288
-5.32445
-5.13085
-4.93221
-4.72866
-4.52034
-4.3074
-4.09003
-3.86844
-3.64285
-3.41347
-3.18055
-2.94435
-2.70512
-2.46311
-2.21857
-1.97174
-1.72287
-1.47226
-1.22019
-0.966887
-0.712612
-0.457602
-0.202087
0.0537083
0.309571
0.565289
0.820659
1.07549
1.3296
1.58284
1.83503
2.08605
2.33575
2.58401
2.83071
3.07578
3.31917
3.56084
3.80068
4.03862
4.27458
4.50851
4.74035
4.97004
5.19758
5.42308
5.6467
5.86786
6.08613
6.30178
6.51484
6.72526
6.93294
7.13782
7.33994
7.53903
7.73457
7.92632
8.11411
8.29769
8.47634
8.65044
8.81514
8.9861
9.09506
-7.33788
-7.34458
-7.35842
-7.37385
-7.38569
-7.39568
-7.40607
-7.41701
-7.42807
-7.43895
-7.44936
-7.45877
-7.46656
-7.47275
-7.47784
-7.48198
-7.48502
-7.48683
-7.48734
-7.48651
-7.48435
-7.4809
-7.47625
-7.47057
-7.46405
-7.45698
-7.44969
-7.44257
-7.43604
-7.43054
-7.42649
-7.42429
-7.42429
-7.42682
-7.43207
-7.44024
-7.4514
-7.46558
-7.48277
-7.50291
-7.52591
-7.55165
-7.58
-7.61076
-7.64373
-7.67866
-7.71532
-7.7535
-7.79298
-7.83354
-7.87492
-7.9169
-7.95927
-8.00182
-8.04434
-8.08665
-8.12858
-8.16995
-8.21062
-8.25047
-8.28938
-8.32724
-8.36395
-8.39939
-8.43347
-8.46603
-8.49692
-8.52588
-8.55249
-8.57602
-8.59625
-8.61419
-8.63073
-8.64574
-8.65849
-8.66831
-8.67494
-8.67855
-8.67921
-8.67676
-8.67087
-8.66105
-8.6469
-8.62834
-8.60547
-8.57834
-8.54689
-8.5109
-8.46976
-8.4231
-8.37105
-8.31378
-8.25128
-8.18351
-8.11039
-8.03185
-7.94782
-7.85833
-7.76343
-7.66313
-7.55741
-7.44622
-7.32952
-7.20726
-7.07941
-6.94601
-6.80706
-6.66255
-6.51248
-6.35684
-6.19564
-6.02887