/*--------------------------------*- C++ -*----------------------------------*\
  =========                 |
  \\      /  F ield         | OpenFOAM: The Open Source CFD Toolbox
   \\    /   O peration     | Website:  https://openfoam.org
    \\  /    A nd           | Version:  8
     \\/     M anipulation  |
\*---------------------------------------------------------------------------*/
FoamFile
{
    version     2.0;
    format      ascii;
    class       surfaceScalarField;
    location    "400";
    object      phi;
}
// * * * * * * * * * * * * * * * * * * * * * * * * * * * * * * * * * * * * * //

dimensions      [0 3 -1 0 0 0 0];

internalField   nonuniform List<scalar> 
24170
(
2.99278e-06
1.41126e-07
2.84423e-06
1.48618e-07
2.71109e-06
1.33205e-07
2.59387e-06
1.17267e-07
2.49182e-06
1.02121e-07
2.40514e-06
8.67376e-08
2.33332e-06
7.18572e-08
2.27547e-06
5.78183e-08
2.22774e-06
4.77085e-08
2.18785e-06
3.98577e-08
2.15542e-06
3.24195e-08
2.12909e-06
2.63266e-08
2.10661e-06
2.24849e-08
2.08799e-06
1.86282e-08
2.07387e-06
1.4119e-08
2.0633e-06
1.05719e-08
2.05678e-06
6.51836e-09
-1.26029e-09
2.05805e-06
3.52437e-06
7.32258e-08
3.56153e-06
1.1159e-07
3.58031e-06
1.1456e-07
3.58283e-06
1.14861e-07
3.57282e-06
1.12249e-07
3.55185e-06
1.0781e-07
3.52406e-06
9.97093e-08
3.49286e-06
8.89974e-08
3.46026e-06
8.02689e-08
3.42703e-06
7.30553e-08
3.39437e-06
6.50665e-08
3.36227e-06
5.84177e-08
3.33017e-06
5.45792e-08
3.29993e-06
4.88609e-08
3.27262e-06
4.14262e-08
3.24786e-06
3.53328e-08
3.22408e-06
3.02952e-08
2.38885e-08
3.19893e-06
3.83272e-06
5.27119e-08
3.85155e-06
9.27677e-08
3.86785e-06
9.82763e-08
3.88305e-06
9.96807e-08
3.89593e-06
9.93928e-08
3.90657e-06
9.71968e-08
3.91461e-06
9.16773e-08
3.91917e-06
8.44186e-08
3.921e-06
7.8426e-08
3.92073e-06
7.33123e-08
3.9182e-06
6.75934e-08
3.91409e-06
6.2522e-08
3.90972e-06
5.89487e-08
3.90448e-06
5.41014e-08
3.89784e-06
4.807e-08
3.8905e-06
4.26654e-08
3.88302e-06
3.77752e-08
3.18343e-08
3.87507e-06
4.21602e-06
4.12621e-08
4.22861e-06
8.02703e-08
4.23848e-06
8.84904e-08
4.24739e-06
9.0847e-08
4.25544e-06
9.1417e-08
4.26303e-06
8.96737e-08
4.26988e-06
8.48542e-08
4.27558e-06
7.87113e-08
4.28064e-06
7.33543e-08
4.28532e-06
6.86172e-08
4.28925e-06
6.36557e-08
4.29262e-06
5.91435e-08
4.29614e-06
5.54258e-08
4.29924e-06
5.09968e-08
4.30139e-06
4.59108e-08
4.30292e-06
4.11336e-08
4.30418e-06
3.65088e-08
3.14423e-08
4.30456e-06
4.64562e-06
3.29514e-08
4.65682e-06
6.90678e-08
4.66543e-06
7.98729e-08
4.673e-06
8.32787e-08
4.67988e-06
8.45361e-08
4.68627e-06
8.32928e-08
4.69188e-06
7.92331e-08
4.69659e-06
7.39891e-08
4.70086e-06
6.9087e-08
4.70494e-06
6.45315e-08
4.70867e-06
5.99209e-08
4.7122e-06
5.56112e-08
4.7159e-06
5.17261e-08
4.7194e-06
4.74907e-08
4.72238e-06
4.29343e-08
4.72498e-06
3.85278e-08
4.72731e-06
3.41739e-08
2.97254e-08
4.72903e-06
5.12111e-06
2.64428e-08
5.13132e-06
5.89383e-08
5.13965e-06
7.16034e-08
5.14708e-06
7.59189e-08
5.15398e-06
7.76912e-08
5.16035e-06
7.6971e-08
5.16591e-06
7.36896e-08
5.17064e-06
6.92596e-08
5.17489e-06
6.48391e-08
5.17888e-06
6.05449e-08
5.18256e-06
5.6233e-08
5.18607e-06
5.20974e-08
5.1896e-06
4.81841e-08
5.19296e-06
4.41213e-08
5.19596e-06
3.99282e-08
5.19866e-06
3.58217e-08
5.20106e-06
3.17664e-08
2.77703e-08
5.203e-06
5.64618e-06
2.1272e-08
5.6554e-06
4.97065e-08
5.66362e-06
6.33677e-08
5.67106e-06
6.84688e-08
5.67813e-06
7.06185e-08
5.68471e-06
7.03938e-08
5.69053e-06
6.78608e-08
5.69561e-06
6.41787e-08
5.70018e-06
6.02653e-08
5.70442e-06
5.63141e-08
5.70833e-06
5.23147e-08
5.71203e-06
4.83959e-08
5.71562e-06
4.45871e-08
5.719e-06
4.07364e-08
5.72207e-06
3.68524e-08
5.72485e-06
3.30388e-08
5.72731e-06
2.92974e-08
2.56908e-08
5.72939e-06
4.40918e-06
1.82057e-08
4.41517e-06
4.37702e-08
4.42105e-06
5.75395e-08
4.42646e-06
6.31112e-08
4.43162e-06
6.54994e-08
4.43647e-06
6.55741e-08
4.44084e-06
6.35065e-08
4.44473e-06
6.03005e-08
4.44826e-06
5.67417e-08
4.45151e-06
5.30639e-08
4.45452e-06
4.93046e-08
4.45734e-06
4.55727e-08
4.46002e-06
4.19023e-08
4.46253e-06
3.82245e-08
4.46482e-06
3.45526e-08
4.46689e-06
3.09557e-08
4.46874e-06
2.74477e-08
2.40987e-08
4.47033e-06
5.14268e-06
1.53918e-08
5.1486e-06
3.78231e-08
5.15479e-06
5.13445e-08
5.16063e-06
5.72653e-08
5.16628e-06
5.98579e-08
5.17164e-06
6.02181e-08
5.17653e-06
5.8619e-08
5.18094e-06
5.58855e-08
5.18499e-06
5.27052e-08
5.18872e-06
4.93264e-08
5.19219e-06
4.58366e-08
5.19543e-06
4.23291e-08
5.19848e-06
3.88483e-08
5.20132e-06
3.53797e-08
5.20392e-06
3.19476e-08
5.20627e-06
2.85938e-08
5.20837e-06
2.53464e-08
2.22721e-08
5.2102e-06
5.99835e-06
1.28254e-08
6.0041e-06
3.20945e-08
6.01051e-06
4.49598e-08
6.01676e-06
5.10481e-08
6.02286e-06
5.37722e-08
6.02872e-06
5.43771e-08
6.03414e-06
5.32072e-08
6.03911e-06
5.09303e-08
6.04369e-06
4.81297e-08
6.04795e-06
4.50736e-08
6.05191e-06
4.18755e-08
6.05561e-06
3.86265e-08
6.05907e-06
3.53812e-08
6.06228e-06
3.21661e-08
6.06523e-06
2.89941e-08
6.0679e-06
2.5919e-08
6.07029e-06
2.29526e-08
2.01664e-08
6.0724e-06
6.99658e-06
1.05217e-08
7.00205e-06
2.6621e-08
7.00859e-06
3.84238e-08
7.01518e-06
4.4457e-08
7.02173e-06
4.72383e-08
7.02808e-06
4.80325e-08
7.03404e-06
4.72451e-08
7.03958e-06
4.54023e-08
7.04473e-06
4.29881e-08
7.04953e-06
4.02755e-08
7.05401e-06
3.73955e-08
7.05819e-06
3.44415e-08
7.06209e-06
3.14825e-08
7.06571e-06
2.85466e-08
7.06903e-06
2.56761e-08
7.07204e-06
2.28952e-08
7.07476e-06
2.02359e-08
1.77433e-08
7.07718e-06
8.16109e-06
8.43843e-09
8.16622e-06
2.14911e-08
8.17278e-06
3.18667e-08
8.17968e-06
3.7571e-08
8.18662e-06
4.02993e-08
8.19345e-06
4.12077e-08
8.19997e-06
4.07322e-08
8.20609e-06
3.92774e-08
8.21183e-06
3.72533e-08
8.21721e-06
3.48974e-08
8.22224e-06
3.23673e-08
8.22693e-06
2.97459e-08
8.23131e-06
2.71112e-08
8.23536e-06
2.44981e-08
8.23909e-06
2.19514e-08
8.24248e-06
1.94963e-08
8.24556e-06
1.71556e-08
1.49764e-08
8.24833e-06
9.51961e-06
6.56126e-09
9.52439e-06
1.67141e-08
9.53087e-06
2.53878e-08
9.53797e-06
3.04679e-08
9.54528e-06
3.2999e-08
9.55257e-06
3.39262e-08
9.55963e-06
3.36637e-08
9.56636e-06
3.25543e-08
9.57272e-06
3.08902e-08
9.57871e-06
2.89139e-08
9.58432e-06
2.67466e-08
9.58958e-06
2.45008e-08
9.59447e-06
2.22192e-08
9.59901e-06
1.99722e-08
9.60318e-06
1.77729e-08
9.607e-06
1.56734e-08
9.61048e-06
1.36695e-08
1.18172e-08
9.61364e-06
1.11044e-05
4.83982e-09
1.11089e-05
1.22553e-08
1.11152e-05
1.90354e-08
1.11225e-05
2.32122e-08
1.11301e-05
2.53685e-08
1.11378e-05
2.6196e-08
1.11455e-05
2.60565e-08
1.11528e-05
2.52076e-08
1.11598e-05
2.38893e-08
1.11664e-05
2.2277e-08
1.11727e-05
2.05033e-08
1.11785e-05
1.86421e-08
1.1184e-05
1.6763e-08
1.11891e-05
1.48972e-08
1.11938e-05
1.30915e-08
1.11981e-05
1.13617e-08
1.1202e-05
9.72782e-09
8.21568e-09
1.12056e-05
1.29532e-05
3.23688e-09
1.29574e-05
8.03573e-09
1.29637e-05
1.27966e-08
1.2971e-05
1.583e-08
1.2979e-05
1.74131e-08
1.29872e-05
1.80111e-08
1.29954e-05
1.78828e-08
1.30033e-05
1.72252e-08
1.3011e-05
1.62034e-08
1.30184e-05
1.49517e-08
1.30253e-05
1.35694e-08
1.30318e-05
1.21227e-08
1.30379e-05
1.06607e-08
1.30436e-05
9.2186e-09
1.30489e-05
7.82587e-09
1.30537e-05
6.50229e-09
1.30582e-05
5.25622e-09
4.11471e-09
1.30623e-05
1.511e-05
1.69603e-09
1.51141e-05
3.92854e-09
1.51203e-05
6.57866e-09
1.51279e-05
8.25185e-09
1.51362e-05
9.0735e-09
1.51449e-05
9.29709e-09
1.51537e-05
9.07679e-09
1.51624e-05
8.53028e-09
1.51709e-05
7.76211e-09
1.5179e-05
6.85251e-09
1.51867e-05
5.86724e-09
1.51939e-05
4.8491e-09
1.52008e-05
3.83244e-09
1.52071e-05
2.84036e-09
1.52131e-05
1.89289e-09
1.52186e-05
1.00262e-09
1.52236e-05
1.73825e-10
-5.71755e-10
1.52283e-05
1.7626e-05
1.42914e-10
1.76302e-05
-2.51732e-10
1.76366e-05
1.40766e-10
1.76446e-05
2.62128e-10
1.76535e-05
1.40754e-10
1.7663e-05
-1.48007e-10
1.76726e-05
-5.53987e-10
1.76822e-05
-1.05549e-09
1.76916e-05
-1.60105e-09
1.77006e-05
-2.17824e-09
1.77092e-05
-2.75289e-09
1.77174e-05
-3.32022e-09
1.77251e-05
-3.85924e-09
1.77323e-05
-4.36831e-09
1.7739e-05
-4.83468e-09
1.77453e-05
-5.25787e-09
1.77511e-05
-5.63567e-09
-5.95428e-09
1.77565e-05
1.78277e-05
-1.34417e-09
1.78317e-05
-4.2718e-09
1.7838e-05
-6.07543e-09
1.78457e-05
-7.48331e-09
1.78544e-05
-8.57029e-09
1.78637e-05
-9.38023e-09
1.78732e-05
-1.00147e-08
1.78826e-05
-1.04812e-08
1.78918e-05
-1.0842e-08
1.79008e-05
-1.10924e-08
1.79093e-05
-1.12847e-08
1.79174e-05
-1.14058e-08
1.7925e-05
-1.14908e-08
1.79322e-05
-1.1525e-08
1.79389e-05
-1.15323e-08
1.79451e-05
-1.14997e-08
1.79509e-05
-1.14472e-08
-1.13519e-08
1.79563e-05
1.58827e-05
-2.74407e-09
1.58865e-05
-8.0431e-09
1.58923e-05
-1.18291e-08
1.58994e-05
-1.45809e-08
1.59074e-05
-1.64748e-08
1.59157e-05
-1.77404e-08
1.59243e-05
-1.85284e-08
1.59327e-05
-1.89635e-08
1.5941e-05
-1.91088e-08
1.5949e-05
-1.90716e-08
1.59566e-05
-1.88853e-08
1.59638e-05
-1.8617e-08
1.59706e-05
-1.82728e-08
1.5977e-05
-1.78954e-08
1.59829e-05
-1.74811e-08
1.59885e-05
-1.70564e-08
1.59937e-05
-1.66163e-08
-1.61664e-08
1.59985e-05
1.41501e-05
-4.16781e-09
1.41539e-05
-1.18698e-08
1.41596e-05
-1.75111e-08
1.41665e-05
-2.14215e-08
1.4174e-05
-2.39679e-08
1.41819e-05
-2.55644e-08
1.41898e-05
-2.64505e-08
1.41976e-05
-2.67748e-08
1.42052e-05
-2.66968e-08
1.42125e-05
-2.63335e-08
1.42194e-05
-2.57928e-08
1.42259e-05
-2.51272e-08
1.4232e-05
-2.4393e-08
1.42377e-05
-2.36156e-08
1.42431e-05
-2.2826e-08
1.42481e-05
-2.20323e-08
1.42527e-05
-2.12523e-08
-2.04755e-08
1.4257e-05
1.26066e-05
-5.71932e-09
1.26107e-05
-1.59715e-08
1.26165e-05
-2.33616e-08
1.26233e-05
-2.81999e-08
1.26306e-05
-3.12414e-08
1.26381e-05
-3.30676e-08
1.26457e-05
-3.39567e-08
1.2653e-05
-3.41071e-08
1.26601e-05
-3.37408e-08
1.26668e-05
-3.30387e-08
1.26731e-05
-3.21223e-08
1.26791e-05
-3.10683e-08
1.26846e-05
-2.99473e-08
1.26898e-05
-2.87925e-08
1.26946e-05
-2.76458e-08
1.26991e-05
-2.65128e-08
1.27033e-05
-2.54179e-08
-2.43477e-08
1.27071e-05
1.12316e-05
-7.49418e-09
1.12362e-05
-2.05462e-08
1.12423e-05
-2.95065e-08
1.12491e-05
-3.5023e-08
1.12563e-05
-3.83897e-08
1.12636e-05
-4.03491e-08
1.12708e-05
-4.1142e-08
1.12777e-05
-4.10412e-08
1.12843e-05
-4.03434e-08
1.12905e-05
-3.92689e-08
1.12964e-05
-3.79586e-08
1.13018e-05
-3.65164e-08
1.13069e-05
-3.50066e-08
1.13116e-05
-3.34951e-08
1.1316e-05
-3.20001e-08
1.132e-05
-3.0559e-08
1.13238e-05
-2.91659e-08
-2.78362e-08
1.13273e-05
1.00068e-05
-9.63598e-09
1.0012e-05
-2.57748e-08
1.00185e-05
-3.59973e-08
1.00253e-05
-4.18665e-08
1.00324e-05
-4.54502e-08
1.00395e-05
-4.74485e-08
1.00464e-05
-4.80564e-08
1.0053e-05
-4.76272e-08
1.00592e-05
-4.65484e-08
1.0065e-05
-4.50804e-08
1.00704e-05
-4.33681e-08
1.00754e-05
-4.15254e-08
1.00801e-05
-3.96402e-08
1.00844e-05
-3.77693e-08
1.00883e-05
-3.59549e-08
1.0092e-05
-3.42106e-08
1.00954e-05
-3.25565e-08
-3.09733e-08
1.00985e-05
8.91579e-06
-1.23208e-08
8.92186e-06
-3.1859e-08
8.92864e-06
-4.27855e-08
8.93549e-06
-4.87283e-08
8.94248e-06
-5.24402e-08
8.94941e-06
-5.43862e-08
8.95606e-06
-5.46996e-08
8.96233e-06
-5.38871e-08
8.96818e-06
-5.24085e-08
8.97363e-06
-5.0524e-08
8.97867e-06
-4.84003e-08
8.9833e-06
-4.61614e-08
8.98757e-06
-4.39037e-08
8.9915e-06
-4.16917e-08
8.99512e-06
-3.95647e-08
8.99845e-06
-3.75462e-08
9.00155e-06
-3.56423e-08
-3.38473e-08
9.00441e-06
7.94413e-06
-1.5786e-08
7.95126e-06
-3.8998e-08
7.95821e-06
-4.97451e-08
7.96503e-06
-5.55438e-08
7.97197e-06
-5.93942e-08
7.97878e-06
-6.12005e-08
7.98522e-06
-6.11456e-08
7.99124e-06
-5.99058e-08
7.99683e-06
-5.79959e-08
8.002e-06
-5.56914e-08
8.00675e-06
-5.31525e-08
8.01111e-06
-5.05207e-08
8.01511e-06
-4.78967e-08
8.01877e-06
-4.53507e-08
8.02213e-06
-4.29259e-08
8.02524e-06
-4.06452e-08
8.02811e-06
-3.85145e-08
-3.65035e-08
8.03078e-06
7.07884e-06
-2.02913e-08
7.08722e-06
-4.73999e-08
7.09435e-06
-5.68828e-08
7.10129e-06
-6.24964e-08
7.10836e-06
-6.64783e-08
7.11522e-06
-6.8063e-08
7.12166e-06
-6.75849e-08
7.12766e-06
-6.59076e-08
7.13323e-06
-6.35679e-08
7.13837e-06
-6.08332e-08
7.14309e-06
-5.78782e-08
7.14742e-06
-5.4851e-08
7.15139e-06
-5.18618e-08
7.15502e-06
-4.89776e-08
7.15835e-06
-4.62537e-08
7.16142e-06
-4.37116e-08
7.16427e-06
-4.13612e-08
-3.91655e-08
7.16694e-06
6.30889e-06
-2.66697e-08
6.31858e-06
-5.71054e-08
6.32665e-06
-6.49647e-08
6.33476e-06
-7.06155e-08
6.34294e-06
-7.46644e-08
6.35074e-06
-7.58741e-08
6.35805e-06
-7.49033e-08
6.36489e-06
-7.27443e-08
6.37125e-06
-6.99365e-08
6.37714e-06
-6.67205e-08
6.38255e-06
-6.32894e-08
6.3875e-06
-5.98022e-08
6.392e-06
-5.63652e-08
6.39609e-06
-5.30698e-08
6.39981e-06
-4.99641e-08
6.4032e-06
-4.70986e-08
6.4063e-06
-4.44567e-08
-4.19947e-08
6.40913e-06
5.62722e-06
-3.89921e-08
5.64092e-06
-7.08281e-08
5.65457e-06
-7.86376e-08
5.66855e-06
-8.46085e-08
5.68213e-06
-8.82503e-08
5.69477e-06
-8.85234e-08
5.70632e-06
-8.64594e-08
5.71673e-06
-8.31593e-08
5.72592e-06
-7.91364e-08
5.73388e-06
-7.46793e-08
5.74062e-06
-7.00335e-08
5.74621e-06
-6.53887e-08
5.75072e-06
-6.0879e-08
5.75425e-06
-5.65959e-08
5.75688e-06
-5.26039e-08
5.75878e-06
-4.89933e-08
5.76006e-06
-4.57382e-08
-4.30362e-08
5.76111e-06
5.05731e-06
-9.40026e-08
5.09578e-06
-1.09316e-07
5.12665e-06
-1.09539e-07
5.14994e-06
-1.07908e-07
5.16537e-06
-1.03693e-07
5.17362e-06
-9.67808e-08
5.17567e-06
-8.85187e-08
5.17258e-06
-8.00751e-08
5.16536e-06
-7.19224e-08
5.15493e-06
-6.42605e-08
5.1421e-06
-5.7207e-08
5.12751e-06
-5.08005e-08
5.11168e-06
-4.50422e-08
5.09499e-06
-3.9909e-08
5.07776e-06
-3.53789e-08
5.06026e-06
-3.14918e-08
5.04282e-06
-2.8298e-08
-2.61808e-08
5.02597e-06
4.36255e-06
4.25323e-06
4.14369e-06
4.03578e-06
3.93208e-06
3.8353e-06
3.74678e-06
3.66671e-06
3.59478e-06
3.53052e-06
3.47331e-06
3.42251e-06
3.37747e-06
3.33756e-06
3.30218e-06
3.27069e-06
3.24239e-06
3.21621e-06
-8.16833e-09
8.16394e-09
-2.21078e-08
1.39412e-08
-3.72258e-08
1.51088e-08
-5.00065e-08
1.27861e-08
-5.52803e-08
5.2584e-09
-4.71166e-08
-8.15164e-09
-2.37558e-08
-2.33835e-08
1.23979e-08
-3.6141e-08
5.70911e-08
-4.47192e-08
1.05604e-07
-4.85027e-08
1.53544e-07
-4.79631e-08
1.97989e-07
-4.44373e-08
2.3694e-07
-3.89707e-08
2.69268e-07
-3.23229e-08
2.94249e-07
-2.4997e-08
3.11526e-07
-1.72746e-08
3.208e-07
-9.28698e-09
3.21773e-07
-9.73709e-10
3.14229e-07
7.53205e-09
2.98394e-07
1.58298e-08
2.74881e-07
2.35027e-08
2.44699e-07
3.01716e-08
2.0926e-07
3.5427e-08
1.70437e-07
3.88103e-08
1.30552e-07
3.98732e-08
9.22311e-08
3.83067e-08
5.81081e-08
3.41098e-08
3.02895e-08
2.78047e-08
9.79935e-09
2.04763e-08
-3.5759e-09
1.33604e-08
-1.06757e-08
7.08678e-09
-1.18959e-08
1.20256e-09
-6.9107e-09
-5.00036e-09
5.48193e-09
-1.24122e-08
2.68207e-08
-2.13549e-08
5.67494e-08
-2.99412e-08
9.10229e-08
-3.42858e-08
1.23423e-07
-3.24025e-08
1.48645e-07
-2.52308e-08
1.63802e-07
-1.51502e-08
1.69365e-07
-5.56581e-09
1.68312e-07
1.06747e-09
1.64071e-07
4.24336e-09
1.60178e-07
3.9083e-09
1.5822e-07
1.95073e-09
1.51796e-07
6.43487e-09
1.31875e-07
1.9901e-08
9.06339e-08
4.12398e-08
2.31021e-08
6.75021e-08
-6.74833e-08
9.05746e-08
-1.76147e-07
1.08642e-07
-2.99887e-07
1.23733e-07
-4.35128e-07
1.35227e-07
-5.77558e-07
1.42426e-07
-7.22109e-07
1.44542e-07
-8.65715e-07
1.43605e-07
-1.0063e-06
1.40574e-07
-1.14009e-06
1.33788e-07
-1.26594e-06
1.25846e-07
-1.3832e-06
1.17256e-07
-1.49098e-06
1.07779e-07
-1.58979e-06
9.88146e-08
-1.68023e-06
9.04382e-08
-1.76339e-06
8.31571e-08
-1.8399e-06
7.65125e-08
-1.91036e-06
7.04603e-08
-1.97555e-06
6.51922e-08
-2.0361e-06
6.0555e-08
-2.09261e-06
5.64982e-08
-2.14553e-06
5.29295e-08
-2.19531e-06
4.97785e-08
-2.24228e-06
4.69715e-08
-2.28674e-06
4.44493e-08
-2.32889e-06
4.21592e-08
-2.36896e-06
4.0057e-08
-2.40706e-06
3.81076e-08
-2.44335e-06
3.62799e-08
-2.4779e-06
3.45514e-08
-2.51081e-06
3.29015e-08
-2.54213e-06
3.13156e-08
-2.57191e-06
2.97798e-08
-2.6002e-06
2.82848e-08
-2.62703e-06
2.68207e-08
-2.65241e-06
2.5381e-08
-2.67638e-06
2.39587e-08
-2.69893e-06
2.25488e-08
-2.72008e-06
2.11465e-08
-2.73984e-06
1.97483e-08
-2.75819e-06
1.83505e-08
-2.77515e-06
1.69469e-08
-2.7907e-06
1.5534e-08
-2.80481e-06
1.41048e-08
-2.81748e-06
1.26544e-08
-2.82866e-06
1.11754e-08
-2.83833e-06
9.6599e-09
-2.84643e-06
8.09909e-09
-2.85292e-06
6.48273e-09
-2.85772e-06
4.79648e-09
-2.86075e-06
3.03213e-09
-2.86198e-06
1.22601e-09
-2.86149e-06
-4.94192e-10
-2.85949e-06
-2.00205e-09
-2.85612e-06
-3.36561e-09
-2.85142e-06
-4.70082e-09
-2.84539e-06
-6.02799e-09
-2.83803e-06
-7.3577e-09
-2.82934e-06
-8.69054e-09
-2.81931e-06
-1.0027e-08
-2.80795e-06
-1.13651e-08
-2.79524e-06
-1.27047e-08
-2.7812e-06
-1.40431e-08
-2.76581e-06
-1.538e-08
-2.7491e-06
-1.67125e-08
-2.73105e-06
-1.80402e-08
-2.71168e-06
-1.93602e-08
-2.691e-06
-2.06717e-08
-2.66902e-06
-2.1972e-08
-2.64575e-06
-2.326e-08
-2.6212e-06
-2.45334e-08
-2.59539e-06
-2.57905e-08
-2.56835e-06
-2.70295e-08
-2.54008e-06
-2.82481e-08
-2.51062e-06
-2.94454e-08
-2.47998e-06
-3.06181e-08
-2.44819e-06
-3.17662e-08
-2.41529e-06
-3.28857e-08
-2.38129e-06
-3.39779e-08
-2.34624e-06
-3.50382e-08
-2.31016e-06
-3.60674e-08
-2.27308e-06
-3.70673e-08
-2.23504e-06
-3.80309e-08
-2.19609e-06
-3.8953e-08
-2.15626e-06
-3.98293e-08
-2.11561e-06
-4.06412e-08
-2.07422e-06
-4.13949e-08
-2.03214e-06
-4.20719e-08
-1.98948e-06
-4.26729e-08
-1.94612e-06
-4.33699e-08
-1.90203e-06
-4.41081e-08
-1.85732e-06
-4.4725e-08
-1.81204e-06
-4.52978e-08
-1.76623e-06
-4.5826e-08
-1.71995e-06
-4.63161e-08
-1.67321e-06
-4.67687e-08
-1.62606e-06
-4.71836e-08
-1.57853e-06
-4.75625e-08
-1.53064e-06
-4.79029e-08
-1.48242e-06
-4.82136e-08
-1.4339e-06
-4.84975e-08
-1.3851e-06
-4.87623e-08
-1.33606e-06
-4.90071e-08
-1.28678e-06
-4.92338e-08
-1.2373e-06
-4.94338e-08
-1.18762e-06
-4.96165e-08
-1.13779e-06
-4.97779e-08
-1.0878e-06
-4.99268e-08
-1.03766e-06
-5.00682e-08
-9.87387e-07
-5.02054e-08
-9.3697e-07
-5.03477e-08
-8.864e-07
-5.04959e-08
-8.35671e-07
-5.06563e-08
-7.84764e-07
-5.0829e-08
-7.33675e-07
-5.10147e-08
-6.82385e-07
-5.12088e-08
-6.30896e-07
-5.14128e-08
-5.7919e-07
-5.16247e-08
-5.27265e-07
-5.185e-08
-4.75098e-07
-5.20877e-08
-4.22682e-07
-5.23427e-08
-3.69997e-07
-5.26096e-08
-3.17046e-07
-5.28813e-08
-2.63838e-07
-5.3136e-08
-2.10423e-07
-5.33498e-08
-1.56903e-07
-5.3454e-08
-1.03483e-07
-5.3362e-08
-5.05719e-08
-5.2855e-08
1.12573e-09
-5.16497e-08
4.99943e-08
-4.8821e-08
9.56226e-08
-4.55866e-08
-2.13075e-08
1.1697e-07
-3.43786e-09
1.15936e-08
-9.4164e-09
1.99242e-08
-1.20005e-08
1.76684e-08
-3.99222e-09
4.78457e-09
1.93112e-08
-1.80715e-08
5.69998e-08
-4.58348e-08
1.04446e-07
-7.08475e-08
1.5611e-07
-8.78016e-08
2.06938e-07
-9.55617e-08
2.53871e-07
-9.54331e-08
2.95463e-07
-8.95679e-08
3.31113e-07
-8.00865e-08
3.60721e-07
-6.85899e-08
3.84522e-07
-5.61239e-08
4.02826e-07
-4.33123e-08
4.16037e-07
-3.04872e-08
4.24553e-07
-1.78128e-08
4.28943e-07
-5.36862e-09
4.29571e-07
6.8936e-09
4.26314e-07
1.90792e-08
4.18677e-07
3.113e-08
4.06054e-07
4.27847e-08
3.87885e-07
5.35848e-08
3.63828e-07
6.28563e-08
3.33934e-07
6.97567e-08
2.98842e-07
7.33874e-08
2.59937e-07
7.30034e-08
2.19444e-07
6.8286e-08
1.80411e-07
5.94976e-08
1.46404e-07
4.73538e-08
1.2083e-07
3.26455e-08
1.06095e-07
1.59181e-08
1.03453e-07
-2.37633e-09
1.12471e-07
-2.14503e-08
1.30849e-07
-3.97472e-08
1.53095e-07
-5.21992e-08
1.72134e-07
-5.33345e-08
1.83386e-07
-4.36566e-08
1.85393e-07
-2.72449e-08
1.78209e-07
-7.96124e-09
1.63364e-07
9.27628e-09
1.42143e-07
2.23037e-08
1.08904e-07
3.74743e-08
5.38456e-08
5.89798e-08
-3.16005e-08
8.73845e-08
-1.47217e-07
1.2205e-07
-2.84808e-07
1.57483e-07
-4.3445e-07
1.90876e-07
-5.88439e-07
2.21483e-07
-7.44416e-07
2.46547e-07
-9.00184e-07
2.64405e-07
-1.05195e-06
2.75494e-07
-1.1964e-06
2.79672e-07
-1.33075e-06
2.76774e-07
-1.45371e-06
2.67504e-07
-1.56404e-06
2.53924e-07
-1.66144e-06
2.3798e-07
-1.74794e-06
2.20282e-07
-1.82438e-06
2.02284e-07
-1.89213e-06
1.85007e-07
-1.95284e-06
1.68485e-07
-2.00763e-06
1.53601e-07
-2.05765e-06
1.40465e-07
-2.10347e-06
1.28977e-07
-2.14592e-06
1.18956e-07
-2.18565e-06
1.10196e-07
-2.22303e-06
1.02575e-07
-2.25839e-06
9.59127e-08
-2.29195e-06
9.00599e-08
-2.3239e-06
8.48757e-08
-2.35436e-06
8.02397e-08
-2.38344e-06
7.60492e-08
-2.41121e-06
7.22184e-08
-2.43773e-06
6.86772e-08
-2.46304e-06
6.53673e-08
-2.48718e-06
6.22428e-08
-2.51016e-06
5.92655e-08
-2.53202e-06
5.64059e-08
-2.55276e-06
5.3639e-08
-2.5724e-06
5.09457e-08
-2.59093e-06
4.83093e-08
-2.60837e-06
4.57172e-08
-2.62471e-06
4.31576e-08
-2.63995e-06
4.06217e-08
-2.6541e-06
3.81011e-08
-2.66714e-06
3.55894e-08
-2.67908e-06
3.30806e-08
-2.6899e-06
3.05706e-08
-2.69962e-06
2.80541e-08
-2.7082e-06
2.55268e-08
-2.71566e-06
2.29828e-08
-2.72198e-06
2.04189e-08
-2.72717e-06
1.78328e-08
-2.73122e-06
1.52221e-08
-2.73415e-06
1.2586e-08
-2.73598e-06
9.92481e-09
-2.73675e-06
7.24179e-09
-2.7365e-06
4.5472e-09
-2.73533e-06
1.86569e-09
-2.73334e-06
-7.67376e-10
-2.73049e-06
-3.3491e-09
-2.72656e-06
-5.92429e-09
-2.72141e-06
-8.51874e-09
-2.71499e-06
-1.11233e-08
-2.70728e-06
-1.37368e-08
-2.69828e-06
-1.63604e-08
-2.68797e-06
-1.89933e-08
-2.67637e-06
-2.16335e-08
-2.66345e-06
-2.42788e-08
-2.64923e-06
-2.69264e-08
-2.6337e-06
-2.95736e-08
-2.61686e-06
-3.2217e-08
-2.59871e-06
-3.48535e-08
-2.57927e-06
-3.74799e-08
-2.55853e-06
-4.00922e-08
-2.53651e-06
-4.26873e-08
-2.51321e-06
-4.5261e-08
-2.48865e-06
-4.78103e-08
-2.46285e-06
-5.03306e-08
-2.43581e-06
-5.28189e-08
-2.40755e-06
-5.52708e-08
-2.3781e-06
-5.76828e-08
-2.34748e-06
-6.00507e-08
-2.31572e-06
-6.23707e-08
-2.28283e-06
-6.46391e-08
-2.24885e-06
-6.68525e-08
-2.21381e-06
-6.90081e-08
-2.17773e-06
-7.11031e-08
-2.14065e-06
-7.31352e-08
-2.10261e-06
-7.51016e-08
-2.06364e-06
-7.69962e-08
-2.02379e-06
-7.88113e-08
-1.98307e-06
-8.05386e-08
-1.94154e-06
-8.21738e-08
-1.89921e-06
-8.3725e-08
-1.85609e-06
-8.51863e-08
-1.8122e-06
-8.65723e-08
-1.76762e-06
-8.79501e-08
-1.72246e-06
-8.92846e-08
-1.67668e-06
-9.05049e-08
-1.63036e-06
-9.16378e-08
-1.58351e-06
-9.26878e-08
-1.53618e-06
-9.36629e-08
-1.4884e-06
-9.45638e-08
-1.44021e-06
-9.53944e-08
-1.39163e-06
-9.61529e-08
-1.3427e-06
-9.68451e-08
-1.29342e-06
-9.74765e-08
-1.24384e-06
-9.80605e-08
-1.19398e-06
-9.86019e-08
-1.14385e-06
-9.91071e-08
-1.09348e-06
-9.95714e-08
-1.04289e-06
-9.99938e-08
-9.92088e-07
-1.00374e-07
-9.41103e-07
-1.00721e-07
-8.89945e-07
-1.01038e-07
-8.38624e-07
-1.01342e-07
-7.87142e-07
-1.01637e-07
-7.35498e-07
-1.01942e-07
-6.83682e-07
-1.02258e-07
-6.31685e-07
-1.026e-07
-5.79491e-07
-1.02967e-07
-5.27089e-07
-1.03361e-07
-4.74467e-07
-1.03773e-07
-4.21617e-07
-1.04207e-07
-3.68526e-07
-1.04658e-07
-3.15185e-07
-1.05135e-07
-2.61577e-07
-1.05639e-07
-2.0769e-07
-1.06176e-07
-1.53508e-07
-1.06739e-07
-9.90274e-08
-1.07313e-07
-4.42635e-08
-1.07852e-07
1.07274e-08
-1.08296e-07
6.58647e-08
-1.08551e-07
1.20993e-07
-1.08454e-07
1.75841e-07
-1.07671e-07
2.29883e-07
-1.05665e-07
2.82567e-07
-1.01481e-07
3.30361e-07
-9.33589e-08
-6.72708e-08
3.76341e-07
3.88535e-10
1.11968e-08
4.32744e-09
1.59834e-08
1.96697e-08
2.3084e-09
5.39085e-08
-2.94529e-08
1.05074e-07
-6.9249e-08
1.63276e-07
-1.04034e-07
2.1883e-07
-1.26412e-07
2.66518e-07
-1.35488e-07
3.0491e-07
-1.33962e-07
3.34841e-07
-1.25363e-07
3.57894e-07
-1.12631e-07
3.75595e-07
-9.77871e-08
3.89062e-07
-8.20668e-08
3.99091e-07
-6.61552e-08
4.06179e-07
-5.0409e-08
4.10688e-07
-3.50011e-08
4.12878e-07
-2.00124e-08
4.12991e-07
-5.48842e-09
4.11317e-07
8.55754e-09
4.08218e-07
2.21689e-08
4.03948e-07
3.53899e-08
3.98526e-07
4.81956e-08
3.91665e-07
6.04355e-08
3.8275e-07
7.17591e-08
3.70931e-07
8.15645e-08
3.55319e-07
8.89875e-08
3.35351e-07
9.29606e-08
3.11234e-07
9.23914e-08
2.84263e-07
8.64574e-08
2.56813e-07
7.47912e-08
2.31846e-07
5.75993e-08
2.12062e-07
3.56879e-08
1.99091e-07
1.05791e-08
1.92479e-07
-1.48523e-08
1.8732e-07
-3.45999e-08
1.7628e-07
-4.11673e-08
1.56017e-07
-3.30797e-08
1.26984e-07
-1.46264e-08
8.96956e-08
1.00376e-08
4.17869e-08
3.99503e-08
-2.26739e-08
7.37332e-08
-1.10027e-07
1.0966e-07
-2.21381e-07
1.48827e-07
-3.53378e-07
1.90976e-07
-4.99614e-07
2.33619e-07
-6.51424e-07
2.73858e-07
-8.02876e-07
3.08932e-07
-9.48976e-07
3.36973e-07
-1.0848e-06
3.57303e-07
-1.20778e-06
3.69525e-07
-1.31709e-06
3.7371e-07
-1.41214e-06
3.7054e-07
-1.49335e-06
3.60881e-07
-1.56242e-06
3.45848e-07
-1.6219e-06
3.26975e-07
-1.67395e-06
3.05977e-07
-1.72023e-06
2.84256e-07
-1.7626e-06
2.62656e-07
-1.80226e-06
2.41937e-07
-1.83992e-06
2.2267e-07
-1.8764e-06
2.04971e-07
-1.91186e-06
1.89056e-07
-1.94636e-06
1.74969e-07
-1.97993e-06
1.62545e-07
-2.01257e-06
1.51601e-07
-2.04432e-06
1.41949e-07
-2.07517e-06
1.33418e-07
-2.10509e-06
1.25836e-07
-2.13408e-06
1.19049e-07
-2.16213e-06
1.12922e-07
-2.18922e-06
1.07337e-07
-2.21537e-06
1.02194e-07
-2.24056e-06
9.74077e-08
-2.26479e-06
9.29083e-08
-2.28806e-06
8.86385e-08
-2.31037e-06
8.45516e-08
-2.33172e-06
8.06095e-08
-2.3521e-06
7.67816e-08
-2.37151e-06
7.3043e-08
-2.38994e-06
6.93735e-08
-2.40739e-06
6.57562e-08
-2.42385e-06
6.21774e-08
-2.43932e-06
5.86252e-08
-2.45379e-06
5.50899e-08
-2.46725e-06
5.1563e-08
-2.4797e-06
4.80376e-08
-2.49113e-06
4.45079e-08
-2.50154e-06
4.0969e-08
-2.5109e-06
3.74171e-08
-2.51923e-06
3.3847e-08
-2.52651e-06
3.02555e-08
-2.53274e-06
2.66401e-08
-2.53791e-06
2.29994e-08
-2.54203e-06
1.93342e-08
-2.54509e-06
1.56457e-08
-2.5471e-06
1.1937e-08
-2.54808e-06
8.21286e-09
-2.54801e-06
4.48171e-09
-2.5469e-06
7.5476e-10
-2.54471e-06
-2.96318e-09
-2.54137e-06
-6.6881e-09
-2.53684e-06
-1.04473e-08
-2.53112e-06
-1.42467e-08
-2.52416e-06
-1.80754e-08
-2.51597e-06
-2.19277e-08
-2.50653e-06
-2.57999e-08
-2.49584e-06
-2.96886e-08
-2.48388e-06
-3.35899e-08
-2.47066e-06
-3.75003e-08
-2.45617e-06
-4.14154e-08
-2.44041e-06
-4.5331e-08
-2.42338e-06
-4.92424e-08
-2.40509e-06
-5.31448e-08
-2.38553e-06
-5.70328e-08
-2.36472e-06
-6.09015e-08
-2.34266e-06
-6.47449e-08
-2.31936e-06
-6.8558e-08
-2.29483e-06
-7.23348e-08
-2.26908e-06
-7.60698e-08
-2.24213e-06
-7.97574e-08
-2.214e-06
-8.33915e-08
-2.18471e-06
-8.69665e-08
-2.15428e-06
-9.0476e-08
-2.12272e-06
-9.39146e-08
-2.09007e-06
-9.7276e-08
-2.05636e-06
-1.00556e-07
-2.02161e-06
-1.03748e-07
-1.98586e-06
-1.06851e-07
-1.94913e-06
-1.09859e-07
-1.91146e-06
-1.12768e-07
-1.87288e-06
-1.1557e-07
-1.83343e-06
-1.18259e-07
-1.79314e-06
-1.20823e-07
-1.75205e-06
-1.23263e-07
-1.71018e-06
-1.25589e-07
-1.66757e-06
-1.278e-07
-1.62424e-06
-1.29906e-07
-1.58026e-06
-1.31934e-07
-1.53568e-06
-1.33862e-07
-1.49053e-06
-1.35662e-07
-1.44484e-06
-1.3734e-07
-1.39863e-06
-1.38902e-07
-1.35196e-06
-1.40353e-07
-1.30484e-06
-1.41698e-07
-1.25731e-06
-1.42939e-07
-1.20939e-06
-1.44079e-07
-1.16112e-06
-1.45124e-07
-1.11251e-06
-1.46083e-07
-1.06359e-06
-1.46972e-07
-1.01438e-06
-1.47799e-07
-9.64907e-07
-1.48571e-07
-9.1518e-07
-1.49286e-07
-8.65218e-07
-1.49942e-07
-8.1504e-07
-1.50538e-07
-7.64661e-07
-1.51085e-07
-7.14095e-07
-1.5159e-07
-6.6335e-07
-1.52073e-07
-6.12428e-07
-1.52545e-07
-5.61328e-07
-1.53027e-07
-5.10043e-07
-1.5353e-07
-4.58562e-07
-1.54068e-07
-4.06871e-07
-1.54646e-07
-3.54957e-07
-1.55262e-07
-3.02809e-07
-1.5591e-07
-2.50417e-07
-1.56587e-07
-1.97771e-07
-1.57293e-07
-1.44859e-07
-1.58036e-07
-9.16672e-08
-1.58822e-07
-3.81826e-08
-1.59652e-07
1.56045e-08
-1.60518e-07
6.96992e-08
-1.61399e-07
1.24098e-07
-1.62244e-07
1.78773e-07
-1.62964e-07
2.3365e-07
-1.63421e-07
2.88592e-07
-1.63389e-07
3.43393e-07
-1.62465e-07
3.97726e-07
-1.59991e-07
4.51153e-07
-1.54902e-07
5.02658e-07
-1.44854e-07
-1.20321e-07
5.55718e-07
-3.70444e-11
1.1224e-08
1.38066e-08
2.13546e-09
5.45872e-08
-3.84858e-08
1.16805e-07
-9.16691e-08
1.82911e-07
-1.35363e-07
2.39179e-07
-1.603e-07
2.80534e-07
-1.67775e-07
3.0823e-07
-1.63183e-07
3.25922e-07
-1.51663e-07
3.37224e-07
-1.36664e-07
3.44678e-07
-1.20094e-07
3.49801e-07
-1.02911e-07
3.53318e-07
-8.55933e-08
3.55554e-07
-6.83946e-08
3.56596e-07
-5.14611e-08
3.56481e-07
-3.48918e-08
3.55219e-07
-1.8761e-08
3.52855e-07
-3.13351e-09
3.49462e-07
1.1939e-08
3.45194e-07
2.64263e-08
3.4027e-07
4.03014e-08
3.34927e-07
5.35257e-08
3.29329e-07
6.60209e-08
3.23466e-07
7.76081e-08
3.17074e-07
8.79431e-08
3.09616e-07
9.64307e-08
3.00367e-07
1.02197e-07
2.8863e-07
1.04113e-07
2.74067e-07
1.01006e-07
2.56883e-07
9.19587e-08
2.38061e-07
7.64053e-08
2.18913e-07
5.48178e-08
1.99623e-07
2.98538e-08
1.76025e-07
8.73108e-09
1.41367e-07
4.71511e-11
9.37284e-08
6.46296e-09
3.4332e-08
2.63097e-08
-3.80182e-08
5.77207e-08
-1.25912e-07
9.79277e-08
-2.29874e-07
1.43912e-07
-3.48592e-07
1.9245e-07
-4.79827e-07
2.40895e-07
-6.18523e-07
2.87523e-07
-7.58508e-07
3.30961e-07
-8.93918e-07
3.69028e-07
-1.01936e-06
3.99297e-07
-1.1313e-06
4.20878e-07
-1.22836e-06
4.34024e-07
-1.31011e-06
4.3906e-07
-1.37741e-06
4.36823e-07
-1.43208e-06
4.28379e-07
-1.47637e-06
4.14828e-07
-1.51284e-06
3.97349e-07
-1.54411e-06
3.77111e-07
-1.57243e-06
3.55298e-07
-1.59943e-06
3.32971e-07
-1.62609e-06
3.10916e-07
-1.65308e-06
2.89653e-07
-1.68072e-06
2.69574e-07
-1.709e-06
2.50944e-07
-1.73788e-06
2.33854e-07
-1.76717e-06
2.18343e-07
-1.79659e-06
2.04394e-07
-1.82594e-06
1.91894e-07
-1.85503e-06
1.80696e-07
-1.88374e-06
1.7065e-07
-1.91192e-06
1.61607e-07
-1.93951e-06
1.53421e-07
-1.96642e-06
1.4596e-07
-1.9926e-06
1.39105e-07
-2.01802e-06
1.32751e-07
-2.04263e-06
1.26805e-07
-2.06641e-06
1.21191e-07
-2.08935e-06
1.15845e-07
-2.11142e-06
1.1071e-07
-2.13262e-06
1.05745e-07
-2.15292e-06
1.00913e-07
-2.17233e-06
9.6184e-08
-2.19082e-06
9.15349e-08
-2.2084e-06
8.6946e-08
-2.22504e-06
8.24008e-08
-2.24075e-06
7.78856e-08
-2.25552e-06
7.33886e-08
-2.26933e-06
6.89e-08
-2.28218e-06
6.44114e-08
-2.29406e-06
5.99158e-08
-2.30496e-06
5.54073e-08
-2.31488e-06
5.08815e-08
-2.3238e-06
4.63338e-08
-2.33172e-06
4.17621e-08
-2.33863e-06
3.71609e-08
-2.34452e-06
3.25295e-08
-2.3494e-06
2.78667e-08
-2.35324e-06
2.3173e-08
-2.35604e-06
1.84493e-08
-2.3578e-06
1.36977e-08
-2.35851e-06
8.92086e-09
-2.35815e-06
4.12245e-09
-2.3567e-06
-6.94626e-10
-2.35413e-06
-5.53411e-09
-2.35041e-06
-1.04086e-08
-2.34553e-06
-1.53316e-08
-2.33947e-06
-2.03036e-08
-2.33223e-06
-2.5317e-08
-2.32379e-06
-3.03651e-08
-2.31415e-06
-3.54423e-08
-2.30329e-06
-4.05433e-08
-2.29122e-06
-4.56631e-08
-2.27793e-06
-5.07962e-08
-2.2634e-06
-5.59371e-08
-2.24765e-06
-6.10802e-08
-2.23068e-06
-6.62192e-08
-2.21247e-06
-7.13478e-08
-2.19304e-06
-7.64587e-08
-2.1724e-06
-8.15452e-08
-2.15054e-06
-8.65996e-08
-2.12748e-06
-9.16149e-08
-2.10322e-06