/*--------------------------------*- C++ -*----------------------------------*\
  =========                 |
  \\      /  F ield         | OpenFOAM: The Open Source CFD Toolbox
   \\    /   O peration     | Website:  https://openfoam.org
    \\  /    A nd           | Version:  8
     \\/     M anipulation  |
\*---------------------------------------------------------------------------*/
FoamFile
{
    version     2.0;
    format      ascii;
    class       volVectorField;
    location    "400";
    object      wallShearStress;
}
// * * * * * * * * * * * * * * * * * * * * * * * * * * * * * * * * * * * * * //

dimensions      [0 2 -2 0 0 0 0];

internalField   uniform (0 0 0);

boundaryField
{
    inlet
    {
        type            calculated;
        value           uniform (0 0 0);
    }
    outlet
    {
        type            calculated;
        value           uniform (0 0 0);
    }
    upperWall
    {
        type            calculated;
        value           nonuniform List<vector> 
223
(
(-0.443779 0.0027147 0)
(-0.433947 0.00477223 0)
(-0.465518 0.00635342 0)
(-0.484257 0.00728337 0)
(-0.486821 0.00756297 0)
(-0.481967 0.00742005 0)
(-0.471193 0.0069844 0)
(-0.459699 0.00644304 0)
(-0.447997 0.00585267 0)
(-0.436012 0.00524896 0)
(-0.424775 0.00467289 0)
(-0.414444 0.00413856 0)
(-0.405072 0.0036512 0)
(-0.396642 0.00321114 0)
(-0.389094 0.00281766 0)
(-0.38237 0.00247331 0)
(-0.376338 0.00218083 0)
(-0.370977 0.00199104 0)
(-0.366702 0.0018774 0)
(-0.363338 0.00179806 6.1078e-22)
(-0.360063 0.00170161 0)
(-0.356882 0.00159721 0)
(-0.353795 0.00148938 0)
(-0.350806 0.00138132 6.21997e-22)
(-0.347919 0.00127451 0)
(-0.345137 0.00117047 0)
(-0.342462 0.00106992 0)
(-0.339892 0.00097369 -1.26335e-21)
(-0.337428 0.000881558 1.26785e-21)
(-0.335069 0.000794137 1.27225e-21)
(-0.332813 0.000711176 0)
(-0.330659 0.000632904 -1.28074e-21)
(-0.328604 0.000559025 0)
(-0.326649 0.000489858 1.2889e-21)
(-0.324787 0.000425115 1.29287e-21)
(-0.323019 0.000364821 -1.29679e-21)
(-0.321339 0.000308704 0)
(-0.319747 0.000256746 0)
(-0.318238 0.000208915 0)
(-0.316811 0.000165088 0)
(-0.315458 0.00012513 -1.31558e-21)
(-0.314181 8.89138e-05 0)
(-0.312973 5.63148e-05 0)
(-0.311831 2.71992e-05 1.32648e-21)
(-0.310753 1.49968e-06 0)
(-0.309733 -2.09255e-05 1.33368e-21)
(-0.30877 -4.02678e-05 -1.33727e-21)
(-0.307856 -5.64845e-05 1.34085e-21)
(-0.306994 -6.95661e-05 0)
(-0.30617 -7.98198e-05 0)
(-0.305393 -8.71186e-05 0)
(-0.304645 -9.17857e-05 1.35522e-21)
(-0.303935 -9.40343e-05 -1.35883e-21)
(-0.303248 -9.40905e-05 0)
(-0.302595 -9.19366e-05 0)
(-0.301948 -8.79608e-05 0)
(-0.301353 -8.22654e-05 0)
(-0.300701 -7.4834e-05 0)
(-0.300203 -6.59427e-05 0)
(-0.299484 -5.52602e-05 0)
(-0.299017 -4.51225e-05 0)
(-0.298719 -3.26439e-05 1.3913e-21)
(-0.296724 -1.54067e-05 -1.38757e-21)
(-0.302804 -5.63489e-06 0)
(-0.296586 -1.02562e-05 0)
(-0.342217 0.000249156 0)
(-0.3295 0.000470965 -1.55624e-21)
(-0.31425 0.000860863 0)
(-0.330756 0.00145214 0)
(-0.31923 0.0010013 0)
(-0.314284 0.000875449 0)
(-0.335641 0.00129614 0)
(-0.321414 0.000612923 -3.12958e-21)
(-0.327151 -8.09268e-05 0)
(-0.320291 -0.000131905 0)
(-0.313465 -0.000155498 0)
(-0.307826 -0.000309127 0)
(-0.304104 -0.000324201 0)
(-0.297715 -1.92326e-05 0)
(-0.302876 0.00021994 0)
(-0.296626 7.19185e-05 3.15943e-21)
(-0.296227 -0.00018645 0)
(-0.303727 -0.000357757 0)
(-0.29409 -0.000317165 0)
(-0.340873 1.06837e-05 -3.71485e-21)
(-0.324341 0.000180427 0)
(-0.31218 0.000255439 -3.41998e-21)
(-0.303525 0.00030424 0)
(-0.302804 8.53309e-05 0)
(-0.293472 -0.000107329 0)
(-0.313306 -0.000161746 -3.49943e-21)
(-0.35438 0.000279988 0)
(-0.331447 0.000508297 3.70046e-21)
(-0.31784 0.000284407 3.56286e-21)
(-0.30344 0.000102829 0)
(-0.292584 0.000250419 3.31442e-21)
(-0.292202 0.000441305 0)
(-0.291957 0.00041341 0)
(-0.291728 0.000507645 0)
(-0.29142 0.000483393 -3.337e-21)
(-0.291123 0.000216579 0)
(-0.310861 -4.81917e-05 -3.5678e-21)
(-0.316603 -7.28659e-05 3.62774e-21)
(-0.3486 0.000296906 0)
(-0.322191 0.00110255 0)
(-0.297257 0.000984518 0)
(-0.299098 0.00028878 0)
(-0.288848 0.000337342 0)
(-0.288484 0.000132968 0)
(-0.309388 0.000512484 0)
(-0.29336 0.000852622 -3.27332e-21)
(-0.287076 0.000127995 0)
(-0.33128 0.000698769 0)
(-0.305107 0.000897678 0)
(-0.298582 0.000371545 0)
(-0.284791 0.000341963 0)
(-0.304982 0.000125721 0)
(-0.314786 -0.000196165 0)
(-0.316737 -0.00017672 0)
(-0.306741 0.000103835 0)
(-0.324089 0.000847605 0)
(-0.302884 0.00136335 0)
(-0.279734 0.00102065 0)
(-0.279016 0.000990307 -5.77995e-21)
(-0.27799 0.00076061 0)
(-0.277188 0.000165135 0)
(-0.28928 -5.53185e-07 0)
(-0.311151 0.000541839 6.26342e-21)
(-0.286959 0.00119889 0)
(-0.272718 0.000918544 0)
(-0.27178 0.000288614 5.17698e-21)
(-0.292603 0.000773589 0)
(-0.269095 0.000899984 -4.93332e-21)
(-0.267983 0.000397795 0)
(-0.283095 0.000302326 0)
(-0.292807 0.000939671 0)
(-0.263706 0.000928133 4.36577e-21)
(-0.288685 0.00101492 0)
(-0.261026 0.000863038 -4.00693e-21)
(-0.285352 0.000862831 0)
(-0.258339 0.000732919 0)
(-0.279488 0.000855837 0)
(-0.255377 0.00122533 0)
(-0.253795 0.000479203 0)
(-0.262027 -9.60467e-05 0)
(-0.263336 0.000430617 0)
(-0.24871 0.000631822 0)
(-0.250026 0.000621945 0)
(-0.245012 0.000583334 0)
(-0.243231 7.9112e-06 0)
(-0.240637 -5.61765e-05 -1.35709e-21)
(-0.237948 0.000166934 1.06612e-21)
(-0.235215 0.000611903 0)
(-0.232765 0.000339799 0)
(-0.229259 0.00110843 0)
(-0.245979 0.00256911 0)
(-0.22718 0.0027195 -4.85538e-22)
(-0.226326 0.00129106 8.3061e-22)
(-0.224585 -0.000599571 -1.26877e-21)
(-0.221965 -0.000258313 0)
(-0.21884 0.000621689 -2.08921e-21)
(-0.216948 0.000915793 -4.88505e-21)
(-0.219257 -4.60227e-05 0)
(-0.211745 -0.000544633 -6.71294e-21)
(-0.208899 0.000698058 7.63882e-21)
(-0.207982 0.00116517 0)
(-0.20558 0.000540556 0)
(-0.202809 -0.000112511 0)
(-0.199153 -0.000583631 0)
(-0.196836 3.96861e-05 0)
(-0.194875 0.000407661 -1.39507e-20)
(-0.19329 0.000692908 0)
(-0.189616 0.0012564 -1.64897e-20)
(-0.187968 0.00106237 0)
(-0.186687 0.00123481 0)
(-0.18989 0.00266266 0)
(-0.189878 0.00109117 0)
(-0.18653 -8.05417e-06 0)
(-0.186328 0.0016478 2.21229e-20)
(-0.196758 0.00178698 0)
(-0.186035 0.00155336 0)
(-0.185067 0.00117958 -2.50556e-20)
(-0.183079 0.000712745 0)
(-0.180698 0.00051258 0)
(-0.178033 0.0005009 0)
(-0.17499 0.00054819 3.1755e-20)
(-0.17085 0.00048105 0)
(-0.164679 0.000335434 0)
(-0.155436 0.000377739 0)
(-0.142945 0.00075213 0)
(-0.128156 0.00130027 -5.61472e-20)
(-0.112889 0.00168999 0)
(-0.0989309 0.00176285 0)
(-0.0869403 0.001569 0)
(-0.0775387 0.00135898 9.4533e-20)
(-0.0674657 0.00127923 0)
(-0.062691 0.00171352 0)
(-0.0342081 0.00143499 -1.39066e-19)
(-0.0665373 0.000374421 -6.01853e-36)
(-0.100145 0.00567867 1.18436e-17)
(-0.123169 0.0100402 2.12693e-17)
(-0.135386 0.0125889 2.00061e-17)
(-0.142659 0.0139719 1.92427e-17)
(-0.148075 0.0148361 1.86378e-17)
(-0.152394 0.0154401 -1.81235e-17)
(-0.155376 0.0158775 -1.76592e-17)
(-0.157841 0.0161703 0)
(-0.159948 0.0164124 -3.37503e-17)
(-0.162249 0.0166256 -1.64989e-17)
(-0.164433 0.0168484 4.99538e-34)
(-0.167059 0.0170581 0)
(-0.169991 0.0173174 -3.03714e-17)
(-0.173675 0.0176154 -2.92732e-17)
(-0.177843 0.0179869 -2.79328e-17)
(-0.182894 0.0184175 -2.40741e-35)
(-0.188544 0.0189258 4.93487e-17)
(-0.195244 0.0195163 2.26865e-17)
(-0.202545 0.020181 3.61112e-35)
(-0.211426 0.0209763 -3.54328e-17)
(-0.219884 0.0217694 -1.24821e-20)
(-0.233634 0.022952 -3.00927e-36)
(-0.23816 0.0236913 1.33395e-17)
(-0.264329 0.0252976 -7.17686e-18)
)
;
    }
    lowerWall
    {
        type            calculated;
        value           nonuniform List<vector> 
250
(
(-0.622901 -0.00597385 0)
(-0.593782 -0.00984256 0)
(-0.674314 -0.0125324 0)
(-0.575591 -0.0101688 0)
(-0.581927 -0.0092555 0)
(-0.631025 -0.0095437 0)
(-0.544121 -0.00722576 0)
(-0.479505 -0.00469795 0)
(-0.50885 -0.00386914 0)
(-0.54678 -0.00363676 0)
(-0.556819 -0.00248205 0)
(-0.539603 -0.00220366 0)
(-0.484238 -0.0031563 0)
(-0.426748 -0.00233266 0)
(-0.423492 -0.00083593 0)
(-0.450171 1.0906e-05 0)
(-0.482481 -0.000634259 0)
(-0.441563 -0.000682462 0)
(0.00208841 -1.54935e-05 0)
(0.00232717 -0.00282533 0)
(0.00260441 -0.00574315 0)
(0.00298005 -0.00885209 1.15672e-19)
(0.00340219 -0.0120002 -9.75818e-20)
(0.00362632 -0.0158373 8.67224e-20)
(0.00331432 -0.0155799 -7.78957e-20)
(0.00918792 -0.0350727 0)
(-0.0462096 -0.108166 0)
(0.000220943 -0.00027249 0)
(5.96248e-05 -0.00078057 0)
(-4.87051e-06 -0.000866705 0)
(5.49079e-05 -0.000866192 0)
(2.74169e-05 -0.000817461 1.55654e-19)
(-0.000152878 -0.000228914 -1.50462e-19)
(-0.000589237 0.00123268 0)
(-0.00116908 0.00391731 -1.734e-19)
(-0.00152294 0.0072846 1.33572e-19)
(-0.00145496 0.0104302 0)
(-0.00106296 0.0127256 0)
(-0.000540389 0.0139009 0)
(-4.49228e-05 0.0139373 0)
(0.000346028 0.0130392 0)
(0.000671204 0.0114685 0)
(0.000989426 0.00927583 0)
(0.00134138 0.00649664 0)
(0.00174214 0.00317833 0)
(-0.000141276 -0.000275233 0)
(0.000168422 -0.000442527 0)
(0.000475635 -0.00049181 0)
(0.000791025 -0.000417993 0)
(0.00103639 -0.000179912 -0)
(0.00106855 0.000208139 -0)
(0.000811046 0.000670017 1.49264e-20)
(0.000291431 0.00109843 -1.65393e-20)
(-0.000418552 0.00140435 0)
(-0.00122608 0.00155346 -9.38357e-21)
(-0.00205401 0.00156 0)
(-0.00283966 0.00145467 0)
(-0.00353965 0.00127338 0)
(-0.00413055 0.00104597 4.69629e-21)
(-0.00460169 0.000792421 0)
(-0.00494913 0.00052392 0)
(-0.00517067 0.000248499 -4.09317e-21)
(-0.00527067 -4.06817e-05 -0)
(-0.00522286 -0.000340101 0)
(-0.00502745 -0.000627916 -0)
(-0.0046935 -0.000884405 4.42357e-21)
(-0.00423285 -0.00108937 -0)
(-0.00366391 -0.00122169 5.25495e-21)
(-0.00301445 -0.00126213 0)
(-0.00232297 -0.00119667 -0)
(-0.00163924 -0.00102304 8.58825e-21)
(-0.00102138 -0.000759129 0)
(-0.000526014 -0.000452407 -1.42952e-20)
(-0.000182237 -0.000176867 0)
(3.25394e-05 8.83338e-06 2.41124e-20)
(0.000168965 0.000119605 0)
(0.000244053 0.000217393 0)
(0.000222539 0.000334224 0)
(9.90943e-05 0.000490426 0)
(-0.000165276 0.000696409 0)
(-0.000594597 0.000904504 -1.45898e-20)
(-0.00116179 0.00103385 0)
(-0.00177157 0.00101586 1.75949e-20)
(-0.00230553 0.000847842 0)
(-0.00267143 0.000584073 -1.42245e-20)
(-0.00283901 0.000311342 0)
(-0.00284143 0.000100248 0)
(-0.00273848 -7.63205e-06 1.41391e-20)
(-0.00260465 1.04084e-05 0)
(-0.00250409 0.000143787 1.46776e-20)
(-0.00243838 0.000331476 -1.47998e-20)
(-0.00234934 0.000419473 0)
(-0.00208792 0.000173369 -1.63537e-20)
(-0.00139908 -0.000510523 -1.936e-20)
(-2.43597e-05 -0.0011981 0)
(0.00171384 -0.00179266 0)
(0.00361446 -0.00245767 0)
(0.0057997 -0.00308424 0)
(0.00820377 -0.00352567 -0)
(0.0107291 -0.00371735 3.5265e-21)
(0.0132923 -0.00381133 0)
(0.0155705 -0.00379148 -2.75749e-21)
(0.0188914 -0.00381548 -0)
(0.0207098 -0.00349928 -0)
(0.0238984 -0.00339351 2.35962e-21)
(0.0245718 -0.00290158 0)
(0.0258706 -0.00256942 -1.96843e-21)
(0.028476 -0.0024106 -0)
(0.0306725 -0.00226472 0)
(0.0327036 -0.00211436 -0)
(0.0347603 -0.00197192 1.86718e-21)
(0.0366151 -0.00184171 0)
(0.0384716 -0.00172829 -0)
(0.0402114 -0.00162633 1.81586e-21)
(0.0419234 -0.00153693 0)
(0.0435609 -0.00145696 1.7934e-21)
(0.0451646 -0.00138565 0)
(0.0467155 -0.00132113 0)
(0.048233 -0.0012624 0)
(0.0497096 -0.00120811 -1.75973e-21)
(0.0511541 -0.00115742 -0)
(0.0525634 -0.0011096 0)
(0.0539418 -0.00106412 -1.73859e-21)
(0.0552881 -0.00102027 -1.73172e-21)
(0.0566035 -0.000977774 -0)
(0.0578874 -0.000936375 -1.71781e-21)
(0.0591408 -0.000895666 0)
(0.0603618 -0.00085546 -3.40651e-21)
(0.0615513 -0.000815719 -0)
(0.0627079 -0.000776126 -3.37526e-21)
(0.0638311 -0.00073657 -0)
(0.0649197 -0.000696931 3.34103e-21)
(0.065973 -0.000657093 0)
(0.0669894 -0.000616973 0)
(0.0679686 -0.000576255 0)
(0.068908 -0.000534686 -3.26106e-21)
(0.0698063 -0.000492068 -0)
(0.0706615 -0.000448153 3.21394e-21)
(0.0714719 -0.000402596 0)
(0.0722348 -0.000355016 -3.16144e-21)
(0.0729476 -0.000305159 -3.13306e-21)
(0.0736076 -0.000253011 -3.10325e-21)
(0.0742126 -0.000198844 -0)
(0.0747599 -0.000143909 0)
(0.0752485 -9.07701e-05 0)
(0.0756798 -4.30256e-05 0)
(0.0760601 -2.74105e-06 0)
(0.0763921 3.37237e-05 0)
(0.0766772 6.96834e-05 0)
(0.0769147 0.000105331 0)
(0.0771036 0.000140929 2.76527e-21)
(0.0772439 0.00017647 2.71831e-21)
(0.0773344 0.00021195 0)
(0.077375 0.000247372 0)
(0.0773646 0.000282676 0)
(0.0773036 0.000317771 2.50946e-21)
(0.0771909 0.000352721 0)
(0.0770264 0.000387344 0)
(0.0768103 0.000421668 0)
(0.0765423 0.000455628 0)
(0.0762224 0.000489169 -2.1977e-21)
(0.0758508 0.000522226 0)
(0.0754277 0.000554786 0)
(0.0749534 0.000586706 1.98118e-21)
(0.0744288 0.000618002 -1.90377e-21)
(0.0738539 0.000648662 0)
(0.0732293 0.000678538 -1.74079e-21)
(0.0725565 0.000707589 0)
(0.0718359 0.000735796 1.56659e-21)
(0.0710689 0.000763116 0)
(0.0702567 0.00078947 0)
(0.0694008 0.000814772 0)
(0.0685059 0.000839004 0)
(0.0675568 0.000861796 0)
(0.0665857 0.000884033 -1.94627e-21)
(0.0655464 0.000904408 -1.72634e-21)
(0.0644944 0.000923581 0)
(0.0633884 0.000940597 0)
(0.0622637 0.00095377 0)
(0.0611053 0.00096138 7.84882e-22)
(0.0599188 0.000960067 0)
(0.0587085 0.000951049 0)
(0.057466 0.000953493 0)
(0.0561957 0.00096691 -2.63393e-22)
(0.0548972 0.000976154 5.43994e-22)
(0.0535769 0.000984493 0)
(0.0522356 0.000991563 0)
(0.0508759 0.00099759 1.43402e-21)
(0.0494991 0.00100265 1.74764e-21)
(0.0481065 0.00100677 0)
(0.0467001 0.00101001 0)
(0.0452809 0.00101244 -2.7446e-21)
(0.0438509 0.00101421 3.09728e-21)
(0.0424112 0.00101544 0)
(0.0409634 0.00101631 0)
(0.0395081 0.00101689 4.22507e-21)
(0.0380464 0.00101714 0)
(0.0365787 0.00101687 0)
(0.0351079 0.00101652 5.4741e-21)
(0.0336323 0.0010159 0)
(0.0321556 0.00101539 6.38831e-21)
(0.0306763 0.00101499 0)
(0.0291968 0.00101492 0)
(0.0277162 0.00101541 0)
(0.0262349 0.00101641 -8.4668e-21)
(0.0247526 0.00101817 0)
(0.0232687 0.00102068 0)
(0.021783 0.00102398 0)
(0.0202952 0.00102804 0)
(0.0188049 0.00103292 0)
(0.0173119 0.00103865 0)
(0.0158159 0.0010454 -1.3345e-20)
(0.0143165 0.00105323 -1.42382e-20)
(0.0128131 0.00106228 0)
(0.0113052 0.00107254 0)
(0.00979208 0.00108391 0)
(0.00827374 0.00109607 1.86073e-20)
(0.00675059 0.00110881 0)
(0.00522413 0.0011218 -4.29149e-20)
(0.00369814 0.00113252 4.62294e-20)
(0.00218072 0.00113563 4.99189e-20)
(0.000679012 0.00111713 -5.38826e-20)
(-0.00071897 0.00106562 5.47412e-20)
(-0.00228345 0.000903136 -5.26401e-20)
(-0.00264199 0.000520263 0)
(-0.00465547 0.00116949 -3.12727e-18)
(-0.00778436 0.000940453 -2.82623e-18)
(-0.0108918 0.000597045 3.00927e-36)
(-0.0141175 0.000274423 -4.79022e-18)
(-0.0175674 -6.9062e-05 -8.89726e-18)
(-0.0212395 -0.000433954 -4.14793e-18)
(-0.0251419 -0.000819676 3.87859e-18)
(-0.0292978 -0.00123047 -5.41668e-35)
(-0.0337311 -0.00166884 6.01853e-36)
(-0.0384515 -0.00213934 3.20759e-18)
(-0.0434779 -0.00264045 3.01659e-18)
(-0.0488255 -0.00313837 3.00927e-36)
(-0.0544986 -0.00366331 0)
(-0.0605605 -0.00426599 0)
(-0.067061 -0.00492924 -8.5576e-36)
(-0.0740052 -0.00564608 2.29927e-35)
(-0.0815414 -0.00641781 7.22224e-35)
(-0.0895317 -0.00724881 -3.75385e-18)
(-0.0985374 -0.00815036 -3.42246e-18)
(-0.107641 -0.00912347 6.01853e-36)
(-0.119216 -0.010196 5.39323e-18)
(-0.128838 -0.0113664 8.96227e-18)
(-0.146204 -0.0126087 0)
(-0.153782 -0.0141143 -4.33614e-18)
(-0.188194 -0.0164988 -3.31019e-35)
)
;
    }
    frontAndBack
    {
        type            empty;
    }
}


// ************************************************************************* //
