/*--------------------------------*- C++ -*----------------------------------*\
  =========                 |
  \\      /  F ield         | OpenFOAM: The Open Source CFD Toolbox
   \\    /   O peration     | Website:  https://openfoam.org
    \\  /    A nd           | Version:  8
     \\/     M anipulation  |
\*---------------------------------------------------------------------------*/
FoamFile
{
    version     2.0;
    format      ascii;
    class       volScalarField;
    location    "2000";
    object      nut;
}
// * * * * * * * * * * * * * * * * * * * * * * * * * * * * * * * * * * * * * //

dimensions      [0 2 -1 0 0 0 0];

internalField   nonuniform List<scalar> 
12225
(
0.0122671
0.00158819
0.000666129
0.000410105
0.000294025
0.00022806
0.000183261
0.000170805
0.000132697
0.000106844
9.46735e-05
8.80085e-05
7.89856e-05
7.2233e-05
6.77318e-05
6.4507e-05
6.12104e-05
6.46338e-05
0.0323823
0.00744532
0.00330638
0.00204329
0.00146801
0.0011445
0.000936338
0.000799975
0.000679511
0.000577234
0.000506286
0.000452432
0.00041054
0.000378806
0.000350182
0.000327767
0.000311172
0.000292818
0.0490123
0.01515
0.00728196
0.00457854
0.00330639
0.00258054
0.00211233
0.00178913
0.00154181
0.00134762
0.00119772
0.0010787
0.000982056
0.000902481
0.000835978
0.000780909
0.000735546
0.00068717
0.063054
0.0237783
0.0122894
0.00788814
0.00573397
0.00448498
0.00367412
0.00310733
0.00268471
0.00235805
0.00210111
0.00189458
0.00172531
0.00158451
0.00146613
0.00136604
0.00128146
0.00119789
0.074932
0.0328517
0.0181452
0.0119262
0.00874548
0.00686412
0.0056308
0.00476254
0.00411748
0.00362029
0.00322731
0.00290992
0.00264899
0.00243143
0.00224799
0.00209188
0.00195826
0.00183626
0.0849536
0.0420208
0.0246655
0.0166359
0.0123325
0.00972587
0.00799539
0.00676785
0.00585345
0.00514769
0.00458844
0.00413587
0.00376334
0.00345239
0.00318983
0.00296596
0.0027736
0.00260471
0.0933822
0.0510219
0.0316642
0.0219415
0.016474
0.0130717
0.0107778
0.00913551
0.0079057
0.0069534
0.0061969
0.00558367
0.00507837
0.00465632
0.00429976
0.00399561
0.00373414
0.00350818
0.0993794
0.0583363
0.0378386
0.0268568
0.0204171
0.0163053
0.0134891
0.011453
0.00991891
0.00872629
0.00777635
0.00700497
0.00636866
0.00583685
0.0053874
0.00500398
0.00467452
0.00439126
0.104023
0.0645454
0.0433804
0.0314239
0.0241571
0.0194092
0.0161097
0.0137018
0.0118766
0.0104521
0.00931443
0.00838904
0.00762485
0.00698574
0.00644544
0.00598449
0.00558858
0.00524877
0.108368
0.0708939
0.0493756
0.0365496
0.0284517
0.0230231
0.0191863
0.0163547
0.0141926
0.0124968
0.011138
0.0100303
0.00911434
0.00834759
0.0076991
0.00714579
0.00667068
0.00626298
0.112368
0.0772557
0.0557282
0.0421918
0.0332976
0.0271652
0.0227467
0.0194432
0.0168984
0.0148903
0.0132749
0.0119544
0.0108605
0.00994379
0.00916796
0.00850586
0.00793736
0.00744915
0.115994
0.0834975
0.0623053
0.0482611
0.0386474
0.0318167
0.026789
0.0229739
0.0200046
0.0176452
0.0157378
0.0141736
0.0128749
0.011785
0.0108618
0.0100736
0.00939671
0.00881464
0.119234
0.0894856
0.0689377
0.0546109
0.0443919
0.0369007
0.0312597
0.0269088
0.0234836
0.02074
0.0185096
0.0166735
0.0151449
0.01386
0.0127704
0.0118396
0.0110397
0.0103508
0.122086
0.095084
0.075415
0.0610223
0.0503361
0.0422534
0.0360231
0.0311353
0.0272402
0.024093
0.021519
0.0193909
0.017614
0.0161174
0.0148466
0.01376
0.0128257
0.0120196
0.124546
0.100135
0.0814619
0.0671725
0.056158
0.047577
0.0408126
0.0354174
0.031066
0.0275196
0.0246012
0.0221777
0.0201481
0.0184349
0.0169782
0.0157314
0.0146583
0.0137311
0.126578
0.104396
0.0866605
0.0725515
0.0613228
0.0523526
0.0451453
0.0393148
0.0345631
0.0306611
0.0274325
0.0247409
0.0224806
0.020569
0.0189413
0.0175468
0.0163454
0.0153061
0.128011
0.107322
0.0902141
0.0762353
0.0648743
0.0556509
0.0481493
0.0420254
0.0370012
0.0328553
0.0294126
0.0265352
0.0241143
0.0220643
0.0203172
0.0188191
0.0175275
0.0164083
0.128006
0.107313
0.0902048
0.0762269
0.0648674
0.0556454
0.048145
0.0420222
0.0369988
0.0328537
0.0294117
0.0265349
0.0241147
0.0220652
0.0203185
0.0188206
0.0175287
0.0164083
0.126509
0.104255
0.0864922
0.0723807
0.0611613
0.052205
0.0450128
0.0391967
0.0344584
0.0305686
0.0273506
0.0246684
0.0224163
0.0205118
0.0188903
0.0175006
0.0163024
0.0152631
0.124267
0.0995604
0.0807712
0.0664676
0.0554886
0.0469631
0.0402594
0.0349228
0.0306248
0.0271258
0.0242488
0.0218611
0.0198626
0.0181762
0.0167426
0.0155152
0.0144575
0.0135405
0.12136
0.0936399
0.0737261
0.0593348
0.0487592
0.0408249
0.0347467
0.0300003
0.0262308
0.0231928
0.0207127
0.018665
0.0169572
0.0155198
0.0142999
0.0132567
0.0123583
0.0115798
0.117686
0.0865903
0.0656967
0.0514791
0.0415374
0.0343608
0.0290184
0.0249322
0.0217348
0.0191848
0.0171184
0.0154211
0.0140106
0.0128263
0.0118229
0.0109657
0.010228
0.00958895
0.11305
0.0784122
0.056921
0.0432687
0.0342296
0.0279652
0.0234365
0.0200435
0.0174263
0.0153597
0.0136966
0.0123369
0.0112106
0.010267
0.00946866
0.00878719
0.00820102
0.00769347
0.107169
0.0691009
0.0476372
0.035029
0.0271566
0.021922
0.0182437
0.0155401
0.0134817
0.0118706
0.0105816
0.00953197
0.00866487
0.00793965
0.0073267
0.00680378
0.00635413
0.00596495
0.0996761
0.0587036
0.0381279
0.0270699
0.0205782
0.0164329
0.0135949
0.0115438
0.00999922
0.00879908
0.00784341
0.00706755
0.0064279
0.00589357
0.00544229
0.00505734
0.00472643
0.00444008
0.0901097
0.0473665
0.0287363
0.0196847
0.0146976
0.0116312
0.00957853
0.00811528
0.00702331
0.00617994
0.00551057
0.00496793
0.00452113
0.00414813
0.0038333
0.00356445
0.00333366
0.00313367
0.0779076
0.0353826
0.0198606
0.0131383
0.00966107
0.00759298
0.00623352
0.00527429
0.00456399
0.00401883
0.00358696
0.00323611
0.00294716
0.00270592
0.00250233
0.00232747
0.00217869
0.00204817
0.06238
0.0232554
0.0119461
0.00765493
0.00556337
0.00435256
0.00356724
0.00301639
0.00261307
0.00230794
0.00206655
0.00186719
0.00170218
0.00156416
0.00144769
0.00134441
0.0012608
0.00118219
0.0426105
0.0117794
0.0054693
0.00341385
0.00246071
0.00192006
0.00157275
0.00132885
0.00115942
0.00103848
0.000943994
0.000857685
0.000784587
0.00072151
0.000667762
0.000612319
0.000581062
0.000536615
0.0168348
0.00255985
0.00110002
0.000683428
0.000493724
0.000386804
0.000318219
0.00026631
0.000272591
0.000322006
0.000354515
0.000337161
0.000302488
0.0002618
0.000237263
0.000183811
0.00023452
0.000235735
3.99392e-09
5.91157e-07
2.00086e-06
6.2893e-06
1.08025e-05
1.35317e-05
1.32569e-05
1.1792e-05
9.06409e-06
5.94812e-06
3.52414e-06
2.02509e-06
1.41e-06
1.503e-06
2.06712e-06
2.56607e-06
2.45452e-06
2.06918e-06
2.54273e-06
8.67644e-06
9.02513e-06
5.55408e-06
6.7511e-06
2.65093e-05
5.67512e-05
7.44242e-05
9.0978e-05
0.000104826
0.000117047
0.000127207
0.000136111
0.000143758
0.000150449
0.000156275
0.000161358
0.000165843
0.000169818
0.000173368
0.000176551
0.00017941
0.000181975
0.000184268
0.000186308
0.000188111
0.000189692
0.000191063
0.000192235
0.000193215
0.000194004
0.000194476
0.000194974
0.000195082
0.000195144
0.000195019
0.00019472
0.000194274
0.000193675
0.000192929
0.000192035
0.000190997
0.000189816
0.000188494
0.000187034
0.000185438
0.00018371
0.00018185
0.000179861
0.000177743
0.0001755
0.000173135
0.000170649
0.000168044
0.000165322
0.000162485
0.000159533
0.000156468
0.000153289
0.000149997
0.00014659
0.000143069
0.00013943
0.000135671
0.000131787
0.000127773
0.00012362
0.000119321
0.000114862
0.000110228
0.000105398
0.000100347
9.50457e-05
8.94703e-05
8.3615e-05
7.75443e-05
7.15333e-05
6.62511e-05
6.24915e-05
6.01496e-05
5.8397e-05
5.67911e-05
5.52149e-05
5.36465e-05
5.20844e-05
5.053e-05
4.89853e-05
4.74524e-05
4.59339e-05
4.4436e-05
4.29867e-05
4.17497e-05
4.05457e-05
3.93559e-05
3.81834e-05
3.70288e-05
3.58929e-05
3.47766e-05
3.36807e-05
3.26059e-05
3.15527e-05
3.05217e-05
2.95132e-05
2.85276e-05
2.75656e-05
2.66276e-05
2.57137e-05
2.48236e-05
2.39587e-05
2.31466e-05
2.24123e-05
2.16967e-05
2.0996e-05
2.03187e-05
1.96694e-05
1.90344e-05
1.84134e-05
1.78095e-05
1.72236e-05
1.66559e-05
1.61062e-05
1.55742e-05
1.50595e-05
1.45616e-05
1.408e-05
1.36144e-05
1.31644e-05
1.27296e-05
1.23095e-05
1.19037e-05
1.1512e-05
1.11339e-05
1.0769e-05
1.0417e-05
1.00776e-05
9.7504e-06
9.43513e-06
9.1315e-06
8.83924e-06
8.55808e-06
8.28781e-06
8.0282e-06
7.77909e-06
7.54027e-06
7.31159e-06
7.09285e-06
6.88385e-06
6.68435e-06
6.49401e-06
6.31241e-06
6.13901e-06
5.97303e-06
5.81372e-06
5.65944e-06
5.50979e-06
5.3598e-06
5.21404e-06
5.048e-06
4.89402e-06
4.64763e-06
4.48945e-06
3.59434e-06
1.68171e-07
6.14238e-06
6.38823e-05
0.000139685
0.00018324
0.000207005
0.000216379
0.000214886
0.000206541
0.000189838
0.000169046
0.000148911
0.000138498
0.000143712
0.000157681
0.000166604
0.000169022
0.000170206
0.000175609
0.00018531
0.000200065
0.000217504
0.000234338
0.000250841
0.000262141
0.000272045
0.00028086
0.000293706
0.000312802
0.000326748
0.000339492
0.000350416
0.000360346
0.000369444
0.000377345
0.000384557
0.000391272
0.000397714
0.000404014
0.000410237
0.000416379
0.000422398
0.00042824
0.000433864
0.000439244
0.000444361
0.000449201
0.000453751
0.000458013
0.000461987
0.000465712
0.000469154
0.000472351
0.000475293
0.000477984
0.000480426
0.000482619
0.000484565
0.000486262
0.000487713
0.000488917
0.000489876
0.000490592
0.000491069
0.000491317
0.000491342
0.000491138
0.000490701
0.000490048
0.000489182
0.00048811
0.000486837
0.000485372
0.00048372
0.000481888
0.000479884
0.000477715
0.000475389
0.000472912
0.000470294
0.000467542
0.000464663
0.000461666
0.000458559
0.00045535
0.000452048
0.00044866
0.000445195
0.000441661
0.000438065
0.000434413
0.000430711
0.000426959
0.000423149
0.000419262
0.000415272
0.000411163
0.000406963
0.000402722
0.000398465
0.000394201
0.000389931
0.000385661
0.000381394
0.000377132
0.00037288
0.000368641
0.000364415
0.000360205
0.000356006
0.00035183
0.000347682
0.000343563
0.000339476
0.000335421
0.0003314
0.000327416
0.000323469
0.000319562
0.000315694
0.000311867
0.000308082
0.00030434
0.000300642
0.000296989
0.00029338
0.000289816
0.000286295
0.000282816
0.000279382
0.00027599
0.000272651
0.000269364
0.000266114
0.0002629
0.000259727
0.000256598
0.000253513
0.000250474
0.00024748
0.00024453
0.000241623
0.00023876
0.000235938
0.000233159
0.000230421
0.000227723
0.000225066
0.000222448
0.00021987
0.000217331
0.00021483
0.000212369
0.000209946
0.000207561
0.000205216
0.000202909
0.000200643
0.000198417
0.000196233
0.000194093
0.000191997
0.000189947
0.000187946
0.000185995
0.000184095
0.000182248
0.000180454
0.000178712
0.000177021
0.000175375
0.000173776
0.000172198
0.000170684
0.000169073
0.00016775
0.000165619
0.000164902
0.000162096
0.000160722
7.6859e-07
4.45413e-05
0.000164288
0.000246523
0.000299858
0.00033018
0.000341219
0.00033835
0.000325518
0.000306244
0.000286469
0.000273747
0.000271487
0.000278166
0.000288523
0.000299353
0.000312115
0.000329069
0.000350669
0.000375831
0.000403221
0.000431577
0.000469791
0.000516178
0.000561833
0.00060599
0.000649093
0.000692766
0.000732107
0.000763398
0.000788407
0.000808232
0.000823947
0.000836416
0.000846421
0.000854738
0.000862067
0.000869054
0.000876235
0.000883966
0.000892355
0.000901278
0.000910496
0.000919773
0.00092893
0.000937849
0.000946454
0.000954695
0.000962537
0.000969953
0.000976919
0.000983405
0.000989409
0.000994924
0.000999949
0.00100448
0.00100852
0.00101207
0.00101513
0.00101769
0.00101976
0.00102133
0.00102242
0.00102296
0.00102312
0.00102283
0.00102204
0.0010208
0.00101911
0.00101699
0.00101446
0.00101151
0.00100818
0.00100446
0.00100038
0.000995948
0.000991181
0.000986093
0.0009807
0.000975015
0.000969055
0.000962834
0.000956369
0.000949673
0.000942762
0.000935651
0.000928354
0.000920886
0.000913261
0.000905492
0.00089759
0.000889566
0.000881431
0.000873192
0.000864858
0.000856438
0.000847944
0.000839393
0.000830801
0.000822181
0.000813544
0.000804899
0.000796253
0.000787615
0.000778992
0.00077039
0.000761816
0.000753276
0.000744776
0.000736321
0.000727917
0.000719569
0.000711281
0.000703059
0.000694905
0.000686822
0.000678815
0.000670885
0.000663036
0.00065527
0.000647588
0.000639993
0.000632486
0.00062507
0.000617745
0.000610513
0.000603372
0.000596325
0.000589371
0.000582512
0.000575747
0.000569077
0.000562501
0.000556011
0.000549609
0.000543295
0.000537072
0.000530941
0.000524901
0.000518952
0.000513093
0.000507324
0.000501642
0.000496048
0.000490539
0.000485115
0.000479775
0.000474517
0.00046934
0.000464244
0.000459226
0.000454287
0.000449425
0.000444638
0.000439926
0.000435288
0.000430722
0.000426227
0.000421803
0.000417447
0.000413159
0.000408936
0.000404778
0.000400681
0.000396643
0.000392662
0.000388732
0.000384849
0.000381005
0.000377193
0.000373399
0.000369611
0.000365802
0.000361955
0.000357996
0.000353955
0.000349473
0.000345079
0.000338589
0.00032713
5.07073e-07
8.12892e-05
0.000212971
0.000309205
0.00037299
0.000410402
0.000425977
0.000426368
0.000416357
0.000402953
0.000394797
0.00039396
0.000403187
0.000420398
0.000443153
0.000470908
0.000504261
0.000543572
0.000588029
0.000650265
0.000724129
0.000803921
0.000888184
0.000958846
0.00102128
0.0010774
0.00112782
0.00117272
0.00121199
0.00124587
0.00127511
0.00130045
0.00132257
0.00134211
0.00135965
0.00137567
0.0013906
0.00140476
0.00141842
0.00143177
0.00144494
0.00145799
0.00147095
0.00148381
0.0014965
0.00150896
0.00152109
0.0015328
0.00154399
0.00155459
0.00156454
0.00157381
0.00158239
0.00159025
0.00159739
0.0016038
0.00160947
0.00161441
0.00161861
0.00162207
0.00162479
0.00162677
0.00162793
0.00162836
0.00162824
0.00162733
0.0016257
0.00162338
0.00162038
0.00161673
0.00161243
0.00160751
0.00160199
0.00159589
0.00158923
0.00158204
0.00157433
0.00156613
0.00155747
0.00154836
0.00153883
0.0015289
0.0015186
0.00150794
0.00149696
0.00148567
0.0014741
0.00146226
0.00145018
0.00143788
0.00142538
0.0014127
0.00139985
0.00138685
0.00137372
0.00136047
0.00134712
0.00133369
0.0013202
0.00130666
0.0012931
0.00127953
0.00126596
0.0012524
0.00123886
0.00122536
0.0012119
0.0011985
0.00118516
0.00117189
0.0011587
0.0011456
0.00113259
0.00111969
0.00110689
0.0010942
0.00108163
0.00106918
0.00105685
0.00104465
0.00103259
0.00102066
0.00100887
0.000997211
0.000985698
0.000974328
0.000963101
0.000952018
0.000941081
0.000930291
0.000919646
0.000909148
0.000898793
0.000888577
0.0008785
0.000868562
0.000858765
0.000849109
0.000839593
0.000830218
0.000820982
0.000811884
0.000802921
0.000794093
0.000785398
0.000776834
0.0007684
0.000760093
0.000751911
0.000743854
0.000735919
0.000728104
0.000720408
0.000712828
0.000705364
0.000698012
0.000690772
0.00068364
0.000676616
0.000669697
0.00066288
0.000656163
0.000649544
0.000643017
0.00063658
0.000630228
0.000623954
0.000617751
0.000611608
0.000605515
0.000599454
0.000593405
0.000587337
0.000581213
0.000574969
0.00056855
0.000561773
0.000554581
0.000546339
0.000530147
1.49342e-06
0.000102058
0.000235124
0.000355061
0.000433977
0.000481486
0.000505125
0.000513594
0.000515169
0.000516157
0.000523036
0.000539198
0.000565256
0.000600242
0.000643369
0.000694653
0.000754738
0.000838158
0.000933831
0.00103005
0.00111906
0.00120345
0.0012828
0.0013555
0.00142226
0.00148368
0.00154014
0.001592
0.0016396
0.00168337
0.0017238
0.00176136
0.0017965
0.00182958
0.00186091
0.00189075
0.0019193
0.00194669
0.00197301
0.00199834
0.0020227
0.00204611
0.00206855
0.00209002
0.00211048
0.00212992
0.00214829
0.00216556
0.00218172
0.00219674
0.00221061
0.00222334
0.00223493
0.00224541
0.00225478
0.00226306
0.00227028
0.00227644
0.00228157
0.00228567
0.00228877
0.00229082
0.00229173
0.00229182
0.00229095
0.00228907
0.00228624
0.00228247
0.00227778
0.0022722
0.00226575
0.00225846
0.00225037
0.00224149
0.00223186
0.0022215
0.00221046
0.00219876
0.00218643
0.0021735
0.00216
0.00214597
0.00213143
0.00211642
0.00210097
0.00208511
0.00206886
0.00205227
0.00203535
0.00201813
0.00200065
0.00198292
0.00196498
0.00194684
0.00192853
0.00191008
0.0018915
0.00187282
0.00185406
0.00183525
0.00181641
0.00179755
0.00177869
0.00175985
0.00174105
0.0017223
0.00170361
0.001685
0.00166648
0.00164805
0.00162974
0.00161155
0.00159349
0.00157557
0.0015578
0.00154018
0.00152272
0.00150543
0.00148831
0.00147137
0.0014546
0.00143803
0.00142164
0.00140544
0.00138943
0.00137362
0.001358
0.00134259
0.00132737
0.00131235
0.00129753
0.00128291
0.00126849
0.00125426
0.00124022
0.00122637
0.00121272
0.00119926
0.00118599
0.00117291
0.00116002
0.00114732
0.0011348
0.00112247
0.00111031
0.00109834
0.00108654
0.00107492
0.00106346
0.00105218
0.00104106
0.0010301
0.0010193
0.00100867
0.000998183
0.000987854
0.000977676
0.000967645
0.000957758
0.000948014
0.000938408
0.000928936
0.000919596
0.000910383
0.000901291
0.000892314
0.000883444
0.000874674
0.00086599
0.000857378
0.000848819
0.000840289
0.000831752
0.000823166
0.000814463
0.000805572
0.000796328
0.000786583
0.000776615
0.000756794
2.27167e-06
0.000118202
0.000256369
0.000390153
0.000487242
0.000549161
0.000587026
0.000610491
0.00062825
0.000647575
0.000673719
0.000709332
0.000755149
0.000811444
0.000878622
0.000969125
0.00107426
0.00117598
0.0012752
0.0013707
0.00146141
0.0015474
0.00162865
0.00170511
0.00177707
0.00184489
0.00190891
0.00196945
0.00202687
0.00208148
0.0021336
0.00218353
0.00223151
0.00227776
0.00232242
0.00236564
0.00240749
0.00244802
0.00248728
0.00252527
0.00256198
0.00259739
0.00263149
0.00266422
0.00269556
0.00272547
0.00275389
0.0027808
0.00280616
0.00282993
0.00285208
0.0028726
0.00289147
0.00290868
0.00292421
0.00293808
0.00295028
0.00296082
0.00296971
0.00297698
0.00298263
0.00298671
0.00298914
0.00299004
0.00298957
0.0029876
0.00298426
0.00297956
0.00297356
0.00296631
0.00295786
0.00294827
0.00293758
0.00292585
0.00291313
0.00289947
0.00288491
0.00286949
0.00285327
0.00283628
0.00281857
0.00280017
0.00278114
0.00276151
0.00274132
0.00272061
0.00269942
0.00267779
0.00265576
0.00263336
0.00261063
0.0025876
0.00256431
0.00254078
0.00251704
0.00249313
0.00246908
0.0024449
0.00242064
0.00239632
0.00237196
0.00234758
0.00232322
0.00229888
0.0022746
0.00225038
0.00222625
0.00220222
0.0021783
0.00215452
0.00213088
0.0021074
0.00208409
0.00206095
0.00203801
0.00201526
0.00199272
0.00197039
0.00194828
0.00192639
0.00190474
0.00188332
0.00186215
0.00184121
0.00182052
0.00180008
0.00177989
0.00175995
0.00174026
0.00172083
0.00170165
0.00168272
0.00166404
0.00164561
0.00162742
0.00160948
0.00159178
0.00157432
0.00155711
0.00154014
0.00152341
0.00150691
0.00149065
0.00147462
0.00145882
0.00144324
0.00142788
0.00141275
0.00139782
0.00138312
0.00136861
0.00135432
0.00134023
0.00132633
0.00131263
0.00129913
0.00128581
0.00127268
0.00125973
0.00124696
0.00123436
0.00122194
0.00120967
0.00119757
0.00118563
0.00117383
0.00116216
0.00115063
0.00113921
0.00112789
0.00111665
0.00110546
0.00109429
0.00108308
0.00107178
0.0010603
0.00104849
0.00103627
0.00102409
0.00100161
2.80553e-06
0.000126821
0.00026928
0.000407727
0.000526502
0.000608039
0.000664245
0.000706255
0.000743314
0.000782686
0.000829429
0.000886493
0.000955501
0.00104783
0.00115483
0.00126144
0.00136755
0.00147092
0.00157099
0.00166735
0.00175974
0.00184818
0.00193275
0.0020136
0.00209099
0.00216519
0.00223647
0.0023051
0.00237134
0.00243541
0.00249754
0.00255789
0.00261663
0.00267385
0.00272966
0.00278411
0.00283722
0.00288902
0.0029395
0.00298864
0.00303641
0.00308277
0.00312768
0.00317109
0.00321294
0.0032532
0.00329179
0.00332867
0.0033638
0.00339711
0.00342858
0.00345816
0.00348581
0.00351151
0.00353524
0.00355696
0.00357667
0.00359435
0.00361001
0.00362363
0.00363523
0.00364481
0.00365239
0.003658
0.00366166
0.00366327
0.00366319
0.0036612
0.00365743
0.00365191
0.0036447
0.00363586
0.00362544
0.00361351
0.00360013
0.00358536
0.00356927
0.00355193
0.0035334
0.00351375
0.00349305
0.00347136
0.00344876
0.0034253
0.00340105
0.00337607
0.00335043
0.00332417
0.00329737
0.00327006
0.00324231
0.00321415
0.00318565
0.00315683
0.00312775
0.00309844
0.00306894
0.00303929
0.00300952
0.00297968
0.00294977
0.00291985
0.00288994
0.00286006
0.00283023
0.00280049
0.00277085
0.00274133
0.00271195
0.00268273
0.00265368
0.00262483
0.00259617
0.00256774
0.00253953
0.00251156
0.00248384
0.00245638
0.00242918
0.00240226
0.00237562
0.00234926
0.00232319
0.00229741
0.00227193
0.00224675
0.00222186
0.00219729
0.00217301
0.00214904
0.00212538
0.00210202
0.00207896
0.0020562
0.00203373
0.00201156
0.00198969
0.0019681
0.00194681
0.00192581
0.0019051
0.00188467
0.00186452
0.00184465
0.00182505
0.00180572
0.00178666
0.00176786
0.00174932
0.00173104
0.001713
0.00169522
0.00167767
0.00166037
0.0016433
0.00162646
0.00160985
0.00159346
0.00157729
0.00156134
0.0015456
0.00153006
0.00151472
0.00149958
0.00148462
0.00146985
0.00145525
0.0014408
0.0014265
0.00141233
0.00139827
0.00138428
0.00137034
0.00135639
0.00134236
0.00132819
0.00131371
0.00129896
0.00128395
0.00125969
2.94242e-06
0.000128735
0.000270668
0.000407307
0.000538108
0.000641778
0.000719043
0.000780497
0.000836302
0.00089416
0.000961766
0.00105373
0.00116337
0.0012851
0.00140068
0.00151196
0.00161979
0.00172437
0.00182562
0.0019235
0.00201799
0.0021092
0.00219725
0.00228235
0.0023647
0.00244454
0.00252208
0.00259753
0.0026711
0.00274294
0.0028132
0.002882
0.00294943
0.00301556
0.00308042
0.00314403
0.00320641
0.00326752
0.00332734
0.00338584
0.00344296
0.00349865
0.00355286
0.00360551
0.00365654
0.00370589
0.00375349
0.00379928
0.00384321
0.0038852
0.0039252
0.00396317
0.00399905
0.00403281
0.0040644
0.0040938
0.00412098
0.00414591
0.00416858
0.00418898
0.00420711
0.00422296
0.00423654
0.00424787
0.00425696
0.00426382
0.00426855
0.004271
0.00427143
0.00426979
0.00426612
0.00426048
0.00425291
0.00424348
0.00423225
0.00421928
0.00420463
0.00418837
0.00417058
0.00415131
0.00413065
0.00410865
0.00408541
0.00406098
0.00403544
0.00400886
0.00398132
0.00395287
0.0039236
0.00389357
0.00386284
0.00383148
0.00379955
0.00376711
0.00373421
0.00370091
0.00366727
0.00363333
0.00359915
0.00356477
0.00353025
0.00349561
0.0034609
0.00342617
0.00339143
0.00335673
0.0033221
0.00328756
0.00325315
0.00321887
0.00318477
0.00315086
0.00311715
0.00308367
0.00305043
0.00301745
0.00298474
0.00295231
0.00292018
0.00288834
0.00285682
0.00282562
0.00279474
0.00276419
0.00273398
0.00270411
0.00267458
0.0026454
0.00261656
0.00258807
0.00255993
0.00253214
0.00250469
0.00247758
0.00245082
0.0024244
0.00239832
0.00237258
0.00234717
0.0023221
0.00229736
0.00227295
0.00224886
0.00222509
0.00220164
0.0021785
0.00215567
0.00213314
0.00211092
0.00208899
0.00206735
0.002046
0.00202493
0.00200414
0.00198363
0.00196338
0.0019434
0.00192369
0.00190422
0.00188501
0.00186605
0.00184733
0.00182884
0.00181058
0.00179255
0.00177473
0.00175711
0.00173968
0.00172244
0.00170535
0.00168839
0.00167154
0.00165476
0.001638
0.00162119
0.00160426
0.00158706
0.00156966
0.00155172
0.00152558
2.75937e-06
0.000125268
0.000264043
0.000395768
0.00052054
0.000633073
0.000727061
0.000808268
0.000891333
0.000986682
0.00109593
0.00122063
0.00135704
0.00148457
0.00160487
0.0017199
0.00183061
0.00193739
0.00204054
0.00214042
0.00223724
0.00233121
0.00242253
0.00251139
0.00259802
0.00268259
0.00276532
0.00284637
0.00292589
0.00300402
0.00308086
0.00315649
0.00323096
0.00330432
0.00337657
0.0034477
0.0035177
0.00358652
0.00365413
0.00372046
0.00378544
0.00384901
0.0039111
0.00397162
0.0040305
0.00408766
0.00414302
0.00419651
0.00424806
0.00429759
0.00434505
0.00439036
0.00443348
0.00447436
0.00451294
0.00454918
0.00458306
0.00461454
0.0046436
0.00467023
0.00469441
0.00471614
0.00473541
0.00475225
0.00476665
0.00477864
0.00478824
0.00479548
0.00480041
0.00480298
0.00480336
0.00480155
0.00479758
0.00479152
0.00478342
0.00477334
0.00476134
0.00474748
0.00473184
0.00471448
0.00469548
0.00467489
0.0046528
0.00462927
0.00460439
0.00457822
0.00455083
0.0045223
0.00449271
0.00446211
0.00443059
0.0043982
0.00436502
0.00433112
0.00429655
0.00426138
0.00422567
0.00418948
0.00415287
0.0041159
0.00407861
0.00404107
0.00400331
0.00396539
0.00392734
0.00388922
0.00385106
0.0038129
0.00377476
0.0037367
0.00369873
0.00366089
0.00362319
0.00358568
0.00354836
0.00351127
0.00347441
0.00343781
0.00340149
0.00336545
0.00332972
0.0032943
0.0032592
0.00322444
0.00319002
0.00315594
0.00312223
0.00308887
0.00305587
0.00302325
0.00299099
0.0029591
0.00292759
0.00289644
0.00286567
0.00283526
0.00280523
0.00277556
0.00274626
0.00271733
0.00268876
0.00266055
0.0026327
0.0026052
0.00257805
0.00255125
0.00252479
0.00249868
0.00247289
0.00244744
0.00242231
0.00239751
0.00237302
0.00234885
0.00232499
0.00230143
0.00227817
0.0022552
0.00223252
0.00221013
0.00218802
0.00216619
0.00214462
0.00212332
0.00210227
0.00208146
0.00206089
0.00204055
0.00202041
0.00200045
0.00198066
0.001961
0.00194143
0.00192191
0.00190235
0.0018827
0.00186281
0.00184275
0.001822
0.00179367
2.34433e-06
0.000117989
0.000252847
0.000380973
0.000503945
0.000620481
0.000731375
0.00084049
0.000955423
0.00108133
0.00121945
0.00136924
0.00151155
0.00164354
0.00176781
0.00188624
0.00199996
0.00210962
0.00221558
0.00231807
0.00241747
0.00251418
0.00260849
0.00270065
0.00279089
0.00287941
0.00296641
0.00305202
0.0031364
0.00321964
0.00330183
0.00338303
0.00346327
0.00354257
0.00362091
0.00369828
0.00377462
0.0038499
0.00392404
0.00399698
0.00406862
0.00413889
0.0042077
0.00427495
0.00434056
0.00440444
0.00446649
0.00452663
0.00458478
0.00464086
0.0046948
0.00474651
0.00479595
0.00484305
0.00488776
0.00493002
0.00496981
0.00500709
0.00504182
0.00507399
0.00510359
0.00513059
0.00515501
0.00517685
0.00519611
0.00521282
0.00522698
0.00523864
0.00524781
0.00525453
0.00525885
0.00526079
0.00526045
0.00525784
0.00525302
0.00524606
0.00523701
0.00522593
0.00521289
0.00519795
0.00518119
0.00516267
0.00514246
0.00512065
0.00509729
0.00507246
0.00504623
0.00501869
0.00498989
0.00495992
0.00492883
0.00489671
0.00486361
0.00482962
0.00479478
0.00475918
0.00472287
0.00468592
0.00464838
0.00461032
0.0045718
0.00453288
0.00449359
0.00445401
0.00441417
0.00437412
0.00433391
0.00429358
0.00425318
0.00421273
0.00417228
0.00413186
0.00409151
0.00405125
0.00401112
0.00397113
0.00393132
0.0038917
0.00385231
0.00381315
0.00377425
0.00373562
0.00369728
0.00365924
0.00362152
0.00358412
0.00354706
0.00351033
0.00347396
0.00343795
0.0034023
0.00336701
0.0033321
0.00329755
0.00326338
0.00322959
0.00319617
0.00316313
0.00313047
0.00309818
0.00306627
0.00303474
0.00300358
0.00297279
0.00294237
0.00291231
0.00288262
0.00285329
0.00282431
0.00279569
0.00276742
0.00273949
0.0027119
0.00268465
0.00265773
0.00263114
0.00260488
0.00257894
0.00255331
0.002528
0.00250299
0.00247828
0.00245387
0.00242974
0.0024059
0.00238233
0.00235902
0.00233596
0.00231313
0.00229051
0.00226807
0.00224579
0.00222363
0.00220152
0.0021794
0.0021572
0.0021348
0.00211222
0.00208892
0.00205826
1.92685e-06
0.000110307
0.000242562
0.000369907
0.000495648
0.000620081
0.000745009
0.000874504
0.00101188
0.00115921
0.00131664
0.00147845
0.00162626
0.00176271
0.00189082
0.00201259
0.00212928
0.00224173
0.00235046
0.00245588
0.00255827
0.00265783
0.002755
0.00285013
0.00294352
0.0030354
0.00312595
0.00321536
0.00330374
0.00339121
0.00347782
0.00356363
0.00364866
0.00373291
0.00381636
0.00389896
0.00398066
0.0040614
0.0041411
0.00421966
0.004297
0.00437301
0.00444759
0.00452065
0.00459207
0.00466176
0.00472961
0.00479554
0.00485944
0.00492123
0.00498082
0.00503815
0.00509312
0.00514569
0.00519579
0.00524337
0.00528839
0.0053308
0.00537058
0.00540769
0.00544213
0.00547388
0.00550293
0.00552929
0.00555297
0.00557397
0.00559232
0.00560804
0.00562116
0.00563172
0.00563975
0.00564529
0.0056484
0.00564912
0.00564752
0.00564364
0.00563755
0.0056293
0.00561896
0.0056066
0.00559227
0.00557606
0.00555803
0.00553825
0.00551679
0.00549373
0.00546914
0.00544309
0.00541566
0.0053869
0.00535691
0.00532574
0.00529346
0.00526014
0.00522585
0.00519066
0.00515463
0.00511782
0.0050803
0.00504213
0.00500337
0.00496408
0.00492431
0.00488411
0.00484354
0.00480265
0.00476149
0.0047201
0.00467852
0.0046368
0.00459498
0.0045531
0.00451118
0.00446928
0.00442741
0.00438561
0.00434391
0.00430234
0.00426091
0.00421966
0.0041786
0.00413776
0.00409715
0.0040568
0.00401671
0.00397691
0.0039374
0.00389819
0.0038593
0.00382074
0.00378252
0.00374463
0.0037071
0.00366992
0.00363309
0.00359663
0.00356053
0.0035248
0.00348944
0.00345445
0.00341983
0.00338559
0.00335172
0.00331821
0.00328508
0.00325232
0.00321993
0.0031879
0.00315624
0.00312493
0.00309399
0.0030634
0.00303316
0.00300327
0.00297373
0.00294453
0.00291566
0.00288714
0.00285894
0.00283108
0.00280353
0.00277631
0.0027494
0.00272279
0.00269648
0.00267047
0.00264473
0.00261927
0.00259405
0.00256906
0.00254428
0.00251967
0.00249519
0.00247079
0.0024464
0.00242195
0.00239732
0.00237252
0.00234701
0.0023142
1.54346e-06
0.000102167
0.000232071
0.000359053
0.000487719
0.000618989
0.000755522
0.000899237
0.00105186
0.00121393
0.00138595
0.00155193
0.00170372
0.00184404
0.00197566
0.00210054
0.00222004
0.00233509
0.00244636
0.00255435
0.00265942
0.0027619
0.00286204
0.00296005
0.00305634
0.00315119
0.00324486
0.00333753
0.00342933
0.00352038
0.00361075
0.00370047
0.00378957
0.00387804
0.00396583
0.00405291
0.0041392
0.00422462
0.00430909
0.0043925
0.00447475
0.00455572
0.00463531
0.0047134
0.00478987
0.00486461
0.00493752
0.00500849
0.00507742
0.00514421
0.00520877
0.00527101
0.00533087
0.00538826
0.00544313
0.00549542
0.00554507
0.00559206
0.00563633
0.00567788
0.00571666
0.00575268
0.00578592
0.00581638
0.00584407
0.00586901
0.0058912
0.00591068
0.00592747
0.00594161
0.00595312
0.00596206
0.00596847
0.00597239
0.00597388
0.00597301
0.00596984
0.00596441
0.00595679
0.00594704
0.00593523
0.00592143
0.00590571
0.00588813
0.00586878
0.00584772
0.00582503
0.00580077
0.00577502
0.00574785
0.00571933
0.00568953
0.00565851
0.00562635
0.00559311
0.00555886
0.00552367
0.00548759
0.0054507
0.00541305
0.00537471
0.00533573
0.00529617
0.00525609
0.00521554
0.00517456
0.00513321
0.00509154
0.00504959
0.0050074
0.00496503
0.0049225
0.00487986
0.00483714
0.00479438
0.00475161
0.00470886
0.00466617
0.00462355
0.00458105
0.00453867
0.00449644
0.00445439
0.00441254
0.0043709
0.00432948
0.00428832
0.00424741
0.00420678
0.00416644
0.00412639
0.00408665
0.00404722