/*--------------------------------*- C++ -*----------------------------------*\
| =========                 |                                                 |
| \\      /  F ield         | OpenFOAM: The Open Source CFD Toolbox           |
|  \\    /   O peration     | Version:  v2012                                 |
|   \\  /    A nd           | Website:  www.openfoam.com                      |
|    \\/     M anipulation  |                                                 |
\*---------------------------------------------------------------------------*/
FoamFile
{
    version     2.0;
    format      ascii;
    class       volScalarField;
    location    "2000";
    object      nut;
}
// * * * * * * * * * * * * * * * * * * * * * * * * * * * * * * * * * * * * * //

dimensions      [0 2 -1 0 0 0 0];


internalField   nonuniform List<scalar> 
12225
(
0.0122671
0.00158819
0.000666128
0.000410104
0.00029404
0.000227808
0.000186418
0.000144347
0.00016635
0.000215695
0.000223832
0.000214193
0.000195168
0.000167531
0.000161398
0.000145525
0.000132316
0.000120123
0.0323823
0.00744532
0.00330638
0.00204329
0.00146802
0.00114429
0.00093866
0.000784866
0.000690377
0.000626887
0.000569545
0.000518712
0.000475212
0.000435566
0.000404974
0.000372249
0.000347117
0.000321093
0.0490123
0.01515
0.00728196
0.00457854
0.00330639
0.00258047
0.00211327
0.00178187
0.00154674
0.00137249
0.00123146
0.00111528
0.00101835
0.0009361
0.000866691
0.000804291
0.000753563
0.000700996
0.063054
0.0237783
0.0122894
0.00788814
0.00573397
0.00448496
0.0036744
0.00310418
0.00268715
0.00236995
0.0021179
0.00191315
0.001744
0.00160221
0.00148242
0.0013786
0.00129107
0.00120452
0.074932
0.0328517
0.0181452
0.0119262
0.00874549
0.00686412
0.00563086
0.00476129
0.00411867
0.0036257
0.00323514
0.00291874
0.00265799
0.00244004
0.00225596
0.00209832
0.00196334
0.0018398
0.0849536
0.0420208
0.0246655
0.0166359
0.0123325
0.00972587
0.0079954
0.0067674
0.00585402
0.00515003
0.00459189
0.00413982
0.00376742
0.00345634
0.00319351
0.00296906
0.00277612
0.00260656
0.0933822
0.0510219
0.0316642
0.0219415
0.016474
0.0130717
0.0107779
0.00913539
0.00790597
0.00695435
0.00619832
0.00558531
0.00508009
0.00465801
0.00430136
0.00399702
0.00373534
0.00350913
0.0993794
0.0583363
0.0378386
0.0268568
0.0204171
0.0163053
0.0134892
0.011453
0.00991905
0.0087267
0.00777696
0.00700569
0.00636943
0.00583762
0.00538816
0.00500468
0.00467515
0.00439182
0.104023
0.0645454
0.0433804
0.0314239
0.0241571
0.0194092
0.0161097
0.0137018
0.0118767
0.0104523
0.00931473
0.00838939
0.00762524
0.00698615
0.00644586
0.00598491
0.00558899
0.00524916
0.108368
0.0708939
0.0493757
0.0365496
0.0284517
0.0230231
0.0191863
0.0163548
0.0141927
0.0124969
0.0111382
0.0100305
0.00911456
0.00834784
0.00769936
0.00714607
0.00667097
0.00626328
0.112368
0.0772557
0.0557282
0.0421918
0.0332976
0.0271652
0.0227468
0.0194433
0.0168984
0.0148904
0.013275
0.0119546
0.0108606
0.00994396
0.00916816
0.00850607
0.00793759
0.0074494
0.115994
0.0834975
0.0623053
0.0482611
0.0386474
0.0318167
0.026789
0.0229739
0.0200047
0.0176452
0.0157379
0.0141737
0.012875
0.0117851
0.010862
0.0100738
0.0093969
0.00881485
0.119234
0.0894856
0.0689377
0.0546109
0.0443919
0.0369007
0.0312597
0.0269089
0.0234837
0.02074
0.0185097
0.0166735
0.015145
0.0138601
0.0127705
0.0118397
0.0110398
0.010351
0.122086
0.095084
0.075415
0.0610223
0.0503361
0.0422535
0.0360231
0.0311353
0.0272402
0.0240931
0.0215191
0.0193909
0.0176141
0.0161175
0.0148467
0.0137601
0.0128258
0.0120197
0.124546
0.100135
0.0814619
0.0671726
0.056158
0.047577
0.0408126
0.0354174
0.031066
0.0275197
0.0246013
0.0221778
0.0201482
0.018435
0.0169783
0.0157315
0.0146584
0.0137312
0.126578
0.104396
0.0866605
0.0725515
0.0613228
0.0523526
0.0451453
0.0393148
0.0345631
0.0306611
0.0274325
0.024741
0.0224806
0.020569
0.0189413
0.0175468
0.0163455
0.0153062
0.128011
0.107322
0.0902141
0.0762353
0.0648743
0.0556509
0.0481493
0.0420254
0.0370012
0.0328553
0.0294126
0.0265352
0.0241143
0.0220643
0.0203171
0.0188191
0.0175275
0.0164083
0.128006
0.107313
0.0902048
0.0762269
0.0648674
0.0556454
0.048145
0.0420221
0.0369988
0.0328537
0.0294117
0.0265349
0.0241147
0.0220651
0.0203184
0.0188205
0.0175286
0.0164082
0.126509
0.104255
0.0864922
0.0723807
0.0611613
0.052205
0.0450128
0.0391967
0.0344584
0.0305685
0.0273506
0.0246684
0.0224163
0.0205118
0.0188902
0.0175006
0.0163023
0.015263
0.124267
0.0995604
0.0807712
0.0664676
0.0554886
0.0469631
0.0402594
0.0349227
0.0306248
0.0271258
0.0242487
0.0218611
0.0198625
0.0181762
0.0167425
0.0155151
0.0144574
0.0135404
0.12136
0.0936399
0.0737261
0.0593348
0.0487592
0.0408248
0.0347467
0.0300003
0.0262308
0.0231928
0.0207127
0.018665
0.0169572
0.0155197
0.0142998
0.0132566
0.0123582
0.0115797
0.117686
0.0865903
0.0656967
0.0514791
0.0415374
0.0343608
0.0290183
0.0249322
0.0217348
0.0191848
0.0171184
0.0154211
0.0140105
0.0128262
0.0118228
0.0109656
0.0102279
0.00958885
0.11305
0.0784122
0.056921
0.0432687
0.0342296
0.0279652
0.0234365
0.0200435
0.0174263
0.0153598
0.0136966
0.012337
0.0112107
0.0102671
0.00946865
0.00878716
0.00820096
0.00769339
0.107169
0.0691009
0.0476371
0.035029
0.0271566
0.021922
0.0182437
0.0155401
0.0134818
0.0118707
0.0105819
0.0095323
0.00866515
0.00793988
0.00732684
0.00680388
0.00635417
0.00596493
0.0996761
0.0587036
0.0381279
0.0270699
0.0205782
0.0164329
0.0135949
0.0115437
0.00999934
0.00879952
0.00784421
0.00706852
0.0064288
0.00589439
0.0054429
0.0050579
0.0047268
0.00444034
0.0901097
0.0473665
0.0287363
0.0196847
0.0146976
0.0116311
0.00957849
0.0081152
0.0070235
0.0061808
0.00551234
0.00497024
0.00452343
0.00415041
0.00383506
0.00356628
0.00333499
0.00313486
0.0779076
0.0353826
0.0198606
0.0131383
0.00966105
0.00759295
0.00623349
0.0052741
0.00456424
0.00402037
0.00359041
0.00324082
0.00295206
0.00271104
0.00250625
0.00233216
0.00218198
0.00205165
0.06238
0.0232554
0.0119461
0.00765493
0.00556336
0.00435253
0.0035672
0.00301615
0.00261331
0.00231034
0.00207202
0.00187473
0.00171012
0.0015729
0.00145357
0.00135331
0.00126581
0.00118872
0.0426105
0.0117794
0.0054693
0.00341385
0.0024607
0.00192004
0.00157265
0.00132942
0.00115829
0.00104122
0.000949567
0.000864975
0.00079212
0.00073005
0.000671799
0.000622733
0.000577935
0.000542185
0.0168348
0.00255985
0.00110002
0.000683429
0.000493725
0.000386811
0.000318008
0.000268389
0.000267497
0.000336014
0.000374797
0.000353565
0.000321946
0.000284644
0.000265382
0.000239292
0.000195386
0.000237625
5.28808e-10
1.01544e-07
1.14777e-06
5.16845e-06
9.86129e-06
1.28031e-05
1.31247e-05
1.11695e-05
8.84776e-06
5.76814e-06
3.39685e-06
1.93909e-06
1.35822e-06
1.4726e-06
2.01008e-06
2.47903e-06
2.4115e-06
1.63443e-06
7.31339e-07
3.7078e-07
4.11477e-07
1.22064e-06
5.52059e-06
2.83949e-05
5.71809e-05
7.50037e-05
9.1392e-05
0.000105187
0.000117326
0.00012744
0.000136298
0.000143911
0.000150572
0.000156374
0.000161436
0.000165905
0.000169867
0.000173406
0.000176579
0.00017943
0.000181988
0.000184275
0.00018631
0.000188108
0.000189685
0.000191052
0.000192221
0.000193196
0.000193977
0.000194561
0.000194823
0.000195072
0.00019512
0.000194992
0.000194693
0.000194245
0.000193645
0.000192897
0.000192003
0.000190963
0.000189781
0.000188458
0.000186997
0.000185401
0.000183671
0.00018181
0.000179819
0.0001777
0.000175457
0.00017309
0.000170603
0.000167997
0.000165274
0.000162435
0.000159481
0.000156413
0.000153231
0.000149935
0.000146524
0.000142998
0.000139353
0.000135589
0.000131701
0.000127685
0.000123535
0.000119238
0.000114783
0.00011015
0.000105319
0.000100265
9.49603e-05
8.9379e-05
8.35163e-05
7.74416e-05
7.14358e-05
6.61746e-05
6.2446e-05
6.01222e-05
5.83748e-05
5.67699e-05
5.51939e-05
5.36256e-05
5.20635e-05
5.05093e-05
4.89647e-05
4.7432e-05
4.59136e-05
4.4416e-05
4.29677e-05
4.17351e-05
4.05308e-05
3.93413e-05
3.8169e-05
3.70146e-05
3.5879e-05
3.4763e-05
3.36674e-05
3.25928e-05
3.154e-05
3.05093e-05
2.9501e-05
2.85158e-05
2.75541e-05
2.66165e-05
2.57029e-05
2.48133e-05
2.39488e-05
2.31396e-05
2.24056e-05
2.16902e-05
2.09896e-05
2.03126e-05
1.96634e-05
1.90283e-05
1.84074e-05
1.78038e-05
1.72181e-05
1.66506e-05
1.61011e-05
1.55694e-05
1.50549e-05
1.45572e-05
1.40759e-05
1.36106e-05
1.31608e-05
1.27262e-05
1.23063e-05
1.19008e-05
1.15092e-05
1.11313e-05
1.07666e-05
1.04148e-05
1.00755e-05
9.74852e-06
9.43343e-06
9.12997e-06
8.83788e-06
8.55689e-06
8.2868e-06
8.02737e-06
7.77843e-06
7.53978e-06
7.31127e-06
7.09269e-06
6.88385e-06
6.68448e-06
6.49427e-06
6.31279e-06
6.13948e-06
5.97363e-06
5.81428e-06
5.66039e-06
5.50984e-06
5.36258e-06
5.20922e-06
5.06538e-06
4.86231e-06
4.72074e-06
4.30638e-06
3.68299e-06
3.34157e-09
6.03653e-06
6.15609e-05
0.000137847
0.000181886
0.000205999
0.000215523
0.000214024
0.000205549
0.000188721
0.000167811
0.000147702
0.000137581
0.000143053
0.000156895
0.000165306
0.000167413
0.000168284
0.000173765
0.000183534
0.000199762
0.000218063
0.000235163
0.000251138
0.000262453
0.000272238
0.000281084
0.000294264
0.000313156
0.00032706
0.000339734
0.00035062
0.000360522
0.000369577
0.000377451
0.000384643
0.000391343
0.000397774
0.000404065
0.000410281
0.000416417
0.000422428
0.000428264
0.000433882
0.000439256
0.000444368
0.000449204
0.000453751
0.000458009
0.000461987
0.000465692
0.000469146
0.000472338
0.000475279
0.000477969
0.000480409
0.000482601
0.000484545
0.000486242
0.000487692
0.000488895
0.000489853
0.000490568
0.000491044
0.000491291
0.000491315
0.00049111
0.000490672
0.000490019
0.000489152
0.000488079
0.000486805
0.000485339
0.000483685
0.000481852
0.000479847
0.000477676
0.000475348
0.00047287
0.00047025
0.000467495
0.000464615
0.000461618
0.000458511
0.000455303
0.000452002
0.000448616
0.000445152
0.000441617
0.000438021
0.000434369
0.000430666
0.000426913
0.000423102
0.000419214
0.000415222
0.000411111
0.00040691
0.000402668
0.000398412
0.000394147
0.000389878
0.000385608
0.00038134
0.000377079
0.000372827
0.000368588
0.000364363
0.000360152
0.000355954
0.000351779
0.000347631
0.000343512
0.000339425
0.000335371
0.000331351
0.000327367
0.000323421
0.000319514
0.000315647
0.000311821
0.000308036
0.000304295
0.000300597
0.000296945
0.000293337
0.000289774
0.000286253
0.000282775
0.000279341
0.00027595
0.000272611
0.000269325
0.000266074
0.00026286
0.000259688
0.00025656
0.000253476
0.000250438
0.000247445
0.000244495
0.00024159
0.000238727
0.000235907
0.000233129
0.000230392
0.000227695
0.000225039
0.000222422
0.000219845
0.000217307
0.000214808
0.000212347
0.000209926
0.000207543
0.000205198
0.000202894
0.000200629
0.000198405
0.000196223
0.000194083
0.000191989
0.000189941
0.000187941
0.000185992
0.000184093
0.000182247
0.000180454
0.000178712
0.000177022
0.000175377
0.000173777
0.000172202
0.000170683
0.000169087
0.000167737
0.000165696
0.000165094
0.000162
0.000160562
7.63203e-08
3.98432e-05
0.000162901
0.000245617
0.000298882
0.000329075
0.000339963
0.000336947
0.000323952
0.000304608
0.000284906
0.000272505
0.000270552
0.000277526
0.000288069
0.000299111
0.000312176
0.000329343
0.000350996
0.000376358
0.000403788
0.000432003
0.000471292
0.000517468
0.000563065
0.000607142
0.000650199
0.000693845
0.000732906
0.000763979
0.000788813
0.000808506
0.000824122
0.000836517
0.000846471
0.000854756
0.000862069
0.00086905
0.000876232
0.000883967
0.000892359
0.000901282
0.000910498
0.00091977
0.000928923
0.000937836
0.000946436
0.000954673
0.000962511
0.000969923
0.000976882
0.000983367
0.000989368
0.00099488
0.000999903
0.00100443
0.00100847
0.00101202
0.00101507
0.00101763
0.0010197
0.00102127
0.00102236
0.0010229
0.00102305
0.00102277
0.00102197
0.00102073
0.00101904
0.00101692
0.00101438
0.00101143
0.00100809
0.00100438
0.00100029
0.000995861
0.000991093
0.000986003
0.000980607
0.00097492
0.000968958
0.000962735
0.000956267
0.00094957
0.000942658
0.000935546
0.000928249
0.00092078
0.000913154
0.000905383
0.00089748
0.000889456
0.000881319
0.00087308
0.000864744
0.000856323
0.000847829
0.000839277
0.000830685
0.000822065
0.000813428
0.000804782
0.000796137
0.000787499
0.000778876
0.000770275
0.000761702
0.000753162
0.000744663
0.000736209
0.000727805
0.000719458
0.000711172
0.00070295
0.000694797
0.000686716
0.00067871
0.000670781
0.000662934
0.000655168
0.000647488
0.000639894
0.000632388
0.000624973
0.00061765
0.000610419
0.00060328
0.000596234
0.000589282
0.000582423
0.00057566
0.000568991
0.000562415
0.000555927
0.000549526
0.000543214
0.000536992
0.000530863
0.000524824
0.000518877
0.000513021
0.000507253
0.000501574
0.000495982
0.000490475
0.000485053
0.000479715
0.000474459
0.000469285
0.000464191
0.000459176
0.000454239
0.000449379
0.000444594
0.000439885
0.000435249
0.000430685
0.000426193
0.00042177
0.000417417
0.00041313
0.000408909
0.000404752
0.000400656
0.000396619
0.000392638
0.000388708
0.000384825
0.000380981
0.000377167
0.000373373
0.000369584
0.000365773
0.00036193
0.000357957
0.000353948
0.000349413
0.000345161
0.000338586
0.000326888
6.16203e-07
8.21598e-05
0.000213018
0.000308836
0.000372268
0.000409348
0.000424634
0.00042485
0.000414753
0.000401426
0.000393591
0.000393022
0.000402619
0.000420113
0.000443105
0.00047109
0.000504652
0.000544063
0.000588486
0.000652299
0.000726403
0.000806361
0.000890233
0.000960494
0.00102266
0.00107855
0.00112876
0.00117348
0.00121256
0.00124628
0.0012754
0.00130064
0.00132268
0.00134217
0.00135967
0.00137566
0.00139057
0.00140473
0.00141838
0.00143173
0.0014449
0.00145795
0.00147091
0.00148376
0.00149645
0.00150891
0.00152103
0.00153273
0.00154392
0.00155451
0.00156446
0.00157373
0.0015823
0.00159016
0.00159729
0.0016037
0.00160937
0.0016143
0.0016185
0.00162196
0.00162468
0.00162666
0.00162781
0.00162825
0.00162812
0.0016272
0.00162558
0.00162325
0.00162025
0.00161659
0.00161229
0.00160737
0.00160185
0.00159574
0.00158908
0.00158189
0.00157418
0.00156598
0.00155731
0.0015482
0.00153867
0.00152874
0.00151843
0.00150777
0.00149679
0.00148549
0.00147392
0.00146208
0.00145
0.0014377
0.0014252
0.00141251
0.00139966
0.00138666
0.00137353
0.00136028
0.00134693
0.0013335
0.00132001
0.00130647
0.00129291
0.00127934
0.00126577
0.00125221
0.00123867
0.00122517
0.00121171
0.00119831
0.00118497
0.0011717
0.00115852
0.00114542
0.00113241
0.00111951
0.00110671
0.00109402
0.00108145
0.00106901
0.00105668
0.00104449
0.00103242
0.00102049
0.0010087
0.000997051
0.00098554
0.000974172
0.000962947
0.000951866
0.000940931
0.000930143
0.000919501
0.000909004
0.000898651
0.000888437
0.000878362
0.000868427
0.000858632
0.000848978
0.000839466
0.000830094
0.000820861
0.000811766
0.000802808
0.000793983
0.000785292
0.000776732
0.000768301
0.000759997
0.00075182
0.000743766
0.000735834
0.000728023
0.000720331
0.000712755
0.000705293
0.000697945
0.000690708
0.00068358
0.000676558
0.000669642
0.000662828
0.000656113
0.000649495
0.00064297
0.000636533
0.000630181
0.000623907
0.000617703
0.00061156
0.000605466
0.000599403
0.000593353
0.000587283
0.00058116
0.00057491
0.000568508
0.000561675
0.000554672
0.000546208
0.000529958
1.3996e-06
0.000101868
0.000234936
0.000354666
0.000433289
0.000480506
0.000503938
0.000512341
0.000513975
0.0005152
0.000522452
0.000539026
0.000565494
0.000600866
0.000644375
0.000696062
0.000756733
0.00084064
0.000936723
0.00103247
0.00112124
0.0012054
0.00128448
0.00135692
0.00142346
0.00148467
0.00154095
0.00159265
0.0016401
0.00168375
0.00172408
0.00176157
0.00179664
0.00182966
0.00186095
0.00189076
0.00191928
0.00194665
0.00197296
0.00199827
0.00202262
0.00204601
0.00206845
0.00208991
0.00211037
0.00212979
0.00214816
0.00216543
0.00218158
0.0021966
0.00221047
0.00222319
0.00223478
0.00224525
0.00225462
0.0022629
0.00227011
0.00227627
0.0022814
0.0022855
0.00228859
0.00229064
0.00229155
0.00229164
0.00229076
0.00228888
0.00228604
0.00228227
0.00227758
0.00227199
0.00226554
0.00225825
0.00225015
0.00224127
0.00223163
0.00222128
0.00221023
0.00219852
0.00218619
0.00217326
0.00215976
0.00214572
0.00213118
0.00211617
0.00210072
0.00208485
0.0020686
0.002052
0.00203508
0.00201786
0.00200038
0.00198265
0.0019647
0.00194657
0.00192826
0.0019098
0.00189122
0.00187254
0.00185378
0.00183497
0.00181613
0.00179727
0.00177841
0.00175957
0.00174077
0.00172202
0.00170334
0.00168473
0.00166621
0.00164779
0.00162948
0.00161129
0.00159323
0.00157531
0.00155754
0.00153993
0.00152247
0.00150518
0.00148806
0.00147112
0.00145436
0.00143779
0.0014214
0.0014052
0.0013892
0.00137339
0.00135778
0.00134236
0.00132715
0.00131213
0.00129732
0.0012827
0.00126828
0.00125405
0.00124002
0.00122618
0.00121253
0.00119907
0.0011858
0.00117273
0.00115984
0.00114715
0.00113463
0.00112231
0.00111016
0.00109819
0.00108639
0.00107477
0.00106333
0.00105205
0.00104093
0.00102998
0.00101919
0.00100856
0.000998078
0.000987754
0.00097758
0.000967552
0.00095767
0.000947928
0.000938325
0.000928856
0.000919518
0.000910306
0.000901215
0.000892238
0.000883368
0.000874597
0.000865912
0.000857299
0.000848738
0.000840206
0.000831668
0.000823081
0.000814375
0.000805489
0.000796219
0.000786602
0.000776431
0.000756655
2.3259e-06
0.000118228
0.000256264
0.000389879
0.000486694
0.000548396
0.000586147
0.000609637
0.000627573
0.000647213
0.000673756
0.000709793
0.000756025
0.000812719
0.000880423
0.000971347
0.00107676
0.00117841
0.0012775
0.00137277
0.00146324
0.00154902
0.00163005
0.0017063
0.00177808
0.00184574
0.0019096
0.00197002
0.00202731
0.00208182
0.00213386
0.00218371
0.00223163
0.00227782
0.00232244
0.00236561
0.00240742
0.00244793
0.00248716
0.00252513
0.00256182
0.00259721
0.00263129
0.00266401
0.00269534
0.00272524
0.00275366
0.00278056
0.00280591
0.00282967
0.00285183
0.00287234
0.00289121
0.00290841
0.00292394
0.00293781
0.00295001
0.00296055
0.00296944
0.0029767
0.00298236
0.00298644
0.00298886
0.00298976
0.00298929
0.00298732
0.00298398
0.00297927
0.00297327
0.00296601
0.00295756
0.00294796
0.00293728
0.00292554
0.00291282
0.00289915
0.00288459
0.00286917
0.00285294
0.00283594
0.00281823
0.00279983
0.00278079
0.00276116
0.00274097
0.00272025
0.00269906
0.00267743
0.0026554
0.002633
0.00261026
0.00258723
0.00256393
0.0025404
0.00251666
0.00249275
0.0024687
0.00244453
0.00242026
0.00239594
0.00237158
0.00234721
0.00232284
0.00229851
0.00227422
0.00225001
0.00222588
0.00220185
0.00217794
0.00215416
0.00213052
0.00210704
0.00208373
0.0020606
0.00203766
0.00201491
0.00199237
0.00197005
0.00194794
0.00192606
0.00190441
0.001883
0.00186183
0.00184089
0.00182021
0.00179977
0.00177958
0.00175965
0.00173996
0.00172053
0.00170136
0.00168243
0.00166375
0.00164533
0.00162714
0.00160921
0.00159151
0.00157406
0.00155686
0.00153989
0.00152317
0.00150668
0.00149042
0.0014744
0.0014586
0.00144303
0.00142768
0.00141255
0.00139764
0.00138294
0.00136844
0.00135415
0.00134007
0.00132618
0.00131249
0.00129899
0.00128568
0.00127255
0.00125961
0.00124684
0.00123424
0.00122182
0.00120956
0.00119746
0.00118551
0.00117371
0.00116205
0.00115052
0.0011391
0.00112778
0.00111653
0.00110534
0.00109417
0.00108296
0.00107165
0.00106018
0.00104835
0.00103619
0.0010239
0.00100146
2.79452e-06
0.000126788
0.000269172
0.000407476
0.000526057
0.000607453
0.000663628
0.000705737
0.000743028
0.000782741
0.000829894
0.000887391
0.000956956
0.00104972
0.001157
0.00126364
0.00136971
0.00147296
0.00157288
0.00166905
0.00176126
0.00184951
0.0019339
0.00201459
0.00209183
0.00216588
0.00223703
0.00230555
0.00237168
0.00243567
0.00249771
0.00255799
0.00261666
0.00267383
0.00272959
0.00278399
0.00283707
0.00288883
0.00293928
0.00298839
0.00303613
0.00308247
0.00312736
0.00317075
0.00321259
0.00325283
0.00329142
0.00332829
0.0033634
0.00339672
0.00342818
0.00345775
0.0034854
0.0035111
0.00353482
0.00355654
0.00357625
0.00359393
0.00360958
0.00362321
0.0036348
0.00364439
0.00365196
0.00365758
0.00366123
0.00366285
0.00366276
0.00366077
0.003657
0.00365148
0.00364427
0.00363543
0.00362501
0.00361307
0.00359969
0.00358492
0.00356883
0.00355148
0.00353295
0.0035133
0.00349259
0.0034709
0.0034483
0.00342483
0.00340058
0.0033756
0.00334995
0.0033237
0.00329689
0.00326958
0.00324183
0.00321367
0.00318516
0.00315635
0.00312726
0.00309795
0.00306845
0.0030388
0.00300904
0.00297919
0.00294929
0.00291937
0.00288945
0.00285957
0.00282975
0.00280001
0.00277037
0.00274085
0.00271148
0.00268226
0.00265322
0.00262437
0.00259572
0.00256729
0.00253908
0.00251112
0.0024834
0.00245595
0.00242876
0.00240184
0.0023752
0.00234884
0.00232277
0.002297
0.00227152
0.00224635
0.00222147
0.0021969
0.00217263
0.00214866
0.002125
0.00210164
0.00207859
0.00205583
0.00203337
0.00201121
0.00198934
0.00196777
0.00194648
0.00192549
0.00190479
0.00188436
0.00186422
0.00184436
0.00182477
0.00180545
0.0017864
0.00176761
0.00174908
0.0017308
0.00171278
0.001695
0.00167746
0.00166017
0.0016431
0.00162627
0.00160967
0.00159329
0.00157712
0.00156117
0.00154544
0.0015299
0.00151457
0.00149942
0.00148447
0.00146969
0.00145509
0.00144064
0.00142634
0.00141217
0.0013981
0.00138412
0.00137017
0.00135622
0.00134219
0.00132802
0.00131354
0.0012988
0.00128374
0.00125951
2.93957e-06
0.000128668
0.000270497
0.000406985
0.000537587
0.000641165
0.00071847
0.000780064
0.000836128
0.000894376
0.000962818
0.00105544
0.00116561
0.00128714
0.00140265
0.00151385
0.00162158
0.00172604
0.00182715
0.00192486
0.0020192
0.00211025
0.00219816
0.00228311
0.00236534
0.00244505
0.00252248
0.00259783
0.0026713
0.00274306
0.00281324
0.00288197
0.00294934
0.00301541
0.00308022
0.00314379
0.00320612
0.0032672
0.00332699
0.00338545
0.00344255
0.00349821
0.0035524
0.00360503
0.00365604
0.00370538
0.00375297
0.00379875
0.00384266
0.00388464
0.00392464
0.0039626
0.00399848
0.00403223
0.00406382
0.00409322
0.00412039
0.00414532
0.00416799
0.00418839
0.00420652
0.00422237
0.00423595
0.00424727
0.00425636
0.00426323
0.00426795
0.00427041
0.00427084
0.00426919
0.00426552
0.00425988
0.00425231
0.00424288
0.00423165
0.00421867
0.00420402
0.00418777
0.00416997
0.0041507
0.00413003
0.00410804
0.00408479
0.00406036
0.00403482
0.00400824
0.0039807
0.00395225
0.00392298
0.00389295
0.00386222
0.00383086
0.00379893
0.00376648
0.00373358
0.00370029
0.00366664
0.00363271
0.00359853
0.00356416
0.00352963
0.003495
0.00346029
0.00342556
0.00339083
0.00335613
0.0033215
0.00328697
0.00325256
0.00321829
0.00318419
0.00315028
0.00311658
0.00308311
0.00304987
0.0030169
0.00298419
0.00295177
0.00291964
0.00288781
0.0028563
0.0028251
0.00279422
0.00276368
0.00273348
0.00270361
0.00267409
0.00264491
0.00261607
0.00258759
0.00255945
0.00253167
0.00250423
0.00247713
0.00245038
0.00242396
0.00239789
0.00237216
0.00234676
0.0023217
0.00229697
0.00227256
0.00224848
0.00222473
0.00220128
0.00217816
0.00215534
0.00213282
0.00211061
0.00208869
0.00206706
0.00204572
0.00202466
0.00200388
0.00198338
0.00196314
0.00194317
0.00192346
0.001904
0.00188479
0.00186583
0.00184711
0.00182863
0.00181037
0.00179234
0.00177452
0.0017569
0.00173947
0.00172222
0.00170513
0.00168817
0.00167132
0.00165454
0.00163777
0.00162096
0.00160403
0.00158682
0.00156943
0.00155148
0.00152534
2.75538e-06
0.000125161
0.000263803
0.000395337
0.000519871
0.000632149
0.000726088
0.00080758
0.000891511
0.000987446
0.00109727
0.0012224
0.00135888
0.0014863
0.00160651
0.00172143
0.00183204
0.0019387
0.00204172
0.00214146
0.00223816
0.002332
0.00242318
0.00251193
0.00259843
0.0026829
0.00276553
0.00284649
0.00292593
0.00300398
0.00308074
0.00315631
0.00323072
0.00330402
0.00337622
0.00344731
0.00351726
0.00358605
0.00365362
0.00371992
0.00378487
0.00384842
0.00391048
0.00397098
0.00402984
0.00408699
0.00414234
0.00419581
0.00424735
0.00429688
0.00434432
0.00438963
0.00443274
0.00447361
0.00451219
0.00454843
0.0045823
0.00461378
0.00464284
0.00466947
0.00469365
0.00471537
0.00473465
0.00475148
0.00476588
0.00477787
0.00478747
0.00479471
0.00479964
0.00480221
0.00480259
0.00480078
0.00479681
0.00479075
0.00478265
0.00477256
0.00476056
0.00474671
0.00473107
0.00471371
0.0046947
0.00467411
0.00465202
0.00462849
0.00460361
0.00457743
0.00455005
0.00452152
0.00449192
0.00446133
0.00442981
0.00439742
0.00436424
0.00433034
0.00429577
0.0042606
0.0042249
0.00418871
0.0041521
0.00411513
0.00407785
0.00404031
0.00400255
0.00396464
0.0039266
0.00388848
0.00385033
0.00381217
0.00377404
0.00373598
0.00369802
0.00366018
0.00362249
0.00358499
0.00354768
0.00351059
0.00347374
0.00343715
0.00340083
0.0033648
0.00332907
0.00329366
0.00325857
0.00322381
0.0031894
0.00315533
0.00312162
0.00308827
0.00305528
0.00302266
0.00299041
0.00295853
0.00292702
0.00289589
0.00286512
0.00283473
0.0028047
0.00277505
0.00274576
0.00271684
0.00268828
0.00266008
0.00263224
0.00260475
0.00257762
0.00255083
0.00252439
0.00249828
0.00247251
0.00244707
0.00242196
0.00239716
0.00237269
0.00234852
0.00232467
0.00230112
0.00227786
0.0022549
0.00223223
0.00220985
0.00218774
0.00216591
0.00214435
0.00212304
0.00210199
0.00208119
0.00206062
0.00204027
0.00202013
0.00200017
0.00198038
0.00196071
0.00194114
0.00192161
0.00190206
0.0018824
0.00186251
0.00184245
0.00182169
0.00179336
2.33912e-06
0.000117869
0.000252635
0.000380649
0.000503527
0.000620032
0.000731026
0.000840514
0.000955922
0.00108229
0.00122079
0.00137085
0.00151305
0.00164493
0.00176909
0.00188742
0.00200104
0.00211058
0.00221643
0.00231881
0.0024181
0.00251469
0.00260888
0.00270094
0.00279108
0.00287951
0.00296641
0.00305194
0.00313624
0.00321941
0.00330153
0.00338267
0.00346285
0.00354209
0.00362039
0.00369771
0.00377402
0.00384926
0.00392337
0.00399627
0.00406789
0.00413813
0.00420692
0.00427415
0.00433974
0.0044036
0.00446564
0.00452577
0.00458391
0.00463998
0.0046939
0.00474561
0.00479504
0.00484214
0.00488684
0.0049291
0.00496888
0.00500616
0.00504089
0.00507306
0.00510265
0.00512966
0.00515408
0.00517591
0.00519518
0.00521188
0.00522604
0.0052377
0.00524687
0.00525359
0.00525791
0.00525985
0.00525951
0.0052569
0.00525208
0.00524511
0.00523606
0.00522498
0.00521194
0.005197
0.00518024
0.00516172
0.00514152
0.0051197
0.00509634
0.00507151
0.00504529
0.00501775
0.00498895
0.00495897
0.00492789
0.00489577
0.00486268
0.00482868
0.00479385
0.00475825
0.00472194
0.00468499
0.00464746
0.00460941
0.00457089
0.00453197
0.00449269
0.00445311
0.00441328
0.00437324
0.00433303
0.00429271
0.00425231
0.00421187
0.00417143
0.00413102
0.00409068
0.00405043
0.0040103
0.00397032
0.00393052
0.00389091
0.00385152
0.00381237
0.00377348
0.00373486
0.00369653
0.0036585
0.00362078
0.00358339
0.00354633
0.00350962
0.00347326
0.00343725
0.00340161
0.00336633
0.00333142
0.00329689
0.00326273
0.00322895
0.00319554
0.00316252
0.00312987
0.00309759
0.0030657
0.00303418
0.00300303
0.00297225
0.00294185
0.00291181
0.00288213
0.00285281
0.00282385
0.00279524
0.00276698
0.00273906
0.00271148
0.00268425
0.00265734
0.00263076
0.0026045
0.00257857
0.00255295
0.00252764
0.00250263
0.00247793
0.00245352
0.0024294
0.00240555
0.00238198
0.00235867
0.00233561
0.00231277
0.00229015
0.00226771
0.00224543
0.00222326
0.00220115
0.00217903
0.00215683
0.00213442
0.00211184
0.00208854
0.00205787
1.92447e-06
0.000110212
0.000242405
0.0003697
0.000495435
0.000619939
0.000745128
0.00087488
0.00101264
0.00116036
0.0013182
0.00147983
0.00162746
0.00176378
0.00189177
0.00201343
0.00213003
0.00224237
0.002351
0.00245631
0.0025586
0.00265806
0.00275513
0.00285017
0.00294347
0.00303526
0.00312574
0.00321506
0.00330338
0.00339077
0.00347732
0.00356308
0.00364805
0.00373225
0.00381565
0.00389821
0.00397988
0.00406058
0.00414025
0.00421878
0.00429609
0.00437208
0.00444664
0.00451967
0.00459108
0.00466075
0.00472859
0.00479451
0.0048584
0.00492018
0.00497976
0.00503708
0.00509205
0.00514461
0.00519471
0.00524229
0.0052873
0.00532971
0.00536948
0.00540659
0.00544103
0.00547278
0.00550183
0.00552819
0.00555186
0.00557286
0.00559121
0.00560693
0.00562006
0.00563061
0.00563864
0.00564418
0.00564729
0.00564802
0.00564641
0.00564253
0.00563644
0.0056282
0.00561786
0.00560549
0.00559117
0.00557496
0.00555692
0.00553714
0.00551569
0.00549263
0.00546804
0.00544199
0.00541456
0.00538581
0.00535581
0.00532464
0.00529237
0.00525906
0.00522477
0.00518958
0.00515355
0.00511675
0.00507924
0.00504107
0.00500232
0.00496303
0.00492326
0.00488307
0.00484251
0.00480163
0.00476047
0.00471909
0.00467752
0.00463581
0.004594
0.00455212
0.00451022
0.00446832
0.00442646
0.00438467
0.00434298
0.00430142
0.00426
0.00421876
0.00417771
0.00413688
0.00409628
0.00405593
0.00401586
0.00397606
0.00393656
0.00389736
0.00385848
0.00381993
0.00378172
0.00374384
0.00370632
0.00366915
0.00363234
0.00359589
0.0035598
0.00352409
0.00348874
0.00345377
0.00341916
0.00338493
0.00335108
0.00331759
0.00328447
0.00325173
0.00321935
0.00318734
0.00315569
0.0031244
0.00309346
0.00306289
0.00303266
0.00300278
0.00297325
0.00294406
0.0029152
0.00288669
0.0028585
0.00283064
0.0028031
0.00277587
0.00274896
0.00272236
0.00269605
0.00267004
0.0026443
0.00261883
0.00259361
0.00256862
0.00254384
0.00251923
0.00249474
0.00247034
0.00244595
0.00242149
0.00239687
0.00237206
0.00234655
0.00231373
1.53456e-06
0.000102067
0.00023195
0.000358927
0.000487635
0.00061902
0.000755739
0.000899712
0.00105261
0.00121494
0.00138722
0.00155301
0.00170462
0.0018448
0.00197629
0.00210107
0.00222047
0.00233543
0.00244661
0.00255449
0.00265948
0.00276186
0.00286192
0.00295984
0.00305604
0.00315082
0.00324442
0.00333701
0.00342875
0.00351973
0.00361004
0.00369972
0.00378877
0.00387719
0.00396494
0.00405198
0.00413823
0.00422362
0.00430806
0.00439144
0.00447367
0.00455462
0.00463418
0.00471225
0.00478871
0.00486344
0.00493633
0.00500729
0.00507621
0.00514299
0.00520754
0.00526978
0.00532963
0.00538702
0.00544188
0.00549416
0.00554382
0.0055908
0.00563507
0.00567661
0.0057154
0.00575141
0.00578465
0.00581511
0.00584281
0.00586774
0.00588994
0.00590942
0.00592621
0.00594034
0.00595186
0.0059608
0.0059672
0.00597113
0.00597262
0.00597175
0.00596858
0.00596315
0.00595553
0.00594578
0.00593397
0.00592017
0.00590445
0.00588688
0.00586753
0.00584647
0.00582378
0.00579952
0.00577378
0.00574661
0.00571809
0.00568829
0.00565728
0.00562512
0.00559189
0.00555765
0.00552246
0.00548639
0.0054495
0.00541186
0.00537352
0.00533455
0.005295
0.00525492
0.00521437
0.0051734
0.00513206
0.0050904
0.00504846
0.00500628
0.00496391
0.0049214
0.00487876
0.00483606
0.00479331