/*--------------------------------*- C++ -*----------------------------------*\
  =========                 |
  \\      /  F ield         | OpenFOAM: The Open Source CFD Toolbox
   \\    /   O peration     | Website:  https://openfoam.org
    \\  /    A nd           | Version:  8
     \\/     M anipulation  |
\*---------------------------------------------------------------------------*/
FoamFile
{
    version     2.0;
    format      ascii;
    class       volScalarField;
    location    "2000";
    object      nuTilda;
}
// * * * * * * * * * * * * * * * * * * * * * * * * * * * * * * * * * * * * * //

dimensions      [0 2 -1 0 0 0 0];

internalField   nonuniform List<scalar> 
12225
(
0.0122671
0.00158833
0.000666932
0.000412201
0.000298001
0.000234418
0.000192049
0.000186517
0.000141364
0.000110263
9.73199e-05
9.07189e-05
8.20027e-05
7.63417e-05
7.17067e-05
7.0172e-05
6.81326e-05
7.40044e-05
0.0323823
0.00744533
0.00330642
0.00204338
0.00146818
0.00114477
0.000936743
0.000800566
0.000680243
0.000578059
0.000507246
0.00045356
0.000411866
0.000380371
0.00035202
0.000329993
0.000313754
0.00029588
0.0490123
0.01515
0.00728196
0.00457856
0.00330642
0.00258059
0.00211241
0.00178924
0.00154196
0.00134781
0.00119795
0.00107898
0.000982389
0.000902873
0.000836437
0.000781445
0.000736159
0.000687884
0.063054
0.0237783
0.0122894
0.00788815
0.00573398
0.004485
0.00367415
0.00310736
0.00268476
0.00235811
0.00210119
0.00189468
0.00172542
0.00158464
0.0014663
0.00136623
0.00128167
0.00119814
0.074932
0.0328517
0.0181452
0.0119262
0.00874549
0.00686413
0.00563081
0.00476256
0.0041175
0.00362032
0.00322735
0.00290996
0.00264904
0.00243149
0.00224806
0.00209196
0.00195835
0.00183637
0.0849536
0.0420208
0.0246655
0.0166359
0.0123325
0.00972587
0.0079954
0.00676785
0.00585346
0.00514771
0.00458846
0.00413589
0.00376337
0.00345242
0.00318986
0.002966
0.00277365
0.00260477
0.0933822
0.0510219
0.0316642
0.0219415
0.016474
0.0130717
0.0107779
0.00913552
0.00790571
0.00695341
0.00619691
0.00558368
0.00507838
0.00465634
0.00429978
0.00399563
0.00373417
0.00350821
0.0993794
0.0583363
0.0378386
0.0268568
0.0204171
0.0163053
0.0134892
0.011453
0.00991891
0.00872629
0.00777635
0.00700498
0.00636867
0.00583686
0.00538741
0.00500399
0.00467453
0.00439128
0.104023
0.0645454
0.0433804
0.0314239
0.0241571
0.0194092
0.0161097
0.0137018
0.0118766
0.0104521
0.00931443
0.00838904
0.00762486
0.00698575
0.00644545
0.0059845
0.00558859
0.00524878
0.108368
0.0708939
0.0493756
0.0365496
0.0284517
0.0230231
0.0191863
0.0163547
0.0141926
0.0124968
0.011138
0.0100304
0.00911434
0.0083476
0.0076991
0.00714579
0.00667069
0.00626298
0.112368
0.0772557
0.0557282
0.0421918
0.0332976
0.0271652
0.0227467
0.0194432
0.0168984
0.0148903
0.0132749
0.0119544
0.0108605
0.00994379
0.00916797
0.00850586
0.00793736
0.00744915
0.115994
0.0834975
0.0623053
0.0482611
0.0386474
0.0318167
0.026789
0.0229739
0.0200046
0.0176452
0.0157378
0.0141736
0.0128749
0.011785
0.0108618
0.0100736
0.00939671
0.00881464
0.119234
0.0894856
0.0689377
0.0546109
0.0443919
0.0369007
0.0312597
0.0269088
0.0234836
0.02074
0.0185096
0.0166735
0.0151449
0.01386
0.0127704
0.0118396
0.0110397
0.0103508
0.122086
0.095084
0.075415
0.0610223
0.0503361
0.0422534
0.0360231
0.0311353
0.0272402
0.024093
0.021519
0.0193909
0.017614
0.0161174
0.0148466
0.01376
0.0128257
0.0120196
0.124546
0.100135
0.0814619
0.0671725
0.056158
0.047577
0.0408126
0.0354174
0.031066
0.0275196
0.0246012
0.0221777
0.0201481
0.0184349
0.0169782
0.0157314
0.0146583
0.0137311
0.126578
0.104396
0.0866605
0.0725515
0.0613228
0.0523526
0.0451453
0.0393148
0.0345631
0.0306611
0.0274325
0.0247409
0.0224806
0.020569
0.0189413
0.0175468
0.0163454
0.0153061
0.128011
0.107322
0.0902141
0.0762353
0.0648743
0.0556509
0.0481493
0.0420254
0.0370012
0.0328553
0.0294126
0.0265352
0.0241143
0.0220643
0.0203172
0.0188191
0.0175275
0.0164083
0.128006
0.107313
0.0902048
0.0762269
0.0648674
0.0556454
0.048145
0.0420222
0.0369988
0.0328537
0.0294117
0.0265349
0.0241147
0.0220652
0.0203185
0.0188206
0.0175287
0.0164083
0.126509
0.104255
0.0864922
0.0723807
0.0611613
0.052205
0.0450128
0.0391967
0.0344584
0.0305686
0.0273506
0.0246684
0.0224163
0.0205118
0.0188903
0.0175006
0.0163024
0.0152631
0.124267
0.0995604
0.0807712
0.0664676
0.0554886
0.0469631
0.0402594
0.0349228
0.0306248
0.0271258
0.0242488
0.0218611
0.0198626
0.0181762
0.0167426
0.0155152
0.0144575
0.0135405
0.12136
0.0936399
0.0737261
0.0593348
0.0487592
0.0408249
0.0347467
0.0300003
0.0262308
0.0231928
0.0207127
0.018665
0.0169572
0.0155198
0.0142999
0.0132567
0.0123583
0.0115798
0.117686
0.0865903
0.0656967
0.0514791
0.0415374
0.0343608
0.0290184
0.0249322
0.0217348
0.0191848
0.0171184
0.0154211
0.0140106
0.0128263
0.0118229
0.0109657
0.010228
0.00958895
0.11305
0.0784122
0.056921
0.0432687
0.0342296
0.0279652
0.0234365
0.0200435
0.0174263
0.0153597
0.0136966
0.0123369
0.0112106
0.0102671
0.00946866
0.0087872
0.00820102
0.00769347
0.107169
0.0691009
0.0476372
0.035029
0.0271566
0.021922
0.0182437
0.0155401
0.0134817
0.0118706
0.0105816
0.00953197
0.00866487
0.00793966
0.0073267
0.00680379
0.00635414
0.00596496
0.0996761
0.0587036
0.0381279
0.0270699
0.0205782
0.016433
0.0135949
0.0115438
0.00999923
0.00879908
0.00784341
0.00706756
0.00642791
0.00589358
0.00544231
0.00505736
0.00472645
0.0044401
0.0901097
0.0473665
0.0287363
0.0196847
0.0146976
0.0116312
0.00957853
0.00811528
0.00702332
0.00617995
0.00551058
0.00496795
0.00452115
0.00414815
0.00383332
0.00356448
0.0033337
0.00313371
0.0779076
0.0353826
0.0198606
0.0131383
0.00966107
0.00759298
0.00623353
0.00527431
0.00456401
0.00401885
0.00358699
0.00323614
0.00294721
0.00270597
0.00250239
0.00232754
0.00217877
0.00204825
0.06238
0.0232554
0.0119461
0.00765494
0.00556339
0.00435258
0.00356727
0.00301643
0.00261312
0.00230801
0.00206664
0.0018673
0.00170231
0.00156432
0.00144787
0.00134461
0.00126103
0.00118245
0.0426105
0.0117794
0.00546931
0.00341388
0.00246077
0.00192015
0.0015729
0.00132906
0.00115969
0.00103887
0.000944521
0.000858346
0.000785386
0.000722451
0.000668852
0.000613504
0.000582446
0.000537976
0.0168348
0.0025599
0.00110031
0.000684192
0.000495179
0.000389152
0.00032166
0.000270756
0.000280876
0.000338929
0.000384933
0.000372982
0.000345878
0.000310425
0.000291627
0.000232231
0.000304403
0.000265128
3.78127e-06
1.43224e-05
2.60296e-05
3.8538e-05
4.60113e-05
4.96623e-05
5.01551e-05
4.7813e-05
4.46226e-05
3.95539e-05
3.42194e-05
2.94483e-05
2.67709e-05
2.74485e-05
2.96323e-05
3.14819e-05
3.13389e-05
2.85148e-05
2.38725e-05
2.02114e-05
2.08243e-05
2.64239e-05
3.93428e-05
6.39058e-05
8.72012e-05
0.000100614
0.000113335
0.000124344
0.000134329
0.000142832
0.000150424
0.000157043
0.000162904
0.000168059
0.000172591
0.000176617
0.000180204
0.000183423
0.00018632
0.000188931
0.000191281
0.000193387
0.000195264
0.000196927
0.000198387
0.000199655
0.00020074
0.000201649
0.000202381
0.000202805
0.000203296
0.00020338
0.000203439
0.000203323
0.000203046
0.000202632
0.000202076
0.000201383
0.000200555
0.000199594
0.000198501
0.00019728
0.000195934
0.000194464
0.000192874
0.000191167
0.000189344
0.000187408
0.000185363
0.000183211
0.000180957
0.000178601
0.000176148
0.000173601
0.00017096
0.000168229
0.000165411
0.000162505
0.000159515
0.000156441
0.000153283
0.000150042
0.000146716
0.000143305
0.000139804
0.000136211
0.000132518
0.000128719
0.000124801
0.000120747
0.000116538
0.000112163
0.000107622
0.000102968
9.84027e-05
9.44202e-05
9.15962e-05
8.98393e-05
8.85249e-05
8.73201e-05
8.61367e-05
8.4958e-05
8.37821e-05
8.26097e-05
8.14417e-05
8.0279e-05
7.91231e-05
7.79781e-05
7.6865e-05
7.59103e-05
7.49764e-05
7.40484e-05
7.31285e-05
7.22169e-05
7.13139e-05
7.04198e-05
6.95351e-05
6.86601e-05
6.77951e-05
6.69402e-05
6.60956e-05
6.52615e-05
6.44384e-05
6.36266e-05
6.2826e-05
6.20366e-05
6.12594e-05
6.052e-05
5.98428e-05
5.91742e-05
5.85108e-05
5.78608e-05
5.72289e-05
5.66022e-05
5.59802e-05
5.53663e-05
5.47615e-05
5.41664e-05
5.35809e-05
5.30051e-05
5.24387e-05
5.18816e-05
5.13337e-05
5.07949e-05
5.0265e-05
4.97439e-05
4.92315e-05
4.87277e-05
4.82324e-05
4.77456e-05
4.72671e-05
4.6797e-05
4.63352e-05
4.58816e-05
4.54362e-05
4.49992e-05
4.45705e-05
4.41502e-05
4.37384e-05
4.33354e-05
4.29413e-05
4.25563e-05
4.21808e-05
4.18148e-05
4.14586e-05
4.11124e-05
4.07761e-05
4.04495e-05
4.01321e-05
3.98233e-05
3.9521e-05
3.92254e-05
3.89276e-05
3.8641e-05
3.83121e-05
3.80564e-05
3.75486e-05
3.73538e-05
3.6303e-05
3.49087e-05
5.89806e-06
4.05887e-05
9.24659e-05
0.000153707
0.000192551
0.000214555
0.000223346
0.000221919
0.000214075
0.000198517
0.000179501
0.000161548
0.00015248
0.000157006
0.00016932
0.000177335
0.000179532
0.000180675
0.00018563
0.000194339
0.000208076
0.00022451
0.000240375
0.000256185
0.000267065
0.000276644
0.000285194
0.00029769
0.000316339
0.000330003
0.000342516
0.000353261
0.000363041
0.000372012
0.00037981
0.000386933
0.000393569
0.000399939
0.000406172
0.000412331
0.000418414
0.000424376
0.000430165
0.000435741
0.000441076
0.000446151
0.000450954
0.00045547
0.000459701
0.000463646
0.000467345
0.000470763
0.000473939
0.000476862
0.000479536
0.000481962
0.000484141
0.000486075
0.000487762
0.000489204
0.000490401
0.000491354
0.000492066
0.000492539
0.000492786
0.000492811
0.000492608
0.000492174
0.000491525
0.000490664
0.000489598
0.000488334
0.000486877
0.000485235
0.000483415
0.000481423
0.000479268
0.000476957
0.000474497
0.000471896
0.000469162
0.000466303
0.000463327
0.000460243
0.000457057
0.000453779
0.000450417
0.000446979
0.000443473
0.000439906
0.000436285
0.000432614
0.000428896
0.00042512
0.000421269
0.000417317
0.000413249
0.000409091
0.000404894
0.000400682
0.000396465
0.000392244
0.000388024
0.000383808
0.0003796
0.000375403
0.00037122
0.000367053
0.000362902
0.000358765
0.000354653
0.00035057
0.000346519
0.0003425
0.000338515
0.000334567
0.000330657
0.000326787
0.000322957
0.000319169
0.000315424
0.000311722
0.000308065
0.000304455
0.000300891
0.000297373
0.000293902
0.000290476
0.000287094
0.000283758
0.000280468
0.000277231
0.000274049
0.000270905
0.000267799
0.000264737
0.00026172
0.000258751
0.000255829
0.000252953
0.000250123
0.000247339
0.000244599
0.000241904
0.000239252
0.000236644
0.000234078
0.000231554
0.000229072
0.00022663
0.00022423
0.00022187
0.000219551
0.000217272
0.000215033
0.000212834
0.000210676
0.000208559
0.000206484
0.000204452
0.000202463
0.00020052
0.000198623
0.000196775
0.000194976
0.000193228
0.000191532
0.000189887
0.000188293
0.000186749
0.000185249
0.000183795
0.000182358
0.000180995
0.000179511
0.000178388
0.000176292
0.000175969
0.00017299
0.000172127
1.28767e-05
7.40666e-05
0.000174305
0.000251873
0.000303654
0.000333361
0.000344211
0.000341393
0.000328796
0.000309926
0.000290645
0.000278293
0.000276103
0.000282578
0.000292642
0.000303195
0.000315664
0.00033228
0.000353513
0.000378313
0.000405387
0.000433476
0.000471396
0.000517511
0.00056296
0.00060696
0.000649939
0.00069351
0.000732773
0.00076401
0.000788981
0.000808779
0.000824474
0.000836927
0.00084692
0.000855227
0.000862548
0.000869527
0.0008767
0.000884423
0.000892803
0.000901718
0.000910927
0.000920195
0.000929345
0.000938256
0.000946853
0.000955087
0.000962923
0.000970333
0.000977293
0.000983774
0.000989774
0.000995285
0.00100031
0.00100484
0.00100887
0.00101242
0.00101547
0.00101803
0.0010201
0.00102168
0.00102276
0.0010233
0.00102346
0.00102318
0.00102238
0.00102114
0.00101946
0.00101734
0.0010148
0.00101186
0.00100853
0.00100481
0.00100074
0.000996308
0.000991545
0.000986461
0.000981072
0.000975391
0.000969436
0.00096322
0.000956759
0.000950069
0.000943164
0.000936059
0.000928769
0.000921308
0.00091369
0.000905928
0.000898033
0.000890018
0.000881891
0.000873661
0.000865336
0.000856925
0.000848441
0.0008399
0.000831318
0.000822709
0.000814084
0.00080545
0.000796816
0.000788191
0.00077958
0.000770992
0.000762431
0.000753905
0.00074542
0.000736979
0.00072859
0.000720258
0.000711987
0.000703781
0.000695643
0.000687578
0.000679589
0.000671677
0.000663847
0.0006561
0.000648438
0.000640863
0.000633377
0.000625982
0.000618679
0.000611468
0.00060435
0.000597326
0.000590396
0.000583561
0.00057682
0.000570176
0.000563625
0.000557162
0.000550786
0.0005445
0.000538305
0.000532202
0.000526191
0.000520271
0.000514442
0.000508703
0.000503053
0.00049749
0.000492013
0.000486622
0.000481315
0.000476091
0.000470948
0.000465887
0.000460905
0.000456002
0.000451176
0.000446427
0.000441753
0.000437153
0.000432626
0.000428171
0.000423786
0.000419471
0.000415224
0.000411044
0.000406928
0.000402874
0.00039888
0.000394943
0.000391058
0.000387221
0.000383424
0.00037966
0.000375915
0.000372177
0.00036842
0.000364628
0.000360725
0.000356747
0.000352328
0.000348026
0.000341567
0.000330415
2.17715e-05
0.000106434
0.000220239
0.000312834
0.000375512
0.000412495
0.000427923
0.00042831
0.000418391
0.000405122
0.000397054
0.000396227
0.000405353
0.000422394
0.000444953
0.000472505
0.000505657
0.000544775
0.000589059
0.000651108
0.00072481
0.000804474
0.000888637
0.000959235
0.00102162
0.00107771
0.0011281
0.00117298
0.00121223
0.0012461
0.00127533
0.00130066
0.00132277
0.00134231
0.00135984
0.00137586
0.00139078
0.00140494
0.0014186
0.00143195
0.00144511
0.00145816
0.00147112
0.00148397
0.00149666
0.00150912
0.00152125
0.00153295
0.00154414
0.00155473
0.00156469
0.00157396
0.00158253
0.00159039
0.00159753
0.00160393
0.00160961
0.00161454
0.00161874
0.00162221
0.00162493
0.00162691
0.00162806
0.0016285
0.00162837
0.00162746
0.00162584
0.00162352
0.00162052
0.00161686
0.00161257
0.00160765
0.00160213
0.00159603
0.00158937
0.00158218
0.00157447
0.00156628
0.00155762
0.00154851
0.00153898
0.00152906
0.00151875
0.0015081
0.00149712
0.00148583
0.00147426
0.00146243
0.00145035
0.00143806
0.00142556
0.00141288
0.00140003
0.00138704
0.00137391
0.00136066
0.00134732
0.00133389
0.0013204
0.00130687
0.00129332
0.00127975
0.00126618
0.00125263
0.00123909
0.0012256
0.00121215
0.00119875
0.00118541
0.00117215
0.00115897
0.00114587
0.00113287
0.00111997
0.00110718
0.0010945
0.00108193
0.00106949
0.00105717
0.00104498
0.00103292
0.001021
0.00100922
0.00099757
0.000986066
0.000974704
0.000963486
0.000952413
0.000941485
0.000930704
0.000920069
0.000909581
0.000899236
0.00088903
0.000878963
0.000869036
0.000859249
0.000849604
0.0008401
0.000830737
0.000821512
0.000812425
0.000803475
0.00079466
0.000785977
0.000777426
0.000769005
0.000760711
0.000752543
0.000744499
0.000736578
0.000728777
0.000721095
0.000713531
0.000706081
0.000698744
0.000691519
0.000684403
0.000677395
0.000670492
0.000663692
0.000656992
0.000650389
0.00064388
0.00063746
0.000631125
0.000624869
0.000618684
0.000612561
0.000606486
0.000600445
0.000594416
0.000588369
0.000582267
0.000576046
0.000569651
0.0005629
0.000555739
0.000547518
0.00053142
2.69711e-05
0.000122011
0.000241113
0.000357833
0.000435853
0.000483016
0.000506516
0.00051494
0.000516507
0.00051749
0.000524335
0.000540421
0.000566369
0.000601231
0.00064423
0.000695393
0.000755365
0.000838666
0.000934241
0.00103039
0.00111935
0.0012037
0.00128302
0.0013557
0.00142244
0.00148384
0.00154029
0.00159214
0.00163973
0.00168349
0.00172392
0.00176148
0.00179661
0.00182968
0.00186101
0.00189085
0.0019194
0.00194678
0.0019731
0.00199843
0.00202279
0.00204619
0.00206864
0.0020901
0.00211056
0.00213
0.00214836
0.00216564
0.0021818
0.00219682
0.00221069
0.00222341
0.00223501
0.00224548
0.00225485
0.00226313
0.00227035
0.00227651
0.00228164
0.00228574
0.00228884
0.00229089
0.0022918
0.00229189
0.00229101
0.00228914
0.00228631
0.00228253
0.00227785
0.00227227
0.00226582
0.00225853
0.00225044
0.00224156
0.00223193
0.00222158
0.00221053
0.00219883
0.0021865
0.00217357
0.00216008
0.00214605
0.00213151
0.0021165
0.00210105
0.00208519
0.00206895
0.00205235
0.00203543
0.00201822
0.00200074
0.00198301
0.00196507
0.00194694
0.00192863
0.00191018
0.0018916
0.00187292
0.00185417
0.00183536
0.00181651
0.00179766
0.0017788
0.00175997
0.00174117
0.00172242
0.00170373
0.00168513
0.00166661
0.00164819
0.00162988
0.00161169
0.00159364
0.00157572
0.00155795
0.00154033
0.00152288
0.00150559
0.00148847
0.00147153
0.00145477
0.0014382
0.00142181
0.00140562
0.00138961
0.00137381
0.0013582
0.00134279
0.00132757
0.00131256
0.00129774
0.00128313
0.00126871
0.00125449
0.00124045
0.00122661
0.00121296
0.00119951
0.00118624
0.00117317
0.00116029
0.00114759
0.00113508
0.00112275
0.0011106
0.00109864
0.00108684
0.00107522
0.00106378
0.0010525
0.00104139
0.00103044
0.00101965
0.00100902
0.000998542
0.000988221
0.00097805
0.000968026
0.000958148
0.000948411
0.000938813
0.000929351
0.000920019
0.000910814
0.000901731
0.000892762
0.000883902
0.000875141
0.000866466
0.000857864
0.000849315
0.000840795
0.000832269
0.000823693
0.000815001
0.000806122
0.000796891
0.000787161
0.000777205
0.000757419
3.07978e-05
0.000135318
0.000261502
0.000392463
0.000488736
0.000550341
0.000588059
0.000611447
0.000629153
0.000648425
0.000674504
0.000710041
0.000755775
0.000811987
0.000879084
0.000969506
0.00107457
0.00117624
0.00127542
0.0013709
0.00146157
0.00154755
0.00162878
0.00170523
0.00177718
0.00184499
0.001909
0.00196955
0.00202695
0.00208156
0.00213368
0.0021836
0.00223158
0.00227782
0.00232249
0.0023657
0.00240755
0.00244808
0.00248734
0.00252532
0.00256203
0.00259745
0.00263154
0.00266427
0.00269561
0.00272551
0.00275394
0.00278085
0.0028062
0.00282997
0.00285213
0.00287265
0.00289151
0.00290872
0.00292425
0.00293812
0.00295032
0.00296086
0.00296975
0.00297702
0.00298267
0.00298675
0.00298918
0.00299008
0.00298961
0.00298764
0.0029843
0.0029796
0.0029736
0.00296635
0.0029579
0.00294831
0.00293762
0.0029259
0.00291318
0.00289951
0.00288495
0.00286953
0.00285331
0.00283632
0.00281861
0.00280022
0.00278119
0.00276155
0.00274137
0.00272066
0.00269947
0.00267784
0.00265581
0.00263341
0.00261068
0.00258765
0.00256436
0.00254083
0.0025171
0.00249319
0.00246914
0.00244496
0.0024207
0.00239638
0.00237202
0.00234765
0.00232329
0.00229895
0.00227467
0.00225045
0.00222632
0.00220229
0.00217838
0.0021546
0.00213096
0.00210748
0.00208417
0.00206104
0.00203809
0.00201535
0.00199281
0.00197048
0.00194837
0.00192649
0.00190484
0.00188342
0.00186225
0.00184132
0.00182063
0.00180019
0.00178
0.00176007
0.00174038
0.00172095
0.00170177
0.00168285
0.00166417
0.00164574
0.00162755
0.00160962
0.00159192
0.00157447
0.00155726
0.00154029
0.00152356
0.00150707
0.00149081
0.00147478
0.00145899
0.00144341
0.00142806
0.00141293
0.00139801
0.0013833
0.00136881
0.00135451
0.00134043
0.00132654
0.00131284
0.00129934
0.00128603
0.0012729
0.00125996
0.00124719
0.0012346
0.00122218
0.00120992
0.00119782
0.00118588
0.00117409
0.00116243
0.0011509
0.00113949
0.00112817
0.00111694
0.00110576
0.00109459
0.00108339
0.00107209
0.00106062
0.00104881
0.0010366
0.00102443
0.00100196
3.23479e-05
0.0001425
0.000273966
0.000409847
0.000527784
0.000609002
0.000665053
0.00070697
0.00074396
0.000783269
0.000829949
0.000886948
0.000955892
0.00104816
0.0011551
0.00126166
0.00136774
0.00147108
0.00157113
0.00166748
0.00175986
0.00184829
0.00193284
0.00201369
0.00209108
0.00216527
0.00223654
0.00230517
0.0023714
0.00243547
0.00249759
0.00255795
0.00261668
0.0026739
0.00272971
0.00278415
0.00283727
0.00288907
0.00293954
0.00298868
0.00303645
0.00308281
0.00312772
0.00317112
0.00321298
0.00325323
0.00329182
0.0033287
0.00336383
0.00339714
0.00342861
0.00345819
0.00348584
0.00351154
0.00353527
0.00355699
0.0035767
0.00359438
0.00361003
0.00362366
0.00363525
0.00364484
0.00365241
0.00365803
0.00366168
0.0036633
0.00366322
0.00366123
0.00365745
0.00365194
0.00364473
0.00363589
0.00362547
0.00361354
0.00360016
0.00358539
0.0035693
0.00355196
0.00353343
0.00351378
0.00349308
0.00347139
0.00344879
0.00342533
0.00340108
0.0033761
0.00335046
0.00332421
0.0032974
0.0032701
0.00324234
0.00321419
0.00318568
0.00315687
0.00312779
0.00309848
0.00306898
0.00303933
0.00300956
0.00297972
0.00294982
0.0029199
0.00288998
0.0028601
0.00283028
0.00280054
0.00277089
0.00274138
0.002712
0.00268278
0.00265373
0.00262488
0.00259623
0.00256779
0.00253959
0.00251162
0.0024839
0.00245644
0.00242925
0.00240232
0.00237568
0.00234932
0.00232325
0.00229748
0.002272
0.00224682
0.00222194
0.00219736
0.00217309
0.00214912
0.00212546
0.0021021
0.00207904
0.00205628
0.00203382
0.00201165
0.00198978
0.0019682
0.00194691
0.00192591
0.0019052
0.00188477
0.00186462
0.00184475
0.00182516
0.00180583
0.00178677
0.00176798
0.00174944
0.00173116
0.00171313
0.00169534
0.0016778
0.0016605
0.00164343
0.0016266
0.00160999
0.0015936
0.00157744
0.00156149
0.00154575
0.00153021
0.00151488
0.00149974
0.00148479
0.00147001
0.00145541
0.00144097
0.00142668
0.00141251
0.00139845
0.00138447
0.00137053
0.00135658
0.00134256
0.00132839
0.00131392
0.00129917
0.00128416
0.00125992
3.27957e-05
0.000144125
0.000275311
0.000409431
0.000539336
0.000642644
0.000719733
0.000781083
0.000836813
0.000894607
0.000962152
0.00105405
0.00116363
0.00128532
0.00140087
0.00151211
0.00161993
0.00172449
0.00182573
0.00192359
0.00201808
0.00210928
0.00219733
0.00228242
0.00236477
0.0024446
0.00252213
0.00259759
0.00267115
0.00274298
0.00281324
0.00288204
0.00294947
0.0030156
0.00308045
0.00314407
0.00320644
0.00326755
0.00332738
0.00338587
0.00344299
0.00349868
0.00355288
0.00360553
0.00365656
0.00370591
0.00375352
0.00379931
0.00384323
0.00388522
0.00392522
0.00396319
0.00399907
0.00403283
0.00406442
0.00409382
0.004121
0.00414593
0.0041686
0.004189
0.00420713
0.00422298
0.00423656
0.00424789
0.00425698
0.00426384
0.00426857
0.00427102
0.00427145
0.00426981
0.00426614
0.0042605
0.00425293
0.0042435
0.00423227
0.0042193
0.00420465
0.00418839
0.0041706
0.00415133
0.00413067
0.00410867
0.00408543
0.004061
0.00403546
0.00400888
0.00398134
0.0039529
0.00392363
0.0038936
0.00386287
0.00383151
0.00379957
0.00376713
0.00373423
0.00370093
0.00366729
0.00363336
0.00359918
0.0035648
0.00353028
0.00349564
0.00346093
0.0034262
0.00339146
0.00335677
0.00332213
0.0032876
0.00325318
0.00321891
0.00318481
0.00315089
0.00311719
0.00308371
0.00305047
0.00301749
0.00298478
0.00295235
0.00292022
0.00288839
0.00285687
0.00282566
0.00279479
0.00276424
0.00273403
0.00270416
0.00267463
0.00264545
0.00261661
0.00258812
0.00255998
0.00253219
0.00250474
0.00247764
0.00245088
0.00242446
0.00239839
0.00237264
0.00234724
0.00232217
0.00229743
0.00227302
0.00224893
0.00222516
0.00220171
0.00217857
0.00215574
0.00213322
0.002111
0.00208907
0.00206743
0.00204608
0.00202502
0.00200423
0.00198372
0.00196348
0.0019435
0.00192378
0.00190432
0.00188511
0.00186615
0.00184743
0.00182895
0.00181069
0.00179266
0.00177484
0.00175722
0.0017398
0.00172256
0.00170547
0.00168852
0.00167167
0.00165489
0.00163813
0.00162133
0.0016044
0.0015872
0.0015698
0.00155187
0.00152573
3.22375e-05
0.000141196
0.000268903
0.000398015
0.000521851
0.000633962
0.000727736
0.000808815
0.000891783
0.00098705
0.00109623
0.00122087
0.00135724
0.00148473
0.00160501
0.00172002
0.00183072
0.00193748
0.00204062
0.00214049
0.00223731
0.00233128
0.00242259
0.00251145
0.00259807
0.00268264
0.00276537
0.00284641
0.00292593
0.00300406
0.0030809
0.00315652
0.003231
0.00330435
0.0033766
0.00344773
0.00351773
0.00358655
0.00365416
0.00372048
0.00378547
0.00384904
0.00391112
0.00397164
0.00403052
0.00408768
0.00414304
0.00419653
0.00424808
0.00429761
0.00434507
0.00439038
0.0044335
0.00447437
0.00451295
0.0045492
0.00458308
0.00461456
0.00464362
0.00467025
0.00469443
0.00471615
0.00473543
0.00475226
0.00476666
0.00477865
0.00478826
0.00479549
0.00480043
0.00480299
0.00480338
0.00480156
0.0047976
0.00479154
0.00478344
0.00477335
0.00476135
0.0047475
0.00473186
0.0047145
0.00469549
0.00467491
0.00465281
0.00462929
0.0046044
0.00457823
0.00455085
0.00452232
0.00449272
0.00446213
0.0044306
0.00439822
0.00436504
0.00433114
0.00429657
0.0042614
0.00422569
0.0041895
0.00415289
0.00411592
0.00407863
0.00404109
0.00400333
0.00396541
0.00392737
0.00388925
0.00385108
0.00381292
0.00377479
0.00373672
0.00369876
0.00366091
0.00362322
0.00358571
0.00354839
0.00351129
0.00347444
0.00343784
0.00340152
0.00336548
0.00332975
0.00329433
0.00325923
0.00322447
0.00319005
0.00315598
0.00312226
0.00308891
0.00305591
0.00302329
0.00299103
0.00295914
0.00292763
0.00289648
0.00286571
0.00283531
0.00280527
0.00277561
0.00274631
0.00271738
0.00268881
0.0026606
0.00263275
0.00260525
0.0025781
0.00255131
0.00252485
0.00249873
0.00247295
0.0024475
0.00242238
0.00239757
0.00237309
0.00234892
0.00232505
0.00230149
0.00227823
0.00225527
0.0022326
0.00221021
0.0021881
0.00216627
0.0021447
0.0021234
0.00210235
0.00208155
0.00206098
0.00204063
0.00202049
0.00200054
0.00198075
0.0019611
0.00194153
0.001922
0.00190245
0.0018828
0.00186291
0.00184285
0.00182211
0.00179378
3.08682e-05
0.00013511
0.00025811
0.000383392
0.000505343
0.000621406
0.000732042
0.000840996
0.000955815
0.00108163
0.00121969
0.00136943
0.00151171
0.00164367
0.00176792
0.00188634
0.00200005
0.0021097
0.00221565
0.00231813
0.00241754
0.00251424
0.00260854
0.0027007
0.00279093
0.00287946
0.00296645
0.00305206
0.00313643
0.00321967
0.00330186
0.00338306
0.0034633
0.00354259
0.00362094
0.0036983
0.00377465
0.00384993
0.00392407
0.003997
0.00406864
0.00413891
0.00420772
0.00427497
0.00434058
0.00440446
0.00446651
0.00452665
0.0045848
0.00464088
0.00469481
0.00474653
0.00479597
0.00484306
0.00488777
0.00493004
0.00496982
0.0050071
0.00504183
0.005074
0.0051036
0.00513061
0.00515503
0.00517687
0.00519613
0.00521283
0.005227
0.00523865
0.00524783
0.00525455
0.00525887
0.0052608
0.00526046
0.00525785
0.00525304
0.00524607
0.00523702
0.00522594
0.0052129
0.00519796
0.0051812
0.00516268
0.00514248
0.00512066
0.0050973
0.00507247
0.00504625
0.0050187
0.00498991
0.00495993
0.00492885
0.00489672
0.00486363
0.00482963
0.0047948
0.00475919
0.00472289
0.00468593
0.0046484
0.00461034
0.00457182
0.00453289
0.00449361
0.00445402
0.00441418
0.00437414
0.00433393
0.0042936
0.0042532
0.00421275
0.0041723
0.00413189
0.00409153
0.00405127
0.00401114
0.00397115
0.00393134
0.00389173
0.00385233
0.00381317
0.00377427
0.00373565
0.00369731
0.00365927
0.00362155
0.00358415
0.00354708
0.00351036
0.00347399
0.00343798
0.00340233
0.00336704
0.00333213
0.00329758
0.00326342
0.00322962
0.00319621
0.00316317
0.0031305
0.00309822
0.00306631
0.00303478
0.00300362
0.00297283
0.00294241
0.00291236
0.00288266
0.00285333
0.00282436
0.00279574
0.00276746
0.00273954
0.00271195
0.0026847
0.00265778
0.0026312
0.00260493
0.00257899
0.00255337
0.00252805
0.00250305
0.00247834
0.00245393
0.00242981
0.00240596
0.00238239
0.00235908
0.00233602
0.00231319
0.00229058
0.00226814
0.00224587
0.0022237
0.00220159
0.00217948
0.00215728
0.00213488
0.0021123
0.002089
0.00205834
2.93174e-05
0.000128791
0.000248238
0.000372469
0.000497092
0.000621007
0.000745652
0.000874971
0.00101222
0.00115947
0.00131685
0.00147861
0.00162639
0.00176283
0.00189092
0.00201267
0.00212936
0.0022418
0.00235053
0.00245593
0.00255832
0.00265788
0.00275504
0.00285018
0.00294356
0.00303543
0.00312599
0.0032154
0.00330378
0.00339124
0.00347785
0.00356366
0.00364869
0.00373294
0.00381638
0.00389898
0.00398069
0.00406142
0.00414112
0.00421968
0.00429702
0.00437303
0.00444761
0.00452066
0.00459209
0.00466178
0.00472963
0.00479555
0.00485945
0.00492124
0.00498084
0.00503816
0.00509314
0.00514571
0.00519581
0.00524339
0.0052884
0.00533081
0.00537059
0.00540771
0.00544214
0.00547389
0.00550294
0.0055293
0.00555298
0.00557398
0.00559233
0.00560805
0.00562117
0.00563173
0.00563976
0.0056453
0.00564841
0.00564913
0.00564753
0.00564365
0.00563756
0.00562931
0.00561898
0.00560661
0.00559229
0.00557607
0.00555804
0.00553826
0.0055168
0.00549374
0.00546915
0.0054431
0.00541567
0.00538692
0.00535692
0.00532575
0.00529347
0.00526015
0.00522587
0.00519067
0.00515464
0.00511783
0.00508032
0.00504215
0.00500339
0.00496409
0.00492432
0.00488413
0.00484356
0.00480267
0.00476151
0.00472011
0.00467854
0.00463682
0.004595
0.00455311
0.0045112
0.0044693
0.00442743
0.00438563
0.00434393
0.00430236
0.00426093
0.00421968
0.00417862
0.00413778
0.00409718
0.00405682
0.00401673
0.00397693
0.00393742
0.00389821
0.00385933
0.00382077
0.00378254
0.00374466
0.00370713
0.00366994
0.00363312
0.00359666
0.00356056
0.00352483
0.00348947
0.00345448
0.00341987
0.00338562
0.00335175
0.00331825
0.00328512
0.00325236
0.00321996
0.00318794
0.00315627
0.00312497
0.00309402
0.00306344
0.0030332
0.00300331
0.00297377
0.00294457
0.00291571
0.00288718
0.00285899
0.00283112
0.00280358
0.00277635
0.00274944
0.00272284
0.00269653
0.00267052
0.00264478
0.00261932
0.0025941
0.00256912
0.00254434
0.00251973
0.00249525
0.00247085
0.00244646
0.00242201
0.00239739
0.00237259
0.00234708
0.00231427
2.76233e-05
0.000122193
0.000238215
0.000361767
0.00048921
0.000619918
0.000756148
0.000899679
0.00105218
0.00121417
0.00138614
0.00155208
0.00170385
0.00184415
0.00197575
0.00210062
0.00222011
0.00233516
0.00244642
0.0025544
0.00265947
0.00276195
0.00286209
0.00296009
0.00305637
0.00315123
0.0032449
0.00333756
0.00342936
0.00352041
0.00361077
0.0037005
0.0037896
0.00387806
0.00396586
0.00405293
0.00413922
0.00422464
0.00430911
0.00439252
0.00447477
0.00455574
0.00463533
0.00471341
0.00478988
0.00486463
0.00493754
0.00500851
0.00507743
0.00514422
0.00520878
0.00527102
0.00533088
0.00538827
0.00544314
0.00549543
0.00554509
0.00559207
0.00563635
0.00567789
0.00571667
0.00575269
0.00578593
0.00581639
0.00584408
0.00586902
0.00589121
0.00591069
0.00592748
0.00594162
0.00595313
0.00596207
0.00596848
0.0059724
0.00597389
0.00597302
0.00596985
0.00596442
0.0059568
0.00594705
0.00593524
0.00592144
0.00590572
0.00588814
0.00586879
0.00584773
0.00582504
0.00580078
0.00577503
0.00574786
0.00571934
0.00568954
0.00565852
0.00562636
0.00559312
0.00555888
0.00552368
0.00548761
0.00545071
0.00541307
0.00537472
0.00533575
0.00529619
0.0052561
0.00521555
0.00517457
0.00513322
0.00509155
0.0050496
0.00500742
0.00496504
0.00492251
0.00487987
0.00483715
0.0047944
0.00475163
0.00470888
0.00466619
0.00462357
0.00458106
0.00453868
0.00449646
0.00445441
0.00441256
0.00437091
0.0043295
0.00428834
0.00424743
0.0042068
0.00416646
0.00412641
0.00408667
0.00404724