/*--------------------------------*- C++ -*----------------------------------*\
| =========                 |                                                 |
| \\      /  F ield         | OpenFOAM: The Open Source CFD Toolbox           |
|  \\    /   O peration     | Version:  v2012                                 |
|   \\  /    A nd           | Website:  www.openfoam.com                      |
|    \\/     M anipulation  |                                                 |
\*---------------------------------------------------------------------------*/
FoamFile
{
    version     2.0;
    format      ascii;
    class       volVectorField;
    location    "2000";
    object      U;
}
// * * * * * * * * * * * * * * * * * * * * * * * * * * * * * * * * * * * * * //

dimensions      [0 1 -1 0 0 0 0];


internalField   nonuniform List<vector> 
12225
(
(9.2745 -4.73371 0)
(13.1094 -1.71343 0)
(12.4776 -0.395207 0)
(11.2768 -0.0422168 0)
(10.6311 0.0141954 0)
(10.2977 -0.000763223 0)
(10.0739 -0.0039147 0)
(9.90479 -0.0203021 0)
(9.76613 -0.0504115 0)
(9.64456 -0.0475078 0)
(9.53095 -0.036184 0)
(9.42434 -0.0319779 0)
(9.3264 -0.029823 0)
(9.23704 -0.0228004 0)
(9.15578 -0.00730628 0)
(9.08997 0.00372528 0)
(9.02946 0.011205 0)
(9.05262 0.0225709 0)
(10.2592 0.0928025 0)
(10.7814 0.199339 0)
(10.9593 0.245651 0)
(10.7468 0.229138 0)
(10.5874 0.172973 0)
(10.4521 0.1153 0)
(10.329 0.08192 0)
(10.2315 0.0693108 0)
(10.1585 0.0652037 0)
(10.0982 0.0585773 0)
(10.0454 0.05251 0)
(9.99826 0.0501751 0)
(9.9553 0.0496695 0)
(9.91563 0.0484464 0)
(9.878 0.0444728 0)
(9.84331 0.0388813 0)
(9.80715 0.0218745 0)
(9.7752 -0.00113718 0)
(9.87768 -0.24504 0)
(9.74284 0.00579106 0)
(10.1971 0.125739 0)
(10.3244 0.179359 0)
(10.3563 0.161544 0)
(10.3308 0.119982 0)
(10.2777 0.0911689 0)
(10.2263 0.0753257 0)
(10.183 0.0658161 0)
(10.1458 0.0605405 0)
(10.1137 0.0572828 0)
(10.0847 0.0545716 0)
(10.0578 0.0518584 0)
(10.0324 0.0488251 0)
(10.0086 0.0451781 0)
(9.98664 0.0401513 0)
(9.96303 0.0290357 0)
(9.93558 0.0102712 0)
(9.83416 -0.443933 0)
(9.57654 -0.163148 0)
(9.91602 0.0336639 0)
(10.0932 0.134217 0)
(10.1892 0.145463 0)
(10.2166 0.120721 0)
(10.2052 0.0985019 0)
(10.1835 0.0839158 0)
(10.1609 0.0740928 0)
(10.1394 0.0683444 0)
(10.1196 0.0646364 0)
(10.1012 0.0616476 0)
(10.0836 0.0589811 0)
(10.0668 0.0565237 0)
(10.0505 0.0537642 0)
(10.0343 0.0495645 0)
(10.0157 0.0412221 0)
(9.99139 0.0295117 0)
(9.87825 -0.387477 0)
(9.61653 -0.19615 0)
(9.81622 -0.018678 0)
(9.96134 0.0916032 0)
(10.0698 0.122185 0)
(10.1218 0.113645 0)
(10.1356 0.0996236 0)
(10.134 0.0883571 0)
(10.1263 0.0799116 0)
(10.1162 0.0742938 0)
(10.1055 0.0704632 0)
(10.0946 0.0675979 0)
(10.0836 0.0652622 0)
(10.0724 0.0631891 0)
(10.0609 0.0608564 0)
(10.0483 0.0575767 0)
(10.033 0.0522162 0)
(10.0121 0.0461279 0)
(9.91439 -0.288041 0)
(9.68303 -0.18518 0)
(9.78716 -0.0532161 0)
(9.88916 0.0509883 0)
(9.98794 0.0936689 0)
(10.0476 0.0992267 0)
(10.0753 0.0940594 0)
(10.0866 0.0874214 0)
(10.0896 0.0814493 0)
(10.088 0.0769817 0)
(10.084 0.0737762 0)
(10.0788 0.0714179 0)
(10.0726 0.0695803 0)
(10.0656 0.0680275 0)
(10.0575 0.066422 0)
(10.0479 0.064484 0)
(10.0354 0.0620198 0)
(10.0183 0.0603672 0)
(9.93763 -0.214042 0)
(9.74855 -0.167539 0)
(9.79243 -0.0752226 0)
(9.85608 0.016212 0)
(9.93594 0.0644154 0)
(9.99283 0.0806142 0)
(10.0262 0.0836348 0)
(10.045 0.082131 0)
(10.0549 0.0793446 0)
(10.0593 0.0767531 0)
(10.0605 0.0747187 0)
(10.0595 0.0732175 0)
(10.057 0.0721335 0)
(10.0532 0.071368 0)
(10.0479 0.0707971 0)
(10.0408 0.0704352 0)
(10.0313 0.0705411 0)
(10.0182 0.0723016 0)
(9.95263 -0.167336 0)
(9.79947 -0.149683 0)
(9.81178 -0.0846538 0)
(9.84959 -0.00622935 0)
(9.91141 0.0419072 0)
(9.9611 0.063875 0)
(9.99439 0.0725218 0)
(10.0157 0.0751512 0)
(10.0289 0.0752549 0)
(10.0368 0.0745771 0)
(10.041 0.0738261 0)
(10.0428 0.0732717 0)
(10.0427 0.0730015 0)
(10.041 0.0730615 0)
(10.0377 0.0734878 0)
(10.0327 0.0744547 0)
(10.0255 0.0763704 0)
(10.0158 0.0802048 0)
(9.96406 -0.132091 0)
(9.84003 -0.131994 0)
(9.83337 -0.0877023 0)
(9.85306 -0.0213512 0)
(9.89928 0.0243928 0)
(9.94105 0.049492 0)
(9.97213 0.0620905 0)
(9.99395 0.0679577 0)
(10.0087 0.0704641 0)
(10.0185 0.0715063 0)
(10.0246 0.0720168 0)
(10.0283 0.0724494 0)
(10.0299 0.0730339 0)
(10.0298 0.0739253 0)
(10.0282 0.0752771 0)
(10.0249 0.0773587 0)
(10.0198 0.080629 0)
(10.0129 0.0858804 0)
(9.97418 -0.100207 0)
(9.87757 -0.112396 0)
(9.85857 -0.0853791 0)
(9.86388 -0.0323525 0)
(9.89487 0.00890363 0)
(9.92745 0.0351955 0)
(9.95445 0.0506691 0)
(9.97511 0.0593808 0)
(9.99022 0.0642421 0)
(10.001 0.0671031 0)
(10.0085 0.0690145 0)
(10.0136 0.070573 0)
(10.0167 0.0721333 0)
(10.0181 0.0739567 0)
(10.0181 0.0762854 0)
(10.0165 0.0794408 0)
(10.0136 0.083867 0)
(10.0094 0.0901721 0)
(9.98253 -0.0727118 0)
(9.91035 -0.0922029 0)
(9.88507 -0.078259 0)
(9.88002 -0.0386308 0)
(9.89747 -0.00340573 0)
(9.92045 0.022127 0)
(9.942 0.0391173 0)
(9.96006 0.04996 0)
(9.97432 0.0568716 0)
(9.98524 0.0614711 0)
(9.99344 0.0648092 0)
(9.99947 0.0675563 0)
(10.0037 0.0701617 0)
(10.0065 0.07296 0)
(10.0079 0.0762548 0)
(10.0081 0.080376 0)
(10.0073 0.0857076 0)
(10.0057 0.0926796 0)
(9.98894 -0.0502598 0)
(9.93733 -0.0723852 0)
(9.91073 -0.0674646 0)
(9.89917 -0.0400095 0)
(9.90567 -0.0116877 0)
(9.91957 0.0113987 0)
(9.935 0.0284499 0)
(9.94939 0.0404553 0)
(9.96174 0.0488482 0)
(9.97193 0.0548895 0)
(9.98013 0.0595151 0)
(9.98663 0.0633954 0)
(9.99167 0.0670122 0)
(9.99547 0.0707413 0)
(9.99822 0.0749019 0)
(10.0001 0.079805 0)
(10.0012 0.085749 0)
(10.002 0.0930262 0)
(9.99348 -0.0329123 0)
(9.9582 -0.0538187 0)
(9.93368 -0.054302 0)
(9.91899 -0.0368174 0)
(9.91756 -0.0154975 0)
(9.92367 0.00393257 0)
(9.93303 0.019686 0)
(9.94321 0.0317492 0)
(9.95293 0.0408398 0)
(9.96166 0.0478063 0)
(9.96924 0.0533898 0)
(9.97572 0.0581806 0)
(9.98119 0.0626381 0)
(9.98578 0.0671285 0)
(9.98963 0.0719551 0)
(9.9929 0.0773768 0)
(9.99578 0.0836263 0)
(9.99856 0.0908618 0)
(9.99643 -0.0202069 0)
(9.97327 -0.0372184 0)
(9.95261 -0.040066 0)
(9.93731 -0.0298442 0)
(9.9309 -0.0148725 0)
(9.93103 0.000298208 0)
(9.93505 0.0136801 0)
(9.94106 0.0247154 0)
(9.94783 0.033594 0)
(9.95466 0.0407854 0)
(9.96118 0.0468022 0)
(9.96724 0.0521009 0)
(9.9728 0.0570695 0)
(9.97788 0.0620176 0)
(9.98256 0.0672034 0)
(9.98696 0.0728269 0)
(9.99123 0.0790445 0)
(9.99557 0.0859466 0)
(9.99816 -0.0112924 0)
(9.9833 -0.0229398 0)
(9.96682 -0.0257845 0)
(9.95243 -0.0201122 0)
(9.94344 -0.0102932 0)
(9.93953 0.000603911 0)
(9.93941 0.0109346 0)
(9.94183 0.020019 0)
(9.94583 0.0277661 0)
(9.95069 0.0343759 0)
(9.95596 0.0401489 0)
(9.96138 0.0453968 0)
(9.96678 0.0503948 0)
(9.97211 0.0553783 0)
(9.97736 0.0605284 0)
(9.98259 0.0659875 0)
(9.98788 0.0718406 0)
(9.99335 0.0781356 0)
(9.99906 -0.00508567 0)
(9.98922 -0.0107904 0)
(9.97612 -0.0119387 0)
(9.96309 -0.00851852 0)
(9.9531 -0.00248625 0)
(9.94686 0.00450759 0)
(9.94399 0.0114635 0)
(9.94384 0.0178994 0)
(9.94569 0.0236871 0)
(9.94895 0.0288951 0)
(9.95315 0.033679 0)
(9.95796 0.038216 0)
(9.96316 0.0426707 0)
(9.96861 0.0471819 0)
(9.97426 0.0518539 0)
(9.98007 0.0567583 0)
(9.98607 0.061931 0)
(9.99229 0.0673744 0)
(9.99942 -0.000372016 0)
(9.99181 0.000141247 0)
(9.98042 0.00180974 0)
(9.96821 0.00455891 0)
(9.9579 0.00786922 0)
(9.9506 0.0113337 0)
(9.94642 0.0147269 0)
(9.94497 0.0179757 0)
(9.94575 0.021093 0)
(9.94823 0.0241489 0)
(9.95195 0.0272213 0)
(9.95656 0.030391 0)
(9.9618 0.0337179 0)
(9.96748 0.0372496 0)
(9.97351 0.0410081 0)
(9.97979 0.0450017 0)
(9.98631 0.0492145 0)
(9.99305 0.0536182 0)
(9.99935 0.00408029 0)
(9.9911 0.0111596 0)
(9.97897 0.0161097 0)
(9.96616 0.0187012 0)
(9.95552 0.019565 0)
(9.94818 0.0194833 0)
(9.94419 0.0190798 0)
(9.9431 0.0187622 0)
(9.94435 0.0187734 0)
(9.94738 0.0192277 0)
(9.9517 0.0201686 0)
(9.95693 0.021589 0)
(9.96279 0.0234612 0)
(9.96909 0.0257389 0)
(9.97571 0.0283741 0)
(9.98255 0.0313078 0)
(9.98956 0.0344865 0)
(9.99672 0.0378443 0)
(9.99882 0.00972559 0)
(9.98675 0.0240323 0)
(9.97122 0.0318215 0)
(9.95642 0.0332582 0)
(9.94558 0.0306592 0)
(9.93942 0.0262938 0)
(9.93734 0.0216805 0)
(9.93843 0.0176562 0)
(9.94184 0.0145959 0)
(9.94683 0.0125906 0)
(9.95286 0.0115877 0)
(9.95956 0.0114658 0)
(9.96665 0.0120897 0)
(9.97397 0.0133225 0)
(9.98142 0.0150429 0)
(9.98893 0.0171395 0)
(9.99647 0.0195186 0)
(10.004 0.0220939 0)
(9.99757 0.0182062 0)
(9.97774 0.0404381 0)
(9.95664 0.049551 0)
(9.93945 0.0474438 0)
(9.92962 0.0393804 0)
(9.92659 0.0295994 0)
(9.92848 0.0204337 0)
(9.93356 0.0129045 0)
(9.94052 0.00727261 0)
(9.94851 0.00343064 0)
(9.95698 0.00111553 0)
(9.96559 4.21896e-05 0)
(9.97417 -5.33283e-05 0)
(9.98264 0.000600468 0)
(9.99095 0.00181851 0)
(9.99909 0.00344922 0)
(10.0071 0.00537086 0)
(10.0149 0.00748681 0)
(9.99502 0.0318113 0)
(9.96178 0.0621169 0)
(9.93372 0.0695256 0)
(9.91535 0.0600795 0)
(9.90933 0.0439102 0)
(9.9125 0.0276169 0)
(9.92085 0.0139515 0)
(9.93162 0.00358832 0)
(9.9432 -0.00369027 0)
(9.95475 -0.00842694 0)
(9.96587 -0.011195 0)
(9.97642 -0.0124852 0)
(9.98638 -0.0126934 0)
(9.9958 -0.0121154 0)
(10.0047 -0.0109862 0)
(10.0133 -0.00947332 0)
(10.0215 -0.00770898 0)
(10.0294 -0.00578875 0)
(9.99018 0.0534592 0)
(9.93561 0.090137 0)
(9.90098 0.090603 0)
(9.88516 0.0687225 0)
(9.88782 0.0417798 0)
(9.90123 0.0186211 0)
(9.91857 0.00137953 0)
(9.93627 -0.0104302 0)
(9.95285 -0.0179697 0)
(9.96782 -0.0224009 0)
(9.98121 -0.0246606 0)
(9.99319 -0.0254257 0)
(10.004 -0.0251778 0)
(10.0139 -0.0242429 0)
(10.023 -0.0228629 0)
(10.0316 -0.0212079 0)
(10.0397 -0.0193875 0)
(10.0473 -0.0174802 0)
(9.9819 0.0862452 0)
(9.89548 0.124245 0)
(9.85818 0.109861 0)
(9.85211 0.0697407 0)
(9.87036 0.0302996 0)
(9.89846 0.00141147 0)
(9.92661 -0.0172333 0)
(9.95137 -0.0283477 0)
(9.97222 -0.0344062 0)
(9.98959 -0.0372747 0)
(10.0042 -0.0381453 0)
(10.0166 -0.0377866 0)
(10.0274 -0.0366441 0)
(10.037 -0.0350607 0)
(10.0456 -0.0332257 0)
(10.0536 -0.031285 0)
(10.0611 -0.0293004 0)
(10.0681 -0.0273234 0)
(9.96925 0.133988 0)
(9.83823 0.163079 0)
(9.80793 0.12257 0)
(9.82313 0.058768 0)
(9.86516 0.00726725 0)
(9.91143 -0.0240659 0)
(9.95039 -0.0406206 0)
(9.98054 -0.0483782 0)
(10.0035 -0.0512028 0)
(10.0212 -0.051403 0)
(10.0352 -0.0502724 0)
(10.0466 -0.0484132 0)
(10.0563 -0.0462322 0)
(10.0646 -0.0438842 0)
(10.0719 -0.0415362 0)
(10.0786 -0.0392737 0)
(10.0849 -0.0371324 0)
(10.0908 -0.0350915 0)
(9.94951 0.20714 0)
(9.76128 0.207015 0)
(9.75726 0.123459 0)
(9.81044 0.0319796 0)
(9.88386 -0.0279061 0)
(9.9488 -0.0560445 0)
(9.99533 -0.0661029 0)
(10.0267 -0.0678489 0)
(10.0481 -0.0660426 0)
(10.0631 -0.0629926 0)
(10.0741 -0.0596674 0)
(10.0827 -0.0563505 0)
(10.0896 -0.0531634 0)
(10.0955 -0.0501518 0)
(10.1006 -0.0473486 0)
(10.1052 -0.0448694 0)
(10.1095 -0.0426473 0)
(10.1137 -0.0405807 0)
(9.91094 0.322718 0)
(9.65922 0.25454 0)
(9.71887 0.10739 0)
(9.8333 -0.0119557 0)
(9.94177 -0.072705 0)
(10.02 -0.0902348 0)
(10.0662 -0.0893788 0)
(10.0918 -0.0833235 0)
(10.1061 -0.0764104 0)
(10.1144 -0.0703113 0)
(10.1195 -0.065193 0)
(10.1231 -0.0607305 0)
(10.1257 -0.0567868 0)
(10.1277 -0.0533496 0)
(10.1293 -0.0502585 0)
(10.1306 -0.047746 0)
(10.1321 -0.0455587 0)
(10.1337 -0.0435986 0)
(9.84404 0.435109 0)
(9.53797 0.261024 0)
(9.7269 0.0591197 0)
(9.92369 -0.0731477 0)
(10.0584 -0.121612 0)
(10.1345 -0.120282 0)
(10.1665 -0.105366 0)
(10.1757 -0.0910982 0)
(10.1757 -0.0799225 0)
(10.1725 -0.071877 0)
(10.1685 -0.0661453 0)
(10.1646 -0.0611546 0)
(10.1606 -0.0567432 0)
(10.1567 -0.0528368 0)
(10.153 -0.0495005 0)
(10.1497 -0.0471861 0)
(10.1471 -0.0453562 0)
(10.1449 -0.0436674 0)
(9.83598 0.319666 0)
(9.5502 0.0912483 0)
(9.91739 -0.0687352 0)
(10.1507 -0.160137 0)
(10.2635 -0.172185 0)
(10.3033 -0.14282 0)
(10.2976 -0.112225 0)
(10.2753 -0.0909847 0)
(10.2514 -0.0771467 0)
(10.2304 -0.0685 0)
(10.2132 -0.0633935 0)
(10.1984 -0.0588723 0)
(10.1848 -0.0541603 0)
(10.1717 -0.0491692 0)
(10.1595 -0.0447875 0)
(10.1491 -0.0427603 0)
(10.1404 -0.0409041 0)
(10.1323 -0.0380358 0)
(10.2049 -0.0633779 0)
(10.4095 -0.19171 0)
(10.7164 -0.282555 0)
(10.6879 -0.282292 0)
(10.6191 -0.230118 0)
(10.5417 -0.163747 0)
(10.4538 -0.117608 0)
(10.3752 -0.0936028 0)
(10.3137 -0.0804766 0)
(10.2656 -0.0697627 0)
(10.2262 -0.0606898 0)
(10.1921 -0.0565006 0)
(10.1621 -0.0553534 0)
(10.1332 -0.0546216 0)
(10.1072 -0.0531917 0)
(10.0865 -0.0478948 0)
(10.0669 -0.0419551 0)
(10.0482 -0.0381408 0)
(9.41631 4.45107 0)
(12.7294 2.07612 0)
(12.5649 0.621225 0)
(11.5691 0.127666 0)
(10.9311 0.00343081 0)
(10.5863 -0.00225324 0)
(10.3631 0.0138739 0)
(10.2009 0.0311902 0)
(10.0782 0.0445792 0)
(9.97677 0.0436881 0)
(9.88396 0.0326678 0)
(9.79889 0.0312882 0)
(9.72203 0.0337357 0)
(9.65779 0.0318085 0)
(9.6027 0.0272446 0)
(9.54799 0.00972709 0)
(9.49665 -0.00322627 0)
(9.45025 -0.02071 0)
(-0.0249944 0.0909401 0)
(0.137441 -0.182565 0)
(0.325831 -0.304441 0)
(0.525606 -0.313535 0)
(0.702295 -0.27079 0)
(0.831832 -0.210043 0)
(0.907187 -0.145233 -8.60415e-20)
(0.936873 -0.0813054 8.67236e-20)
(0.914859 -0.0190357 0)
(0.853223 0.0356366 9.21006e-20)
(0.765374 0.0747677 0)
(0.665775 0.0923547 0)
(0.571964 0.0876031 0)
(0.499503 0.0662726 -1.44193e-19)
(0.449547 0.0373403 0)
(0.405351 0.00993199 0)
(0.344845 -0.00834743 1.8978e-19)
(0.258943 -0.00778493 0)
(0.123073 0.010947 0)
(-0.0756037 0.111575 0)
(-0.305179 0.206802 -1.39695e-19)
(-0.601201 0.247737 0)
(-0.929132 0.26961 -7.48891e-20)
(-1.26408 0.296702 0)
(-1.60272 0.323494 0)
(-1.94158 0.336029 -4.11585e-20)
(-2.27311 0.335047 0)
(-2.58937 0.32576 3.44663e-20)
(-2.8872 0.309511 0)
(-3.1633 0.288671 -3.13025e-20)
(-3.41676 0.265545 0)
(-3.64722 0.241707 0)
(-3.85542 0.218179 0)
(-4.04246 0.195658 0)
(-4.20979 0.174513 0)
(-4.35897 0.154945 2.82113e-20)
(-4.49156 0.136987 0)
(-4.60906 0.120566 -5.5534e-20)
(-4.71283 0.105553 0)
(-4.8041 0.0917896 5.4734e-20)
(-4.88389 0.0791135 0)
(-4.95311 0.067374 0)
(-5.01251 0.0564435 -5.35091e-20)
(-5.06271 0.0462268 0)
(-5.10419 0.036665 -5.26154e-20)
(-5.13737 0.0277423 5.21365e-20)
(-5.16265 0.0195044 0)
(-5.18041 0.0120989 5.11077e-20)
(-5.19093 0.00578861 5.05548e-20)
(-5.19437 0.0007228 0)
(-5.19199 -0.00319933 0)
(-5.18502 -0.00645251 0)
(-5.1736 -0.0094011 0)
(-5.15803 -0.0121095 0)
(-5.1385 -0.0146763 -4.61279e-20)
(-5.11512 -0.0171147 0)
(-5.08801 -0.0194365 4.42605e-20)
(-5.05729 -0.0216501 0)
(-5.02304 -0.023758 0)
(-4.98538 -0.0257619 -4.10791e-20)
(-4.9444 -0.0276622 0)
(-4.90021 -0.0294588 3.87011e-20)
(-4.85292 -0.0311516 0)
(-4.80265 -0.0327404 0)
(-4.74951 -0.0342253 0)
(-4.69363 -0.0356061 -3.33165e-20)
(-4.63511 -0.0368833 0)
(-4.5741 -0.0380577 0)
(-4.51072 -0.03913 -2.87148e-20)
(-4.44509 -0.0401009 0)
(-4.37735 -0.0409719 -2.53703e-20)
(-4.30763 -0.0417443 0)
(-4.23606 -0.0424198 0)
(-4.16277 -0.043 0)
(-4.08789 -0.0434871 1.79856e-20)
(-4.01156 -0.0438829 0)
(-3.9339 -0.0441897 0)
(-3.85504 -0.0444096 1.17972e-20)
(-3.7751 -0.0445451 9.60106e-21)
(-3.69421 -0.0445984 0)
(-3.61248 -0.0445729 4.9942e-21)
(-3.53003 -0.0444717 0)
(-3.44698 -0.0442996 1.6118e-22)
(-3.36343 -0.044062 0)
(-3.27947 -0.0437664 -1.03414e-20)
(-3.19521 -0.0434219 0)
(-3.11074 -0.0430417 2.15989e-20)
(-3.02614 -0.0426444 0)
(-2.94147 -0.042258 0)
(-2.85679 -0.0419248 0)
(-2.77215 -0.0417068 -4.68287e-20)
(-2.68756 -0.0416869 0)
(-2.60303 -0.0419552 6.11278e-20)
(-2.51854 -0.0425667 0)
(-2.43403 -0.0434598 -7.68245e-20)
(-2.34977 -0.0443584 -8.52167e-20)
(-2.266 -0.0448014 -9.39383e-20)
(-2.18298 -0.0445828 0)
(-2.10087 -0.0439741 0)
(-2.01969 -0.0432753 0)
(-1.93946 -0.0425703 0)
(-1.86017 -0.0418702 0)
(-1.78186 -0.0411758 0)
(-1.70455 -0.0404889 0)
(-1.62827 -0.0398134 0)
(-1.55303 -0.0391549 1.93233e-19)
(-1.47886 -0.0385208 2.07584e-19)
(-1.40576 -0.0379163 0)
(-1.33375 -0.0373299 0)
(-1.26287 -0.0367037 0)
(-1.19314 -0.0360454 2.75005e-19)
(-1.12457 -0.035412 0)
(-1.05716 -0.0347967 0)
(-0.990913 -0.0342014 0)
(-0.925832 -0.0336278 0)
(-0.861915 -0.0330779 -3.91961e-19)
(-0.799163 -0.0325541 0)
(-0.737569 -0.0320598 0)
(-0.677129 -0.0315984 4.90455e-19)
(-0.617834 -0.0311714 -5.30293e-19)
(-0.559679 -0.0307824 0)
(-0.502655 -0.0304422 -6.24262e-19)
(-0.44675 -0.030175 0)
(-0.391944 -0.0300266 7.43755e-19)
(-0.338215 -0.0300053 0)
(-0.28555 -0.0300721 0)
(-0.233933 -0.0302155 0)
(-0.183335 -0.0304465 0)
(-0.133732 -0.0307808 0)
(-0.0851696 -0.0312376 -2.85948e-18)
(-0.0378647 -0.0316916 -3.29354e-18)
(0.00825263 -0.0313548 0)
(0.0536885 -0.0298207 0)
(0.0984344 -0.0279678 0)
(0.142356 -0.0262541 2.67928e-18)
(0.185363 -0.0247252 0)
(0.227439 -0.0233544 0)
(0.268606 -0.0221193 0)
(0.308894 -0.0209997 2.03715e-18)
(0.348333 -0.0199788 -1.93122e-18)
(0.38695 -0.0190422 0)
(0.424774 -0.0181787 0)
(0.461833 -0.0173787 -1.68511e-18)
(0.49815 -0.016635 -1.6206e-18)
(0.53375 -0.0159411 0)
(0.568655 -0.0152925 0)
(0.602888 -0.0146843 1.46266e-18)
(0.636469 -0.0141136 -1.41926e-18)
(0.669421 -0.0135768 0)
(0.701762 -0.0130717 0)
(0.733514 -0.0125958 -1.30916e-18)
(0.764701 -0.0121473 0)
(0.795347 -0.0117241 0)
(0.825475 -0.0113249 -1.22172e-18)
(0.85511 -0.0109482 0)
(0.884276 -0.0105926 -1.17268e-18)
(0.912997 -0.0102572 0)
(0.941298 -0.00994056 0)
(0.969202 -0.00964194 0)
(0.996734 -0.00935992 1.09078e-18)
(1.02391 -0.00909365 0)
(1.05077 -0.00884154 0)
(1.0773 -0.00860236 0)
(1.10355 -0.00837403 0)
(1.1295 -0.00815452 0)
(1.15516 -0.00794069 0)
(1.18054 -0.00772884 9.82261e-19)
(1.20559 -0.00751372 9.69377e-19)
(1.23028 -0.00728846 0)
(1.25455 -0.00704349 0)
(1.27827 -0.0067655 0)
(1.30129 -0.00643561 -9.24127e-19)
(1.32337 -0.00602507 0)
(1.3441 -0.00549264 1.81318e-18)
(1.36302 -0.00475843 -1.79983e-18)
(1.37873 -0.00371004 -1.79108e-18)
(1.3913 -0.00195944 1.78934e-18)
(1.39158 0.00137435 -1.79508e-18)
(1.38895 0.00810555 1.80745e-18)
(1.30949 0.0198612 0)
(0.0969415 -0.271886 0)
(0.333006 -0.681541 0)
(0.513004 -0.705215 1.57291e-19)
(0.610208 -0.569416 0)
(0.660795 -0.406667 -1.11229e-19)
(0.680727 -0.251439 -1.08255e-19)
(0.674208 -0.109677 -5.63814e-20)
(0.643311 0.018147 -5.63025e-20)
(0.600019 0.127871 0)
(0.540354 0.214082 -6.09735e-20)
(0.463048 0.268933 0)
(0.368024 0.283794 0)
(0.251482 0.256153 1.71556e-19)
(0.102984 0.211582 9.90213e-20)
(-0.0832819 0.208473 -1.84307e-19)
(-0.310959 0.275519 -1.42762e-19)
(-0.590159 0.387136 -5.67978e-20)
(-0.916171 0.51567 0)
(-1.27081 0.64234 0)
(-1.6279 0.754919 0)
(-1.98078 0.841287 -2.83585e-20)
(-2.3266 0.894756 0)
(-2.65625 0.917565 6.88629e-20)
(-2.96239 0.913601 0)
(-3.24115 0.886794 0)
(-3.49079 0.842374 1.98119e-20)
(-3.71013 0.785705 0)
(-3.90008 0.722303 -1.97625e-20)
(-4.06261 0.656336 -4.17957e-20)
(-4.20126 0.590491 2.01738e-20)
(-4.31894 0.526873 0)
(-4.41852 0.467231 0)
(-4.50273 0.412379 0)
(-4.57392 0.362657 -4.42557e-20)
(-4.63417 0.318018 -4.47591e-20)
(-4.68514 0.278186 -2.21874e-20)
(-4.7282 0.242751 0)
(-4.76445 0.211231 4.52948e-20)
(-4.79477 0.183128 0)
(-4.81989 0.157965 -4.58596e-20)
(-4.84037 0.135302 0)
(-4.85672 0.114749 0)
(-4.86934 0.0959649 4.60618e-20)
(-4.87862 0.0786626 0)
(-4.88488 0.0626025 1.38072e-19)
(-4.88845 0.0475923 -4.55759e-20)
(-4.88959 0.0334976 0)
(-4.88856 0.0202909 -4.49033e-20)
(-4.88561 0.00808979 -4.44445e-20)
(-4.881 -0.00294254 0)
(-4.87382 -0.0128686 0)
(-4.86295 -0.0219847 0)
(-4.84841 -0.0305283 0)
(-4.83008 -0.0386144 0)
(-4.808 -0.0463126 4.01719e-20)
(-4.78223 -0.0536591 7.90724e-20)
(-4.75284 -0.0606751 -3.83928e-20)
(-4.71992 -0.0673712 0)
(-4.68356 -0.0737534 7.33888e-20)
(-4.64384 -0.0798241 -3.59173e-20)
(-4.60087 -0.0855839 0)
(-4.55476 -0.0910325 -3.32153e-20)
(-4.50559 -0.09617 0)
(-4.45349 -0.100997 0)
(-4.39857 -0.105517 -5.97831e-20)
(-4.34093 -0.109728 2.83299e-20)
(-4.28071 -0.113631 -5.45874e-20)
(-4.21802 -0.117228 5.18664e-20)
(-4.15299 -0.120525 2.42349e-20)
(-4.08574 -0.123524 0)
(-4.0164 -0.126232 2.12995e-20)
(-3.9451 -0.128654 0)
(-3.87196 -0.130796 0)
(-3.79712 -0.132666 0)
(-3.7207 -0.134272 1.5568e-20)
(-3.64283 -0.135623 0)
(-3.56364 -0.136728 2.3627e-20)
(-3.48324 -0.137597 -2.97598e-20)
(-3.40176 -0.13824 -7.86846e-21)
(-3.31932 -0.138667 0)
(-3.23603 -0.138891 -4.06427e-21)
(-3.152 -0.138923 0)
(-3.06736 -0.138775 -1.29951e-22)
(-2.98219 -0.138457 0)
(-2.89661 -0.137984 8.28455e-21)
(-2.8107 -0.137365 -2.39201e-20)
(-2.72457 -0.136614 -1.71474e-20)
(-2.63831 -0.13574 0)
(-2.552 -0.134751 0)
(-2.46574 -0.133653 0)
(-2.37963 -0.132446 3.63886e-20)
(-2.29377 -0.13112 0)
(-2.20831 -0.129648 -4.68737e-20)
(-2.12339 -0.127972 0)
(-2.03914 -0.126042 1.72578e-19)
(-1.95566 -0.123884 6.38729e-20)
(-1.87294 -0.1216 6.99124e-20)
(-1.79092 -0.119295 0)
(-1.70959 -0.117028 0)
(-1.629 -0.114794 0)
(-1.54921 -0.112572 0)
(-1.47029 -0.110347 0)
(-1.39226 -0.108116 2.20108e-19)
(-1.31516 -0.10588 2.35624e-19)
(-1.23902 -0.10364 0)
(-1.16387 -0.101401 -1.35108e-19)
(-1.08973 -0.0991653 -1.43902e-19)
(-1.01663 -0.0969343 0)
(-0.944593 -0.0947103 -3.23824e-19)
(-0.873635 -0.0924975 0)
(-0.803748 -0.0903099 1.81754e-19)
(-0.734941 -0.0881529 0)
(-0.667227 -0.0860269 0)
(-0.600608 -0.083934 -4.3545e-19)
(-0.535088 -0.0818759 0)
(-0.470667 -0.079854 2.45388e-19)
(-0.407346 -0.0778715 0)
(-0.345122 -0.0759343 0)
(-0.28399 -0.0740509 2.9043e-19)
(-0.223941 -0.0722192 3.09778e-19)
(-0.164969 -0.0704338 0)
(-0.107067 -0.0686981 -3.47171e-19)
(-0.0502406 -0.0670118 0)
(0.0055122 -0.0653662 3.83129e-19)
(0.0602341 -0.0637543 7.66352e-19)
(0.113958 -0.0621885 0)
(0.166684 -0.060683 0)
(0.218413 -0.0592421 0)
(0.269159 -0.0578635 0)
(0.318957 -0.0565491 7.09373e-19)
(0.367879 -0.055287 2.09683e-18)
(0.416011 -0.0539003 0)
(0.463257 -0.0522445 0)
(0.509478 -0.0504671 0)
(0.554751 -0.0487205 -6.65722e-19)
(0.599154 -0.0470538 0)
(0.642716 -0.0454742 0)
(0.685454 -0.0439796 1.28807e-18)
(0.727388 -0.0425632 6.37007e-19)
(0.768538 -0.0412182 6.32472e-19)
(0.808927 -0.0399375 0)
(0.848576 -0.0387161 0)
(0.887508 -0.0375487 6.15896e-19)
(0.925745 -0.0364324 -6.0965e-19)
(0.963308 -0.0353634 0)
(1.00022 -0.0343401 0)
(1.0365 -0.0333596 -5.96762e-19)
(1.07217 -0.0324209 1.77628e-18)
(1.10725 -0.0315218 0)
(1.14175 -0.0306617 0)
(1.17571 -0.0298385 5.80251e-19)
(1.20915 -0.029052 0)
(1.24208 -0.0283001 1.14475e-18)
(1.27452 -0.0275827 -5.68432e-19)
(1.30651 -0.0268981 0)
(1.33806 -0.0262459 5.62308e-19)
(1.3692 -0.0256246 1.11732e-18)
(1.39994 -0.0250335 0)
(1.43032 -0.024471 0)
(1.46035 -0.0239358 -5.49476e-19)
(1.49004 -0.0234259 0)
(1.51943 -0.022939 1.08627e-18)
(1.54852 -0.0224721 0)
(1.57734 -0.0220212 0)
(1.60587 -0.0215814 0)
(1.63414 -0.0211457 0)
(1.66212 -0.0207054 -5.28971e-19)
(1.6898 -0.020248 -5.26211e-19)
(1.71715 -0.0197576 0)
(1.74409 -0.0192112 0)
(1.77054 -0.0185774 0)
(1.79636 -0.0178109 5.16129e-19)
(1.82134 -0.0168443 0)
(1.84515 -0.0155756 -1.02483e-18)
(1.86738 -0.0138262 1.02259e-18)
(1.8871 -0.0113142 1.02217e-18)
(1.90386 -0.00730144 1.0233e-18)
(1.91406 -0.000505036 1.02863e-18)
(1.92627 0.0124661 1.02001e-18)
(1.90671 0.0362509 0)
(0.118675 -0.861447 0)
(0.266998 -1.0528 0)
(0.313925 -0.823122 -1.25668e-19)
(0.313005 -0.581194 -1.08181e-19)
(0.295289 -0.370612 1.00658e-19)
(0.263765 -0.18536 1.00935e-19)
(0.217222 -0.0198268 -6.47111e-22)
(0.154955 0.12792 0)
(0.0768127 0.258368 0)
(-0.0184625 0.369032 0)
(-0.134531 0.454276 0)
(-0.279602 0.515014 0)
(-0.466673 0.569182 -2.66099e-19)
(-0.705918 0.644933 0)
(-0.993009 0.758429 6.58889e-20)
(-1.31192 0.900442 5.68585e-20)
(-1.64481 1.04762 0)
(-1.97516 1.18013 0)
(-2.28805 1.28591 0)
(-2.57121 1.359 0)
(-2.81887 1.39445 3.48391e-20)
(-3.03139 1.39103 0)
(-3.21026 1.35385 -3.23017e-20)
(-3.35851 1.29082 0)
(-3.48049 1.20919 0)
(-3.58075 1.11529 0)
(-3.66409 1.01511 -6.85795e-20)
(-3.73484 0.913936 0)
(-3.7965 0.815838 3.31286e-20)
(-3.85183 0.723561 -7.07049e-20)
(-3.90271 0.638592 0)
(-3.95043 0.561645 0)
(-3.99574 0.492755 0)
(-4.03899 0.431529 3.65663e-20)
(-4.08028 0.377318 3.71502e-20)
(-4.11956 0.329347 0)
(-4.15671 0.286825 0)
(-4.19154 0.248993 -7.77717e-20)
(-4.22389 0.215162 -7.81593e-20)
(-4.25357 0.184725 7.83873e-20)
(-4.28046 0.157167 0)
(-4.30444 0.132061 0)
(-4.32542 0.109063 0)
(-4.34333 0.0878905 0)
(-4.3581 0.0683107 -7.69537e-20)
(-4.36968 0.0501256 -7.68521e-20)
(-4.378 0.0331517 7.62067e-20)
(-4.38293 0.0171884 0)
(-4.38428 0.00197924 0)
(-4.38191 -0.0127624 0)
(-4.37575 -0.0271636 0)
(-4.36586 -0.0411364 -7.1032e-20)
(-4.35231 -0.0545925 0)
(-4.33512 -0.067519 0)
(-4.31433 -0.0799203 -6.69162e-20)
(-4.29 -0.0918049 -6.48893e-20)
(-4.26219 -0.10318 0)
(-4.23098 -0.11405 1.24405e-19)
(-4.19643 -0.124417 -5.99473e-20)
(-4.15864 -0.134279 5.81694e-20)
(-4.1177 -0.143637 0)
(-4.07369 -0.152486 0)
(-4.02673 -0.160826 0)
(-3.9769 -0.168655 0)
(-3.92433 -0.175977 4.83308e-20)
(-3.86911 -0.182792 9.35899e-20)
(-3.81138 -0.189101 4.39625e-20)
(-3.75123 -0.194906 -4.16889e-20)
(-3.6888 -0.200213 0)
(-3.6242 -0.20503 7.52263e-20)
(-3.55756 -0.209363 7.03399e-20)
(-3.48901 -0.213223 6.5337e-20)
(-3.41866 -0.216619 -6.02183e-20)
(-3.34664 -0.219562 0)
(-3.27308 -0.222066 -7.37747e-20)
(-3.1981 -0.224144 0)
(-3.12183 -0.22581 1.99834e-20)
(-3.04438 -0.22708 1.5758e-20)
(-2.96587 -0.22797 0)
(-2.88643 -0.228497 0)
(-2.80617 -0.228677 1.51198e-20)
(-2.72519 -0.228529 0)
(-2.64362 -0.228071 2.67549e-21)
(-2.56155 -0.227321 0)
(-2.4791 -0.2263 1.02581e-20)
(-2.39636 -0.225025 3.52558e-20)
(-2.31343 -0.223517 0)
(-2.23042 -0.221795 0)
(-2.1474 -0.219877 0)
(-2.06449 -0.217781 4.48737e-20)
(-1.98178 -0.215522 0)
(-1.89936 -0.213111 5.97101e-20)
(-1.81733 -0.210549 0)
(-1.73578 -0.207822 0)
(-1.65478 -0.204903 -1.67715e-19)
(-1.57437 -0.201776 0)
(-1.49457 -0.198457 -9.96615e-20)
(-1.41537 -0.19499 0)
(-1.33681 -0.19143 -1.1696e-19)
(-1.25894 -0.187818 0)
(-1.18184 -0.184169 0)
(-1.10554 -0.180493 0)
(-1.03009 -0.176794 -4.6392e-19)
(-0.955528 -0.17308 -1.65465e-19)
(-0.881877 -0.169357 0)
(-0.809167 -0.165633 0)
(-0.737424 -0.161912 0)
(-0.666668 -0.158201 0)
(-0.596919 -0.154503 2.19327e-19)
(-0.528185 -0.150824 -4.59473e-19)
(-0.460475 -0.147174 -2.43192e-19)
(-0.393799 -0.143561 5.08731e-19)
(-0.328169 -0.139991 5.34564e-19)
(-0.263588 -0.136469 2.81951e-19)
(-0.20006 -0.132998 0)
(-0.137585 -0.129578 6.17451e-19)
(-0.076165 -0.126212 0)
(-0.0158015 -0.122903 -6.74531e-19)
(0.0435121 -0.119652 -3.45474e-19)
(0.101789 -0.116462 0)
(0.159036 -0.113335 6.93721e-19)
(0.215258 -0.110272 3.4912e-19)
(0.270466 -0.107276 0)
(0.32467 -0.104335 3.49e-19)
(0.377878 -0.101439 -1.05361e-18)
(0.4301 -0.0985986 0)
(0.481348 -0.0958229 0)
(0.53164 -0.0931145 0)
(0.580994 -0.0904744 0)
(0.629432 -0.0879067 -7.08205e-19)
(0.676989 -0.0854186 -7.10679e-19)
(0.723686 -0.0830253 0)
(0.76949 -0.0807132 0)
(0.814384 -0.0784432 0)
(0.858424 -0.0762157 0)
(0.901652 -0.0740463 0)
(0.944084 -0.0719433 0)
(0.985733 -0.0699093 -7.14344e-19)
(1.02661 -0.0679443 -1.08828e-21)
(1.06675 -0.0660469 0)
(1.10615 -0.0642149 0)
(1.14484 -0.0624463 -7.14109e-19)
(1.18285 -0.0607389 0)
(1.22018 -0.0590913 7.15124e-19)
(1.25687 -0.0575018 7.14246e-19)
(1.29293 -0.0559694 0)
(1.32838 -0.0544924 0)
(1.36324 -0.0530705 -7.14728e-19)
(1.39754 -0.0517021 -1.42762e-18)
(1.43129 -0.050387 0)
(1.46452 -0.0491235 0)
(1.49724 -0.0479114 0)
(1.52948 -0.046749 -7.13335e-19)
(1.56125 -0.0456363 7.12939e-19)
(1.59259 -0.0445712 0)
(1.62351 -0.0435538 1.42296e-18)
(1.65403 -0.042582 7.10451e-19)
(1.68418 -0.0416551 -1.42088e-18)
(1.71397 -0.0407709 0)
(1.74343 -0.0399276 0)
(1.77258 -0.0391225 -1.41711e-18)
(1.80143 -0.038352 -7.08275e-19)
(1.83001 -0.0376119 0)
(1.85831 -0.0368961 0)
(1.88637 -0.0361971 0)
(1.91416 -0.0355043 0)
(1.9417 -0.0348046 -1.40711e-18)
(1.96897 -0.0340789 0)
(1.99594 -0.0333031 0)
(2.02256 -0.0324422 0)
(2.04875 -0.0314491 0)
(2.0744 -0.0302552 0)
(2.09933 -0.0287599 0)
(2.12328 -0.0268122 -1.39778e-18)
(2.14593 -0.0241599 0)
(2.16659 -0.0203992 0)
(2.18502 -0.0147366 -2.81692e-18)
(2.19845 -0.00585004 1.41847e-18)
(2.21308 0.00891954 -1.41641e-18)
(2.20797 0.0363232 1.41204e-18)
(0.0333058 -1.16454 0)
(0.0682884 -1.02605 3.60344e-19)
(0.0323074 -0.743175 0)
(-0.0124995 -0.502682 1.10906e-19)
(-0.0683117 -0.279771 0)
(-0.136669 -0.0699763 0)
(-0.220425 0.127046 -8.26494e-20)
(-0.321964 0.310533 0)
(-0.443418 0.480056 0)
(-0.587426 0.636193 0)
(-0.757861 0.781544 0)
(-0.95993 0.922289 0)
(-1.19608 1.06649 2.03343e-19)
(-1.46041 1.21729 9.20711e-20)
(-1.73826 1.36812 -8.33885e-20)
(-2.01132 1.50556 0)
(-2.26412 1.61595 0)
(-2.48691 1.69021 0)
(-2.67505 1.72496 0)
(-2.82698 1.72177 0)
(-2.94516 1.68438 6.00856e-20)
(-3.03532 1.6177 5.87792e-20)
(-3.10369 1.52865 -5.79429e-20)
(-3.15662 1.42502 5.76603e-20)
(-3.19943 1.31349 0)
(-3.23641 1.19941 0)
(-3.27098 1.08712 5.58548e-20)
(-3.30544 0.979831 0)
(-3.34105 0.879629 0)
(-3.37829 0.787521 5.87095e-20)
(-3.41716 0.703728 6.15136e-20)
(-3.45732 0.628016 6.22226e-20)
(-3.49823 0.559847 0)
(-3.53927 0.498524 0)
(-3.57984 0.443289 -6.4022e-20)
(-3.61938 0.393388 0)
(-3.65739 0.348113 0)
(-3.69347 0.306825 6.42871e-20)
(-3.72727 0.268961 -6.59969e-20)
(-3.75852 0.234037 6.60046e-20)
(-3.78699 0.20164 0)
(-3.81251 0.171422 0)
(-3.83491 0.143088 1.2993e-19)
(-3.85407 0.11639 0)
(-3.86989 0.0911166 1.28532e-19)
(-3.88226 0.0670935 1.90889e-19)
(-3.89112 0.0441775 -1.89241e-19)
(-3.89639 0.022249 1.25223e-19)
(-3.89804 0.00119154 0)
(-3.89605 -0.0191103 0)
(-3.89048 -0.0387333 1.19754e-19)
(-3.88137 -0.0576955 5.83452e-20)
(-3.86875 -0.075993 0)
(-3.85266 -0.0936243 0)
(-3.83314 -0.110588 5.48356e-20)
(-3.81024 -0.126885 1.08119e-19)
(-3.784 -0.142511 0)
(-3.7545 -0.157465 -1.01663e-19)
(-3.72181 -0.171742 9.98311e-20)
(-3.68599 -0.185338 -9.68572e-20)
(-3.64713 -0.198248 0)
(-3.60533 -0.210467 0)
(-3.56067 -0.221987 0)
(-3.51324 -0.232808 0)
(-3.46316 -0.242934 0)
(-3.41053 -0.252365 -7.57717e-20)
(-3.35546 -0.261099 0)
(-3.29806 -0.269142 0)
(-3.23844 -0.2765 0)
(-3.17673 -0.283183 -1.22302e-19)
(-3.11303 -0.289201 -5.65408e-20)
(-3.04748 -0.294565 -5.24371e-20)
(-2.98019 -0.299291 9.77043e-20)
(-2.91128 -0.303393 -4.51921e-20)
(-2.84088 -0.306888 3.96374e-20)
(-2.76909 -0.309796 0)
(-2.69605 -0.312135 -3.07092e-20)
(-2.62186 -0.313927 0)
(-2.54666 -0.315193 0)