/*--------------------------------*- C++ -*----------------------------------*\
  =========                 |
  \\      /  F ield         | OpenFOAM: The Open Source CFD Toolbox
   \\    /   O peration     | Website:  https://openfoam.org
    \\  /    A nd           | Version:  8
     \\/     M anipulation  |
\*---------------------------------------------------------------------------*/
FoamFile
{
    version     2.0;
    format      ascii;
    class       volScalarField;
    location    "300";
    object      nut;
}
// * * * * * * * * * * * * * * * * * * * * * * * * * * * * * * * * * * * * * //

dimensions      [0 2 -1 0 0 0 0];

internalField   nonuniform List<scalar> 
12225
(
5.25609e-06
1.77291e-05
2.48851e-05
3.53692e-05
3.85487e-05
2.89637e-05
2.36613e-05
2.06794e-05
2.10486e-05
1.57579e-05
2.50468e-05
2.88349e-05
2.92589e-05
2.69873e-05
3.17841e-05
2.54324e-05
2.17952e-05
1.99877e-05
4.96128e-05
5.15202e-05
4.56665e-05
4.4675e-05
5.06773e-05
4.06389e-05
4.09285e-05
3.94608e-05
4.00134e-05
3.97743e-05
3.86496e-05
4.3243e-05
4.78273e-05
4.95875e-05
4.84206e-05
4.95574e-05
5.25544e-05
5.00021e-05
0.000187812
0.000222992
0.000166202
0.000125561
0.000108469
8.49358e-05
7.38402e-05
6.77803e-05
6.35107e-05
5.93177e-05
5.51482e-05
5.27618e-05
5.23629e-05
5.13492e-05
5.06252e-05
4.96992e-05
4.99696e-05
4.94005e-05
0.000450354
0.000516906
0.000471768
0.00038268
0.000326817
0.000271119
0.000236381
0.00021027
0.000193536
0.000176368
0.000165304
0.000153264
0.000146309
0.000137955
0.000132885
0.000126283
0.000122968
0.000117594
0.000726129
0.000747127
0.00073395
0.000661634
0.000603401
0.000541213
0.000496722
0.000454097
0.000425848
0.00039452
0.000374409
0.000350581
0.000336063
0.000317585
0.000306877
0.00029193
0.000284326
0.000272035
0.000829659
0.000823537
0.000821122
0.000797835
0.000768215
0.000730683
0.000702009
0.000668193
0.000643907
0.000613867
0.000593024
0.000566975
0.000549842
0.000527611
0.000514041
0.000494952
0.000484765
0.000468285
0.000847516
0.000849233
0.000844727
0.000839515
0.000829563
0.000814548
0.000802804
0.000786429
0.000773835
0.000756148
0.000742746
0.000724812
0.000711939
0.000694868
0.000683481
0.000667694
0.000658264
0.000643875
0.000850556
0.000850562
0.000849727
0.000847336
0.000843932
0.000838696
0.000833267
0.000826388
0.000820223
0.000811885
0.000804674
0.000794615
0.000786844
0.00077631
0.000768756
0.000758294
0.000751547
0.00074133
0.000851357
0.000850619
0.000850052
0.000848853
0.000847598
0.000845491
0.0008434
0.000840614
0.00083783
0.000834222
0.00083055
0.000826192
0.000821939
0.000816542
0.000812081
0.000806306
0.00080192
0.000795898
0.000851544
0.000850637
0.000849961
0.000849073
0.000848347
0.000847316
0.000846417
0.000845207
0.000844098
0.000842573
0.00084113
0.000839172
0.000837386
0.000835013
0.000832921
0.000830317
0.000828036
0.000825174
0.000851562
0.000850661
0.000849911
0.000849093
0.000848413
0.000847642
0.000846997
0.000846239
0.000845595
0.000844792
0.000844092
0.000843186
0.000842392
0.000841359
0.000840475
0.000839315
0.000838377
0.0008371
0.000851551
0.000850673
0.000849885
0.000849094
0.000848388
0.00084767
0.000847032
0.000846375
0.00084579
0.000845173
0.000844621
0.000844024
0.000843489
0.000842897
0.000842367
0.000841768
0.000841239
0.000840635
0.000851543
0.000850676
0.000849869
0.000849089
0.000848362
0.000847657
0.000847001
0.000846362
0.000845766
0.000845183
0.000844638
0.000844103
0.000843602
0.000843107
0.000842642
0.00084218
0.000841744
0.000841312
0.000851539
0.000850676
0.00084986
0.000849081
0.000848345
0.000847641
0.000846974
0.000846336
0.00084573
0.00084515
0.000844598
0.000844069
0.000843564
0.00084308
0.000842619
0.000842175
0.000841751
0.000841344
0.000851538
0.000850674
0.000849854
0.000849074
0.000848333
0.000847627
0.000846955
0.000846315
0.000845704
0.000845121
0.000844564
0.000844032
0.000843524
0.000843037
0.000842572
0.000842127
0.000841701
0.000841294
0.000851537
0.000850673
0.000849851
0.000849069
0.000848326
0.000847618
0.000846943
0.0008463
0.000845687
0.000845101
0.000844542
0.000844007
0.000843496
0.000843007
0.000842539
0.000842092
0.000841663
0.000841253
0.000851538
0.000850676
0.000849855
0.000849074
0.00084833
0.000847622
0.000846947
0.000846303
0.000845688
0.000845101
0.000844541
0.000844004
0.000843492
0.000843001
0.000842532
0.000842083
0.000841653
0.000841242
0.000851538
0.000850676
0.000849854
0.000849073
0.000848329
0.00084762
0.000846944
0.000846299
0.000845684
0.000845096
0.000844534
0.000843997
0.000843484
0.000842992
0.000842522
0.000842072
0.000841641
0.000841229
0.000851537
0.000850673
0.00084985
0.000849067
0.000848322
0.000847612
0.000846935
0.00084629
0.000845674
0.000845085
0.000844523
0.000843985
0.000843471
0.000842979
0.000842509
0.000842059
0.000841627
0.000841215
0.000851537
0.000850674
0.000849851
0.00084907
0.000848325
0.000847617
0.000846941
0.000846296
0.000845681
0.000845093
0.000844531
0.000843995
0.000843481
0.00084299
0.000842519
0.000842069
0.000841638
0.000841226
0.000851537
0.000850676
0.000849854
0.000849076
0.000848332
0.000847627
0.000846951
0.00084631
0.000845694
0.000845109
0.000844546
0.00084401
0.000843493
0.000843001
0.000842525
0.000842071
0.000841631
0.000841212
0.000851532
0.000850684
0.000849857
0.000849088
0.000848342
0.000847645
0.000846965
0.000846327
0.000845694
0.000845099
0.0008445
0.000843937
0.000843365
0.000842829
0.000842277
0.00084176
0.00084122
0.000840716
0.000851506
0.000850714
0.000849859
0.000849114
0.000848351
0.000847643
0.00084689
0.000846156
0.000845342
0.000844522
0.000843605
0.000842706
0.000841697
0.000840735
0.00083963
0.000838613
0.000837422
0.000836358
0.000851391
0.000850911
0.00084984
0.000849056
0.000847961
0.000846793
0.000845228
0.000843472
0.000841223
0.000838725
0.000835898
0.000832911
0.000829723
0.000826411
0.000822959
0.000819647
0.000815922
0.000812683
0.000851377
0.000851993
0.000848799
0.000846081
0.000841556
0.000836646
0.000830037
0.000822597
0.00081325
0.000804221
0.000793926
0.000784544
0.000774218
0.000765128
0.000755141
0.000746623
0.000737107
0.000729304
0.000855757
0.000854839
0.000833669
0.000819745
0.000797607
0.000774816
0.000748545
0.000724356
0.000698755
0.000676557
0.000653726
0.000634597
0.000614891
0.000598805
0.00058191
0.000568487
0.000553935
0.00054278
0.000886188
0.000827551
0.000748538
0.000673963
0.000609725
0.000556763
0.000509115
0.000471604
0.000437929
0.000411745
0.00038737
0.000368492
0.000350135
0.000336092
0.000321768
0.000311059
0.000299576
0.000291248
0.00107601
0.000527458
0.000406722
0.00031414
0.000260682
0.0002245
0.000197974
0.000179316
0.000164668
0.000153848
0.0001447
0.000137728
0.000131497
0.000126701
0.000122139
0.000118674
0.000115173
0.000112573
0.00049982
0.00012129
8.51746e-05
7.1175e-05
6.40611e-05
6.02255e-05
5.82708e-05
5.72861e-05
5.70425e-05
5.72104e-05
5.77811e-05
5.85646e-05
5.96967e-05
6.08667e-05
6.22935e-05
6.37464e-05
6.43692e-05
6.43705e-05
1.25056e-05
1.65282e-05
1.94761e-05
2.13387e-05
2.24774e-05
2.29273e-05
2.30778e-05
2.30524e-05
2.28333e-05
2.255e-05
2.22431e-05
2.19346e-05
2.16391e-05
2.13634e-05
2.11114e-05
2.08832e-05
2.06786e-05
2.0499e-05
1.74044e-12
1.96279e-10
9.96667e-10
3.91304e-09
1.30889e-08
4.02994e-08
1.03739e-07
2.03418e-07
3.26199e-07
4.52936e-07
5.64802e-07
6.50738e-07
7.07045e-07
7.27501e-07
7.19573e-07
6.86388e-07
6.36074e-07
5.56032e-07
4.75171e-07
4.0741e-07
3.43923e-07
2.82459e-07
2.22522e-07
1.66412e-07
1.15403e-07
7.31868e-08
4.25039e-08
2.31403e-08
1.24192e-08
6.92131e-09
4.17356e-09
2.85797e-09
2.54411e-09
3.63376e-09
4.58072e-09
2.87766e-08
5.95516e-08
1.48991e-07
2.79862e-07
3.80818e-07
3.871e-07
3.54428e-07
2.98108e-07
2.94371e-07
3.18273e-07
4.18086e-07
5.55201e-07
1.09835e-06
2.50797e-06
7.80049e-06
2.10063e-05
3.74554e-05
4.6799e-05
5.10659e-05
4.48049e-05
4.4256e-05
4.53115e-05
4.06832e-05
3.42447e-05
3.14232e-05
3.15935e-05
3.36898e-05
3.44838e-05
3.50017e-05
3.5807e-05
3.63813e-05
3.70173e-05
3.76321e-05
3.82128e-05
3.88053e-05
3.93697e-05
3.99369e-05
4.04903e-05
4.10404e-05
4.15835e-05
4.21227e-05
4.26572e-05
4.31889e-05
4.37168e-05
4.4243e-05
4.47658e-05
4.52878e-05
4.58066e-05
4.63248e-05
4.68398e-05
4.73542e-05
4.78654e-05
4.83757e-05
4.8883e-05
4.93891e-05
4.98923e-05
5.03932e-05
5.08918e-05
5.13889e-05
5.18854e-05
5.23839e-05
5.28885e-05
5.3406e-05
5.39361e-05
5.44694e-05
5.50109e-05
5.55616e-05
5.61217e-05
5.66927e-05
5.72747e-05
5.78689e-05
5.84758e-05
5.90963e-05
5.97313e-05
6.03815e-05
6.1048e-05
6.17316e-05
6.24336e-05
6.31545e-05
6.38962e-05
6.46593e-05
6.54463e-05
6.62582e-05
6.70992e-05
6.79718e-05
6.88842e-05
6.98441e-05
7.08688e-05
7.19536e-05
7.29864e-05
7.40537e-05
7.51442e-05
7.60964e-05
7.74121e-05
7.8403e-05
7.97609e-05
7.97018e-05
7.94483e-05
7.9137e-05
7.88225e-05
7.84909e-05
7.81473e-05
7.77895e-05
7.74197e-05
7.7038e-05
7.66463e-05
7.62445e-05
7.58345e-05
7.54146e-05
7.49869e-05
7.45511e-05
7.41085e-05
7.36595e-05
7.32061e-05
7.2749e-05
7.22898e-05
7.18294e-05
7.13683e-05
7.09083e-05
7.04499e-05
6.99953e-05
6.9545e-05
6.91005e-05
6.86648e-05
6.82395e-05
6.78178e-05
6.74172e-05
6.70114e-05
6.66347e-05
6.62619e-05
6.591e-05
6.55433e-05
6.52676e-05
6.49075e-05
6.46702e-05
6.43282e-05
6.41106e-05
6.38266e-05
6.35968e-05
6.33611e-05
6.31258e-05
6.28821e-05
6.2584e-05
6.22358e-05
6.12104e-05
7.87862e-12
1.2741e-09
1.74624e-08
9.46271e-08
4.16231e-07
1.3202e-06
3.04628e-06
5.54847e-06
8.6317e-06
1.20792e-05
1.55522e-05
1.87446e-05
2.13328e-05
2.32717e-05
2.42244e-05
2.44194e-05
2.40438e-05
2.32875e-05
2.08998e-05
1.80112e-05
1.42838e-05
1.08405e-05
7.90766e-06
5.58563e-06
3.72219e-06
2.40565e-06
1.53032e-06
9.79204e-07
6.36229e-07
4.21438e-07
3.01783e-07
2.42233e-07
2.34305e-07
2.85884e-07
2.13453e-07
1.9143e-06
3.76245e-06
9.04423e-06
1.5413e-05
1.94003e-05
2.04711e-05
1.93235e-05
1.84084e-05
1.68051e-05
1.6888e-05
1.70054e-05
1.99983e-05
2.68964e-05
3.85482e-05
4.95029e-05
6.16434e-05
7.19644e-05
8.18383e-05
9.087e-05
0.000100912
0.000114853
0.000128856
0.000142789
0.000156204
0.000167848
0.000183623
0.000198316
0.000211956
0.000225515
0.000238534
0.000250808
0.000262692
0.000273978
0.000284931
0.00029546
0.000305657
0.000315564
0.000325204
0.000334632
0.000343858
0.000352921
0.00036183
0.00037061
0.000379268
0.000387822
0.000396276
0.00040464
0.000412919
0.000421118
0.000429237
0.000437278
0.00044524
0.00045312
0.000460912
0.000468607
0.000476194
0.000483647
0.000490937
0.000498019
0.000504833
0.000511297
0.000517298
0.00052273
0.000527766
0.000532734
0.000537562
0.00054226
0.000546825
0.00055125
0.000555532
0.000559665
0.000563644
0.000567463
0.000571117
0.000574601
0.000577909
0.000581036
0.000583976
0.000586724
0.000589275
0.000591624
0.000593764
0.000595691
0.000597398
0.000598882
0.00060014
0.000601182
0.000602037
0.000602781
0.000603569
0.000603925
0.000603968
0.000603638
0.000603374
0.000602482
0.000602204
0.00060158
0.000601038
0.000600275
0.000599339
0.000598222
0.000596941
0.000595493
0.000593883
0.000592118
0.00059023
0.000588211
0.000586064
0.000583781
0.000581384
0.000578869
0.000576245
0.000573526
0.000570722
0.000567846
0.000564916
0.000561924
0.000558894
0.000555823
0.000552719
0.000549643
0.000546548
0.000543483
0.000540439
0.000537441
0.000534492
0.000531595
0.000528781
0.000525982
0.000523541
0.000520841
0.000518494
0.000516171
0.000513769
0.000511866
0.000509683
0.000507831
0.000505903
0.000504136
0.000502363
0.000500529
0.000498524
0.00049599
0.00049267
0.00048053
2.01947e-11
3.42978e-09
6.45416e-08
3.92106e-07
1.19283e-06
3.23982e-06
6.92495e-06
1.21012e-05
1.84622e-05
2.57093e-05
3.32093e-05
4.03834e-05
4.68168e-05
5.22115e-05
5.6321e-05
5.91943e-05
6.05264e-05
6.12212e-05
5.99887e-05
5.74021e-05
5.27162e-05
4.70679e-05
3.99362e-05
3.24421e-05
2.54611e-05
1.91433e-05
1.38521e-05
9.71584e-06
6.72504e-06
4.57576e-06
3.25787e-06
2.4833e-06
2.16458e-06
2.28771e-06
2.55482e-06
1.11536e-05
2.20686e-05
4.0777e-05
5.29901e-05
5.61905e-05
5.11241e-05
4.18444e-05
4.01093e-05
4.59885e-05
5.35914e-05
6.34221e-05
7.70966e-05
9.00294e-05
0.000103586
0.000121364
0.00014191
0.000164773
0.000190812
0.000219106
0.00025075
0.000284818
0.000318936
0.000352211
0.000384441
0.00041559
0.000446531
0.000475885
0.000503682
0.000530087
0.00055548
0.000579623
0.000602803
0.000624976
0.000646468
0.000667261
0.000687495
0.000707237
0.000726547
0.000745487
0.000764091
0.000782402
0.000800442
0.000818238
0.000835805
0.000853157
0.000870305
0.000887256
0.000904014
0.000920579
0.000936951
0.000953124
0.00096909
0.000984839
0.00100035
0.00101562
0.00103061
0.00104529
0.00105962
0.00107357
0.00108709
0.00110014
0.00111273
0.00112487
0.00113674
0.00114837
0.00115973
0.00117081
0.00118161
0.00119211
0.00120231
0.00121218
0.00122172
0.00123092
0.00123977
0.00124825
0.00125636
0.00126407
0.00127139
0.0012783
0.00128478
0.00129084
0.00129645
0.00130161
0.00130632
0.00131057
0.00131436
0.0013177
0.00132061
0.00132313
0.00132525
0.00132682
0.00132795
0.00132836
0.00132876
0.00132877
0.00132871
0.0013279
0.00132681
0.00132526
0.00132331
0.00132096
0.00131823
0.00131512
0.00131166
0.00130785
0.00130373
0.0012993
0.00129457
0.00128955
0.00128427
0.00127872
0.00127294
0.00126695
0.00126076
0.00125438
0.00124786
0.00124122
0.00123449
0.00122767
0.00122079
0.00121389
0.00120696
0.00120007
0.00119321
0.00118631
0.00117972
0.001173
0.00116672
0.0011603
0.00115447
0.00114848
0.00114298
0.00113749
0.00113222
0.00112748
0.0011226
0.0011181
0.00111367
0.00110948
0.00110529
0.00110093
0.00109618
0.00109047
0.00108232
0.00106061
7.20841e-11
1.21474e-08
1.92663e-07
8.56362e-07
2.70488e-06
7.53327e-06
1.49572e-05
2.48099e-05
3.61221e-05
4.77794e-05
5.90766e-05
6.94919e-05
7.84517e-05
8.56542e-05
9.11402e-05
9.50386e-05
9.69434e-05
9.73309e-05
9.62588e-05
9.36402e-05
8.9293e-05
8.40871e-05
7.69908e-05
6.85813e-05
5.90438e-05
4.90895e-05
3.95431e-05
3.10753e-05
2.41342e-05
1.88031e-05
1.46649e-05
1.1915e-05
1.02826e-05
1.21228e-05
2.0347e-05
3.76477e-05
5.71735e-05
7.15862e-05
7.30673e-05
7.19329e-05
7.27486e-05
7.65239e-05
8.43615e-05
9.60247e-05
0.000111386
0.000123678
0.000142599
0.000169053
0.000195977
0.00023154
0.000269474
0.000312069
0.000357375
0.000404965
0.000453973
0.000503208
0.000551469
0.000598162
0.000643195
0.000686701
0.000728566
0.000768391
0.000806587
0.000843218
0.000878511
0.000912348
0.000945038
0.000976681
0.00100746
0.00103746
0.00106678
0.00109549
0.00112368
0.00115139
0.00117865
0.00120552
0.00123201
0.00125815
0.00128394
0.00130941
0.00133456
0.00135939
0.0013839
0.0014081
0.00143198
0.00145552
0.00147873
0.00150158
0.00152406
0.00154616
0.00156784
0.0015891
0.0016099
0.00163023
0.00165008
0.00166945
0.00168836
0.00170684
0.00172495
0.00174267
0.00176
0.00177691
0.00179339
0.00180942
0.00182499
0.00184009
0.0018547
0.0018688
0.00188237
0.00189541
0.0019079
0.00191982
0.00193117
0.00194191
0.00195205
0.00196157
0.00197046
0.0019787
0.0019863
0.00199325
0.00199955
0.0020052
0.00201023
0.00201463
0.00201838
0.00202146
0.00202388
0.00202555
0.00202667
0.00202741
0.0020277
0.00202709
0.00202589
0.00202404
0.00202157
0.00201851
0.00201486
0.00201064
0.00200587
0.00200058
0.00199478
0.00198849
0.00198173
0.00197451
0.00196687
0.00195882
0.0019504
0.00194163
0.00193255
0.00192319
0.0019136
0.00190381
0.00189384
0.00188372
0.00187349
0.00186318
0.00185282
0.00184246
0.00183211
0.00182182
0.00181169
0.00180168
0.00179192
0.00178232
0.00177311
0.00176406
0.00175537
0.00174695
0.00173883
0.00173117
0.00172363
0.00171647
0.00170954
0.00170298
0.00169642
0.00168966
0.00168243
0.00167402
0.00166214
0.00163675
2.39529e-10
3.5527e-08
4.29367e-07
2.07303e-06
7.21391e-06
1.7297e-05
3.17062e-05
4.84833e-05
6.59364e-05
8.26418e-05
9.74443e-05
0.000109641
0.000118874
0.00012578
0.000129969
0.00013208
0.000132444
0.000131306
0.000128865
0.000125203
0.000120136
0.000114232
0.000106986
9.85573e-05
8.86806e-05
7.7746e-05
6.627e-05
5.51938e-05
4.55006e-05
3.7561e-05
2.85948e-05
2.43604e-05
2.56559e-05
3.66587e-05
5.77128e-05
7.63635e-05
8.75313e-05
9.3542e-05
9.76241e-05
0.000102747
0.000111487
0.000125251
0.000139826
0.000153297
0.000173933
0.000205731
0.000239084
0.000281911
0.000327405
0.000380106
0.000434279
0.000491969
0.00055072
0.000610353
0.000669811
0.000728356
0.000785406
0.000840673
0.000894086
0.000945681
0.000995268
0.00104344
0.00108963
0.00113425
0.00117739
0.00121917
0.00125975
0.00129927
0.00133786
0.0013756
0.00141258
0.00144888
0.00148456
0.00151965
0.00155421
0.00158826
0.00162182
0.00165491
0.00168754
0.00171972
0.00175146
0.00178275
0.0018136
0.001844
0.00187396
0.00190346
0.0019325
0.00196107
0.00198915
0.00201673
0.0020438
0.00207036
0.00209639
0.00212188
0.00214685
0.0021713
0.00219525
0.0022187
0.00224167
0.00226413
0.00228607
0.00230747
0.00232833
0.00234862
0.00236833
0.00238744
0.00240594
0.0024238
0.00244102
0.00245758
0.00247347
0.00248867
0.00250316
0.00251694
0.00252998
0.00254228
0.00255383
0.00256461
0.00257463
0.00258387
0.00259233
0.00260002
0.00260693
0.00261308
0.00261843
0.002623
0.00262679
0.00262978
0.0026319
0.00263343
0.00263435
0.00263431
0.00263347
0.00263183
0.00262941
0.00262625
0.00262234
0.00261771
0.00261238
0.00260637
0.0025997
0.00259239
0.00258446
0.00257594
0.00256684
0.00255721
0.00254707
0.00253646
0.00252542
0.002514
0.00250224
0.00249018
0.00247785
0.00246529
0.00245255
0.00243965
0.00242665
0.00241359
0.00240051
0.00238747
0.00237454
0.00236175
0.00234918
0.00233681
0.00232477
0.002313
0.00230159
0.00229052
0.00227981
0.00226953
0.00225955
0.00224997
0.00224079
0.00223194
0.00222322
0.00221428
0.00220499
0.00219461
0.00218057
0.0021553
7.46589e-10
8.68763e-08
1.06686e-06
5.48447e-06
1.77715e-05
3.70639e-05
5.9904e-05
8.37e-05
0.000105326
0.000123147
0.000136963
0.000147451
0.000154681
0.000159112
0.000161366
0.000161809
0.0001607
0.000158233
0.000154585
0.000149803
0.000143816
0.000137088
0.00012928
0.000120207
0.000109814
9.57099e-05
7.9493e-05
6.40819e-05
5.09056e-05
4.23391e-05
3.93202e-05
4.5304e-05
6.1776e-05
8.28957e-05
9.99478e-05
0.000111679
0.000119403
0.000126077
0.000135596
0.000150903
0.000164767
0.000178296
0.000200768
0.000232005
0.000268753
0.000314973
0.000365308
0.000422932
0.000482848
0.000546833
0.000611695
0.000678138
0.000744691
0.000811067
0.000876563
0.000940767
0.00100332
0.00106391
0.00112306
0.00118063
0.00123624
0.00129022
0.00134249
0.00139325
0.00144259
0.00149062
0.00153747
0.00158326
0.00162807
0.00167199
0.0017151
0.00175745
0.00179909
0.00184005
0.00188038
0.00192009
0.0019592
0.00199773
0.00203567
0.00207304
0.00210984
0.00214607
0.00218174
0.00221684
0.00225137
0.00228534
0.00231873
0.00235154
0.00238377
0.00241541
0.00244646
0.00247691
0.00250676
0.002536
0.00256466
0.00259273
0.00262022
0.00264712
0.00267343
0.00269914
0.00272424
0.0027487
0.00277253
0.00279571
0.00281823
0.00284007
0.00286121
0.00288164
0.00290136
0.00292034
0.00293859
0.00295608
0.0029728
0.00298874
0.0030039
0.00301825
0.00303179
0.00304451
0.00305641
0.00306747
0.0030777
0.0030871
0.00309565
0.00310335
0.00311022
0.00311622
0.00312139
0.00312571
0.00312908
0.00313161
0.00313348
0.00313435
0.0031343
0.00313336
0.00313154
0.00312886
0.00312534
0.00312097
0.00311579
0.00310982
0.00310306
0.00309554
0.00308729
0.00307831
0.00306865
0.00305832
0.00304737
0.00303584
0.00302376
0.00301119
0.00299816
0.00298472
0.00297091
0.00295678
0.00294236
0.00292771
0.00291287
0.0028979
0.00288284
0.00286776
0.00285273
0.0028378
0.00282304
0.00280847
0.00279419
0.00278019
0.00276654
0.00275323
0.00274031
0.00272779
0.00271563
0.00270392
0.00269265
0.00268177
0.00267113
0.00266043
0.00264962
0.00263752
0.00262243
0.00259899
2.32946e-09
2.18658e-07
2.76947e-06
1.45031e-05
3.75841e-05
6.67577e-05
9.59679e-05
0.000120606
0.000140277
0.000155219
0.000166629
0.000174392
0.000179276
0.000181898
0.000182664
0.000181874
0.000179743
0.000176382
0.000171747
0.000165853
0.000158805
0.000150669
0.000141077
0.000129805
0.000110814
9.40771e-05
7.95554e-05
6.76006e-05
6.10816e-05
6.40852e-05
7.41216e-05
9.28825e-05
0.000117516
0.000131201
0.000141795
0.000150817
0.000161086
0.000176296
0.000187564
0.000200135
0.000221909
0.000251784
0.000288376
0.000333624
0.000385516
0.000444656
0.000507483
0.000574417
0.000642904
0.000713241
0.000784006
0.000855122
0.000925828
0.000995858
0.00106471
0.001132
0.00119817
0.00126286
0.00132585
0.00138724
0.00144697
0.00150514
0.00156179
0.00161702
0.00167091
0.00172356
0.00177506
0.00182549
0.00187494
0.00192347
0.00197114
0.002018
0.00206407
0.00210939
0.00215397
0.00219784
0.00224101
0.00228348
0.00232525
0.00236634
0.00240674
0.00244647
0.00248552
0.00252389
0.0025616
0.00259863
0.00263499
0.00267069
0.00270572
0.00274008
0.00277378
0.00280681
0.00283917
0.00287086
0.00290187
0.00293221
0.00296186
0.00299084
0.00301915
0.00304679
0.00307376
0.00310004
0.00312562
0.00315051
0.0031747
0.00319817
0.00322092
0.00324297
0.00326429
0.00328486
0.00330468
0.00332372
0.00334199
0.00335947
0.00337615
0.00339202
0.00340707
0.0034213
0.0034347
0.00344726
0.00345897
0.00346984
0.00347985
0.003489
0.00349732
0.00350469
0.00351123
0.00351692
0.00352166
0.0035254
0.00352843
0.00353046
0.00353152
0.00353163
0.00353079
0.00352902
0.00352634
0.00352276
0.00351834
0.00351303
0.00350686
0.00349983
0.00349195
0.00348326
0.00347377
0.00346351
0.00345252
0.00344083
0.00342848
0.00341552
0.00340199
0.00338794
0.0033734
0.00335843
0.00334307
0.00332737
0.00331137
0.00329514
0.00327874
0.00326223
0.00324569
0.00322916
0.00321273
0.00319644
0.00318036
0.00316453
0.003149
0.0031338
0.00311894
0.00310446
0.00309035
0.00307674
0.00306362
0.00305094
0.00303862
0.00302646
0.00301431
0.00300129
0.00298589
0.00296451
6.83989e-09
5.67487e-07
7.23441e-06
3.01939e-05
6.39302e-05
9.90257e-05
0.000129393
0.000153115
0.0001703
0.000182366
0.000189972
0.000194535
0.000196958
0.000197551
0.000196598
0.000194282
0.000190639
0.000185646
0.000179508
0.000172311
0.00016405
0.000154392
0.000143529
0.000124147
0.000107078
9.42472e-05
8.73275e-05
8.75884e-05
8.92821e-05
0.000103035
0.00012445
0.00014609
0.000165842
0.000180101
0.000190874
0.000199562
0.000207542
0.000219303
0.000239043
0.000266185
0.000300834
0.000343409
0.000393166
0.00045034
0.000513184
0.000580648
0.000650535
0.000722444
0.000795209
0.000868686
0.000942224
0.00101554
0.00108826
0.00115972
0.00123034
0.00129999
0.00136815
0.00143485
0.00150006
0.00156379
0.00162604
0.00168685
0.00174628
0.0018044
0.00186126
0.00191694
0.00197152
0.00202506
0.00207761
0.00212924
0.00217999
0.00222989
0.00227895
0.0023272
0.00237465
0.00242129
0.00246715
0.00251222
0.0025565
0.0026
0.00264272
0.00268467
0.00272585
0.00276626
0.00280592
0.00284482
0.00288297
0.00292039
0.00295708
0.00299304
0.00302828
0.0030628
0.0030966
0.00312967
0.00316202
0.00319362
0.0032245
0.00325468
0.00328417
0.00331295
0.00334105
0.00336844
0.00339512
0.00342111
0.00344638
0.00347093
0.00349477
0.00351788
0.00354025
0.00356189
0.00358278
0.00360293
0.00362232
0.00364094
0.00365879
0.00367586
0.00369215
0.00370764
0.00372233
0.00373622
0.00374929
0.00376154
0.00377297
0.0037836
0.00379333
0.00380215
0.00381018
0.00381736
0.00382364
0.00382891
0.00383335
0.00383686
0.00383936
0.00384089
0.00384143
0.003841
0.00383959
0.00383722
0.00383389
0.00382962
0.00382439
0.00381822
0.00381113
0.00380312
0.00379422
0.00378446
0.00377385
0.00376244
0.00375027
0.00373736
0.00372377
0.00370953
0.00369469
0.0036793
0.0036634
0.00364704
0.00363028
0.00361317
0.00359578
0.00357818
0.00356043
0.00354261
0.00352479
0.00350702
0.00348937
0.0034719
0.00345466
0.00343769
0.00342103
0.00340468
0.00338874
0.00337337
0.00335852
0.00334417
0.00333026
0.00331669
0.00330332
0.00328953
0.0032741
0.00325479
1.75417e-08
1.38121e-06
1.58296e-05
5.05362e-05
9.20166e-05
0.000128725
0.000157429
0.000178164
0.000192436
0.000201666
0.0002068
0.000208775
0.00020837
0.00020625
0.000202812
0.00019823
0.000192496
0.000185607
0.000177495
0.000168393
0.000158211
0.000147072
0.00013554
0.000122609
0.00011267
0.000105512
0.000106268
0.000116435
0.000132781
0.000151553
0.000170831
0.000188223
0.000202486
0.000212691
0.000222769
0.000235137
0.000253011
0.000277032
0.000308472
0.000347392
0.000393524
0.000446688
0.000506203
0.000571342
0.000640397
0.000712036
0.000785045
0.000859069
0.000933536
0.00100817
0.00108259
0.00115621
0.00122904
0.00130152
0.00137272
0.00144273
0.00151142
0.00157877
0.00164475
0.00170936
0.00177262
0.00183458
0.00189526
0.00195474
0.00201305
0.00207025
0.00212641
0.00218157
0.00223578
0.0022891
0.00234155
0.00239315
0.00244392
0.00249386
0.00254293
0.00259116
0.00263854
0.00268507
0.00273075
0.00277557
0.00281954
0.00286267
0.00290497
0.00294645
0.00298717
0.00302708
0.00306618
0.00310447
0.00314196
0.00317866
0.00321457
0.00324972
0.00328409
0.0033177
0.00335056
0.0033827
0.0034141
0.0034448
0.00347478
0.00350406
0.00353263
0.0035605
0.00358767
0.00361414
0.00363992
0.00366501
0.00368939
0.00371308
0.00373607
0.00375836
0.00377994
0.00380083
0.003821
0.00384045
0.0038592
0.00387721
0.0038945
0.00391105
0.00392686
0.00394193
0.00395624
0.0039698
0.00398262
0.00399465
0.00400575
0.00401611
0.0040257
0.00403446
0.00404239
0.00404935
0.00405544
0.00406063
0.00406483
0.00406804
0.00407025
0.00407147
0.0040717
0.00407092
0.00406915
0.00406637
0.00406258
0.00405779
0.004052
0.00404521
0.00403745
0.00402872
0.00401906
0.00400848
0.00399702
0.00398472
0.00397161
0.00395772
0.00394311
0.00392782
0.00391189
0.00389537
0.00387832
0.0038608
0.00384287
0.00382461
0.00380608
0.00378736
0.00376852
0.00374963
0.00373076
0.00371197
0.00369333
0.00367488
0.00365668
0.00363874
0.00362104
0.00360392
0.00358732
0.00357123
0.00355564
0.00354052
0.00352577
0.00351096
0.00349518
0.00347715
3.89887e-08
3.14131e-06
2.8461e-05
7.40506e-05
0.00011975
0.000156424
0.000182428
0.000200208
0.000211109
0.000216239
0.000217324
0.000215604
0.000211931
0.000206848
0.000200582
0.00019315
0.000184649
0.000174724
0.000164486
0.000154607
0.000144762
0.00013548
0.000127763
0.00012377
0.000125099
0.000132246
0.000144055
0.00015918
0.000175904
0.000192589
0.000207952
0.000220662
0.0002326
0.000246507
0.000263464
0.000285391
0.000313376
0.000348229
0.000390049
0.000438482
0.000493114
0.000553469
0.000618745
0.000687862
0.000759431
0.000832494
0.00090636
0.000980674
0.00105508
0.00112924
0.00120263
0.00127574
0.00134815
0.00141957
0.00148985
0.00155893
0.00162677
0.00169335
0.00175865
0.00182268
0.00188546
0.00194704
0.00200747
0.0020668
0.00212509
0.00218238
0.00223871
0.00229409
0.00234861
0.00240233
0.00245524
0.00250738
0.00255875
0.00260941
0.00265944
0.00270863
0.00275691
0.00280426
0.00285068
0.00289617
0.00294072
0.00298433
0.00302703
0.00306881
0.00310965
0.0031496
0.00318873
0.00322704
0.00326455
0.00330127
0.00333722
0.0033724
0.00340681
0.00344048
0.00347341
0.00350562
0.00353711
0.00356788
0.00359795
0.00362731
0.00365599
0.00368398
0.00371129
0.00373793
0.00376391
0.00378924
0.0038139
0.00383791
0.00386128
0.00388399
0.00390606
0.00392749
0.00394827
0.0039684
0.00398788
0.00400671
0.00402489
0.0040424
0.00405924
0.00407542
0.00409092
0.00410575
0.00411993
0.00413324
0.00414588
0.00415781
0.00416901
0.00417945
0.0041891
0.00419788
0.0042058
0.00421285
0.00421893
0.00422403
0.00422814
0.00423126
0.00423337
0.00423446
0.00423453
0.00423355
0.00423153
0.00422844
0.00422429
0.00421907
0.0042128
0.00420548
0.00419712
0.00418775
0.00417738
0.00416606
0.0041538
0.00414064
0.00412662
0.00411179
0.00409618
0.00407985
0.00406284
0.00404523
0.00402708
0.00400845
0.00398942
0.00397006
0.00395047
0.0039307
0.00391083
0.00389093
0.00387107
0.00385132
0.00383174
0.00381237
0.00379329
0.00377464
0.00375647
0.00373882
0.00372172
0.00370518
0.00368917
0.00367339
0.00365716
0.00364021
7.48922e-08
6.40724e-06
4.30328e-05
9.56102e-05
0.000143164
0.000179034
0.000203485
0.000217669
0.000224115
0.000225139
0.000222478
0.000217353
0.000210554
0.000202425
0.000193628
0.000183916
0.000173909
0.000164557
0.000156781
0.000150314
0.000145436
0.000143215
0.000144494
0.000149514
0.000158152
0.000169765
0.000183367
0.000198015
0.000212678
0.000226159
0.000238781
0.000253672
0.000271043
0.000291798
0.000317001
0.000348102
0.000385381
0.000428842
0.000478174
0.000532946
0.000592687
0.000656817
0.000724482
0.000794705
0.000866483
0.000939107
0.0010121
0.00108515
0.00115772
0.00122983
0.00130172
0.00137273
0.00144279
0.00151178
0.00157962
0.00164627
0.00171172
0.00177598
0.00183907
0.001901
0.00196172
0.00202136
0.00208001
0.00213772
0.00219456
0.00225063
0.00230611
0.00236113
0.00241545
0.00246903
0.00252187
0.00257398
0.00262535
0.00267594
0.00272565
0.00277451
0.00282245
0.0028695
0.00291566
0.00296091
0.00300523
0.00304863
0.00309111
0.0031327
0.00317343
0.00321331
0.00325236
0.0032906
0.00332803
0.00336467
0.00340053
0.00343562
0.00346995
0.00350353
0.00353638
0.00356849
0.00359989
0.00363059
0.00366059
0.00368991
0.00371856
0.00374655
0.0037739
0.00380061
0.0038267
0.00385218
0.00387704
0.00390131
0.00392498
0.00394807
0.00397057
0.00399249
0.00401383
0.00403459
0.00405478
0.00407439
0.00409343
0.00411187
0.00412973
0.004147
0.00416368
0.0041798
0.00419519
0.00420999
0.00422415
0.00423767
0.00425053
0.00426271
0.00427416
0.00428484
0.00429472
0.00430376
0.00431188
0.004319
0.00432516
0.00433035
0.00433453
0.00433769
0.00433981
0.00434087
0.00434084
0.0043397
0.00433745
0.00433408
0.00432957
0.00432394
0.00431718
0.0043093
0.00430033
0.00429027
0.00427916
0.00426702
0.00425389
0.00423981
0.00422481
0.00420894
0.00419226
0.00417482
0.00415669
0.00413794
0.00411865
0.0040989
0.00407876
0.00405831
0.00403764
0.00401681
0.0039959
0.003975
0.00395418
0.00393351
0.00391307
0.00389299
0.00387334
0.00385421
0.00383564
0.0038177
0.00380041
0.00378358
0.00376667
0.00375041
1.22531e-07
1.12065e-05
5.87053e-05
0.000117435
0.000166297
0.000200607
0.000221278
0.000231309
0.000233811
0.000231258
0.000225512
0.000217574
0.000208797
0.000199515
0.000190298
0.00018173
0.000173922
0.000168398
0.00016494
0.000163485
0.000164439
0.000168081
0.000174399
0.000183119
0.000193807
0.000205991
0.000218948
0.000231771
0.00024449
0.000259137
0.000276814
0.000297039
0.000320504
0.000348574
0.000381793
0.000420515
0.000464574
0.000513676