/*--------------------------------*- C++ -*----------------------------------*\
  =========                 |
  \\      /  F ield         | OpenFOAM: The Open Source CFD Toolbox
   \\    /   O peration     | Website:  https://openfoam.org
    \\  /    A nd           | Version:  8
     \\/     M anipulation  |
\*---------------------------------------------------------------------------*/
FoamFile
{
    version     2.0;
    format      ascii;
    class       volScalarField;
    location    "300";
    object      omega;
}
// * * * * * * * * * * * * * * * * * * * * * * * * * * * * * * * * * * * * * //

dimensions      [0 0 -1 0 0 0 0];

internalField   nonuniform List<scalar> 
12225
(
32582.3
32582.3
32582.3
32582.3
32582.3
46660.9
41812.1
44675.6
41534.1
40440.1
32582.3
32582.3
32582.3
32582.3
32582.3
43259.4
42547.3
46093.4
7166.82
8524.66
11014.4
13008.2
12938.4
16646.3
17044.3
17940.9
17916.5
18108.6
19379.7
17836.5
17223.4
16810.6
17647
17916.9
17228.9
18251.5
1940.7
1670.79
2291.48
3037.78
3558.67
4519.98
5169.92
5592.96
5928.62
6312.27
6665.21
6995.98
7121.85
7279.85
7406.61
7564.28
7571.12
7721.57
819.936
716.733
784.255
964.23
1124.06
1344.26
1531.18
1705.46
1836.02
1990.75
2098.79
2233.6
2312.89
2421.18
2483.47
2581.11
2622.82
2714.62
512.659
496.232
503.129
554.992
605.419
670.71
727
789.961
837.169
896.389
937.298
991.897
1025.93
1075.18
1102.9
1148.19
1169.3
1211.33
450.089
450.807
449.789
460.211
475.462
497.087
514.952
538.118
555.658
579.476
596.489
619.962
635.413
657.796
670.992
692.222
702.65
722.78
440.997
437.455
437.352
437.558
440.498
446.267
450.693
457.874
463.24
471.816
478.114
487.547
494.014
503.629
509.6
519.068
524.133
533.307
439.499
436.839
434.809
433.604
433.091
433.578
434.365
435.961
437.327
439.88
441.946
445.615
448.144
452.299
454.892
459.26
461.599
466.109
439.103
436.826
434.638
432.853
431.243
430.149
429.191
428.656
428.227
428.263
428.415
428.95
429.506
430.685
431.457
432.948
433.806
435.56
439.007
436.814
434.664
432.73
430.848
429.22
427.649
426.321
425.042
424.042
423.082
422.434
421.769
421.442
421.038
420.926
420.722
420.837
438.995
436.797
434.669
432.699
430.784
429.025
427.315
425.757
424.239
422.882
421.558
420.406
419.271
418.313
417.346
416.566
415.735
415.118
438.998
436.785
434.667
432.677
430.768
428.975
427.252
425.637
424.08
422.626
421.224
419.92
418.66
417.495
416.365
415.329
414.316
413.394
439
436.778
434.663
432.663
430.756
428.952
427.229
425.598
424.039
422.561
421.148
419.808
418.527
417.312
416.148
415.046
413.989
412.988
439.001
436.775
434.66
432.654
430.747
428.936
427.213
425.575
424.014
422.53
421.114
419.766
418.48
417.254
416.084
414.968
413.902
412.886
439.001
436.773
434.657
432.648
430.74
428.926
427.2
425.559
423.996
422.508
421.09
419.739
418.45
417.221
416.047
414.928
413.859
412.838
439.001
436.772
434.655
432.645
430.734
428.918
427.191
425.547
423.982
422.492
421.072
419.718
418.427
417.196
416.02
414.899
413.828
412.805
439
436.769
434.651
432.639
430.727
428.909
427.18
425.534
423.968
422.476
421.054
419.698
418.405
417.172
415.996
414.873
413.8
412.776
439
436.769
434.651
432.638
430.726
428.908
427.178
425.532
423.965
422.472
421.049
419.693
418.4
417.166
415.988
414.865
413.792
412.767
439.001
436.771
434.654
432.643
430.731
428.914
427.185
425.54
423.973
422.481
421.058
419.702
418.409
417.176
415.999
414.875
413.802
412.778
439.001
436.772
434.656
432.645
430.735
428.918
427.19
425.546
423.98
422.488
421.067
419.712
418.42
417.187
416.011
414.888
413.816
412.792
439.002
436.773
434.658
432.648
430.74
428.924
427.198
425.555
423.992
422.501
421.083
419.73
418.442
417.212
416.041
414.921
413.856
412.838
439.005
436.773
434.663
432.652
430.748
428.932
427.212
425.572
424.021
422.54
421.144
419.809
418.552
417.347
416.217
415.132
414.119
413.143
439.02
436.762
434.671
432.654
430.764
428.962
427.287
425.704
424.253
422.893
421.662
420.499
419.462
418.471
417.613
416.771
416.071
415.361
439.078
436.67
434.697
432.714
431.01
429.465
428.224
427.178
426.464
425.959
425.694
425.583
425.64
425.826
426.141
426.445
427.016
427.388
439.076
436.138
435.288
434.352
434.471
434.93
436.37
438.369
441.489
444.575
448.485
452.035
456.262
459.919
464.249
467.83
472.163
475.548
436.786
434.831
443.522
448.867
459.183
470.6
484.948
498.949
514.903
529.404
545.361
559.217
574.447
587.168
601.425
612.844
626.101
636.168
421.736
450.165
495.933
548.918
604.57
659.602
718.287
771.977
827.169
874.986
924.547
965.929
1010.13
1045.62
1085.26
1115.59
1151.31
1177.14
348.061
715.898
931.713
1208.99
1457.63
1690.61
1911.88
2103.03
2278.95
2423.46
2559.14
2668.14
2775.54
2860.27
2951.05
3020.25
3101.47
3160.16
782.581
3467.09
5185.62
6451.51
7428.81
8129.46
8612.37
8943.11
9157.55
9282.29
9352.3
9372.62
9365.46
9345.76
9318.2
9281.55
9260.35
9234.77
16112.1
21346
23294.8
24364.1
24915.4
25039.9
24986.3
24848.4
24607.3
24339.8
24068
23803.6
23554.1
23322.5
23110.4
22917.4
22742.2
22585.8
11463.3
2494.65
2496.87
2499.12
2501.38
2503.67
2505.98
2508.3
2510.65
2513.02
2515.42
2517.83
2520.27
2522.73
2525.21
2527.72
2530.25
2532.8
2535.37
2537.97
2540.6
2543.25
2545.92
2548.62
2551.34
2554.09
2556.87
2559.67
2562.5
2565.35
2568.23
2571.14
2574.08
2577.04
2580.04
2583.06
2586.11
2589.19
2592.3
2595.43
2598.6
2601.8
2605.03
2608.29
2611.59
2614.91
2618.27
2621.66
2625.08
2628.54
2632.03
2635.55
2639.11
2642.71
2646.33
2650
2653.7
2657.44
2661.21
3220.62
3212.23
3293.91
3463.82
3534.9
3634.51
3720.77
3802.52
3883.4
3958.85
4033.33
4104.54
4174.17
4241.76
4307.74
4372.17
4435.19
4496.85
4557.28
4616.45
4674.5
4731.34
4787.12
4841.71
4895.25
4947.58
4998.83
5048.83
5097.68
5145.23
5191.54
5236.5
5280.08
5322.25
5363.02
5402.4
5440.55
5477.69
5514.25
5549.72
5584.11
5617.38
5649.57
5680.63
5710.58
5739.37
5767
5793.46
5818.72
5842.78
5865.61
5887.22
5907.58
5926.71
5944.56
5961.19
5976.54
5990.68
6003.6
6015.42
6026.17
6036.13
6045.52
6054.96
6064.42
6064.71
6072.81
6068.19
6074.24
6065.78
6069.37
6060.64
6059
6053.3
6047.44
6040.31
6032.33
6023.49
6013.77
6003.23
5991.91
5979.94
5967.24
5953.94
5940.08
5925.64
5910.69
5895.37
5879.8
5864.05
5848.2
5832.31
5816.43
5800.62
5784.97
5769.72
5754.94
5740.86
5727.27
5714.34
5702.09
5690.88
5680.41
5671.44
5664.18
5656.56
5651.57
5647.86
5643.35
5643.67
5641.04
5643.51
5644.28
5648.26
5651.84
5656.11
5660.27
5663.61
5661.71
5654.6
5594.99
11463.3
1993.51
988.424
793.514
667.054
610.089
613.833
607.878
591.499
568.028
542.8
519.181
499.371
484.085
473.73
467.159
468.351
468.701
495.917
533.539
605.23
693.586
791.617
891.639
985.947
1064.54
1122.68
1141.76
1125.58
1083.1
989.662
868.111
717.426
614.293
539.201
483.079
458.784
462.656
477.742
507.395
538.257
575.877
636.269
774.683
993.113
1312.03
1624.77
1851.37
2003.43
2080.87
2103.89
2102.12
2060.49
2028.69
1983.49
1913.31
1858.76
1808.82
1786.44
1790.04
1757.25
1742.88
1734.33
1724.58
1719.21
1717.26
1716.68
1718.68
1721.4
1725.6
1730.62
1736.36
1742.67
1749.36
1756.37
1763.55
1770.86
1778.22
1785.59
1792.92
1800.16
1807.28
1814.26
1821.08
1827.69
1834.11
1840.3
1846.26
1851.99
1857.51
1862.81
1867.96
1873.02
1878.09
1883.36
1889.05
1895.48
1902.99
1911.09
1918.76
1926.24
1933.48
1940.47
1947.22
1953.73
1959.99
1966.01
1971.78
1977.31
1982.59
1987.63
1992.42
1996.98
2001.3
2005.38
2009.24
2012.88
2016.32
2019.57
2022.65
2025.58
2028.36
2030.96
2033.18
2034.64
2036.46
2037.18
2038.4
2038.58
2039.46
2039.04
2038.78
2037.58
2036.21
2034.62
2032.85
2030.89
2028.75
2026.45
2023.99
2021.33
2018.5
2015.53
2012.47
2009.29
2006.03
2002.73
1999.38
1996.03
1992.67
1989.31
1986.01
1982.74
1979.57
1976.54
1973.55
1970.74
1968.03
1965.51
1963.18
1961.03
1959.19
1957.53
1956.42
1954.66
1954.41
1953.54
1953.35
1954.02
1953.7
1954.92
1955.76
1957.45
1959.15
1961.31
1963.86
1966.9
1970.28
1973.26
1989.43
11463.3
2014.16
815.92
633.956
664.272
659.549
625.375
566.762
507.284
452.136
406.332
369.542
340.067
316.67
298.39
284.256
274.092
266.438
263.912
265.174
274.579
288.742
314.404
349.915
394.351
445.473
498.53
547.119
582.475
599.859
592.288
571.24
524.096
466.83
410.666
380.365
389.802
422.817
468.661
538.328
640.38
784.475
974.394
1159.5
1320.98
1456.43
1557.69
1596.58
1599.53
1559.67
1502.72
1443.24
1383.03
1332.13
1285.83
1244.37
1212.62
1188.14
1171.78
1159.84
1149
1141.75
1137
1134.2
1132.5
1132.22
1132.83
1134.45
1136.53
1139.15
1142.12
1145.38
1148.86
1152.5
1156.25
1160.08
1163.96
1167.85
1171.75
1175.63
1179.48
1183.29
1187.04
1190.74
1194.38
1197.95
1201.46
1204.91
1208.32
1211.69
1215.04
1218.41
1221.81
1225.29
1228.88
1232.62
1236.5
1240.49
1244.39
1248.15
1251.79
1255.3
1258.68
1261.94
1265.06
1268.06
1270.93
1273.67
1276.28
1278.76
1281.11
1283.34
1285.43
1287.4
1289.25
1290.97
1292.57
1294.06
1295.43
1296.7
1297.84
1298.86
1299.73
1300.42
1300.91
1301.32
1301.45
1301.54
1301.4
1301.32
1300.84
1300.33
1299.58
1298.74
1297.8
1296.76
1295.61
1294.38
1293.05
1291.64
1290.14
1288.57
1286.93
1285.24
1283.49
1281.71
1279.91
1278.09
1276.27
1274.49
1272.71
1270.96
1269.24
1267.57
1265.95
1264.39
1262.9
1261.48
1260.15
1259.03
1257.79
1256.91
1255.86
1255.25
1254.37
1253.98
1253.45
1253.28
1253.24
1253.05
1253.37
1253.69
1254.32
1255.05
1256.09
1257.52
1259.44
1262.05
1265.63
1278.32
11463.3
2045.36
1008.47
951.965
869.634
740.263
624.173
522.239
445.052
388.182
344.4
309.693
282.462
261.214
244.681
231.847
222.051
214.755
209.739
207.232
207.764
209.704
216.095
226.671
242.995
265.285
292.697
323.023
351.816
374.945
391.487
390.663
381.342
374.053
398.482
481.202
578.323
650.984
728.204
826.142
953.595
1075.32
1161.53
1234
1297.21
1326.57
1309.9
1251.24
1212.83
1153.36
1106.02
1061.54
1024.65
993.946
968.757
948.582
933.346
922.177
914.309
908.559
904.538
902.297
901.138
900.9
901.315
902.485
904.132
906.196
908.538
911.131
913.906
916.828
919.861
922.979
926.159
929.383
932.635
935.902
939.173
942.44
945.694
948.931
952.145
955.334
958.497
961.633
964.744
967.834
970.906
973.968
977.025
980.085
983.154
986.235
989.328
992.423
995.502
998.535
1001.48
1004.32
1007.08
1009.74
1012.3
1014.77
1017.14
1019.41
1021.58
1023.65
1025.61
1027.48
1029.24
1030.89
1032.44
1033.89
1035.24
1036.48
1037.62
1038.65
1039.58
1040.41
1041.13
1041.73
1042.21
1042.56
1042.78
1042.89
1042.85
1042.72
1042.47
1042.15
1041.66
1041.09
1040.41
1039.64
1038.8
1037.87
1036.87
1035.8
1034.66
1033.46
1032.19
1030.87
1029.51
1028.1
1026.65
1025.18
1023.7
1022.2
1020.69
1019.19
1017.7
1016.22
1014.75
1013.32
1011.92
1010.56
1009.24
1007.98
1006.77
1005.63
1004.54
1003.52
1002.56
1001.69
1000.85
1000.14
999.482
998.939
998.485
998.059
997.828
997.674
997.675
997.742
998.056
998.691
999.71
1001.32
1004
1011.85
11463.3
2313.85
1432.72
1143.67
904.513
697.538
542.103
439.257
368.186
317.304
280.373
253.374
233.469
218.48
206.961
198.031
191.154
185.994
182.338
180.15
179.772
180.49
183.251
188.148
196.347
208.254
224.344
244.027
264.781
282.218
300.181
323.226
375.068
465.141
579.262
670.059
747.432
827.475
906.494
975.238
1033.12
1083.32
1123.58
1138.94
1124.74
1070.47
1035.99
986.88
949.784
910.354
880.883
854.641
833.918
817.047
803.854
793.845
786.627
781.686
778.555
776.782
776.22
776.216
777.103
778.516
780.371
782.6
785.104
787.828
790.72
793.749
796.886
800.108
803.398
806.74
810.121
813.53
816.958
820.396
823.837
827.275
830.705
834.122
837.523
840.905
844.267
847.607
850.926
854.222
857.498
860.753
863.989
867.203
870.393
873.554
876.677
879.751
882.76
885.7
888.556
891.329
894.016
896.615
899.123
901.54
903.864
906.092
908.223
910.257
912.19
914.02
915.747
917.369
918.886
920.295
921.598
922.791
923.876
924.852
925.717
926.469
927.106
927.626
928.024
928.3
928.456
928.486
928.396
928.191
927.882
927.473
926.947
926.325
925.605
924.801
923.916
922.95
921.909
920.797
919.617
918.374
917.073
915.718
914.316
912.872
911.392
909.881
908.348
906.798
905.236
903.669
902.101
900.538
898.984
897.447
895.931
894.443
892.988
891.568
890.19
888.855
887.561
886.316
885.117
883.984
882.891
881.873
880.911
880.018
879.191
878.416
877.744
877.144
876.615
876.187
875.925
875.945
876.245
876.996
878.628
883.126
11463.3
2880.43
1681.21
1166.72
807.775
576.492
441.944
355.702
300.517
264.176
238.911
220.418
206.338
195.291
186.484
179.44
173.91
169.752
166.852
165.227
165.023
165.789
168.01
172.109
178.532
187.971
201.456
220.247
244.885
280.076
328.352
404.715
520.813
632.805
712.87
783.125
844.949
893.649
932.914
968.218
994.342
1002.97
984.997
950.515
919.446
880.06
848.439
815.402
789.699
766.317
748.259
733.101
721.3
712.122
705.366
700.682
697.805
696.515
696.154
696.589
697.871
699.684
701.994
704.659
707.608
710.784
714.133
717.619
721.212
724.894
728.646
732.455
736.309
740.2
744.118
748.055
752.004
755.959
759.912
763.859
767.794
771.714
775.614
779.491
783.344
787.168
790.963
794.727
798.457
802.152
805.808
809.423
812.99
816.505
819.959
823.342
826.648
829.874
833.017
836.072
839.037
841.91
844.687
847.366
849.943
852.416
854.783
857.044
859.193
861.227
863.146
864.945
866.625
868.183
869.617
870.927
872.112
873.169
874.099
874.899
875.569
876.106
876.511
876.782
876.918
876.925
876.797
876.539
876.162
875.669
875.059
874.342
873.521
872.604
871.595
870.496
869.313
868.054
866.72
865.315
863.847
862.319
860.739
859.111
857.442
855.736
854.001
852.241
850.463
848.672
846.874
845.073
843.276
841.486
839.711
837.954
836.222
834.518
832.845
831.207
829.603
828.038
826.514
825.036
823.601
822.219
820.886
819.605
818.377
817.202
816.096
815.046
814.057
813.149
812.367
811.795
811.417
811.519
812.187
814.374
11463.3
3361.52
1727.44
1014.46
647.136
459.935
358.882
301.926
265.509
240.337
221.569
206.929
195.236
185.647
177.738
171.276
166.143
162.307
159.874
158.89
159.338
161.257
165.209
171.384
180.284
193.04
212.489
243.099
289
360.405
464.306
567.515
647.023
715.132
772.546
816.338
850.392
879.795
895.489
899.254
882.85
857.943
833.189
804.39
777.279
749.698
726.542
705.598
688.861
674.752
663.694
654.93
648.403
643.753
640.848
639.514
639.192
639.835
641.347
643.516
646.241
649.386
652.875
656.626
660.584
664.703
668.948
673.293
677.716
682.205
686.745
691.329
695.947
700.593
705.26
709.939
714.624
719.308
723.984
728.646
733.289
737.908
742.499
747.058
751.581
756.065
760.506
764.902
769.249
773.543
777.782
781.959
786.071
790.112
794.08
797.971
801.783
805.505
809.133
812.663
816.091
819.413
822.626
825.726
828.708
831.568
834.301
836.9
839.364
841.692
843.884
845.935
847.845
849.611
851.231
852.704
854.03
855.206
856.233
857.109
857.833
858.406
858.827
859.097
859.207
859.187
859.009
858.682
858.217
857.619
856.891
856.042
855.076
853.999
852.817
851.533
850.152
848.677
847.105
845.452
843.727
841.936
840.083
838.176
836.22
834.222
832.187
830.121
828.03
825.92
823.797
821.666
819.532
817.403
815.281
813.175
811.087
809.023
806.986
804.979
803.004
801.063
799.159
797.295
795.471
793.691
791.954
790.262
788.616
787.019
785.482
783.982
782.528
781.139
779.845
778.701
777.723
777.099
776.865
777.445
11463.3
3508.97
1544.14
820.191
523.737
387.216
315.808
273.801
246.686
227.604
213.045
201.183
191.044
182.443
175.255
169.451
165.111
162.353
161.099
161.392
163.42
167.866
175.067
186.372
204.373
231.079
272.184
336.752
420.244
506.776
579.051
641.252
694.213
737.91
772.914
801.897
815.552
817.416
803.967
785.365
765.099
743.431
722.212
700.384
679.964
661.148
645.359
631.982
621.274
612.663
606.08
601.251
598.03
596.443
595.977
596.472
597.972
600.272
603.242
606.753
610.708
615.014
619.601
624.408
629.389
634.505
639.729
645.038
650.415
655.847
661.323
666.835
672.375
677.938
683.516
689.102
694.686
700.26
705.817
711.35
716.852
722.319
727.743
733.121
738.45
743.725
748.942
754.095
759.18
764.195
769.133
773.991
778.764
783.449
788.042
792.546
796.95
801.245
805.425
809.487
813.426
817.238
820.919
824.463
827.868
831.127
834.239
837.199
840.001
842.645
845.126
847.441
849.589
851.568
853.374
855.008
856.467
857.75
858.858
859.79
860.544
861.123
861.525
861.746
861.804
861.707
861.424
860.973
860.363
859.6
858.689
857.64
856.457
855.148
853.718
852.172
850.518
848.764
846.912
844.973
842.951
840.856
838.692
836.467
834.186
831.856
829.484
827.075
824.635
822.171
819.689
817.195
814.695
812.195
809.699
807.216
804.748
802.301
799.879
797.484
795.119
792.787
790.489
788.228
786.006
783.823
781.681
779.581
777.523
775.513
773.545
771.593
769.675
767.811
766.022
764.343
762.796
761.498
760.441
759.747
11463.3
3376.18
1293.72
673.788
449.428
350.038
296.662
264.038
241.86
225.131
212.036
201.456
192.745
185.521
179.687
175.327
172.663
171.923
173.451
177.368
184.373
195.917
212.637
237.955
276.019
329.051
393.727
458.894
520.324
575.151
622.71
663.366
697.431
727.294
744.025
747.781
739.125
725.514
709.166
692.217
675.508
658.838
642.511
626.577
612.064
599.396
588.901
580.286
573.506
568.357
564.737
562.67
561.896
562.015
563.261
565.415
568.379
572.033
576.269
580.989
586.107
591.55
597.253
603.165
609.242
615.451
621.766
628.167
634.633
641.15
647.707
654.294
660.9
667.52
674.155
680.789
687.411
694.012
700.583
707.116
713.604
720.039
726.415
732.722
738.948
745.098
751.174
757.172
763.088
768.916
774.651
780.288
785.822
791.247
796.559
801.749
806.813
811.746
816.543
821.199
825.709
830.067
834.269
838.31
842.184
845.887
849.413
852.759
855.919
858.89
861.668
864.251
866.636
868.821
870.803
872.581
874.154
875.521
876.683
877.638
878.388
878.932
879.267
879.401
879.368
879.123
878.679
878.045
877.227
876.234
875.073
873.754
872.284
870.67
868.918
867.037
865.033
862.915
860.691
858.368
855.956
853.461
850.892
848.254
845.556
842.803
840.004
837.163
834.289
831.387
828.464
825.526
822.581
819.635
816.693
813.761
810.845
807.949
805.077
802.233
799.418
796.635
793.887
791.174
788.499
785.862
783.265
780.706
778.19
775.721
773.316
770.92
768.557
766.242
763.99
761.824
759.762
757.884
756.136
754.478
11463.3
2997.16
1060.04
574.072
405.866
329.028
287.467
260.694
242.077
228.599
218.14
209.695
202.862
197.589
194.105
192.829
194.173
199.144
207.375
218.896
235.002
257.772
289.123
329.239
376.013
425.776
474.635
519.895
560.98
597.244
628.573
656.568
676.366
683.575
681.531
672.686
660.727
647.602
634.423
621.617
609.129
596.794
584.785
573.471
563.435
554.896
547.932
542.453
538.403
535.722
534.46
534.203
534.988
536.786
539.518
543.074
547.361
552.283
557.754
563.691
570.023
576.679
583.598
590.73
598.032
605.47
613.023
620.676
628.391
636.153
643.948
651.761
659.576
667.371
675.109
682.831
690.541
698.226
705.875
713.478
721.027
728.515
735.934
743.28
750.552
757.736
764.817
771.79
778.65
785.391
792.009
798.497
804.851
811.064
817.133
823.051
828.817
834.425
839.872
845.15
850.253
855.175
859.912
864.456
868.804
872.948
876.883
880.604
884.106
887.384
890.435
893.256
895.845
898.199
900.316
902.194
903.834
905.234
906.395
907.317
908.002
908.446
908.65
908.656
908.427
907.968
907.287
906.39
905.286
903.983
902.491
900.82
898.979
896.976
894.819
892.517
890.08
887.517
884.837
882.049
879.164
876.19
873.135
870.007
866.814
863.564
860.264
856.921
853.541
850.133
846.703
843.258
839.806
836.353
832.906
829.47
826.052
822.656
819.286
815.945
812.635
809.36
806.119
802.916
799.751
796.625
793.54
790.493
787.488
784.529
781.615
778.732
775.885
773.082
770.333
767.652
765.05
762.587
760.181
757.63
11463.3
2552.82
904.152
525.557
388.556
323.589
287.014
264.865
250.193
239.66
231.725
225.77
221.733
220.024
220.73
224.951
233.255
245.066
259.269
277.916
302.276
332.025
366.056
402.606
439.741
475.839
509.705
540.453
567.81
592.828
613.993
624.381
626.586
623.047
616.218
607.068
597.332
587.67
578.271
569.06
559.934
550.92
542.282
534.357
527.486
521.826
517.428
514.266
512.435
511.774
512.05
513.421
515.791
519.097
523.267
528.217
533.865
540.13
546.935
554.213
561.916
569.961
578.281
586.823
595.542
604.388
613.295
622.213
631.194
640.231
649.31
658.412
667.516
676.613
685.714
694.791
703.84
712.835
721.759
730.604
739.364
748.033
756.602
765.061
773.4
781.608
789.681
797.616
805.407
813.05
820.539
827.868
835.034
842.029
848.851
855.496
861.959
868.235
874.318
880.201
885.877
891.338
896.578
901.592
906.374
910.916
915.213
919.258
923.046
926.572
929.833
932.826
935.549
938
940.176
942.078
943.703
945.053
946.129
946.934
947.465
947.72
947.733
947.481
946.97
946.204
945.19
943.935
942.447
940.738
938.817
936.697
934.387
931.899
929.242
926.425
923.46
920.358
917.13
913.787
910.34
906.798
903.172
899.47
895.7
891.872
887.993
884.07
880.111
876.124
872.117
868.097
864.073
860.051
856.039
852.043
848.068
844.119
840.2
836.314
832.464
828.651
824.877
821.142
817.449
813.798
810.189
806.622
803.1
799.624
796.194
792.803
789.45
786.14
782.879
779.675
776.528
773.492
770.471
767.108
11463.3
2133.59
803.059
493.792
378.425
322.926
293.124
275.441
264.14
256.586
251.572
249.05
248.612
250.97
256.704
266.102
278.865
294.085
312.242
333.992
358.752
385.56
413.309
441.016
467.904
492.991
516.005
537.67
557.112
569.858
574.82
575.431
573.187
568.409
562.375
555.766
549.122
542.549
536.017
529.468
522.91
516.491
510.475
505.148
500.743
497.388
495.185
494.217
494.153
495.173
497.223
500.273
504.281
509.221
515.019
521.571
528.804
536.647
545.018
553.821
562.909
572.305
582.009
591.985
602.186
612.569
623.108
633.784
644.523
655.29
666.063
676.825
687.529
698.159
708.712
719.17
729.514
739.744
749.86
759.864
769.755
779.533
789.188
798.706
808.073
817.277
826.312
835.17
843.849
852.346
860.655
868.772
876.692
884.41
891.921
899.224
906.313
913.182
919.825
926.232
932.396
938.309
943.963
949.353
954.472
959.312
963.868
968.132
972.098
975.762
979.121
982.171
984.911
987.341
989.459
991.263
992.755
993.935
994.806
995.37
995.631
995.597
995.267
994.645
993.735
992.544
991.079
989.348
987.362
985.13
982.667
979.985
977.096
974.013
970.747
967.31
963.713
959.969
956.093
952.095
947.988
943.784
939.493
935.126
930.691
926.199
921.657
917.072
912.454
907.812
903.154
898.489
893.825
889.17
884.531
879.914
875.326
870.769
866.249
861.769
857.33
852.934
848.582
844.274
840.012
835.796
831.628
827.507
823.436
819.416
815.447
811.523
807.64
803.802
800.011
796.266
792.565
788.956
785.347
781.234
11463.3
1966.14
781.302
489.071
380.211
330.616
304.913
290.508
282.127
277.597
275.843
276.092
279.067
284.905
293.689
305.159
318.893
334.679
352.579
372.052
392.627
413.544
434.06
453.666
472.377
490.499
507.211
520.143
527.184
530.262
531.268
530.506
528.173
524.845
521.037
516.994
512.842
508.581
504.213
499.784
495.41
491.279
487.629
484.677
482.65
481.758
481.76
482.94
485.115
488.276
492.397
497.438
503.328
509.927
517.202
525.245
534.022
543.47
553.516
564.098
575.19
586.703
598.562
610.714
623.108
635.679
648.381
661.187
673.977
686.68
699.237
711.603
723.779
735.763
747.563
759.19
770.654
781.951
793.084
804.068
814.922
825.649
836.237
846.666
856.914
866.964
876.804
886.424
895.825
905.007
913.968
922.702
931.206
939.474
947.503
955.29
962.83
970.117
977.143
983.899
990.375
996.562
1002.45
1008.04
1013.31
1018.27
1022.91
1027.21
1031.18
1034.8
1038.07
1041
1043.58
1045.82
1047.7
1049.23
1050.42
1051.26
1051.76
1051.92
1051.76
1051.27
1050.45
1049.3
1047.85
1046.08
1044.03
1041.68
1039.06
1036.17
1033.04
1029.66
1026.07
1022.27
1018.28
1014.1
1009.76
1005.26
1000.63
995.87
991
986.032
980.978
975.849
970.656
965.41
960.116
954.784
949.424
944.048
938.665
933.283
927.911
922.557
917.228
911.93
906.67
901.45
896.276
891.149
886.073
881.046
876.071
871.145
866.271
861.451
856.687
851.978
847.325
842.732
838.197
833.714
829.274
824.884
820.541
816.238
811.967
807.782
803.597
798.762
11463.3
1903.71
755.338
484.883
386.506
341.97
319.66
307.918
302.101
299.893
299.765
302.313
307.324
314.637
324.046
335.182
347.736
361.484
376.159
391.385
406.72
421.705
436.389
451.043
464.719
475.744
483.444
488.703
492.343
494.129
494.791
494.78
493.9
492.598
490.974
489.112
487.073
484.915
482.739
480.718
479.088
477.857
477.289
477.298
478.148
479.868
482.287
485.356
489.399
494.475
500.579
507.678
515.736
524.749
534.688
545.474
557.051
569.332
582.237
595.692
609.637
623.976
638.619
653.499
668.599
683.76
698.863
713.78
728.466
742.858
756.899
770.558
783.828
796.724
809.28
821.552
833.62
845.464
857.092
868.551
879.899
891.148
902.269
913.224
923.977
934.502
944.778
954.784
964.534
974.035
983.286
992.283
1001.02
1009.49
1017.69
1025.63
1033.28
1040.66
1047.74
1054.53
1061
1067.15
1072.97
1078.45
1083.59
1088.37
1092.8
1096.86
1100.54
1103.85
1106.78
1109.32
1111.48
1113.26
1114.67
1115.69
1116.34
1116.62
1116.52
1116.09
1115.29
1114.13
1112.62
1110.77
1108.58
1106.08
1103.26
1100.13
1096.72
1093.03
1089.07
1084.87
1080.43
1075.78
1070.93
1065.89
1060.68
1055.32
1049.81
1044.18
1038.44
1032.6
1026.69
1020.7
1014.65
1008.56
1002.43
996.261
990.08
983.894
977.713
971.545
965.398
959.28
953.199
947.161
941.17
935.232
929.349
923.524
917.759
912.054
906.409
900.819
895.291
889.829
884.433
879.102
873.835
868.64
863.512
858.441
853.417
848.449
843.533
838.649
833.783
828.971
824.173
818.615
11463.3
1866.56
752.183
490.761
397.422
356.384
336.324
326.212
321.493
319.916
320.266
323.337
328.552
335.558
343.954
353.353
363.543
374.333
385.505
396.813
408.022
419.334
429.757
438.656
446.017
452.196
457.451
461.69
465.186
468.038
470.512
472.697
474.461
475.884
477.032
477.968
478.759
479.476
480.18
480.878
481.404
482.439
484.297
487.127
490.931
495.747
501.608
508.602
516.683
525.874
536.161
547.482
559.781
573.027
587.17
602.183
618.003
634.428
651.328
668.598
686.137
703.84
721.6
739.303
756.787
774.014
790.894
807.319
823.185
838.389
852.876
866.668
879.81
892.354
904.369
915.953
927.491
938.766
949.78
960.655
971.574
982.52
993.402
1004.14
1014.67
1024.96
1034.98
1044.75
1054.25
1063.49
1072.45
1081.14
1089.55
1097.67
1105.49
1113.03
1120.27
1127.21
1133.85
1140.17
1146.16
1151.8
1157.1
1162.02
1166.58
1170.76
1174.57
1177.98
1180.99
1183.61
1185.81
1187.61
1188.98
1189.99
1190.59
1190.77
1190.58
1190.02
1189.06
1187.71
1186
1183.91
1181.47
1178.68
1175.54
1172.08
1168.29
1164.19
1159.79
1155.11
1150.16
1144.95
1139.51
1133.86
1128
1121.96
1115.75
1109.38
1102.87
1096.24
1089.5
1082.68
1075.78
1068.82
1061.81
1054.77
1047.71
1040.64
1033.56
1026.5
1019.46
1012.44
1005.46
998.518
991.627
984.791
978.016
971.305
964.661
958.088
951.585
945.154
938.795
932.496
926.276
920.139
914.08
908.097
902.185
896.361
890.614
884.928
879.288
873.694
868.134
862.6
857.079
851.594
846.153
839.876
11463.3
1843.08
751.056
499.64
409.974
370.458
351.385
341.584
336.758
334.946
334.84
337.379
341.838
347.733
354.606
362.157
370.277
378.877
387.883
396.986
405.673
413.817
421.705
429.21
436.291
443.037
449.478
455.542
461.207
466.414
471.045
475.046
478.776
482.332
485.792
489.237
492.76
496.455
500.434
504.847
509.983
515.989
523.162
531.644
541.165
551.766
563.488
576.354
590.314
605.418
621.684
638.853
656.771
675.318
694.372
713.765
733.364
753.135
772.996
792.856
812.625
832.217
851.553
870.55
889.126
907.219
924.757
941.653
957.8
973.022
987.266
1000.65
1013.27
1025.19
1036.43
1047.09
1057.27
1066.89
1076.09
1085.17
1094.73
1104.56
1114.39
1124.07
1133.52
1142.7
1151.6
1160.24
1168.62
1176.72
1184.54
1192.06
1199.29
1206.22
1212.85
1219.18
1225.23
1230.98
1236.44
1241.58
1246.39
1250.87
1254.99
1258.74
1262.12
1265.13
1267.76
1269.99
1271.83
1273.27
1274.29
1274.9
1275.04
1274.88
1274.32
1273.32
1271.95
1270.19
1268.03
1265.5
1262.6
1259.33
1255.71
1251.75
1247.45
1242.82
1237.87
1232.62
1227.08
1221.26
1215.17
1208.83
1202.26
1195.48
1188.51
1181.36
1174.04
1166.57
1158.97
1151.26
1143.45
1135.56
1127.61
1119.61
1111.57
1103.51
1095.44
1087.39
1079.35
1071.33
1063.35
1055.41
1047.51
1039.67
1031.9
1024.19
1016.56
1009.01
1001.54
994.146
986.84
979.618
972.481
965.435
958.502
951.668
944.925
938.265
931.679
925.171
918.733
912.355
906.023
899.733
893.469
887.233
881.012
874.82
868.71
861.728
11463.3
1829.12
754.42
508.774
420.355
381.388
362.563
352.321
347.062
344.938
344.623
346.747
350.73
356.097
362.6
369.815
377.578
385.791
394.313
403.073
412.003
420.856
429.741
438.64
447.568
456.584
465.689
474.726
483.638
492.466
501.286
510.177
519.152
528.294
537.692
547.444
557.654
568.41
579.809
591.988
605.106
619.143
634.042
649.674
666.197
683.647
702.059
721.403
741.514
762.205
783.421
805.078
826.952
848.879
870.721
892.345
913.642
934.536
954.956
974.847
994.181
1012.94
1031.12
1048.69
1065.64
1081.97
1097.66
1112.7
1127.05
1140.7
1153.53
1165.62
1177.11
1188
1198.28
1207.88
1216.5
1224.43
1231.92
1239.27
1247.08
1254.95
1262.67
1270.14
1277.31
1284.16
1290.7
1296.95
1302.93
1308.65
1314.09
1319.27
1324.17
1328.81
1333.19
1337.32
1341.2
1344.84
1348.23
1351.35
1354.2
1356.75
1358.99
1360.87
1362.43
1363.66
1364.56
1365.1
1365.26
1365.1
1364.52
1363.56
1362.22
1360.54
1358.5
1356.09
1353.31
1350.17
1346.67
1342.81
1338.62
1334.09
1329.23
1324.05
1318.56
1312.76
1306.66
1300.27
1293.61
1286.69
1279.52
1272.11
1264.49
1256.67
1248.66
1240.47
1232.14
1223.66
1215.05
1206.34
1197.55
1188.68
1179.76
1170.8
1161.81
1152.8
1143.79
1134.79
1125.82
1116.87
1107.97
1099.11
1090.31
1081.59
1072.93
1064.36
1055.88
1047.49
1039.19
1030.98
1022.87
1014.85
1006.92
999.106
991.401
983.799
976.29
968.865
961.516
954.24
947.031
939.881
932.779
925.722
918.707
911.736
904.787
897.871
891.073
883.416
11463.3
1818.28
759.185
513.029
426.339
389.024
371.008
361.68
357.424
356.161
357.095
360.668
366.085
372.961
381.143
390.822
401.032
411.853
423.753
436.785
450.381
464.605
479.621
495.426
511.985
529.26
547.155
565.624
584.621
604.104
624.044
644.412
665.136
686.238
707.781
729.875
752.665
776.07
799.989
824.373
849.163
874.244
899.467
924.707
949.999
975.374
1001.06
1027.12
1052.84
1077.8
1101.59
1124.21
1145.71
1166.08
1185.28
1203.3
1220.13
1235.78
1250.3
1263.74
1276.23
1287.86
1298.71
1308.82
1318.27
1327.12
1335.43
1343.25
1350.64
1357.81
1364.94
1371.97
1378.78
1385.26
1391.34
1396.8
1401.74
1406.44
1411.18
1416.28
1420.97
1425.11
1428.8
1432.15
1435.2
1437.98
1440.53
1442.88
1445.03
1446.99
1448.77
1450.36
1451.78
1453.05
1454.17
1455.15
1455.99
1456.69
1457.22
1457.57
1457.77
1457.77
1457.54
1456.98
1456.21
1455.2
1453.94
1452.39
1450.55
1448.42
1445.98
1443.23
1440.17
1436.83
1433.18
1429.22