/*--------------------------------*- C++ -*----------------------------------*\
  =========                 |
  \\      /  F ield         | OpenFOAM: The Open Source CFD Toolbox
   \\    /   O peration     | Website:  https://openfoam.org
    \\  /    A nd           | Version:  8
     \\/     M anipulation  |
\*---------------------------------------------------------------------------*/
FoamFile
{
    version     2.0;
    format      ascii;
    class       volScalarField;
    location    "1000";
    object      k;
}
// * * * * * * * * * * * * * * * * * * * * * * * * * * * * * * * * * * * * * //

dimensions      [0 2 -2 0 0 0 0];

internalField   nonuniform List<scalar> 
12225
(
0.293833
1.77308
1.92212
1.87305
1.77645
1.69647
1.77466
1.42974
2.19752
1.82982
1.6109
1.70918
1.47659
1.35076
2.31702
2.45744
2.18615
2.5337
0.20561
0.255952
0.339124
0.441109
0.502122
0.55777
0.593943
0.605602
0.638954
0.669701
0.69317
0.730697
0.767044
0.779161
0.81854
0.860628
0.88119
0.911816
0.197204
0.207146
0.208645
0.215053
0.224283
0.231846
0.237755
0.240554
0.241112
0.24121
0.243415
0.248039
0.252421
0.257531
0.261332
0.267577
0.271726
0.281224
0.198989
0.198092
0.198636
0.198393
0.199179
0.199463
0.19952
0.199117
0.198489
0.197548
0.19648
0.195474
0.19417
0.193061
0.191602
0.190521
0.189202
0.188613
0.199393
0.198034
0.196985
0.196057
0.195506
0.194992
0.19458
0.19393
0.19332
0.192463
0.191628
0.190602
0.189597
0.188472
0.187397
0.186276
0.185246
0.184226
0.199407
0.198168
0.197037
0.195926
0.195048
0.194207
0.193528
0.192765
0.192086
0.191295
0.190555
0.189719
0.188935
0.188091
0.187316
0.18651
0.185782
0.185033
0.199395
0.198186
0.197076
0.195978
0.194997
0.194055
0.193222
0.192398
0.191643
0.190872
0.190146
0.189404
0.188704
0.188002
0.187343
0.186693
0.186085
0.185488
0.199386
0.198184
0.197069
0.195987
0.194983
0.19402
0.193134
0.192282
0.191486
0.190711
0.189977
0.189261
0.188581
0.187922
0.187298
0.186697
0.186125
0.185575
0.199384
0.198176
0.19705
0.195975
0.194963
0.193996
0.19309
0.192225
0.191409
0.190628
0.189886
0.189175
0.188498
0.187852
0.187237
0.18665
0.186089
0.185556
0.199379
0.198174
0.197039
0.195961
0.194942
0.193973
0.193057
0.192186
0.191359
0.190572
0.189823
0.189109
0.18843
0.187784
0.187167
0.186582
0.186021
0.185489
0.199378
0.198169
0.197028
0.195948
0.194924
0.193952
0.193029
0.192154
0.191321
0.19053
0.189775
0.189058
0.188374
0.187725
0.187104
0.186515
0.18595
0.185414
0.199375
0.198166
0.197021
0.195938
0.194909
0.193934
0.193008
0.192128
0.191292
0.190496
0.189738
0.189018
0.18833
0.187677
0.187052
0.186458
0.18589
0.18535
0.199375
0.198164
0.197016
0.195929
0.194898
0.19392
0.192991
0.192108
0.191268
0.19047
0.189709
0.188985
0.188295
0.187638
0.187011
0.186414
0.185842
0.185299
0.199374
0.198162
0.197012
0.195923
0.19489
0.19391
0.192978
0.192093
0.19125
0.190449
0.189686
0.18896
0.188268
0.187608
0.186979
0.186379
0.185806
0.185259
0.199374
0.19816
0.19701
0.195919
0.194884
0.193902
0.192968
0.192081
0.191237
0.190434
0.189669
0.188941
0.188247
0.187586
0.186954
0.186353
0.185778
0.18523
0.199373
0.198159
0.197008
0.195916
0.194881
0.193897
0.192963
0.192074
0.191229
0.190424
0.189659
0.188929
0.188234
0.187571
0.186939
0.186336
0.185761
0.185212
0.199373
0.198159
0.197008
0.195916
0.19488
0.193895
0.19296
0.192071
0.191226
0.190421
0.189655
0.188925
0.18823
0.187566
0.186934
0.186331
0.185755
0.185205
0.199373
0.198159
0.197008
0.195916
0.194879
0.193894
0.192959
0.192069
0.191223
0.190418
0.189652
0.188921
0.188225
0.187562
0.186929
0.186325
0.185749
0.185199
0.199373
0.19816
0.197008
0.195916
0.194878
0.193893
0.192957
0.192068
0.191221
0.190416
0.189648
0.188918
0.188221
0.187557
0.186924
0.186319
0.185743
0.185192
0.199374
0.19816
0.197009
0.195917
0.19488
0.193895
0.19296
0.19207
0.191224
0.190419
0.189652
0.188921
0.188225
0.187561
0.186928
0.186323
0.185747
0.185196
0.199374
0.198161
0.19701
0.195919
0.194884
0.1939
0.192965
0.192077
0.191232
0.190427
0.189661
0.188931
0.188236
0.187572
0.18694
0.186336
0.18576
0.18521
0.199374
0.198162
0.197013
0.195923
0.194889
0.193907
0.192973
0.192086
0.191243
0.19044
0.189675
0.188946
0.188252
0.18759
0.186959
0.186357
0.185782
0.185233
0.199374
0.198164
0.197017
0.195929
0.194896
0.193916
0.192985
0.1921
0.191258
0.190458
0.189695
0.188969
0.188278
0.187618
0.18699
0.186391
0.185819
0.185273
0.199375
0.198169
0.197022
0.195937
0.194905
0.193929
0.193
0.192121
0.191284
0.19049
0.189734
0.189016
0.188332
0.187681
0.187061
0.186469
0.185905
0.185364
0.199377
0.198177
0.197023
0.195944
0.194914
0.193957
0.193044
0.192191
0.191376
0.19061
0.189878
0.189185
0.188523
0.187893
0.18729
0.18671
0.186153
0.185613
0.199395
0.198178
0.196998
0.195957
0.195006
0.194172
0.193367
0.192636
0.191909
0.191236
0.190564
0.18993
0.189302
0.188696
0.188098
0.187507
0.186926
0.186343
0.199437
0.198197
0.197089
0.196504
0.196176
0.195924
0.195606
0.195285
0.194857
0.194429
0.193898
0.193367
0.192765
0.19214
0.191483
0.19078
0.190096
0.189334
0.199495
0.200373
0.200311
0.203079
0.206136
0.208414
0.210481
0.211734
0.212866
0.213415
0.213884
0.214026
0.214051
0.214002
0.213963
0.213903
0.213963
0.213875
0.205921
0.217722
0.243223
0.274584
0.306081
0.332871
0.357914
0.377041
0.396361
0.410871
0.426678
0.438749
0.453098
0.464378
0.478451
0.489833
0.504305
0.516114
0.321485
0.843774
1.1439
1.34511
1.45469
1.51147
1.518
1.50966
1.49097
1.46106
1.42899
1.397
1.36631
1.33767
1.31126
1.28736
1.26553
1.24614
1.78264e-08
4.38736e-07
2.23681e-06
8.81101e-06
2.94128e-05
8.95529e-05
0.000233207
0.000462631
0.000749573
0.0010513
0.00132298
0.00153256
0.00167316
0.00172389
0.0017015
0.00163065
0.00149834
0.00127568
0.00108706
0.000924766
0.000770422
0.000620309
0.000474672
0.000339671
0.000219883
0.000127835
6.75036e-05
3.39814e-05
1.73605e-05
9.4728e-06
5.79e-06
4.4018e-06
5.85432e-06
1.17206e-05
2.26041e-05
0.000150947
0.000344536
0.000761245
0.00113999
0.00124087
0.0011393
0.000912948
0.000746472
0.000702451
0.000750568
0.000987535
0.0012966
0.00252408
0.00565829
0.0168672
0.0462062
0.0837327
0.107637
0.111652
0.0873238
0.117849
0.116112
0.128452
0.143795
0.161246
0.14199
0.158469
0.156844
0.163213
0.177044
0.183564
0.192761
0.200463
0.208639
0.216319
0.224072
0.231601
0.239091
0.246452
0.253752
0.260954
0.268088
0.275143
0.28212
0.289031
0.295853
0.302616
0.309279
0.315885
0.322381
0.328814
0.335127
0.341364
0.347478
0.353498
0.359395
0.365164
0.370789
0.376271
0.38159
0.386746
0.391725
0.39653
0.401169
0.40567
0.410101
0.414383
0.418525
0.422524
0.426386
0.430096
0.433664
0.437073
0.440334
0.443432
0.446375
0.44915
0.451766
0.45421
0.456491
0.458597
0.460538
0.462303
0.4639
0.46532
0.466573
0.467649
0.468557
0.46929
0.469857
0.47025
0.470479
0.470539
0.470494
0.470333
0.469825
0.46944
0.468533
0.467778
0.466803
0.465814
0.464677
0.463354
0.461782
0.460107
0.458273
0.456326
0.454251
0.452068
0.449772
0.447379
0.444885
0.442312
0.439658
0.436934
0.434136
0.431268
0.428338
0.425349
0.422307
0.419225
0.416108
0.41297
0.409816
0.406661
0.403502
0.400348
0.3972
0.394064
0.390939
0.387833
0.38475
0.381699
0.378683
0.375709
0.372776
0.369882
0.367011
0.364144
0.36123
0.358182
0.354889
0.351015
0.345985
0.330933
7.87686e-08
2.20472e-06
1.49215e-05
6.5267e-05
0.000240284
0.000727411
0.00168037
0.00304477
0.00463231
0.0062655
0.00776157
0.00899307
0.00990262
0.010484
0.0107602
0.0107253
0.010544
0.0102105
0.00962249
0.00882064
0.00780503
0.00663108
0.00534725
0.00405115
0.0028017
0.00184738
0.0011668
0.000717794
0.000433097
0.000262777
0.000168676
0.000120767
0.000116298
0.000174052
0.000193499
0.00159099
0.00349989
0.007183
0.0103256
0.0120378
0.011971
0.0114534
0.0111198
0.0121157
0.0153719
0.0204916
0.0294824
0.0453133
0.0709713
0.0954466
0.120741
0.140997
0.156706
0.168598
0.18073
0.197911
0.21228
0.227966
0.246814
0.265033
0.282915
0.302208
0.320355
0.339568
0.358725
0.377108
0.395482
0.413477
0.431339
0.448969
0.466467
0.483819
0.501064
0.51821
0.535274
0.552263
0.569184
0.586041
0.602831
0.619562
0.63622
0.652814
0.669326
0.685764
0.702103
0.718352
0.734482
0.750498
0.766378
0.782121
0.797707
0.813107
0.828306
0.843288
0.858031
0.872513
0.886705
0.900578
0.914094
0.927218
0.939925
0.952383
0.964577
0.976514
0.988177
0.999561
1.01065
1.02144
1.03192
1.04208
1.0519
1.06138
1.07052
1.0793
1.08771
1.09575
1.1034
1.11068
1.11756
1.12404
1.13012
1.1358
1.14106
1.14591
1.15035
1.15436
1.15796
1.16115
1.16392
1.16627
1.16821
1.16977
1.17078
1.17152
1.17182
1.17197
1.17186
1.17144
1.1709
1.16993
1.16859
1.16689
1.16483
1.16244
1.15972
1.15667
1.15332
1.14967
1.14576
1.14157
1.13712
1.13241
1.12745
1.12224
1.11681
1.11117
1.10534
1.09934
1.0932
1.08692
1.08053
1.07403
1.06744
1.06076
1.05399
1.04715
1.04025
1.0333
1.02632
1.01932
1.0123
1.00526
0.998182
0.991025
0.983717
0.976126
0.96806
0.959155
0.947529
0.921905
2.1284e-07
6.39665e-06
4.88553e-05
0.000234048
0.000688745
0.00195809
0.00396732
0.00631339
0.00867592
0.010822
0.0126184
0.014002
0.014974
0.0155554
0.0158106
0.0157748
0.0155901
0.0152291
0.0146937
0.0140272
0.0132241
0.0122797
0.0111727
0.00991571
0.00850635
0.00691257
0.00526758
0.00380286
0.00253029
0.00166949
0.00114358
0.000851508
0.000639512
0.000943937
0.00156903
0.00671397
0.0142907
0.0227068
0.0287455
0.032176
0.0333888
0.0353131
0.0416676
0.0561443
0.0730967
0.090888
0.110925
0.132196
0.151798
0.172527
0.192906
0.213185
0.234028
0.256773
0.282834
0.310381
0.338219
0.367063
0.395232
0.423046
0.450563
0.477649
0.504125
0.530195
0.555568
0.580425
0.604822
0.628821
0.652503
0.675904
0.699081
0.722065
0.744889
0.767576
0.790142
0.812598
0.834952
0.857209
0.879367
0.901427
0.923383
0.945232
0.966965
0.988576
1.01005
1.03138
1.05255
1.07356
1.09438
1.115
1.13543
1.15561
1.17555
1.19523
1.21463
1.23375
1.25258
1.27111
1.28932
1.30723
1.32483
1.34211
1.35904
1.37561
1.39181
1.40762
1.42303
1.43802
1.45258
1.46669
1.48035
1.49354
1.50625
1.51847
1.53018
1.54139
1.55207
1.56222
1.57184
1.58091
1.58943
1.5974
1.6048
1.61164
1.61792
1.62363
1.62877
1.63334
1.63735
1.64079
1.64367
1.64599
1.64775
1.64899
1.64963
1.6499
1.64976
1.64906
1.6479
1.64623
1.64405
1.64137
1.63821
1.63458
1.63048
1.62594
1.62096
1.61557
1.60979
1.60363
1.59709
1.59019
1.58293
1.57533
1.5674
1.55918
1.55068
1.54193
1.53295
1.52378
1.51443
1.50491
1.49526
1.48546
1.47555
1.46552
1.4554
1.44521
1.43496
1.42467
1.41437
1.40404
1.39369
1.38329
1.37279
1.3621
1.35104
1.33934
1.32508
1.30105
7.68801e-07
2.30922e-05
0.0001817
0.000766168
0.0021893
0.00519677
0.00876247
0.0122472
0.0152828
0.0176866
0.0194242
0.0205313
0.0211177
0.0212322
0.0211048
0.0207549
0.0201959
0.0195205
0.0187616
0.0179335
0.0170391
0.0160752
0.015025
0.0138696
0.0125915
0.0111714
0.00962858
0.00801803
0.0065194
0.00500336
0.003943
0.00286734
0.00295187
0.00448916
0.011096
0.0255045
0.0397057
0.0508206
0.0590266
0.066537
0.0758916
0.0883529
0.103378
0.118481
0.134131
0.150931
0.170495
0.191472
0.213905
0.238745
0.265036
0.29327
0.323148
0.354581
0.387241
0.420209
0.453335
0.486331
0.518931
0.551028
0.582632
0.613679
0.644117
0.674044
0.703408
0.732317
0.760825
0.788995
0.816883
0.844534
0.87199
0.899284
0.926441
0.953479
0.980413
1.00725
1.03399
1.06064
1.08719
1.11364
1.13998
1.1662
1.19229
1.21825
1.24405
1.26969
1.29515
1.32041
1.34546
1.3703
1.3949
1.41924
1.44331
1.46708
1.49056
1.51372
1.53657
1.55908
1.58125
1.60306
1.62449
1.64551
1.66612
1.68628
1.70598
1.72521
1.74393
1.76214
1.77983
1.79696
1.81354
1.82954
1.84495
1.85976
1.87395
1.88751
1.90044
1.91271
1.92433
1.93528
1.94556
1.95515
1.96406
1.97228
1.97981
1.98665
1.99279
1.99823
2.00299
2.00705
2.01043
2.01313
2.01515
2.01648
2.0171
2.01725
2.01677
2.01563
2.01387
2.0115
2.00852
2.00494
2.00076
1.99601
1.99069
1.98483
1.97844
1.97154
1.96414
1.95628
1.94796
1.93919
1.92998
1.92036
1.91033
1.89994
1.8892
1.87815
1.86682
1.85523
1.84341
1.83139
1.81919
1.80681
1.79429
1.78162
1.76884
1.75596
1.74301
1.73002
1.717
1.70399
1.69097
1.67795
1.66491
1.65179
1.63848
1.62478
1.60907
1.58659
2.6207e-06
7.86294e-05
0.000590506
0.00225018
0.00619672
0.0115444
0.0165423
0.0205449
0.0233922
0.0251738
0.0261007
0.026362
0.0262172
0.0257884
0.0250964
0.0242787
0.0233894
0.0224634
0.021524
0.0205786
0.0196242
0.0186513
0.0176428
0.0165764
0.0154282
0.0141698
0.012799
0.0113621
0.00996664
0.00859692
0.00706096
0.00730018
0.0106793
0.0222391
0.0423178
0.0615506
0.0774454
0.0896913
0.0999889
0.110175
0.121214
0.133294
0.146401
0.161287
0.179171
0.199897
0.223259
0.249254
0.277357
0.307515
0.339136
0.372129
0.406095
0.44078
0.475921
0.511166
0.546436
0.581567
0.61646
0.651022
0.685231
0.719043
0.752438
0.785454
0.818098
0.850416
0.882449
0.91424
0.94583
0.977253
1.00854
1.03972
1.0708
1.10181
1.13275
1.16361
1.19441
1.22512
1.25575
1.28629
1.31672
1.34704
1.37722
1.40726
1.43713
1.46683
1.49633
1.52562
1.55468
1.5835
1.61205
1.64033
1.66829
1.69593
1.72324
1.7502
1.77679
1.80299
1.82879
1.85416
1.87908
1.90352
1.92747
1.9509
1.97378
1.99611
2.01785
2.03899
2.05951
2.07939
2.09861
2.11715
2.13501
2.15216
2.16858
2.18427
2.19922
2.2134
2.22681
2.23943
2.25127
2.26231
2.27254
2.28197
2.29059
2.29839
2.30538
2.31156
2.31693
2.32149
2.32525
2.3282
2.33038
2.33169
2.33222
2.33216
2.33132
2.32972
2.32739
2.32434
2.32059
2.31614
2.311
2.30519
2.29872
2.29162
2.2839
2.27559
2.2667
2.25725
2.24727
2.23677
2.22576
2.21427
2.20231
2.18991
2.17711
2.16395
2.15044
2.13663
2.12255
2.10823
2.09369
2.07894
2.06402
2.04893
2.0337
2.01836
2.00294
1.98748
1.97199
1.95651
1.94107
1.92567
1.91031
1.89501
1.87967
1.86417
1.84715
1.82512
8.35107e-06
0.000244525
0.00174773
0.00619837
0.0139766
0.0208358
0.0257254
0.0287382
0.0303161
0.0309077
0.0308398
0.0304125
0.0295979
0.0286005
0.0275066
0.0263774
0.0252575
0.0241714
0.0231326
0.0221392
0.0211823
0.0202455
0.0193058
0.0183326
0.0173045
0.0161625
0.0148531
0.0133311
0.011704
0.0112968
0.0130615
0.0205371
0.0374712
0.0610529
0.0838112
0.102205
0.115647
0.125438
0.133886
0.142763
0.15297
0.165812
0.181914
0.201174
0.223772
0.249419
0.277546
0.307698
0.339351
0.372275
0.406151
0.44082
0.476091
0.511829
0.54792
0.584228
0.620691
0.65722
0.693738
0.730168
0.766466
0.802591
0.838527
0.874271
0.909828
0.945215
0.980454
1.01557
1.05059
1.08554
1.12044
1.1553
1.19014
1.22496
1.25975
1.29452
1.32925
1.36394
1.39856
1.43311
1.46756
1.50191
1.53612
1.57018
1.60408
1.63779
1.67129
1.70456
1.73758
1.77034
1.80282
1.83498
1.8668
1.89826
1.92934
1.96003
1.99029
2.02011
2.04946
2.07831
2.10665
2.13443
2.16164
2.18826
2.21426
2.23961
2.2643
2.28829
2.31158
2.33413
2.35592
2.37695
2.39718
2.4166
2.4352
2.45295
2.46985
2.48588
2.50102
2.51526
2.5286
2.54103
2.55253
2.56312
2.57277
2.58149
2.58928
2.59614
2.60207
2.60708
2.61116
2.61434
2.61661
2.61788
2.61831
2.61798
2.61677
2.61469
2.61179
2.60806
2.60353
2.59821
2.59211
2.58525
2.57765
2.56933
2.56031
2.55061
2.54025
2.52926
2.51765
2.50546
2.4927
2.47938
2.46554
2.4512
2.4364
2.42118
2.40558
2.38963
2.37336
2.35681
2.34001
2.32297
2.30573
2.28831
2.27072
2.253
2.2352
2.21734
2.19947
2.18163
2.16384
2.14614
2.12855
2.11111
2.09377
2.07645
2.05799
2.03555
2.67733e-05
0.000734271
0.00475416
0.0145601
0.0239293
0.0299262
0.033226
0.0347854
0.0352351
0.0350057
0.0342834
0.033169
0.031856
0.0304478
0.0290273
0.0276502
0.0263545
0.0251559
0.0240578
0.023048
0.0221093
0.0212134
0.0203274
0.0194035
0.0184528
0.0175658
0.016894
0.0168288
0.018331
0.0234308
0.0350935
0.0559518
0.0801221
0.102692
0.120973
0.133777
0.142487
0.149586
0.157185
0.167311
0.180927
0.198071
0.218786
0.242799
0.269682
0.298786
0.329504
0.36144
0.394328
0.42803
0.462422
0.497433
0.533003
0.569083
0.60563
0.642587
0.6799
0.717501
0.755323
0.793305
0.831396
0.869551
0.907741
0.945945
0.984156
1.02237
1.0606
1.09885
1.13714
1.17547
1.21386
1.25231
1.29082
1.32939
1.36801
1.40666
1.44533
1.484
1.52263
1.56122
1.59973
1.63813
1.67642
1.71456
1.75252
1.79029
1.82784
1.86515
1.90218
1.93894
1.97538
2.01147
2.04719
2.08251
2.1174
2.15184
2.18581
2.21927
2.2522
2.28457
2.31634
2.34749
2.37799
2.40782
2.43695
2.46535
2.49299
2.51985
2.54591
2.57114
2.59552
2.61902
2.64163
2.66332
2.68409
2.7039
2.72274
2.7406
2.75747
2.77332
2.78814
2.80194
2.8147
2.82641
2.83707
2.84668
2.85525
2.86276
2.86923
2.87465
2.87903
2.88238
2.88471
2.88592
2.88622
2.88559
2.88398
2.88141
2.8779
2.87347
2.86815
2.86194
2.85486
2.84693
2.83818
2.82862
2.81828
2.80718
2.79534
2.7828
2.76957
2.75568
2.74116
2.72602
2.71029
2.69402
2.67723
2.65997
2.64228
2.6242
2.60577
2.58701
2.56797
2.54867
2.52913
2.50938
2.48946
2.4694
2.44923
2.42901
2.40878
2.38859
2.36848
2.34849
2.32867
2.30907
2.28967
2.27043
2.25031
2.22686
8.05506e-05
0.00202637
0.0112821
0.0245878
0.0327649
0.0370833
0.0391134
0.0397118
0.0394177
0.0384824
0.0370693
0.0354046
0.0336276
0.0318443
0.0301364
0.0285551
0.0271293
0.0258623
0.0247459
0.0237574
0.0228701
0.0220454
0.021218
0.0203825
0.0197342
0.0196168
0.0209277
0.025255
0.0350991
0.0521459
0.0737966
0.0957878
0.116218
0.132807
0.144607
0.152646
0.159306
0.167287
0.178147
0.192569
0.210715
0.232327
0.257025
0.284236
0.313345
0.343789
0.375205
0.407411
0.440319
0.473895
0.508121
0.542994
0.578515
0.614683
0.651482
0.688878
0.726831
0.765292
0.804207
0.84352
0.88318
0.92314
0.963362
1.00382
1.04449
1.08535
1.12642
1.16767
1.20911
1.25075
1.29257
1.33458
1.37676
1.4191
1.46158
1.50416
1.54683
1.58954
1.63227
1.67498
1.71763
1.76019
1.80264
1.84495
1.88708
1.929
1.97069
2.01213
2.05327
2.0941
2.13459
2.1747
2.21439
2.25364
2.29241
2.33068
2.36842
2.40559
2.44216
2.4781
2.51338
2.54795
2.5818
2.61488
2.64718
2.67865
2.70928
2.73904
2.7679
2.79582
2.82279
2.84878
2.87377
2.89774
2.92067
2.94253
2.96331
2.983
3.00156
3.019
3.0353
3.05044
3.06442
3.07723
3.08888
3.09935
3.10865
3.11678
3.12374
3.12953
3.13416
3.13766
3.14
3.14111
3.14123
3.14026
3.13821
3.1351
3.13095
3.12578
3.11962
3.11248
3.10438
3.09535
3.08541
3.07458
3.06289
3.05036
3.03702
3.02289
3.00801
2.99241
2.97611
2.95913
2.9415
2.92328
2.90449
2.88519
2.86541
2.8452
2.82459
2.80363
2.78235
2.76078
2.73895
2.71688
2.69462
2.67221
2.64969
2.62711
2.60453
2.58198
2.55954
2.53725
2.51517
2.49336
2.47183
2.45056
2.42859
2.40366
0.00020984
0.00480366
0.0206725
0.033571
0.0402043
0.0433289
0.0444462
0.0442927
0.0433103
0.0416834
0.0396953
0.0375247
0.035323
0.0332061
0.0312607
0.029536
0.02806
0.026835
0.0258533
0.025095
0.0245716
0.0243454
0.0245254
0.0254366
0.0274707
0.0313482
0.0386765
0.051465
0.0682044
0.087109
0.106343
0.123804
0.138222
0.14916
0.157496
0.165117
0.174141
0.185971
0.201276
0.220073
0.242066
0.266771
0.29365
0.322145
0.351779
0.382237
0.41337
0.44514
0.477555
0.510644
0.544443
0.578989
0.614313
0.65043
0.687338
0.725026
0.76347
0.802635
0.842478
0.882951
0.924007
0.965601
1.00769
1.05025
1.09324
1.13664
1.18044
1.22462
1.26917
1.31409
1.35935
1.40494
1.45083
1.49699
1.5434
1.59001
1.63677
1.68364
1.73057
1.77751
1.82443
1.87127
1.918
1.96459
2.011
2.05719
2.10313
2.14879
2.19413
2.23913
2.28376
2.32797
2.37171
2.41497
2.4577
2.49987
2.54144
2.58238
2.62265
2.66221
2.70103
2.73907
2.77629
2.81265
2.84814
2.8827
2.91633
2.94898
2.98062
3.01123
3.04078
3.06924
3.09659
3.1228
3.14786
3.17173
3.19441
3.21588
3.23611
3.25509
3.2728
3.28923
3.30438
3.31824
3.33081
3.34208
3.35205
3.36073
3.36811
3.37421
3.37903
3.3826
3.38487
3.38585
3.3857
3.38434
3.38179
3.37807
3.37322
3.36725
3.36019
3.35206
3.34289
3.33271
3.32153
3.30938
3.2963
3.2823
3.26742
3.25169
3.23513
3.21778
3.19967
3.18082
3.16128
3.14109
3.12029
3.09893
3.07706
3.05471
3.03193
3.00876
2.98524
2.9614
2.93728
2.91289
2.8883
2.86354
2.83867
2.81373
2.78879
2.76389
2.73911
2.7145
2.69012
2.66606
2.64233
2.61893
2.59495
2.56825
0.000467934
0.0097285
0.0301581
0.0416455
0.0470546
0.0493245
0.0497363
0.048942
0.0472891
0.0450839
0.042568
0.0399447
0.0373878
0.0350278
0.0329602
0.0312368
0.0298907
0.028898
0.0282967
0.0280414
0.0281845
0.0290455
0.0311294
0.0352572
0.0422238
0.0524752
0.0657702
0.0807766
0.0968972
0.112888
0.127542
0.140069
0.150468
0.159406
0.168256
0.178543
0.191449
0.207468
0.226591
0.248492
0.272725
0.298807
0.326283
0.354764
0.383983
0.413809
0.444219
0.475248
0.506952
0.5394
0.572657
0.606779
0.641806
0.67777
0.714689
0.752568
0.791396
0.831151
0.871805
0.91332
0.955656
0.998773
1.04263
1.0872
1.13244
1.17832
1.22483
1.27193
1.31961
1.36783
1.41658
1.46582
1.51551
1.5656
1.61605
1.6668
1.71778
1.76893
1.82019
1.87151
1.92281
1.97406
2.02519
2.07617
2.12697
2.17752
2.22781
2.27778
2.32741
2.37666
2.42549
2.47387
2.52173
2.56904
2.61577
2.66188
2.70732
2.75205
2.79604
2.83923
2.8816
2.92309
2.96367
3.0033
3.04194
3.07956
3.11614
3.15163
3.18601
3.21924
3.2513
3.28216
3.31179
3.34016
3.36727
3.39307
3.41756
3.44071
3.46251
3.48293
3.50196
3.51959
3.53581
3.55062
3.564
3.57596
3.58651
3.59563
3.60334
3.60965
3.61456
3.61809
3.62022
3.62098
3.62046
3.61861
3.61547
3.61107
3.60542
3.59857
3.59054
3.58136
3.57105
3.55964
3.54716
3.53364
3.51911
3.5036
3.48714
3.46976
3.45149
3.43237
3.41242
3.39168
3.37019
3.34801
3.32519
3.30177
3.2778
3.25332
3.22837
3.203
3.17725
3.15114
3.12472
3.09802
3.0711
3.044
3.01679
2.9895
2.96221
2.93496
2.90783
2.88088
2.85419
2.82783
2.80184
2.77623
2.75018
2.72182
0.000890547
0.0167731
0.0384435
0.0489733
0.0537017
0.0554104
0.0553047
0.0539567
0.0517788
0.0490904
0.0461665
0.0432398
0.0405092
0.0381231
0.0361972
0.0347839
0.034002
0.0337779
0.0341493
0.0354077
0.0378413
0.0418204
0.0476737
0.0555835
0.0655267
0.0772532
0.0902229
0.103639
0.116822
0.129155
0.140323
0.150393
0.159948
0.169967
0.181503
0.195338
0.211835
0.230946
0.252392
0.275791
0.300754
0.326925
0.354003
0.381774
0.410119
0.439015
0.468503
0.498654
0.529556
0.561297
0.593953
0.62759
0.662265
0.698026
0.734904
0.772919
0.812075
0.852368
0.893782
0.936291
0.979869
1.02448
1.07009
1.11667
1.16417
1.21257
1.26183
1.31192
1.3628
1.41444
1.46679
1.5198
1.57342
1.62757
1.68219
1.73721
1.79254
1.8481
1.90383
1.95964
2.01545
2.07121
2.12685
2.18233
2.2376
2.29261
2.34731
2.40166
2.45562
2.50915
2.56222
2.61477
2.66675
2.71813
2.76884
2.81886
2.86813
2.91662
2.96427
3.01104
3.05688
3.10175
3.1456
3.18839
3.23009
3.27065
3.31005
3.34826
3.38524
3.42096
3.45539
3.48849
3.52025
3.55063
3.57962
3.60719
3.63333
3.658
3.6812
3.7029
3.72309
3.74175
3.75888
3.77447
3.78851
3.80102
3.81198
3.8214
3.82928
3.83565
3.8405
3.84386
3.84572
3.84613
3.84511
3.84266
3.83882
3.83362
3.82709
3.81927
3.81017
3.79984
3.7883
3.77559
3.76175
3.74679
3.73076
3.71369
3.69561
3.67655
3.65654
3.63561
3.6138
3.59115
3.56771
3.54354
3.51869
3.49322
3.46716
3.44057
3.41348
3.38592
3.35795
3.3296
3.30091
3.27192
3.2427
3.21329
3.18376
3.15415
3.12453
3.09496
3.06549
3.03621
3.00719
2.97852
2.95024
2.92239
2.89419
2.86401
0.00142469
0.0240287
0.0463839
0.0564355
0.060691
0.0619493
0.0614242
0.0596478
0.0570794
0.0540897
0.0509971
0.0480646
0.045516
0.0435295
0.0423042
0.0418529
0.0420846
0.0432504
0.0454517
0.0488431
0.0535748
0.0597406
0.067343
0.0762723
0.0863157
0.0971121
0.108224
0.119251
0.129947
0.140219
0.150216
0.160398
0.171432
0.183965
0.198473
0.215154
0.233956
0.254654
0.276956
0.300567
0.325222
0.350703
0.376848
0.403565
0.430824
0.458663
0.487152
0.516389
0.546472
0.577495
0.609547
0.642708
0.677047
0.712623
0.749482
0.78766
0.827177
0.868044
0.910264
0.953828
0.998719
1.04491
1.09237
1.14107
1.19096
1.242
1.29416
1.34739
1.40164
1.45686
1.51299
1.56996
1.62768
1.68607
1.74503
1.80446
1.86428
1.92438
1.98468
2.04508
2.10549
2.16584
2.22606
2.28609
2.34587
2.40537
2.4645
2.52322
2.58149
2.63926
2.6965
2.75316
2.80919
2.86453
2.91913
2.97294
3.02592
3.07801
3.12917
3.17934
3.22849
3.27655
3.32347
3.36922
3.41376
3.45704
3.49904
3.53972
3.57906
3.61702
3.65356
3.68865
3.72228
3.75441
3.78502
3.8141
3.84163
3.86757
3.89192
3.91465
3.93575
3.9552
3.973
3.98913
4.00361
4.01643
4.02759
4.03709
4.04495
4.05118
4.05578
4.05879
4.06021
4.06008
4.05844
4.05523
4.05054
4.04441
4.03687
4.02794
4.01768
4.0061
3.99325
3.97915
3.96386
3.9474
3.92982
3.91114
3.8914
3.87063
3.84886
3.82611
3.80242
3.77786
3.75247
3.72633
3.69948
3.67198
3.64388
3.61521
3.58602
3.55633
3.5262
3.49564
3.46473
3.4335
3.40203
3.37037
3.33858
3.30671
3.27482
3.24297
3.21121
3.17963
3.14831
3.11734
3.08678
3.05669
3.02633
2.99428
0.00213325
0.0306836
0.0537722
0.0638238
0.0679199
0.0689558
0.0681466
0.0660611
0.0632626
0.0602102
0.0572752
0.0547373
0.052796
0.0517483
0.0514612
0.0520168
0.0535827
0.0561716
0.0598164
0.0645371
0.0703372
0.0771543
0.0848758
0.0933427
0.102364
0.111741
0.121318
0.131002
0.140821
0.150949
0.161714
0.173518
0.186724
0.20157
0.218144
0.23638
0.256114
0.277137
0.299241
0.322243
0.345993
0.370386
0.395356
0.420889
0.447011
0.473792
0.50132
0.5297
0.559037
0.589433
0.620985
0.653786
0.687916
0.723449
0.760443
0.798944
0.83899
0.880613
0.92383
0.968647
1.01506
1.06305
1.1126
1.16367
1.21623
1.27021
1.32557
1.38225
1.44017
1.49927
1.55946
1.62065
1.68271
1.74552
1.80896
1.87292
1.9373
2.00199
2.06688
2.13189
2.19689
2.26181
2.32658
2.39112
2.45539
2.5193
2.58278
2.64577
2.7082
2.77006
2.83131
2.8919
2.95176
3.01085
3.06911
3.12647
3.18288
3.2383
3.29267
3.34594
3.39806
3.44897
3.49863
3.54698
3.59398
3.63961
3.68383
3.72661
3.76792
3.80772
3.84599
3.88269
3.91779
3.95128
3.98314
4.01335
4.04188
4.06873
4.09386
4.11727
4.13893
4.15883
4.17696
4.19333
4.20793
4.22076
4.23183
4.24114
4.2487
4.25453
4.25865
4.26107
4.26182
4.26098
4.25847
4.25432
4.24862
4.24139
4.23269
4.22253
4.21097
4.19803
4.18376
4.1682
4.15138
4.13335
4.11415
4.09382
4.07239
4.04989
4.02636
4.0018
3.97625
3.94979
3.92249
3.89442
3.86563
3.83616
3.80607
3.7754
3.74418
3.71245
3.68023
3.64755
3.6145
3.58113
3.5475
3.51369
3.47973
3.44569
3.41162
3.37757
3.3436
3.3098
3.27624
3.24304
3.21024
3.17795
3.14545
3.11159
0.00295498
0.0365685
0.0611558
0.0714436
0.075456
0.0763285
0.0752929
0.0729693
0.0700302
0.0670979
0.0646235
0.062824
0.061898
0.0616582
0.0622717
0.0638912
0.0664436
0.0698937
0.0742158
0.079377
0.0853189
0.0919643
0.0992301
0.107038
0.115327
0.124054
0.133221
0.142904
0.15325
0.164453
0.176725
0.190237
0.205086
0.221281
0.238756
0.257391
0.27705
0.297595
0.31891
0.340904
0.363517
0.386723
0.410523
0.434953
0.460071
0.485968
0.512742
0.540501
0.569344
0.599379
0.63071
0.66344
0.697659
0.733453
0.770897
0.81006
0.851
0.893766
0.938396
0.98491
1.03332
1.0836
1.13575
1.18972
1.24547
1.30292
1.36201
1.42263
1.4847
1.54809
1.61269
1.67837
1.74496
1.81232
1.88028
1.94872
2.01755
2.08668
2.15603
2.22546
2.29489
2.3642
2.43333
2.50221
2.57075
2.63887
2.70646
2.77342
2.83972
2.90534
2.97027
3.03443
3.09777
3.16021
3.2217
3.28218
3.34158
3.39984
3.45693
3.51279
3.56736
3.62059
3.67243
3.72283
3.77175
3.81916
3.86503
3.90934
3.95205
3.99314
4.03257
4.07031
4.10635
4.14066
4.17322
4.20403
4.23306
4.2603
4.28573
4.30933
4.33108
4.35099
4.36903
4.38521
4.39953
4.41199
4.4226
4.43136
4.43828
4.44339
4.44671
4.44826
4.44809
4.44628
4.44264
4.43734
4.43043
4.42193
4.4119
4.40036
4.38736
4.37294
4.35715
4.34002
4.32161
4.30194
4.28108
4.25905
4.23591
4.21169
4.18642
4.16007
4.1327
4.10441
4.07528
4.04536
4.01471
3.98337
3.95139
3.91882
3.88568
3.85202
3.81783
3.78316
3.7481
3.71272
3.67708
3.64125
3.60527
3.5692
3.53309
3.49697
3.46091
3.42499
3.38932
3.35398
3.31906
3.28465
3.25011
3.21453
0.00385661
0.0427704
0.0684649
0.0790183
0.0830006
0.083737
0.0823584
0.0797329
0.0768332
0.0743272
0.0725722
0.0717158
0.0714974
0.0719834
0.0734105
0.0757042
0.0788015
0.0826502
0.0872121
0.0924519
0.098336
0.10484
0.111948
0.119651
0.127965
0.136932
0.146628
0.157136
0.168562
0.180997
0.194495
0.209072
0.224705
0.241327
0.258857
0.277205
0.296295
0.316063
0.336469
0.357494
0.379139
0.401427
0.424402
0.448133
0.472686
0.498147
0.524622
0.552226
0.581066
0.611259
0.642916
0.676153
0.711073
0.74778
0.786366
0.826917
0.869511
0.914219
0.961095
1.01017
1.06145
1.11491
1.17053
1.22826
1.28802
1.34973
1.41326
1.47848
1.54522
1.6133
1.68254
1.7528
1.82389
1.89565
1.96786
2.04038
2.11322
2.18631
2.25959
2.333
2.40636
2.47959
2.55263
2.62538
2.69772
2.76955
2.84073
2.91117
2.98083
3.04972
3.11779
3.18498
3.25122
3.31643
3.38055
3.4435
3.50522
3.56566
3.62476
3.68249
3.73878
3.7936
3.84687
3.89855
3.94861
3.99702
4.04376
4.08882
4.13217
4.17378
4.21361
4.25165
4.28787
4.32226
4.35482
4.38553
4.41438
4.44135
4.46643
4.48961
4.51086
4.53019
4.54759
4.56305
4.57658
4.58818
4.59786
4.60563
4.6115
4.61549
4.61764
4.61798
4.61664
4.61343
4.60841
4.60169
4.59332
4.58333
4.57176
4.55865
4.54405
4.528
4.51054
4.49174
4.47162
4.45023
4.42763
4.40385
4.37895
4.35297
4.32594
4.29786
4.26877
4.23877
4.20793
4.17629
4.1439
4.11082
4.07708
4.04275
4.00786
3.97244
3.93645
3.89996
3.86308
3.82588
3.78843
3.75076
3.71295
3.67503
3.63706
3.59905
3.56107
3.52321
3.4856
3.4483
3.4114
3.37503
3.33857
3.30146
0.00477476
0.0487305
0.075536
0.0863171
0.0902399
0.0908023
0.0890358
0.0862807
0.083674
0.0817674
0.0808119
0.0805249
0.0808519
0.0819759
0.0839275
0.0866465
0.0900809
0.094192
0.0989612
0.104383
0.110459
0.1172
0.124628
0.132781
0.141701
0.151437
0.162038
0.173541
0.185961
0.199289
0.213519
0.228613
0.244512
0.261154
0.278491
0.296485
0.315116
0.334379
0.354283
0.374849
0.39612
0.418167
0.44109
0.464946
0.489737
0.515575
0.54263
0.571027
0.600864
0.63226
0.665335
0.700217
0.737024
0.775869
0.816857
0.860085
0.905642
0.953599
1.00402
1.05694
1.11233
1.17011
1.23022
1.29258
1.3571
1.42366
1.49211
1.56227
1.63389
1.7067
1.78033
1.85473
1.92977
2.00531
2.08114
2.15718
2.23349
2.30996
2.38652
2.46304
2.53939
2.61561
2.69173
2.76748
2.84272
2.91734
2.99122
3.06432
3.13653
3.20783
3.27816
3.34748
3.4157
3.48274
3.54851
3.61294
3.67596
3.73753
3.7976
3.85613
3.91308
3.9684
4.02202
4.0739
4.12401
4.17234
4.21887
4.26362
4.30656
4.34765
4.38687
4.42421
4.45965
4.49318
4.52481
4.55453
4.58233
4.60821
4.63215
4.65415
4.67418
4.69224
4.70832
4.72244
4.73459
4.74478
4.75302
4.75931
4.76367
4.76613
4.76673
4.76562
4.76262
4.75772
4.75107
4.7427
4.73266
4.72099
4.70773
4.69293
4.67662
4.65886
4.63969
4.61917
4.59733
4.57422
4.5499
4.52441
4.49781
4.47012
4.4414
4.41171
4.38109
4.34956
4.31718
4.28399
4.25005
4.21541
4.1801
4.14419
4.10772
4.07073
4.03319
3.99515
3.95672
3.91796
3.87893
3.83968