/*--------------------------------*- C++ -*----------------------------------*\
  =========                 |
  \\      /  F ield         | OpenFOAM: The Open Source CFD Toolbox
   \\    /   O peration     | Website:  https://openfoam.org
    \\  /    A nd           | Version:  8
     \\/     M anipulation  |
\*---------------------------------------------------------------------------*/
FoamFile
{
    version     2.0;
    format      ascii;
    class       volScalarField;
    location    "1000";
    object      p;
}
// * * * * * * * * * * * * * * * * * * * * * * * * * * * * * * * * * * * * * //

dimensions      [0 2 -2 0 0 0 0];

internalField   nonuniform List<scalar> 
12225
(
-4.24445
-5.12093
-5.51618
-5.65007
-5.79141
-5.95286
-6.09096
-6.19526
-6.28084
-6.35858
-6.42826
-6.49108
-6.55133
-6.61442
-6.68047
-6.74692
-6.8254
-6.91717
-4.51412
-5.14423
-5.47211
-5.60721
-5.75398
-5.9146
-6.0541
-6.16202
-6.24899
-6.32814
-6.39909
-6.46034
-6.5223
-6.5881
-6.65461
-6.72218
-6.79271
-6.85583
-4.70615
-5.13623
-5.45353
-5.61697
-5.76633
-5.92107
-6.05568
-6.16125
-6.24793
-6.32595
-6.39573
-6.45748
-6.51905
-6.58256
-6.64542
-6.70887
-6.77156
-6.82249
-4.85143
-5.16333
-5.46616
-5.63722
-5.77541
-5.91656
-6.0436
-6.14705
-6.23339
-6.31058
-6.38043
-6.4438
-6.50571
-6.56797
-6.62943
-6.68982
-6.74687
-6.79348
-4.98157
-5.21344
-5.48383
-5.65247
-5.78269
-5.91484
-6.03742
-6.1398
-6.22583
-6.30244
-6.37231
-6.43646
-6.49801
-6.5585
-6.61745
-6.67391
-6.72599
-6.76919
-5.09995
-5.2707
-5.50161
-5.66543
-5.79145
-5.91602
-6.03315
-6.13299
-6.21774
-6.29339
-6.36277
-6.42686
-6.48758
-6.54616
-6.60245
-6.65551
-6.70385
-6.74464
-5.20728
-5.33154
-5.5243
-5.67982
-5.80135
-5.91785
-6.0285
-6.12518
-6.20854
-6.2833
-6.35206
-6.41574
-6.47555
-6.53241
-6.58636
-6.63665
-6.68219
-6.7213
-5.29008
-5.38547
-5.54882
-5.69399
-5.81063
-5.92037
-6.02528
-6.11887
-6.20073
-6.27444
-6.34232
-6.40523
-6.46402
-6.51941
-6.57149
-6.61972
-6.66333
-6.70122
-5.35784
-5.43379
-5.57329
-5.70772
-5.81951
-5.92351
-6.02325
-6.11379
-6.19403
-6.26656
-6.33342
-6.39543
-6.45321
-6.5073
-6.55782
-6.60441
-6.64654
-6.68351
-5.42541
-5.48547
-5.60217
-5.72407
-5.82995
-5.92794
-6.02206
-6.10897
-6.18713
-6.25812
-6.32366
-6.3845
-6.44108
-6.49378
-6.54273
-6.58771
-6.62847
-6.66454
-5.49193
-5.53906
-5.63508
-5.74327
-5.842
-5.93368
-6.02188
-6.10461
-6.18015
-6.24923
-6.31313
-6.37251
-6.42769
-6.47891
-6.52629
-6.56976
-6.60923
-6.64445
-5.55609
-5.59307
-5.67113
-5.76519
-5.85562
-5.94071
-6.0228
-6.10085
-6.17324
-6.24001
-6.30195
-6.3596
-6.41317
-6.46282
-6.50866
-6.5507
-6.58897
-6.62337
-5.61672
-5.64576
-5.70884
-5.78924
-5.87059
-5.9488
-6.02473
-6.09778
-6.16654
-6.23059
-6.29027
-6.34593
-6.39773
-6.44574
-6.49006
-6.53073
-6.56789
-6.60151
-5.67206
-5.69511
-5.74613
-5.81414
-5.88626
-5.95747
-6.02732
-6.09525
-6.16007
-6.22108
-6.27826
-6.33177
-6.38166
-6.42799
-6.47081
-6.51021
-6.54633
-6.57924
-5.72012
-5.73869
-5.78039
-5.83791
-5.90138
-5.9658
-6.02989
-6.09287
-6.15367
-6.21151
-6.26608
-6.31735
-6.36532
-6.40998
-6.45138
-6.48961
-6.52481
-6.55706
-5.75809
-5.77348
-5.8084
-5.85775
-5.91391
-5.97233
-6.0313
-6.08986
-6.14696
-6.20176
-6.25383
-6.30298
-6.34913
-6.39225
-6.43238
-6.46958
-6.50398
-6.53568
-5.78206
-5.7954
-5.82596
-5.86985
-5.92078
-5.97471
-6.02979
-6.08494
-6.13911
-6.19147
-6.24148
-6.28888
-6.33355
-6.37543
-6.41454
-6.45094
-6.48473
-6.51603
-5.78576
-5.79839
-5.82742
-5.86929
-5.9181
-5.97005
-6.02335
-6.07691
-6.12969
-6.18082
-6.22977
-6.27624
-6.32011
-6.36131
-6.39987
-6.43582
-6.4693
-6.50041
-5.76897
-5.78223
-5.81256
-5.85587
-5.90581
-5.9585
-6.01235
-6.06636
-6.11948
-6.17084
-6.21988
-6.26639
-6.31024
-6.35141
-6.3899
-6.42583
-6.45928
-6.49042
-5.73708
-5.75212
-5.78618
-5.83379
-5.88729
-5.9427
-5.99883
-6.05485
-6.10964
-6.16225
-6.21226
-6.25948
-6.30388
-6.34543
-6.38422
-6.42035
-6.45397
-6.48526
-5.69345
-5.71156
-5.75193
-5.8064
-5.8652
-5.9246
-5.98424
-6.04339
-6.10071
-6.15526
-6.20675
-6.25512
-6.30039
-6.34259
-6.38183
-6.4183
-6.45216
-6.48365
-5.64006
-5.66299
-5.7128
-5.77644
-5.84153
-5.90562
-5.96966
-6.03275
-6.09315
-6.15001
-6.20328
-6.25305
-6.29935
-6.34228
-6.38203
-6.41885
-6.45296
-6.48464
-5.57793
-5.6083
-5.67146
-5.74613
-5.81769
-5.88684
-5.95599
-6.02349
-6.08719
-6.14652
-6.20174
-6.25302
-6.30041
-6.34408
-6.38432
-6.42143
-6.45572
-6.48748
-5.50731
-5.54933
-5.63066
-5.71709
-5.79437
-5.86893
-5.94391
-6.01607
-6.083
-6.14475
-6.20191
-6.25467
-6.30309
-6.34745
-6.38811
-6.42549
-6.45992
-6.49182
-5.42771
-5.488
-5.59344
-5.69066
-5.77183
-5.85205
-5.93353
-6.0105
-6.08061
-6.14477
-6.20386
-6.25798
-6.30726
-6.35207
-6.3929
-6.43024
-6.46453
-6.49623
-5.3384
-5.42607
-5.56174
-5.66781
-5.75119
-5.83694
-5.92453
-6.00571
-6.07869
-6.14525
-6.20634
-6.26199
-6.31231
-6.35777
-6.39893
-6.4364
-6.4707
-6.50255
-5.23928
-5.36747
-5.53338
-5.64462
-5.73156
-5.82455
-5.91799
-6.00241
-6.07746
-6.1457
-6.20802
-6.26441
-6.31509
-6.3606
-6.40158
-6.43873
-6.47277
-6.5046
-5.12533
-5.32571
-5.5092
-5.61293
-5.70448
-5.80874
-5.91079
-6.00056
-6.07982
-6.15165
-6.21673
-6.27497
-6.32675
-6.37274
-6.41361
-6.45012
-6.48358
-6.51596
-4.962
-5.31705
-5.52275
-5.60421
-5.69013
-5.79833
-5.90316
-5.99383
-6.07406
-6.14736
-6.21395
-6.2735
-6.32631
-6.373
-6.41407
-6.44999
-6.4818
-6.51085
-4.69976
-5.24776
-5.51392
-5.6014
-5.69495
-5.81297
-5.92418
-6.01826
-6.10023
-6.17436
-6.24124
-6.30074
-6.35328
-6.39953
-6.4399
-6.47439
-6.50286
-6.52478
-7.42436
-7.42447
-7.42452
-7.42449
-7.42417
-7.42297
-7.4205
-7.41723
-7.41411
-7.41211
-7.4122
-7.41458
-7.41875
-7.42397
-7.42949
-7.43464
-7.43888
-7.44179
-7.44335
-7.44388
-7.44368
-7.44294
-7.4419
-7.44086
-7.44004
-7.43957
-7.43937
-7.43928
-7.43909
-7.43873
-7.43819
-7.43752
-7.43666
-7.43552
-7.43417
-7.43286
-7.43218
-7.43285
-7.43504
-7.43814
-7.44121
-7.44364
-7.44549
-7.44716
-7.44909
-7.4518
-7.45517
-7.45826
-7.46049
-7.46338
-7.47045
-7.48603
-7.51092
-7.54355
-7.58307
-7.63065
-7.68647
-7.74875
-7.81584
-7.88591
-7.95721
-8.02791
-8.09635
-8.16167
-8.2233
-8.28057
-8.33329
-8.3814
-8.42494
-8.46398
-8.49864
-8.52902
-8.55518
-8.57721
-8.59511
-8.60892
-8.61858
-8.6241
-8.62538
-8.62241
-8.61506
-8.60331
-8.58702
-8.56616
-8.54058
-8.51023
-8.47499
-8.43481
-8.38963
-8.33943
-8.28413
-8.22366
-8.15788
-8.08674
-8.01019
-7.92821
-7.8408
-7.748
-7.64992
-7.54663
-7.43788
-7.32343
-7.20337
-7.07784
-6.94692
-6.81065
-6.66906
-6.5222
-6.3701
-6.21281
-6.05041
-5.88293
-5.71045
-5.53306
-5.35083
-5.16387
-4.97228
-4.77616
-4.57566
-4.37089
-4.162
-3.94914
-3.73246
-3.51214
-3.28835
-3.06126
-2.83106
-2.59796
-2.36213
-2.12377
-1.88306
-1.6402
-1.39541
-1.14893
-0.900951
-0.651701
-0.401432
-0.150362
0.101614
0.354396
0.607647
0.861141
1.1147
1.36813
1.62126
1.87393
2.12598
2.37721
2.62747
2.87658
3.12439
3.37076
3.61556
3.85862
4.09982
4.33901
4.57607
4.81089
5.04337
5.27339
5.50087
5.72572
5.94783
6.16711
6.38346
6.59676
6.80693
7.01386
7.21745
7.41761
7.61422
7.80718
7.99637
8.18168
8.36299
8.54023
8.71345
8.88258
9.05062
9.20862
-7.42556
-7.42574
-7.42609
-7.42644
-7.42641
-7.42559
-7.4237
-7.42129
-7.41955
-7.41942
-7.42119
-7.4247
-7.42946
-7.43482
-7.44019
-7.44507
-7.4491
-7.45208
-7.45382
-7.45412
-7.45309
-7.45103
-7.44838
-7.44562
-7.44317
-7.4413
-7.44004
-7.43923
-7.43859
-7.43799
-7.43743
-7.43691
-7.43635
-7.43564
-7.43471
-7.43397
-7.43411
-7.43571
-7.43864
-7.44196
-7.44453
-7.44576
-7.44601
-7.4455
-7.44425
-7.44354
-7.44553
-7.45143
-7.45795
-7.46422
-7.47388
-7.48864
-7.50926
-7.53852
-7.5794
-7.6315
-7.6922
-7.75934
-7.83055
-7.90344
-7.97586
-8.04605
-8.11339
-8.17698
-8.23599
-8.29047
-8.3405
-8.38614
-8.42753
-8.46474
-8.49789
-8.52705
-8.55226
-8.57355
-8.59093
-8.60437
-8.61382
-8.61924
-8.62055
-8.61767
-8.61052
-8.59901
-8.58304
-8.56254
-8.53738
-8.50749
-8.47275
-8.43311
-8.38851
-8.3389
-8.28425
-8.22445
-8.15938
-8.08899
-8.0132
-7.93199
-7.84533
-7.75318
-7.65548
-7.55218
-7.44338
-7.32931
-7.20996
-7.08524
-6.95516
-6.81974
-6.679
-6.533
-6.38176
-6.22533
-6.06378
-5.89715
-5.72552
-5.54897
-5.36757
-5.18142
-4.99063
-4.7953
-4.59556
-4.39154
-4.18338
-3.97122
-3.75522
-3.53555
-3.31239
-3.0859
-2.85627
-2.62371
-2.3884
-2.15052
-1.91025
-1.66781
-1.4234
-1.17723
-0.929484
-0.680297
-0.429812
-0.178262
0.073915
0.32654
0.57963
0.832985
1.08643
1.33976
1.59282
1.84544
2.09746
2.34869
2.59896
2.8481
3.09597
3.34243
3.58732
3.83052
4.07186
4.31122
4.54846
4.78348
5.01616
5.2464
5.47411
5.69919
5.92155
6.14108
6.3577
6.57129
6.78175
6.98898
7.19288
7.39337
7.59032
7.78366
7.97327
8.15908
8.34103
8.51903
8.69328
8.8631
9.03325
9.19058
-7.42685
-7.42685
-7.42688
-7.42694
-7.42701
-7.42702
-7.42722
-7.4281
-7.43013
-7.43345
-7.43787
-7.44303
-7.44852
-7.45392
-7.45885
-7.46303
-7.46625
-7.46839
-7.4694
-7.46921
-7.46783
-7.46541
-7.46211
-7.45814
-7.45376
-7.44924
-7.44487
-7.44092
-7.4376
-7.43498
-7.43303
-7.43151
-7.43015
-7.42892
-7.42824
-7.4288
-7.4312
-7.43538
-7.44003
-7.44339
-7.44399
-7.44228
-7.44016
-7.43944
-7.43999
-7.44133
-7.44555
-7.45456
-7.46771
-7.48522
-7.50819
-7.53679
-7.57129
-7.61226
-7.6601
-7.71389
-7.77201
-7.83313
-7.89587
-7.95896
-8.02126
-8.08188
-8.14031
-8.19605
-8.24861
-8.29777
-8.34345
-8.38557
-8.42412
-8.4591
-8.49049
-8.51829
-8.54248
-8.56303
-8.57988
-8.59299
-8.60228
-8.60768
-8.60908
-8.6064
-8.59954
-8.5884
-8.57287
-8.55287
-8.52828
-8.49899
-8.46491
-8.42596
-8.38207
-8.33321
-8.27932
-8.2203
-8.15605
-8.08648
-8.01156
-7.93124
-7.84551
-7.75437
-7.65775
-7.55562
-7.44799
-7.33498
-7.21664
-7.09295
-6.9639
-6.82954
-6.68988
-6.54496
-6.3948
-6.23948
-6.07902
-5.91349
-5.74296
-5.56749
-5.38718
-5.20211
-5.01238
-4.81809
-4.61938
-4.41636
-4.20918
-3.99798
-3.78292
-3.56415
-3.34186
-3.11621
-2.8874
-2.65561
-2.42104
-2.18386
-1.94426
-1.70246
-1.45866
-1.21305
-0.965851
-0.717209
-0.467285
-0.216284
0.0354462
0.287719
0.540465
0.793505
1.04665
1.29973
1.55256
1.80498
2.05683
2.30791
2.55806
2.8071
3.05491
3.30133
3.54622
3.78943
4.03081
4.27023
4.50756
4.74268
4.97547
5.20582
5.43365
5.65886
5.88134
6.10101
6.31775
6.53147
6.74206
6.94943
7.15347
7.35408
7.55117
7.74465
7.93443
8.12039
8.30248
8.48071
8.65551
8.82569
8.99855
9.15199
-7.428
-7.42772
-7.42736
-7.42737
-7.42851
-7.43117
-7.43517
-7.44015
-7.44578
-7.45174
-7.45777
-7.46359
-7.469
-7.47381
-7.47785
-7.481
-7.48315
-7.48423
-7.48423
-7.48311
-7.4809
-7.47764
-7.47345
-7.4684
-7.4626
-7.45618
-7.44932
-7.44232
-7.43552
-7.42928
-7.42386
-7.41946
-7.41628
-7.41474
-7.41555
-7.4191
-7.42459
-7.43016
-7.43407
-7.43582
-7.43586
-7.43547
-7.43631
-7.43927
-7.44479
-7.45357
-7.4665
-7.48433
-7.5072
-7.53488
-7.567
-7.60317
-7.64317
-7.68677
-7.73381
-7.78387
-7.83634
-7.89057
-7.94581
-8.00132
-8.05634
-8.11023
-8.16251
-8.21274
-8.26057
-8.30574
-8.34807
-8.38743
-8.42372
-8.45686
-8.48679
-8.51346
-8.53678
-8.55669
-8.57311
-8.58595
-8.59513
-8.60052
-8.60204
-8.59957
-8.59301
-8.58224
-8.56715
-8.54763
-8.52358
-8.49488
-8.46143
-8.42313
-8.37992
-8.33174
-8.27856
-8.22027
-8.15675
-8.08793
-8.01376
-7.9342
-7.84925
-7.75886
-7.66304
-7.56176
-7.45507
-7.34301
-7.2256
-7.10285
-6.97477
-6.84137
-6.70269
-6.55876
-6.40961
-6.25529
-6.09585
-5.93134
-5.76182
-5.58738
-5.40808
-5.22401
-5.03527
-4.84196
-4.64421
-4.44214
-4.23589
-4.02559
-3.8114
-3.59349
-3.37203
-3.14718
-2.91913
-2.68808
-2.45421
-2.21771
-1.97877
-1.73758
-1.49436
-1.24932
-1.00264
-0.754498
-0.50509
-0.25462
-0.00334289
0.248571
0.500981
0.753711
1.00657
1.25939
1.512
1.76422
2.01588
2.26681
2.51682
2.76576
3.01349
3.25987
3.50473
3.74795
3.98935
4.22882
4.46621
4.7014
4.93427
5.16473
5.39266
5.61797
5.84056
6.06033
6.27719
6.49102
6.70173
6.90919
7.11333
7.31403
7.51121
7.70478
7.89466
8.08076
8.26306
8.4415
8.61664
8.78674
8.96042
9.10787
-7.43029
-7.42971
-7.42933
-7.43073
-7.43489
-7.44111
-7.44832
-7.45584
-7.46322
-7.47014
-7.47644
-7.48207
-7.48697
-7.49108
-7.49431
-7.49658
-7.49784
-7.49802
-7.49712
-7.49509
-7.49195
-7.48774
-7.4825
-7.47628
-7.46916
-7.46121
-7.4525
-7.44324
-7.43374
-7.42447
-7.41604
-7.4092
-7.40486
-7.40399
-7.40674
-7.41149
-7.41651
-7.42091
-7.42438
-7.42728
-7.43035
-7.43466
-7.44121
-7.4509
-7.46459
-7.48273
-7.50506
-7.53098
-7.5602
-7.59243
-7.62742
-7.66506
-7.70529
-7.74802
-7.79309
-7.84016
-7.88879
-7.93849
-7.98875
-8.03902
-8.08881
-8.13768
-8.18523
-8.23112
-8.27507
-8.31685
-8.35626
-8.39313
-8.42734
-8.45877
-8.48731
-8.51286
-8.53532
-8.55458
-8.57053
-8.58306
-8.59206
-8.5974
-8.59896
-8.59663
-8.59028
-8.5798
-8.56505
-8.54594
-8.52233
-8.49412
-8.46118
-8.42342
-8.38075
-8.33316
-8.28055
-8.22284
-8.15991
-8.09168
-8.01813
-7.9392
-7.85489
-7.76516
-7.67003
-7.56946
-7.46351
-7.35218
-7.23552
-7.11351
-6.98619
-6.85356
-6.71567
-6.57253
-6.42419
-6.27068
-6.11206
-5.94837
-5.77968
-5.60606
-5.42758
-5.24432
-5.05638
-4.86387
-4.6669
-4.46559
-4.26008
-4.0505
-3.83703
-3.6198
-3.39899
-3.17478
-2.94736
-2.7169
-2.4836
-2.24764
-2.00921
-1.76853
-1.52579
-1.28119
-1.03493
-0.787191
-0.538171
-0.28809
-0.0371537
0.214453
0.466585
0.719046
0.971669
1.22427
1.47668
1.72872
1.98022
2.231
2.48089
2.72974
2.9774
3.22373
3.46857
3.71178
3.9532
4.19269
4.43012
4.66537
4.89832
5.12885
5.35687
5.58228
5.80497
6.02486
6.24182
6.45575
6.66656
6.87414
7.07839
7.27922
7.47652
7.67022
7.86022
8.04646
8.22891
8.40743
8.58259
8.75209
8.92537
9.06628
-7.43453
-7.43364
-7.43416
-7.43859
-7.44595
-7.45434
-7.46283
-7.47097
-7.47846
-7.48521
-7.49124
-7.49651
-7.50098
-7.50459
-7.50725
-7.5089
-7.5095
-7.50901
-7.50741
-7.50468
-7.50083
-7.49589
-7.48988
-7.48279
-7.47464
-7.4655
-7.45551
-7.44486
-7.43387
-7.42319
-7.41362
-7.40634
-7.40247
-7.40211
-7.40392
-7.40659
-7.40985
-7.41401
-7.41932
-7.42588
-7.43386
-7.44431
-7.45824
-7.47595
-7.49724
-7.52171
-7.54912
-7.57909
-7.61134
-7.64574
-7.68212
-7.7204
-7.76046
-7.80218
-7.84539
-7.88983
-7.9352
-7.98116
-8.02736
-8.07345
-8.11907
-8.16392
-8.20769
-8.25011
-8.29092
-8.32991
-8.36688
-8.40166
-8.4341
-8.46405
-8.49138
-8.51595
-8.53763
-8.55629
-8.57181
-8.58405
-8.59287
-8.59814
-8.59972
-8.59749
-8.59131
-8.58106
-8.56659
-8.5478
-8.52456
-8.49673
-8.4642
-8.42686
-8.38464
-8.33746
-8.28531
-8.22803
-8.16552
-8.09773
-8.02461
-7.94614
-7.86229
-7.77304
-7.67839
-7.57834
-7.47291
-7.36211
-7.24597
-7.12451
-6.99773
-6.86567
-6.72835
-6.58579
-6.43805
-6.28515
-6.12714
-5.96407
-5.796
-5.62299
-5.44513
-5.26248
-5.07514
-4.88322
-4.68683
-4.48609
-4.28113
-4.0721
-3.85914
-3.64242
-3.4221
-3.19836
-2.97139
-2.74137
-2.50848
-2.27292
-2.03488
-1.79457
-1.55219
-1.30794
-1.06201
-0.814576
-0.565863
-0.316076
-0.0654099
0.185952
0.43785
0.690092
0.942508
1.19492
1.44715
1.69903
1.95038
2.20102
2.4508
2.69955
2.94713
3.1934
3.4382
3.68138
3.92279
4.16227
4.39972
4.63499
4.86797
5.09855
5.32663
5.5521
5.77486
5.99481
6.21185
6.42587
6.63676
6.84443
7.04877
7.24969
7.44709
7.64088
7.83097
8.01727
8.19974
8.37816
8.55306
8.72168
8.8943
9.02884
-7.43983
-7.43939
-7.44208
-7.44922
-7.45794
-7.4666
-7.47486
-7.48258
-7.48969
-7.49616
-7.50194
-7.50696
-7.51113
-7.51438
-7.51666
-7.5179
-7.51806
-7.51712
-7.51505
-7.51186
-7.50756
-7.50216
-7.49561
-7.48784
-7.47895
-7.46911
-7.45855
-7.44752
-7.43643
-7.42603
-7.41743
-7.41159
-7.40823
-7.4064
-7.40586
-7.40695
-7.41025
-7.41581
-7.42351
-7.43384
-7.44738
-7.46425
-7.48423
-7.5071
-7.53265
-7.56056
-7.5906
-7.62262
-7.65643
-7.69191
-7.72887
-7.76719
-7.80673
-7.84735
-7.88891
-7.93122
-7.97407
-8.01723
-8.06046
-8.10349
-8.14608
-8.18798
-8.22895
-8.26875
-8.30717
-8.34401
-8.37909
-8.41222
-8.44323
-8.47199
-8.49832
-8.52207
-8.54311
-8.56128
-8.57643
-8.58842
-8.59709
-8.6023
-8.60391
-8.60176
-8.59572
-8.58566
-8.57143
-8.5529
-8.52994
-8.50242
-8.47021
-8.43319
-8.39128
-8.34444
-8.29257
-8.23557
-8.17334
-8.10582
-8.03297
-7.95478
-7.8712
-7.78225
-7.68789
-7.58815
-7.48302
-7.37256
-7.25674
-7.13562
-7.00919
-6.8775
-6.74055
-6.5984
-6.45105
-6.29857
-6.14098
-5.97834
-5.81071
-5.63814
-5.46071
-5.27849
-5.09158
-4.90008
-4.70409
-4.50374
-4.29917
-4.09051
-3.87791
-3.66154
-3.44155
-3.21814
-2.99148
-2.76176
-2.52916
-2.29387
-2.05611
-1.81608
-1.57396
-1.32996
-1.08427
-0.837077
-0.588609
-0.339051
-0.0886056
0.16256
0.414258
0.666319
0.918556
1.1708
1.42288
1.67461
1.92581
2.17632
2.42597
2.67462
2.92212
3.16832
3.41307
3.6562
3.89756
4.13702
4.37444
4.6097
4.84267
5.07326
5.30135
5.52685
5.74965
5.96965
6.18673
6.40079
6.61174
6.81945
7.02384
7.22481
7.42226
7.6161
7.80622
7.99251
8.1749
8.35311
8.5276
8.69524
8.86723
8.99584
-7.44402
-7.44483
-7.45013
-7.45833
-7.46673
-7.47478
-7.48249
-7.48981
-7.49665
-7.50292
-7.50852
-7.51336
-7.51735
-7.52041
-7.52248
-7.52349
-7.52342
-7.52225
-7.51995
-7.51653
-7.51202
-7.50632
-7.49937
-7.49129
-7.48231
-7.47257
-7.46226
-7.4518
-7.44189
-7.43336
-7.42669
-7.42138
-7.41682
-7.41347
-7.41227
-7.41353
-7.41758
-7.42501
-7.43603
-7.45045
-7.46802
-7.4885
-7.51166
-7.53722
-7.56497
-7.5947
-7.62619
-7.65932
-7.69389
-7.72976
-7.76679
-7.80484
-7.84379
-7.88351
-7.92385
-7.96467
-8.0058
-8.04706
-8.08827
-8.12923
-8.16972
-8.20957
-8.24855
-8.28649
-8.32318
-8.35846
-8.39213
-8.42402
-8.45397
-8.48181
-8.50737
-8.53051
-8.55104
-8.56883
-8.5837
-8.5955
-8.60407
-8.60924
-8.61087
-8.60881
-8.6029
-8.593
-8.57897
-8.56066
-8.53794
-8.51065
-8.47867
-8.44188
-8.40019
-8.35352
-8.30183
-8.24499
-8.1829
-8.1155
-8.04277
-7.96468
-7.88122
-7.79237
-7.69813
-7.59851
-7.49351
-7.38317
-7.26751
-7.14654
-7.02029
-6.88879
-6.75206
-6.61012
-6.46302
-6.31079
-6.15347
-5.99111
-5.82375
-5.65147
-5.47432
-5.29239
-5.10575
-4.91452
-4.71879
-4.5187
-4.31437
-4.10595
-3.89358
-3.67742
-3.45765
-3.23444
-3.00798
-2.77844
-2.54602
-2.31093
-2.07335
-1.8335
-1.59157
-1.34775
-1.10224
-0.855236
-0.606957
-0.357585
-0.107314
0.143682
0.395214
0.647113
0.899198
1.1513
1.40322
1.6548
1.90586
2.15624
2.40577
2.65431
2.90173
3.14785
3.39253
3.63559
3.87689
4.11628
4.35365
4.58886
4.8218
5.05237
5.28045
5.50595
5.72877
5.94878
6.16588
6.37997
6.59092
6.79866
7.00308
7.20407
7.40154
7.5954
7.78551
7.97174
8.154
8.33192
8.50595
8.67261
8.84403
8.96732
-7.44536
-7.44781
-7.45466
-7.46257
-7.4703
-7.47787
-7.48525
-7.49234
-7.49904
-7.50523
-7.51078
-7.51559
-7.51955
-7.52259
-7.52463
-7.52563
-7.52556
-7.52438
-7.52209
-7.51868
-7.51412
-7.50833
-7.50137
-7.49351
-7.48491
-7.47578
-7.46654
-7.45769
-7.44967
-7.44262
-7.43631
-7.43057
-7.42563
-7.42237
-7.42171
-7.4242
-7.43023
-7.43996
-7.45316
-7.46961
-7.48907
-7.51124
-7.53588
-7.56274
-7.59159
-7.62222
-7.65445
-7.68811
-7.72303
-7.75906
-7.79606
-7.83391
-7.87247
-7.91161
-7.9512
-7.99109
-8.03117
-8.07125
-8.1112
-8.15083
-8.18999
-8.2285
-8.26619
-8.30289
-8.33843
-8.37264
-8.40536
-8.4364
-8.46559
-8.49279
-8.5178
-8.54048
-8.56065
-8.57817
-8.59284
-8.60451
-8.613
-8.61816
-8.61983
-8.61786
-8.61207
-8.60232
-8.58846
-8.57034
-8.54779
-8.52069
-8.48888
-8.45223
-8.41063
-8.36409
-8.31244
-8.25564
-8.19357
-8.12616
-8.05341
-7.97528
-7.89178
-7.80287
-7.70858
-7.6089
-7.50387
-7.3935
-7.27783
-7.15686
-7.03064
-6.89918
-6.76252
-6.62067
-6.47368
-6.32157
-6.16439
-6.00218
-5.83499
-5.66286
-5.48588
-5.3041
-5.11763
-4.92655
-4.73098
-4.53103
-4.32683
-4.11854
-3.90629
-3.69025
-3.47059
-3.24749
-3.02114
-2.7917
-2.55939
-2.32441
-2.08696
-1.84723
-1.60542
-1.36174
-1.11636
-0.869505
-0.621372
-0.372155
-0.122025
0.128817
0.380207
0.631955
0.883898
1.13585
1.38763
1.63906
1.88998
2.14021
2.38962
2.63805
2.88536
3.1314
3.37599
3.61896
3.86017
4.09948
4.33677
4.57192
4.80481
5.03533
5.26338
5.48887
5.71168
5.93169
6.14879
6.36286
6.57382
6.78155
6.98597
7.18696
7.38444
7.57829
7.76836
7.95451
8.13658
8.31417
8.48771
8.65342
8.82432
8.94299
-7.44229
-7.44612
-7.45316
-7.46054
-7.46796
-7.47536
-7.48265
-7.48972
-7.49647
-7.50276
-7.50846
-7.51344
-7.5176
-7.52083
-7.52308
-7.52427
-7.52437
-7.52335
-7.5212
-7.51789
-7.51342
-7.5078
-7.5012
-7.49389
-7.48612
-7.47819
-7.47041
-7.46286
-7.45563
-7.44885
-7.44258
-7.43713
-7.43307
-7.43113
-7.43194
-7.43591
-7.44328
-7.45414
-7.46835
-7.48571
-7.50601
-7.52895
-7.55428
-7.58174
-7.61112
-7.64221
-7.67483
-7.7088
-7.74396
-7.78016
-7.81725
-7.85508
-7.89352
-7.93244
-7.97171
-8.0112
-8.05077
-8.09027
-8.12956
-8.1685
-8.20693
-8.24471
-8.28167
-8.31766
-8.35252
-8.3861
-8.41823
-8.44874
-8.47746
-8.50421
-8.52884
-8.55119
-8.57109
-8.58837
-8.60289
-8.61446
-8.62292
-8.6281
-8.62983
-8.62796
-8.62231
-8.61272
-8.59903
-8.58107
-8.55869
-8.53173
-8.50002
-8.46344
-8.42191
-8.37532
-8.32366
-8.26679
-8.20461
-8.13707
-8.06416
-7.98586
-7.90216
-7.81307
-7.71857
-7.61871
-7.5135
-7.40297
-7.28715
-7.16607
-7.03976
-6.90823
-6.77153
-6.62966
-6.48267
-6.33059
-6.17345
-6.0113
-5.84417
-5.67212
-5.49521
-5.31351
-5.12711
-4.9361
-4.74059
-4.5407
-4.33656
-4.12832
-3.91612
-3.70013
-3.48051
-3.25746
-3.03114
-2.80176
-2.5695
-2.33459
-2.09721
-1.85756
-1.61584
-1.37226
-1.12699
-0.880257
-0.632251
-0.383161
-0.133167
0.11754
0.368788
0.620397
0.872192
1.12399
1.37561
1.62688
1.87764
2.12773
2.377
2.6253
2.8725
3.11845
3.36294
3.6058
3.84689
4.0861
4.32329
4.55834
4.79115
5.0216
5.24961
5.47506
5.69786
5.91786
6.13493
6.34897
6.5599
6.76762
6.97202
7.17301
7.37048
7.5643
7.75432
7.94035
8.12222
8.29945
8.47249
8.6373
8.8077
8.92245
-7.43291
-7.4374
-7.44418
-7.45156
-7.45918
-7.46677
-7.47426
-7.48155
-7.48856
-7.49515
-7.50118
-7.50651
-7.51101
-7.51457
-7.51711
-7.51859
-7.51895
-7.51818
-7.51627
-7.51323
-7.50911
-7.50404
-7.49819
-7.49179
-7.48496
-7.47788
-7.47071
-7.46358
-7.4566
-7.45004
-7.44427
-7.43973
-7.43683
-7.43611
-7.43809
-7.44312
-7.4514
-7.46301
-7.47786
-7.49578
-7.51653
-7.53988
-7.56556
-7.59335
-7.62306
-7.65448
-7.68742
-7.72172
-7.7572
-7.79368
-7.83103
-7.86908
-7.90771
-7.94677
-7.98613
-8.02565
-8.06518
-8.10459
-8.14375
-8.18251
-8.22073
-8.25824
-8.29491
-8.33059
-8.36512
-8.39836
-8.43014
-8.46032
-8.48871
-8.51518
-8.53954
-8.56165
-8.58134
-8.59847
-8.61286
-8.62437
-8.63283
-8.63805
-8.63987
-8.63812
-8.63261
-8.62319
-8.60967
-8.59188
-8.56964
-8.54278
-8.51113
-8.47455
-8.43294
-8.3863
-8.3345
-8.27746
-8.21507
-8.14731
-8.07412
-7.99554
-7.91154
-7.82214
-7.72733
-7.62718
-7.52167
-7.41089
-7.29483
-7.17356
-7.04706
-6.9154
-6.77857
-6.63662
-6.48956
-6.33744
-6.18028
-6.01812
-5.851
-5.67897
-5.50208
-5.3204
-5.13402
-4.94303
-4.74753
-4.54766
-4.34353
-4.1353
-3.92311
-3.70712
-3.48752
-3.26447
-3.03816
-2.8088
-2.57657
-2.3417
-2.10437
-1.86479
-1.62316
-1.37966
-1.1345
-0.887875
-0.639997
-0.391032
-0.141181
0.109388
0.360484
0.611943
0.863575
1.11521
1.36666
1.61776
1.86835
2.11828
2.3674
2.61555
2.86264
3.10849
3.35286
3.59558
3.83654
4.07561
4.31268
4.54763
4.78034
5.01071
5.23865
5.46407
5.68685
5.90682
6.12385
6.33785
6.54874
6.75643
6.96081
7.16177
7.35923
7.55303
7.74298
7.92887
8.11051
8.28738
8.45992
8.62388
8.79378
8.90532
-7.4157
-7.42022
-7.42717
-7.43531
-7.44363
-7.45171
-7.45956
-7.4672
-7.47462
-7.48168
-7.48822
-7.49403
-7.49896
-7.50293
-7.50588
-7.50774
-7.5085
-7.50815
-7.50669
-7.50417
-7.50066
-7.49625
-7.49108
-7.48528
-7.47898
-7.47232
-7.46542
-7.45849
-7.45182
-7.44574
-7.44059
-7.43674
-7.43469
-7.43492
-7.43783
-7.44374
-7.4528
-7.46507
-7.48044
-7.49879
-7.51987
-7.54351
-7.56947
-7.59756
-7.62759
-7.65937
-7.69272
-7.72744
-7.76337
-7.80032
-7.83816
-7.87672
-7.91585
-7.95541
-7.99523
-8.03515
-8.07504
-8.11474
-8.15413
-8.19305
-8.23136
-8.26892
-8.3056
-8.34123
-8.37569
-8.40881
-8.44043
-8.47043
-8.49863
-8.52489
-8.54904
-8.57094
-8.59045
-8.60742
-8.62169
-8.63312
-8.64154
-8.64679
-8.64868
-8.64703
-8.64168
-8.63243
-8.61908
-8.60145
-8.57934
-8.55255
-8.52088
-8.48422
-8.44253
-8.3957
-8.34373
-8.28646
-8.22381
-8.15573
-8.08222
-8.00329
-7.91893
-7.82914
-7.73397
-7.63344
-7.5276
-7.41649
-7.30015
-7.17862
-7.05192
-6.92006
-6.78308
-6.64101
-6.49386
-6.34167
-6.18447
-6.02229
-5.85517
-5.68313
-5.50624
-5.32457
-5.13819
-4.9472
-4.75171
-4.55184
-4.34772
-4.1395
-3.92732
-3.71134
-3.49174
-3.26869
-3.04239
-2.81305
-2.58086
-2.34603
-2.10876
-1.86926
-1.62772
-1.38432
-1.13927
-0.89278
-0.645036
-0.396215
-0.146513
0.103897
0.354833
0.606118
0.857572
1.10902
1.36028
1.61119
1.8616
2.11135
2.36029
2.60829
2.85527
3.10103
3.34527
3.58784
3.82863
4.06755
4.30448
4.53929
4.77189
5.00217
5.23003
5.45542
5.67819
5.89812
6.11509
6.32905
6.53989
6.74754
6.95189
7.15283
7.35027
7.54405
7.73392
7.91966
8.10107
8.27757
8.44962
8.61281
8.78216
8.89121
-7.3903
-7.39468
-7.40252
-7.41205
-7.42135
-7.42999
-7.43826
-7.44641
-7.4545
-7.46233
-7.46958
-7.47603
-7.48153
-7.48602
-7.48947
-7.49185
-7.49316
-7.49336
-7.49248
-7.49053
-7.4876
-7.48374
-7.47905
-7.47363
-7.46761
-7.46113
-7.45443
-7.44775
-7.44137
-7.43562
-7.43089
-7.42764
-7.42632
-7.42734
-7.43107
-7.43775
-7.44748
-7.46031
-7.47612
-7.4948
-7.51617
-7.54007
-7.56631
-7.59474
-7.62517
-7.65744
-7.69134
-7.72667
-7.76325
-7.8009
-7.83946
-7.87876
-7.91864
-7.95891
-7.99943
-8.04002
-8.08053
-8.12081
-8.16069
-8.20002
-8.23866
-8.27649
-8.31336
-8.34914
-8.38367
-8.41681
-8.44842
-8.47832
-8.50633
-8.53232
-8.55614
-8.5777
-8.59689
-8.61357
-8.6276
-8.63883
-8.64715
-8.65238
-8.65433
-8.65283
-8.64768
-8.63866
-8.62555
-8.60811
-8.58612
-8.55934
-8.52758
-8.49079
-8.44893
-8.402
-8.34983
-8.29232
-8.22939
-8.16098
-8.08713
-8.00783
-7.9231
-7.83291
-7.73735
-7.63641
-7.53022
-7.41877
-7.30216
-7.18037
-7.05347
-6.92142
-6.7843
-6.6421
-6.49488
-6.34264
-6.18543
-6.02325
-5.85614
-5.68413
-5.50728
-5.32563
-5.13928
-4.94832
-4.75286
-4.55303
-4.34896
-4.14078
-3.92865
-3.71272
-3.49316
-3.27015
-3.04388
-2.81459
-2.58247
-2.34772
-2.11056
-1.87117
-1.62975
-1.38649
-1.1416
-0.895282
-0.647707
-0.399077
-0.149562
0.100644
0.351376
0.602443
0.853674
1.10489
1.35592
1.60662
1.85681
2.10634
2.35507
2.60289
2.84979
3.09554
3.33968
3.58206
3.82267
4.06142
4.29819
4.53288
4.76536
4.99555
5.22334
5.44871
5.67151
5.89142
6.10833
6.32222
6.53301
6.74062
6.94494
7.14586
7.34329
7.53705
7.72686
7.91243
8.09359
8.26974
8.44131
8.60377
8.77253
8.87976
-7.35791
-7.36259
-7.3719
-7.38318
-7.39357
-7.40291
-7.41192
-7.42077
-7.42955
-7.43825
-7.44655
-7.45399
-7.46019
-7.46518
-7.46913
-7.47209
-7.47399
-7.47478
-7.47447
-7.47306
-7.4706
-7.46712
-7.46271
-7.45748
-7.45159
-7.44522
-7.4386
-7.432
-7.42574
-7.42024
-7.4159
-7.41316
-7.41245
-7.41414
-7.41852
-7.42578
-7.436
-7.44921
-7.46534
-7.4843
-7.50594
-7.53013
-7.5567
-7.58552
-7.61642
-7.64923
-7.68375
-7.71978
-7.75713
-7.79562
-7.83508
-7.87529
-7.91609
-7.95727
-7.99867
-8.04011
-8.08142
-8.12241
-8.16294
-8.20282
-8.24192
-8.28009
-8.3172
-8.35311
-8.38769
-8.42079
-8.45223
-8.48185
-8.50946
-8.5349
-8.55813
-8.57912
-8.5978
-8.61405
-8.62764
-8.63846
-8.64652
-8.6517
-8.65379
-8.65257
-8.64783
-8.63926
-8.62655
-8.60943
-8.58759
-8.5608
-8.52891
-8.49197
-8.45009
-8.40307
-8.35076
-8.29301
-8.22974
-8.161
-8.08679
-8.00713
-7.92199
-7.83138
-7.73535
-7.63398
-7.52736
-7.41557
-7.29864
-7.1766
-7.04947
-6.91724
-6.77994
-6.63763
-6.49033
-6.33807
-6.18086
-6.01871
-5.85166
-5.67971
-5.50291
-5.32133
-5.13506
-4.94418
-4.74882
-4.54908
-4.3451
-4.13701
-3.92496
-3.70911
-3.48964
-3.26674
-3.04061
-2.81146
-2.57949
-2.34492
-2.10795
-1.86877
-1.62757
-1.38456
-1.13994
-0.893903
-0.646622
-0.398296
-0.149101
0.100778
0.351165
0.601878
0.852742
1.10359
1.35425
1.60457
1.85439
2.10355
2.35191
2.59936
2.84602
3.09165
3.33562
3.57775
3.81813
4.05669
4.29329
4.52783
4.76018
4.99026
5.21797
5.44341
5.66634
5.88627
6.10312
6.31695
6.5277
6.73528
6.93959
7.14051
7.33797
7.53176
7.7215
7.90692
8.08783
8.26362
8.43473
8.59652
8.76463
8.87068
-7.32145
-7.32701
-7.33831
-7.35173
-7.36325
-7.37288
-7.38227
-7.39213
-7.40215
-7.41197
-7.42131
-7.42974
-7.43675
-7.44227
-7.4467
-7.4502
-7.45267
-7.45401
-7.4542
-7.45321
-7.45107
-7.44782
-7.44356
-7.43838
-7.43246
-7.426
-7.41928
-7.41263
-7.40642
-7.40107
-7.39699
-7.39461
-7.3943
-7.39637
-7.40109
-7.40861
-7.41903
-7.43238
-7.44861
-7.46768
-7.48946
-7.51385
-7.54071
-7.56992
-7.6013
-7.63468
-7.66984
-7.70662
-7.74482
-7.78424
-7.82466
-7.86589
-7.90772
-7.94993
-7.99232
-8.03468
-8.07682
-8.11851
-8.1596
-8.19989
-8.23926
-8.27756
-8.31466
-8.35043
-8.38476
-8.4175
-8.44847
-8.47749
-8.50432
-8.52878
-8.55091
-8.57093
-8.5889
-8.60459
-8.61749
-8.62746
-8.63481
-8.63972
-8.64197
-8.64126
-8.63722
-8.62945
-8.61749
-8.601
-8.57978
-8.55376
-8.5228
-8.48673
-8.44534
-8.39855
-8.34619
-8.28824
-8.22468
-8.15557
-8.0809
-8.00075
-7.91506
-7.82389
-7.72725
-7.62531
-7.51814
-7.40587
-7.28848
-7.16606
-7.03857
-6.90605
-6.7685
-6.62601
-6.47857
-6.32622
-6.16895
-6.0068
-5.83976
-5.66784
-5.49108
-5.30956
-5.12336
-4.93258
-4.7373
-4.53764
-4.33373
-4.12572
-3.91375
-3.69798
-3.47861
-3.25583
-3.02985
-2.80086
-2.56907
-2.3347
-2.09795
-1.85899
-1.61804
-1.37532
-1.13103
-0.885326
-0.638408
-0.390456
-0.141665
0.1078
0.357748
0.608008
0.858402
1.10876
1.35893
1.60875
1.85804
2.10666
2.35443
2.60121
2.84686
3.0913
3.33441
3.57604
3.81602
4.05422
4.2905
4.52474
4.75682
4.98663
5.21409
5.43943
5.6624
5.88231
6.09907
6.31284
6.52356
6.73113
6.93544
7.13637
7.33394
7.52786
7.71759
7.90286
8.08354
8.25898
8.42967
8.59081
8.75823
8.86372
-7.28451
-7.29126
-7.305
-7.32033
-7.33217
-7.34222
-7.35266
-7.36362
-7.37468
-7.3855
-7.39583
-7.40519
-7.41297
-7.41912
-7.42413
-7.42823
-7.43127
-7.43312
-7.43373
-7.43307
-7.43114
-7.42797
-7.42364
-7.4183
-7.41215
-7.40541
-7.39841
-7.3915
-7.3851
-7.3796
-7.37541
-7.37293
-7.3725
-7.37443
-7.37895
-7.38624
-7.39639
-7.40947
-7.42547
-7.44435
-7.46606
-7.49052
-7.51761
-7.5472
-7.57909
-7.6131
-7.64901
-7.68664
-7.72579
-7.76622
-7.8077
-7.84997
-7.89281
-7.93597
-7.97922
-8.02232
-8.06504
-8.10715
-8.14848
-8.18884
-8.22812
-8.26615
-8.30285
-8.33811
-8.37182
-8.40388
-8.43415
-8.46238
-8.48822
-8.51112
-8.53119
-8.5492
-8.56584
-8.58119
-8.59472
-8.60583
-8.6141
-8.61946
-8.62203
-8.62174
-8.61819
-8.61098
-8.59956
-8.58359
-8.56297
-8.53779
-8.50783
-8.4727
-8.43192
-8.38538
-8.33312
-8.27511
-8.2114
-8.142
-8.06697
-7.98636
-7.9002
-7.8085
-7.71137
-7.60893
-7.50133
-7.38861
-7.27086
-7.14809
-7.02032
-6.88756
-6.74986
-6.60726
-6.45978
-6.30742