/*--------------------------------*- C++ -*----------------------------------*\
  =========                 |
  \\      /  F ield         | OpenFOAM: The Open Source CFD Toolbox
   \\    /   O peration     | Website:  https://openfoam.org
    \\  /    A nd           | Version:  8
     \\/     M anipulation  |
\*---------------------------------------------------------------------------*/
FoamFile
{
    version     2.0;
    format      ascii;
    class       volVectorField;
    location    "1000";
    object      U;
}
// * * * * * * * * * * * * * * * * * * * * * * * * * * * * * * * * * * * * * //

dimensions      [0 1 -1 0 0 0 0];

internalField   nonuniform List<vector> 
12225
(
(9.75556 0.0493173 0)
(9.29732 0.101336 0)
(8.84897 0.12372 0)
(8.41399 0.113128 0)
(8.05871 0.0839235 0)
(7.76674 0.0634705 0)
(7.52079 0.0484657 0)
(7.32234 0.0317787 0)
(7.15513 0.0282576 0)
(7.02199 0.0274073 0)
(6.91685 0.0202075 0)
(6.83005 0.0242066 0)
(6.7563 0.0147091 0)
(6.69609 -0.000211501 0)
(6.65395 -0.00976423 0)
(6.6201 -0.0155787 0)
(6.59344 -0.0176549 0)
(6.58461 -0.01112 0)
(10.0915 0.0592073 0)
(10.2593 0.0916995 0)
(10.3415 0.0888001 0)
(10.3472 0.0849044 0)
(10.3223 0.0833868 0)
(10.2592 0.0800019 0)
(10.1914 0.0733973 0)
(10.1047 0.0680045 0)
(10.0245 0.0613855 0)
(9.92403 0.0538707 0)
(9.83354 0.0484056 0)
(9.73838 0.043103 0)
(9.64575 0.0403211 0)
(9.56476 0.0377901 0)
(9.48892 0.035434 0)
(9.41966 0.032438 0)
(9.35499 0.0263934 0)
(9.29373 0.0177323 0)
(10.0163 0.0426444 0)
(10.0712 0.0669413 0)
(10.1257 0.0725675 0)
(10.1691 0.0777504 0)
(10.205 0.0797229 0)
(10.2333 0.0794162 0)
(10.254 0.0780894 0)
(10.2661 0.0753593 0)
(10.272 0.0723294 0)
(10.2722 0.0692065 0)
(10.2677 0.0657255 0)
(10.2594 0.0632737 0)
(10.2483 0.0596587 0)
(10.2342 0.0554153 0)
(10.2172 0.0511858 0)
(10.1988 0.0475286 0)
(10.1794 0.0435761 0)
(10.1587 0.0390403 0)
(10.0071 0.0307556 0)
(10.0378 0.0579946 0)
(10.0693 0.0673463 0)
(10.0937 0.0722308 0)
(10.1142 0.0733063 0)
(10.1326 0.0720131 0)
(10.149 0.0695371 0)
(10.163 0.066656 0)
(10.175 0.0643445 0)
(10.1857 0.0620351 0)
(10.1951 0.0594724 0)
(10.2036 0.0576305 0)
(10.2112 0.0548068 0)
(10.2174 0.0514437 0)
(10.2219 0.0482543 0)
(10.2255 0.0452021 0)
(10.2282 0.0418861 0)
(10.2301 0.0383719 0)
(10.0046 0.0243735 0)
(10.0273 0.0520885 0)
(10.052 0.0619876 0)
(10.0715 0.0662248 0)
(10.0872 0.067513 0)
(10.1014 0.066852 0)
(10.1141 0.0651551 0)
(10.1252 0.0630294 0)
(10.1349 0.0610544 0)
(10.1438 0.0590055 0)
(10.152 0.0568166 0)
(10.1599 0.0548351 0)
(10.1673 0.0522445 0)
(10.174 0.0492366 0)
(10.1798 0.0461998 0)
(10.185 0.043207 0)
(10.1896 0.0400588 0)
(10.1938 0.0367785 0)
(10.0031 0.0195982 0)
(10.0206 0.0455155 0)
(10.0415 0.0556388 0)
(10.0589 0.0601848 0)
(10.0731 0.0622088 0)
(10.0858 0.0623275 0)
(10.0973 0.0611942 0)
(10.1073 0.0594166 0)
(10.1161 0.0575092 0)
(10.1241 0.0554974 0)
(10.1316 0.0533662 0)
(10.1387 0.0512209 0)
(10.1453 0.0487228 0)
(10.1514 0.0459561 0)
(10.1569 0.0430777 0)
(10.1619 0.0401928 0)
(10.1663 0.0372376 0)
(10.1704 0.0342058 0)
(10.0022 0.0158485 0)
(10.0155 0.0392888 0)
(10.0333 0.0494998 0)
(10.049 0.0544011 0)
(10.0622 0.0568362 0)
(10.074 0.057423 0)
(10.0848 0.0567008 0)
(10.0944 0.0552649 0)
(10.1028 0.0535674 0)
(10.1105 0.0517229 0)
(10.1177 0.0497388 0)
(10.1244 0.047631 0)
(10.1306 0.045282 0)
(10.1364 0.0427345 0)
(10.1416 0.040071 0)
(10.1464 0.0373774 0)
(10.1507 0.0346338 0)
(10.1546 0.0318364 0)
(10.0016 0.0131771 0)
(10.0123 0.0341784 0)
(10.0275 0.0443089 0)
(10.0418 0.049415 0)
(10.0541 0.052109 0)
(10.0652 0.0530582 0)
(10.0756 0.052708 0)
(10.0848 0.0515765 0)
(10.0931 0.0500816 0)
(10.1006 0.0483759 0)
(10.1076 0.0465066 0)
(10.1141 0.044473 0)
(10.1201 0.0422582 0)
(10.1257 0.0398809 0)
(10.1308 0.0373945 0)
(10.1354 0.0348554 0)
(10.1397 0.0322705 0)
(10.1435 0.029643 0)
(10.0012 0.0112106 0)
(10.01 0.0302303 0)
(10.0232 0.0400409 0)
(10.0363 0.0452103 0)
(10.0479 0.0479904 0)
(10.0584 0.0491401 0)
(10.0683 0.0490371 0)
(10.0772 0.0481289 0)
(10.0852 0.0468032 0)
(10.0926 0.0452306 0)
(10.0994 0.0434695 0)
(10.1057 0.0415275 0)
(10.1116 0.0394158 0)
(10.117 0.0371633 0)
(10.122 0.0348062 0)
(10.1265 0.0324058 0)
(10.1306 0.0299668 0)
(10.1344 0.0275131 0)
(10.001 0.00946385 0)
(10.0081 0.0263051 0)
(10.0194 0.0355337 0)
(10.0312 0.0406839 0)
(10.0419 0.043512 0)
(10.0518 0.0448257 0)
(10.0611 0.044943 0)
(10.0697 0.0442544 0)
(10.0774 0.0431001 0)
(10.0846 0.041673 0)
(10.0912 0.0400316 0)
(10.0973 0.0382073 0)
(10.103 0.0362253 0)
(10.1083 0.0341059 0)
(10.1131 0.0319032 0)
(10.1175 0.0296495 0)
(10.1215 0.0273691 0)
(10.1252 0.0250802 0)
(10.0008 0.00787705 0)
(10.0065 0.0223954 0)
(10.016 0.030848 0)
(10.0264 0.0358592 0)
(10.0363 0.03868 0)
(10.0455 0.0400937 0)
(10.0542 0.0404011 0)
(10.0624 0.039912 0)
(10.0698 0.0389402 0)
(10.0767 0.0376601 0)
(10.0831 0.0361584 0)
(10.089 0.0344707 0)
(10.0945 0.0326253 0)
(10.0996 0.0306591 0)
(10.1043 0.0286177 0)
(10.1085 0.0265296 0)
(10.1124 0.0244168 0)
(10.116 0.0223242 0)
(10.0006 0.0064354 0)
(10.0052 0.0186597 0)
(10.013 0.0261274 0)
(10.0221 0.0308257 0)
(10.0311 0.0335438 0)
(10.0396 0.0349756 0)
(10.0477 0.0354034 0)
(10.0554 0.0350919 0)
(10.0625 0.0342803 0)
(10.0691 0.0331592 0)
(10.0753 0.0317991 0)
(10.081 0.0302606 0)
(10.0863 0.0285605 0)
(10.0912 0.0267705 0)
(10.0957 0.0248939 0)
(10.0998 0.0229979 0)
(10.1036 0.0210721 0)
(10.107 0.0191822 0)
(10.0005 0.00512809 0)
(10.0041 0.0150961 0)
(10.0106 0.0214175 0)
(10.0184 0.0256193 0)
(10.0264 0.0281205 0)
(10.0342 0.029476 0)
(10.0417 0.029956 0)
(10.0489 0.0297644 0)
(10.0556 0.029101 0)
(10.062 0.0281198 0)
(10.0679 0.026911 0)
(10.0733 0.0255169 0)
(10.0784 0.0239971 0)
(10.0831 0.0223742 0)
(10.0875 0.0207056 0)
(10.0915 0.0189995 0)
(10.0951 0.0172906 0)
(10.0985 0.015606 0)
(10.0004 0.00392919 0)
(10.0033 0.0117364 0)
(10.0086 0.0167846 0)
(10.0152 0.0203017 0)
(10.0223 0.022442 0)
(10.0294 0.0236179 0)
(10.0363 0.0240605 0)
(10.043 0.0239206 0)
(10.0493 0.0233688 0)
(10.0553 0.0225089 0)
(10.061 0.0214441 0)
(10.0662 0.0202095 0)
(10.0711 0.0188681 0)
(10.0757 0.0174437 0)
(10.0799 0.0159821 0)
(10.0838 0.0144908 0)
(10.0873 0.0129996 0)
(10.0906 0.0115387 0)
(10.0003 0.00282622 0)
(10.0026 0.00856878 0)
(10.007 0.0122619 0)
(10.0127 0.0149115 0)
(10.0189 0.0165406 0)
(10.0253 0.0174178 0)
(10.0316 0.017713 0)
(10.0378 0.0175583 0)
(10.0438 0.0170501 0)
(10.0495 0.0162979 0)
(10.0549 0.0153546 0)
(10.0599 0.0142889 0)
(10.0646 0.0131228 0)
(10.069 0.0119101 0)
(10.0731 0.0106505 0)
(10.0768 0.00938736 0)
(10.0803 0.00811154 0)
(10.0835 0.00688054 0)
(10.0002 0.0017846 0)
(10.0022 0.00554536 0)
(10.0058 0.0078071 0)
(10.0107 0.00943637 0)
(10.0163 0.0104002 0)
(10.0221 0.0108456 0)
(10.0279 0.0108944 0)
(10.0337 0.0106246 0)
(10.0393 0.010111 0)
(10.0447 0.00941471 0)
(10.0498 0.00858646 0)
(10.0546 0.0076661 0)
(10.0592 0.00668341 0)
(10.0634 0.00566275 0)
(10.0674 0.00461969 0)
(10.071 0.00357307 0)
(10.0744 0.00252842 0)
(10.0776 0.00151873 0)
(10.0002 0.000762193 0)
(10.0019 0.00254809 0)
(10.0051 0.00329396 0)
(10.0094 0.00378258 0)
(10.0145 0.00392606 0)
(10.0198 0.00382572 0)
(10.0253 0.00350948 0)
(10.0307 0.0030471 0)
(10.0361 0.00244912 0)
(10.0412 0.00177216 0)
(10.0462 0.00101994 0)
(10.0508 0.000234671 0)
(10.0552 -0.000585412 0)
(10.0594 -0.00141102 0)
(10.0632 -0.0022464 0)
(10.0668 -0.00306857 0)
(10.0702 -0.00388513 0)
(10.0733 -0.00466398 0)
(10.0002 -0.000244825 0)
(10.0018 -0.000432822 0)
(10.0048 -0.00120011 0)
(10.0089 -0.0019164 0)
(10.0138 -0.00263772 0)
(10.0189 -0.00336678 0)
(10.0242 -0.00408883 0)
(10.0295 -0.00481568 0)
(10.0347 -0.00552385 0)
(10.0398 -0.00623297 0)
(10.0446 -0.00691961 0)
(10.0492 -0.00760428 0)
(10.0536 -0.00826381 0)
(10.0577 -0.00891784 0)
(10.0615 -0.0095452 0)
(10.065 -0.0101622 0)
(10.0684 -0.0107518 0)
(10.0715 -0.0113166 0)
(10.0002 -0.00119849 0)
(10.0018 -0.0032605 0)
(10.005 -0.00546143 0)
(10.0092 -0.00730696 0)
(10.0142 -0.00884776 0)
(10.0194 -0.0101635 0)
(10.0248 -0.0112822 0)
(10.0301 -0.0122475 0)
(10.0354 -0.0130744 0)
(10.0405 -0.013801 0)
(10.0454 -0.0144403 0)
(10.05 -0.0150188 0)
(10.0543 -0.0155417 0)
(10.0584 -0.0160261 0)
(10.0623 -0.0164738 0)
(10.0658 -0.0168939 0)
(10.0692 -0.0172891 0)
(10.0723 -0.0176518 0)
(10.0002 -0.0021227 0)
(10.002 -0.00596625 0)
(10.0055 -0.00952252 0)
(10.0102 -0.0123695 0)
(10.0155 -0.0146379 0)
(10.021 -0.0164487 0)
(10.0266 -0.0179069 0)
(10.0322 -0.0190503 0)
(10.0376 -0.0199589 0)
(10.0429 -0.020668 0)
(10.0479 -0.0212468 0)
(10.0526 -0.0217055 0)
(10.057 -0.0220948 0)
(10.0611 -0.0224113 0)
(10.065 -0.0226923 0)
(10.0686 -0.022929 0)
(10.072 -0.023149 0)
(10.0751 -0.0233307 0)
(10.0003 -0.00308335 0)
(10.0024 -0.00871813 0)
(10.0065 -0.0135687 0)
(10.0118 -0.0173098 0)
(10.0176 -0.0201805 0)
(10.0236 -0.0224199 0)
(10.0296 -0.024132 0)
(10.0355 -0.0254093 0)
(10.0412 -0.0263295 0)
(10.0466 -0.0270009 0)
(10.0518 -0.027471 0)
(10.0566 -0.0278114 0)
(10.0612 -0.0280356 0)
(10.0654 -0.0281995 0)
(10.0693 -0.0282983 0)
(10.0729 -0.0283759 0)
(10.0763 -0.0284172 0)
(10.0795 -0.0284456 0)
(10.0003 -0.00414614 0)
(10.0031 -0.0116566 0)
(10.008 -0.0177363 0)
(10.0142 -0.0222207 0)
(10.0206 -0.0255891 0)
(10.0271 -0.0281677 0)
(10.0336 -0.0300721 0)
(10.0399 -0.0314018 0)
(10.0459 -0.0322969 0)
(10.0516 -0.032878 0)
(10.057 -0.0332275 0)
(10.062 -0.0334088 0)
(10.0666 -0.0334708 0)
(10.0709 -0.0334524 0)
(10.0749 -0.0333855 0)
(10.0786 -0.0332856 0)
(10.0821 -0.0331753 0)
(10.0853 -0.0330411 0)
(10.0005 -0.00539047 0)
(10.004 -0.0149222 0)
(10.0102 -0.0220973 0)
(10.0174 -0.0271456 0)
(10.0245 -0.030909 0)
(10.0316 -0.0337557 0)
(10.0386 -0.0357637 0)
(10.0453 -0.0370783 0)
(10.0518 -0.0378935 0)
(10.0577 -0.0383514 0)
(10.0633 -0.0385538 0)
(10.0685 -0.0385626 0)
(10.0733 -0.0384501 0)
(10.0777 -0.0382496 0)
(10.0818 -0.0380104 0)
(10.0856 -0.0377424 0)
(10.0891 -0.0374745 0)
(10.0923 -0.037194 0)
(10.0007 -0.0069241 0)
(10.0055 -0.018645 0)
(10.0132 -0.0266629 0)
(10.0215 -0.0320503 0)
(10.0294 -0.036138 0)
(10.0371 -0.0392026 0)
(10.0447 -0.0412469 0)
(10.052 -0.0424807 0)
(10.0588 -0.0431642 0)
(10.0651 -0.0434629 0)
(10.071 -0.0434802 0)
(10.0764 -0.0433012 0)
(10.0813 -0.0429931 0)
(10.0859 -0.042618 0)
(10.0901 -0.0422063 0)
(10.094 -0.0417928 0)
(10.0975 -0.0413841 0)
(10.1009 -0.04099 0)
(10.001 -0.0088787 0)
(10.0077 -0.0229466 0)
(10.0173 -0.0314612 0)
(10.0268 -0.0369469 0)
(10.0354 -0.0412505 0)
(10.0439 -0.0444576 0)
(10.0522 -0.0464954 0)
(10.0602 -0.0476462 0)
(10.0675 -0.0482058 0)
(10.0742 -0.048343 0)
(10.0805 -0.0481672 0)
(10.0862 -0.0477755 0)
(10.0914 -0.047253 0)
(10.0962 -0.0466649 0)
(10.1006 -0.0460552 0)
(10.1047 -0.0454538 0)
(10.1084 -0.0448835 0)
(10.1119 -0.0443329 0)
(10.0015 -0.0114358 0)
(10.0109 -0.0276841 0)
(10.023 -0.0364707 0)
(10.0338 -0.042113 0)
(10.0434 -0.0465704 0)
(10.053 -0.049699 0)
(10.0626 -0.0515371 0)
(10.0715 -0.0524962 0)
(10.0797 -0.0528955 0)
(10.0872 -0.0528732 0)
(10.0942 -0.052547 0)
(10.1006 -0.0520175 0)
(10.1064 -0.0513697 0)
(10.1117 -0.0506737 0)
(10.1166 -0.0499643 0)
(10.1211 -0.0492802 0)
(10.1253 -0.0486397 0)
(10.1291 -0.0480148 0)
(10.0025 -0.0153456 0)
(10.0162 -0.0325603 0)
(10.0321 -0.041024 0)
(10.0458 -0.0473782 0)
(10.0581 -0.0524411 0)
(10.0706 -0.055602 0)
(10.0827 -0.0571647 0)
(10.0941 -0.0577655 0)
(10.1046 -0.0577663 0)
(10.1142 -0.0573223 0)
(10.1232 -0.0565681 0)
(10.1314 -0.0556331 0)
(10.1388 -0.0546229 0)
(10.1456 -0.0536039 0)
(10.1517 -0.0526299 0)
(10.1573 -0.0517466 0)
(10.1624 -0.0509694 0)
(10.167 -0.0502286 0)
(10.0064 -0.0230891 0)
(10.033 -0.0391398 0)
(10.0609 -0.0443342 0)
(10.0857 -0.0503856 0)
(10.1088 -0.056452 0)
(10.1318 -0.060664 0)
(10.1534 -0.0631239 0)
(10.1729 -0.0644725 0)
(10.1902 -0.0650448 0)
(10.2053 -0.0649904 0)
(10.2182 -0.0644394 0)
(10.2291 -0.063541 0)
(10.238 -0.0624319 0)
(10.245 -0.0611987 0)
(10.2504 -0.0599461 0)
(10.2543 -0.0587748 0)
(10.257 -0.0577514 0)
(10.2587 -0.0570018 0)
(10.043 -0.0364014 0)
(10.1435 -0.0632715 0)
(10.2185 -0.0679478 0)
(10.2707 -0.0700129 0)
(10.308 -0.0720743 0)
(10.3321 -0.0727757 0)
(10.3429 -0.0721919 0)
(10.342 -0.0708544 0)
(10.3315 -0.0690668 0)
(10.3138 -0.0669815 0)
(10.2905 -0.0646838 0)
(10.2632 -0.0622779 0)
(10.2327 -0.0598273 0)
(10.2002 -0.0574087 0)
(10.1662 -0.0550815 0)
(10.1316 -0.0529837 0)
(10.0964 -0.0510996 0)
(10.062 -0.0498738 0)
(9.88818 -0.0292634 0)
(9.66857 -0.0637776 0)
(9.43337 -0.0772822 0)
(9.18467 -0.083161 0)
(8.94311 -0.0839325 0)
(8.71727 -0.0810926 0)
(8.50983 -0.0759955 0)
(8.32084 -0.0699506 0)
(8.15042 -0.0635117 0)
(7.99774 -0.0570488 0)
(7.86175 -0.0508436 0)
(7.74074 -0.0450303 0)
(7.63347 -0.0396652 0)
(7.53831 -0.0347608 0)
(7.45412 -0.030329 0)
(7.37934 -0.0263945 0)
(7.31259 -0.023033 0)
(7.25284 -0.0207 0)
(-0.00275069 0.00751439 0)
(-0.0127438 0.0125209 0)
(-0.026448 0.0136019 0)
(-0.040823 0.011613 0)
(-0.0512666 0.00590374 0)
(-0.0503528 -0.00351459 0)
(-0.0347894 -0.0162874 -8.18044e-19)
(-0.00787651 -0.0296397 9.30821e-19)
(0.0272755 -0.039687 0)
(0.0677422 -0.0446206 5.36235e-19)
(0.11054 -0.0450615 0)
(0.152279 -0.042173 0)
(0.190226 -0.0370199 0)
(0.222723 -0.0304082 -2.62985e-19)
(0.248901 -0.0229111 0)
(0.26833 -0.0148837 0)
(0.280679 -0.00653239 2.27465e-19)
(0.286141 0.00221623 0)
(0.283578 0.0112312 0)
(0.273221 0.0200244 0)
(0.255714 0.027845 -2.44364e-19)
(0.231711 0.033904 0)
(0.202163 0.0374686 -2.90084e-19)
(0.168494 0.0379096 0)
(0.132582 0.0347857 0)
(0.096741 0.0280902 -4.76674e-19)
(0.063523 0.018553 0)
(0.0353937 0.00801793 8.02322e-19)
(0.0140186 -0.000713579 0)
(-0.000519182 -0.00562451 -1.32924e-18)
(-0.00953653 -0.00766427 0)
(-0.0139207 -0.0090081 0)
(-0.0126621 -0.0110245 0)
(-0.0052078 -0.0146251 0)
(0.00943425 -0.0202796 0)
(0.0319535 -0.0267627 8.55456e-19)
(0.0607522 -0.0315203 0)
(0.0916677 -0.0320339 -9.94936e-19)
(0.11952 -0.027877 0)
(0.14012 -0.0204751 7.826e-19)
(0.151475 -0.0122733 0)
(0.154542 -0.00540852 0)
(0.15172 -0.00136797 -7.67622e-19)
(0.146917 -0.000962932 0)
(0.14353 -0.0049574 -7.98894e-19)
(0.140581 -0.0130213 8.07484e-19)
(0.132392 -0.0213489 0)
(0.111715 -0.0206357 8.74016e-19)
(0.0732346 -0.00385304 1.00818e-18)
(0.00562305 0.0153937 0)
(-0.089639 0.0322528 0)
(-0.192353 0.0537713 0)
(-0.30592 0.0779188 0)
(-0.428679 0.0975329 0)
(-0.558202 0.108301 -1.9004e-19)
(-0.690752 0.11184 0)
(-0.821341 0.113718 1.49011e-19)
(-0.94791 0.109648 0)
(-1.06942 0.102116 0)
(-1.18242 0.0937225 -1.17894e-19)
(-1.28793 0.086443 0)
(-1.38502 0.079973 1.04741e-19)
(-1.4748 0.0730976 0)
(-1.55722 0.0656224 0)
(-1.63282 0.0587415 0)
(-1.70248 0.0538884 -9.05539e-20)
(-1.76698 0.0494475 0)
(-1.82695 0.0455351 0)
(-1.88288 0.0421116 -8.39358e-20)
(-1.93529 0.0391438 0)
(-1.98459 0.0365211 -8.05761e-20)
(-2.03114 0.0342186 0)
(-2.07524 0.0321568 0)
(-2.11713 0.0303083 0)
(-2.157 0.0286217 7.52547e-20)
(-2.19502 0.0270761 0)
(-2.23131 0.0256382 0)
(-2.26598 0.0242929 7.20076e-20)
(-2.29909 0.0230209 7.102e-20)
(-2.33074 0.0218094 0)
(-2.36095 0.0206501 6.915e-20)
(-2.38977 0.0195295 0)
(-2.41723 0.0184484 1.34783e-19)
(-2.44337 0.0173912 0)
(-2.4682 0.0163646 1.31426e-19)
(-2.49173 0.0153505 0)
(-2.51398 0.0143591 -1.28174e-19)
(-2.53493 0.0133725 0)
(-2.55458 0.0123979 0)
(-2.5729 0.0114293 0)
(-2.58992 0.0104606 1.21818e-19)
(-2.60567 0.00948325 0)
(-2.6201 0.00849694 -1.18653e-19)
(-2.63318 0.00749217 0)
(-2.64488 0.00646701 1.15457e-19)
(-2.65515 0.00541243 1.13841e-19)
(-2.66395 0.0043286 1.1221e-19)
(-2.67121 0.00322204 0)
(-2.67689 0.00212671 0)
(-2.68093 0.00111978 0)
(-2.68328 0.000281273 0)
(-2.68433 -0.000420176 0)
(-2.68417 -0.0010764 0)
(-2.68281 -0.0017108 0)
(-2.68027 -0.00233733 0)
(-2.67655 -0.00295265 -9.62385e-20)
(-2.67166 -0.00356383 -9.42612e-20)
(-2.66558 -0.00416463 0)
(-2.65833 -0.00476175 0)
(-2.64989 -0.00534858 0)
(-2.64028 -0.00593159 -8.59066e-20)
(-2.62949 -0.00650437 0)
(-2.61751 -0.00707293 0)
(-2.60437 -0.00763125 0)
(-2.59004 -0.00818473 0)
(-2.57455 -0.00872775 7.4364e-20)
(-2.5579 -0.00926512 0)
(-2.54009 -0.00979159 0)
(-2.52112 -0.0103115 -6.67655e-20)
(-2.50101 -0.0108199 6.41072e-20)
(-2.47977 -0.0113208 0)
(-2.4574 -0.0118095 5.8587e-20)
(-2.43391 -0.0122898 0)
(-2.40933 -0.012757 -5.27782e-20)
(-2.38365 -0.0132153 0)
(-2.3569 -0.0136602 0)
(-2.32909 -0.0140963 0)
(-2.30025 -0.014519 0)
(-2.27037 -0.0149285 0)
(-2.2395 -0.0153199 6.68211e-20)
(-2.20764 -0.015693 5.97417e-20)
(-2.17482 -0.0160567 0)
(-2.14105 -0.0164007 0)
(-2.10637 -0.0167016 0)
(-2.07079 -0.0169388 -2.94199e-20)
(-2.03439 -0.017045 0)
(-1.99723 -0.0169528 0)
(-1.95937 -0.016708 0)
(-1.92074 -0.0167537 4.4565e-21)
(-1.88127 -0.0170607 -1.35672e-20)
(-1.84102 -0.0172912 0)
(-1.80004 -0.0175155 0)
(-1.75835 -0.0177238 -4.27061e-20)
(-1.71599 -0.0179233 -5.30738e-20)
(-1.67297 -0.0181109 0)
(-1.62932 -0.0182923 0)
(-1.58504 -0.0184636 8.64228e-20)
(-1.54016 -0.0186324 -9.83669e-20)
(-1.49471 -0.0187976 0)
(-1.44871 -0.0189636 0)
(-1.40219 -0.0191285 -1.3706e-19)
(-1.35517 -0.0192918 0)
(-1.30765 -0.0194512 0)
(-1.25967 -0.0196083 -1.80776e-19)
(-1.21125 -0.0197631 0)
(-1.16241 -0.0199191 -2.13283e-19)
(-1.11317 -0.020077 0)
(-1.06353 -0.0202405 0)
(-1.01351 -0.0204106 0)
(-0.963112 -0.0205906 2.88442e-19)
(-0.91233 -0.0207811 0)
(-0.861161 -0.0209842 0)
(-0.809599 -0.0211996 0)
(-0.757642 -0.0214279 0)
(-0.705287 -0.0216692 0)
(-0.652535 -0.0219252 0)
(-0.599385 -0.0221978 4.68408e-19)
(-0.545832 -0.0224898 5.01554e-19)
(-0.491871 -0.0228031 0)
(-0.437494 -0.0231385 0)
(-0.382699 -0.0234949 0)
(-0.327492 -0.0238657 -6.63398e-19)
(-0.271906 -0.0242421 0)
(-0.216016 -0.0246212 1.53687e-18)
(-0.159969 -0.024963 -1.65865e-18)
(-0.104058 -0.025152 -1.79409e-18)
(-0.048676 -0.0250267 1.94526e-18)
(0.00342035 -0.0238696 -2.03915e-18)
(0.060997 -0.0217022 2.01857e-18)
(0.0785317 -0.0108885 0)
(-0.000340135 0.0203026 0)
(-0.00586014 0.0357909 0)
(-0.0125907 0.036864 2.16713e-18)
(-0.0131451 0.0274307 0)
(0.00054318 0.00560863 -2.27052e-18)
(0.0297701 -0.0310319 -1.45427e-18)
(0.0684652 -0.0720599 -4.58524e-19)
(0.112671 -0.105682 -3.27452e-19)
(0.158425 -0.126369 0)
(0.202312 -0.133751 -2.14239e-19)
(0.242159 -0.130428 0)
(0.277028 -0.119739 0)
(0.306595 -0.10455 3.19323e-19)
(0.330872 -0.0869218 1.52123e-19)
(0.350077 -0.0681985 -2.96553e-19)
(0.364517 -0.0491434 -2.93136e-19)
(0.374569 -0.0301483 -1.4661e-19)
(0.380407 -0.0113463 0)
(0.383026 0.00727796 0)
(0.382289 0.0255345 0)
(0.377807 0.043064 -1.54899e-19)
(0.369061 0.0593102 0)
(0.355482 0.073514 4.95955e-19)
(0.336587 0.0846761 0)
(0.312167 0.0916527 0)
(0.282475 0.0933517 2.01722e-19)
(0.248424 0.0890386 0)
(0.211704 0.078818 -2.57494e-19)
(0.174706 0.0638113 -6.06702e-19)
(0.140369 0.0458633 3.65609e-19)
(0.111905 0.0266169 0)
(0.0926602 0.00700786 0)
(0.0840604 -0.0130319 0)
(0.0875935 -0.0327062 -1.07458e-18)
(0.101181 -0.0525205 -8.97736e-19)
(0.121228 -0.0698576 -3.67292e-19)
(0.141784 -0.0775837 0)
(0.157126 -0.0720634 5.22656e-19)
(0.164715 -0.0563905 0)
(0.164227 -0.0359107 -5.02644e-19)
(0.156241 -0.0168283 0)
(0.141674 -0.00359391 0)
(0.120918 0.00415765 6.43722e-19)
(0.0887586 0.0103236 0)
(0.0360032 0.0212795 2.61626e-18)
(-0.0507658 0.0483991 -6.99506e-19)
(-0.165426 0.0892129 0)
(-0.293181 0.132628 -2.89641e-19)
(-0.427119 0.17525 -2.12321e-19)
(-0.56713 0.211573 0)
(-0.709624 0.239143 0)
(-0.850317 0.258513 0)
(-0.98746 0.269703 0)
(-1.11785 0.27318 0)
(-1.23924 0.269367 8.63234e-20)
(-1.34991 0.25965 1.62229e-19)
(-1.44844 0.246095 -7.61643e-20)
(-1.53615 0.230006 0)
(-1.61355 0.212297 1.40656e-19)
(-1.68254 0.194405 -6.838e-20)
(-1.74358 0.177114 0)
(-1.79868 0.161122 -6.39197e-20)
(-1.84848 0.146493 0)
(-1.89439 0.13346 0)
(-1.93671 0.121932 -1.20364e-19)
(-1.97623 0.111909 5.90035e-20)
(-2.01334 0.103129 -1.16074e-19)
(-2.0484 0.0954829 1.1415e-19)
(-2.08171 0.0887826 5.61728e-20)
(-2.11347 0.0828999 0)
(-2.14381 0.0776819 5.45317e-20)
(-2.17287 0.0730275 0)
(-2.20071 0.068822 0)
(-2.2274 0.064996 0)
(-2.25298 0.06147 5.15263e-20)
(-2.27749 0.0581986 0)
(-2.30096 0.05513 1.00499e-19)
(-2.32341 0.052233 -1.48894e-19)
(-2.34484 0.0494768 -4.90454e-20)
(-2.36526 0.0468371 0)
(-2.38469 0.0442989 -4.78379e-20)
(-2.40312 0.0418403 0)
(-2.42056 0.0394578 -9.33319e-20)
(-2.437 0.0371301 0)
(-2.45245 0.0348614 -9.10327e-20)
(-2.4669 0.0326287 1.79637e-19)
(-2.48035 0.0304412 8.87514e-20)
(-2.49278 0.0282784 0)
(-2.50418 0.0261478 0)
(-2.51454 0.0240433 0)
(-2.52389 0.0219601 -8.4154e-20)
(-2.53223 0.0198913 0)
(-2.53957 0.0178392 8.18099e-20)
(-2.54588 0.0157983 0)
(-2.55117 0.0137696 -2.38254e-19)
(-2.55545 0.0117437 -7.81875e-20)
(-2.55876 0.00971789 -7.6946e-20)
(-2.56115 0.00768712 0)
(-2.56268 0.00566625 0)
(-2.56345 0.00370766 0)
(-2.56355 0.00188408 0)
(-2.56267 0.00018654 0)
(-2.56068 -0.00145096 -1.38026e-19)
(-2.55757 -0.00304843 -1.35167e-19)
(-2.55332 -0.00462051 0)
(-2.54791 -0.0061648 6.45527e-20)
(-2.54136 -0.00768802 6.30395e-20)
(-2.53366 -0.00918364 0)
(-2.5248 -0.0106577 1.20119e-19)
(-2.51478 -0.0121031 0)
(-2.50361 -0.0135257 -5.70113e-20)
(-2.49128 -0.0149185 0)
(-2.4778 -0.0162871 0)
(-2.46315 -0.017625 1.03795e-19)
(-2.44736 -0.018937 0)
(-2.43041 -0.0202172 -4.82623e-20)
(-2.41232 -0.0214699 0)
(-2.39308 -0.0226895 0)
(-2.37271 -0.0238799 -4.32525e-20)
(-2.35121 -0.025036 -4.09667e-20)
(-2.32858 -0.0261612 0)
(-2.30485 -0.0272508 3.7597e-20)
(-2.28002 -0.0283081 0)
(-2.2541 -0.0293282 -3.36582e-20)
(-2.2271 -0.0303148 -6.27538e-20)
(-2.19905 -0.0312632 0)
(-2.16996 -0.032177 0)
(-2.13984 -0.0330513 0)
(-2.10871 -0.0338888 0)
(-2.0766 -0.0346855 -4.07616e-20)
(-2.04352 -0.0354457 -1.09943e-19)
(-2.00949 -0.0361666 0)
(-1.97455 -0.0368509 0)
(-1.9387 -0.037494 0)
(-1.90197 -0.0381012 1.7395e-20)
(-1.86438 -0.0386861 0)
(-1.82591 -0.0392654 0)
(-1.78658 -0.0398352 -6.19838e-21)
(-1.74641 -0.0403789 1.36564e-21)
(-1.70549 -0.0408605 7.95823e-21)
(-1.66384 -0.0412799 0)
(-1.62146 -0.0416567 0)
(-1.57837 -0.041993 2.41713e-20)
(-1.53461 -0.0422956 -2.83041e-20)
(-1.49018 -0.0425634 0)
(-1.44512 -0.0428005 0)
(-1.39943 -0.0430051 -4.70558e-20)
(-1.35313 -0.0431842 1.57554e-19)
(-1.30625 -0.043342 0)
(-1.25882 -0.0434832 0)
(-1.21085 -0.0436092 7.15497e-20)
(-1.16236 -0.0437157 0)
(-1.11338 -0.0438009 1.67336e-19)
(-1.06392 -0.0438636 -8.94954e-20)
(-1.014 -0.043906 0)
(-0.963645 -0.0439311 1.04754e-19)
(-0.912872 -0.0439431 2.21914e-19)
(-0.861692 -0.0439464 0)
(-0.810114 -0.0439452 0)
(-0.75814 -0.0439438 -1.33706e-19)
(-0.705771 -0.0439452 0)
(-0.653001 -0.0439519 2.96437e-19)
(-0.599825 -0.0439636 0)
(-0.54624 -0.0439796 0)
(-0.49224 -0.0439985 0)
(-0.437826 -0.0440213 0)
(-0.382994 -0.0440493 -1.90538e-19)
(-0.327741 -0.0440854 -1.99407e-19)
(-0.272059 -0.0441312 0)
(-0.215942 -0.0441868 0)
(-0.159386 -0.0442483 0)
(-0.102396 -0.0443039 2.37088e-19)
(-0.0450011 -0.0443275 0)
(0.0127367 -0.0442687 -5.07963e-19)
(0.0707145 -0.0440547 5.12229e-19)
(0.128669 -0.0435573 5.13963e-19)
(0.186491 -0.0425759 5.12505e-19)
(0.242141 -0.0406559 5.18746e-19)
(0.300632 -0.0368624 5.20826e-19)
(0.337704 -0.0251772 0)
(0.000248111 0.0231597 0)
(0.000641942 0.0402991 0)
(0.00620378 0.0329417 -2.32772e-18)
(0.0261097 -0.000370119 -1.6385e-18)
(0.0652538 -0.0596293 9.75984e-19)
(0.116104 -0.124999 6.34797e-19)
(0.168403 -0.176891 -3.58208e-22)
(0.215265 -0.206708 0)
(0.254052 -0.215259 0)
(0.284761 -0.20768 0)
(0.308584 -0.189711 0)
(0.326959 -0.16602 0)
(0.341087 -0.139776 -7.25753e-19)
(0.351816 -0.112863 0)
(0.359709 -0.0862914 2.31583e-19)
(0.365138 -0.0605408 2.31028e-19)
(0.368371 -0.0357973 0)
(0.369597 -0.0121353 0)
(0.369077 0.0104748 0)
(0.367124 0.0321982 0)
(0.363994 0.0531678 2.45967e-19)
(0.359846 0.0733043 0)
(0.354579 0.0922262 -2.63551e-19)
(0.347774 0.109167 0)
(0.33872 0.12299 0)
(0.326536 0.132266 0)
(0.310428 0.135503 -6.60237e-19)
(0.290094 0.13151 0)
(0.26613 0.1198 3.93852e-19)
(0.240225 0.100761 -8.82028e-19)
(0.21505 0.0755625 0)
(0.193649 0.0456592 0)
(0.178703 0.0127447 0)
(0.170372 -0.0222079 6.5563e-19)
(0.167187 -0.0559092 5.73053e-19)
(0.16259 -0.0781219 0)
(0.150066 -0.0793194 0)
(0.129595 -0.0620464 -7.65038e-19)
(0.102158 -0.034692 -7.87341e-19)
(0.0676845 -0.0022804 8.67762e-19)
(0.0244371 0.0311227 0)
(-0.0361011 0.0618571 0)
(-0.122011 0.0976772 0)
(-0.227887 0.144408 0)
(-0.35048 0.197303 -4.23294e-19)
(-0.484773 0.251659 -3.33831e-19)
(-0.623246 0.304099 2.72497e-19)
(-0.760153 0.349306 0)
(-0.890969 0.385398 0)
(-1.01211 0.411571 0)
(-1.12157 0.426581 0)
(-1.21882 0.430984 -1.48826e-19)
(-1.3033 0.425794 0)
(-1.37561 0.412207 0)
(-1.43731 0.391868 -1.23751e-19)
(-1.49055 0.366943 -1.16838e-19)
(-1.53729 0.33966 0)
(-1.57936 0.31166 2.1764e-19)
(-1.61817 0.284211 -1.04427e-19)
(-1.65493 0.25841 1.01422e-19)
(-1.69015 0.234827 0)
(-1.72422 0.213774 0)
(-1.75733 0.195106 0)
(-1.78966 0.178719 0)
(-1.82131 0.16438 9.00603e-20)
(-1.85221 0.151944 1.76772e-19)
(-1.88233 0.141106 8.66409e-20)
(-1.91166 0.131602 -8.50831e-20)
(-1.94017 0.123207 0)
(-1.96787 0.115734 1.64336e-19)
(-1.99474 0.109016 1.61615e-19)
(-2.02078 0.102919 1.59008e-19)
(-2.04598 0.0973267 -1.56504e-19)
(-2.07034 0.0921508 0)
(-2.09385 0.0873131 -2.27717e-19)
(-2.1165 0.0827559 0)
(-2.13831 0.078429 7.35616e-20)
(-2.15925 0.0742947 7.26702e-20)
(-2.17932 0.0703215 0)
(-2.19852 0.0664835 0)
(-2.21684 0.0627615 1.39041e-19)
(-2.23427 0.0591367 0)
(-2.2508 0.0555983 1.35147e-19)
(-2.26642 0.0521312 0)
(-2.28113 0.0487304 -1.31355e-19)
(-2.29493 0.0453826 -2.59091e-19)
(-2.30779 0.0420863 0)
(-2.31972 0.0388313 0)
(-2.33068 0.035617 0)
(-2.34068 0.0324423 -1.22055e-19)
(-2.34974 0.0293017 0)
(-2.35785 0.0261946 -1.18331e-19)
(-2.36502 0.0231207 0)
(-2.37122 0.0200857 0)
(-2.37646 0.0170938 2.25321e-19)
(-2.38073 0.0141501 0)
(-2.38404 0.0112624 1.08804e-19)
(-2.3864 0.00843972 0)
(-2.38781 0.00569273 1.04849e-19)
(-2.38825 0.0030162 0)
(-2.38767 0.000378661 0)
(-2.38602 -0.00224269 0)
(-2.38329 -0.0048359 2.88889e-19)
(-2.37947 -0.00739467 9.40041e-20)
(-2.37456 -0.00991603 0)
(-2.36853 -0.0124004 0)
(-2.36139 -0.014846 0)
(-2.35314 -0.0172529 0)
(-2.34377 -0.0196194 -8.25346e-20)
(-2.33329 -0.0219451 1.60724e-19)
(-2.32168 -0.0242286 7.77612e-20)
(-2.30894 -0.0264692 -1.51119e-19)
(-2.29509 -0.0286657 -1.46237e-19)
(-2.2801 -0.0308171 -7.04036e-20)
(-2.264 -0.0329222 0)
(-2.24677 -0.0349797 -1.31271e-19)
(-2.22842 -0.0369882 0)
(-2.20896 -0.0389464 1.21015e-19)
(-2.18839 -0.0408529 5.75916e-20)
(-2.16671 -0.0427065 0)
(-2.14394 -0.0445059 -1.05189e-19)
(-2.12008 -0.0462497 -4.95516e-20)
(-2.09515 -0.0479367 0)
(-2.06915 -0.0495656 -4.47706e-20)
(-2.0421 -0.0511354 1.24449e-19)
(-2.01401 -0.0526449 0)
(-1.9849 -0.0540935 0)
(-1.95478 -0.0554797 0)
(-1.92368 -0.0568027 0)
(-1.89162 -0.058061 5.43151e-20)
(-1.8586 -0.059255 4.74715e-20)
(-1.82465 -0.0603841 0)
(-1.7898 -0.0614485 0)
(-1.75405 -0.0624433 0)
(-1.71744 -0.0633672 0)
(-1.67998 -0.0642236 0)
(-1.64168 -0.0650202 0)
(-1.60254 -0.065771 3.89095e-21)
(-1.56261 -0.0664933 -9.89795e-22)
(-1.52195 -0.0671676 0)
(-1.48056 -0.0677725 0)
(-1.43846 -0.0683133 -2.11742e-20)
(-1.39566 -0.0687929 0)
(-1.35219 -0.0692156 3.55315e-20)
(-1.30807 -0.0695838 4.12252e-20)
(-1.26331 -0.0698992 0)
(-1.21793 -0.0701648 0)
(-1.17195 -0.0703861 -6.27947e-20)
(-1.12539 -0.070571 -1.37309e-19)
(-1.07829 -0.0707247 0)
(-1.03065 -0.0708487 0)
(-0.98249 -0.0709385 0)
(-0.933833 -0.0709913 -9.79885e-20)
(-0.884695 -0.0710054 1.0518e-19)
(-0.835097 -0.0709838 0)
(-0.785059 -0.0709306 2.37184e-19)
(-0.734597 -0.0708522 1.24801e-19)
(-0.683723 -0.0707549 -2.66652e-19)
(-0.632445 -0.0706451 0)
(-0.580769 -0.0705292 0)
(-0.528694 -0.0704116 -3.11609e-19)
(-0.476216 -0.070296 -1.64558e-19)
(-0.423331 -0.0701819 0)
(-0.370033 -0.070068 0)
(-0.31632 -0.0699516 0)
(-0.262188 -0.0698335 0)
(-0.207635 -0.0697145 -4.04167e-19)
(-0.152655 -0.069598 0)
(-0.0972427 -0.0694846 0)
(-0.0413902 -0.069374 0)
(0.0149067 -0.0692582 0)
(0.0716472 -0.0691195 0)
(0.128813 -0.068922 0)
(0.186354 -0.0686001 -4.86609e-19)
(0.244182 -0.0680542 0)
(0.302084 -0.0671259 0)
(0.360047 -0.0655665 -1.01451e-18)
(0.41658 -0.062896 5.13149e-19)
(0.475565 -0.0581803 -5.24424e-19)
(0.522135 -0.0464527 5.35429e-19)
(-0.00115111 0.0233747 0)
(0.00188657 0.0274665 5.03298e-18)
(0.0233539 -0.0141275 0)
(0.0707306 -0.0967157 8.70595e-19)
(0.131024 -0.183958 0)
(0.188132 -0.247485 0)
(0.232868 -0.278529 -3.27717e-19)
(0.263927 -0.281928 0)
(0.284052 -0.267023 0)
(0.296827 -0.242092 0)
(0.305119 -0.212596 0)
(0.310743 -0.181569 0)
(0.314677 -0.150537 8.19292e-19)
(0.317374 -0.120202 4.02953e-19)
(0.318999 -0.0908731 -4.00406e-19)
(0.319595 -0.0626902 0)
(0.319176 -0.0357123 0)
(0.317754 -0.00997913 0)
(0.315392 0.014503 0)
(0.312177 0.0377634 0)
(0.308258 0.0598462 4.3308e-19)
(0.303846 0.0807569 4.44695e-19)
(0.299153 0.100402 -4.60978e-19)
(0.294278 0.118459 4.83172e-19)
(0.289109 0.134287 0)
(0.283273 0.146844 0)
(0.276148 0.154672 5.84559e-19)
(0.266958 0.156052 0)
(0.255123 0.149389 0)
(0.240489 0.133564 7.54245e-19)
(0.223806 0.108357 8.43463e-19)
(0.206281 0.0748463 9.58418e-19)
(0.189403 0.0352707 0)
(0.172429 -0.00589496 0)
(0.148407 -0.03662 -9.72695e-19)
(0.112941 -0.0436324 0)
(0.0670982 -0.0275171 0)
(0.0125228 0.00542161 7.65805e-19)
(-0.0535254 0.0490567 -6.99167e-19)
(-0.135358 0.101187 5.66202e-19)
(-0.231628 0.160068 0)
(-0.341831 0.221609 0)
(-0.463061 0.283926 6.13514e-19)
(-0.589604 0.345968 0)
(-0.716135 0.404608 4.37224e-19)
(-0.837773 0.454574 5.74159e-19)
(-0.949463 0.493197 -5.11011e-19)
(-1.04845 0.520424 3.08006e-19)
(-1.13398 0.535892 0)
(-1.20568 0.540214 0)
(-1.26465 0.534449 2.43464e-19)
(-1.31274 0.520057 1.13453e-19)
(-1.35193 0.498794 0)
(-1.38459 0.472427 0)
(-1.41302 0.442753 9.72762e-20)
(-1.43916 0.411581 1.8794e-19)
(-1.46439 0.380439 0)
(-1.48958 0.350377 -1.72957e-19)
(-1.51527 0.322072 1.68401e-19)
(-1.54165 0.295994 -1.63282e-19)
(-1.5687 0.272328 0)
(-1.59623 0.251118 0)
(-1.62408 0.232187 0)
(-1.65205 0.215376 0)
(-1.67999 0.200469 0)
(-1.70773 0.187264 -1.40588e-19)
(-1.73512 0.175529 0)
(-1.76205 0.165038 0)
(-1.78846 0.155595 0)
(-1.81426 0.147028 -2.60712e-19)