/*--------------------------------*- C++ -*----------------------------------*\
  =========                 |
  \\      /  F ield         | OpenFOAM: The Open Source CFD Toolbox
   \\    /   O peration     | Website:  https://openfoam.org
    \\  /    A nd           | Version:  8
     \\/     M anipulation  |
\*---------------------------------------------------------------------------*/
FoamFile
{
    version     2.0;
    format      ascii;
    class       volVectorField;
    location    "1000";
    object      wallShearStress;
}
// * * * * * * * * * * * * * * * * * * * * * * * * * * * * * * * * * * * * * //

dimensions      [0 2 -2 0 0 0 0];

internalField   uniform (0 0 0);

boundaryField
{
    inlet
    {
        type            calculated;
        value           uniform (0 0 0);
    }
    outlet
    {
        type            calculated;
        value           uniform (0 0 0);
    }
    upperWall
    {
        type            calculated;
        value           nonuniform List<vector> 
223
(
(-0.444056 0.00269391 0)
(-0.43406 0.00481461 0)
(-0.467092 0.00632175 0)
(-0.485009 0.00722735 0)
(-0.487206 0.00750241 0)
(-0.482197 0.00735925 0)
(-0.471516 0.00693039 0)
(-0.46002 0.00639631 0)
(-0.448354 0.00581369 0)
(-0.436403 0.00521698 0)
(-0.425197 0.00464664 0)
(-0.414887 0.0041167 0)
(-0.405531 0.00363235 0)
(-0.39711 0.00319435 0)
(-0.389571 0.00280294 0)
(-0.382851 0.00246059 0)
(-0.376823 0.00216945 0)
(-0.371465 0.00198183 0)
(-0.367187 0.00186832 0)
(-0.363824 0.00179092 5.90204e-22)
(-0.36055 0.00169571 0)
(-0.35737 0.00159206 0)
(-0.354284 0.00148544 0)
(-0.351295 0.00137815 6.02538e-22)
(-0.348409 0.00127255 0)
(-0.345626 0.00116915 0)
(-0.34295 0.00106978 0)
(-0.340379 0.000974099 -1.2268e-21)
(-0.337913 0.000882904 1.23194e-21)
(-0.335551 0.000795847 1.23697e-21)
(-0.333292 0.000713664 0)
(-0.331135 0.000635549 -1.24674e-21)
(-0.329078 0.000562274 0)
(-0.327118 0.000493246 1.25617e-21)
(-0.325255 0.00042882 1.26077e-21)
(-0.323482 0.000368635 -1.2653e-21)
(-0.321801 0.000312899 0)
(-0.320203 0.000261453 0)
(-0.318693 0.000214074 0)
(-0.317257 0.000170734 0)
(-0.315903 0.00013127 -1.28732e-21)
(-0.314615 9.54675e-05 0)
(-0.313403 6.33102e-05 0)
(-0.31225 3.45232e-05 1.3002e-21)
(-0.311167 9.03751e-06 0)
(-0.310135 -1.32431e-05 1.30877e-21)
(-0.309167 -3.25059e-05 -1.31308e-21)
(-0.308241 -4.87506e-05 1.31739e-21)
(-0.307373 -6.18626e-05 0)
(-0.306536 -7.2223e-05 0)
(-0.305756 -7.97233e-05 0)
(-0.304993 -8.4706e-05 1.33498e-21)
(-0.304284 -8.72192e-05 -1.33952e-21)
(-0.303581 -8.748e-05 0)
(-0.302925 -8.55013e-05 0)
(-0.302275 -8.19301e-05 0)
(-0.301654 -7.6141e-05 0)
(-0.301039 -6.91293e-05 0)
(-0.300461 -6.24308e-05 0)
(-0.299833 -4.76856e-05 0)
(-0.299307 -3.08237e-05 0)
(-0.298623 -2.68919e-05 1.38311e-21)
(-0.298091 -2.57143e-05 -1.3886e-21)
(-0.297697 -2.6057e-05 0)
(-0.296958 -1.55733e-05 0)
(-0.296728 2.05127e-07 0)
(-0.296519 3.552e-05 -1.41312e-21)
(-0.29637 7.30802e-05 0)
(-0.296232 6.64584e-05 0)
(-0.296116 9.26374e-05 0)
(-0.296032 0.000316134 0)
(-0.295774 0.000445658 0)
(-0.295634 0.000527804 -2.8855e-21)
(-0.295388 0.000556884 0)
(-0.298597 0.000227821 0)
(-0.30016 6.26264e-05 0)
(-0.295751 0.000286501 0)
(-0.2947 0.000219266 0)
(-0.294677 8.43961e-05 0)
(-0.294575 0.000398414 0)
(-0.294311 0.000454336 3.03911e-21)
(-0.294736 0.000201814 0)
(-0.300226 -1.95249e-05 0)
(-0.294124 -0.000108538 0)
(-0.312722 -1.04719e-05 -3.30263e-21)
(-0.356176 0.000238478 0)
(-0.33478 2.42837e-05 -3.55732e-21)
(-0.347009 0.000431629 0)
(-0.328017 0.000891564 0)
(-0.318045 0.000543509 0)
(-0.310137 0.000421038 -3.33333e-21)
(-0.292619 -7.14103e-06 0)
(-0.325333 0.000418008 3.53497e-21)
(-0.311437 0.000894149 3.36652e-21)
(-0.306624 0.000469742 0)
(-0.307321 0.000185838 3.36711e-21)
(-0.291342 -0.000176617 0)
(-0.327751 0.000432379 0)
(-0.310697 0.000783091 0)
(-0.307508 0.000280101 -3.40414e-21)
(-0.290037 0.000362557 0)
(-0.289642 0.000214492 -3.24376e-21)
(-0.302125 -5.2629e-05 3.39993e-21)
(-0.345977 0.000506098 0)
(-0.319306 0.000577147 0)
(-0.288247 0.000126009 0)
(-0.344945 0.000354472 0)
(-0.31718 0.000196264 0)
(-0.332168 0.000679574 0)
(-0.307381 0.000920234 0)
(-0.286725 0.000234234 -3.22446e-21)
(-0.32107 0.000156468 0)
(-0.326734 3.49444e-05 0)
(-0.314523 6.20807e-05 0)
(-0.335836 0.000395733 0)
(-0.346691 0.000371632 0)
(-0.345321 0.000635484 0)
(-0.313752 0.0013202 0)
(-0.280332 0.00104418 0)
(-0.279596 0.000261576 0)
(-0.318166 0.000210037 0)
(-0.335435 0.000484871 0)
(-0.317144 0.000301305 0)
(-0.323779 0.000866894 -6.90684e-21)
(-0.297553 0.00136678 0)
(-0.274056 0.00107349 0)
(-0.273022 0.00102607 0)
(-0.271805 0.00102281 5.45077e-21)
(-0.270603 0.000498523 0)
(-0.269821 7.46599e-05 0)
(-0.287526 -2.73344e-05 5.5694e-21)
(-0.2877 -9.06976e-05 0)
(-0.276413 0.000117597 -5.17831e-21)
(-0.284677 0.000986079 0)
(-0.263022 0.00107863 0)
(-0.284291 0.00123709 0)
(-0.260413 0.00105926 4.31634e-21)
(-0.283955 0.00106505 0)
(-0.257826 0.000894665 -3.97283e-21)
(-0.279838 0.000880761 0)
(-0.25505 0.000770164 0)
(-0.27308 0.00090184 0)
(-0.251905 0.00127538 0)
(-0.250332 0.000474004 0)
(-0.254693 0.000506408 0)
(-0.247085 0.000562309 0)
(-0.248633 0.000582198 0)
(-0.243579 0.00166935 0)
(-0.241638 0.00199859 0)
(-0.240031 0.00106816 0)
(-0.238234 0.000344616 -1.41694e-21)
(-0.238966 0.000127862 1.18308e-21)
(-0.248288 0.00103308 0)
(-0.230357 0.000793628 0)
(-0.227992 -0.000451933 0)
(-0.225593 -0.000265924 0)
(-0.222052 0.000653183 -4.43783e-22)
(-0.220476 0.00121768 7.63527e-22)
(-0.238489 0.00247304 -1.20518e-21)
(-0.218188 0.00146556 0)
(-0.215869 0.000446724 -1.88529e-21)
(-0.215025 0.00106967 -4.435e-21)
(-0.212765 0.000649411 0)
(-0.219905 0.000957725 -6.43324e-21)
(-0.225357 0.000829352 7.59457e-21)
(-0.218279 0.000798423 0)
(-0.229458 0.00144826 0)
(-0.20282 0.00118483 0)
(-0.20095 0.00136303 0)
(-0.199631 0.00101255 0)
(-0.197073 -0.000484706 -1.30864e-20)
(-0.192453 -0.00130349 0)
(-0.187708 -0.000332065 -1.61525e-20)
(-0.185797 0.00174151 0)
(-0.198919 0.00251774 0)
(-0.186681 0.00189478 0)
(-0.186353 0.00138712 0)
(-0.185019 0.000602692 0)
(-0.181091 -0.000180217 2.27388e-20)
(-0.176722 -0.000121011 0)
(-0.173877 0.000401712 0)
(-0.172562 0.00067919 -2.69977e-20)
(-0.171919 0.000619042 0)
(-0.170529 0.000469956 0)
(-0.168068 0.00036167 0)
(-0.164005 0.000226236 3.33696e-20)
(-0.157643 0.000170507 0)
(-0.148324 0.000402997 0)
(-0.136111 0.000869245 0)
(-0.122132 0.00138066 0)
(-0.107935 0.00168549 -6.32754e-20)
(-0.0953659 0.00162267 0)
(-0.084974 0.00137564 0)
(-0.0766541 0.00108232 0)
(-0.0700697 0.00097981 9.89205e-20)
(-0.0618581 0.00104454 0)
(-0.0581625 0.00155208 0)
(-0.0310298 0.00136721 -1.41724e-19)
(-0.0623206 0.000210833 -6.01853e-36)
(-0.0946165 0.00530838 1.20685e-17)
(-0.116798 0.00951817 2.17195e-17)
(-0.128547 0.0119579 2.04677e-17)
(-0.13551 0.0132705 1.9691e-17)
(-0.140796 0.0140827 1.90589e-17)
(-0.14499 0.0146602 -1.85212e-17)
(-0.148107 0.0150859 -1.80277e-17)
(-0.150585 0.0153919 -1.20371e-35)
(-0.15284 0.0156349 -3.43363e-17)
(-0.155209 0.0158627 -1.67403e-17)
(-0.157656 0.0160972 4.9352e-34)
(-0.160334 0.0163346 0)
(-0.16338 0.0165993 -3.06339e-17)
(-0.166968 0.016904 -2.94555e-17)
(-0.171161 0.0172674 -2.80952e-17)
(-0.17607 0.0176949 -2.40741e-35)
(-0.181702 0.0181934 4.95084e-17)
(-0.188228 0.0187742 2.27065e-17)
(-0.195486 0.0194301 2.40741e-35)
(-0.204142 0.0202081 -3.53648e-17)
(-0.212599 0.0209987 -1.23955e-20)
(-0.225824 0.0221421 3.00927e-36)
(-0.230624 0.0228844 1.33137e-17)
(-0.255421 0.0244411 -6.9473e-18)
)
;
    }
    lowerWall
    {
        type            calculated;
        value           nonuniform List<vector> 
250
(
(-0.623063 -0.0062107 0)
(-0.593583 -0.010611 0)
(-0.578972 -0.0128607 0)
(-0.544737 -0.0116727 0)
(-0.51411 -0.00874247 0)
(-0.495524 -0.00678735 0)
(-0.479837 -0.00531666 0)
(-0.467216 -0.00372671 0)
(-0.493563 -0.00354427 0)
(-0.450531 -0.00307126 0)
(-0.441408 -0.00232599 0)
(-0.435854 -0.00258836 0)
(-0.43105 -0.00171083 0)
(-0.427203 -0.000346895 0)
(-0.46866 0.000605224 0)
(-0.477348 0.00123312 0)
(-0.453934 0.00146731 0)
(-0.48027 0.000956975 0)
(0.00212237 9.35432e-05 0)
(0.0023626 -0.00273091 0)
(0.00262461 -0.00565486 0)
(0.00296671 -0.00875755 1.14678e-19)
(0.00332599 -0.0118364 -9.66582e-20)
(0.00345118 -0.0155723 8.55539e-20)
(0.00298207 -0.0152711 -7.69525e-20)
(0.00893273 -0.033981 0)
(-0.044176 -0.106254 0)
(0.000220665 -0.000270809 0)
(6.31929e-05 -0.000781764 0)
(-3.48502e-06 -0.000873104 0)
(5.56189e-05 -0.000876743 0)
(3.19899e-05 -0.000848347 1.54039e-19)
(-0.00013894 -0.000297028 -1.50364e-19)
(-0.000561909 0.00110411 0)
(-0.00114434 0.00373773 -1.74156e-19)
(-0.00152008 0.00710815 1.33382e-19)
(-0.00147576 0.0103042 0)
(-0.0010964 0.0126734 0)
(-0.000573203 0.0139258 0)
(-6.58178e-05 0.0140306 0)
(0.000337484 0.0131666 0)
(0.000673586 0.0116188 0)
(0.00100239 0.00943309 0)
(0.00136313 0.00664702 0)
(0.00177062 0.0033081 0)
(-0.000140931 -0.000274343 0)
(0.000167634 -0.000443033 0)
(0.000475494 -0.000494759 0)
(0.000792497 -0.000426666 0)
(0.00104517 -0.000197611 -0)
(0.00109278 0.000182764 -0)
(0.000851933 0.000640164 1.44693e-20)
(0.000349647 0.00107079 -1.64682e-20)
(-0.000349404 0.00138604 0)
(-0.00115267 0.00154468 -9.48602e-21)
(-0.00198107 0.00155933 0)
(-0.002771 0.00145965 0)
(-0.00347747 0.00128151 0)
(-0.00407553 0.00105513 4.65853e-21)
(-0.00455372 0.000801322 0)
(-0.00490751 0.000531666 0)
(-0.00513452 0.000254582 -4.04178e-21)
(-0.00523867 -3.61031e-05 -0)
(-0.00519492 -0.000337037 0)
(-0.00500221 -0.000626815 -0)
(-0.0046696 -0.000885426 4.36134e-21)
(-0.00420897 -0.00109262 -0)
(-0.00363866 -0.00122703 5.1851e-21)
(-0.00298647 -0.001269 0)
(-0.00229088 -0.00120366 -0)
(-0.00160235 -0.00102772 8.52809e-21)
(-0.00098067 -0.000758257 0)
(-0.000485429 -0.000444242 -1.43592e-20)
(-0.000147121 -0.00016505 0)
(6.17095e-05 1.58707e-05 2.38065e-20)
(0.000196125 0.00011633 0)
(0.000274485 0.0002 0)
(0.000268575 0.000306721 0)
(0.000161312 0.000458065 0)
(-8.1046e-05 0.00066585 0)
(-0.000492824 0.000888199 -1.53635e-20)
(-0.00105423 0.00104086 0)
(-0.0016747 0.00104701 1.78819e-20)
(-0.00223276 0.000897088 0)
(-0.0026329 0.000641008 -1.40869e-20)
(-0.00283463 0.000361848 0)
(-0.00286222 0.000131249 0)
(-0.00276833 -1.88263e-06 1.38523e-20)
(-0.00262863 -1.40409e-05 0)
(-0.00251235 9.06844e-05 1.44369e-20)
(-0.00243242 0.000263852 -1.46043e-20)
(-0.00234487 0.000386817 0)
(-0.00213761 0.000237918 -1.58393e-20)
(-0.0015624 -0.000369337 -1.82889e-20)
(-0.000336597 -0.00107621 0)
(0.00137859 -0.0016296 0)
(0.00319939 -0.0022222 0)
(0.00527861 -0.0028854 0)
(0.00759964 -0.00342115 -0)
(0.0100624 -0.00371646 3.51168e-21)
(0.0125377 -0.00380018 0)
(0.0149718 -0.0038148 -2.76588e-21)
(0.0173464 -0.0036728 -0)
(0.0196005 -0.00342907 -0)
(0.0224433 -0.00326711 2.27024e-21)
(0.0236054 -0.0029097 0)
(0.0260847 -0.00275837 -2.00106e-21)
(0.0276672 -0.00251113 -0)
(0.0296755 -0.00229893 0)
(0.0321179 -0.00213624 -0)
(0.0339579 -0.00198735 1.82755e-21)
(0.0359318 -0.00186088 0)
(0.0377313 -0.00174204 -0)
(0.0395078 -0.00163812 1.77921e-21)
(0.0411959 -0.00154557 0)
(0.0428434 -0.0014632 1.75572e-21)
(0.0444324 -0.00138964 0)
(0.045981 -0.0013231 0)
(0.0474851 -0.00126248 0)
(0.0489523 -0.00120645 -1.72124e-21)
(0.0503819 -0.00115427 -0)
(0.0517773 -0.00110494 0)
(0.0531388 -0.0010579 -1.70017e-21)
(0.0544667 -0.00101264 -1.69348e-21)
(0.055763 -0.000968734 -0)
(0.0570255 -0.000925774 -1.68011e-21)
(0.0582565 -0.000883499 0)
(0.0594529 -0.000841921 -3.33272e-21)
(0.060618 -0.000800559 -0)
(0.0617472 -0.00075951 -3.30353e-21)
(0.0628434 -0.000718314 -0)
(0.0639023 -0.000677182 3.27167e-21)
(0.0649258 -0.000635502 0)
(0.0659097 -0.00059348 0)
(0.0668549 -0.000551102 0)
(0.0677592 -0.000508436 -3.19682e-21)
(0.0686226 -0.000464862 -0)
(0.0694419 -0.000420124 3.15251e-21)
(0.0702158 -0.000374002 0)
(0.0709416 -0.000326357 -3.10263e-21)
(0.0716174 -0.000276847 -3.07546e-21)
(0.0722405 -0.00022541 -3.04672e-21)
(0.0728085 -0.000172307 -0)
(0.07332 -0.000118852 0)
(0.0737748 -6.78788e-05 0)
(0.0741766 -2.43219e-05 0)
(0.0745311 1.22962e-05 0)
(0.0748412 4.69367e-05 0)
(0.0751061 8.07364e-05 0)
(0.0753264 0.000114236 0)
(0.075501 0.000147335 2.71166e-21)
(0.0756306 0.000180362 2.6647e-21)
(0.0757133 0.000213024 0)
(0.0757504 0.000245557 0)
(0.0757401 0.000277692 0)
(0.0756836 0.000309619 2.45646e-21)
(0.0755796 0.000341198 0)
(0.0754284 0.000372484 0)
(0.07523 0.000403306 0)
(0.0749842 0.000433863 0)
(0.0746912 0.000463802 -2.14879e-21)
(0.0743516 0.000493416 0)
(0.0739649 0.000522484 0)
(0.0735316 0.00055109 1.93736e-21)
(0.0730521 0.000578988 -1.86217e-21)
(0.0725272 0.000606402 0)
(0.0719567 0.000633136 -1.70443e-21)
(0.0713416 0.00065922 0)
(0.0706825 0.000684532 1.53659e-21)
(0.06998 0.000709234 0)
(0.0692348 0.000733063 0)
(0.068448 0.000756202 0)
(0.0676205 0.000778532 0)
(0.0667561 0.000800028 0)
(0.0658557 0.000820452 -1.93836e-21)
(0.0649068 0.000839702 -1.72948e-21)
(0.0639369 0.000858425 0)
(0.0629109 0.000875707 0)
(0.0618672 0.000891135 0)
(0.060786 0.000903493 8.35567e-22)
(0.0596806 0.000910152 0)
(0.0585466 0.000908461 0)
(0.0573869 0.000900629 0)
(0.0561963 0.000904324 -1.58466e-22)
(0.0549769 0.000918065 4.24676e-22)
(0.0537285 0.000928239 0)
(0.0524571 0.000937762 0)
(0.0511624 0.000946274 1.27086e-21)
(0.0498471 0.000954108 1.56993e-21)
(0.0485117 0.000961174 0)
(0.0471581 0.000967739 0)
(0.0457867 0.000973652 -2.52443e-21)
(0.0443996 0.000979139 2.86353e-21)
(0.0429979 0.000984192 0)
(0.0415831 0.000988992 0)
(0.0401561 0.000993466 3.9525e-21)
(0.0387181 0.000997686 0)
(0.0372697 0.00100152 0)
(0.0358125 0.00100497 5.16625e-21)
(0.0343476 0.00100812 0)
(0.0328763 0.0010111 6.05859e-21)
(0.0313996 0.001014 0)
(0.0299181 0.00101698 0)
(0.0284328 0.00102008 0)
(0.0269444 0.00102348 -8.09487e-21)
(0.0254526 0.00102724 0)
(0.0239579 0.00103142 0)
(0.0224601 0.00103601 0)
(0.0209594 0.00104102 0)
(0.0194559 0.00104646 0)
(0.0179499 0.00105238 0)
(0.0164414 0.00105886 -1.28715e-20)
(0.0149304 0.00106602 -1.37417e-20)
(0.013417 0.00107394 0)
(0.0119009 0.00108264 0)
(0.010382 0.00109204 0)
(0.00886046 0.00110183 1.79674e-20)
(0.00733691 0.00111151 0)
(0.00581321 0.00112074 -4.13891e-20)
(0.00429281 0.00112757 4.45389e-20)
(0.00278325 0.00112732 4.80276e-20)
(0.00129373 0.0011092 -5.18983e-20)
(-0.0001007 0.00106605 5.41825e-20)
(-0.00164911 0.000913989 -5.33453e-20)
(-0.002043 0.000549495 0)
(-0.00401067 0.0012041 -3.16256e-18)
(-0.00703941 0.000985472 -2.85405e-18)
(-0.010043 0.000655517 -3.00927e-36)
(-0.0131758 0.000343938 -4.82752e-18)
(-0.016528 1.17647e-05 -8.95835e-18)
(-0.020097 -0.000341425 -4.17256e-18)
(-0.023894 -0.000715754 3.89832e-18)
(-0.0279397 -0.00111486 1.20371e-35)
(-0.0322586 -0.00154144 3.00927e-36)
(-0.0368671 -0.00199863 3.21502e-18)
(-0.0417826 -0.00249315 3.02043e-18)
(-0.0470248 -0.00298598 3.00927e-36)
(-0.052598 -0.00349554 0)
(-0.0585594 -0.00407995 0)
(-0.0649676 -0.00473015 -3.49357e-35)
(-0.0718311 -0.00543603 -1.13788e-35)
(-0.0792886 -0.00619722 6.01853e-35)
(-0.0872189 -0.00701931 -3.73175e-18)
(-0.09615 -0.00791087 -3.39864e-18)
(-0.105214 -0.00887778 6.01853e-36)
(-0.11671 -0.00993959 5.34462e-18)
(-0.126287 -0.011106 8.86985e-18)
(-0.143586 -0.0123363 6.01853e-36)
(-0.151072 -0.0138416 -4.2764e-18)
(-0.185451 -0.0161785 -2.40741e-35)
)
;
    }
    frontAndBack
    {
        type            empty;
    }
}


// ************************************************************************* //
