/*--------------------------------*- C++ -*----------------------------------*\
| =========                 |                                                 |
| \\      /  F ield         | OpenFOAM: The Open Source CFD Toolbox           |
|  \\    /   O peration     | Version:  v2012                                 |
|   \\  /    A nd           | Website:  www.openfoam.com                      |
|    \\/     M anipulation  |                                                 |
\*---------------------------------------------------------------------------*/
FoamFile
{
    version     2.0;
    format      ascii;
    class       volScalarField;
    location    "200";
    object      p;
}
// * * * * * * * * * * * * * * * * * * * * * * * * * * * * * * * * * * * * * //

dimensions      [0 2 -2 0 0 0 0];


internalField   nonuniform List<scalar> 
12225
(
-4.86369
-5.74138
-6.12818
-6.24384
-6.36353
-6.5094
-6.64127
-6.74981
-6.84275
-6.92802
-7.01084
-7.09208
-7.17246
-7.25406
-7.33973
-7.4343
-7.54137
-7.67333
-5.14596
-5.79558
-6.12035
-6.23148
-6.34777
-6.4893
-6.61894
-6.72725
-6.8218
-6.9097
-6.99401
-7.07574
-7.156
-7.23679
-7.32054
-7.41057
-7.50555
-7.60012
-5.35708
-5.7926
-6.09558
-6.23067
-6.35241
-6.49025
-6.61688
-6.72354
-6.81747
-6.90499
-6.98809
-7.06811
-7.1463
-7.22432
-7.30358
-7.38508
-7.46376
-7.5264
-5.50476
-5.81748
-6.10476
-6.25024
-6.36654
-6.49423
-6.61456
-6.71801
-6.80999
-6.89577
-6.9773
-7.05573
-7.13209
-7.20738
-7.28211
-7.35557
-7.4222
-7.47183
-5.63147
-5.86523
-6.12181
-6.26735
-6.37903
-6.49912
-6.61455
-6.71548
-6.8057
-6.88982
-6.96978
-7.04635
-7.12031
-7.19218
-7.26186
-7.3279
-7.38573
-7.42827
-5.74611
-5.91863
-6.13809
-6.28118
-6.39089
-6.50486
-6.61533
-6.71345
-6.80167
-6.88396
-6.96201
-7.03637
-7.10756
-7.17577
-7.24057
-7.3003
-7.35153
-7.38945
-5.85027
-5.97496
-6.15833
-6.29577
-6.40303
-6.51066
-6.6156
-6.71051
-6.79649
-6.87674
-6.95265
-7.02462
-7.09293
-7.15755
-7.21788
-7.27243
-7.31881
-7.35405
-5.93068
-6.0251
-6.18055
-6.30999
-6.41388
-6.51594
-6.61587
-6.70763
-6.79138
-6.86959
-6.9434
-7.01313
-7.07887
-7.1405
-7.1974
-7.24835
-7.29169
-7.32558
-5.99615
-6.07033
-6.20297
-6.32381
-6.4241
-6.52117
-6.61648
-6.70515
-6.78666
-6.8628
-6.93456
-7.00216
-7.06556
-7.1246
-7.1787
-7.2269
-7.26809
-7.30112
-6.06135
-6.1191
-6.22981
-6.34032
-6.43597
-6.52762
-6.61778
-6.7028
-6.78159
-6.85526
-6.9246
-6.98975
-7.0506
-7.10694
-7.1583
-7.20398
-7.24332
-7.27571
-6.1254
-6.17011
-6.26085
-6.3597
-6.44951
-6.53536
-6.61993
-6.70071
-6.77624
-6.84702
-6.91357
-6.97598
-7.03409
-7.08768
-7.13639
-7.17978
-7.21752
-7.24937
-6.18727
-6.22188
-6.29531
-6.38181
-6.4646
-6.54431
-6.62294
-6.69893
-6.77069
-6.83815
-6.90159
-6.961
-7.01623
-7.06706
-7.11324
-7.15455
-7.19089
-7.22221
-6.24582
-6.27278
-6.3318
-6.40605
-6.48096
-6.55419
-6.62669
-6.69745
-6.76497
-6.82874
-6.88877
-6.945
-6.99727
-7.04537
-7.08919
-7.12859
-7.16365
-7.19444
-6.29967
-6.3209
-6.36837
-6.43129
-6.49792
-6.56447
-6.6308
-6.69609
-6.75902
-6.81883
-6.87527
-6.92822
-6.9775
-7.02299
-7.06455
-7.10224
-7.1361
-7.16633
-6.34701
-6.36402
-6.40256
-6.45568
-6.51428
-6.57424
-6.63458
-6.69444
-6.75266
-6.80839
-6.8612
-6.91089
-6.95728
-7.00026
-7.03977
-7.07586
-7.10863
-7.13825
-6.3854
-6.39937
-6.43136
-6.47664
-6.52819
-6.58209
-6.63693
-6.69175
-6.74548
-6.79727
-6.8466
-6.89321
-6.93691
-6.9776
-7.01526
-7.04992
-7.08168
-7.11071
-6.41136
-6.42334
-6.45097
-6.49073
-6.53689
-6.5859
-6.63621
-6.68681
-6.7367
-6.78506
-6.83135
-6.87527
-6.91664
-6.95538
-6.99145
-7.02489
-7.05578
-7.08429
-6.41919
-6.43035
-6.45618
-6.49345
-6.53687
-6.58309
-6.63067
-6.67862
-6.72602
-6.77206
-6.81625
-6.85829
-6.89804
-6.93538
-6.97034
-7.00291
-7.0332
-7.06133
-6.40845
-6.42002
-6.44665
-6.4846
-6.52812
-6.57395
-6.62084
-6.66798
-6.71447
-6.75956
-6.80277
-6.84392
-6.88282
-6.91947
-6.95381
-6.98596
-7.01592
-7.0439
-6.3839
-6.39699
-6.42677
-6.46806
-6.51389
-6.56103
-6.60877
-6.65648
-6.70326
-6.74837
-6.79147
-6.83239
-6.87108
-6.90747
-6.94162
-6.97359
-7.00347
-7.03141
-6.34857
-6.36448
-6.40001
-6.44703
-6.49667
-6.54621
-6.59583
-6.64507
-6.69288
-6.73863
-6.78211
-6.82327
-6.86208
-6.89851
-6.93266
-6.96462
-6.99451
-7.0225
-6.30413
-6.32469
-6.36916
-6.42412
-6.47838
-6.53085
-6.58304
-6.63442
-6.68371
-6.73043
-6.7746
-6.81625
-6.85535
-6.89197
-6.9262
-6.95823
-6.98815
-7.01623
-6.25126
-6.27934
-6.33679
-6.4014
-6.46029
-6.51591
-6.57119
-6.62502
-6.67593
-6.72376
-6.76878
-6.81105
-6.85056
-6.88739
-6.92175
-6.95381
-6.98377
-7.01187
-6.18986
-6.23005
-6.30555
-6.38044
-6.4431
-6.50197
-6.56076
-6.61714
-6.66959
-6.71854
-6.76446
-6.80739
-6.84731
-6.88436
-6.91878
-6.95084
-6.98077
-7.00889
-6.11912
-6.17853
-6.27822
-6.36254
-6.4272
-6.48923
-6.55177
-6.61057
-6.66443
-6.71448
-6.76133
-6.80493
-6.84521
-6.88239
-6.91678
-6.94871
-6.97849
-7.00649
-6.03807
-6.12637
-6.25612
-6.34808
-6.41316
-6.47807
-6.54388
-6.60455
-6.65951
-6.71061
-6.75845
-6.80279
-6.84353
-6.88092
-6.91533
-6.94717
-6.97683
-7.00491
-5.94601
-6.07747
-6.2368
-6.33253
-6.39893
-6.46811
-6.53715
-6.59917
-6.65492
-6.70686
-6.75548
-6.80035
-6.84132
-6.8787
-6.91287
-6.94434
-6.97359
-7.0014
-5.83464
-6.04492
-6.22415
-6.3116
-6.3789
-6.45511
-6.5293
-6.59409
-6.65203
-6.70613
-6.75662
-6.80287
-6.84477
-6.8826
-6.91687
-6.94821
-6.97735
-7.00595
-5.66248
-6.03641
-6.24741
-6.31532
-6.37399
-6.45073
-6.52525
-6.58922
-6.64684
-6.70138
-6.75255
-6.79934
-6.84159
-6.87943
-6.91313
-6.94333
-6.97121
-6.99803
-5.40341
-5.9626
-6.23895
-6.31449
-6.37736
-6.46007
-6.53831
-6.60383
-6.66254
-6.71821
-6.77037
-6.81786
-6.86039
-6.89798
-6.93017
-6.95742
-6.98146
-7.00161
-7.92138
-7.9214
-7.92138
-7.92026
-7.91586
-7.90838
-7.90107
-7.89746
-7.89963
-7.90654
-7.91666
-7.92946
-7.94493
-7.96245
-7.98126
-8.00044
-8.01955
-8.03807
-8.05583
-8.07247
-8.08794
-8.10194
-8.11452
-8.12541
-8.13467
-8.14215
-8.14819
-8.15288
-8.15663
-8.15949
-8.16191
-8.16395
-8.16582
-8.16738
-8.16894
-8.17052
-8.1725
-8.17488
-8.17794
-8.1816
-8.18608
-8.19119
-8.19698
-8.20318
-8.20976
-8.21645
-8.22316
-8.22968
-8.23597
-8.2418
-8.24705
-8.2515
-8.25496
-8.25716
-8.2581
-8.25787
-8.25676
-8.25513
-8.2537
-8.25289
-8.25312
-8.2545
-8.2571
-8.26084
-8.26569
-8.27161
-8.27916
-8.28855
-8.30004
-8.31291
-8.32625
-8.33818
-8.34943
-8.35818
-8.36184
-8.35922
-8.35944
-8.38749
-8.4673
-8.61089
-8.81594
-9.06524
-9.33849
-9.61435
-9.87757
-10.1174
-10.3296
-10.5128
-10.6687
-10.7995
-10.9078
-10.9967
-11.0691
-11.1273
-11.1731
-11.2079
-11.2325
-11.2479
-11.2541
-11.2515
-11.24
-11.2195
-11.1899
-11.1512
-11.103
-11.0453
-10.9779
-10.9012
-10.8154
-10.7211
-10.6183
-10.5074
-10.3882
-10.2616
-10.1276
-9.98681
-9.83904
-9.68479
-9.52346
-9.35529
-9.17953
-8.99633
-8.80492
-8.60609
-8.39982
-8.1877
-7.97075
-7.75145
-7.53065
-7.30994
-7.0902
-6.87427
-6.66378
-6.4598
-6.26026
-6.06279
-5.86381
-5.66234
-5.45688
-5.24715
-5.03156
-4.81158
-4.58919
-4.37008
-4.15913
-3.963
-3.78667
-3.63449
-3.50676
-3.39772
-3.29451
-3.17498
-3.0091
-2.75909
-2.3838
-1.84147
-1.09708
-0.126712
1.07477
2.49134
4.08472
5.79742
7.55893
9.29527
10.9399
12.4417
13.7661
14.8967
15.8318
16.5805
17.1597
17.5886
17.8838
18.0628
18.1501
18.1712
18.1564
18.134
18.1712
18.244
-7.92556
-7.92627
-7.92805
-7.92837
-7.92476
-7.9198
-7.918
-7.92063
-7.92668
-7.93529
-7.94624
-7.95927
-7.97412
-7.99014
-8.00683
-8.02363
-8.04026
-8.05633
-8.07172
-8.08612
-8.09946
-8.11151
-8.12235
-8.13186
-8.1402
-8.14725
-8.15308
-8.15758
-8.16097
-8.16328
-8.16475
-8.16541
-8.16568
-8.16578
-8.16604
-8.16658
-8.16772
-8.16953
-8.17224
-8.17579
-8.1803
-8.18567
-8.19191
-8.19886
-8.20643
-8.21426
-8.22215
-8.22983
-8.23722
-8.244
-8.25001
-8.25489
-8.25845
-8.26043
-8.26097
-8.26016
-8.25831
-8.25583
-8.25333
-8.25127
-8.25017
-8.25034
-8.25207
-8.25527
-8.26002
-8.26634
-8.27455
-8.28425
-8.29464
-8.30441
-8.31148
-8.31279
-8.31521
-8.32744
-8.33949
-8.3323
-8.32842
-8.37328
-8.49257
-8.68629
-8.93564
-9.21422
-9.49817
-9.7692
-10.0169
-10.236
-10.426
-10.5882
-10.7255
-10.841
-10.937
-11.0165
-11.0818
-11.1347
-11.1767
-11.2085
-11.2312
-11.2453
-11.251
-11.2482
-11.2368
-11.2168
-11.188
-11.1502
-11.1031
-11.0465
-10.9804
-10.9046
-10.8193
-10.7247
-10.6212
-10.5093
-10.3895
-10.2621
-10.1278
-9.98675
-9.83918
-9.6852
-9.52462
-9.35723
-9.1828
-9.00094
-8.8114
-8.61433
-8.41
-8.19916
-7.98318
-7.76393
-7.54267
-7.32034
-7.09837
-6.87934
-6.6653
-6.45717
-6.25367
-6.05237
-5.85059
-5.64698
-5.44043
-5.23005
-5.01444
-4.79404
-4.57107
-4.35035
-4.137
-3.93722
-3.75691
-3.6011
-3.47131
-3.36312
-3.26455
-3.15482
-3.00487
-2.77748
-2.43104
-1.92273
-1.21519
-0.282139
0.884445
2.27071
3.83948
5.5338
7.28263
9.0112
10.6518
12.1531
13.481
14.6192
15.5662
16.3294
16.9207
17.3597
17.666
17.8586
17.9607
17.9971
17.9965
17.9828
18.0105
18.0484
-7.92812
-7.92725
-7.9266
-7.92656
-7.92651
-7.92793
-7.93268
-7.94052
-7.95058
-7.9623
-7.97541
-7.98952
-8.00427
-8.01926
-8.03427
-8.04896
-8.06318
-8.07666
-8.08932
-8.10097
-8.1116
-8.12106
-8.1294
-8.13651
-8.14249
-8.14724
-8.15086
-8.15332
-8.15484
-8.15553
-8.15572
-8.15559
-8.1555
-8.15563
-8.15623
-8.15738
-8.15929
-8.16199
-8.16561
-8.1701
-8.17552
-8.18178
-8.18883
-8.19652
-8.2047
-8.21315
-8.22169
-8.23004
-8.23801
-8.24525
-8.2515
-8.25642
-8.25983
-8.26154
-8.26158
-8.25996
-8.257
-8.25314
-8.24905
-8.24536
-8.24275
-8.24173
-8.24267
-8.24557
-8.25059
-8.25763
-8.26584
-8.27354
-8.27866
-8.28003
-8.28123
-8.28698
-8.30016
-8.33244
-8.38748
-8.45914
-8.55326
-8.68139
-8.84972
-9.05243
-9.2765
-9.50819
-9.7359
-9.95135
-10.1496
-10.328
-10.4859
-10.624
-10.7438
-10.8467
-10.9342
-11.0079
-11.0696
-11.1205
-11.1615
-11.1933
-11.2166
-11.2318
-11.2388
-11.2372
-11.2272
-11.2086
-11.1813
-11.1451
-11.0999
-11.0452
-10.981
-10.9071
-10.8237
-10.7305
-10.6279
-10.5164
-10.3966
-10.2688
-10.1338
-9.99169
-9.84331
-9.68842
-9.52744
-9.35991
-9.18584
-9.00479
-8.817
-8.62204
-8.42034
-8.21178
-7.99786
-7.77968
-7.55864
-7.33542
-7.11186
-6.89006
-6.6724
-6.45966
-6.25172
-6.04656
-5.84246
-5.63791
-5.43236
-5.22427
-5.01252
-4.79654
-4.57848
-4.36179
-4.15116
-3.95223
-3.77082
-3.61229
-3.47877
-3.36738
-3.26773
-3.16144
-3.02122
-2.81168
-2.49141
-2.01694
-1.34821
-0.455456
0.673448
2.0276
3.57161
5.24818
6.98534
8.70714
10.3446
11.8458
13.1771
14.3231
15.2809
16.0561
16.6603
17.1117
17.4299
17.6359
17.7523
17.8033
17.8153
17.8077
17.8177
17.7971
-7.93251
-7.93108
-7.93054
-7.9339
-7.93943
-7.94629
-7.95488
-7.96509
-7.97661
-7.98907
-8.00226
-8.01585
-8.02965
-8.04333
-8.05675
-8.06964
-8.0819
-8.09331
-8.10384
-8.11332
-8.12178
-8.12909
-8.13533
-8.14041
-8.14441
-8.14728
-8.14917
-8.15011
-8.15033
-8.14995
-8.14924
-8.14836
-8.14762
-8.14717
-8.1473
-8.14814
-8.14991
-8.15269
-8.15663
-8.1617
-8.16791
-8.17515
-8.1833
-8.19213
-8.20144
-8.21092
-8.22034
-8.22937
-8.23771
-8.24502
-8.25102
-8.25544
-8.25814
-8.25902
-8.25814
-8.25561
-8.2518
-8.24713
-8.24221
-8.23756
-8.23373
-8.2312
-8.23044
-8.23178
-8.23514
-8.23958
-8.24365
-8.24554
-8.24514
-8.24392
-8.24694
-8.26809
-8.32042
-8.40861
-8.52783
-8.66757
-8.81895
-8.97958
-9.15189
-9.33509
-9.52503
-9.71636
-9.90345
-10.0817
-10.2477
-10.3996
-10.5362
-10.6579
-10.7653
-10.859
-10.9399
-11.0091
-11.0679
-11.1171
-11.1575
-11.1896
-11.2139
-11.2301
-11.2381
-11.2379
-11.2292
-11.2119
-11.1858
-11.1509
-11.1068
-11.0536
-10.9908
-10.9184
-10.8364
-10.7445
-10.643
-10.5324
-10.4129
-10.285
-10.1491
-10.0061
-9.85637
-9.70002
-9.53748
-9.36872
-9.1937
-9.01244
-8.82506
-8.63124
-8.43112
-8.22464
-8.0126
-7.79569
-7.57488
-7.35109
-7.126
-6.90119
-6.67902
-6.46074
-6.24651
-6.0354
-5.82679
-5.61955
-5.41335
-5.20694
-4.99916
-4.7895
-4.57946
-4.37119
-4.16839
-3.97569
-3.79789
-3.63988
-3.50379
-3.38762
-3.28272
-3.17316
-3.03417
-2.83294
-2.52942
-2.08023
-1.44307
-0.584461
0.5123
1.83994
3.36517
5.02963
6.75962
8.47803
10.1162
11.6216
12.9604
14.1156
15.0816
15.8627
16.4716
16.9262
17.2467
17.4555
17.575
17.6291
17.6421
17.6296
17.6146
17.541
-7.93902
-7.93913
-7.94202
-7.94841
-7.95677
-7.96648
-7.97715
-7.98854
-8.00059
-8.0131
-8.02589
-8.03871
-8.05145
-8.06386
-8.07585
-8.0872
-8.09782
-8.10756
-8.11636
-8.1241
-8.13079
-8.13632
-8.14077
-8.14406
-8.1463
-8.14749
-8.14781
-8.14736
-8.14635
-8.14492
-8.14336
-8.14184
-8.14068
-8.14005
-8.1402
-8.14125
-8.14339
-8.14665
-8.15109
-8.15666
-8.16337
-8.17105
-8.17964
-8.18887
-8.19859
-8.20848
-8.2183
-8.22768
-8.23632
-8.24394
-8.25022
-8.25479
-8.25745
-8.25806
-8.25677
-8.25381
-8.24933
-8.24344
-8.23663
-8.22958
-8.22316
-8.21822
-8.21528
-8.21436
-8.21487
-8.21519
-8.21481
-8.21464
-8.21728
-8.2294
-8.26124
-8.32411
-8.42266
-8.55083
-8.69778
-8.85493
-9.01692
-9.18188
-9.35012
-9.52089
-9.69198
-9.86054
-10.0235
-10.1782
-10.3228
-10.4558
-10.577
-10.6864
-10.7844
-10.8711
-10.9471
-11.0131
-11.07
-11.1183
-11.1587
-11.1917
-11.2169
-11.2341
-11.2434
-11.2448
-11.2378
-11.2221
-11.1976
-11.164
-11.121
-11.0689
-11.0073
-10.9362
-10.8553
-10.7646
-10.6643
-10.5546
-10.4355
-10.3078
-10.1716
-10.0279
-9.87701
-9.71942
-9.55518
-9.38496
-9.20855
-9.02657
-8.83874
-8.64526
-8.4456
-8.2406
-8.03005
-7.81464
-7.59466
-7.37138
-7.14564
-6.91921
-6.69356
-6.4706
-6.25025
-6.03292
-5.81851
-5.60738
-5.39887
-5.19275
-4.98775
-4.78441
-4.58286
-4.38487
-4.19277
-4.00996
-3.84009
-3.68663
-3.55137
-3.43212
-3.32192
-3.2067
-3.06484
-2.86602
-2.57271
-2.14183
-1.53008
-0.700382
0.36801
1.67228
3.18087
4.83548
6.56092
8.27935
9.92228
11.4369
12.7874
13.9535
14.9281
15.7154
16.3285
16.7855
17.1073
17.3164
17.4353
17.4865
17.4924
17.4654
17.4205
17.3018
-7.94471
-7.94701
-7.95456
-7.96349
-7.97324
-7.98398
-7.99537
-8.00713
-8.01921
-8.03144
-8.04372
-8.05584
-8.06772
-8.07916
-8.09008
-8.1003
-8.10976
-8.11831
-8.12591
-8.13242
-8.13786
-8.14213
-8.14529
-8.14733
-8.1484
-8.14849
-8.14773
-8.14626
-8.14431
-8.14205
-8.13978
-8.13771
-8.13614
-8.13526
-8.13532
-8.13641
-8.13867
-8.14209
-8.14672
-8.1525
-8.15943
-8.16737
-8.1762
-8.18567
-8.1956
-8.2057
-8.21571
-8.22532
-8.23435
-8.24245
-8.24915
-8.25395
-8.25657
-8.25681
-8.25476
-8.25045
-8.24396
-8.23562
-8.22633
-8.2172
-8.20918
-8.20289
-8.19803
-8.1934
-8.18814
-8.18283
-8.1805
-8.18661
-8.20754
-8.25168
-8.32512
-8.42759
-8.55353
-8.69609
-8.8487
-9.0067
-9.16726
-9.32877
-9.4902
-9.65035
-9.80767
-9.96039
-10.1069
-10.2456
-10.3754
-10.4956
-10.6061
-10.7069
-10.7981
-10.8801
-10.9529
-11.0172
-11.0733
-11.1218
-11.1631
-11.1972
-11.2238
-11.2428
-11.254
-11.2573
-11.2524
-11.2386
-11.2158
-11.1835
-11.1418
-11.0906
-11.03
-10.9598
-10.8799
-10.7903
-10.6909
-10.582
-10.4637
-10.3364
-10.2006
-10.0567
-9.90528
-9.74689
-9.5819
-9.41065
-9.2334
-9.05051
-8.86225
-8.66861
-8.46946
-8.26529
-8.05613
-7.8422
-7.62384
-7.40191
-7.17709
-6.95056
-6.72348
-6.49708
-6.27217
-6.04948
-5.82976
-5.61406
-5.40244
-5.19473
-4.99093
-4.79147
-4.59654
-4.40714
-4.22495
-4.05203
-3.89103
-3.74405
-3.61183
-3.49205
-3.37855
-3.25914
-3.11474
-2.91774
-2.633
-2.21846
-1.63007
-0.82819
0.211846
1.49128
2.98058
4.62248
6.3417
8.06044
9.70979
11.2348
12.5965
13.7732
14.7569
15.5521
16.1716
16.6338
16.9598
17.1722
17.2927
17.3425
17.3413
17.299
17.227
17.0738
-7.94842
-7.95348
-7.96352
-7.97329
-7.98344
-7.99453
-8.00619
-8.01806
-8.03004
-8.04197
-8.05381
-8.06537
-8.0766
-8.08733
-8.09751
-8.10698
-8.1157
-8.1235
-8.13037
-8.13616
-8.14089
-8.14446
-8.14694
-8.14834
-8.14877
-8.14821
-8.14686
-8.14481
-8.14233
-8.13963
-8.13698
-8.1346
-8.1328
-8.13175
-8.13169
-8.13269
-8.13482
-8.13803
-8.1424
-8.14797
-8.15477
-8.16268
-8.17158
-8.18122
-8.19138
-8.20169
-8.21182
-8.22135
-8.23
-8.23752
-8.24385
-8.24862
-8.25107
-8.25043
-8.24665
-8.23996
-8.23098
-8.22065
-8.2102
-8.20044
-8.1914
-8.18246
-8.17251
-8.16041
-8.14723
-8.13712
-8.13723
-8.15723
-8.20454
-8.28124
-8.38429
-8.50826
-8.64715
-8.79573
-8.95012
-9.10735
-9.26532
-9.4225
-9.57768
-9.7297
-9.87737
-10.0196
-10.1554
-10.2838
-10.4043
-10.5166
-10.6204
-10.7159
-10.8035
-10.883
-10.9546
-11.0186
-11.0755
-11.1253
-11.1683
-11.2044
-11.2332
-11.2545
-11.2683
-11.2739
-11.2713
-11.2595
-11.2386
-11.208
-11.1677
-11.1178
-11.0584
-10.9893
-10.9106
-10.8219
-10.7236
-10.6156
-10.4982
-10.3716
-10.2365
-10.0929
-9.94174
-9.78331
-9.61831
-9.44667
-9.26917
-9.0858
-8.89727
-8.7033
-8.50441
-8.30061
-8.09237
-7.87955
-7.66286
-7.44249
-7.21912
-6.99318
-6.7658
-6.53761
-6.31001
-6.08377
-5.8604
-5.64078
-5.42589
-5.21571
-5.01131
-4.813
-4.62164
-4.43778
-4.26265
-4.09763
-3.94408
-3.80331
-3.67487
-3.55654
-3.44219
-3.32135
-3.17661
-2.98311
-2.70743
-2.30909
-1.74325
-0.968752
0.0426034
1.29513
2.7623
4.38814
6.09853
7.81566
9.46888
11.0006
12.3704
13.5553
14.5472
15.3502
15.9774
16.4469
16.7795
16.9976
17.1221
17.1726
17.1668
17.1128
17.0204
16.8445
-7.94375
-7.95057
-7.96119
-7.97211
-7.98358
-7.9956
-8.00782
-8.01994
-8.03195
-8.0437
-8.05521
-8.06636
-8.07714
-8.08744
-8.09721
-8.10631
-8.11469
-8.12219
-8.12878
-8.13433
-8.13884
-8.14222
-8.14454
-8.14577
-8.14595
-8.14516
-8.14362
-8.14141
-8.13877
-8.13584
-8.13292
-8.13023
-8.12807
-8.12664
-8.12622
-8.12692
-8.12884
-8.13197
-8.13639
-8.14208
-8.14906
-8.15722
-8.16643
-8.17638
-8.1868
-8.19732
-8.20758
-8.21703
-8.22527
-8.23197
-8.23722
-8.24056
-8.24093
-8.2377
-8.23126
-8.22214
-8.21109
-8.19901
-8.18673
-8.17438
-8.16114
-8.14545
-8.12637
-8.10438
-8.08381
-8.07353
-8.08363
-8.12137
-8.18904
-8.28438
-8.40243
-8.53698
-8.68264
-8.83522
-8.99169
-9.1496
-9.30705
-9.46247
-9.61455
-9.76217
-9.90454
-10.0411
-10.1711
-10.2942
-10.4098
-10.518
-10.6186
-10.712
-10.7984
-10.8778
-10.95
-11.0154
-11.0743
-11.1266
-11.1722
-11.2111
-11.2427
-11.2671
-11.2838
-11.2923
-11.2923
-11.2831
-11.2645
-11.2362
-11.198
-11.15
-11.0922
-11.0246
-10.9471
-10.8597
-10.7625
-10.6555
-10.5389
-10.4133
-10.2789
-10.1361
-9.98535
-9.82722
-9.66209
-9.49037
-9.31252
-9.12893
-8.93994
-8.74567
-8.5465
-8.34277
-8.13475
-7.92262
-7.70682
-7.48761
-7.26539
-7.04047
-6.81351
-6.58524
-6.35681
-6.12927
-5.90409
-5.68235
-5.46505
-5.25296
-5.04724
-4.84893
-4.65896
-4.47812
-4.30725
-4.14739
-3.99926
-3.86333
-3.7387
-3.62278
-3.50976
-3.38993
-3.24742
-3.05911
-2.79305
-2.40982
-1.86439
-1.11436
-0.129231
1.09716
2.54067
4.14816
5.84707
7.55831
9.20967
10.742
12.1145
13.3035
14.3009
15.1104
15.745
16.2224
16.5631
16.7884
16.9185
16.9716
16.9636
16.9021
16.7961
16.6069
-7.92466
-7.93177
-7.94448
-7.95862
-7.97277
-7.98657
-7.99991
-8.01268
-8.02494
-8.03669
-8.04805
-8.05898
-8.06955
-8.07967
-8.0893
-8.09829
-8.10663
-8.11415
-8.12082
-8.12651
-8.13123
-8.13488
-8.13752
-8.13908
-8.13966
-8.13931
-8.13816
-8.1363
-8.13391
-8.13114
-8.12825
-8.12544
-8.12298
-8.12109
-8.12006
-8.12013
-8.12156
-8.12453
-8.12915
-8.13534
-8.14295
-8.15171
-8.16141
-8.17173
-8.18241
-8.19314
-8.20366
-8.2135
-8.22212
-8.22868
-8.23215
-8.23144
-8.22669
-8.21881
-8.20833
-8.19534
-8.18039
-8.16399
-8.14606
-8.12575
-8.10168
-8.07296
-8.04113
-8.01068
-7.98912
-7.98535
-8.00692
-8.0581
-8.13896
-8.24552
-8.37218
-8.51309
-8.66358
-8.81999
-8.97946
-9.13963
-9.29852
-9.45438
-9.6059
-9.75235
-9.89324
-10.0281
-10.1564
-10.2777
-10.3921
-10.4995
-10.6001
-10.6941
-10.7818
-10.8629
-10.9376
-11.0059
-11.068
-11.1238
-11.1731
-11.2157
-11.251
-11.2792
-11.2995
-11.3117
-11.3151
-11.3092
-11.2936
-11.2681
-11.2324
-11.1867
-11.1308
-11.0649
-10.9887
-10.9026
-10.8063
-10.7002
-10.5843
-10.4592
-10.3251
-10.1827
-10.032
-9.87379
-9.70826
-9.53626
-9.3579
-9.17395
-8.9844
-8.78986
-8.59038
-8.38665
-8.17871
-7.9671
-7.7519
-7.53367
-7.31245
-7.08877
-6.86281
-6.63549
-6.40755
-6.18033
-5.95477
-5.73236
-5.51381
-5.30057
-5.09365
-4.89464
-4.70471
-4.52494
-4.35614
-4.19902
-4.0543
-3.92168
-3.80025
-3.68693
-3.5764
-3.45917
-3.32057
-3.1384
-2.88192
-2.51202
-1.98419
-1.25491
-0.292739
0.910456
2.33199
3.92039
5.6037
7.30304
8.94523
10.4711
11.8395
13.0272
14.026
14.8396
15.4804
15.9657
16.315
16.5485
16.6854
16.7428
16.7351
16.6698
16.5559
16.3603
-7.89055
-7.89842
-7.91555
-7.93472
-7.9526
-7.96886
-7.98377
-7.99744
-8.01015
-8.02205
-8.03337
-8.04421
-8.05469
-8.06474
-8.07434
-8.08338
-8.09185
-8.0996
-8.1066
-8.11272
-8.11797
-8.12228
-8.12567
-8.12809
-8.12965
-8.13038
-8.13039
-8.12975
-8.12864
-8.12716
-8.12551
-8.12381
-8.12231
-8.12117
-8.12067
-8.12105
-8.12264
-8.1257
-8.1304
-8.13665
-8.1443
-8.15302
-8.16256
-8.17258
-8.18288
-8.19318
-8.20326
-8.21244
-8.21955
-8.22308
-8.22188
-8.21556
-8.20505
-8.19129
-8.17442
-8.15439
-8.1312
-8.10443
-8.07336
-8.03717
-7.9958
-7.95099
-7.90725
-7.87155
-7.8523
-7.85707
-7.89086
-7.95523
-8.04797
-8.16403
-8.29788
-8.44444
-8.59954
-8.75983
-8.92262
-9.0856
-9.24673
-9.40429
-9.55728
-9.70515
-9.84735
-9.98337
-10.1129
-10.2356
-10.3516
-10.461
-10.5641
-10.6612
-10.7522
-10.8372
-10.9158
-10.9883
-11.0551
-11.1158
-11.1702
-11.2176
-11.2578
-11.2908
-11.3159
-11.3325
-11.34
-11.3378
-11.3257
-11.3032
-11.2701
-11.2266
-11.1724
-11.1078
-11.0327
-10.9474
-10.8517
-10.746
-10.6303
-10.5051
-10.371
-10.2283
-10.0774
-9.91878
-9.75301
-9.5806
-9.40199
-9.21763
-9.02784
-8.83302
-8.63347
-8.42957
-8.22169
-8.01025
-7.79547
-7.57777
-7.35735
-7.13451
-6.90959
-6.68325
-6.45623
-6.22966
-6.00448
-5.78193
-5.56294
-5.34898
-5.14143
-4.94185
-4.75166
-4.57205
-4.40401
-4.24832
-4.10558
-3.97537
-3.85654
-3.74599
-3.6384
-3.52452
-3.39007
-3.21351
-2.96474
-2.60484
-2.08971
-1.37574
-0.431655
0.751165
2.15104
3.71805
5.38099
7.06163
8.68692
10.1985
11.5557
12.7362
13.7319
14.5465
15.1916
15.6838
16.0415
16.2837
16.4284
16.4915
16.4863
16.4204
16.303
16.1061
-7.84645
-7.85645
-7.87941
-7.90426
-7.92614
-7.94505
-7.96167
-7.97634
-7.98953
-8.00157
-8.01287
-8.02364
-8.03405
-8.04403
-8.05362
-8.06274
-8.07141
-8.0795
-8.08699
-8.09374
-8.09975
-8.10496
-8.10942
-8.11308
-8.11604
-8.11836
-8.12018
-8.12159
-8.12273
-8.12372
-8.1247
-8.12578
-8.12712
-8.12883
-8.13111
-8.13408
-8.13796
-8.14285
-8.14885
-8.15588
-8.16384
-8.17246
-8.18152
-8.19067
-8.19958
-8.20783
-8.21495
-8.22013
-8.22215
-8.21954
-8.21141
-8.1979
-8.17964
-8.15683
-8.12945
-8.09714
-8.05938
-8.01523
-7.96406
-7.90625
-7.84413
-7.78237
-7.72839
-7.69118
-7.67862
-7.69547
-7.74355
-7.82156
-7.92552
-8.04997
-8.18992
-8.34114
-8.49993
-8.6633
-8.82889
-8.99455
-9.15828
-9.31857
-9.47455
-9.62555
-9.77096
-9.91032
-10.0433
-10.1698
-10.2898
-10.4034
-10.5112
-10.6132
-10.7096
-10.8
-10.8845
-10.9631
-11.036
-11.1034
-11.1644
-11.2184
-11.265
-11.3035
-11.3336
-11.3546
-11.3661
-11.3674
-11.3584
-11.3385
-11.3078
-11.266
-11.2133
-11.1495
-11.0753
-10.9903
-10.895
-10.7892
-10.6736
-10.5483
-10.4139
-10.2708
-10.1196
-9.96056
-9.79454
-9.6217
-9.44287
-9.25813
-9.06819
-8.87313
-8.67362
-8.46975
-8.26212
-8.05082
-7.83642
-7.61904
-7.39921
-7.17695
-6.95292
-6.7274
-6.50136
-6.27543
-6.05089
-5.82844
-5.60951
-5.3952
-5.18733
-4.98738
-4.79702
-4.61765
-4.45034
-4.29609
-4.15527
-4.02764
-3.91153
-3.80405
-3.69936
-3.58848
-3.45684
-3.28358
-3.03864
-2.68388
-2.17545
-1.47108
-0.540121
0.625233
2.00426
3.54758
5.1854
6.84038
8.44126
9.931
11.2705
12.438
13.4261
14.2382
14.8855
15.3833
15.7488
15.9997
16.1528
16.2227
16.222
16.1582
16.0407
15.8463
-7.80024
-7.81248
-7.84133
-7.8716
-7.89723
-7.91864
-7.93683
-7.95235
-7.96587
-7.97795
-7.98914
-7.99977
-8.01
-8.01983
-8.02934
-8.03851
-8.04736
-8.05581
-8.06383
-8.07131
-8.07823
-8.08454
-8.09027
-8.09544
-8.10012
-8.10438
-8.10838
-8.11225
-8.11615
-8.1202
-8.12457
-8.12936
-8.13468
-8.14063
-8.1473
-8.15475
-8.163
-8.17204
-8.18179
-8.19205
-8.20262
-8.21317
-8.22335
-8.23272
-8.24087
-8.24715
-8.25076
-8.25068
-8.24594
-8.23544
-8.21837
-8.19455
-8.1643
-8.12784
-8.08506
-8.03521
-7.9774
-7.91068
-7.83514
-7.75304
-7.66991
-7.5936
-7.53272
-7.49643
-7.49216
-7.52147
-7.58212
-7.67052
-7.78211
-7.91208
-8.05623
-8.2108
-8.37225
-8.53775
-8.70541
-8.87348
-9.04005
-9.2037
-9.3635
-9.51867
-9.66855
-9.81275
-9.95096
-10.083
-10.2088
-10.3286
-10.4429
-10.5519
-10.6556
-10.7543
-10.8473
-10.9345
-11.0156
-11.0903
-11.1582
-11.2188
-11.2713
-11.3151
-11.3496
-11.3746
-11.3895
-11.394
-11.3877
-11.3702
-11.3415
-11.3013
-11.2499
-11.1872
-11.1136
-11.0293
-10.9342
-10.8288
-10.7131
-10.5877
-10.4531
-10.3097
-10.1582
-9.9989
-9.83251
-9.65947
-9.4803
-9.29542
-9.10528
-8.91021
-8.71065
-8.50693
-8.29945
-8.08846
-7.8744
-7.6575
-7.43815
-7.21659
-6.99332
-6.76871
-6.54357
-6.31854
-6.09471
-5.87291
-5.65444
-5.44051
-5.23284
-5.03317
-4.8432
-4.66458
-4.49855
-4.34605
-4.20748
-4.08233
-3.96872
-3.86341
-3.76034
-3.65024
-3.51865
-3.34482
-3.09898
-2.74366
-2.23589
-1.53522
-0.612715
0.538237
1.89697
3.41442
5.02226
6.645
8.21411
9.67483
10.9903
12.1396
13.1159
13.9223
14.5693
15.0709
15.4432
15.7023
15.8637
15.9412
15.9463
15.8865
15.7717
15.5824
-7.75896
-7.7729
-7.80679
-7.84159
-7.87021
-7.89352
-7.91281
-7.92881
-7.94238
-7.95428
-7.96522
-7.97552
-7.98541
-7.99496
-8.0043
-8.01343
-8.02239
-8.03112
-8.03961
-8.04778
-8.05563
-8.06312
-8.07029
-8.07716
-8.08382
-8.09034
-8.09687
-8.10354
-8.11053
-8.11801
-8.12615
-8.13508
-8.14493
-8.15579
-8.1677
-8.18067
-8.19463
-8.20943
-8.22485
-8.24056
-8.25618
-8.27117
-8.28499
-8.29701
-8.30655
-8.31267
-8.31431
-8.31025
-8.29934
-8.28049
-8.25307
-8.21696
-8.17249
-8.11995
-8.05929
-7.9897
-7.9101
-7.81982
-7.71973
-7.6136
-7.51008
-7.42081
-7.35593
-7.32221
-7.32228
-7.35472
-7.41686
-7.50562
-7.61718
-7.74762
-7.89296
-8.04948
-8.21391
-8.38322
-8.55485
-8.72664
-8.89687
-9.06447
-9.22862
-9.38855
-9.54372
-9.69383
-9.83862
-9.97796
-10.1119
-10.2408
-10.3648
-10.4836
-10.5974
-10.7056
-10.8079
-10.9039
-10.9928
-11.0743
-11.1482
-11.2143
-11.2719
-11.3204
-11.3592
-11.3882
-11.4067
-11.4145
-11.411
-11.3962
-11.3696
-11.3313
-11.2814
-11.22
-11.1473
-11.0637
-10.9692
-10.8641
-10.7485
-10.6232
-10.4884
-10.3449
-10.193
-10.0336
-9.86683
-9.69367
-9.51424
-9.32933
-9.13907
-8.94414
-8.74465
-8.54121
-8.33391
-8.12336
-7.90961
-7.69326
-7.47434
-7.25351
-7.03084
-6.80709
-6.58262
-6.35852
-6.13534
-5.91445
-5.6967
-5.48373
-5.27698
-5.07848
-4.88999
-4.71316
-4.54933
-4.3992
-4.26313
-4.13999
-4.02793
-3.92292
-3.81908
-3.70655
-3.57145
-3.39272
-3.14122
-2.77975
-2.26716
-1.56486
-0.646867
0.4923
1.83071
3.31996
4.89286
6.47731
8.0078
9.43322
10.7187
11.8452
12.8058
13.6036
14.2478
14.7516
15.1293
15.3958
15.5653
15.6504
15.6621
15.6078
15.4974
15.3152
-7.72878
-7.74339
-7.78071
-7.81858
-7.84904
-7.87335
-7.89302
-7.90896
-7.92219
-7.93366
-7.94411
-7.95389
-7.96327
-7.9724
-7.98144
-7.99041
-7.99936
-8.00825
-8.01709
-8.02584
-8.03453
-8.04314
-8.05174
-8.06035
-8.06905
-8.07793
-8.08712
-8.09679
-8.1071
-8.11824
-8.13041
-8.14378
-8.15849
-8.17465
-8.19229
-8.2114
-8.23183
-8.25336
-8.27565
-8.29821
-8.32045
-8.34162
-8.36092
-8.37739
-8.39002
-8.39756
-8.39872
-8.3921
-8.3764
-8.35053
-8.31391
-8.26647
-8.20861
-8.14065
-8.06271
-7.97417
-7.87406
-7.76234
-7.64139
-7.51722
-7.40035
-7.30277
-7.23305
-7.19386
-7.18477
-7.20604
-7.25752
-7.33707
-7.4413
-7.56627
-7.7082
-7.86364
-8.02918
-8.20119
-8.3763
-8.55193
-8.7265
-8.8991
-9.06893
-9.23538
-9.39796
-9.55637
-9.71037
-9.85985
-10.0048
-10.145
-10.2799
-10.4094
-10.5332
-10.6505
-10.7608
-10.8641
-10.96
-11.0482
-11.1285
-11.2004
-11.2634
-11.317
-11.3607
-11.394
-11.4166
-11.428
-11.4279
-11.4159
-11.3918
-11.3557
-11.3075
-11.2476
-11.1761
-11.0933
-10.9994
-10.8947
-10.7794
-10.6541
-10.5194
-10.3756
-10.2236
-10.0639
-9.89706
-9.72365
-9.54415
-9.35911
-9.16892
-8.97403
-8.77479
-8.57162
-8.36474
-8.15459
-7.94136
-7.72547
-7.50717
-7.28693
-7.06499
-6.84197
-6.61835
-6.39508
-6.1729
-5.95308
-5.73669
-5.52528
-5.32046
-5.12419
-4.93828
-4.76429
-4.60326
-4.45575
-4.32156
-4.19923
-4.08649
-3.97904
-3.87095
-3.75245
-3.60972
-3.4218
-3.15972
-2.78699
-2.26444
-1.55611
-0.638981
0.490294
1.80809
3.26622
4.79947
6.33976
7.82565
9.21008
10.4606
11.5599
12.5012
13.2874
13.9264
14.4304
14.812
15.0846
15.2613
15.3537
15.3721
15.3241
15.2193
15.0454
-7.71319
-7.72804
-7.76656
-7.80556
-7.83651
-7.86079
-7.88009
-7.8954
-7.9079
-7.91861
-7.92829
-7.93734
-7.94607
-7.95466
-7.9633
-7.97201
-7.98087
-7.98983
-7.99893
-8.00815
-8.01754
-8.02712
-8.03694
-8.04704
-8.05751
-8.06844
-8.07999
-8.09232
-8.10564
-8.12017
-8.1361
-8.15367
-8.17302
-8.19432
-8.21757
-8.24276
-8.26969
-8.29808
-8.32746
-8.35721
-8.38657
-8.41458
-8.44019
-8.46215
-8.47913
-8.48965
-8.49216
-8.48507
-8.46696
-8.43664
-8.39346
-8.3372
-8.26817
-8.1867
-8.09323
-7.98801
-7.87156
-7.74562
-7.6144
-7.48452
-7.3635
-7.25796
-7.17424
-7.11757
-7.09107
-7.09595
-7.13186
-7.19691
-7.28812
-7.40147
-7.53305
-7.67964
-7.83836
-8.0061
-8.17983
-8.35672
-8.53485
-8.71281
-8.88961
-9.06433
-9.2363
-9.40489
-9.56972
-9.73039
-9.88651
-10.0374
-10.1824
-10.3214
-10.4542
-10.58
-10.6987
-10.8099
-10.9136
-11.0093
-11.0966
-11.1752
-11.2444
-11.3038
-11.3529
-11.3911
-11.4183
-11.4337
-11.4373
-11.4284
-11.4072
-11.3733
-11.3271
-11.2687
-11.1985
-11.1167
-11.0236
-10.9193
-10.8045
-10.6792
-10.5446
-10.4007
-10.2487
-10.0888
-9.92198
-9.74841
-9.56902
-9.38394
-9.19395
-8.9992
-8.80036
-8.5975
-8.39121
-8.18151
-7.96897
-7.75365
-7.5362
-7.31665
-7.09573
-6.87359
-6.65125
-6.42916
-6.20868
-5.99055
-5.77646
-5.5676
-5.36588
-5.17303
-4.99062
-4.82003
-4.66175
-4.51608
-4.38212
-4.25831
-4.14186
-4.02876
-3.91283
-3.78493
-3.6306
-3.42934
-3.15185
-2.76318
-2.22594
-1.50779
-0.588383
0.53197
1.82812
3.25154
4.74049
6.23102
7.66719
9.0056
10.2171
11.2854
12.2045
12.9763
13.6081
14.1101
14.4938
14.7712
14.9541
15.0531
15.078
15.0363
14.9378
14.7728
-7.71347
-7.72879
-7.76607
-7.80399
-7.83404
-7.85729
-7.87538
-7.88942
-7.90075
-7.9104
-7.91912
-7.92731
-7.93533
-7.94338
-7.95162
-7.96008
-7.96884
-7.97787
-7.9872
-7.99684
-8.00681
-8.01713
-8.02783
-8.03895
-8.05057
-8.06281
-8.07583
-8.08987
-8.10515
-8.12196
-8.14056
-8.16124
-8.18419
-8.20962
-8.23754
-8.26795
-8.30063
-8.33525
-8.37125
-8.40792
-8.44432
-8.47932
-8.51165
-8.5398
-8.5622
-8.57711
-8.58278
-8.57742
-8.55944
-8.52749
-8.48069
-8.41866
-8.34156
-8.24995
-8.14499
-8.02839
-7.90261
-7.7705
-7.63589
-7.50374
-7.37957
-7.26839
-7.17506
-7.10459
-7.06187
-7.04923
-7.06637
-7.11127
-7.18195
-7.27615
-7.39089
-7.52303