/*--------------------------------*- C++ -*----------------------------------*\
  =========                 |
  \\      /  F ield         | OpenFOAM: The Open Source CFD Toolbox
   \\    /   O peration     | Website:  https://openfoam.org
    \\  /    A nd           | Version:  8
     \\/     M anipulation  |
\*---------------------------------------------------------------------------*/
FoamFile
{
    version     2.0;
    format      ascii;
    class       surfaceScalarField;
    location    "3000";
    object      phi;
}
// * * * * * * * * * * * * * * * * * * * * * * * * * * * * * * * * * * * * * //

dimensions      [0 3 -1 0 0 0 0];

internalField   nonuniform List<scalar> 
24170
(
3.92539e-06
-7.91498e-07
3.76465e-06
1.6075e-07
3.63345e-06
1.31209e-07
3.43331e-06
2.00143e-07
3.28028e-06
1.53027e-07
3.18901e-06
9.11904e-08
3.13091e-06
5.81106e-08
3.08609e-06
4.58916e-08
3.04612e-06
4.23238e-08
3.01059e-06
3.81629e-08
2.97875e-06
3.38025e-08
2.94904e-06
3.07704e-08
2.92187e-06
2.7378e-08
2.89641e-06
2.52004e-08
2.87227e-06
2.36057e-08
2.85193e-06
1.94844e-08
2.84096e-06
9.85935e-09
-6.36198e-09
2.84665e-06
3.58445e-06
-9.19499e-07
3.80424e-06
-5.90414e-08
3.74282e-06
1.92629e-07
3.6906e-06
2.52374e-07
3.63729e-06
2.06332e-07
3.59023e-06
1.38279e-07
3.55289e-06
9.55994e-08
3.52309e-06
7.56595e-08
3.49853e-06
6.65696e-08
3.47732e-06
5.92154e-08
3.45871e-06
5.25299e-08
3.44253e-06
4.72655e-08
3.42795e-06
4.2339e-08
3.41466e-06
3.87877e-08
3.40269e-06
3.57317e-08
3.39122e-06
3.1054e-08
3.38036e-06
2.08457e-08
4.79204e-09
3.36943e-06
3.68518e-06
-7.92482e-07
3.83639e-06
-2.10251e-07
3.91494e-06
1.14082e-07
3.94502e-06
2.22293e-07
3.94408e-06
2.07264e-07
3.92749e-06
1.54897e-07
3.90755e-06
1.15615e-07
3.88932e-06
9.36445e-08
3.874e-06
8.11968e-08
3.86056e-06
7.19165e-08
3.84834e-06
6.42571e-08
3.83728e-06
5.81367e-08
3.82691e-06
5.27808e-08
3.8174e-06
4.84769e-08
3.80891e-06
4.44355e-08
3.80097e-06
3.92558e-08
3.79195e-06
3.02113e-08
1.78051e-08
3.77944e-06
4.05359e-06
-6.4151e-07
4.1146e-06
-2.71259e-07
4.20799e-06
2.06912e-08
4.26635e-06
1.63932e-07
4.2907e-06
1.82926e-07
4.29287e-06
1.52748e-07
4.28571e-06
1.22818e-07
4.27631e-06
1.02843e-07
4.26727e-06
8.96866e-08
4.25873e-06
7.98184e-08
4.25056e-06
7.1951e-08
4.24283e-06
6.56364e-08
4.23534e-06
6.02482e-08
4.22823e-06
5.56952e-08
4.22149e-06
5.13546e-08
4.21464e-06
4.63481e-08
4.20598e-06
3.91877e-08
3.06653e-08
4.19351e-06
4.50491e-06
-5.09114e-07
4.51536e-06
-2.81708e-07
4.58529e-06
-4.92346e-08
4.64665e-06
1.02565e-07
4.68258e-06
1.46992e-07
4.69688e-06
1.38473e-07
4.69946e-06
1.20237e-07
4.69723e-06
1.04926e-07
4.69331e-06
9.32557e-08
4.68868e-06
8.40585e-08
4.68366e-06
7.66435e-08
4.67851e-06
7.06099e-08
4.67321e-06
6.54966e-08
4.66783e-06
6.11081e-08
4.66227e-06
5.70075e-08
4.65606e-06
5.27062e-08
4.64786e-06
4.75947e-08
4.261e-08
4.63612e-06
5.00014e-06
-3.94663e-07
4.98614e-06
-2.67704e-07
5.03069e-06
-9.37794e-08
5.08506e-06
4.81975e-08
5.12454e-06
1.07516e-07
5.14608e-06
1.1694e-07
5.15584e-06
1.10489e-07
5.1594e-06
1.01285e-07
5.15985e-06
9.26085e-08
5.15859e-06
8.50848e-08
5.15629e-06
7.87445e-08
5.15333e-06
7.34446e-08
5.14984e-06
6.89359e-08
5.14589e-06
6.50661e-08
5.14135e-06
6.15895e-08
5.13584e-06
5.83126e-08
5.12839e-06
5.51523e-08
5.30557e-08
5.11808e-06
5.54382e-06
-2.97475e-07
5.51664e-06
-2.40529e-07
5.54055e-06
-1.17686e-07
5.58388e-06
4.86996e-09
5.62166e-06
6.97341e-08
5.64656e-06
9.2046e-08
5.66107e-06
9.59685e-08
5.66906e-06
9.32475e-08
5.67315e-06
8.84251e-08
5.67481e-06
8.33023e-08
5.6749e-06
7.85534e-08
5.6739e-06
7.43775e-08
5.67204e-06
7.0768e-08
5.6694e-06
6.76984e-08
5.66591e-06
6.51026e-08
5.66127e-06
6.29915e-08
5.65494e-06
6.15509e-08
6.15365e-08
5.6465e-06
4.34788e-06
-2.39242e-07
4.32251e-06
-2.15163e-07
4.33078e-06
-1.25951e-07
4.35419e-06
-1.85367e-08
4.3784e-06
4.55256e-08
4.39646e-06
7.39847e-08
4.40841e-06
8.40228e-08
4.41597e-06
8.5674e-08
4.42059e-06
8.37684e-08
4.42325e-06
8.05988e-08
4.42456e-06
7.71981e-08
4.4249e-06
7.40047e-08
4.42446e-06
7.11823e-08
4.42334e-06
6.88128e-08
4.42151e-06
6.69397e-08
4.41884e-06
6.56742e-08
4.41514e-06
6.52727e-08
6.63533e-08
4.41035e-06
5.08621e-06
-1.856e-07
5.05777e-06
-1.86718e-07
5.0584e-06
-1.26578e-07
5.07686e-06
-3.70027e-08
5.09918e-06
2.32137e-08
5.11773e-06
5.54361e-08
5.13124e-06
7.05071e-08
5.14059e-06
7.63171e-08
5.14686e-06
7.74763e-08
5.15094e-06
7.64983e-08
5.15344e-06
7.46777e-08
5.15477e-06
7.26681e-08
5.15514e-06
7.07989e-08
5.15468e-06
6.92667e-08
5.15341e-06
6.82129e-08
5.15128e-06
6.78165e-08
5.14821e-06
6.83542e-08
7.02764e-08
5.14429e-06
5.94839e-06
-1.38194e-07
5.91832e-06
-1.56649e-07
5.91161e-06
-1.19866e-07
5.924e-06
-4.93971e-08
5.94286e-06
4.35839e-09
5.96058e-06
3.77167e-08
5.97479e-06
5.62913e-08
5.98546e-06
6.56469e-08
5.9932e-06
6.97365e-08
5.99867e-06
7.10184e-08
6.00242e-06
7.09169e-08
6.00484e-06
7.02415e-08
6.00618e-06
6.946e-08
6.00657e-06
6.88695e-08
6.0061e-06
6.86904e-08
6.00478e-06
6.91385e-08
6.00267e-06
7.04651e-08
7.29795e-08
5.99997e-06
6.95439e-06
-9.83131e-08
6.92402e-06
-1.26279e-07
6.91113e-06
-1.06984e-07
6.9168e-06
-5.50661e-08
6.93087e-06
-9.7107e-09
6.94635e-06
2.22393e-08
6.96015e-06
4.2493e-08
6.9714e-06
5.43966e-08
6.98017e-06
6.09622e-08
6.98684e-06
6.43487e-08
6.9918e-06
6.59565e-08
6.99537e-06
6.66662e-08
6.9978e-06
6.70324e-08
6.99924e-06
6.74262e-08
6.99982e-06
6.81157e-08
6.99963e-06
6.93271e-08
6.99883e-06
7.12706e-08
7.41328e-08
6.99767e-06
8.12719e-06
-6.64879e-08
8.09793e-06
-9.70214e-08
8.08056e-06
-8.96094e-08
8.07955e-06
-5.40591e-08
8.08793e-06
-1.80896e-08
8.09985e-06
1.03227e-08
8.11198e-06
3.0359e-08
8.12286e-06
4.35225e-08
8.13202e-06
5.17961e-08
8.1395e-06
5.68687e-08
8.14548e-06
5.99767e-08
8.15018e-06
6.19714e-08
8.15378e-06
6.3433e-08
8.15644e-06
6.4759e-08
8.15832e-06
6.62357e-08
8.15957e-06
6.80768e-08
8.1604e-06
7.0444e-08
7.34425e-08
8.16109e-06
9.49368e-06
-4.24389e-08
9.4668e-06
-7.01432e-08
9.44683e-06
-6.96408e-08
9.43991e-06
-4.71323e-08
9.44229e-06
-2.04683e-08
9.44965e-06
2.95527e-09
9.45895e-06
2.10645e-08
9.4684e-06
3.40708e-08
9.47716e-06
4.30368e-08
9.48491e-06
4.91214e-08
9.49159e-06
5.32946e-08
9.49727e-06
5.62928e-08
9.50205e-06
5.86479e-08
9.50607e-06
6.074e-08
9.50947e-06
6.28363e-08
9.51242e-06
6.51227e-08
9.51515e-06
6.77174e-08
7.0674e-08
9.51792e-06
1.10854e-05
-2.51593e-08
1.10618e-05
-4.65031e-08
1.1041e-05
-4.88074e-08
1.10294e-05
-3.55523e-08
1.10261e-05
-1.71703e-08
1.10284e-05
6.04587e-10
1.1034e-05
1.54746e-08
1.10411e-05
2.69709e-08
1.10487e-05
3.54921e-08
1.10561e-05
4.17163e-08
1.1063e-05
4.6314e-08
1.10695e-05
4.98439e-08
1.10754e-05
5.2736e-08
1.10808e-05
5.53044e-08
1.10859e-05
5.77695e-08
1.10908e-05
6.0275e-08
1.10956e-05
6.29014e-08
6.5672e-08
1.11006e-05
1.29396e-05
-1.31189e-08
1.29194e-05
-2.62793e-08
1.28988e-05
-2.82527e-08
1.28839e-05
-2.06884e-08
1.28758e-05
-8.99648e-09
1.28732e-05
3.14432e-09
1.28748e-05
1.39396e-08
1.28789e-05
2.27882e-08
1.28847e-05
2.97444e-08
1.28913e-05
3.51433e-08
1.28982e-05
3.93837e-08
1.29052e-05
4.28288e-08
1.29122e-05
4.57706e-08
1.29191e-05
4.84261e-08
1.29259e-05
5.09445e-08
1.29327e-05
5.34172e-08
1.29398e-05
5.58876e-08
5.83586e-08
1.29471e-05
1.50998e-05
-4.48337e-09
1.50822e-05
-8.67679e-09
1.50621e-05
-8.11451e-09
1.50448e-05
-3.45922e-09
1.50327e-05
3.10866e-09
1.50259e-05
9.93771e-09
1.50237e-05
1.61609e-08
1.5025e-05
2.14634e-08
1.50289e-05
2.58525e-08
1.50346e-05
2.94841e-08
1.50414e-05
3.25541e-08
1.5049e-05
3.52429e-08
1.50571e-05
3.76938e-08
1.50655e-05
4.00082e-08
1.50742e-05
4.22484e-08
1.50832e-05
4.4444e-08
1.50925e-05
4.65976e-08
4.86908e-08
1.51021e-05
1.76171e-05
2.89282e-09
1.75999e-05
8.52221e-09
1.75787e-05
1.30285e-08
1.7559e-05
1.62765e-08
1.75436e-05
1.8471e-08
1.75336e-05
1.9956e-08
1.75287e-05
2.10504e-08
1.75282e-05
2.19917e-08
1.75311e-05
2.29377e-08
1.75366e-05
2.39836e-08
1.7544e-05
2.51757e-08
1.75527e-05
2.65266e-08
1.75624e-05
2.80252e-08
1.75727e-05
2.9646e-08
1.75836e-05
3.13524e-08
1.7595e-05
3.31034e-08
1.76067e-05
3.4853e-08
3.65568e-08
1.76188e-05
1.78181e-05
1.1e-08
1.77994e-05
2.72116e-08
1.77768e-05
3.56228e-08
1.7756e-05
3.70568e-08
1.77402e-05
3.43241e-08
1.77302e-05
2.9944e-08
1.77257e-05
2.54972e-08
1.7726e-05
2.17748e-08
1.77298e-05
1.90716e-08
1.77364e-05
1.73966e-08
1.77449e-05
1.66293e-08
1.77549e-05
1.66006e-08
1.77658e-05
1.71394e-08
1.77773e-05
1.8088e-08
1.77894e-05
1.93143e-08
1.78018e-05
2.07045e-08
1.78144e-05
2.21693e-08
2.36329e-08
1.78274e-05
1.58702e-05
2.21331e-08
1.58478e-05
4.95804e-08
1.58233e-05
6.01309e-08
1.58032e-05
5.72328e-08
1.57899e-05
4.76083e-08
1.57834e-05
3.63687e-08
1.57827e-05
2.61941e-08
1.57864e-05
1.81424e-08
1.57931e-05
1.23606e-08
1.58019e-05
8.60769e-09
1.5812e-05
6.49238e-09
1.5823e-05
5.62526e-09
1.58345e-05
5.66224e-09
1.58462e-05
6.32782e-09
1.58581e-05
7.40065e-09
1.58701e-05
8.71744e-09
1.58821e-05
1.01496e-08
1.16081e-08
1.58942e-05
1.41313e-05
3.95384e-08
1.41021e-05
7.87061e-08
1.40745e-05
8.77866e-08
1.40557e-05
7.60368e-08
1.40469e-05
5.64113e-08
1.40462e-05
3.7037e-08
1.40512e-05
2.12069e-08
1.40597e-05
9.57825e-09
1.40704e-05
1.75808e-09
1.4082e-05
-3.05357e-09
1.40941e-05
-5.6088e-09
1.41063e-05
-6.56425e-09
1.41184e-05
-6.4174e-09
1.41303e-05
-5.55871e-09
1.41419e-05
-4.25882e-09
1.41534e-05
-2.71739e-09
1.41646e-05
-1.07245e-09
5.79861e-10
1.41756e-05
1.25772e-05
6.73553e-08
1.25392e-05
1.16739e-07
1.25091e-05
1.17888e-07
1.24942e-05
9.08897e-08
1.24928e-05
5.78121e-08
1.25002e-05
2.96807e-08
1.25122e-05
9.12827e-09
1.25264e-05
-4.49964e-09
1.25409e-05
-1.28391e-08
1.25552e-05
-1.73513e-08
1.25689e-05
-1.92864e-08
1.25819e-05
-1.95013e-08
1.25941e-05
-1.86542e-08
1.26057e-05
-1.71535e-08
1.26167e-05
-1.53014e-08
1.26273e-05
-1.32962e-08
1.26375e-05
-1.12595e-08
-9.27877e-09
1.26473e-05
1.11862e-05
1.10916e-07
1.11384e-05
1.64569e-07
1.11088e-05
1.4752e-07
1.11022e-05
9.74837e-08
1.11117e-05
4.83117e-08
1.11289e-05
1.24e-08
1.11486e-05
-1.0463e-08
1.11678e-05
-2.37293e-08
1.11855e-05
-3.05093e-08
1.12014e-05
-3.32915e-08
1.12157e-05
-3.35543e-08
1.12285e-05
-3.23574e-08
1.12402e-05
-3.03e-08
1.12509e-05
-2.78485e-08
1.12608e-05
-2.52414e-08
1.12701e-05
-2.26322e-08
1.1279e-05
-2.01285e-08
-1.77549e-08
1.12875e-05
9.93908e-06
1.76451e-07
9.88248e-06
2.21163e-07
9.85873e-06
1.71262e-07
9.86593e-06
9.02749e-08
9.8896e-06
2.46381e-08
9.91759e-06
-1.55565e-08
9.94391e-06
-3.67958e-08
9.96668e-06
-4.64099e-08
9.98571e-06
-4.96109e-08
1.00017e-05
-4.92859e-08
1.00152e-05
-4.71238e-08
1.00269e-05
-4.39908e-08
1.00371e-05
-4.05299e-08
1.00463e-05
-3.69956e-08
1.00546e-05
-3.35623e-08
1.00623e-05
-3.03509e-08
1.00696e-05
-2.7384e-08
-2.46684e-08
1.00765e-05
8.81963e-06
2.69916e-07
8.75785e-06
2.82943e-07
8.74788e-06
1.81225e-07
8.77481e-06
6.33226e-08
8.81458e-06
-1.51293e-08
8.85212e-06
-5.3092e-08
8.88268e-06
-6.72292e-08
8.90623e-06
-7.0026e-08
8.92427e-06
-6.76162e-08
8.93842e-06
-6.33687e-08
8.94985e-06
-5.83969e-08
8.95925e-06
-5.33326e-08
8.96725e-06
-4.84673e-08
8.97427e-06
-4.39905e-08
8.98054e-06
-3.98516e-08
8.98631e-06
-3.61126e-08
8.99173e-06
-3.28271e-08
-2.98548e-08
8.99693e-06
7.81391e-06
3.96675e-07
7.75391e-06
3.42943e-07
7.76868e-06
1.6644e-07
7.82053e-06
1.1461e-08
7.87567e-06
-7.0274e-08
7.91912e-06
-9.6491e-08
7.94967e-06
-9.78353e-08
7.97057e-06
-9.06492e-08
7.98484e-06
-8.1588e-08
7.99525e-06
-7.35492e-08
8.00316e-06
-6.61099e-08
8.00938e-06
-5.93975e-08
8.01446e-06
-5.33307e-08
8.01889e-06
-4.82205e-08
8.02278e-06
-4.36918e-08
8.02629e-06
-3.96773e-08
8.02968e-06
-3.62654e-08
-3.32147e-08
8.03301e-06
6.90424e-06
5.66768e-07
6.86137e-06
3.85804e-07
6.91716e-06
1.10634e-07
6.99674e-06
-6.8133e-08
7.06253e-06
-1.36071e-07
7.10529e-06
-1.39268e-07
7.13032e-06
-1.22548e-07
7.14447e-06
-1.04618e-07
7.15208e-06
-8.89928e-08
7.1571e-06
-7.58069e-08
7.16039e-06
-6.66618e-08
7.16268e-06
-5.95344e-08
7.16416e-06
-5.40994e-08
7.16555e-06
-4.94558e-08
7.16672e-06
-4.49904e-08
7.16774e-06
-4.0793e-08
7.16889e-06
-3.76196e-08
-3.50391e-08
7.1702e-06
6.07162e-06
7.97662e-07
6.08526e-06
3.72164e-07
6.19865e-06
-2.77331e-09
6.29989e-06
-1.69397e-07
6.36526e-06
-2.01462e-07
6.39754e-06
-1.71503e-07
6.41011e-06
-1.35217e-07
6.41342e-06
-1.06949e-07
6.41239e-06
-8.58055e-08
6.4099e-06
-7.40208e-08
6.4075e-06
-6.45148e-08
6.40486e-06
-5.75285e-08
6.4023e-06
-5.13e-08
6.40029e-06
-4.69611e-08
6.39842e-06
-4.28698e-08
6.39643e-06
-3.91677e-08
6.3949e-06
-3.6851e-08
-3.48004e-08
6.39421e-06
5.35805e-06
1.05451e-06
5.50649e-06
2.23716e-07
5.64777e-06
-1.44085e-07
5.73564e-06
-2.57314e-07
5.77646e-06
-2.42346e-07
5.78324e-06
-1.78423e-07
5.77527e-06
-1.26643e-07
5.76328e-06
-9.40054e-08
5.74976e-06
-7.56596e-08
5.73932e-06
-6.399e-08
5.73033e-06
-5.65372e-08
5.72231e-06
-4.99408e-08
5.71439e-06
-4.46373e-08
5.70778e-06
-4.03555e-08
5.70167e-06
-3.68883e-08
5.69612e-06
-3.36143e-08
5.69172e-06
-3.21301e-08
-3.15508e-08
5.68774e-06
5.04576e-06
1.01105e-06
5.36491e-06
-9.54502e-08
5.35251e-06
-1.31768e-07
5.33284e-06
-2.37746e-07
5.296e-06
-2.05651e-07
5.25016e-06
-1.32588e-07
5.20891e-06
-8.47323e-08
5.17485e-06
-6.08194e-08
5.14637e-06
-4.9819e-08
5.12487e-06
-4.29176e-08
5.10677e-06
-3.93914e-08
5.09048e-06
-3.56635e-08
5.07527e-06
-3.13967e-08
5.06194e-06
-2.75176e-08
5.04951e-06
-2.42649e-08
5.03874e-06
-2.22677e-08
5.03027e-06
-2.33982e-08
-2.34153e-08
5.02296e-06
5.4676e-06
5.37214e-06
5.24037e-06
5.0026e-06
4.79694e-06
4.66444e-06
4.57967e-06
4.51836e-06
4.46849e-06
4.4254e-06
4.38565e-06
4.34951e-06
4.31798e-06
4.29049e-06
4.26636e-06
4.24421e-06
4.2211e-06
4.19841e-06
2.31304e-08
-2.31326e-08
2.37206e-07
-2.14082e-07
4.89332e-07
-2.52096e-07
7.09597e-07
-2.20246e-07
8.77312e-07
-1.67697e-07
9.88439e-07
-1.11119e-07
1.0441e-06
-5.56508e-08
1.04652e-06
-2.42015e-09
1.00102e-06
4.55146e-08
9.17735e-07
8.32692e-08
8.11933e-07
1.05811e-07
7.02744e-07
1.09175e-07
6.09963e-07
9.27775e-08
5.43678e-07
6.62943e-08
4.92537e-07
5.11597e-08
4.33358e-07
5.98814e-08
3.47048e-07
8.61702e-08
2.21943e-07
1.25876e-07
4.36304e-08
1.77894e-07
-2.01842e-07
2.44842e-07
-5.04384e-07
3.02286e-07
-8.45378e-07
3.40742e-07
-1.20972e-06
3.6435e-07
-1.58712e-06
3.77408e-07
-1.96872e-06
3.81641e-07
-2.34455e-06
3.75851e-07
-2.70658e-06
3.62057e-07
-3.04966e-06
3.43087e-07
-3.36995e-06
3.20304e-07
-3.66512e-06
2.95176e-07
-3.93431e-06
2.69192e-07
-4.17783e-06
2.43526e-07
-4.39671e-06
2.18884e-07
-4.59244e-06
1.95723e-07
-4.7667e-06
1.74268e-07
-4.92131e-06
1.54602e-07
-5.05799e-06
1.36685e-07
-5.17839e-06
1.20401e-07
-5.28398e-06
1.05589e-07
-5.37605e-06
9.20682e-08
-5.45571e-06
7.96569e-08
-5.52389e-06
6.81825e-08
-5.58138e-06
5.74899e-08
-5.62883e-06
4.7445e-08
-5.66676e-06
3.79389e-08
-5.69565e-06
2.88843e-08
-5.71586e-06
2.02098e-08
-5.72775e-06
1.18855e-08
-5.73179e-06
4.03957e-09
-5.72885e-06
-2.94004e-09
-5.72001e-06
-8.83853e-09
-5.70604e-06
-1.39652e-08
-5.68736e-06
-1.86816e-08
-5.66421e-06
-2.3149e-08
-5.63677e-06
-2.74456e-08
-5.60517e-06
-3.15994e-08
-5.56954e-06
-3.56252e-08
-5.53001e-06
-3.95299e-08
-5.4867e-06
-4.33145e-08
-5.43972e-06
-4.69779e-08
-5.3892e-06
-5.05176e-08
-5.33528e-06
-5.39301e-08
-5.27806e-06
-5.72119e-08
-5.2177e-06
-6.03598e-08
-5.15433e-06
-6.33713e-08
-5.08809e-06
-6.62434e-08
-5.01912e-06
-6.89724e-08
-4.94756e-06
-7.15563e-08
-4.87357e-06
-7.39932e-08
-4.79729e-06
-7.62821e-08
-4.71886e-06
-7.84221e-08
-4.63845e-06
-8.04128e-08
-4.5562e-06
-8.22547e-08
-4.47225e-06
-8.39483e-08
-4.38675e-06
-8.54949e-08
-4.29986e-06
-8.68961e-08
-4.2117e-06
-8.81541e-08
-4.12243e-06
-8.92715e-08
-4.03218e-06
-9.02512e-08
-3.94109e-06
-9.10967e-08
-3.84927e-06
-9.18119e-08
-3.75687e-06
-9.24011e-08
-3.664e-06
-9.28691e-08
-3.57078e-06
-9.32216e-08
-3.47732e-06
-9.34646e-08
-3.38371e-06
-9.36055e-08
-3.29006e-06
-9.36528e-08
-3.19644e-06
-9.36172e-08
-3.10293e-06
-9.35114e-08
-3.00958e-06
-9.33511e-08
-2.91642e-06
-9.31569e-08
-2.82347e-06
-9.29544e-08
-2.73071e-06
-9.27614e-08
-2.63815e-06
-9.25577e-08
-2.54589e-06
-9.22583e-08
-2.45413e-06
-9.17617e-08
-2.36315e-06
-9.09825e-08
-2.27321e-06
-8.9938e-08
-2.18443e-06
-8.87848e-08
-2.0968e-06
-8.76301e-08
-2.01033e-06
-8.64741e-08
-1.92503e-06
-8.53008e-08
-1.84093e-06
-8.41028e-08
-1.75805e-06
-8.28794e-08
-1.67641e-06
-8.16329e-08
-1.59605e-06
-8.03672e-08
-1.51696e-06
-7.90861e-08
-1.43917e-06
-7.77922e-08
-1.36269e-06
-7.64835e-08
-1.28755e-06
-7.51393e-08
-1.21378e-06
-7.37715e-08
-1.14137e-06
-7.24081e-08
-1.07033e-06
-7.10439e-08
-1.00065e-06
-6.96802e-08
-9.32335e-07
-6.83179e-08
-8.65377e-07
-6.69586e-08
-7.99774e-07
-6.56045e-08
-7.35517e-07
-6.42583e-08
-6.72596e-07
-6.29219e-08
-6.11002e-07
-6.15948e-08
-5.50725e-07
-6.02775e-08
-4.91753e-07
-5.89729e-08
-4.34067e-07
-5.7687e-08
-3.77642e-07
-5.64254e-08
-3.22459e-07
-5.5184e-08
-2.685e-07
-5.39594e-08
-2.15744e-07
-5.27555e-08
-1.64173e-07
-5.15715e-08
-1.13778e-07
-5.03956e-08
-6.45498e-08
-4.92276e-08
-1.66121e-08
-4.79373e-08
3.0168e-08
-4.67795e-08
7.60973e-08
-4.59287e-08
1.21069e-07
-4.49711e-08
1.64981e-07
-4.39108e-08
2.07829e-07
-4.28468e-08
2.4963e-07
-4.18e-08
2.90415e-07
-4.0783e-08
3.30215e-07
-3.97979e-08
3.69059e-07
-3.88432e-08
4.06978e-07
-3.7917e-08
4.43998e-07
-3.7018e-08
4.80146e-07
-3.61451e-08
5.15445e-07
-3.52975e-08
5.49922e-07
-3.44749e-08
5.83601e-07
-3.36768e-08
6.16506e-07
-3.2903e-08
6.48662e-07
-3.21534e-08
6.80091e-07
-3.1428e-08
7.10819e-07
-3.07266e-08
7.4087e-07
-3.00493e-08
7.70266e-07
-2.9396e-08
7.99033e-07
-2.87668e-08
8.27195e-07
-2.81616e-08
8.54776e-07
-2.75806e-08
8.81799e-07
-2.70236e-08
9.08288e-07
-2.64904e-08
9.34268e-07
-2.59809e-08
9.59762e-07
-2.54945e-08
9.84791e-07
-2.50303e-08
1.00938e-06
-2.45873e-08
1.03354e-06
-2.41633e-08
1.05729e-06
-2.37556e-08
1.08065e-06
-2.33602e-08
1.10362e-06
-2.29714e-08
1.1262e-06
-2.25809e-08
1.14838e-06
-2.21774e-08
1.17012e-06
-2.17451e-08
1.19138e-06
-2.1262e-08
1.21208e-06
-2.06968e-08
1.23208e-06
-2.00055e-08
1.25121e-06
-1.91241e-08
1.26916e-06
-1.79553e-08
1.28551e-06
-1.6355e-08
1.29956e-06
-1.40477e-08
1.31018e-06
-1.06232e-08
1.31475e-06
-4.55769e-09
1.3079e-06
6.85904e-09
1.27835e-06
2.95417e-08
7.23355e-08
1.20601e-06
2.54186e-07
-2.7734e-07
4.90087e-07
-4.49981e-07
6.39673e-07
-4.01679e-07
7.24305e-07
-3.04877e-07
7.63818e-07
-2.07202e-07
7.69763e-07
-1.17069e-07
7.4883e-07
-3.47122e-08
7.06645e-07
3.97555e-08
6.46283e-07
1.05881e-07
5.67653e-07
1.61889e-07
4.70037e-07
2.03433e-07
3.51764e-07
2.27435e-07
2.06799e-07
2.37749e-07
2.35967e-08
2.49512e-07
-2.08626e-07
2.8339e-07
-4.94275e-07
3.45623e-07
-8.32242e-07
4.24226e-07
-1.2121e-06
5.05755e-07
-1.61593e-06
5.81672e-07
-2.01737e-06
6.46229e-07
-2.40739e-06
6.92259e-07
-2.78287e-06
7.16206e-07
-3.13781e-06
7.19292e-07
-3.46523e-06
7.04835e-07
-3.75999e-06
6.76407e-07
-4.02114e-06
6.36999e-07
-4.24908e-06
5.9e-07
-4.44509e-06
5.39104e-07
-4.61208e-06
4.873e-07
-4.75357e-06
4.36662e-07
-4.87291e-06
3.88538e-07
-4.97329e-06
3.43902e-07
-5.05757e-06
3.03169e-07
-5.12827e-06
2.66424e-07
-5.18751e-06
2.33506e-07
-5.23702e-06
2.04112e-07
-5.27821e-06
1.77872e-07
-5.3122e-06
1.54395e-07
-5.33991e-06
1.33298e-07
-5.36207e-06
1.14231e-07
-5.3793e-06
9.68823e-08
-5.3921e-06
8.09858e-08
-5.40093e-06
6.63197e-08
-5.40619e-06
5.27023e-08
-5.40824e-06
3.99868e-08
-5.40741e-06
2.80583e-08
-5.40404e-06
1.68389e-08
-5.39845e-06
6.29395e-09
-5.39079e-06
-3.62067e-09
-5.38064e-06
-1.30947e-08
-5.36711e-06
-2.23682e-08
-5.3496e-06
-3.14704e-08
-5.32795e-06
-4.03355e-08
-5.30214e-06
-4.89601e-08
-5.27223e-06
-5.73508e-08
-5.23832e-06
-6.55138e-08
-5.20049e-06
-7.34521e-08
-5.15886e-06
-8.1165e-08
-5.11352e-06
-8.86493e-08
-5.0646e-06
-9.58994e-08
-5.01221e-06
-1.02909e-07
-4.95647e-06
-1.09669e-07
-4.89751e-06
-1.16173e-07
-4.83546e-06
-1.22413e-07
-4.77045e-06
-1.28385e-07
-4.70261e-06
-1.34083e-07
-4.63208e-06
-1.39498e-07
-4.55901e-06
-1.44626e-07
-4.48354e-06
-1.49465e-07
-4.40581e-06
-1.54011e-07
-4.32597e-06
-1.58263e-07
-4.24416e-06
-1.62221e-07
-4.16053e-06
-1.65885e-07
-4.07522e-06
-1.69255e-07
-3.98838e-06
-1.72336e-07
-3.90015e-06
-1.75129e-07
-3.81067e-06
-1.77639e-07
-3.72007e-06
-1.79871e-07
-3.62849e-06
-1.81832e-07
-3.53606e-06
-1.83527e-07
-3.4429e-06
-1.84965e-07
-3.34915e-06
-1.86154e-07
-3.25492e-06
-1.87103e-07
-3.16032e-06
-1.87821e-07
-3.06546e-06
-1.8832e-07
-2.97046e-06
-1.88612e-07
-2.8754e-06
-1.88707e-07
-2.7804e-06
-1.8862e-07
-2.68555e-06
-1.88363e-07
-2.59095e-06
-1.87949e-07
-2.49672e-06
-1.87389e-07
-2.40298e-06
-1.86692e-07
-2.30989e-06
-1.85851e-07
-2.21761e-06
-1.84839e-07
-2.12626e-06
-1.83611e-07
-2.03588e-06
-1.8214e-07
-1.94644e-06
-1.80419e-07
-1.85789e-06
-1.78492e-07
-1.77024e-06
-1.76434e-07
-1.68357e-06
-1.74299e-07
-1.59795e-06
-1.721e-07
-1.51341e-06
-1.6984e-07
-1.42999e-06
-1.67518e-07
-1.34773e-06
-1.65139e-07
-1.26666e-06
-1.62709e-07
-1.18679e-06
-1.60232e-07
-1.10817e-06
-1.57715e-07
-1.0308e-06
-1.5516e-07
-9.54715e-07
-1.52569e-07
-8.79911e-07
-1.49944e-07
-8.06387e-07
-1.47296e-07
-7.34156e-07
-1.4464e-07
-6.63221e-07
-1.41979e-07
-5.93585e-07
-1.39317e-07
-5.25248e-07
-1.36656e-07
-4.58206e-07
-1.34001e-07
-3.92457e-07
-1.31354e-07
-3.27996e-07
-1.2872e-07
-2.64812e-07
-1.26106e-07
-2.02895e-07
-1.23512e-07
-1.42236e-07
-1.20937e-07
-8.28242e-08
-1.18385e-07
-2.46521e-08
-1.1586e-07
3.22938e-08
-1.13372e-07
8.80415e-08
-1.10932e-07
1.42609e-07
-1.08527e-07
1.96005e-07
-1.06152e-07
2.48246e-07
-1.03813e-07
2.99359e-07
-1.01509e-07
3.49374e-07
-9.92419e-08
3.98447e-07
-9.7011e-08
4.46554e-07
-9.48861e-08
4.93477e-07
-9.28514e-08
5.39284e-07
-9.0778e-08
5.84053e-07
-8.86796e-08
6.27816e-07
-8.66087e-08
6.70601e-07
-8.45847e-08
7.12433e-07
-8.26143e-08
7.53335e-07
-8.06989e-08
7.9333e-07
-7.88373e-08
8.32441e-07
-7.70277e-08
8.70693e-07
-7.52687e-08
9.08108e-07
-7.35591e-08
9.4471e-07
-7.1898e-08
9.80521e-07
-7.02848e-08
1.01556e-06
-6.87191e-08
1.04986e-06
-6.72006e-08
1.08344e-06
-6.57292e-08
1.11632e-06
-6.43048e-08
1.14852e-06
-6.29272e-08
1.18007e-06
-6.15965e-08
1.21098e-06
-6.03127e-08
1.24129e-06
-5.90758e-08
1.27102e-06
-5.78857e-08
1.30018e-06
-5.67424e-08
1.3288e-06
-5.56456e-08
1.3569e-06
-5.45949e-08
1.38451e-06
-5.35898e-08
1.41165e-06
-5.26287e-08
1.43832e-06
-5.17103e-08
1.46457e-06
-5.08316e-08
1.49039e-06
-4.99888e-08
1.51581e-06
-4.91763e-08
1.54084e-06
-4.83863e-08
1.56547e-06
-4.76075e-08
1.58972e-06
-4.68248e-08
1.61355e-06
-4.60167e-08
1.63696e-06
-4.51538e-08
1.65989e-06
-4.41949e-08
1.68228e-06
-4.30825e-08
1.70401e-06
-4.17349e-08
1.72492e-06
-4.00342e-08
1.74477e-06
-3.78036e-08
1.76318e-06
-3.47737e-08
1.77962e-06
-3.04837e-08
1.79318e-06
-2.41814e-08
1.8029e-06
-1.42727e-08
1.80776e-06
2.00011e-09
1.80587e-06
3.14293e-08
8.80402e-08
1.79016e-06
2.4601e-07
-5.23372e-07
3.42324e-07
-5.463e-07
3.58611e-07
-4.17964e-07
3.47566e-07
-2.93823e-07
3.19863e-07
-1.79494e-07
2.75779e-07
-7.29843e-08
2.14601e-07
2.64676e-08
1.35279e-07
1.19072e-07
3.67518e-08
2.04409e-07
-8.31441e-08
2.8178e-07
-2.30113e-07
3.50403e-07
-4.14677e-07
4.11998e-07
-6.50246e-07
4.73315e-07
-9.4374e-07
5.4301e-07
-1.285e-06
6.24643e-07
-1.6521e-06
7.12726e-07
-2.02421e-06
7.96332e-07
-2.38446e-06
8.65999e-07
-2.71897e-06
9.16167e-07
-3.01719e-06
9.44437e-07
-3.27526e-06
9.50324e-07
-3.49415e-06
9.35105e-07
-3.67686e-06
9.02002e-07
-3.82742e-06
8.55399e-07
-3.95056e-06
7.99548e-07
-4.05169e-06
7.38133e-07
-4.13614e-06
6.74453e-07
-4.20831e-06
6.1127e-07
-4.27162e-06
5.50615e-07
-4.3287e-06
4.93741e-07
-4.38142e-06
4.41255e-07
-4.43091e-06
3.93392e-07
-4.4778e-06
3.50066e-07
-4.52238e-06
3.10998e-07
-4.56467e-06
2.75796e-07
-4.60458e-06
2.44022e-07
-4.64194e-06
2.15234e-07
-4.67656e-06
1.89018e-07
-4.70826e-06
1.64997e-07
-4.73687e-06
1.4284e-07
-4.76225e-06
1.22264e-07
-4.7843e-06
1.03031e-07
-4.80292e-06
8.49434e-08
-4.81806e-06
6.78362e-08
-4.82964e-06
5.15694e-08
-4.8376e-06
3.6024e-08
-4.84186e-06
2.10979e-08
-4.84227e-06
6.6974e-09
-4.8386e-06
-7.28416e-09
-4.83074e-06
-2.09611e-08
-4.81871e-06
-3.43931e-08
-4.80262e-06
-4.75677e-08
-4.78249e-06
-6.04626e-08
-4.75838e-06
-7.30695e-08
-4.73035e-06
-8.5382e-08
-4.69847e-06
-9.73941e-08
-4.66282e-06
-1.09099e-07
-4.6235e-06
-1.20488e-07
-4.5806e-06
-1.31551e-07
-4.53422e-06
-1.42277e-07
-4.48448e-06
-1.52653e-07
-4.43148e-06
-1.62666e-07
-4.37535e-06
-1.72303e-07
-4.31621e-06
-1.81553e-07
-4.25419e-06
-1.90408e-07
-4.18941e-06
-1.98858e-07
-4.12202e-06
-2.06893e-07
-4.05214e-06
-2.14504e-07
-3.97992e-06
-2.21687e-07
-3.90549e-06
-2.28437e-07
-3.829e-06
-2.34753e-07
-3.75059e-06
-2.40633e-07
-3.6704e-06
-2.46077e-07
-3.58857e-06
-2.51087e-07
-3.50523e-06
-2.55667e-07
-3.42054e-06
-2.5982e-07
-3.33463e-06
-2.63554e-07
-3.24763e-06
-2.66874e-07
-3.15967e-06
-2.6979e-07
-3.07088e-06
-2.72311e-07
-2.9814e-06
-2.74448e-07
-2.89134e-06
-2.76212e-07
-2.80083e-06
-2.77616e-07
-2.70998e-06
-2.78673e-07
-2.6189e-06
-2.79398e-07
-2.5277e-06
-2.79804e-07
-2.4365e-06
-2.79907e-07
-2.3454e-06
-2.79722e-07
-2.2545e-06
-2.79263e-07
-2.16391e-06
-2.78544e-07
-2.07372e-06
-2.77574e-07
-1.98405e-06
-2.76362e-07
-1.895e-06
-2.74905e-07
-1.80665e-06
-2.73191e-07
-1.71906e-06
-2.71205e-07
-1.63225e-06
-2.68944e-07
-1.54625e-06
-2.66425e-07
-1.46106e-06
-2.63683e-07
-1.37673e-06
-2.60764e-07
-1.29332e-06
-2.57703e-07
-1.2109e-06
-2.54521e-07
-1.12951e-06
-2.51228e-07
-1.0492e-06
-2.47836e-07
-9.69982e-07
-2.44353e-07
-8.91902e-07
-2.40789e-07
-8.14981e-07
-2.37153e-07
-7.39243e-07
-2.33453e-07
-6.64708e-07
-2.29696e-07
-5.91388e-07
-2.25889e-07
-5.1929e-07
-2.22042e-07
-4.48423e-07
-2.18164e-07
-3.78796e-07
-2.14267e-07
-3.10416e-07
-2.10359e-07
-2.43285e-07
-2.06449e-07
-1.77402e-07
-2.0254e-07
-1.12766e-07
-1.98637e-07
-4.93734e-08
-1.94747e-07
1.27828e-08
-1.90877e-07
7.37065e-08
-1.8703e-07
1.33406e-07
-1.83212e-07
1.91894e-07
-1.79425e-07
2.49182e-07
-1.75674e-07
3.05288e-07
-1.71965e-07
3.60221e-07
-1.68305e-07
4.13989e-07
-1.647e-07
4.66606e-07
-1.61144e-07
5.18094e-07
-1.5764e-07
5.6847e-07
-1.54189e-07
6.17759e-07
-1.50797e-07
6.65987e-07
-1.47471e-07
7.132e-07
-1.44223e-07
7.59378e-07
-1.41064e-07
8.04489e-07
-1.37962e-07
8.4858e-07
-1.34869e-07
8.91697e-07
-1.31796e-07
9.33862e-07
-1.28773e-07
9.75094e-07
-1.25816e-07
1.01541e-06
-1.22931e-07
1.05483e-06
-1.2012e-07
1.09338e-06
-1.17384e-07
1.13107e-06
-1.14721e-07
1.16793e-06
-1.1213e-07
1.20399e-06
-1.0961e-07
1.23925e-06
-1.07162e-07
1.27375e-06
-1.04783e-07
1.3075e-06
-1.02473e-07
1.34054e-06
-1.00233e-07
1.37287e-06
-9.80621e-08
1.40453e-06
-9.59601e-08
1.43553e-06
-9.39271e-08
1.46589e-06
-9.1963e-08
1.49565e-06
-9.00679e-08
1.52481e-06
-8.82416e-08
1.55341e-06
-8.64843e-08
1.58146e-06
-8.47956e-08
1.60899e-06
-8.31753e-08
1.63602e-06
-8.16227e-08
1.66257e-06
-8.01367e-08
1.68866e-06
-7.87156e-08
1.7143e-06
-7.73568e-08
1.73953e-06
-7.60564e-08
1.76435e-06
-7.48088e-08
1.78877e-06
-7.36059e-08
1.81282e-06
-7.24366e-08
1.8365e-06
-7.12851e-08
1.85981e-06
-7.01298e-08
1.88273e-06
-6.89408e-08
1.90525e-06
-6.76767e-08
1.92734e-06
-6.62802e-08
1.94893e-06
-6.46711e-08
1.96993e-06
-6.27363e-08
1.99021e-06
-6.03131e-08
2.00956e-06
-5.71607e-08
2.0277e-06
-5.2916e-08
2.04421e-06
-4.69883e-08
2.05846e-06
-3.84379e-08
2.0697e-06
-2.55049e-08
2.07704e-06
-5.34541e-09
2.08094e-06
2.75294e-08
8.55033e-08
2.08348e-06
9.37341e-08
-6.17117e-07
6.23891e-08
-5.14969e-07
1.39045e-08
-3.69472e-07
-4.31879e-08
-2.36724e-07
-1.12686e-07
-1.0999e-07
-1.9806e-07
1.23928e-08
-3.02293e-07
1.30701e-07
-4.27801e-07
2.4458e-07
-5.7716e-07
3.53767e-07
-7.53754e-07
4.58374e-07
-9.62341e-07
5.58987e-07
-1.20724e-06
6.56895e-07
-1.48723e-06
7.53304e-07
-1.79152e-06
8.47297e-07
-2.10141e-06
9.34524e-07
-2.39727e-06
1.00857e-06
-2.6646e-06
1.06366e-06
-2.89515e-06
1.09653e-06
-3.08565e-06
1.10665e-06
-3.23691e-06
1.09569e-06
-3.35328e-06
1.0667e-06
-3.44132e-06
1.02315e-06
-3.50814e-06
9.68823e-07
-3.56025e-06
9.07519e-07
-3.60315e-06
8.4245e-07
-3.64127e-06
7.76249e-07
-3.67784e-06
7.11028e-07
-3.71491e-06
6.48337e-07
-3.75347e-06
5.89177e-07
-3.7938e-06
5.3407e-07
-3.83571e-06
4.83168e-07
-3.87871e-06
4.36394e-07
-3.92216e-06
3.93514e-07
-3.96537e-06
3.54207e-07
-4.00769e-06
3.18112e-07
-4.04852e-06
2.84858e-07
-4.08738e-06
2.54087e-07
-4.12383e-06
2.25468e-07
-4.15753e-06
1.98703e-07
-4.18822e-06
1.73526e-07
-4.21566e-06
1.49707e-07
-4.23968e-06
1.27052e-07
-4.26013e-06
1.05393e-07
-4.27689e-06
8.45885e-08
-4.28984e-06
6.45196e-08
-4.2989e-06
4.50843e-08
-4.304e-06
2.61964e-08
-4.30508e-06
7.77924e-09
-4.30212e-06
-1.0241e-08
-4.29516e-06
-2.79255e-08
-4.28425e-06
-4.53021e-08
-4.26945e-06
-6.23677e-08
-4.2508e-06
-7.91096e-08
-4.22836e-06
-9.55151e-08
-4.20217e-06
-1.11571e-07
-4.1723e-06
-1.27262e-07
-4.13883e-06
-1.42574e-07
-4.10183e-06
-1.57489e-07
-4.06139e-06
-1.7199e-07
-4.01761e-06
-1.86058e-07
-3.97058e-06
-1.99677e-07
-3.92042e-06
-2.12826e-07
-3.86724e-06
-2.25486e-07
-3.81115e-06
-2.37642e-07
-3.75228e-06
-2.49283e-07
-3.69074e-06
-2.60394e-07
-3.62667e-06
-2.70961e-07
-3.5602e-06
-2.80975e-07
-3.49146e-06
-2.90428e-07
-3.42058e-06
-2.99314e-07
-3.34771e-06
-3.0763e-07
-3.27297e-06
-3.15373e-07
-3.1965e-06
-3.22543e-07
-3.11844e-06
-3.29144e-07
-3.03893e-06
-3.35178e-07
-2.9581e-06
-3.40652e-07
-2.87608e-06
-3.45572e-07
-2.79301e-06
-3.49949e-07
-2.70901e-06
-3.53792e-07
-2.6242e-06
-3.57115e-07
-2.53872e-06
-3.59929e-07
-2.45268e-06
-3.62251e-07
-2.36621e-06
-3.64094e-07
-2.2794e-06
-3.65477e-07
-2.19239e-06
-3.66416e-07
-2.10526e-06
-3.66928e-07
-2.01814e-06
-3.67033e-07
-1.93111e-06
-3.66747e-07
-1.84429e-06
-3.66088e-07
-1.75776e-06
-3.65071e-07
-1.67162e-06
-3.63711e-07
-1.58596e-06
-3.62018e-07
-1.50087e-06
-3.6e-07
-1.4164e-06
-3.57657e-07
-1.33261e-06
-3.54993e-07
-1.24954e-06
-3.52016e-07
-1.16722e-06
-3.48747e-07
-1.08569e-06
-3.45218e-07
-1.00499e-06
-3.41462e-07
-9.2518e-07
-3.37511e-07
-8.46313e-07
-3.33388e-07
-7.68431e-07
-3.29111e-07
-6.91572e-07
-3.24696e-07
-6.15768e-07
-3.20157e-07
-5.4105e-07
-3.15508e-07
-4.67441e-07
-3.10762e-07
-3.94965e-07
-3.05929e-07
-3.23639e-07
-3.01022e-07
-2.53477e-07
-2.96052e-07
-1.84489e-07
-2.91031e-07
-1.16683e-07
-2.8597e-07
-5.00691e-08
-2.80881e-07
1.53479e-08
-2.75777e-07
7.95634e-08
-2.70664e-07
1.42576e-07
-2.65553e-07