/*--------------------------------*- C++ -*----------------------------------*\
| =========                 |                                                 |
| \\      /  F ield         | OpenFOAM: The Open Source CFD Toolbox           |
|  \\    /   O peration     | Version:  v2012                                 |
|   \\  /    A nd           | Website:  www.openfoam.com                      |
|    \\/     M anipulation  |                                                 |
\*---------------------------------------------------------------------------*/
FoamFile
{
    version     2.0;
    format      ascii;
    class       volScalarField;
    location    "1000";
    object      nuTilda;
}
// * * * * * * * * * * * * * * * * * * * * * * * * * * * * * * * * * * * * * //

dimensions      [0 2 -1 0 0 0 0];


internalField   nonuniform List<scalar> 
12225
(
0.0122671
0.00158833
0.000666932
0.0004122
0.000298016
0.000234158
0.000195366
0.000157556
0.000177081
0.000222693
0.000230387
0.000221272
0.000203463
0.000178139
0.000172629
0.000158588
0.000147176
0.000136891
0.0323823
0.00744532
0.00330641
0.00204337
0.00146819
0.00114457
0.000939066
0.000785446
0.000691128
0.000627797
0.000570643
0.000520034
0.000476782
0.000437429
0.000407122
0.00037478
0.000350014
0.000324458
0.0490123
0.01515
0.00728196
0.00457856
0.00330642
0.00258052
0.00211335
0.00178198
0.00154689
0.00137269
0.0012317
0.00111557
0.00101869
0.000936509
0.000867166
0.000804843
0.00075419
0.000701721
0.063054
0.0237783
0.0122894
0.00788815
0.00573398
0.00448498
0.00367443
0.00310422
0.0026872
0.00237002
0.00211798
0.00191324
0.00174412
0.00160235
0.00148258
0.00137879
0.00129128
0.00120476
0.074932
0.0328517
0.0181452
0.0119262
0.00874549
0.00686413
0.00563087
0.00476131
0.0041187
0.00362573
0.00323518
0.00291878
0.00265804
0.0024401
0.00225603
0.0020984
0.00196343
0.0018399
0.0849536
0.0420208
0.0246655
0.0166359
0.0123325
0.00972588
0.00799541
0.00676741
0.00585404
0.00515005
0.00459191
0.00413984
0.00376744
0.00345637
0.00319355
0.0029691
0.00277617
0.00260661
0.0933822
0.0510219
0.0316642
0.0219415
0.016474
0.0130717
0.0107779
0.00913539
0.00790598
0.00695436
0.00619833
0.00558533
0.0050801
0.00465803
0.00430138
0.00399704
0.00373536
0.00350916
0.0993794
0.0583363
0.0378386
0.0268568
0.0204171
0.0163053
0.0134892
0.011453
0.00991905
0.00872671
0.00777697
0.0070057
0.00636944
0.00583763
0.00538817
0.00500469
0.00467517
0.00439184
0.104023
0.0645454
0.0433804
0.0314239
0.0241571
0.0194092
0.0161097
0.0137018
0.0118767
0.0104523
0.00931473
0.0083894
0.00762525
0.00698616
0.00644587
0.00598492
0.005589
0.00524917
0.108368
0.0708939
0.0493757
0.0365496
0.0284517
0.0230231
0.0191863
0.0163548
0.0141927
0.0124969
0.0111382
0.0100306
0.00911457
0.00834785
0.00769937
0.00714608
0.00667098
0.00626329
0.112368
0.0772557
0.0557282
0.0421918
0.0332976
0.0271652
0.0227468
0.0194433
0.0168984
0.0148904
0.013275
0.0119546
0.0108607
0.00994396
0.00916816
0.00850608
0.0079376
0.0074494
0.115994
0.0834975
0.0623054
0.0482612
0.0386474
0.0318167
0.026789
0.0229739
0.0200047
0.0176453
0.0157379
0.0141737
0.012875
0.0117851
0.010862
0.0100738
0.0093969
0.00881485
0.119234
0.0894856
0.0689377
0.0546109
0.0443919
0.0369007
0.0312597
0.0269089
0.0234837
0.02074
0.0185097
0.0166735
0.015145
0.0138601
0.0127705
0.0118397
0.0110399
0.010351
0.122086
0.095084
0.075415
0.0610223
0.0503361
0.0422535
0.0360231
0.0311353
0.0272402
0.0240931
0.0215191
0.0193909
0.0176141
0.0161175
0.0148467
0.0137601
0.0128258
0.0120198
0.124546
0.100135
0.0814619
0.0671726
0.056158
0.047577
0.0408126
0.0354174
0.031066
0.0275197
0.0246013
0.0221778
0.0201482
0.018435
0.0169783
0.0157315
0.0146584
0.0137312
0.126578
0.104396
0.0866605
0.0725515
0.0613228
0.0523526
0.0451453
0.0393148
0.0345631
0.0306611
0.0274325
0.024741
0.0224806
0.020569
0.0189413
0.0175468
0.0163455
0.0153062
0.128011
0.107322
0.0902141
0.0762353
0.0648743
0.0556509
0.0481493
0.0420254
0.0370012
0.0328553
0.0294126
0.0265352
0.0241143
0.0220643
0.0203171
0.0188191
0.0175275
0.0164083
0.128006
0.107313
0.0902048
0.0762269
0.0648674
0.0556454
0.048145
0.0420221
0.0369988
0.0328537
0.0294117
0.0265349
0.0241147
0.0220651
0.0203184
0.0188205
0.0175286
0.0164082
0.126509
0.104255
0.0864922
0.0723807
0.0611613
0.052205
0.0450128
0.0391967
0.0344584
0.0305685
0.0273506
0.0246684
0.0224163
0.0205118
0.0188902
0.0175006
0.0163023
0.015263
0.124267
0.0995604
0.0807712
0.0664676
0.0554886
0.0469631
0.0402594
0.0349227
0.0306248
0.0271258
0.0242487
0.0218611
0.0198625
0.0181762
0.0167425
0.0155151
0.0144574
0.0135404
0.12136
0.0936399
0.0737261
0.0593348
0.0487592
0.0408248
0.0347467
0.0300003
0.0262308
0.0231928
0.0207127
0.018665
0.0169572
0.0155197
0.0142998
0.0132566
0.0123582
0.0115797
0.117686
0.0865903
0.0656967
0.0514791
0.0415374
0.0343608
0.0290183
0.0249322
0.0217348
0.0191848
0.0171184
0.0154211
0.0140105
0.0128262
0.0118228
0.0109656
0.0102279
0.00958884
0.11305
0.0784122
0.056921
0.0432687
0.0342296
0.0279652
0.0234365
0.0200435
0.0174263
0.0153598
0.0136966
0.012337
0.0112107
0.0102671
0.00946864
0.00878715
0.00820096
0.00769339
0.107169
0.0691009
0.0476371
0.035029
0.0271566
0.021922
0.0182437
0.0155401
0.0134818
0.0118708
0.0105819
0.00953231
0.00866515
0.00793988
0.00732684
0.00680388
0.00635418
0.00596495
0.0996761
0.0587036
0.0381279
0.0270699
0.0205782
0.0164329
0.0135949
0.0115437
0.00999935
0.00879953
0.00784422
0.00706853
0.00642881
0.0058944
0.00544292
0.00505789
0.00472684
0.00444039
0.0901097
0.0473665
0.0287363
0.0196847
0.0146976
0.0116311
0.0095785
0.0081152
0.00702351
0.00618081
0.00551235
0.00497026
0.00452345
0.00415043
0.00383511
0.00356624
0.00333507
0.00313498
0.0779076
0.0353826
0.0198606
0.0131383
0.00966106
0.00759296
0.0062335
0.00527411
0.00456426
0.00402039
0.00359044
0.00324086
0.0029521
0.00271107
0.00250637
0.00233204
0.00218212
0.00205187
0.06238
0.0232554
0.0119461
0.00765493
0.00556338
0.00435255
0.00356722
0.00301619
0.00261336
0.00231041
0.00207211
0.00187484
0.00171024
0.00157303
0.00145386
0.0013531
0.00126618
0.00118906
0.0426105
0.0117794
0.00546931
0.00341388
0.00246076
0.00192014
0.0015728
0.00132962
0.00115856
0.00104155
0.000949961
0.000865479
0.000792628
0.00073088
0.000672419
0.00062267
0.000579966
0.000541007
0.0168348
0.0025599
0.00110031
0.000684193
0.00049518
0.000389159
0.000321435
0.000273104
0.00027224
0.000339115
0.000377255
0.000356509
0.00032481
0.000290435
0.000265276
0.000238634
0.000217278
0.000198541
3.70921e-06
1.38329e-05
2.56093e-05
3.82437e-05
4.60375e-05
4.98341e-05
5.0219e-05
4.77938e-05
4.45851e-05
3.94363e-05
3.40908e-05
2.93626e-05
2.67532e-05
2.73215e-05
2.96401e-05
3.13306e-05
3.11019e-05
2.8075e-05
2.28071e-05
1.91813e-05
1.96929e-05
2.60175e-05
3.89479e-05
6.51426e-05
8.76107e-05
0.000101031
0.000113664
0.000124632
0.00013456
0.000143028
0.000150584
0.000157175
0.000163012
0.000168146
0.000172661
0.000176673
0.000180248
0.000183457
0.000186345
0.000188949
0.000191292
0.000193393
0.000195266
0.000196924
0.000198381
0.000199645
0.000200727
0.000201631
0.000202356
0.000202897
0.00020314
0.000203372
0.000203417
0.000203298
0.00020302
0.000202605
0.000202048
0.000201355
0.000200525
0.000199563
0.00019847
0.000197248
0.0001959
0.000194429
0.000192839
0.000191131
0.000189307
0.00018737
0.000185324
0.000183172
0.000180916
0.00017856
0.000176107
0.000173559
0.000170919
0.00016819
0.000165374
0.000162475
0.000159492
0.000156429
0.000153286
0.000150061
0.000146751
0.000143354
0.000139861
0.000136268
0.000132567
0.00012875
0.000124809
0.000120732
0.000116505
0.000112114
0.000107559
0.000102896
9.83333e-05
9.43649e-05
9.15636e-05
8.98201e-05
8.85094e-05
8.73053e-05
8.61221e-05
8.49433e-05
8.37674e-05
8.25949e-05
8.14269e-05
8.02643e-05
7.91084e-05
7.79635e-05
7.6851e-05
7.58995e-05
7.49653e-05
7.40374e-05
7.31176e-05
7.2206e-05
7.1303e-05
7.0409e-05
6.95244e-05
6.86495e-05
6.77845e-05
6.69297e-05
6.60852e-05
6.52512e-05
6.44282e-05
6.36164e-05
6.2816e-05
6.20267e-05
6.12497e-05
6.05126e-05
5.98355e-05
5.9167e-05
5.85036e-05
5.78538e-05
5.72222e-05
5.65952e-05
5.59732e-05
5.53593e-05
5.47546e-05
5.41594e-05
5.3574e-05
5.29982e-05
5.2432e-05
5.18751e-05
5.13274e-05
5.07887e-05
5.0259e-05
4.97381e-05
4.92258e-05
4.87221e-05
4.82269e-05
4.77401e-05
4.72617e-05
4.67917e-05
4.633e-05
4.58766e-05
4.54314e-05
4.49946e-05
4.45661e-05
4.4146e-05
4.37345e-05
4.33318e-05
4.29379e-05
4.25532e-05
4.21778e-05
4.18121e-05
4.14562e-05
4.11102e-05
4.07741e-05
4.04478e-05
4.01306e-05
3.98218e-05
3.952e-05
3.92236e-05
3.89286e-05
3.8635e-05
3.83238e-05
3.80265e-05
3.75972e-05
3.72906e-05
3.6359e-05
3.48405e-05
5.88192e-06
3.99432e-05
9.09011e-05
0.000151923
0.000191205
0.000213574
0.000222529
0.000221116
0.000213153
0.000197498
0.000178401
0.000160502
0.000151701
0.000156438
0.000168614
0.000176136
0.000178034
0.00017882
0.000183784
0.000192711
0.000207736
0.000224921
0.000241163
0.000256466
0.000267367
0.000276831
0.000285411
0.000298232
0.000316683
0.000330307
0.000342753
0.00035346
0.000363213
0.000372142
0.000379914
0.000387017
0.000393638
0.000399997
0.000406222
0.000412374
0.00041845
0.000424405
0.000430188
0.000435758
0.000441087
0.000446158
0.000450956
0.000455468
0.000459696
0.000463645
0.000467324
0.000470755
0.000473926
0.000476847
0.00047952
0.000481945
0.000484123
0.000486055
0.000487742
0.000489183
0.000490379
0.000491332
0.000492042
0.000492516
0.000492762
0.000492786
0.000492582
0.000492147
0.000491498
0.000490636
0.00048957
0.000488305
0.000486848
0.000485206
0.000483386
0.000481395
0.000479241
0.000476932
0.000474476
0.000471879
0.00046915
0.000466296
0.000463325
0.000460243
0.000457059
0.00045378
0.000450415
0.000446971
0.000443458
0.000439884
0.000436257
0.000432582
0.000428859
0.000425081
0.000421227
0.000417273
0.000413202
0.000409043
0.000404845
0.000400634
0.000396416
0.000392195
0.000387975
0.000383759
0.000379551
0.000375354
0.000371171
0.000367004
0.000362853
0.000358716
0.000354604
0.000350522
0.00034647
0.000342451
0.000338467
0.00033452
0.00033061
0.00032674
0.00032291
0.000319123
0.000315378
0.000311676
0.00030802
0.00030441
0.000300846
0.000297329
0.000293858
0.000290432
0.00028705
0.000283715
0.000280425
0.000277188
0.000274006
0.000270862
0.000267756
0.000264694
0.000261678
0.000258709
0.000255787
0.000252911
0.000250082
0.000247298
0.00024456
0.000241866
0.000239215
0.000236607
0.000234042
0.000231518
0.000229036
0.000226596
0.000224196
0.000221837
0.000219518
0.00021724
0.000215002
0.000212804
0.000210647
0.000208532
0.000206458
0.000204426
0.000202439
0.000200497
0.000198601
0.000196754
0.000194956
0.000193209
0.000191514
0.000189871
0.000188279
0.000186737
0.00018524
0.000183787
0.000182361
0.000180988
0.000179548
0.000178335
0.000176495
0.000175961
0.00017321
0.000171896
1.28755e-05
7.44309e-05
0.000173976
0.000251169
0.000302741
0.00033229
0.000342984
0.000340021
0.000327267
0.000308335
0.000289135
0.0002771
0.000275209
0.000281967
0.000292209
0.000302966
0.000315729
0.00033255
0.000353833
0.000378836
0.000405948
0.000433896
0.000472881
0.000518789
0.000564182
0.000608102
0.000651036
0.000694579
0.000733565
0.000764585
0.000789382
0.000809048
0.000824644
0.000837024
0.000846966
0.000855242
0.000862546
0.00086952
0.000876694
0.000884422
0.000892805
0.000901719
0.000910926
0.00092019
0.000929334
0.00093824
0.000946832
0.000955062
0.000962894
0.0009703
0.000977254
0.000983735
0.000989731
0.00099524
0.00100026
0.00100479
0.00100882
0.00101237
0.00101542
0.00101798
0.00102004
0.00102162
0.0010227
0.00102324
0.0010234
0.00102311
0.00102232
0.00102107
0.00101939
0.00101727
0.00101473
0.00101179
0.00100845
0.00100474
0.00100066
0.00099623
0.000991466
0.000986381
0.000980991
0.000975311
0.000969356
0.000963141
0.00095668
0.00094999
0.000943084
0.000935978
0.000928685
0.000921221
0.0009136
0.000905834
0.000897937
0.000889919
0.00088179
0.000873559
0.000865232
0.00085682
0.000848335
0.000839793
0.000831211
0.000822601
0.000813975
0.000805341
0.000796707
0.000788082
0.000779471
0.000770882
0.000762322
0.000753796
0.000745311
0.000736871
0.000728482
0.00072015
0.000711879
0.000703674
0.000695537
0.000687473
0.000679484
0.000671573
0.000663743
0.000655997
0.000648335
0.000640761
0.000633275
0.000625881
0.000618579
0.000611369
0.000604252
0.000597228
0.000590298
0.000583464
0.000576724
0.00057008
0.000563529
0.000557066
0.000550691
0.000544405
0.00053821
0.000532108
0.000526098
0.000520179
0.000514352
0.000508614
0.000502966
0.000497404
0.00049193
0.00048654
0.000481235
0.000476012
0.000470871
0.000465811
0.000460831
0.000455929
0.000451105
0.000446358
0.000441685
0.000437087
0.000432563
0.00042811
0.000423727
0.000419414
0.000415169
0.00041099
0.000406876
0.000402823
0.000398831
0.000394895
0.000391011
0.000387175
0.000383379
0.000379616
0.000375873
0.000372137
0.000368381
0.000364595
0.000360683
0.000356738
0.000352275
0.000348093
0.000341646
0.000330148
2.18268e-05
0.000106503
0.000220163
0.000312461
0.000374801
0.000411454
0.000426595
0.00042681
0.000416808
0.000403617
0.00039587
0.000395309
0.000404801
0.000422121
0.000444912
0.000472691
0.000506049
0.000545265
0.000589514
0.000653129
0.000727071
0.000806899
0.000890674
0.000960873
0.00102299
0.00107886
0.00112904
0.00117373
0.00121279
0.00124651
0.00127562
0.00130084
0.00132288
0.00134236
0.00135986
0.00137585
0.00139075
0.0014049
0.00141856
0.0014319
0.00144506
0.00145811
0.00147106
0.00148391
0.0014966
0.00150906
0.00152118
0.00153288
0.00154406
0.00155466
0.0015646
0.00157387
0.00158244
0.0015903
0.00159743
0.00160384
0.00160951
0.00161444
0.00161864
0.0016221
0.00162482
0.00162679
0.00162795
0.00162838
0.00162826
0.00162734
0.00162571
0.00162339
0.00162039
0.00161674
0.00161244
0.00160752
0.00160199
0.00159589
0.00158923
0.00158204
0.00157433
0.00156614
0.00155747
0.00154836
0.00153883
0.00152891
0.0015186
0.00150795
0.00149696
0.00148567
0.0014741
0.00146226
0.00145019
0.00143789
0.00142539
0.00141271
0.00139986
0.00138686
0.00137373
0.00136048
0.00134714
0.00133371
0.00132022
0.00130669
0.00129314
0.00127957
0.001266
0.00125244
0.00123891
0.00122542
0.00121196
0.00119857
0.00118523
0.00117197
0.00115879
0.00114569
0.00113269
0.00111979
0.001107
0.00109432
0.00108176
0.00106932
0.001057
0.00104481
0.00103275
0.00102083
0.00100905
0.000997401
0.000985897
0.000974536
0.000963319
0.000952247
0.00094132
0.000930539
0.000919905
0.000909418
0.000899073
0.000888868
0.000878802
0.000868876
0.000859091
0.000849447
0.000839945
0.000830583
0.000821361
0.000812277
0.00080333
0.000794517
0.000785838
0.00077729
0.000768871
0.000760579
0.000752414
0.000744373
0.000736455
0.000728657
0.000720978
0.000713416
0.00070597
0.000698636
0.000691415
0.000684302
0.000677297
0.000670397
0.000663599
0.000656902
0.000650301
0.000643794
0.000637377
0.000631044
0.00062479
0.000618607
0.000612485
0.000606412
0.000600373
0.000594345
0.0005883
0.000582202
0.000575978
0.000569604
0.000562799
0.000555827
0.000547405
0.000531226
2.69608e-05
0.000121964
0.000240946
0.000357445
0.000435171
0.000482042
0.000505336
0.000513695
0.000515321
0.000516541
0.000523758
0.000540254
0.000566611
0.000601855
0.000645235
0.000696797
0.000757352
0.000841138
0.000937119
0.0010328
0.00112151
0.00120564
0.00128468
0.0013571
0.00142362
0.00148482
0.0015411
0.00159278
0.00164023
0.00168387
0.00172419
0.00176167
0.00179674
0.00182976
0.00186105
0.00189086
0.00191937
0.00194673
0.00197304
0.00199835
0.0020227
0.00204609
0.00206853
0.00208998
0.00211044
0.00212986
0.00214823
0.0021655
0.00218165
0.00219667
0.00221053
0.00222326
0.00223485
0.00224532
0.00225468
0.00226296
0.00227018
0.00227634
0.00228147
0.00228557
0.00228866
0.00229071
0.00229162
0.00229171
0.00229083
0.00228895
0.00228612
0.00228234
0.00227765
0.00227207
0.00226562
0.00225833
0.00225023
0.00224135
0.00223172
0.00222136
0.00221032
0.00219861
0.00218628
0.00217335
0.00215985
0.00214582
0.00213128
0.00211627
0.00210082
0.00208495
0.0020687
0.00205211
0.00203519
0.00201797
0.00200049
0.00198276
0.00196482
0.00194668
0.00192837
0.00190992
0.00189134
0.00187266
0.0018539
0.00183509
0.00181625
0.00179739
0.00177853
0.0017597
0.0017409
0.00172215
0.00170347
0.00168486
0.00166634
0.00164792
0.00162961
0.00161143
0.00159337
0.00157546
0.00155769
0.00154007
0.00152262
0.00150533
0.00148822
0.00147128
0.00145452
0.00143795
0.00142156
0.00140537
0.00138937
0.00137356
0.00135795
0.00134254
0.00132733
0.00131232
0.0012975
0.00128289
0.00126847
0.00125425
0.00124022
0.00122638
0.00121273
0.00119928
0.00118602
0.00117295
0.00116006
0.00114737
0.00113487
0.00112254
0.0011104
0.00109844
0.00108665
0.00107503
0.00106359
0.00105231
0.00104121
0.00103026
0.00101948
0.00100885
0.00099838
0.000988063
0.000977897
0.000967878
0.000958004
0.000948271
0.000938677
0.000929218
0.00091989
0.000910688
0.000901608
0.000892642
0.000883785
0.000875026
0.000866354
0.000857754
0.000849208
0.000840689
0.000832166
0.000823593
0.000814902
0.000806032
0.000796778
0.000787177
0.000777024
0.00075728
3.08045e-05
0.000135308
0.000261397
0.000392188
0.000488188
0.000549575
0.00058718
0.000610593
0.000628476
0.000648063
0.000674541
0.0007105
0.000756648
0.000813258
0.00088088
0.000971719
0.00107706
0.00117866
0.00127771
0.00137294
0.0014634
0.00154916
0.00163017
0.00170642
0.00177819
0.00184583
0.00190969
0.0019701
0.00202739
0.00208189
0.00213393
0.00218377
0.00223169
0.00227787
0.00232249
0.00236566
0.00240747
0.00244798
0.00248721
0.00252517
0.00256186
0.00259726
0.00263133
0.00266405
0.00269538
0.00272527
0.00275369
0.00278059
0.00280594
0.00282971
0.00285186
0.00287238
0.00289124
0.00290844
0.00292398
0.00293784
0.00295004
0.00296058
0.00296948
0.00297674
0.0029824
0.00298648
0.0029889
0.0029898
0.00298934
0.00298736
0.00298402
0.00297932
0.00297331
0.00296606
0.00295761
0.00294802
0.00293733
0.0029256
0.00291288
0.00289921
0.00288464
0.00286923
0.002853
0.00283601
0.00281829
0.0027999
0.00278086
0.00276123
0.00274104
0.00272032
0.00269913
0.0026775
0.00265547
0.00263307
0.00261034
0.00258731
0.00256401
0.00254048
0.00251674
0.00249283
0.00246878
0.0024446
0.00242034
0.00239602
0.00237166
0.00234729
0.00232292
0.00229859
0.0022743
0.00225009
0.00222596
0.00220193
0.00217802
0.00215424
0.0021306
0.00210712
0.00208381
0.00206068
0.00203774
0.00201499
0.00199246
0.00197013
0.00194803
0.00192615
0.0019045
0.00188308
0.00186191
0.00184098
0.00182029
0.00179986
0.00177967
0.00175973
0.00174005
0.00172062
0.00170144
0.00168252
0.00166384
0.00164541
0.00162723
0.0016093
0.0015916
0.00157416
0.00155695
0.00153999
0.00152326
0.00150678
0.00149052
0.0014745
0.00145871
0.00144314
0.00142779
0.00141266
0.00139775
0.00138305
0.00136856
0.00135428
0.00134019
0.00132631
0.00131262
0.00129913
0.00128582
0.0012727
0.00125976
0.001247
0.00123441
0.00122199
0.00120974
0.00119765
0.00118571
0.00117392
0.00116227
0.00115074
0.00113933
0.00112802
0.00111679
0.00110561
0.00109444
0.00108325
0.00107195
0.00106049
0.00104867
0.00103652
0.00102425
0.00100182
3.23465e-05
0.000142476
0.000273858
0.000409591
0.000527335
0.000608414
0.000664432
0.000706448
0.000743669
0.000783318
0.000830407
0.000887839
0.00095734
0.00105003
0.00115726
0.00126385
0.00136989
0.00147311
0.00157301
0.00166917
0.00176136
0.0018496
0.00193398
0.00201467
0.0020919
0.00216595
0.00223709
0.0023056
0.00237173
0.00243571
0.00249775
0.00255803
0.0026167
0.00267387
0.00272963
0.00278402
0.0028371
0.00288886
0.0029393
0.00298841
0.00303615
0.00308249
0.00312738
0.00317077
0.00321261
0.00325285
0.00329143
0.00332831
0.00336342
0.00339673
0.00342819
0.00345777
0.00348542
0.00351112
0.00353484
0.00355656
0.00357627
0.00359395
0.0036096
0.00362323
0.00363483
0.00364441
0.00365199
0.00365761
0.00366126
0.00366288
0.00366279
0.0036608
0.00365703
0.00365151
0.00364431
0.00363546
0.00362505
0.00361312
0.00359973
0.00358496
0.00356887
0.00355153
0.003533
0.00351335
0.00349264
0.00347096
0.00344835
0.00342489
0.00340064
0.00337566
0.00335001
0.00332376
0.00329695
0.00326964
0.00324189
0.00321373
0.00318522
0.00315641
0.00312732
0.00309801
0.00306851
0.00303886
0.0030091
0.00297925
0.00294935
0.00291943
0.00288951
0.00285963
0.00282981
0.00280007
0.00277043
0.00274091
0.00271153
0.00268231
0.00265327
0.00262442
0.00259577
0.00256734
0.00253913
0.00251117
0.00248345
0.00245599
0.0024288
0.00240188
0.00237524
0.00234888
0.00232281
0.00229704
0.00227156
0.00224638
0.0022215
0.00219693
0.00217266
0.00214869
0.00212503
0.00210168
0.00207862
0.00205586
0.0020334
0.00201124
0.00198937
0.00196779
0.00194651
0.00192552
0.00190481
0.00188439
0.00186425
0.00184439
0.0018248
0.00180548
0.00178643
0.00176764
0.00174911
0.00173083
0.00171281
0.00169503
0.0016775
0.00166021
0.00164315
0.00162632
0.00160972
0.00159334
0.00157718
0.00156124
0.0015455
0.00152998
0.00151465
0.00149951
0.00148457
0.0014698
0.0014552
0.00144076
0.00142647
0.00141231
0.00139825
0.00138428
0.00137034
0.0013564
0.00134238
0.00132821
0.00131374
0.00129902
0.00128397
0.00125974
3.27875e-05
0.000144067
0.000275141
0.000409106
0.000538809
0.000642025
0.000719154
0.000780644
0.000836631
0.000894813
0.000963193
0.00105575
0.00116586
0.00128734
0.00140282
0.00151399
0.00162171
0.00172614
0.00182724
0.00192495
0.00201928
0.00211032
0.00219822
0.00228317
0.00236539
0.00244509
0.00252252
0.00259787
0.00267134
0.00274309
0.00281327
0.002882
0.00294937
0.00301543
0.00308024
0.00314381
0.00320614
0.00326721
0.003327
0.00338547
0.00344256
0.00349822
0.0035524
0.00360503
0.00365605
0.00370538
0.00375297
0.00379875
0.00384266
0.00388464
0.00392464
0.0039626
0.00399848
0.00403223
0.00406383
0.00409322
0.0041204
0.00414533
0.004168
0.0041884
0.00420653
0.00422238
0.00423596
0.00424729
0.00425638
0.00426325
0.00426797
0.00427043
0.00427086
0.00426922
0.00426555
0.0042599
0.00425234
0.00424291
0.00423168
0.00421871
0.00420406
0.0041878
0.00417001
0.00415074
0.00413008
0.00410808
0.00408484
0.00406041
0.00403487
0.00400829
0.00398074
0.0039523
0.00392303
0.003893
0.00386227
0.00383091
0.00379898
0.00376653
0.00373363
0.00370033
0.00366669
0.00363276
0.00359858
0.0035642
0.00352968
0.00349504
0.00346034
0.0034256
0.00339087
0.00335617
0.00332154
0.00328701
0.00325259
0.00321832
0.00318422
0.00315031
0.00311661
0.00308313
0.0030499
0.00301692
0.00298422
0.00295179
0.00291966
0.00288783
0.00285631
0.00282511
0.00279424
0.00276369
0.00273349
0.00270362
0.00267409
0.00264491
0.00261608
0.00258759
0.00255945
0.00253166
0.00250422
0.00247712
0.00245036
0.00242395
0.00239788
0.00237214
0.00234674
0.00232168
0.00229695
0.00227254
0.00224846
0.0022247
0.00220126
0.00217813
0.00215531
0.0021328
0.00211058
0.00208867
0.00206704
0.0020457
0.00202464
0.00200387
0.00198336
0.00196313
0.00194316
0.00192345
0.001904
0.0018848
0.00186585
0.00184713
0.00182865
0.00181041
0.00179238
0.00177456
0.00175695
0.00173954
0.0017223
0.00170521
0.00168827
0.00167142
0.00165465
0.00163789
0.00162109
0.00160416
0.00158697
0.00156958
0.00155164
0.0015255
3.22247e-05
0.000141103
0.000268668
0.000397584
0.000521179
0.000633034
0.000726758
0.00080812
0.000891951
0.000987801
0.00109755
0.00122262
0.00135906
0.00148645
0.00160663
0.00172154
0.00183213
0.00193878
0.00204179
0.00214153
0.00223821
0.00233205
0.00242323
0.00251197
0.00259847
0.00268294
0.00276556
0.00284651
0.00292595
0.003004
0.00308076
0.00315632
0.00323074
0.00330403
0.00337623
0.00344732
0.00351727
0.00358606
0.00365362
0.00371992
0.00378487
0.00384842
0.00391048
0.00397098
0.00402984
0.00408698
0.00414233
0.00419581
0.00424735
0.00429687
0.00434432
0.00438963
0.00443274
0.00447361
0.00451218
0.00454843
0.0045823
0.00461378
0.00464284
0.00466947
0.00469365
0.00471537
0.00473465
0.00475148
0.00476589
0.00477788
0.00478748
0.00479472
0.00479965
0.00480222
0.00480261
0.00480079
0.00479683
0.00479077
0.00478267
0.00477259
0.00476059
0.00474674
0.0047311
0.00471374
0.00469473
0.00467414
0.00465205
0.00462853
0.00460364
0.00457747
0.00455009
0.00452156
0.00449196
0.00446137
0.00442985
0.00439746
0.00436428
0.00433038
0.00429581
0.00426064
0.00422494
0.00418875
0.00415214
0.00411517
0.00407789
0.00404034
0.00400259
0.00396467
0.00392663
0.00388851
0.00385035
0.00381219
0.00377406
0.003736
0.00369804
0.0036602
0.00362251
0.003585
0.00354769
0.00351059
0.00347374
0.00343715
0.00340083
0.0033648
0.00332907
0.00329365
0.00325856
0.0032238
0.00318938
0.00315532
0.0031216
0.00308825
0.00305526
0.00302264
0.00299038
0.0029585
0.00292699
0.00289585
0.00286508
0.00283469
0.00280466
0.002775
0.00274571
0.00271679
0.00268823
0.00266003
0.00263219
0.0026047
0.00257756
0.00255077
0.00252433
0.00249822
0.00247245
0.00244701
0.0024219
0.00239711
0.00237263
0.00234847
0.00232462
0.00230107
0.00227782
0.00225487
0.0022322
0.00220982
0.00218772
0.0021659
0.00214434
0.00212304
0.002102
0.0020812
0.00206064
0.0020403
0.00202017
0.00200022
0.00198044
0.00196078
0.00194122
0.0019217
0.00190215
0.0018825
0.00186262
0.00184256
0.00182182
0.00179349
3.08505e-05
0.000135009
0.000257903
0.000383069
0.000504922
0.000620953
0.000731687
0.00084101
0.000956302
0.00108259
0.00122101
0.00137102
0.00151319
0.00164505
0.00176919
0.00188751
0.00200112
0.00211065
0.00221649
0.00231886
0.00241814
0.00251473
0.00260892
0.00270097
0.00279111
0.00287953
0.00296643
0.00305196
0.00313626
0.00321942
0.00330154
0.00338268
0.00346286
0.0035421
0.0036204
0.00369772
0.00377402
0.00384926
0.00392337
0.00399627
0.00406788
0.00413813
0.00420691
0.00427414
0.00433973
0.00440359
0.00446563
0.00452576
0.0045839
0.00463997
0.00469389
0.0047456
0.00479503
0.00484212
0.00488683
0.00492909
0.00496887
0.00500615
0.00504088
0.00507305
0.00510264
0.00512965
0.00515407
0.00517591
0.00519517
0.00521188
0.00522605
0.0052377
0.00524688
0.0052536
0.00525792
0.00525986
0.00525952
0.00525691
0.00525209
0.00524513
0.00523608
0.005225
0.00521196
0.00519703
0.00518027
0.00516175
0.00514155
0.00511973
0.00509637
0.00507154
0.00504532
0.00501778
0.00498898
0.00495901
0.00492792
0.0048958
0.00486271
0.00482871
0.00479388
0.00475828
0.00472197
0.00468502
0.00464749
0.00460943
0.00457092
0.00453199
0.00449271
0.00445313
0.00441329
0.00437325
0.00433305
0.00429272
0.00425232
0.00421188
0.00417144
0.00413103
0.00409068
0.00405042
0.00401029
0.00397031
0.00393051
0.0038909
0.00385151
0.00381236
0.00377346
0.00373484
0.0036965
0.00365847
0.00362075
0.00358336
0.0035463
0.00350958
0.00347322
0.00343721
0.00340156
0.00336628
0.00333137
0.00329684
0.00326267
0.00322889
0.00319548
0.00316245
0.0031298
0.00309752
0.00306563
0.0030341
0.00300296
0.00297218
0.00294177
0.00291173
0.00288205
0.00285273
0.00282377
0.00279516
0.0027669
0.00273898
0.00271141
0.00268417
0.00265727
0.00263069
0.00260444
0.00257851
0.0025529
0.00252759
0.00250259
0.00247789
0.00245349
0.00242938
0.00240554
0.00238198
0.00235868
0.00233562
0.0023128
0.00229018
0.00226776
0.00224548
0.00222332
0.00220121
0.0021791
0.00215691
0.00213451
0.00211194
0.00208864
0.00205798
2.93019e-05
0.00012871
0.000248084
0.000372261
0.000496876
0.000620861
0.000745764
0.000875337
0.00101298
0.00116061
0.00131839
0.00147997
0.00162758
0.00176388
0.00189186
0.0020135
0.00213009
0.00224243
0.00235105
0.00245636
0.00255864
0.0026581
0.00275517
0.0028502
0.0029435
0.00303528
0.00312576
0.00321508
0.00330339
0.00339078
0.00347733
0.00356308
0.00364806
0.00373226
0.00381565
0.00389821
0.00397988
0.00406058
0.00414024
0.00421877
0.00429608
0.00437207
0.00444663
0.00451966
0.00459107
0.00466074
0.00472858
0.00479449
0.00485838
0.00492016
0.00497975
0.00503706
0.00509203
0.00514459
0.00519469
0.00524227
0.00528728
0.00532969
0.00536947
0.00540658
0.00544102
0.00547277
0.00550182
0.00552818
0.00555185
0.00557286
0.00559121
0.00560693
0.00562005
0.00563061
0.00563864
0.00564419
0.0056473
0.00564802
0.00564642
0.00564254
0.00563645
0.00562821
0.00561787
0.00560551
0.00559119
0.00557497
0.00555694
0.00553716
0.00551571
0.00549265
0.00546806
0.00544201
0.00541458
0.00538583
0.00535584
0.00532467
0.00529239
0.00525908
0.00522479
0.0051896
0.00515357
0.00511677
0.00507925
0.00504109
0.00500233
0.00496304
0.00492327
0.00488308
0.00484252
0.00480163
0.00476048
0.00471909
0.00467752
0.00463581
0.00459399
0.00455211
0.00451021
0.00446831
0.00442645
0.00438465
0.00434296
0.00430139
0.00425997
0.00421873
0.00417768
0.00413684
0.00409624
0.00405589
0.00401581
0.00397601
0.00393651
0.00389731
0.00385843
0.00381988
0.00378166
0.00374378
0.00370625
0.00366908
0.00363227
0.00359581
0.00355973
0.00352401
0.00348866
0.00345368
0.00341908
0.00338484
0.00335098
0.0033175
0.00328438
0.00325163
0.00321925
0.00318724
0.00315559
0.0031243
0.00309337
0.0030628
0.00303257
0.0030027
0.00297317
0.00294398
0.00291513
0.00288662
0.00285843
0.00283058
0.00280304
0.00277583
0.00274893
0.00272233
0.00269603
0.00267002
0.0026443
0.00261884
0.00259363
0.00256865
0.00254387
0.00251927
0.00249479
0.00247039
0.00244601
0.00242156
0.00239694
0.00237214
0.00234664
0.00231382
2.76137e-05
0.000122121
0.000238097
0.000361639
0.000489123
0.000619944
0.000756357
0.000900144
0.00105292
0.00121517
0.00138739
0.00155314
0.00170473
0.00184489
0.00197637
0.00210114
0.00222053
0.00233548
0.00244665
0.00255454
0.00265952
0.0027619
0.00286195
0.00295987
0.00305607
0.00315084
0.00324443
0.00333703
0.00342876
0.00351975
0.00361005
0.00369972
0.00378877
0.00387719
0.00396494
0.00405197
0.00413823
0.00422362
0.00430805
0.00439143
0.00447365
0.0045546
0.00463417
0.00471224
0.00478869
0.00486342
0.00493632
0.00500727
0.00507619
0.00514297
0.00520752
0.00526976
0.0053296
0.00538699
0.00544186
0.00549414
0.0055438
0.00559078
0.00563505
0.0056766
0.00571538
0.0057514
0.00578464
0.0058151
0.00584279
0.00586773
0.00588993
0.00590941
0.0059262
0.00594034
0.00595185
0.00596079
0.0059672
0.00597113
0.00597262
0.00597175
0.00596859
0.00596316
0.00595554
0.00594579
0.00593398
0.00592018
0.00590446
0.00588689
0.00586754
0.00584648
0.00582379
0.00579954
0.00577379
0.00574662
0.0057181
0.0056883
0.00565729
0.00562513
0.0055919
0.00555765
0.00552246
0.00548639
0.0054495
0.00541186
0.00537352
0.00533455
0.00529499
0.00525492
0.00521437
0.0051734
0.00513205
0.00509039
0.00504844
0.00500627
0.0049639
0.00492138
0.00487874
0.00483603
0.00479328
0.00475052
0.00470778