/*--------------------------------*- C++ -*----------------------------------*\
  =========                 |
  \\      /  F ield         | OpenFOAM: The Open Source CFD Toolbox
   \\    /   O peration     | Website:  https://openfoam.org
    \\  /    A nd           | Version:  8
     \\/     M anipulation  |
\*---------------------------------------------------------------------------*/
FoamFile
{
    version     2.0;
    format      ascii;
    class       volScalarField;
    location    "1000";
    object      nuTilda;
}
// * * * * * * * * * * * * * * * * * * * * * * * * * * * * * * * * * * * * * //

dimensions      [0 2 -1 0 0 0 0];

internalField   nonuniform List<scalar> 
12225
(
0.0122671
0.00158833
0.000666932
0.000412201
0.000298001
0.000234418
0.000192049
0.000186517
0.000141364
0.000110263
9.73199e-05
9.07189e-05
8.20027e-05
7.63417e-05
7.17067e-05
7.0172e-05
6.81327e-05
7.40045e-05
0.0323823
0.00744533
0.00330642
0.00204338
0.00146818
0.00114477
0.000936743
0.000800566
0.000680243
0.000578059
0.000507246
0.00045356
0.000411866
0.000380371
0.00035202
0.000329993
0.000313754
0.000295881
0.0490123
0.01515
0.00728196
0.00457856
0.00330642
0.00258059
0.00211241
0.00178924
0.00154196
0.00134781
0.00119795
0.00107898
0.000982389
0.000902873
0.000836437
0.000781446
0.000736159
0.000687885
0.063054
0.0237783
0.0122894
0.00788815
0.00573398
0.004485
0.00367415
0.00310736
0.00268476
0.00235811
0.00210119
0.00189468
0.00172542
0.00158464
0.0014663
0.00136623
0.00128167
0.00119814
0.074932
0.0328517
0.0181452
0.0119262
0.00874549
0.00686413
0.00563081
0.00476256
0.0041175
0.00362032
0.00322735
0.00290996
0.00264904
0.00243149
0.00224806
0.00209196
0.00195835
0.00183637
0.0849536
0.0420208
0.0246655
0.0166359
0.0123325
0.00972587
0.0079954
0.00676785
0.00585346
0.00514771
0.00458846
0.00413589
0.00376337
0.00345242
0.00318986
0.002966
0.00277365
0.00260477
0.0933822
0.0510219
0.0316642
0.0219415
0.016474
0.0130717
0.0107779
0.00913552
0.00790571
0.00695341
0.00619691
0.00558368
0.00507838
0.00465634
0.00429978
0.00399563
0.00373417
0.00350821
0.0993794
0.0583363
0.0378386
0.0268568
0.0204171
0.0163053
0.0134892
0.011453
0.00991891
0.00872629
0.00777635
0.00700498
0.00636867
0.00583686
0.00538741
0.00500399
0.00467453
0.00439128
0.104023
0.0645454
0.0433804
0.0314239
0.0241571
0.0194092
0.0161097
0.0137018
0.0118766
0.0104521
0.00931443
0.00838904
0.00762486
0.00698575
0.00644545
0.0059845
0.00558859
0.00524878
0.108368
0.0708939
0.0493756
0.0365496
0.0284517
0.0230231
0.0191863
0.0163547
0.0141926
0.0124968
0.011138
0.0100304
0.00911434
0.0083476
0.0076991
0.00714579
0.00667069
0.00626298
0.112368
0.0772557
0.0557282
0.0421918
0.0332976
0.0271652
0.0227467
0.0194432
0.0168984
0.0148903
0.0132749
0.0119544
0.0108605
0.00994379
0.00916797
0.00850586
0.00793736
0.00744915
0.115994
0.0834975
0.0623053
0.0482611
0.0386474
0.0318167
0.026789
0.0229739
0.0200046
0.0176452
0.0157378
0.0141736
0.0128749
0.011785
0.0108618
0.0100736
0.00939671
0.00881464
0.119234
0.0894856
0.0689377
0.0546109
0.0443919
0.0369007
0.0312597
0.0269088
0.0234836
0.02074
0.0185096
0.0166735
0.0151449
0.01386
0.0127704
0.0118396
0.0110397
0.0103508
0.122086
0.095084
0.075415
0.0610223
0.0503361
0.0422534
0.0360231
0.0311353
0.0272402
0.024093
0.021519
0.0193909
0.017614
0.0161174
0.0148466
0.01376
0.0128257
0.0120196
0.124546
0.100135
0.0814619
0.0671725
0.056158
0.047577
0.0408126
0.0354174
0.031066
0.0275196
0.0246012
0.0221777
0.0201481
0.0184349
0.0169782
0.0157314
0.0146583
0.0137311
0.126578
0.104396
0.0866605
0.0725515
0.0613228
0.0523526
0.0451453
0.0393148
0.0345631
0.0306611
0.0274325
0.0247409
0.0224806
0.020569
0.0189413
0.0175468
0.0163454
0.0153061
0.128011
0.107322
0.0902141
0.0762353
0.0648743
0.0556509
0.0481493
0.0420254
0.0370012
0.0328553
0.0294126
0.0265352
0.0241143
0.0220643
0.0203172
0.0188191
0.0175275
0.0164083
0.128006
0.107313
0.0902048
0.0762269
0.0648674
0.0556454
0.048145
0.0420222
0.0369988
0.0328537
0.0294117
0.0265349
0.0241147
0.0220652
0.0203185
0.0188206
0.0175287
0.0164083
0.126509
0.104255
0.0864922
0.0723807
0.0611613
0.052205
0.0450128
0.0391967
0.0344584
0.0305686
0.0273506
0.0246684
0.0224163
0.0205118
0.0188903
0.0175006
0.0163024
0.0152631
0.124267
0.0995604
0.0807712
0.0664676
0.0554886
0.0469631
0.0402594
0.0349228
0.0306248
0.0271258
0.0242488
0.0218611
0.0198626
0.0181762
0.0167426
0.0155152
0.0144575
0.0135405
0.12136
0.0936399
0.0737261
0.0593348
0.0487592
0.0408249
0.0347467
0.0300003
0.0262308
0.0231928
0.0207127
0.018665
0.0169572
0.0155198
0.0142999
0.0132567
0.0123583
0.0115798
0.117686
0.0865903
0.0656967
0.0514791
0.0415374
0.0343608
0.0290184
0.0249322
0.0217348
0.0191848
0.0171184
0.0154211
0.0140106
0.0128263
0.0118229
0.0109657
0.010228
0.00958895
0.11305
0.0784122
0.056921
0.0432687
0.0342296
0.0279652
0.0234365
0.0200435
0.0174263
0.0153597
0.0136966
0.0123369
0.0112106
0.0102671
0.00946867
0.0087872
0.00820103
0.00769347
0.107169
0.0691009
0.0476372
0.035029
0.0271566
0.021922
0.0182437
0.0155401
0.0134817
0.0118706
0.0105816
0.00953197
0.00866487
0.00793966
0.00732671
0.00680379
0.00635416
0.00596496
0.0996761
0.0587036
0.0381279
0.0270699
0.0205782
0.016433
0.0135949
0.0115438
0.00999923
0.00879908
0.00784341
0.00706756
0.00642791
0.00589358
0.00544232
0.00505735
0.0047265
0.00444013
0.0901097
0.0473665
0.0287363
0.0196847
0.0146976
0.0116312
0.00957853
0.00811528
0.00702332
0.00617995
0.00551058
0.00496794
0.00452117
0.00414811
0.00383339
0.00356443
0.00333378
0.00313394
0.0779076
0.0353826
0.0198606
0.0131383
0.00966107
0.00759298
0.00623353
0.00527431
0.00456401
0.00401885
0.00358701
0.00323608
0.00294735
0.00270569
0.00250275
0.00232753
0.00217874
0.00204926
0.06238
0.0232554
0.0119461
0.00765494
0.00556339
0.00435258
0.00356726
0.00301643
0.00261312
0.00230799
0.00206672
0.00186707
0.00170289
0.00156325
0.0014491
0.0013455
0.00126008
0.00118529
0.0426105
0.0117794
0.00546931
0.00341388
0.00246077
0.00192015
0.0015729
0.00132905
0.00115971
0.00103882
0.000944719
0.000857723
0.00078723
0.000718817
0.000673698
0.000622824
0.000574511
0.000542378
0.0168348
0.0025599
0.00110031
0.000684192
0.000495179
0.000389151
0.00032166
0.000270751
0.000280923
0.000338748
0.000385624
0.000370706
0.000353021
0.000289042
0.000353924
0.000325759
0.000243253
0.000290657
3.78131e-06
1.43225e-05
2.60298e-05
3.85383e-05
4.60116e-05
4.96627e-05
5.01555e-05
4.78133e-05
4.46229e-05
3.95542e-05
3.42198e-05
2.94486e-05
2.67712e-05
2.74486e-05
2.96322e-05
3.14815e-05
3.13385e-05
2.85142e-05
2.38714e-05
2.02113e-05
2.08249e-05
2.64247e-05
3.93439e-05
6.39099e-05
8.72023e-05
0.000100615
0.000113337
0.000124345
0.00013433
0.000142833
0.000150424
0.000157043
0.000162905
0.000168059
0.000172591
0.000176617
0.000180204
0.000183423
0.00018632
0.000188931
0.00019128
0.000193386
0.000195264
0.000196927
0.000198386
0.000199654
0.00020074
0.000201648
0.00020238
0.000202805
0.000203296
0.000203379
0.000203438
0.000203322
0.000203045
0.000202631
0.000202075
0.000201383
0.000200554
0.000199593
0.000198501
0.00019728
0.000195933
0.000194463
0.000192873
0.000191166
0.000189343
0.000187407
0.000185362
0.000183211
0.000180957
0.000178603
0.000176152
0.000173606
0.000170968
0.00016824
0.000165425
0.000162524
0.000159538
0.000156468
0.000153315
0.000150076
0.000146751
0.000143338
0.000139835
0.000136238
0.00013254
0.000128734
0.000124809
0.00012075
0.00011654
0.000112165
0.000107622
0.000102967
9.84024e-05
9.44196e-05
9.15958e-05
8.98389e-05
8.85245e-05
8.73197e-05
8.61363e-05
8.49576e-05
8.37817e-05
8.26093e-05
8.14413e-05
8.02787e-05
7.91228e-05
7.79778e-05
7.68647e-05
7.591e-05
7.4976e-05
7.40481e-05
7.31283e-05
7.22166e-05
7.13136e-05
7.04196e-05
6.95349e-05
6.86599e-05
6.77949e-05
6.69401e-05
6.60955e-05
6.52615e-05
6.44384e-05
6.36266e-05
6.28261e-05
6.20367e-05
6.12595e-05
6.05201e-05
5.98429e-05
5.91743e-05
5.8511e-05
5.7861e-05
5.72291e-05
5.66024e-05
5.59805e-05
5.53667e-05
5.47619e-05
5.41668e-05
5.35813e-05
5.30055e-05
5.24391e-05
5.1882e-05
5.13341e-05
5.07953e-05
5.02653e-05
4.97442e-05
4.92318e-05
4.8728e-05
4.82327e-05
4.77458e-05
4.72674e-05
4.67972e-05
4.63353e-05
4.58817e-05
4.54363e-05
4.49992e-05
4.45705e-05
4.41501e-05
4.37384e-05
4.33353e-05
4.29412e-05
4.25562e-05
4.21805e-05
4.18145e-05
4.14584e-05
4.11121e-05
4.07758e-05
4.04492e-05
4.01318e-05
3.98229e-05
3.95206e-05
3.9225e-05
3.89272e-05
3.86405e-05
3.83116e-05
3.80559e-05
3.75482e-05
3.73533e-05
3.63026e-05
3.49084e-05
5.89807e-06
4.05889e-05
9.24667e-05
0.000153708
0.000192553
0.000214556
0.000223348
0.000221921
0.000214077
0.000198519
0.000179503
0.000161549
0.000152481
0.000157007
0.00016932
0.000177334
0.000179531
0.000180675
0.000185631
0.00019434
0.000208078
0.000224512
0.000240377
0.000256186
0.000267066
0.000276645
0.000285194
0.000297693
0.00031634
0.000330004
0.000342516
0.000353262
0.000363041
0.000372013
0.00037981
0.000386933
0.000393569
0.000399939
0.000406172
0.000412331
0.000418414
0.000424376
0.000430165
0.000435741
0.000441075
0.000446151
0.000450953
0.00045547
0.000459701
0.000463646
0.000467345
0.000470763
0.000473939
0.000476861
0.000479535
0.000481961
0.000484141
0.000486074
0.000487761
0.000489203
0.0004904
0.000491353
0.000492065
0.000492539
0.000492785
0.00049281
0.000492607
0.000492173
0.000491524
0.000490663
0.000489597
0.000488333
0.000486877
0.000485235
0.000483415
0.000481424
0.000479269
0.000476959
0.0004745
0.0004719
0.000469167
0.000466308
0.000463333
0.000460248
0.000457062
0.000453783
0.00045042
0.000446981
0.000443473
0.000439906
0.000436284
0.000432613
0.000428894
0.000425118
0.000421268
0.000417316
0.000413247
0.000409089
0.000404892
0.000400681
0.000396463
0.000392242
0.000388022
0.000383807
0.000379599
0.000375402
0.000371218
0.000367052
0.000362901
0.000358764
0.000354652
0.000350569
0.000346518
0.000342499
0.000338515
0.000334567
0.000330657
0.000326786
0.000322957
0.000319169
0.000315424
0.000311722
0.000308066
0.000304455
0.000300891
0.000297374
0.000293903
0.000290477
0.000287095
0.000283759
0.000280469
0.000277232
0.00027405
0.000270907
0.000267801
0.000264739
0.000261723
0.000258753
0.000255831
0.000252955
0.000250125
0.000247341
0.000244601
0.000241906
0.000239254
0.000236645
0.000234079
0.000231555
0.000229073
0.000226631
0.000224231
0.000221871
0.000219551
0.000217272
0.000215033
0.000212834
0.000210676
0.000208559
0.000206483
0.000204451
0.000202462
0.000200519
0.000198622
0.000196773
0.000194975
0.000193226
0.00019153
0.000189885
0.000188292
0.000186747
0.000185247
0.000183793
0.000182356
0.000180993
0.000179509
0.000178385
0.00017629
0.000175966
0.000172988
0.000172125
1.28768e-05
7.40672e-05
0.000174306
0.000251874
0.000303656
0.000333363
0.000344213
0.000341395
0.000328797
0.000309927
0.000290646
0.000278293
0.000276103
0.000282577
0.000292641
0.000303194
0.000315664
0.00033228
0.000353515
0.000378315
0.000405389
0.000433478
0.000471401
0.000517516
0.000562965
0.000606964
0.000649943
0.000693514
0.000732776
0.000764012
0.000788982
0.000808779
0.000824473
0.000836926
0.000846918
0.000855225
0.000862546
0.000869525
0.000876699
0.000884422
0.000892802
0.000901717
0.000910926
0.000920194
0.000929344
0.000938255
0.000946852
0.000955087
0.000962922
0.000970332
0.000977292
0.000983773
0.000989773
0.000995284
0.00100031
0.00100483
0.00100887
0.00101242
0.00101547
0.00101803
0.0010201
0.00102167
0.00102276
0.0010233
0.00102346
0.00102317
0.00102238
0.00102114
0.00101945
0.00101734
0.0010148
0.00101186
0.00100852
0.00100481
0.00100073
0.000996306
0.000991543
0.000986459
0.00098107
0.00097539
0.000969434
0.000963218
0.000956758
0.000950067
0.000943162
0.000936057
0.000928767
0.000921305
0.000913687
0.000905925
0.00089803
0.000890015
0.000881888
0.000873658
0.000865332
0.000856922
0.000848438
0.000839897
0.000831316
0.000822707
0.000814081
0.000805447
0.000796814
0.000788188
0.000779578
0.000770989
0.000762429
0.000753903
0.000745418
0.000736977
0.000728589
0.000720256
0.000711985
0.00070378
0.000695643
0.000687578
0.000679588
0.000671677
0.000663847
0.0006561
0.000648439
0.000640864
0.000633378
0.000625983
0.000618681
0.00061147
0.000604353
0.000597329
0.000590399
0.000583564
0.000576824
0.000570179
0.000563629
0.000557166
0.00055079
0.000544504
0.000538308
0.000532205
0.000526194
0.000520275
0.000514445
0.000508706
0.000503055
0.000497492
0.000492015
0.000486624
0.000481316
0.000476092
0.000470949
0.000465888
0.000460906
0.000456002
0.000451176
0.000446426
0.000441752
0.000437152
0.000432624
0.000428169
0.000423784
0.000419469
0.000415222
0.000411041
0.000406925
0.000402871
0.000398877
0.000394939
0.000391054
0.000387217
0.00038342
0.000379655
0.000375911
0.000372172
0.000368416
0.000364623
0.000360721
0.000356743
0.000352323
0.000348021
0.000341563
0.000330411
2.17717e-05
0.000106434
0.00022024
0.000312836
0.000375514
0.000412497
0.000427924
0.000428311
0.000418392
0.000405122
0.000397054
0.000396226
0.000405352
0.000422394
0.000444953
0.000472506
0.000505658
0.000544776
0.00058906
0.000651115
0.000724818
0.000804483
0.000888645
0.000959241
0.00102163
0.00107771
0.0011281
0.00117298
0.00121223
0.0012461
0.00127533
0.00130066
0.00132277
0.00134231
0.00135984
0.00137586
0.00139078
0.00140494
0.0014186
0.00143195
0.00144511
0.00145816
0.00147111
0.00148397
0.00149666
0.00150912
0.00152125
0.00153295
0.00154414
0.00155473
0.00156468
0.00157396
0.00158253
0.00159039
0.00159753
0.00160393
0.00160961
0.00161454
0.00161874
0.0016222
0.00162492
0.0016269
0.00162806
0.0016285
0.00162837
0.00162746
0.00162583
0.00162351
0.00162052
0.00161686
0.00161256
0.00160764
0.00160212
0.00159602
0.00158937
0.00158218
0.00157447
0.00156628
0.00155761
0.00154851
0.00153898
0.00152905
0.00151875
0.0015081
0.00149712
0.00148583
0.00147426
0.00146242
0.00145035
0.00143805
0.00142555
0.00141288
0.00140003
0.00138703
0.0013739
0.00136066
0.00134731
0.00133389
0.0013204
0.00130687
0.00129331
0.00127975
0.00126618
0.00125262
0.00123909
0.00122559
0.00121214
0.00119875
0.00118541
0.00117215
0.00115897
0.00114587
0.00113287
0.00111997
0.00110718
0.0010945
0.00108193
0.00106949
0.00105717
0.00104498
0.00103293
0.001021
0.00100922
0.000997574
0.00098607
0.000974709
0.000963491
0.000952418
0.00094149
0.000930709
0.000920075
0.000909587
0.000899241
0.000889036
0.000878969
0.000869042
0.000859255
0.00084961
0.000840105
0.000830741
0.000821517
0.000812429
0.000803479
0.000794663
0.00078598
0.000777428
0.000769006
0.000760712
0.000752544
0.0007445
0.000736578
0.000728777
0.000721094
0.000713529
0.000706079
0.000698742
0.000691516
0.0006844
0.000677391
0.000670488
0.000663687
0.000656986
0.000650383
0.000643874
0.000637454
0.000631119
0.000624862
0.000618677
0.000612554
0.000606479
0.000600438
0.000594408
0.000588361
0.00058226
0.000576039
0.000569644
0.000562893
0.000555732
0.000547511
0.000531414
2.69712e-05
0.000122012
0.000241114
0.000357835
0.000435855
0.000483017
0.000506517
0.000514941
0.000516508
0.00051749
0.000524335
0.000540422
0.000566371
0.000601233
0.000644234
0.000695398
0.000755373
0.000838676
0.000934253
0.0010304
0.00111935
0.00120371
0.00128303
0.0013557
0.00142245
0.00148384
0.0015403
0.00159214
0.00163973
0.00168349
0.00172392
0.00176148
0.00179661
0.00182968
0.00186101
0.00189085
0.00191939
0.00194678
0.0019731
0.00199843
0.00202279
0.00204619
0.00206863
0.0020901
0.00211056
0.00212999
0.00214836
0.00216564
0.00218179
0.00219681
0.00221068
0.00222341
0.002235
0.00224547
0.00225484
0.00226313
0.00227034
0.00227651
0.00228163
0.00228574
0.00228883
0.00229088
0.0022918
0.00229189
0.00229101
0.00228913
0.0022863
0.00228253
0.00227784
0.00227226
0.00226582
0.00225853
0.00225043
0.00224155
0.00223192
0.00222157
0.00221053
0.00219883
0.0021865
0.00217357
0.00216007
0.00214604
0.00213151
0.0021165
0.00210105
0.00208519
0.00206894
0.00205235
0.00203543
0.00201821
0.00200073
0.00198301
0.00196507
0.00194693
0.00192863
0.00191017
0.00189159
0.00187292
0.00185416
0.00183535
0.00181651
0.00179765
0.0017788
0.00175996
0.00174117
0.00172242
0.00170373
0.00168512
0.0016666
0.00164819
0.00162988
0.00161169
0.00159364
0.00157572
0.00155795
0.00154034
0.00152288
0.00150559
0.00148848
0.00147154
0.00145478
0.0014382
0.00142182
0.00140562
0.00138962
0.00137382
0.00135821
0.00134279
0.00132758
0.00131257
0.00129775
0.00128314
0.00126872
0.00125449
0.00124046
0.00122662
0.00121297
0.00119952
0.00118625
0.00117318
0.00116029
0.00114759
0.00113508
0.00112275
0.00111061
0.00109864
0.00108685
0.00107523
0.00106378
0.0010525
0.00104138
0.00103043
0.00101964
0.00100901
0.000998538
0.000988216
0.000978045
0.000968021
0.000958142
0.000948405
0.000938806
0.000929343
0.00092001
0.000910805
0.000901721
0.000892753
0.000883892
0.000875131
0.000866456
0.000857854
0.000849305
0.000840785
0.000832259
0.000823683
0.000814992
0.000806113
0.000796882
0.000787152
0.000777196
0.000757411
3.07979e-05
0.000135318
0.000261504
0.000392465
0.000488738
0.000550342
0.00058806
0.000611447
0.000629153
0.000648426
0.000674506
0.000710043
0.000755779
0.000811992
0.000879091
0.000969514
0.00107458
0.00117625
0.00127543
0.0013709
0.00146158
0.00154756
0.00162879
0.00170523
0.00177719
0.001845
0.00190901
0.00196955
0.00202696
0.00208156
0.00213368
0.0021836
0.00223158
0.00227782
0.00232249
0.0023657
0.00240755
0.00244808
0.00248734
0.00252532
0.00256203
0.00259745
0.00263154
0.00266427
0.00269561
0.00272551
0.00275394
0.00278085
0.0028062
0.00282997
0.00285212
0.00287264
0.00289151
0.00290871
0.00292425
0.00293812
0.00295031
0.00296085
0.00296975
0.00297701
0.00298267
0.00298675
0.00298917
0.00299007
0.00298961
0.00298764
0.0029843
0.00297959
0.00297359
0.00296634
0.00295789
0.0029483
0.00293762
0.00292589
0.00291317
0.00289951
0.00288494
0.00286953
0.0028533
0.00283632
0.0028186
0.00280021
0.00278118
0.00276155
0.00274136
0.00272065
0.00269946
0.00267784
0.00265581
0.00263341
0.00261068
0.00258765
0.00256435
0.00254083
0.00251709
0.00249318
0.00246913
0.00244496
0.0024207
0.00239638
0.00237202
0.00234765
0.00232328
0.00229895
0.00227467
0.00225045
0.00222632
0.00220229
0.00217838
0.0021546
0.00213096
0.00210748
0.00208417
0.00206104
0.0020381
0.00201535
0.00199281
0.00197048
0.00194838
0.0019265
0.00190485
0.00188343
0.00186226
0.00184133
0.00182064
0.0018002
0.00178001
0.00176008
0.00174039
0.00172096
0.00170178
0.00168286
0.00166418
0.00164575
0.00162757
0.00160963
0.00159193
0.00157448
0.00155727
0.0015403
0.00152357
0.00150708
0.00149082
0.00147479
0.00145899
0.00144341
0.00142806
0.00141293
0.00139801
0.0013833
0.0013688
0.00135451
0.00134042
0.00132653
0.00131284
0.00129933
0.00128602
0.00127289
0.00125995
0.00124718
0.00123459
0.00122217
0.00120991
0.00119781
0.00118587
0.00117407
0.00116242
0.00115089
0.00113948
0.00112816
0.00111693
0.00110574
0.00109457
0.00108338
0.00107208
0.00106061
0.0010488
0.00103659
0.00102442
0.00100195
3.2348e-05
0.000142501
0.000273967
0.000409848
0.000527785
0.000609003
0.000665053
0.000706971
0.000743961
0.000783271
0.000829951
0.000886951
0.000955898
0.00104816
0.00115511
0.00126167
0.00136775
0.00147109
0.00157114
0.00166748
0.00175986
0.00184829
0.00193285
0.00201369
0.00209108
0.00216527
0.00223654
0.00230517
0.0023714
0.00243547
0.00249759
0.00255795
0.00261668
0.0026739
0.00272971
0.00278415
0.00283727
0.00288906
0.00293954
0.00298868
0.00303644
0.0030828
0.00312771
0.00317112
0.00321298
0.00325323
0.00329182
0.0033287
0.00336382
0.00339714
0.00342861
0.00345818
0.00348584
0.00351154
0.00353526
0.00355698
0.00357669
0.00359437
0.00361003
0.00362365
0.00363525
0.00364483
0.00365241
0.00365802
0.00366168
0.00366329
0.00366321
0.00366122
0.00365745
0.00365193
0.00364472
0.00363588
0.00362546
0.00361353
0.00360015
0.00358538
0.00356929
0.00355195
0.00353342
0.00351377
0.00349307
0.00347138
0.00344878
0.00342532
0.00340107
0.0033761
0.00335045
0.0033242
0.00329739
0.00327009
0.00324234
0.00321418
0.00318568
0.00315686
0.00312778
0.00309847
0.00306898
0.00303933
0.00300956
0.00297971
0.00294981
0.00291989
0.00288998
0.0028601
0.00283028
0.00280053
0.00277089
0.00274138
0.002712
0.00268278
0.00265374
0.00262488
0.00259623
0.0025678
0.00253959
0.00251163
0.00248391
0.00245645
0.00242926
0.00240233
0.00237569
0.00234933
0.00232327
0.00229749
0.00227201
0.00224683
0.00222195
0.00219738
0.0021731
0.00214914
0.00212547
0.00210211
0.00207905
0.00205629
0.00203383
0.00201166
0.00198979
0.00196821
0.00194692
0.00192592
0.00190521
0.00188478
0.00186463
0.00184476
0.00182516
0.00180583
0.00178677
0.00176798
0.00174944
0.00173115
0.00171312
0.00169534
0.00167779
0.00166049
0.00164342
0.00162659
0.00160998
0.00159359
0.00157743
0.00156147
0.00154573
0.0015302
0.00151486
0.00149972
0.00148477
0.00147
0.0014554
0.00144096
0.00142666
0.0014125
0.00139844
0.00138445
0.00137051
0.00135657
0.00134255
0.00132838
0.00131391
0.00129916
0.00128415
0.00125991
3.27957e-05
0.000144125
0.000275311
0.000409431
0.000539335
0.000642643
0.000719733
0.000781082
0.000836812
0.000894608
0.000962156
0.00105406
0.00116364
0.00128532
0.00140087
0.00151212
0.00161993
0.00172449
0.00182573
0.0019236
0.00201808
0.00210928
0.00219733
0.00228242
0.00236477
0.0024446
0.00252213
0.00259758
0.00267114
0.00274298
0.00281324
0.00288204
0.00294947
0.00301559
0.00308045
0.00314407
0.00320644
0.00326755
0.00332737
0.00338587
0.00344299
0.00349868
0.00355288
0.00360553
0.00365656
0.00370591
0.00375351
0.0037993
0.00384322
0.00388521
0.00392522
0.00396318
0.00399907
0.00403282
0.00406442
0.00409382
0.00412099
0.00414592
0.00416859
0.00418899
0.00420712
0.00422297
0.00423655
0.00424788
0.00425697
0.00426384
0.00426856
0.00427101
0.00427145
0.0042698
0.00426613
0.00426049
0.00425292
0.00424349
0.00423226
0.00421929
0.00420464
0.00418839
0.00417059
0.00415132
0.00413066
0.00410867
0.00408542
0.00406099
0.00403545
0.00400888
0.00398133
0.00395289
0.00392362
0.00389359
0.00386286
0.0038315
0.00379957
0.00376712
0.00373423
0.00370093
0.00366729
0.00363335
0.00359917
0.0035648
0.00353027
0.00349564
0.00346093
0.0034262
0.00339146
0.00335677
0.00332213
0.0032876
0.00325318
0.00321891
0.00318481
0.0031509
0.00311719
0.00308371
0.00305048
0.0030175
0.00298479
0.00295236
0.00292023
0.0028884
0.00285688
0.00282568
0.0027948
0.00276426
0.00273405
0.00270418
0.00267465
0.00264547
0.00261663
0.00258814
0.00256
0.00253221
0.00250476
0.00247766
0.0024509
0.00242448
0.0023984
0.00237266
0.00234725
0.00232218
0.00229744
0.00227302
0.00224893
0.00222516
0.00220171
0.00217857
0.00215574
0.00213322
0.00211099
0.00208906
0.00206743
0.00204608
0.00202501
0.00200422
0.00198371
0.00196346
0.00194349
0.00192377
0.00190431
0.0018851
0.00186614
0.00184741
0.00182893
0.00181067
0.00179264
0.00177482
0.00175721
0.00173978
0.00172254
0.00170545
0.0016885
0.00167165
0.00165488
0.00163812
0.00162131
0.00160438
0.00158719
0.00156979
0.00155186
0.00152572
3.22375e-05
0.000141196
0.000268903
0.000398013
0.000521849
0.000633959
0.000727732
0.000808811
0.000891783
0.000987052
0.00109623
0.00122088
0.00135724
0.00148473
0.00160502
0.00172002
0.00183072
0.00193748
0.00204062
0.00214049
0.00223731
0.00233128
0.00242259
0.00251145
0.00259807
0.00268264
0.00276536
0.00284641
0.00292593
0.00300406
0.00308089
0.00315652
0.00323099
0.00330435
0.00337659
0.00344773
0.00351772
0.00358655
0.00365415
0.00372048
0.00378546
0.00384903
0.00391112
0.00397164
0.00403051
0.00408767
0.00414304
0.00419653
0.00424807
0.00429761
0.00434506
0.00439038
0.0044335
0.00447437
0.00451295
0.00454919
0.00458307
0.00461455
0.00464361
0.00467024
0.00469442
0.00471615
0.00473542
0.00475225
0.00476666
0.00477865
0.00478825
0.00479549
0.00480042
0.00480298
0.00480337
0.00480156
0.00479759
0.00479153
0.00478343
0.00477335
0.00476135
0.00474749
0.00473185
0.00471449
0.00469549
0.0046749
0.00465281
0.00462928
0.0046044
0.00457823
0.00455084
0.00452231
0.00449272
0.00446212
0.0044306
0.00439821
0.00436504
0.00433113
0.00429656
0.00426139
0.00422569
0.0041895
0.00415289
0.00411592
0.00407863
0.00404109
0.00400333
0.00396541
0.00392737
0.00388924
0.00385108
0.00381292
0.00377479
0.00373673
0.00369876
0.00366092
0.00362323
0.00358571
0.0035484
0.0035113
0.00347445
0.00343785
0.00340153
0.0033655
0.00332976
0.00329434
0.00325925
0.00322449
0.00319007
0.003156
0.00312228
0.00308892
0.00305593
0.0030233
0.00299104
0.00295916
0.00292764
0.0028965
0.00286572
0.00283532
0.00280529
0.00277562
0.00274632
0.00271738
0.00268881
0.0026606
0.00263275
0.00260525
0.0025781
0.0025513
0.00252485
0.00249873
0.00247294
0.00244749
0.00242237
0.00239756
0.00237308
0.0023489
0.00232504
0.00230148
0.00227822
0.00225525
0.00223258
0.00221019
0.00218808
0.00216625
0.00214468
0.00212338
0.00210233
0.00208153
0.00206096
0.00204061
0.00202047
0.00200052
0.00198073
0.00196108
0.00194151
0.00192199
0.00190244
0.00188278
0.0018629
0.00184284
0.00182209
0.00179377
3.08681e-05
0.00013511
0.000258109
0.000383391
0.000505341
0.000621404
0.00073204
0.000840995
0.000955816
0.00108164
0.0012197
0.00136943
0.00151171
0.00164368
0.00176792
0.00188634
0.00200005
0.00210969
0.00221565
0.00231813
0.00241753
0.00251423
0.00260854
0.00270069
0.00279093
0.00287945
0.00296644
0.00305206
0.00313643
0.00321967
0.00330186
0.00338305
0.00346329
0.00354259
0.00362093
0.0036983
0.00377464
0.00384992
0.00392406
0.00399699
0.00406864
0.00413891
0.00420771
0.00427496
0.00434057
0.00440445
0.0044665
0.00452664
0.00458479
0.00464087
0.00469481
0.00474652
0.00479596
0.00484306
0.00488776
0.00493003
0.00496982
0.00500709
0.00504183
0.005074
0.00510359
0.0051306
0.00515502
0.00517686
0.00519612
0.00521282
0.00522699
0.00523864
0.00524782
0.00525454
0.00525886
0.00526079
0.00526045
0.00525785
0.00525303
0.00524606
0.00523701
0.00522593
0.00521289
0.00519796
0.00518119
0.00516268
0.00514247
0.00512065
0.00509729
0.00507247
0.00504624
0.0050187
0.0049899
0.00495993
0.00492884
0.00489672
0.00486362
0.00482963
0.00479479
0.00475919
0.00472288
0.00468593
0.00464839
0.00461034
0.00457182
0.00453289
0.00449361
0.00445402
0.00441418
0.00437414
0.00433393
0.0042936
0.0042532
0.00421275
0.0041723
0.00413189
0.00409154
0.00405128
0.00401114
0.00397116
0.00393135
0.00389174
0.00385234
0.00381319
0.00377429
0.00373566
0.00369732
0.00365928
0.00362156
0.00358416
0.0035471
0.00351038
0.00347401
0.00343799
0.00340234
0.00336706
0.00333214
0.0032976
0.00326343
0.00322963
0.00319621
0.00316317
0.00313051
0.00309822
0.00306631
0.00303478
0.00300362
0.00297283
0.0029424
0.00291235
0.00288266
0.00285332
0.00282435
0.00279573
0.00276745
0.00273952
0.00271193
0.00268468
0.00265777
0.00263118
0.00260492
0.00257897
0.00255335
0.00252803
0.00250302
0.00247832
0.00245391
0.00242978
0.00240594
0.00238237
0.00235906
0.002336
0.00231317
0.00229056
0.00226812
0.00224585
0.00222368
0.00220157
0.00217946
0.00215726
0.00213486
0.00211229
0.00208899
0.00205833
2.93174e-05
0.000128791
0.000248237
0.000372468
0.000497091
0.000621006
0.000745652
0.000874971
0.00101223
0.00115948
0.00131685
0.00147861
0.00162639
0.00176283
0.00189092
0.00201267
0.00212936
0.00224179
0.00235052
0.00245593
0.00255831
0.00265787
0.00275504
0.00285017
0.00294356
0.00303543
0.00312598
0.00321539
0.00330377
0.00339123
0.00347784
0.00356365
0.00364868
0.00373293
0.00381637
0.00389897
0.00398068
0.00406142
0.00414111
0.00421967
0.00429701
0.00437302
0.0044476
0.00452066
0.00459208
0.00466177
0.00472962
0.00479555
0.00485945
0.00492124
0.00498083
0.00503815
0.00509313
0.0051457
0.0051958
0.00524338
0.00528839
0.00533081
0.00537058
0.0054077
0.00544213
0.00547388
0.00550293
0.00552929
0.00555297
0.00557397
0.00559232
0.00560804
0.00562116
0.00563172
0.00563975
0.00564529
0.0056484
0.00564913
0.00564752
0.00564364
0.00563755
0.00562931
0.00561897
0.0056066
0.00559228
0.00557607
0.00555803
0.00553825
0.0055168
0.00549374
0.00546915
0.0054431
0.00541566
0.00538691
0.00535692
0.00532574
0.00529347
0.00526015
0.00522586
0.00519067
0.00515464
0.00511783
0.00508031
0.00504214
0.00500338
0.00496409
0.00492432
0.00488412
0.00484356
0.00480267
0.00476151
0.00472011
0.00467854
0.00463682
0.004595
0.00455312
0.0045112
0.0044693
0.00442743
0.00438564
0.00434394
0.00430236
0.00426094
0.00421969
0.00417863
0.00413779
0.00409719
0.00405683
0.00401674
0.00397694
0.00393743
0.00389823
0.00385934
0.00382078
0.00378255
0.00374467
0.00370713
0.00366995
0.00363313
0.00359666
0.00356057
0.00352484
0.00348947
0.00345448
0.00341986
0.00338562
0.00335174
0.00331824
0.00328511
0.00325235
0.00321995
0.00318793
0.00315626
0.00312496
0.00309401
0.00306342
0.00303318
0.00300329
0.00297375
0.00294455
0.00291569
0.00288716
0.00285897
0.0028311
0.00280356
0.00277633
0.00274942
0.00272282
0.00269651
0.0026705
0.00264476
0.0026193
0.00259408
0.0025691
0.00254432
0.00251971
0.00249523
0.00247083
0.00244645
0.00242199
0.00239737
0.00237257
0.00234707
0.00231426
2.76233e-05
0.000122192
0.000238214
0.000361766
0.000489209
0.000619917
0.000756147
0.000899679
0.00105218
0.00121417
0.00138614
0.00155208
0.00170385
0.00184414
0.00197574
0.00210061
0.0022201
0.00233515
0.00244642
0.00255439
0.00265946
0.00276194
0.00286208
0.00296008
0.00305636
0.00315122
0.00324489
0.00333755
0.00342935
0.0035204
0.00361077
0.00370049
0.00378959
0.00387805
0.00396585
0.00405292
0.00413921
0.00422464
0.0043091
0.00439251
0.00447476
0.00455573
0.00463532
0.0047134
0.00478988
0.00486462
0.00493753
0.0050085
0.00507742
0.00514421
0.00520877
0.00527102
0.00533087
0.00538826
0.00544313
0.00549542
0.00554508
0.00559206
0.00563634
0.00567788
0.00571666
0.00575268
0.00578592
0.00581638
0.00584407
0.00586901
0.00589121
0.00591068
0.00592748
0.00594161
0.00595312
0.00596206
0.00596847
0.00597239
0.00597388
0.00597301
0.00596985
0.00596442
0.00595679
0.00594704
0.00593523
0.00592143
0.00590571
0.00588814
0.00586879
0.00584773
0.00582503
0.00580078
0.00577503
0.00574786
0.00571934
0.00568953
0.00565852
0.00562636
0.00559312
0.00555887
0.00552368
0.0054876
0.00545071
0.00541306
0.00537472
0.00533574
0.00529619
0.0052561
0.00521555
0.00517457
0.00513322
0.00509155
0.0050496
0.00500742
0.00496504
0.00492251
0.00487987
0.00483716
0.0047944
0.00475163
0.00470888
0.00466619
0.00462358
0.00458107
0.00453869
0.00449647
0.00445442
0.00441256
0.00437092
0.00432951
0.00428835