/*--------------------------------*- C++ -*----------------------------------*\
| =========                 |                                                 |
| \\      /  F ield         | OpenFOAM: The Open Source CFD Toolbox           |
|  \\    /   O peration     | Version:  v2012                                 |
|   \\  /    A nd           | Website:  www.openfoam.com                      |
|    \\/     M anipulation  |                                                 |
\*---------------------------------------------------------------------------*/
FoamFile
{
    version     2.0;
    format      ascii;
    class       volScalarField;
    location    "1000";
    object      p;
}
// * * * * * * * * * * * * * * * * * * * * * * * * * * * * * * * * * * * * * //

dimensions      [0 2 -2 0 0 0 0];


internalField   nonuniform List<scalar> 
12225
(
514.682
55.5346
2.37056
0.288974
-1.8909
-3.36646
-3.80733
-4.00984
-4.21771
-4.36741
-4.41
-4.4107
-4.41147
-4.44102
-4.49478
-4.56862
-4.72418
-4.93883
-122.173
0.245269
-2.71173
-0.757876
-2.20867
-3.51699
-3.94343
-4.12923
-4.26731
-4.3586
-4.43017
-4.49098
-4.54697
-4.58644
-4.61718
-4.6496
-4.72562
-4.84899
-200.639
-16.1421
-2.33983
-0.351187
-1.89311
-3.23674
-3.76202
-4.01617
-4.1878
-4.30406
-4.39766
-4.46735
-4.51798
-4.54658
-4.56741
-4.58686
-4.62548
-4.62258
-110.61
-10.9679
-2.17064
-0.425024
-1.78019
-3.02074
-3.59162
-3.90308
-4.11593
-4.26067
-4.36426
-4.43467
-4.48234
-4.51139
-4.53127
-4.54148
-4.54381
-4.47859
-61.5669
-8.13979
-3.61621
-1.20317
-2.00787
-2.99043
-3.52046
-3.84434
-4.07158
-4.22745
-4.33586
-4.40965
-4.45964
-4.49055
-4.50711
-4.50598
-4.48105
-4.39125
-45.725
-8.77934
-5.25256
-2.19371
-2.42286
-3.09354
-3.52883
-3.82937
-4.04943
-4.20482
-4.31475
-4.39114
-4.44274
-4.47342
-4.48562
-4.47558
-4.43563
-4.34038
-35.789
-9.27071
-6.3745
-3.11836
-2.91517
-3.28293
-3.59711
-3.85096
-4.04964
-4.19643
-4.30347
-4.37935
-4.43053
-4.46005
-4.4692
-4.45473
-4.41028
-4.32198
-27.7726
-8.90166
-6.96819
-3.79694
-3.35566
-3.49235
-3.69488
-3.89675
-4.06868
-4.20245
-4.30329
-4.37635
-4.42609
-4.45479
-4.46317
-4.44874
-4.40708
-4.33107
-21.6847
-8.51478
-7.12913
-4.30514
-3.72342
-3.70059
-3.81146
-3.96167
-4.10391
-4.22148
-4.31357
-4.38209
-4.4296
-4.45751
-4.46619
-4.45399
-4.41832
-4.35612
-16.6076
-8.13565
-7.08305
-4.75038
-4.0782
-3.92956
-3.95505
-4.04989
-4.15769
-4.25497
-4.33534
-4.39747
-4.4419
-4.46912
-4.47923
-4.47146
-4.44489
-4.39942
-12.6341
-7.67602
-6.9013
-5.09701
-4.40224
-4.16605
-4.11822
-4.1588
-4.23006
-4.30431
-4.37067
-4.42491
-4.46565
-4.49252
-4.50543
-4.50428
-4.48949
-4.4625
-9.6943
-7.14412
-6.62463
-5.32212
-4.67445
-4.39324
-4.29107
-4.28411
-4.32008
-4.37044
-4.42159
-4.46706
-4.50396
-4.53108
-4.54815
-4.55549
-4.55413
-4.54625
-7.66153
-6.60023
-6.30159
-5.42733
-4.87917
-4.59365
-4.46046
-4.41787
-4.42374
-4.45207
-4.48853
-4.52551
-4.55902
-4.58728
-4.6097
-4.62669
-4.63941
-4.64986
-6.36657
-6.1087
-5.98147
-5.43624
-5.012
-4.75408
-4.61298
-4.54974
-4.53417
-4.54516
-4.5696
-4.59972
-4.63116
-4.66163
-4.69035
-4.7174
-4.74373
-4.77072
-5.61842
-5.71815
-5.70488
-5.38686
-5.08211
-4.86942
-4.73847
-4.66922
-4.64253
-4.64302
-4.65992
-4.68622
-4.71762
-4.75168
-4.78727
-4.82417
-4.86277
-4.90385
-5.23917
-5.45602
-5.50403
-5.3236
-5.11123
-4.94435
-4.83228
-4.7675
-4.73902
-4.73636
-4.75119
-4.77758
-4.81159
-4.85074
-4.89366
-4.93975
-4.98887
-5.04124
-5.09796
-5.34013
-5.41289
-5.295
-5.13111
-4.99213
-4.89463
-4.83686
-4.81188
-4.81179
-4.82971
-4.86036
-4.89996
-4.94598
-4.99681
-5.0515
-5.10954
-5.17073
-5.13559
-5.39588
-5.47005
-5.34403
-5.17031
-5.02473
-4.92456
-4.86748
-4.84561
-4.85052
-4.87472
-4.91255
-4.95986
-5.01389
-5.07269
-5.13512
-5.20037
-5.26808
-5.3877
-5.65013
-5.68594
-5.47093
-5.22189
-5.03166
-4.91072
-4.84774
-4.82879
-4.84108
-4.87471
-4.92247
-4.97951
-5.04257
-5.10961
-5.17924
-5.25074
-5.32362
-5.9968
-6.13172
-6.03761
-5.63027
-5.24251
-4.98301
-4.83673
-4.77199
-4.76259
-4.789
-4.83751
-4.89922
-4.96855
-5.04215
-5.11796
-5.19484
-5.27212
-5.34963
-7.24416
-6.88411
-6.4889
-5.75681
-5.17836
-4.84866
-4.69241
-4.6426
-4.65674
-4.70739
-4.77757
-4.85737
-4.94134
-5.02649
-5.11137
-5.19525
-5.27791
-5.35946
-9.63543
-7.95893
-6.97707
-5.7666
-4.97471
-4.60786
-4.47822
-4.47038
-4.52568
-4.61126
-4.70902
-4.80986
-4.90942
-5.0061
-5.09943
-5.18954
-5.27675
-5.36156
-13.9764
-9.38522
-7.39742
-5.56406
-4.5898
-4.25995
-4.21144
-4.27671
-4.38938
-4.51743
-4.64565
-4.76781
-4.88206
-4.98872
-5.08885
-5.1837
-5.2742
-5.36124
-20.8839
-10.948
-7.54825
-5.05158
-4.01078
-3.83154
-3.92649
-4.09123
-4.27026
-4.44182
-4.59861
-4.73938
-4.86552
-4.97935
-5.08379
-5.18128
-5.27353
-5.36158
-29.7305
-11.9433
-7.02744
-4.12031
-3.25882
-3.3736
-3.66747
-3.94405
-4.18712
-4.39626
-4.57514
-4.72906
-4.86229
-4.97989
-5.0858
-5.18383
-5.27634
-5.36429
-43.1004
-12.6078
-5.46662
-2.72301
-2.40787
-2.95886
-3.4806
-3.85908
-4.15079
-4.38493
-4.57709
-4.73666
-4.87121
-4.98819
-5.09302
-5.19002
-5.28194
-5.36949
-84.5934
-17.3673
-3.65786
-1.25939
-1.69046
-2.71703
-3.4322
-3.86581
-4.16862
-4.40482
-4.60134
-4.76316
-4.89379
-5.00397
-5.10239
-5.1962
-5.28714
-5.37403
-177.88
-26.8435
-3.6739
-0.764112
-1.52943
-2.83805
-3.60995
-4.00992
-4.26142
-4.45648
-4.64149
-4.80929
-4.94301
-5.04606
-5.12912
-5.21192
-5.2974
-5.37953
-154.784
-9.62116
-3.26616
-1.06219
-1.83739
-3.21573
-3.90921
-4.21871
-4.40719
-4.5461
-4.68965
-4.84604
-4.99449
-5.11718
-5.20347
-5.27795
-5.35582
-5.43295
428.063
66.6116
7.06216
1.60548
-0.909906
-2.85174
-3.64736
-3.98869
-4.30552
-4.57508
-4.69976
-4.7368
-4.78791
-4.8853
-5.01949
-5.14322
-5.23982
-5.32547
-8.50632
-8.49352
-8.48345
-8.52536
-8.61827
-8.72124
-8.80017
-8.83909
-8.84183
-8.82366
-8.79605
-8.76751
-8.74605
-8.73749
-8.74255
-8.75488
-8.7656
-8.77036
-8.77196
-8.77712
-8.78849
-8.82119
-8.91137
-9.0851
-9.3399
-9.65905
-10.0313
-10.4456
-10.8867
-11.3382
-11.7854
-12.2163
-12.6217
-12.9953
-13.3326
-13.6313
-13.8904
-14.11
-14.2907
-14.4336
-14.54
-14.6111
-14.6483
-14.6531
-14.6266
-14.5702
-14.4857
-14.3752
-14.2399
-14.0777
-13.886
-13.6661
-13.4207
-13.1515
-12.8598
-12.5466
-12.213
-11.8599
-11.4885
-11.0998
-10.6948
-10.2747
-9.84053
-9.39356
-8.93492
-8.46579
-7.98739
-7.50091
-7.00754
-6.50846
-6.00485
-5.49783
-4.98854
-4.47803
-3.96736
-3.45754
-2.9495
-2.44418
-1.94242
-1.44504
-0.952787
-0.466368
0.0135722
0.486442
0.951705
1.40888
1.85754
2.29732
2.72789
3.14901
3.56047
3.96209
4.35369
4.73526
5.10705
5.46904
5.82077
6.16186
6.49229
6.81231
7.12215
7.42202
7.7121
7.99258
8.26365
8.52549
8.77832
9.02236
9.25784
9.48494
9.70391
9.91498
10.1184
10.3144
10.5033
10.6852
10.8605
11.0293
11.1919
11.3486
11.4994
11.6448
11.7848
11.9197
12.0498
12.1751
12.2959
12.4123
12.5246
12.633
12.7374
12.8385
12.9363
13.0309
13.1222
13.2104
13.2956
13.378
13.4576
13.5347
13.6092
13.6815
13.7514
13.8192
13.8848
13.9485
14.0102
14.0701
14.1281
14.1845
14.2391
14.2921
14.3435
14.3934
14.4418
14.4887
14.5341
14.5782
14.6209
14.6622
14.7022
14.7408
14.7782
14.8142
14.849
14.8825
14.9148
14.946
14.976
15.0051
15.0334
15.061
15.0885
15.1161
15.1447
15.1755
15.2109
15.2526
15.3105
15.371
-8.5642
-8.59556
-8.66971
-8.76317
-8.86608
-8.95752
-9.01791
-9.04141
-9.02338
-8.962
-8.87178
-8.77514
-8.69427
-8.64395
-8.62247
-8.61954
-8.62953
-8.65631
-8.69568
-8.7173
-8.73918
-8.81876
-8.98409
-9.22755
-9.53707
-9.91012
-10.337
-10.7974
-11.2699
-11.7368
-12.1858
-12.6077
-12.996
-13.3472
-13.6594
-13.9324
-14.1667
-14.3632
-14.5231
-14.6476
-14.7378
-14.7949
-14.8197
-14.8133
-14.7764
-14.7096
-14.6133
-14.4877
-14.3331
-14.1529
-13.9506
-13.7265
-13.4796
-13.2102
-12.9188
-12.6063
-12.2734
-11.9212
-11.5505
-11.1626
-10.7583
-10.3388
-9.90523
-9.45878
-9.00059
-8.53183
-8.0537
-7.56742
-7.07417
-6.57513
-6.07147
-5.56433
-5.05482
-4.54402
-4.03298
-3.5227
-3.01414
-2.50822
-2.00579
-1.50768
-1.01463
-0.527353
-0.0465015
0.427328
0.893592
1.3518
1.80151
2.24233
2.6739
3.09594
3.50817
3.91035
4.30226
4.68379
5.05504
5.41621
5.7675
6.10893
6.44036
6.76166
7.0729
7.37419
7.66568
7.94755
8.21999
8.48317
8.73732
8.98264
9.21937
9.44774
9.66798
9.8803
10.085
10.2822
10.4722
10.6553
10.8317
11.0016
11.1653
11.323
11.4749
11.6212
11.7622
11.8981
12.0292
12.1556
12.2775
12.395
12.5084
12.6178
12.7234
12.8252
12.9231
13.0177
13.1092
13.1976
13.283
13.3657
13.4456
13.523
13.5979
13.6704
13.7406
13.8087
13.8747
13.9386
14.0007
14.0608
14.1191
14.1757
14.2306
14.2839
14.3355
14.3857
14.4343
14.4814
14.5271
14.5713
14.6142
14.6557
14.6959
14.7347
14.7722
14.8084
14.8433
14.877
14.9094
14.9407
14.9709
15.0001
15.0285
15.0563
15.0838
15.1115
15.1402
15.1709
15.2057
15.2453
15.299
15.3489
-8.69154
-8.77314
-8.8909
-8.99628
-9.07852
-9.13164
-9.15153
-9.13694
-9.08654
-9.00274
-8.89479
-8.77953
-8.68062
-8.61729
-8.58948
-8.58544
-8.60584
-8.66556
-8.77391
-8.92409
-9.11458
-9.35605
-9.65178
-9.99223
-10.3653
-10.7616
-11.1712
-11.5821
-11.984
-12.3698
-12.7348
-13.0754
-13.3888
-13.6734
-13.9283
-14.1529
-14.347
-14.5107
-14.6443
-14.7481
-14.8224
-14.8676
-14.8842
-14.8725
-14.833
-14.7662
-14.6724
-14.5515
-14.4036
-14.2297
-14.0312
-13.809
-13.5637
-13.296
-13.0063
-12.6956
-12.3646
-12.0142
-11.6453
-11.259
-10.8563
-10.4383
-10.006
-9.56077
-9.10361
-8.63574
-8.15837
-7.67269
-7.17989
-6.68117
-6.17768
-5.67056
-5.16095
-4.64992
-4.13853
-3.62778
-3.11864
-2.61203
-2.10882
-1.60983
-1.11581
-0.627493
-0.145524
0.329492
0.797006
1.25653
1.70761
2.14987
2.58296
3.00661
3.42057
3.82463
4.21866
4.60256
4.97631
5.33991
5.69339
6.03677
6.37002
6.69312
7.00617
7.30927
7.60256
7.88622
8.16042
8.42536
8.68123
8.92825
9.16664
9.39664
9.61846
9.83234
10.0385
10.2372
10.4287
10.6132
10.791
10.9622
11.1272
11.2862
11.4394
11.5869
11.7291
11.8661
11.9981
12.1253
12.2479
12.3662
12.4803
12.5903
12.6965
12.799
12.8979
12.9936
13.0861
13.1754
13.2618
13.3453
13.4261
13.5042
13.5798
13.653
13.7239
13.7926
13.8592
13.9237
13.9863
14.0469
14.1058
14.1628
14.2182
14.2718
14.3239
14.3744
14.4234
14.4709
14.5169
14.5615
14.6046
14.6464
14.6869
14.7259
14.7637
14.8001
14.8353
14.8691
14.9018
14.9333
14.9636
14.993
15.0214
15.0493
15.0768
15.1045
15.1329
15.163
15.1965
15.2331
15.2805
15.3141
-8.72941
-8.82645
-8.92746
-9.01373
-9.07781
-9.11706
-9.12901
-9.11107
-9.06332
-8.99091
-8.90527
-8.82334
-8.76327
-8.73769
-8.75128
-8.80613
-8.9063
-9.05561
-9.25471
-9.49787
-9.77561
-10.081
-10.4084
-10.7515
-11.1051
-11.4639
-11.8225
-12.1758
-12.5191
-12.8486
-13.1608
-13.4532
-13.7236
-13.9703
-14.1922
-14.3883
-14.558
-14.701
-14.817
-14.906
-14.968
-15.003
-15.0113
-14.9928
-14.9478
-14.8764
-14.779
-14.6558
-14.5073
-14.3342
-14.1371
-13.9165
-13.6729
-13.4068
-13.1188
-12.8098
-12.4804
-12.1316
-11.7643
-11.3794
-10.978
-10.5611
-10.1299
-9.6855
-9.22903
-8.76172
-8.28474
-7.79929
-7.30656
-6.80775
-6.30402
-5.79651
-5.28636
-4.77466
-4.26245
-3.75076
-3.24056
-2.73277
-2.22827
-1.72788
-1.23238
-0.74249
-0.258865
0.217883
0.687198
1.14858
1.60158
2.04581
2.48093
2.90665
3.32272
3.72895
4.12521
4.51139
4.88746
5.25338
5.60912
5.95467
6.29002
6.61521
6.93033
7.2355
7.53085
7.81654
8.09274
8.35965
8.61747
8.86641
9.10668
9.33852
9.56214
9.77777
9.98566
10.1861
10.3792
10.5653
10.7447
10.9174
11.0839
11.2443
11.3988
11.5476
11.6911
11.8293
11.9625
12.0909
12.2147
12.3341
12.4492
12.5603
12.6675
12.771
12.8711
12.9678
13.0612
13.1515
13.2388
13.3231
13.4047
13.4836
13.56
13.6339
13.7055
13.7749
13.8421
13.9072
13.9703
14.0315
14.0909
14.1484
14.2043
14.2584
14.3109
14.3619
14.4112
14.4591
14.5055
14.5504
14.594
14.6361
14.6768
14.7162
14.7542
14.7909
14.8263
14.8604
14.8932
14.9248
14.9553
14.9847
15.0133
15.0411
15.0684
15.0957
15.1236
15.1525
15.1838
15.2163
15.2557
15.2743
-8.51582
-8.60064
-8.70074
-8.79777
-8.87493
-8.92739
-8.95419
-8.95625
-8.93813
-8.90827
-8.87884
-8.86382
-8.87596
-8.9247
-9.01615
-9.15335
-9.33627
-9.56025
-9.81681
-10.0979
-10.3979
-10.7129
-11.0383
-11.3693
-11.7013
-12.0309
-12.3545
-12.6692
-12.9721
-13.2609
-13.5335
-13.7884
-14.0241
-14.2393
-14.4331
-14.6047
-14.7533
-14.8783
-14.9794
-15.0561
-15.1082
-15.1354
-15.1376
-15.1147
-15.0666
-14.9934
-14.8951
-14.7719
-14.6241
-14.4521
-14.2562
-14.0369
-13.7947
-13.53
-13.2436
-12.936
-12.6081
-12.2607
-11.8947
-11.511
-11.1107
-10.6948
-10.2645
-9.82073
-9.36482
-8.89791
-8.42118
-7.93583
-7.44306
-6.94405
-6.43997
-5.93198
-5.42121
-4.90875
-4.39566
-3.88296
-3.37163
-2.86261
-2.35676
-1.85493
-1.35789
-0.866365
-0.381026
0.0975152
0.568698
1.03202
1.48702
1.93332
2.37055
2.79844
3.21673
3.62522
4.02377
4.41227
4.79064
5.15884
5.51684
5.86463
6.2022
6.52963
6.84697
7.15435
7.45189
7.73976
8.01813
8.28717
8.54709
8.7981
9.04042
9.27427
9.49987
9.71745
9.92725
10.1295
10.3244
10.5123
10.6933
10.8678
11.0359
11.1978
11.3539
11.5043
11.6492
11.7888
11.9234
12.0532
12.1784
12.299
12.4154
12.5278
12.6361
12.7408
12.8419
12.9396
13.034
13.1252
13.2134
13.2986
13.3811
13.4608
13.538
13.6127
13.6851
13.7551
13.823
13.8888
13.9526
14.0144
14.0743
14.1325
14.1888
14.2435
14.2965
14.3479
14.3977
14.4461
14.4929
14.5382
14.5821
14.6246
14.6657
14.7054
14.7437
14.7807
14.8163
14.8506
14.8837
14.9155
14.9461
14.9756
15.004
15.0317
15.0588
15.0855
15.1124
15.1397
15.1682
15.1961
15.2276
15.2338
-8.09517
-8.18368
-8.30477
-8.42755
-8.53276
-8.61312
-8.67145
-8.71372
-8.74763
-8.78304
-8.8309
-8.90146
-9.00266
-9.13924
-9.31328
-9.5237
-9.76576
-10.0339
-10.3227
-10.6265
-10.9398
-11.258
-11.577
-11.8935
-12.2046
-12.5083
-12.8026
-13.086
-13.3571
-13.6144
-13.8568
-14.0833
-14.2927
-14.4841
-14.6566
-14.8093
-14.9415
-15.0524
-15.1415
-15.2083
-15.2522
-15.2729
-15.27
-15.2432
-15.1924
-15.1174
-15.0182
-14.8948
-14.7473
-14.5759
-14.381
-14.1629
-13.9219
-13.6586
-13.3736
-13.0675
-12.741
-12.395
-12.0303
-11.6479
-11.2487
-10.8338
-10.4043
-9.96133
-9.50602
-9.03956
-8.56314
-8.07794
-7.58516
-7.08599
-6.58161
-6.07318
-5.56181
-5.04862
-4.53468
-4.02099
-3.50856
-2.99832
-2.49114
-1.98788
-1.48932
-0.996171
-0.509126
-0.0287979
0.444248
0.909503
1.36651
1.81487
2.25423
2.68429
3.10481
3.51556
3.9164
4.30721
4.68789
5.05839
5.41869
5.76875
6.10862
6.43832
6.75795
7.0676
7.36741
7.65753
7.93814
8.20941
8.47152
8.7247
8.96914
9.20508
9.43273
9.65232
9.8641
10.0683
10.2651
10.4549
10.6378
10.814
10.9838
11.1475
11.3052
11.4572
11.6037
11.7449
11.8811
12.0123
12.1388
12.2609
12.3786
12.4922
12.6019
12.7077
12.81
12.9088
13.0043
13.0965
13.1857
13.2719
13.3553
13.4359
13.514
13.5896
13.6627
13.7336
13.8022
13.8687
13.9332
13.9957
14.0563
14.115
14.172
14.2273
14.2808
14.3328
14.3831
14.4319
14.4792
14.525
14.5693
14.6122
14.6537
14.6937
14.7324
14.7697
14.8056
14.8402
14.8734
14.9053
14.936
14.9655
14.9939
15.0214
15.048
15.074
15.0996
15.1249
15.1504
15.1734
15.1977
15.1932
-7.63104
-7.72981
-7.87204
-8.021
-8.15909
-8.27791
-8.38116
-8.47821
-8.57851
-8.69097
-8.82313
-8.97979
-9.16364
-9.37507
-9.61232
-9.87324
-10.1548
-10.4524
-10.7607
-11.0746
-11.3898
-11.703
-12.0115
-12.3132
-12.6065
-12.8903
-13.1633
-13.4248
-13.6738
-13.9096
-14.1313
-14.338
-14.5289
-14.7032
-14.8602
-14.9988
-15.1186
-15.2186
-15.2982
-15.3569
-15.3939
-15.4089
-15.4014
-15.371
-15.3174
-15.2403
-15.1397
-15.0154
-14.8676
-14.6963
-14.5017
-14.2841
-14.0439
-13.7816
-13.4976
-13.1926
-12.8673
-12.5224
-12.159
-11.7777
-11.3797
-10.9659
-10.5375
-10.0954
-9.64095
-9.17523
-8.69943
-8.21473
-7.72234
-7.22343
-6.71918
-6.21073
-5.69922
-5.18575
-4.67139
-4.15717
-3.64406
-3.13301
-2.62491
-2.12061
-1.62088
-1.12646
-0.638034
-0.156224
0.318402
0.785328
1.24409
1.69429
2.13556
2.56761
2.99016
3.40301
3.80599
4.19897
4.58184
4.95455
5.31705
5.66934
6.01144
6.34338
6.66526
6.97717
7.27923
7.5716
7.85443
8.12791
8.39222
8.64757
8.89417
9.13223
9.36198
9.58365
9.79747
10.0037
10.2025
10.3942
10.579
10.7571
10.9287
11.0942
11.2536
11.4073
11.5555
11.6983
11.836
11.9687
12.0968
12.2203
12.3394
12.4544
12.5653
12.6725
12.7759
12.8759
12.9725
13.0659
13.1561
13.2434
13.3278
13.4094
13.4884
13.5649
13.6389
13.7106
13.7801
13.8474
13.9126
13.9758
14.0371
14.0965
14.1542
14.21
14.2642
14.3167
14.3676
14.4169
14.4647
14.511
14.5558
14.5991
14.641
14.6815
14.7205
14.7581
14.7943
14.8291
14.8626
14.8947
14.9254
14.9549
14.9832
15.0103
15.0363
15.0614
15.0856
15.1088
15.1309
15.1491
15.1668
15.1529
-7.27763
-7.37097
-7.52318
-7.68913
-7.85623
-8.0176
-8.1728
-8.32969
-8.49645
-8.67887
-8.88096
-9.10382
-9.34598
-9.60659
-9.88506
-10.179
-10.4847
-10.7977
-11.1139
-11.4296
-11.742
-12.0488
-12.3483
-12.6389
-12.9198
-13.1901
-13.4491
-13.6962
-13.9307
-14.1521
-14.3598
-14.5531
-14.7313
-14.8937
-15.0396
-15.1681
-15.2787
-15.3705
-15.4429
-15.4952
-15.5267
-15.537
-15.5255
-15.4917
-15.4353
-15.3561
-15.2537
-15.1282
-14.9794
-14.8074
-14.6124
-14.3947
-14.1545
-13.8923
-13.6086
-13.304
-12.9792
-12.635
-12.2722
-11.8917
-11.4944
-11.0815
-10.6538
-10.2126
-9.75895
-9.29402
-8.81898
-8.33501
-7.8433
-7.34501
-6.84131
-6.33335
-5.82224
-5.30909
-4.79494
-4.28083
-3.76772
-3.25657
-2.74825
-2.2436
-1.74342
-1.24842
-0.759303
-0.27668
0.198873
0.666839
1.12675
1.57821
2.02083
2.45433
2.87842
3.29289
3.69755
4.09226
4.47693
4.85148
5.21586
5.57007
5.91412
6.24806
6.57195
6.8859
7.19003
7.48448
7.7694
8.04496
8.31137
8.5688
8.81748
9.0576
9.2894
9.5131
9.72893
9.93711
10.1379
10.3315
10.5182
10.6981
10.8716
11.0389
11.2001
11.3555
11.5053
11.6498
11.7891
11.9234
12.0529
12.1779
12.2985
12.4149
12.5272
12.6357
12.7404
12.8416
12.9394
13.0339
13.1253
13.2137
13.2991
13.3817
13.4617
13.5391
13.6141
13.6867
13.757
13.8251
13.8912
13.9551
14.0172
14.0773
14.1356
14.1921
14.2469
14.3
14.3515
14.4014
14.4497
14.4965
14.5418
14.5856
14.6279
14.6688
14.7082
14.7462
14.7827
14.8178
14.8514
14.8837
14.9145
14.9439
14.972
14.9987
15.024
15.0481
15.0707
15.0915
15.1103
15.1237
15.1354
15.1134
-7.0898
-7.17594
-7.33027
-7.50286
-7.68655
-7.87927
-8.07765
-8.28367
-8.50179
-8.73435
-8.98165
-9.24365
-9.52027
-9.81107
-10.1141
-10.4262
-10.7436
-11.0631
-11.3815
-11.6964
-12.0055
-12.3072
-12.6003
-12.8836
-13.1564
-13.4181
-13.6682
-13.9062
-14.1316
-14.3439
-14.5427
-14.7273
-14.8972
-15.0518
-15.1902
-15.3119
-15.4161
-15.502
-15.5691
-15.6167
-15.644
-15.6505
-15.6356
-15.5989
-15.5401
-15.4586
-15.3544
-15.2273
-15.0772
-14.9042
-14.7083
-14.4898
-14.2491
-13.9865
-13.7025
-13.3978
-13.073
-12.7288
-12.3662
-11.9859
-11.589
-11.1764
-10.7493
-10.3086
-9.85556
-9.39129
-8.91695
-8.43371
-7.94274
-7.4452
-6.94225
-6.43503
-5.92464
-5.41218
-4.89868
-4.38516
-3.8726
-3.36191
-2.85398
-2.34964
-1.84967
-1.3548
-0.865688
-0.382974
0.0927778
0.561051
1.02138
1.47335
1.91661
2.35083
2.77574
3.19114
3.59682
3.99265
4.37851
4.75433
5.12005
5.47567
5.8212
6.15667
6.48216
6.79776
7.10358
7.39976
7.68644
7.9638
8.23202
8.49129
8.74181
8.98379
9.21744
9.44299
9.66067
9.87069
10.0733
10.2687
10.4572
10.6389
10.8142
10.9831
11.146
11.3031
11.4546
11.6007
11.7415
11.8774
12.0085
12.1349
12.2569
12.3747
12.4884
12.5982
12.7042
12.8066
12.9056
13.0013
13.0938
13.1833
13.2698
13.3535
13.4345
13.5129
13.5887
13.6622
13.7334
13.8024
13.8692
13.934
13.9968
14.0576
14.1167
14.1739
14.2293
14.2831
14.3352
14.3856
14.4345
14.4819
14.5276
14.5719
14.6147
14.656
14.6958
14.7341
14.771
14.8063
14.8402
14.8726
14.9034
14.9327
14.9605
14.9868
15.0114
15.0342
15.0552
15.0736
15.0891
15.0979
15.1042
15.0752
-7.06459
-7.15163
-7.29943
-7.46839
-7.65539
-7.8603
-8.07994
-8.31235
-8.55776
-8.81671
-9.08863
-9.37268
-9.6686
-9.97519
-10.2897
-10.6093
-10.9309
-11.2519
-11.5699
-11.8828
-12.189
-12.487
-12.7759
-13.0546
-13.3227
-13.5795
-13.8246
-14.0576
-14.2779
-14.4852
-14.679
-14.8587
-15.0238
-15.1737
-15.3077
-15.4251
-15.5252
-15.6074
-15.6709
-15.7151
-15.7393
-15.743
-15.7255
-15.6864
-15.6254
-15.5419
-15.4359
-15.3072
-15.1556
-14.9812
-14.7842
-14.5647
-14.3231
-14.0597
-13.7752
-13.47
-13.1448
-12.8004
-12.4377
-12.0575
-11.6607
-11.2484
-10.8216
-10.3814
-9.92899
-9.46539
-8.99181
-8.50939
-8.0193
-7.5227
-7.02072
-6.5145
-6.00514
-5.49369
-4.98121
-4.46869
-3.9571
-3.44734
-2.9403
-2.43678
-1.93757
-1.44338
-0.954886
-0.472695
0.00262794
0.470573
0.930679
1.38254
1.82579
2.26012
2.68525
3.10096
3.50706
3.9034
4.28987
4.66638
5.03289
5.38938
5.73586
6.07236
6.39896
6.71574
7.0228
7.32029
7.60833
7.8871
8.15678
8.41753
8.66958
8.9131
9.14833
9.37547
9.59475
9.80639
10.0106
10.2077
10.3977
10.5811
10.7579
10.9285
11.093
11.2516
11.4046
11.5522
11.6945
11.8319
11.9644
12.0922
12.2156
12.3347
12.4497
12.5608
12.6681
12.7717
12.8719
12.9688
13.0624
13.1529
13.2405
13.3252
13.4072
13.4865
13.5634
13.6378
13.7098
13.7796
13.8473
13.9128
13.9764
14.038
14.0977
14.1556
14.2117
14.2661
14.3188
14.3699
14.4193
14.4672
14.5135
14.5583
14.6016
14.6433
14.6835
14.7222
14.7594
14.795
14.8291
14.8615
14.8924
14.9216
14.9491
14.9748
14.9986
15.0203
15.0395
15.0554
15.0676
15.0723
15.0736
15.0385
-7.178
-7.25638
-7.38732
-7.54331
-7.72214
-7.92348
-8.14462
-8.38297
-8.63689
-8.90499
-9.18557
-9.47751
-9.77985
-10.0906
-10.4073
-10.7274
-11.0483
-11.3678
-11.6838
-11.9944
-12.2982
-12.5939
-12.8804
-13.157
-13.423
-13.6778
-13.921
-14.1521
-14.3705
-14.5759
-14.7677
-14.9455
-15.1085
-15.2563
-15.3881
-15.5034
-15.6013
-15.6813
-15.7427
-15.7847
-15.8069
-15.8085
-15.789
-15.748
-15.6851
-15.5999
-15.4922
-15.3619
-15.2089
-15.0332
-14.8349
-14.6143
-14.3717
-14.1075
-13.8223
-13.5165
-13.191
-12.8464
-12.4836
-12.1034
-11.7069
-11.295
-10.8687
-10.4292
-9.97754
-9.51486
-9.04231
-8.56103
-8.07218
-7.57689
-7.07629
-6.5715
-6.0636
-5.55366
-5.04269
-4.53169
-4.0216
-3.51332
-3.00771
-2.50557
-2.00767
-1.51472
-1.02738
-0.546254
-0.0719015
0.395171
0.854508
1.3057
1.7484
2.18228
2.60707
3.02255
3.42853
3.82486
4.21141
4.58812
4.95492
5.3118
5.65877
5.99586
6.32314
6.64067
6.94858
7.24698
7.53601
7.81583
8.08661
8.34853
8.60178
8.84657
9.08308
9.31155
9.53218
9.74519
9.95081
10.1493
10.3407
10.5255
10.7038
10.8758
11.0417
11.2017
11.3561
11.5051
11.6488
11.7875
11.9213
12.0505
12.1752
12.2956
12.4118
12.5241
12.6326
12.7374
12.8388
12.9367
13.0314
13.123
13.2116
13.2973
13.3802
13.4605
13.5383
13.6136
13.6865
13.7571
13.8256
13.8919
13.9562
14.0186
14.079
14.1376
14.1943
14.2494
14.3027
14.3544
14.4044
14.4529
14.4997
14.545
14.5887
14.6309
14.6715
14.7106
14.7481
14.784
14.8182
14.8508
14.8817
14.9107
14.9379
14.9631
14.986
15.0064
15.0238
15.0374
15.0465
15.0472
15.044
15.0036
-7.35602
-7.42056
-7.53145
-7.66995
-7.8339
-8.02282
-8.23434
-8.46578
-8.71466
-8.97864
-9.25547
-9.54397
-9.8429
-10.15
-10.4629
-10.7792
-11.0966
-11.4129
-11.7261
-12.0346
-12.3367
-12.6314
-12.9174
-13.1938
-13.46
-13.7152
-13.9589
-14.1906
-14.4096
-14.6155
-14.8077
-14.9857
-15.1488
-15.2964
-15.4279
-15.5426
-15.6398
-15.7189
-15.7792
-15.82
-15.8408
-15.841
-15.8201
-15.7776
-15.7132
-15.6265
-15.5174
-15.3856
-15.2312
-15.0543
-14.8549
-14.6333
-14.3899
-14.125
-13.8392
-13.5331
-13.2074
-12.8628
-12.5002
-12.1205
-11.7245
-11.3134
-10.8881
-10.4498
-9.9994
-9.53818
-9.06721
-8.58764
-8.1006
-7.60723
-7.10862
-6.60588
-6.10007
-5.59225
-5.08341
-4.57454
-4.06657
-3.56038
-3.05681
-2.55666
-2.06069
-1.56959
-1.08401
-0.604556
-0.131772
0.333841
0.791833
1.2418
1.68339
2.11628
2.54021
2.95495
3.36032
3.75615
4.14233
4.51878
4.88544
5.2423
5.58935
5.92663
6.2542
6.57213
6.88053
7.1795
7.4692
7.74976
8.02135
8.28415
8.53834
8.78411
9.02168
9.25123
9.47299
9.68716
9.89397
10.0936
10.2864
10.4724
10.6519
10.8252
10.9924
11.1537
11.3094
11.4596
11.6046
11.7446
11.8797
12.0101
12.136
12.2576
12.375
12.4884
12.5981
12.704
12.8064
12.9054
13.0011
13.0937
13.1833
13.27
13.3539
13.4351
13.5137
13.5899
13.6637
13.7351
13.8044
13.8715
13.9365
13.9996
14.0607
14.12
14.1774
14.2331
14.287
14.3393
14.3899
14.4389
14.4863
14.5321
14.5763
14.6189
14.66
14.6994
14.7372
14.7734
14.8078
14.8405
14.8714
14.9003
14.9271
14.9517
14.9737
14.9929
15.0086
15.0199
15.026
15.023
15.0157
14.971
-7.5306
-7.58207
-7.67464
-7.79527
-7.942
-8.11427
-8.31001
-8.52683
-8.76224
-9.0137
-9.27917
-9.55754
-9.84737
-10.1464
-10.4523
-10.7627
-11.0751
-11.3877
-11.6983
-12.0051
-12.3067
-12.6017
-12.8887
-13.1669
-13.4352
-13.6928
-13.9391
-14.1733
-14.3948
-14.6031
-14.7975
-14.9774
-15.142
-15.2909
-15.4233
-15.5386
-15.6361
-15.7152
-15.7752
-15.8155
-15.8356
-15.8349
-15.813
-15.7693
-15.7037
-15.6158
-15.5055
-15.3726
-15.2172
-15.0393
-14.8391
-14.6168
-14.3729
-14.1077
-13.8218
-13.5158
-13.1904
-12.8464
-12.4846
-12.1058
-11.7111
-11.3014
-10.8778
-10.4412
-9.99287
-9.53382
-9.06518
-8.58807
-8.10362
-7.61292
-7.11708
-6.61716
-6.11423
-5.60931
-5.10339
-4.59741
-4.09231
-3.58896
-3.08819
-2.59075
-2.09741
-1.60885
-1.12571
-0.648573
-0.17799
0.285549
0.7416
1.18976
1.62968
2.06105
2.48361
2.89711
3.30137
3.69625
4.08161
4.45737
4.82349
5.17993
5.52669
5.8638
6.19132
6.50932
6.81789
7.11714
7.40721
7.68824
7.96039
8.22382
8.47871
8.72526
8.96365
9.1941
9.41679
9.63195
9.83979
10.0405
10.2343
10.4215
10.6021
10.7765
10.9449
11.1074
11.2643
11.4157
11.5619
11.703
11.8392
11.9708
12.0979
12.2206
12.3391
12.4537
12.5644
12.6714
12.7748
12.8748
12.9716
13.0652
13.1557
13.2433
13.3282
13.4103
13.4898
13.5668
13.6414
13.7136
13.7836
13.8515
13.9173
13.981
14.0429
14.1028
14.1609
14.2172
14.2718
14.3247
14.3759
14.4254
14.4733
14.5197
14.5644
14.6075
14.6489
14.6887
14.7269
14.7633
14.798
14.8308
14.8616
14.8904
14.9169
14.9409
14.9621
14.9799
14.994
15.003
15.0063
15.0001
14.9891
14.9406
-7.65748
-7.69967
-7.77686
-7.88084
-8.01015
-8.16432
-8.34158
-8.53997
-8.75746
-8.99186
-9.24178
-9.5065
-9.78455
-10.0736
-10.3713
-10.6751
-10.9828
-11.2921
-11.601
-11.9074
-12.2098
-12.5066
-12.7963
-13.0778
-13.3499
-13.6117
-13.8621
-14.1005
-14.3261
-14.5381
-14.7359
-14.9188
-15.086
-15.2371
-15.3712
-15.4878
-15.5862
-15.6658
-15.726
-15.7662
-15.7859
-15.7846
-15.7619
-15.7175
-15.651
-15.5622
-15.451
-15.3174
-15.1613
-14.9829
-14.7823
-14.5599
-14.316
-14.0511
-13.7658
-13.4606
-13.1363
-12.7936
-12.4334
-12.0565
-11.6638
-11.2565
-10.8354
-10.4016
-9.95626
-9.50036
-9.03503
-8.56137
-8.08047
-7.59343
-7.10132
-6.60519
-6.10607
-5.60497
-5.10286
-4.60068
-4.09931
-3.59963
-3.10246
-2.60854
-2.1186
-1.63332
-1.15332
-0.679204
-0.211488
0.249336
0.702829
1.1486
1.58629
2.01559
2.43624
2.84801
3.2507
3.64416
4.02827
4.40295
4.76812
5.12377
5.46989
5.8065
6.13366
6.45142
6.75988
7.05914
7.34933
7.63059
7.90305
8.1669
8.42229
8.66942
8.90847
9.13963
9.3631
9.57909
9.78781
9.98946
10.1842
10.3724
10.5541
10.7295
10.8989
11.0625
11.2205
11.373
11.5203
11.6625
11.7999
11.9325
12.0607
12.1845
12.3041
12.4197
12.5315
12.6395
12.744
12.845
12.9427
13.0372
13.1287
13.2173
13.303
13.386
13.4663
13.5442
13.6195
13.6926
13.7634
13.832
13.8985
13.963
14.0255
14.0861
14.1449
14.2018
14.257
14.3105
14.3623
14.4124
14.4609
14.5077
14.5529
14.5965
14.6384
14.6786
14.7171
14.7538
14.7887
14.8216
14.8525
14.8811
14.9073
14.9307
14.9511
14.9678
14.9802
14.9872
14.9879
14.9787
14.9644
14.9126
-7.7127
-7.75088
-7.81641
-7.90542
-8.0177
-8.15319
-8.31082
-8.48927
-8.68697
-8.90238
-9.13501
-9.38474
-9.65021
-9.92902
-10.2186
-10.5164
-10.8201
-11.1272
-11.4355
-11.743
-12.0476
-12.3477
-12.6415
-12.9277
-13.2049
-13.4719
-13.7277
-13.9713
-14.2018
-14.4184
-14.6203
-14.8068
-14.9772
-15.1309
-15.2671
-15.3853
-15.4849
-15.5652
-15.6258
-15.6661
-15.6857
-15.6841
-15.661
-15.6161
-15.5491
-15.4599
-15.3484
-15.2145
-15.0583
-14.88
-14.6798
-14.458
-14.2151
-13.9514
-13.6675
-13.3641
-13.0419
-12.7016
-12.3441
-11.9702
-11.5808
-11.1769
-10.7596
-10.3298
-9.88856
-9.43698
-8.97612
-8.50705
-8.03085
-7.54859
-7.06131
-6.57004
-6.0758
-5.57956
-5.08227
-4.58484
-4.08816
-3.59306
-3.10035
-2.61079
-2.12508
-1.64386
-1.16777
-0.697381
-0.233221
0.224232
0.674542
1.11732
1.5522
1.9789
2.39713
2.80667
3.20733
3.59894
3.98139
4.35458
4.71845
5.07296
5.41811
5.75391
6.0804
6.39766
6.70575
7.00477
7.29485
7.57611
7.8487
8.11277
8.36849
8.61602
8.85557
9.0873
9.31142
9.52811
9.73759
9.94005
10.1357
10.3247
10.5073
10.6838
10.8542
11.0188
11.1778
11.3313
11.4796
11.6229
11.7613
11.8951
12.0243
12.1491
12.2698
12.3864
12.4992
12.6082
12.7137
12.8157
12.9143
13.0098
13.1022
13.1917
13.2783
13.3621
13.4433
13.522
13.5982
13.672
13.7435
13.8129
13.8801
13.9453
14.0085
14.0698
14.1292
14.1868
14.2427
14.2968
14.3491
14.3998
14.4489
14.4962
14.542
14.586
14.6284
14.669
14.7079
14.7449
14.78
14.8131
14.844
14.8725
14.8984
14.9213
14.9409
14.9564
14.9674
14.9724
14.9708
14.9589
14.9416
14.8872
-7.69813
-7.7322
-7.78887
-7.86408
-7.95916
-8.07495
-8.21144
-8.36828
-8.54467
-8.73993
-8.9545
-9.18888
-9.44181
-9.71081
-9.99319
-10.2862
-10.5873
-10.8938
-11.2033
-11.5134
-11.8218
-12.1266
-12.4258
-12.7178
-13.001
-13.2741
-13.5358
-13.785
-14.0208
-14.2422
-14.4483
-14.6385
-14.812
-14.9682
-15.1065
-15.2263
-15.327
-15.4081
-15.4692
-15.5098
-15.5295
-15.5279
-15.5048
-15.4598
-15.3929
-15.3039
-15.1927
-15.0593
-14.904
-14.7267
-14.5279
-14.3078
-14.0668
-13.8055
-13.5243
-13.224
-12.9051
-12.5686
-12.2151
-11.8455
-11.4607
-11.0617
-10.6495
-10.225
-9.78931
-9.34339
-8.88832
-8.42515
-7.95493
-7.47869
-6.99746
-6.51224
-6.02401
-5.53373
-5.04233
-4.5507
-4.0597
-3.57014
-3.08282
-2.59848
-2.11783
-1.6415
-1.17009
-0.704164
-0.244246
0.209182
0.655685
1.09487
1.5264
1.94995
2.36527
2.77211
3.17029
3.55964
3.94003
4.31136
4.67357
5.02662
5.37049
5.7052
6.03077
6.34727
6.65475
6.95333
7.24309
7.52417
7.7967
8.06083
8.31671
8.56452
8.80443
9.03661
9.26126
9.47855
9.68869
9.89188
10.0883
10.2781
10.4616
10.6389
10.8103
10.9758
11.1358
11.2904
11.4397
11.584
11.7234
11.8582
11.9884
12.1143
12.236
12.3536
12.4674
12.5774
12.6838
12.7868
12.8864
12.9828
13.0761
13.1665
13.254
13.3387
13.4207
13.5002
13.5771
13.6517
13.7241
13.7942
13.8621
13.928
13.9919
14.0539
14.114
14.1722
14.2287
14.2834
14.3364
14.3877
14.4373
14.4852
14.5315
14.5761
14.6189
14.66
14.6992
14.7366
14.772
14.8052
14.8362
14.8646
14.8903
14.9127
14.9316
14.9461
14.9557
14.959
14.9552
14.9409
14.9208
14.8644
-7.63358
-7.65867
-7.70476
-7.76337
-7.8381
-7.93101
-8.04331
-8.17588
-8.32893
-8.50275
-8.69874
-8.91791
-9.15904
-9.41943
-9.69608
-9.98602
-10.2863
-10.5939
-10.9062
-11.2203