/*--------------------------------*- C++ -*----------------------------------*\
  =========                 |
  \\      /  F ield         | OpenFOAM: The Open Source CFD Toolbox
   \\    /   O peration     | Website:  https://openfoam.org
    \\  /    A nd           | Version:  8
     \\/     M anipulation  |
\*---------------------------------------------------------------------------*/
FoamFile
{
    version     2.0;
    format      ascii;
    class       surfaceScalarField;
    location    "1000";
    object      phi;
}
// * * * * * * * * * * * * * * * * * * * * * * * * * * * * * * * * * * * * * //

dimensions      [0 3 -1 0 0 0 0];

internalField   nonuniform List<scalar> 
24170
(
3.92539e-06
-7.91498e-07
3.76465e-06
1.6075e-07
3.63345e-06
1.31209e-07
3.43331e-06
2.00144e-07
3.28028e-06
1.53027e-07
3.18901e-06
9.11906e-08
3.13091e-06
5.81104e-08
3.08609e-06
4.58913e-08
3.04613e-06
4.23237e-08
3.01059e-06
3.81631e-08
2.97876e-06
3.38027e-08
2.94904e-06
3.07704e-08
2.92187e-06
2.73777e-08
2.89642e-06
2.51997e-08
2.87227e-06
2.36046e-08
2.85194e-06
1.94824e-08
2.84098e-06
9.85508e-09
-6.38327e-09
2.84669e-06
3.58445e-06
-9.19499e-07
3.80424e-06
-5.90413e-08
3.74282e-06
1.92629e-07
3.6906e-06
2.52375e-07
3.63729e-06
2.06333e-07
3.59023e-06
1.3828e-07
3.55289e-06
9.55997e-08
3.52309e-06
7.56599e-08
3.49853e-06
6.657e-08
3.47732e-06
5.92156e-08
3.45871e-06
5.25296e-08
3.44253e-06
4.72648e-08
3.42795e-06
4.23378e-08
3.41466e-06
3.8786e-08
3.40269e-06
3.57294e-08
3.39122e-06
3.10506e-08
3.38037e-06
2.0839e-08
4.77421e-09
3.36944e-06
3.68518e-06
-7.92482e-07
3.83639e-06
-2.10251e-07
3.91494e-06
1.14082e-07
3.94502e-06
2.22293e-07
3.94408e-06
2.07264e-07
3.92749e-06
1.54897e-07
3.90755e-06
1.15615e-07
3.88932e-06
9.36447e-08
3.874e-06
8.11969e-08
3.86056e-06
7.19163e-08
3.84834e-06
6.42563e-08
3.83728e-06
5.81355e-08
3.82692e-06
5.2779e-08
3.8174e-06
4.84746e-08
3.80891e-06
4.44327e-08
3.80098e-06
3.92518e-08
3.79195e-06
3.02044e-08
1.77916e-08
3.77944e-06
4.05359e-06
-6.4151e-07
4.1146e-06
-2.71259e-07
4.20799e-06
2.06916e-08
4.26635e-06
1.63932e-07
4.29069e-06
1.82926e-07
4.29287e-06
1.52749e-07
4.28571e-06
1.22819e-07
4.27631e-06
1.02844e-07
4.26727e-06
8.96865e-08
4.25873e-06
7.98179e-08
4.25056e-06
7.19499e-08
4.24283e-06
6.56349e-08
4.23535e-06
6.02462e-08
4.22824e-06
5.56927e-08
4.22149e-06
5.13515e-08
4.21464e-06
4.63438e-08
4.20599e-06
3.91811e-08
3.0655e-08
4.19351e-06
4.50491e-06
-5.09114e-07
4.51536e-06
-2.81708e-07
4.58529e-06
-4.92341e-08
4.64665e-06
1.02566e-07
4.68258e-06
1.46992e-07
4.69688e-06
1.38473e-07
4.69946e-06
1.20237e-07
4.69723e-06
1.04926e-07
4.69331e-06
9.32554e-08
4.68868e-06
8.40576e-08
4.68367e-06
7.66421e-08
4.67851e-06
7.06082e-08
4.67321e-06
6.54943e-08
4.66783e-06
6.11054e-08
4.66227e-06
5.70041e-08
4.65606e-06
5.27017e-08
4.64786e-06
4.75886e-08
4.26015e-08
4.63612e-06
5.00014e-06
-3.94663e-07
4.98614e-06
-2.67704e-07
5.03069e-06
-9.37789e-08
5.08506e-06
4.8198e-08
5.12454e-06
1.07517e-07
5.14608e-06
1.1694e-07
5.15584e-06
1.10489e-07
5.1594e-06
1.01285e-07
5.15985e-06
9.26081e-08
5.15859e-06
8.50839e-08
5.15629e-06
7.87432e-08
5.15333e-06
7.34427e-08
5.14984e-06
6.89336e-08
5.14589e-06
6.50632e-08
5.14136e-06
6.15859e-08
5.13584e-06
5.83081e-08
5.12839e-06
5.51464e-08
5.30484e-08
5.11808e-06
5.54382e-06
-2.97475e-07
5.51664e-06
-2.40529e-07
5.54055e-06
-1.17686e-07
5.58388e-06
4.87039e-09
5.62166e-06
6.97344e-08
5.64656e-06
9.20462e-08
5.66107e-06
9.59686e-08
5.66906e-06
9.32473e-08
5.67315e-06
8.84246e-08
5.67482e-06
8.33013e-08
5.67491e-06
7.8552e-08
5.6739e-06
7.43756e-08
5.67204e-06
7.07655e-08
5.6694e-06
6.76954e-08
5.66591e-06
6.50989e-08
5.66127e-06
6.29868e-08
5.65494e-06
6.15453e-08
6.15298e-08
5.6465e-06
4.34788e-06
-2.39242e-07
4.32251e-06
-2.15162e-07
4.33078e-06
-1.25951e-07
4.35419e-06
-1.85362e-08
4.3784e-06
4.5526e-08
4.39646e-06
7.3985e-08
4.40841e-06
8.40229e-08
4.41597e-06
8.56738e-08
4.42059e-06
8.37679e-08
4.42325e-06
8.05978e-08
4.42456e-06
7.71966e-08
4.4249e-06
7.40027e-08
4.42447e-06
7.11798e-08
4.42334e-06
6.88097e-08
4.42151e-06
6.6936e-08
4.41885e-06
6.56697e-08
4.41514e-06
6.52672e-08
6.63469e-08
4.41035e-06
5.08621e-06
-1.85599e-07
5.05777e-06
-1.86718e-07
5.0584e-06
-1.26578e-07
5.07686e-06
-3.70023e-08
5.09918e-06
2.32141e-08
5.11773e-06
5.54363e-08
5.13124e-06
7.05071e-08
5.14059e-06
7.63169e-08
5.14686e-06
7.74757e-08
5.15094e-06
7.64972e-08
5.15344e-06
7.46762e-08
5.15477e-06
7.26661e-08
5.15514e-06
7.07964e-08
5.15468e-06
6.92635e-08
5.15341e-06
6.82091e-08
5.15128e-06
6.7812e-08
5.14821e-06
6.83488e-08
7.02701e-08
5.14429e-06
5.94839e-06
-1.38193e-07
5.91832e-06
-1.56649e-07
5.91161e-06
-1.19866e-07
5.924e-06
-4.93967e-08
5.94286e-06
4.35874e-09
5.96058e-06
3.77169e-08
5.97479e-06
5.62913e-08
5.98546e-06
6.56465e-08
5.9932e-06
6.97358e-08
5.99867e-06
7.10173e-08
6.00242e-06
7.09153e-08
6.00484e-06
7.02394e-08
6.00618e-06
6.94574e-08
6.00658e-06
6.88664e-08
6.0061e-06
6.86866e-08
6.00478e-06
6.9134e-08
6.00267e-06
7.04598e-08
7.29734e-08
5.99997e-06
6.95439e-06
-9.83129e-08
6.92401e-06
-1.26278e-07
6.91113e-06
-1.06984e-07
6.9168e-06
-5.50656e-08
6.93087e-06
-9.71033e-09
6.94635e-06
2.22395e-08
6.96015e-06
4.2493e-08
6.9714e-06
5.43963e-08
6.98017e-06
6.09615e-08
6.98684e-06
6.43476e-08
6.9918e-06
6.5955e-08
6.99537e-06
6.66642e-08
6.9978e-06
6.70298e-08
6.99924e-06
6.74231e-08
6.99982e-06
6.8112e-08
6.99963e-06
6.93227e-08
6.99883e-06
7.12655e-08
7.41269e-08
6.99767e-06
8.12719e-06
-6.64877e-08
8.09793e-06
-9.7021e-08
8.08056e-06
-8.96088e-08
8.07955e-06
-5.40586e-08
8.08793e-06
-1.80892e-08
8.09985e-06
1.0323e-08
8.11198e-06
3.0359e-08
8.12286e-06
4.35222e-08
8.13202e-06
5.17954e-08
8.1395e-06
5.68677e-08
8.14548e-06
5.99752e-08
8.15018e-06
6.19695e-08
8.15378e-06
6.34305e-08
8.15644e-06
6.4756e-08
8.15832e-06
6.62321e-08
8.15958e-06
6.80726e-08
8.1604e-06
7.0439e-08
7.34368e-08
8.16109e-06
9.49368e-06
-4.24386e-08
9.4668e-06
-7.01427e-08
9.44683e-06
-6.96402e-08
9.43991e-06
-4.71317e-08
9.44229e-06
-2.04677e-08
9.44965e-06
2.95562e-09
9.45895e-06
2.10646e-08
9.4684e-06
3.40706e-08
9.47716e-06
4.30363e-08
9.48491e-06
4.91206e-08
9.49159e-06
5.32933e-08
9.49727e-06
5.62911e-08
9.50205e-06
5.86456e-08
9.50607e-06
6.07372e-08
9.50947e-06
6.2833e-08
9.51242e-06
6.51187e-08
9.51515e-06
6.77128e-08
7.06686e-08
9.51792e-06
1.10854e-05
-2.5159e-08
1.10618e-05
-4.65025e-08
1.1041e-05
-4.88066e-08
1.10294e-05
-3.55515e-08
1.10261e-05
-1.71696e-08
1.10284e-05
6.05103e-10
1.1034e-05
1.54748e-08
1.10411e-05
2.69709e-08
1.10487e-05
3.54918e-08
1.10561e-05
4.17157e-08
1.1063e-05
4.63131e-08
1.10695e-05
4.98425e-08
1.10754e-05
5.27341e-08
1.10808e-05
5.5302e-08
1.10859e-05
5.77666e-08
1.10908e-05
6.02715e-08
1.10956e-05
6.28972e-08
6.5667e-08
1.11006e-05
1.29396e-05
-1.31186e-08
1.29194e-05
-2.62786e-08
1.28988e-05
-2.82518e-08
1.28839e-05
-2.06875e-08
1.28758e-05
-8.99563e-09
1.28732e-05
3.14503e-09
1.28748e-05
1.39401e-08
1.28789e-05
2.27886e-08
1.28847e-05
2.97446e-08
1.28913e-05
3.51431e-08
1.28982e-05
3.93833e-08
1.29052e-05
4.28279e-08
1.29122e-05
4.57693e-08
1.29191e-05
4.84243e-08
1.29259e-05
5.09422e-08
1.29327e-05
5.34144e-08
1.29397e-05
5.58841e-08
5.83542e-08
1.29471e-05
1.50998e-05
-4.48304e-09
1.50822e-05
-8.67604e-09
1.50621e-05
-8.11354e-09
1.50448e-05
-3.45819e-09
1.50327e-05
3.10967e-09
1.50259e-05
9.93866e-09
1.50237e-05
1.61618e-08
1.5025e-05
2.14642e-08
1.50289e-05
2.58532e-08
1.50346e-05
2.94846e-08
1.50414e-05
3.25543e-08
1.5049e-05
3.52428e-08
1.50571e-05
3.76934e-08
1.50655e-05
4.00073e-08
1.50742e-05
4.22471e-08
1.50832e-05
4.44421e-08
1.50925e-05
4.6595e-08
4.86873e-08
1.51021e-05
1.76171e-05
2.89316e-09
1.75999e-05
8.52298e-09
1.75787e-05
1.30295e-08
1.7559e-05
1.62776e-08
1.75436e-05
1.84721e-08
1.75336e-05
1.99572e-08
1.75287e-05
2.10516e-08
1.75282e-05
2.19929e-08
1.75311e-05
2.29389e-08
1.75366e-05
2.39848e-08
1.7544e-05
2.51767e-08
1.75527e-05
2.65276e-08
1.75624e-05
2.80259e-08
1.75727e-05
2.96465e-08
1.75836e-05
3.13524e-08
1.7595e-05
3.31029e-08
1.76067e-05
3.48518e-08
3.65545e-08
1.76188e-05
1.78181e-05
1.10003e-08
1.77994e-05
2.72123e-08
1.77768e-05
3.56238e-08
1.7756e-05
3.70579e-08
1.77402e-05
3.43253e-08
1.77302e-05
2.99453e-08
1.77257e-05
2.54987e-08
1.7726e-05
2.17763e-08
1.77298e-05
1.90733e-08
1.77364e-05
1.73984e-08
1.77449e-05
1.66313e-08
1.77549e-05
1.66027e-08
1.77658e-05
1.71416e-08
1.77773e-05
1.80902e-08
1.77894e-05
1.93163e-08
1.78017e-05
2.0706e-08
1.78144e-05
2.217e-08
2.36321e-08
1.78274e-05
1.58702e-05
2.21334e-08
1.58478e-05
4.95811e-08
1.58233e-05
6.01318e-08
1.58032e-05
5.72338e-08
1.57899e-05
4.76094e-08
1.57834e-05
3.637e-08
1.57827e-05
2.61954e-08
1.57864e-05
1.81441e-08
1.57931e-05
1.23625e-08
1.58019e-05
8.60992e-09
1.5812e-05
6.49506e-09
1.5823e-05
5.62842e-09
1.58345e-05
5.66606e-09
1.58462e-05
6.33214e-09
1.58581e-05
7.40527e-09
1.58701e-05
8.72173e-09
1.58821e-05
1.01528e-08
1.16093e-08
1.58942e-05
1.41313e-05
3.95386e-08
1.41021e-05
7.87067e-08
1.40745e-05
8.77874e-08
1.40557e-05
7.60377e-08
1.40469e-05
5.64122e-08
1.40462e-05
3.70379e-08
1.40512e-05
2.1208e-08
1.40597e-05
9.57954e-09
1.40704e-05
1.75965e-09
1.4082e-05
-3.05145e-09
1.40941e-05
-5.60585e-09
1.41063e-05
-6.56035e-09
1.41184e-05
-6.41183e-09
1.41303e-05
-5.55187e-09
1.41419e-05
-4.25058e-09
1.41534e-05
-2.7094e-09
1.41646e-05
-1.06579e-09
5.83074e-10
1.41756e-05
1.25772e-05
6.73555e-08
1.25392e-05
1.16739e-07
1.25091e-05
1.17888e-07
1.24942e-05
9.08903e-08
1.24928e-05
5.78127e-08
1.25002e-05
2.96814e-08
1.25122e-05
9.12879e-09
1.25264e-05
-4.49924e-09
1.25409e-05
-1.28385e-08
1.25552e-05
-1.73503e-08
1.25689e-05
-1.92846e-08
1.25819e-05
-1.94975e-08
1.25941e-05
-1.86483e-08
1.26057e-05
-1.71435e-08
1.26167e-05
-1.52903e-08
1.26273e-05
-1.32828e-08
1.26375e-05
-1.12496e-08
-9.27417e-09
1.26473e-05
1.11862e-05
1.10916e-07
1.11384e-05
1.6457e-07
1.11088e-05
1.4752e-07
1.11022e-05
9.74842e-08
1.11117e-05
4.83121e-08
1.11289e-05
1.24002e-08
1.11486e-05
-1.04632e-08
1.11678e-05
-2.373e-08
1.11855e-05
-3.05108e-08
1.12014e-05
-3.32932e-08
1.12157e-05
-3.35552e-08
1.12285e-05
-3.23566e-08
1.12402e-05
-3.02951e-08
1.12509e-05
-2.78385e-08
1.12608e-05
-2.52238e-08
1.12701e-05
-2.26143e-08
1.1279e-05
-2.01128e-08
-1.77512e-08
1.12875e-05
9.93908e-06
1.76452e-07
9.88248e-06
2.21163e-07
9.85873e-06
1.71262e-07
9.86593e-06
9.02753e-08
9.8896e-06
2.46383e-08
9.91759e-06
-1.55565e-08
9.94391e-06
-3.67965e-08
9.96668e-06
-4.64122e-08
9.98571e-06
-4.96144e-08
1.00017e-05
-4.92914e-08
1.00153e-05
-4.71294e-08
1.00269e-05
-4.39974e-08
1.00371e-05
-4.05282e-08
1.00463e-05
-3.69831e-08
1.00546e-05
-3.35401e-08
1.00623e-05
-3.03181e-08
1.00696e-05
-2.73586e-08
-2.46626e-08
1.00764e-05
8.81963e-06
2.69916e-07
8.75785e-06
2.82944e-07
8.74788e-06
1.81226e-07
8.77481e-06
6.33229e-08
8.81458e-06
-1.51292e-08
8.85212e-06
-5.30923e-08
8.88268e-06
-6.72306e-08
8.90623e-06
-7.00289e-08
8.92427e-06
-6.76222e-08
8.93843e-06
-6.33783e-08
8.94985e-06
-5.84097e-08
8.95927e-06
-5.33441e-08
8.96727e-06
-4.84774e-08
8.97429e-06
-4.39769e-08
8.98055e-06
-3.98163e-08
8.98629e-06
-3.60592e-08
8.99168e-06
-3.27848e-08
-2.98471e-08
8.99685e-06
7.81391e-06
3.96675e-07
7.75391e-06
3.42943e-07
7.76868e-06
1.6644e-07
7.82053e-06
1.14612e-08
7.87567e-06
-7.0274e-08
7.91912e-06
-9.64913e-08
7.94967e-06
-9.78364e-08
7.97057e-06
-9.06528e-08
7.98484e-06
-8.15952e-08
7.99525e-06
-7.35624e-08
8.00317e-06
-6.61256e-08
8.0094e-06
-5.94288e-08
8.0145e-06
-5.3338e-08
8.01892e-06
-4.82119e-08
8.02279e-06
-4.36674e-08
8.02626e-06
-3.96046e-08
8.0296e-06
-3.62069e-08
-3.3201e-08
8.0329e-06
6.90424e-06
5.66768e-07
6.86137e-06
3.85804e-07
6.91716e-06
1.10635e-07
6.99674e-06
-6.81328e-08
7.06253e-06
-1.36071e-07
7.10529e-06
-1.39268e-07
7.13032e-06
-1.22549e-07
7.14447e-06
-1.04621e-07
7.15207e-06
-8.89986e-08
7.15709e-06
-7.58184e-08
7.16038e-06
-6.66916e-08
7.16271e-06
-5.95588e-08
7.16421e-06
-5.41519e-08
7.16558e-06
-4.94554e-08
7.16675e-06
-4.49736e-08
7.16771e-06
-4.08466e-08
7.1688e-06
-3.76391e-08
-3.51286e-08
7.17004e-06
6.07162e-06
7.97662e-07
6.08526e-06
3.72164e-07
6.19865e-06
-2.77322e-09
6.29989e-06
-1.69397e-07
6.36526e-06
-2.01462e-07
6.39754e-06
-1.71503e-07
6.41011e-06
-1.35218e-07
6.41342e-06
-1.0695e-07
6.41239e-06
-8.58105e-08
6.40989e-06
-7.40381e-08
6.40749e-06
-6.45253e-08
6.40488e-06
-5.75992e-08
6.40237e-06
-5.13285e-08
6.40035e-06
-4.7012e-08
6.3984e-06
-4.30815e-08
6.39641e-06
-3.91724e-08
6.39475e-06
-3.6921e-08
-3.47322e-08
6.39408e-06
5.35805e-06
1.05451e-06
5.50649e-06
2.23716e-07
5.64777e-06
-1.44085e-07
5.73564e-06
-2.57314e-07
5.77646e-06
-2.42346e-07
5.78324e-06
-1.78423e-07
5.77527e-06
-1.26643e-07
5.76327e-06
-9.40068e-08
5.74975e-06
-7.56673e-08
5.73931e-06
-6.39912e-08
5.73029e-06
-5.65619e-08
5.72235e-06
-4.99795e-08
5.71442e-06
-4.46741e-08
5.70782e-06
-4.05657e-08
5.70185e-06
-3.69857e-08
5.69607e-06
-3.35173e-08
5.69145e-06
-3.16797e-08
-3.13868e-08
5.68767e-06
5.04576e-06
1.01105e-06
5.36491e-06
-9.54499e-08
5.35251e-06
-1.31767e-07
5.33285e-06
-2.37745e-07
5.296e-06
-2.05651e-07
5.25016e-06
-1.32588e-07
5.20891e-06
-8.47343e-08
5.17485e-06
-6.08245e-08
5.14636e-06
-4.98266e-08
5.12485e-06
-4.29234e-08
5.10673e-06
-3.93774e-08
5.09051e-06
-3.57034e-08
5.07531e-06
-3.14405e-08
5.06199e-06
-2.76024e-08
5.04966e-06
-2.44277e-08
5.0389e-06
-2.20366e-08
5.02966e-06
-2.20883e-08
-2.3382e-08
5.02214e-06
5.4676e-06
5.37215e-06
5.24037e-06
5.0026e-06
4.79694e-06
4.66444e-06
4.57967e-06
4.51835e-06
4.46848e-06
4.42538e-06
4.38566e-06
4.34948e-06
4.31793e-06
4.29038e-06
4.26609e-06
4.2442e-06
4.2223e-06
4.19948e-06
2.31266e-08
-2.31253e-08
2.37207e-07
-2.14082e-07
4.89334e-07
-2.52095e-07
7.09601e-07
-2.20245e-07
8.77317e-07
-1.67696e-07
9.88446e-07
-1.11119e-07
1.04411e-06
-5.56516e-08
1.04653e-06
-2.42182e-09
1.00103e-06
4.55121e-08
9.17755e-07
8.32664e-08
8.11955e-07
1.05809e-07
7.02766e-07
1.09174e-07
6.09981e-07
9.27799e-08
5.43691e-07
6.62992e-08
4.92543e-07
5.11647e-08
4.33358e-07
5.98852e-08
3.47045e-07
8.61729e-08
2.21938e-07
1.25878e-07
4.36244e-08
1.77895e-07
-2.0185e-07
2.44843e-07
-5.04394e-07
3.02286e-07
-8.45389e-07
3.40742e-07
-1.20973e-06
3.64349e-07
-1.58713e-06
3.77407e-07
-1.96873e-06
3.81639e-07
-2.34456e-06
3.75849e-07
-2.70659e-06
3.62054e-07
-3.04966e-06
3.43084e-07
-3.36995e-06
3.20301e-07
-3.66512e-06
2.95172e-07
-3.9343e-06
2.69188e-07
-4.17782e-06
2.43522e-07
-4.39669e-06
2.18881e-07
-4.59241e-06
1.9572e-07
-4.76668e-06
1.74265e-07
-4.92127e-06
1.54599e-07
-5.05796e-06
1.36683e-07
-5.17836e-06
1.20399e-07
-5.28394e-06
1.05587e-07
-5.37601e-06
9.20659e-08
-5.45566e-06
7.96547e-08
-5.52384e-06
6.81805e-08
-5.58133e-06
5.7488e-08
-5.62878e-06
4.74432e-08
-5.66671e-06
3.79372e-08
-5.6956e-06
2.88827e-08
-5.7158e-06
2.02083e-08
-5.72769e-06
1.18842e-08
-5.73173e-06
4.03837e-09
-5.72879e-06
-2.94095e-09
-5.71995e-06
-8.83919e-09
-5.70598e-06
-1.39657e-08
-5.6873e-06
-1.8682e-08
-5.66415e-06
-2.31493e-08
-5.6367e-06
-2.74458e-08
-5.6051e-06
-3.15995e-08
-5.56948e-06
-3.56253e-08
-5.52995e-06
-3.95299e-08
-5.48664e-06
-4.33144e-08
-5.43966e-06
-4.69777e-08
-5.38914e-06
-5.05172e-08
-5.33521e-06
-5.39296e-08
-5.278e-06
-5.72113e-08
-5.21764e-06
-6.03592e-08
-5.15427e-06
-6.33706e-08
-5.08803e-06
-6.62426e-08
-5.01906e-06
-6.89715e-08
-4.9475e-06
-7.15553e-08
-4.87351e-06
-7.39921e-08
-4.79723e-06
-7.62809e-08
-4.71881e-06
-7.84208e-08
-4.6384e-06
-8.04115e-08
-4.55614e-06
-8.22532e-08
-4.4722e-06
-8.39468e-08
-4.3867e-06
-8.54932e-08
-4.29981e-06
-8.68943e-08
-4.21166e-06
-8.81522e-08
-4.12239e-06
-8.92694e-08
-4.03214e-06
-9.0249e-08
-3.94104e-06
-9.10944e-08
-3.84923e-06
-9.18095e-08
-3.75684e-06
-9.23986e-08
-3.66397e-06
-9.28666e-08
-3.57075e-06
-9.32191e-08
-3.47729e-06
-9.34622e-08
-3.38368e-06
-9.36031e-08
-3.29003e-06
-9.36505e-08
-3.19642e-06
-9.36148e-08
-3.10291e-06
-9.35089e-08
-3.00956e-06
-9.33485e-08
-2.91641e-06
-9.31544e-08
-2.82346e-06
-9.29518e-08
-2.7307e-06
-9.27588e-08
-2.63814e-06
-9.25551e-08
-2.54589e-06
-9.22556e-08
-2.45413e-06
-9.17589e-08
-2.36315e-06
-9.09796e-08
-2.27321e-06
-8.9935e-08
-2.18443e-06
-8.87817e-08
-2.0968e-06
-8.7627e-08
-2.01033e-06
-8.64709e-08
-1.92504e-06
-8.52975e-08
-1.84094e-06
-8.40995e-08
-1.75806e-06
-8.2876e-08
-1.67643e-06
-8.16295e-08
-1.59607e-06
-8.03637e-08
-1.51698e-06
-7.90825e-08
-1.43919e-06
-7.77885e-08
-1.36271e-06
-7.64798e-08
-1.28758e-06
-7.51355e-08
-1.21381e-06
-7.37678e-08
-1.14141e-06
-7.24042e-08
-1.07037e-06
-7.104e-08
-1.00069e-06
-6.96763e-08
-9.32374e-07
-6.8314e-08
-8.65418e-07
-6.69546e-08
-7.99817e-07
-6.56005e-08
-7.35562e-07
-6.42543e-08
-6.72643e-07
-6.2918e-08
-6.11051e-07
-6.15908e-08
-5.50776e-07
-6.02735e-08
-4.91806e-07
-5.8969e-08
-4.34121e-07
-5.76831e-08
-3.77698e-07
-5.64216e-08
-3.22516e-07
-5.51802e-08
-2.68559e-07
-5.39557e-08
-2.15806e-07
-5.2752e-08
-1.64236e-07
-5.15682e-08
-1.13842e-07
-5.03926e-08
-6.46157e-08
-4.9225e-08
-1.6679e-08
-4.79356e-08
3.00998e-08
-4.67778e-08
7.60277e-08
-4.59273e-08
1.20999e-07
-4.49708e-08
1.6491e-07
-4.39113e-08
2.07758e-07
-4.28479e-08
2.49558e-07
-4.18016e-08
2.90343e-07
-4.07851e-08
3.30142e-07
-3.98005e-08
3.68986e-07
-3.88462e-08
4.06905e-07
-3.79204e-08
4.43925e-07
-3.70218e-08
4.80072e-07
-3.61492e-08
5.15371e-07
-3.5302e-08
5.49848e-07
-3.44796e-08
5.83527e-07
-3.36818e-08
6.16433e-07
-3.29081e-08
6.48589e-07
-3.21585e-08
6.80019e-07
-3.14328e-08
7.10748e-07
-3.07312e-08
7.408e-07
-3.00535e-08
7.70198e-07
-2.93998e-08
7.98966e-07
-2.87702e-08
8.27129e-07
-2.81648e-08
8.5471e-07
-2.75833e-08
8.81734e-07
-2.7026e-08
9.08225e-07
-2.64924e-08
9.34205e-07
-2.59826e-08
9.59699e-07
-2.54958e-08
9.84728e-07
-2.50313e-08
1.00931e-06
-2.45879e-08
1.03348e-06
-2.41635e-08
1.05723e-06
-2.37556e-08
1.08059e-06
-2.33599e-08
1.10356e-06
-2.29707e-08
1.12614e-06
-2.258e-08
1.14831e-06
-2.21764e-08
1.17005e-06
-2.1744e-08
1.19131e-06
-2.12608e-08
1.21201e-06
-2.06956e-08
1.23201e-06
-2.00043e-08
1.25113e-06
-1.91231e-08
1.26909e-06
-1.79545e-08
1.28544e-06
-1.63544e-08
1.29949e-06
-1.40474e-08
1.31011e-06
-1.06232e-08
1.31468e-06
-4.55828e-09
1.30783e-06
6.85768e-09
1.27828e-06
2.95389e-08
7.2332e-08
1.20595e-06
2.54189e-07
-2.77335e-07
4.90088e-07
-4.49977e-07
6.39671e-07
-4.01675e-07
7.24303e-07
-3.04874e-07
7.63817e-07
-2.072e-07
7.69763e-07
-1.17068e-07
7.48831e-07
-3.47133e-08
7.06648e-07
3.97533e-08
6.46288e-07
1.05878e-07
5.67659e-07
1.61885e-07
4.70043e-07
2.03431e-07
3.51771e-07
2.27434e-07
2.06805e-07
2.37751e-07
2.36012e-08
2.49517e-07
-2.08623e-07
2.83395e-07
-4.94274e-07
3.45628e-07
-8.32242e-07
4.2423e-07
-1.2121e-06
5.05757e-07
-1.61593e-06
5.81673e-07
-2.01737e-06
6.46229e-07
-2.40739e-06
6.92258e-07
-2.78286e-06
7.16203e-07
-3.13781e-06
7.19288e-07
-3.46522e-06
7.0483e-07
-3.75998e-06
6.76401e-07
-4.02112e-06
6.36992e-07
-4.24905e-06
5.89993e-07
-4.44506e-06
5.39097e-07
-4.61205e-06
4.87293e-07
-4.75353e-06
4.36655e-07
-4.87287e-06
3.88532e-07
-4.97325e-06
3.43896e-07
-5.05753e-06
3.03163e-07
-5.12823e-06
2.66419e-07
-5.18746e-06
2.33501e-07
-5.23697e-06
2.04108e-07
-5.27816e-06
1.77868e-07
-5.31215e-06
1.54391e-07
-5.33986e-06
1.33295e-07
-5.36202e-06
1.14228e-07
-5.37924e-06
9.68794e-08
-5.39205e-06
8.09831e-08
-5.40088e-06
6.63172e-08
-5.40613e-06
5.27001e-08
-5.40818e-06
3.99848e-08
-5.40735e-06
2.80564e-08
-5.40398e-06
1.68373e-08
-5.39839e-06
6.29247e-09
-5.39073e-06
-3.62196e-09
-5.38058e-06
-1.30958e-08
-5.36705e-06
-2.23692e-08
-5.34954e-06
-3.14713e-08
-5.32789e-06
-4.03363e-08
-5.30208e-06
-4.89607e-08
-5.27217e-06
-5.73512e-08
-5.23826e-06
-6.55141e-08
-5.20043e-06
-7.34522e-08
-5.15879e-06
-8.1165e-08
-5.11346e-06
-8.86491e-08
-5.06454e-06
-9.5899e-08
-5.01215e-06
-1.02908e-07
-4.95641e-06
-1.09668e-07
-4.89745e-06
-1.16172e-07
-4.8354e-06
-1.22412e-07
-4.77038e-06
-1.28384e-07
-4.70255e-06
-1.34081e-07
-4.63202e-06
-1.39496e-07
-4.55895e-06
-1.44624e-07
-4.48348e-06
-1.49463e-07
-4.40575e-06
-1.54009e-07
-4.32591e-06
-1.58261e-07
-4.24411e-06
-1.62218e-07
-4.16048e-06
-1.65882e-07
-4.07517e-06
-1.69252e-07
-3.98833e-06
-1.72332e-07
-3.9001e-06
-1.75125e-07
-3.81062e-06
-1.77635e-07
-3.72002e-06
-1.79868e-07
-3.62844e-06
-1.81828e-07
-3.53601e-06
-1.83523e-07
-3.44286e-06
-1.84961e-07
-3.34911e-06
-1.86149e-07
-3.25488e-06
-1.87098e-07
-3.16028e-06
-1.87817e-07
-3.06543e-06
-1.88316e-07
-2.97043e-06
-1.88607e-07
-2.87537e-06
-1.88702e-07
-2.78037e-06
-1.88615e-07
-2.68552e-06
-1.88358e-07
-2.59093e-06
-1.87944e-07
-2.4967e-06
-1.87384e-07
-2.40296e-06
-1.86687e-07
-2.30988e-06
-1.85846e-07
-2.2176e-06
-1.84833e-07
-2.12625e-06
-1.83606e-07
-2.03587e-06
-1.82134e-07
-1.94644e-06
-1.80414e-07
-1.85789e-06
-1.78486e-07
-1.77024e-06
-1.76428e-07
-1.68357e-06
-1.74293e-07
-1.59795e-06
-1.72094e-07
-1.51342e-06
-1.69834e-07
-1.43e-06
-1.67512e-07
-1.34775e-06
-1.65133e-07
-1.26667e-06
-1.62702e-07
-1.18681e-06
-1.60226e-07
-1.10818e-06
-1.57708e-07
-1.03082e-06
-1.55153e-07
-9.54737e-07
-1.52563e-07
-8.79936e-07
-1.49937e-07
-8.06414e-07
-1.47289e-07
-7.34185e-07
-1.44633e-07
-6.63253e-07
-1.41972e-07
-5.93619e-07
-1.3931e-07
-5.25283e-07
-1.36649e-07
-4.58243e-07
-1.33994e-07
-3.92496e-07
-1.31347e-07
-3.28037e-07
-1.28713e-07
-2.64855e-07
-1.26099e-07
-2.0294e-07
-1.23505e-07
-1.42282e-07
-1.2093e-07
-8.28719e-08
-1.18379e-07
-2.47011e-08
-1.15853e-07
3.22436e-08
-1.13365e-07
8.79902e-08
-1.10926e-07
1.42556e-07
-1.08521e-07
1.95952e-07
-1.06147e-07
2.48192e-07
-1.03808e-07
2.99305e-07
-1.01504e-07
3.49318e-07
-9.92381e-08
3.98391e-07
-9.70078e-08
4.46497e-07
-9.48834e-08
4.9342e-07
-9.28495e-08
5.39226e-07
-9.07771e-08
5.83994e-07
-8.86796e-08
6.27756e-07
-8.66096e-08
6.7054e-07
-8.45863e-08
7.12371e-07
-8.26167e-08
7.53272e-07
-8.0702e-08
7.93267e-07
-7.8841e-08
8.32378e-07
-7.70321e-08
8.70629e-07
-7.52738e-08
9.08043e-07
-7.35648e-08
9.44644e-07
-7.19042e-08
9.80455e-07
-7.02914e-08
1.0155e-06
-6.87261e-08
1.0498e-06
-6.72078e-08
1.08337e-06
-6.57363e-08
1.11625e-06
-6.43117e-08
1.14845e-06
-6.29337e-08
1.18e-06
-6.16026e-08
1.21092e-06
-6.03183e-08
1.24123e-06
-5.90809e-08
1.27095e-06
-5.78903e-08
1.30011e-06
-5.67463e-08
1.32873e-06
-5.5649e-08
1.35684e-06
-5.45977e-08
1.38445e-06
-5.3592e-08
1.41158e-06
-5.26303e-08
1.43826e-06
-5.17113e-08
1.4645e-06
-5.0832e-08
1.49032e-06
-4.99887e-08
1.51574e-06
-4.91757e-08
1.54077e-06
-4.83852e-08
1.5654e-06
-4.76061e-08
1.58964e-06
-4.6823e-08
1.61348e-06
-4.60147e-08
1.63689e-06
-4.51516e-08
1.65982e-06
-4.41927e-08
1.6822e-06
-4.30804e-08
1.70393e-06
-4.1733e-08
1.72484e-06
-4.00326e-08
1.74469e-06
-3.78024e-08
1.76311e-06
-3.47729e-08
1.77954e-06
-3.04835e-08
1.7931e-06
-2.41818e-08
1.80282e-06
-1.4274e-08
1.80769e-06
1.99785e-09
1.8058e-06
3.14254e-08
8.80345e-08
1.79009e-06
2.4601e-07
-5.23365e-07
3.42322e-07
-5.46292e-07
3.58608e-07
-4.17959e-07
3.47563e-07
-2.9382e-07
3.19861e-07
-1.79492e-07
2.75778e-07
-7.29839e-08
2.146e-07
2.64667e-08
1.35279e-07
1.1907e-07
3.67521e-08
2.04406e-07
-8.31439e-08
2.81778e-07
-2.30115e-07
3.50401e-07
-4.1468e-07
4.11999e-07
-6.50249e-07
4.73318e-07
-9.43742e-07
5.43014e-07
-1.285e-06
6.24647e-07
-1.6521e-06
7.12729e-07
-2.0242e-06
7.96333e-07
-2.38446e-06
8.65999e-07
-2.71897e-06
9.16165e-07
-3.01718e-06
9.44434e-07
-3.27525e-06
9.50319e-07
-3.49413e-06
9.35098e-07
-3.67683e-06
9.01994e-07
-3.82739e-06
8.55391e-07
-3.95053e-06
7.99539e-07
-4.05166e-06
7.38123e-07
-4.13611e-06
6.74444e-07
-4.20827e-06
6.11262e-07
-4.27158e-06
5.50607e-07
-4.32866e-06
4.93733e-07
-4.38138e-06
4.41248e-07
-4.43086e-06
3.93385e-07
-4.47776e-06
3.5006e-07
-4.52233e-06
3.10992e-07
-4.56462e-06
2.75791e-07
-4.60453e-06
2.44017e-07
-4.64189e-06
2.1523e-07
-4.67652e-06
1.89014e-07
-4.70821e-06
1.64993e-07
-4.73682e-06
1.42836e-07
-4.7622e-06
1.2226e-07
-4.78425e-06
1.03027e-07
-4.80287e-06
8.49403e-08
-4.818e-06
6.78334e-08
-4.82959e-06
5.15668e-08
-4.83755e-06
3.60215e-08
-4.84181e-06
2.10956e-08
-4.84221e-06
6.69529e-09
-4.83855e-06
-7.2861e-09
-4.83068e-06
-2.09629e-08
-4.81866e-06
-3.43947e-08
-4.80256e-06
-4.75691e-08
-4.78243e-06
-6.04638e-08
-4.75832e-06
-7.30705e-08
-4.73029e-06
-8.53827e-08
-4.69841e-06
-9.73946e-08
-4.66276e-06
-1.09099e-07
-4.62344e-06
-1.20488e-07
-4.58054e-06
-1.31551e-07
-4.53416e-06
-1.42276e-07
-4.48442e-06
-1.52652e-07
-4.43142e-06
-1.62665e-07
-4.37529e-06
-1.72301e-07
-4.31615e-06
-1.81551e-07
-4.25413e-06
-1.90406e-07
-4.18935e-06
-1.98856e-07
-4.12196e-06
-2.0689e-07
-4.05208e-06
-2.14501e-07
-3.97986e-06
-2.21683e-07
-3.90544e-06
-2.28434e-07
-3.82895e-06
-2.34749e-07
-3.75054e-06
-2.40629e-07
-3.67035e-06
-2.46073e-07
-3.58852e-06
-2.51083e-07
-3.50519e-06
-2.55662e-07
-3.4205e-06
-2.59815e-07
-3.33458e-06
-2.63548e-07
-3.24758e-06
-2.66869e-07
-3.15963e-06
-2.69785e-07
-3.07084e-06
-2.72305e-07
-2.98136e-06
-2.74442e-07
-2.89131e-06
-2.76206e-07
-2.80079e-06
-2.7761e-07
-2.70994e-06
-2.78667e-07
-2.61887e-06
-2.79391e-07
-2.52768e-06
-2.79797e-07
-2.43648e-06
-2.799e-07
-2.34538e-06
-2.79715e-07
-2.25448e-06
-2.79256e-07
-2.16389e-06
-2.78536e-07
-2.07371e-06
-2.77567e-07
-1.98404e-06
-2.76354e-07
-1.89499e-06
-2.74897e-07
-1.80664e-06
-2.73183e-07
-1.71905e-06
-2.71197e-07
-1.63224e-06
-2.68937e-07
-1.54624e-06
-2.66417e-07
-1.46105e-06
-2.63675e-07
-1.37673e-06
-2.60756e-07
-1.29332e-06
-2.57695e-07
-1.21091e-06
-2.54512e-07
-1.12952e-06
-2.5122e-07
-1.0492e-06
-2.47827e-07
-9.69992e-07
-2.44345e-07
-8.91914e-07
-2.40781e-07
-8.14995e-07
-2.37144e-07
-7.3926e-07
-2.33444e-07
-6.64726e-07
-2.29687e-07
-5.91408e-07
-2.2588e-07
-5.19313e-07
-2.22032e-07
-4.48447e-07
-2.18154e-07
-3.78823e-07
-2.14258e-07
-3.10444e-07
-2.1035e-07
-2.43315e-07
-2.06439e-07
-1.77434e-07
-2.0253e-07
-1.128e-07
-1.98628e-07
-4.94084e-08
-1.94738e-07
1.27462e-08
-1.90867e-07
7.36685e-08
-1.87021e-07
1.33366e-07
-1.83203e-07
1.91853e-07
-1.79416e-07
2.49141e-07
-1.75666e-07
3.05245e-07
-1.71957e-07
3.60177e-07
-1.68297e-07
4.13944e-07
-1.64692e-07
4.66561e-07
-1.61137e-07
5.18048e-07
-1.57633e-07
5.68424e-07
-1.54184e-07
6.17711e-07
-1.50792e-07
6.65939e-07
-1.47466e-07
7.13151e-07
-1.44219e-07
7.59329e-07
-1.41061e-07
8.04439e-07
-1.3796e-07
8.4853e-07
-1.34868e-07
8.91646e-07
-1.31796e-07
9.3381e-07
-1.28774e-07
9.7504e-07
-1.25817e-07
1.01536e-06
-1.22933e-07
1.05478e-06
-1.20123e-07
1.09332e-06
-1.17388e-07
1.13102e-06
-1.14725e-07
1.16788e-06
-1.12135e-07
1.20393e-06
-1.09617e-07
1.23919e-06
-1.07168e-07
1.27369e-06
-1.0479e-07
1.30744e-06
-1.02481e-07
1.34048e-06
-1.00241e-07
1.37281e-06
-9.80698e-08
1.40446e-06
-9.59676e-08
1.43546e-06
-9.39342e-08
1.46583e-06
-9.19697e-08
1.49559e-06
-9.0074e-08
1.52475e-06
-8.82471e-08
1.55335e-06
-8.64891e-08
1.5814e-06
-8.47997e-08
1.60893e-06
-8.31787e-08
1.63596e-06
-8.16254e-08
1.6625e-06
-8.01387e-08
1.68859e-06
-7.87169e-08
1.71424e-06
-7.73574e-08
1.73946e-06
-7.60562e-08
1.76428e-06
-7.48079e-08
1.78871e-06
-7.36044e-08
1.81276e-06
-7.24346e-08
1.83643e-06
-7.12826e-08
1.85974e-06
-7.0127e-08
1.88266e-06
-6.89378e-08
1.90518e-06
-6.76736e-08
1.92726e-06
-6.62771e-08
1.94885e-06
-6.46683e-08
1.96985e-06
-6.27339e-08
1.99013e-06
-6.03111e-08
2.00949e-06
-5.71595e-08
2.02763e-06
-5.29155e-08
2.04413e-06
-4.69887e-08
2.05839e-06
-3.84392e-08
2.06963e-06
-2.55073e-08
2.07697e-06
-5.34919e-09
2.08087e-06
2.75237e-08
8.54955e-08
2.08341e-06
9.37326e-08
-6.17107e-07
6.23877e-08
-5.14959e-07
1.39032e-08
-3.69466e-07
-4.31891e-08
-2.3672e-07
-1.12688e-07
-1.09987e-07
-1.98061e-07
1.23942e-08
-3.02295e-07
1.30702e-07
-4.27803e-07
2.44579e-07
-5.77163e-07
3.53766e-07
-7.53758e-07
4.58373e-07
-9.62346e-07
5.58987e-07
-1.20724e-06
6.56896e-07
-1.48723e-06
7.53306e-07
-1.79152e-06
8.47298e-07
-2.10141e-06
9.34525e-07
-2.39726e-06
1.00857e-06
-2.66459e-06
1.06366e-06
-2.89514e-06
1.09653e-06
-3.08563e-06
1.10665e-06
-3.23689e-06
1.09569e-06
-3.35326e-06
1.06669e-06
-3.44129e-06
1.02314e-06
-3.50811e-06
9.68813e-07
-3.56022e-06
9.07509e-07
-3.60312e-06
8.4244e-07
-3.64123e-06
7.76239e-07
-3.67781e-06
7.11019e-07
-3.71487e-06
6.48328e-07
-3.75344e-06
5.89169e-07
-3.79376e-06
5.34062e-07
-3.83568e-06
4.83161e-07
-3.87868e-06
4.36387e-07
-3.92213e-06
3.93507e-07
-3.96533e-06
3.54201e-07
-4.00765e-06
3.18106e-07
-4.04849e-06
2.84852e-07
-4.08734e-06
2.54082e-07
-4.12379e-06
2.25463e-07
-4.15749e-06
1.98698e-07
-4.18818e-06
1.73521e-07
-4.21562e-06
1.49703e-07
-4.23964e-06
1.27048e-07
-4.26009e-06
1.05389e-07
-4.27684e-06
8.45849e-08
-4.28979e-06
6.45161e-08
-4.29885e-06
4.5081e-08
-4.30395e-06
2.61934e-08
-4.30503e-06
7.77639e-09
-4.30207e-06
-1.02437e-08
-4.29511e-06
-2.79279e-08
-4.2842e-06
-4.53043e-08
-4.2694e-06
-6.23696e-08
-4.25075e-06
-7.91113e-08
-4.2283e-06
-9.55165e-08
-4.20211e-06
-1.11572e-07
-4.17225e-06
-1.27263e-07
-4.13877e-06
-1.42574e-07
-4.10177e-06
-1.57489e-07
-4.06133e-06
-1.71989e-07
-4.01755e-06
-1.86058e-07
-3.97053e-06
-1.99676e-07
-3.92037e-06
-2.12824e-07
-3.86718e-06
-2.25484e-07
-3.8111e-06
-2.3764e-07
-3.75222e-06
-2.4928e-07
-3.69069e-06
-2.60391e-07
-3.62662e-06
-2.70958e-07
-3.56015e-06
-2.80971e-07
-3.49141e-06
-2.90424e-07
-3.42053e-06
-2.99309e-07
-3.34766e-06
-3.07625e-07
-3.27292e-06
-3.15367e-07
-3.19645e-06
-3.22538e-07
-3.1184e-06
-3.29138e-07
-3.03889e-06
-3.35172e-07
-2.95806e-06
-3.40645e-07
-2.87604e-06
-3.45565e-07
-2.79297e-06
-3.49942e-07
-2.70897e-06
-3.53785e-07
-2.62417e-06
-3.57107e-07
-2.53869e-06
-3.59921e-07
-2.45265e-06
-3.62243e-07
-2.36618e-06
-3.64086e-07
-2.27937e-06
-3.65469e-07
-2.19236e-06
-3.66407e-07
-2.10524e-06
-3.6692e-07
-2.01811e-06
-3.67024e-07
-1.93109e-06
-3.66738e-07
-1.84427e-06
-3.66079e-07
-1.75774e-06
-3.65062e-07
-1.67161e-06
-3.63702e-07
-1.58595e-06
-3.62009e-07
-1.50086e-06
-3.5999e-07
-1.41639e-06
-3.57648e-07
-1.33261e-06
-3.54983e-07
-1.24954e-06
-3.52007e-07
-1.16722e-06
-3.48738e-07
-1.08568e-06
-3.45208e-07
-1.00499e-06
-3.41452e-07
-9.25182e-07
-3.375e-07
-8.46317e-07
-3.33377e-07
-7.68437e-07
-3.291e-07
-6.91579e-07
-3.24685e-07
-6.15778e-07
-3.20146e-07
-5.41061e-07
-3.15497e-07
-4.67455e-07
-3.10751e-07
-3.9498e-07
-3.05918e-07
-3.23656e-07
-3.0101e-07
-2.53496e-07
-2.9604e-07
-1.84509e-07
-2.91019e-07
-1.16706e-07
-2.85958e-07
-5.00933e-08
-2.8087e-07
1.53221e-08
-2.75765e-07
7.9536e-08