/*--------------------------------*- C++ -*----------------------------------*\
  =========                 |
  \\      /  F ield         | OpenFOAM: The Open Source CFD Toolbox
   \\    /   O peration     | Website:  https://openfoam.org
    \\  /    A nd           | Version:  8
     \\/     M anipulation  |
\*---------------------------------------------------------------------------*/
FoamFile
{
    version     2.0;
    format      ascii;
    class       volVectorField;
    location    "1000";
    object      U;
}
// * * * * * * * * * * * * * * * * * * * * * * * * * * * * * * * * * * * * * //

dimensions      [0 1 -1 0 0 0 0];

internalField   nonuniform List<vector> 
12225
(
(9.2745 -4.73371 0)
(13.1094 -1.71343 0)
(12.4778 -0.395198 0)
(11.2771 -0.0422041 0)
(10.6314 0.0141384 0)
(10.2979 -9.39434e-05 0)
(10.0776 -0.0165233 0)
(9.91227 -0.00288819 0)
(9.77909 0.0348747 0)
(9.66231 0.0428928 0)
(9.55574 0.0248832 0)
(9.45767 0.00214215 0)
(9.36676 -0.0227919 0)
(9.28212 -0.0302255 0)
(9.20233 -0.0217883 0)
(9.13254 -0.0212286 0)
(9.07017 -0.0210411 0)
(9.08963 -0.027701 0)
(10.2592 0.0928019 0)
(10.7814 0.199339 0)
(10.9594 0.245656 0)
(10.7469 0.229144 0)
(10.5875 0.172969 0)
(10.4527 0.115535 0)
(10.33 0.0823315 0)
(10.2327 0.06473 0)
(10.155 0.0524767 0)
(10.0894 0.0472339 0)
(10.0323 0.0469929 0)
(9.98212 0.0489903 0)
(9.93785 0.0517974 0)
(9.89833 0.051942 0)
(9.86151 0.048324 0)
(9.82886 0.0438412 0)
(9.79429 0.0300775 0)
(9.76828 0.010277 0)
(9.87768 -0.24504 0)
(9.74285 0.00579114 0)
(10.1971 0.125744 0)
(10.3245 0.179364 0)
(10.3564 0.161548 0)
(10.3311 0.120077 0)
(10.2777 0.0904941 0)
(10.2252 0.0746659 0)
(10.1812 0.0658753 0)
(10.1438 0.060029 0)
(10.1103 0.0562085 0)
(10.0799 0.053651 0)
(10.052 0.0511361 0)
(10.026 0.0487615 0)
(10.0023 0.0460741 0)
(9.98118 0.0417657 0)
(9.95915 0.0316669 0)
(9.93459 0.013571 0)
(9.83416 -0.443933 0)
(9.57654 -0.163146 0)
(9.91603 0.0336708 0)
(10.0933 0.134225 0)
(10.1892 0.145473 0)
(10.2168 0.120739 0)
(10.205 0.0978952 0)
(10.1824 0.0839095 0)
(10.1599 0.0756297 0)
(10.1389 0.0697123 0)
(10.119 0.0651344 0)
(10.1001 0.0616373 0)
(10.0821 0.0586127 0)
(10.0648 0.0562284 0)
(10.0483 0.0538532 0)
(10.0325 0.0501424 0)
(10.0148 0.0424147 0)
(9.99178 0.0306074 0)
(9.87825 -0.387476 0)
(9.61653 -0.196147 0)
(9.81623 -0.01867 0)
(9.96136 0.0916132 0)
(10.0698 0.122197 0)
(10.1219 0.113628 0)
(10.1354 0.0992643 0)
(10.1332 0.088421 0)
(10.1257 0.0809485 0)
(10.1162 0.0753966 0)
(10.1056 0.071124 0)
(10.0946 0.0678815 0)
(10.0833 0.0652536 0)
(10.0718 0.0631555 0)
(10.0601 0.0610429 0)
(10.0477 0.058104 0)
(10.0328 0.0530774 0)
(10.0125 0.0468982 0)
(9.91439 -0.28804 0)
(9.68304 -0.185176 0)
(9.78717 -0.0532073 0)
(9.88917 0.0509995 0)
(9.98796 0.0936802 0)
(10.0476 0.0992041 0)
(10.0751 0.0938744 0)
(10.0861 0.0875181 0)
(10.0892 0.0821205 0)
(10.0879 0.0777644 0)
(10.0842 0.0743506 0)
(10.0789 0.0717597 0)
(10.0726 0.0697411 0)
(10.0654 0.0681708 0)
(10.0572 0.0667241 0)
(10.0476 0.0650408 0)
(10.0354 0.0627798 0)
(10.0185 0.0611662 0)
(9.93763 -0.214041 0)
(9.74856 -0.167535 0)
(9.79244 -0.0752152 0)
(9.85608 0.0162208 0)
(9.93595 0.0644222 0)
(9.99281 0.0805954 0)
(10.0261 0.0835614 0)
(10.0447 0.0822435 0)
(10.0546 0.0797793 0)
(10.0593 0.0772873 0)
(10.0606 0.0751756 0)
(10.0596 0.0735585 0)
(10.057 0.0723885 0)
(10.053 0.071634 0)
(10.0477 0.071189 0)
(10.0407 0.0710135 0)
(10.0312 0.071275 0)
(10.0182 0.0731483 0)
(9.95263 -0.167334 0)
(9.79947 -0.149676 0)
(9.81177 -0.0846411 0)
(9.84959 -0.00621003 0)
(9.9114 0.0419322 0)
(9.96107 0.0638973 0)
(9.99432 0.0725501 0)
(10.0156 0.0752862 0)
(10.0289 0.0755298 0)
(10.0367 0.0749033 0)
(10.041 0.0741474 0)
(10.0427 0.0735812 0)
(10.0425 0.0733223 0)
(10.0408 0.0734473 0)
(10.0375 0.074004 0)
(10.0325 0.075134 0)
(10.0254 0.0772018 0)
(10.0157 0.0812009 0)
(9.96406 -0.132089 0)
(9.84003 -0.131988 0)
(9.83337 -0.0876897 0)
(9.85306 -0.0213324 0)
(9.89927 0.0244159 0)
(9.94102 0.0495132 0)
(9.97207 0.0621235 0)
(9.99385 0.0680768 0)
(10.0086 0.0706959 0)
(10.0184 0.0717944 0)
(10.0246 0.0723172 0)
(10.0282 0.072753 0)
(10.0298 0.0733596 0)
(10.0297 0.0743178 0)
(10.028 0.0757854 0)
(10.0248 0.0780055 0)
(10.0197 0.0814081 0)
(10.0129 0.0868045 0)
(9.97418 -0.100205 0)
(9.87757 -0.11239 0)
(9.85857 -0.085366 0)
(9.86387 -0.0323326 0)
(9.89487 0.00892917 0)
(9.92743 0.0352242 0)
(9.95439 0.0507172 0)
(9.97502 0.059497 0)
(9.99015 0.0644441 0)
(10.0009 0.0673592 0)
(10.0085 0.0692978 0)
(10.0135 0.0708773 0)
(10.0166 0.0724757 0)
(10.018 0.074368 0)
(10.0179 0.0768002 0)
(10.0164 0.0800742 0)
(10.0136 0.0846154 0)
(10.0095 0.0910402 0)
(9.98253 -0.0727091 0)
(9.91035 -0.0921962 0)
(9.88507 -0.078244 0)
(9.88001 -0.0386072 0)
(9.89746 -0.00337364 0)
(9.92043 0.0221693 0)
(9.94196 0.0391846 0)
(9.95999 0.0500813 0)
(9.97425 0.0570564 0)
(9.98518 0.061705 0)
(9.99339 0.0650794 0)
(9.99941 0.0678631 0)
(10.0037 0.0705157 0)
(10.0064 0.0733836 0)
(10.0078 0.0767685 0)
(10.0081 0.0809902 0)
(10.0073 0.0864223 0)
(10.0058 0.0935009 0)
(9.98894 -0.0502566 0)
(9.93733 -0.072378 0)
(9.91073 -0.0674479 0)
(9.89917 -0.0399824 0)
(9.90566 -0.0116494 0)
(9.91955 0.0114526 0)
(9.93496 0.0285311 0)
(9.94934 0.0405808 0)
(9.96169 0.0490248 0)
(9.97188 0.0551118 0)
(9.98009 0.0597798 0)
(9.98659 0.0637028 0)
(9.99163 0.067371 0)
(9.99544 0.0711638 0)
(9.9982 0.0754023 0)
(10.0001 0.0803891 0)
(10.0013 0.0864245 0)
(10.0021 0.0937918 0)
(9.99348 -0.0329085 0)
(9.9582 -0.0538108 0)
(9.93368 -0.0542832 0)
(9.91898 -0.0367868 0)
(9.91755 -0.0154529 0)
(9.92366 0.0039955 0)
(9.93301 0.0197761 0)
(9.94318 0.0318773 0)
(9.9529 0.0410112 0)
(9.96163 0.0480211 0)
(9.96922 0.0536477 0)
(9.9757 0.0584838 0)
(9.98118 0.0629923 0)
(9.98578 0.0675411 0)
(9.98965 0.0724337 0)
(9.99294 0.0779302 0)
(9.99587 0.0842526 0)
(9.99869 0.0915721 0)
(9.99643 -0.0202024 0)
(9.97327 -0.0372096 0)
(9.95261 -0.040045 0)
(9.93731 -0.0298101 0)
(9.93089 -0.0148229 0)
(9.93102 0.000367299 0)
(9.93504 0.0137751 0)
(9.94104 0.0248436 0)
(9.94782 0.0337597 0)
(9.95465 0.0409919 0)
(9.96117 0.0470504 0)
(9.96724 0.0523953 0)
(9.97281 0.0574118 0)
(9.9779 0.062415 0)
(9.98261 0.067659 0)
(9.98704 0.073346 0)
(9.99135 0.0796267 0)
(9.99573 0.0865945 0)
(9.99816 -0.0112875 0)
(9.9833 -0.0229302 0)
(9.96682 -0.0257622 0)
(9.95243 -0.020076 0)
(9.94344 -0.010241 0)
(9.93952 0.00067589 0)
(9.9394 0.011031 0)
(9.94183 0.0201449 0)
(9.94582 0.0279261 0)
(9.95069 0.0345727 0)
(9.95597 0.0403864 0)
(9.96139 0.0456769 0)
(9.96681 0.0507223 0)
(9.97215 0.0557546 0)
(9.97744 0.0609578 0)
(9.9827 0.0664685 0)
(9.98803 0.072376 0)
(9.99353 0.0787209 0)
(9.99906 -0.00508066 0)
(9.98922 -0.0107804 0)
(9.97612 -0.0119162 0)
(9.96309 -0.00848193 0)
(9.9531 -0.0024337 0)
(9.94685 0.00457974 0)
(9.94399 0.0115586 0)
(9.94384 0.0180219 0)
(9.9457 0.0238402 0)
(9.94896 0.029082 0)
(9.95317 0.0339027 0)
(9.95799 0.0384792 0)
(9.96321 0.0429761 0)
(9.96868 0.0475306 0)
(9.97435 0.0522472 0)
(9.98019 0.0571954 0)
(9.98623 0.0624107 0)
(9.99249 0.0678954 0)
(9.99942 -0.000367024 0)
(9.99181 0.000152189 0)
(9.98042 0.00183306 0)
(9.96821 0.00459465 0)
(9.9579 0.00792126 0)
(9.95061 0.0114029 0)
(9.94642 0.0148181 0)
(9.94498 0.0180901 0)
(9.94576 0.0212355 0)
(9.94825 0.0243204 0)
(9.95198 0.0274261 0)
(9.95661 0.0306298 0)
(9.96186 0.0339936 0)
(9.96757 0.0375617 0)
(9.97362 0.0413577 0)
(9.97993 0.0453865 0)
(9.98648 0.0496338 0)
(9.99325 0.0540698 0)
(9.99935 0.00408501 0)
(9.9911 0.0111737 0)
(9.97897 0.0161342 0)
(9.96616 0.0187378 0)
(9.95552 0.0196142 0)
(9.94819 0.019548 0)
(9.94419 0.0191613 0)
(9.94311 0.0188642 0)
(9.94438 0.0188972 0)
(9.94741 0.0193776 0)
(9.95174 0.020346 0)
(9.95699 0.0217971 0)
(9.96287 0.0237001 0)
(9.96919 0.0260102 0)
(9.97583 0.0286758 0)
(9.98269 0.0316401 0)
(9.98974 0.0348452 0)
(9.99692 0.0382304 0)
(9.99882 0.00972994 0)
(9.98675 0.0240493 0)
(9.97122 0.0318475 0)
(9.95641 0.033295 0)
(9.94558 0.0307056 0)
(9.93942 0.0263518 0)
(9.93734 0.0217492 0)
(9.93845 0.0177405 0)
(9.94186 0.0146963 0)
(9.94687 0.0127123 0)
(9.95292 0.0117328 0)
(9.95963 0.0116389 0)
(9.96674 0.0122913 0)
(9.97408 0.0135543 0)
(9.98155 0.0153024 0)
(9.98908 0.0174258 0)
(9.99665 0.0198276 0)
(10.0042 0.0224242 0)
(9.99757 0.0182101 0)
(9.97773 0.0404558 0)
(9.95664 0.0495784 0)
(9.93945 0.04748 0)
(9.92961 0.0394253 0)
(9.92659 0.0296487 0)
(9.92848 0.0204918 0)
(9.93357 0.0129681 0)
(9.94055 0.00734985 0)
(9.94856 0.00351893 0)
(9.95704 0.00122454 0)
(9.96568 0.000176808 0)
(9.97428 0.000112278 0)
(9.98276 0.00079729 0)
(9.99109 0.00204465 0)
(9.99925 0.00370142 0)
(10.0073 0.00564447 0)
(10.0151 0.00777732 0)
(9.99502 0.0318146 0)
(9.96177 0.0621342 0)
(9.93372 0.0695523 0)
(9.91534 0.0601161 0)
(9.90932 0.0439522 0)
(9.91249 0.0276615 0)
(9.92084 0.0139949 0)
(9.93162 0.00364002 0)
(9.94323 -0.00364175 0)
(9.9548 -0.0083736 0)
(9.96595 -0.0111295 0)
(9.97653 -0.0123912 0)
(9.98651 -0.0125651 0)
(9.99595 -0.0119512 0)
(10.0049 -0.010786 0)
(10.0135 -0.00924476 0)
(10.0217 -0.00745731 0)
(10.0296 -0.00552289 0)
(9.99018 0.0534619 0)
(9.93561 0.0901523 0)
(9.90098 0.0906284 0)
(9.88515 0.0687577 0)
(9.8878 0.0418199 0)
(9.90121 0.0186594 0)
(9.91856 0.00141789 0)
(9.93627 -0.0103962 0)
(9.95285 -0.0179413 0)
(9.96786 -0.0223936 0)
(9.98129 -0.0246484 0)
(9.99333 -0.0253873 0)
(10.0042 -0.0250884 0)
(10.0141 -0.0241087 0)
(10.0232 -0.022686 0)
(10.0318 -0.0209905 0)
(10.0399 -0.0191451 0)
(10.0475 -0.0172229 0)
(9.9819 0.0862471 0)
(9.89548 0.124258 0)
(9.85817 0.109884 0)
(9.85209 0.0697745 0)
(9.87033 0.0303387 0)
(9.89842 0.00144939 0)
(9.92658 -0.0172042 0)
(9.95135 -0.028321 0)
(9.9722 -0.0344208 0)
(9.9896 -0.0373306 0)
(10.0043 -0.0382064 0)
(10.0168 -0.0377974 0)
(10.0276 -0.0366099 0)
(10.0372 -0.0349683 0)
(10.0459 -0.0330717 0)
(10.0539 -0.0310689 0)
(10.0613 -0.0290511 0)
(10.0683 -0.0270602 0)
(9.96925 0.13399 0)
(9.83823 0.163089 0)
(9.80793 0.122591 0)
(9.82311 0.0588004 0)
(9.86512 0.00730868 0)
(9.91138 -0.0240261 0)
(9.95035 -0.0405905 0)
(9.98048 -0.0483718 0)
(10.0034 -0.0512367 0)
(10.0212 -0.0515394 0)
(10.0354 -0.0504166 0)
(10.0469 -0.0485107 0)
(10.0565 -0.0462495 0)
(10.0649 -0.0438486 0)
(10.0723 -0.0414109 0)
(10.079 -0.0390534 0)
(10.0852 -0.036865 0)
(10.0911 -0.0348085 0)
(9.94951 0.207141 0)
(9.76128 0.207022 0)
(9.75726 0.123478 0)
(9.81042 0.0320114 0)
(9.88382 -0.0278605 0)
(9.94874 -0.0559945 0)
(9.99526 -0.0660728 0)
(10.0266 -0.0678022 0)
(10.048 -0.0659741 0)
(10.063 -0.0631946 0)
(10.0743 -0.0598869 0)
(10.083 -0.0564934 0)
(10.09 -0.053144 0)
(10.0959 -0.0501199 0)
(10.1011 -0.0472752 0)
(10.1056 -0.0446415 0)
(10.1099 -0.0423613 0)
(10.114 -0.0402919 0)
(9.91094 0.322718 0)
(9.65923 0.254545 0)
(9.71887 0.107407 0)
(9.83329 -0.0119227 0)
(9.94173 -0.0726521 0)
(10.0199 -0.0901622 0)
(10.0662 -0.0893224 0)
(10.0917 -0.0831393 0)
(10.1058 -0.0760393 0)
(10.1141 -0.0696206 0)
(10.1198 -0.0644973 0)
(10.1236 -0.0600786 0)
(10.1262 -0.0563766 0)
(10.1281 -0.0532567 0)
(10.1299 -0.0503076 0)
(10.1313 -0.0475393 0)
(10.1327 -0.0454148 0)
(10.1343 -0.0437096 0)
(9.84404 0.43511 0)
(9.53798 0.261026 0)
(9.7269 0.0591351 0)
(9.92367 -0.0731151 0)
(10.0584 -0.121552 0)
(10.1344 -0.120191 0)
(10.1664 -0.10528 0)
(10.1758 -0.0906181 0)
(10.1759 -0.0784829 0)
(10.1726 -0.0703795 0)
(10.1686 -0.0644378 0)
(10.1647 -0.0597636 0)
(10.1605 -0.0556903 0)
(10.1569 -0.0526447 0)
(10.1537 -0.0498185 0)
(10.1504 -0.047067 0)
(10.1474 -0.0455498 0)
(10.1458 -0.044523 0)
(9.83598 0.319666 0)
(9.55021 0.0912513 0)
(9.91739 -0.0687253 0)
(10.1507 -0.160112 0)
(10.2634 -0.172136 0)
(10.3032 -0.142726 0)
(10.2978 -0.112095 0)
(10.276 -0.0899557 0)
(10.2516 -0.0753884 0)
(10.2302 -0.0674586 0)
(10.2132 -0.0619463 0)
(10.1984 -0.0574656 0)
(10.1843 -0.0528836 0)
(10.1714 -0.0489134 0)
(10.1601 -0.044956 0)
(10.1492 -0.0416357 0)
(10.1401 -0.0411327 0)
(10.133 -0.0405931 0)
(10.2049 -0.0633775 0)
(10.4095 -0.191706 0)
(10.7164 -0.282558 0)
(10.6879 -0.282287 0)
(10.6191 -0.230103 0)
(10.5417 -0.163668 0)
(10.4545 -0.117044 0)
(10.3763 -0.0925014 0)
(10.3137 -0.0798687 0)
(10.2654 -0.0678692 0)
(10.2262 -0.0589187 0)
(10.1917 -0.054324 0)
(10.1604 -0.053715 0)
(10.1329 -0.0526847 0)
(10.1064 -0.0517452 0)
(10.0822 -0.050623 0)
(10.065 -0.0449215 0)
(10.047 -0.0399318 0)
(9.41631 4.45107 0)
(12.7294 2.07612 0)
(12.5649 0.621213 0)
(11.569 0.127658 0)
(10.9309 0.00343499 0)
(10.5866 -0.00206733 0)
(10.3638 0.0123106 0)
(10.2022 0.0302357 0)
(10.0795 0.041206 0)
(9.97727 0.0358132 0)
(9.88482 0.0251218 0)
(9.79873 0.0219465 0)
(9.72289 0.0252791 0)
(9.65533 0.0212708 0)
(9.59834 0.0166201 0)
(9.5506 0.0157799 0)
(9.49778 -0.00227291 0)
(9.44717 -0.0272081 0)
(-0.0275208 0.0934413 0)
(0.137021 -0.183512 0)
(0.324989 -0.305899 0)
(0.525478 -0.315118 0)
(0.702955 -0.272072 0)
(0.833505 -0.211079 0)
(0.909825 -0.14634 -8.60157e-20)
(0.940406 -0.0824953 8.66398e-20)
(0.919535 -0.0201732 0)
(0.858851 0.0345367 9.18599e-20)
(0.771695 0.0739597 0)
(0.672432 0.0920056 0)
(0.578507 0.0877255 0)
(0.505703 0.0666662 -1.43196e-19)
(0.455746 0.0377137 0)
(0.412398 0.00997701 0)
(0.352862 -0.00897078 1.87926e-19)
(0.2627 -0.00867757 0)
(0.135154 0.0293097 0)
(-0.0448414 0.112956 0)
(-0.300561 0.186497 -1.64799e-19)
(-0.594264 0.235264 0)
(-0.915689 0.266822 -7.62335e-20)
(-1.25194 0.296041 0)
(-1.59137 0.323657 0)
(-1.93111 0.336464 -4.13206e-20)
(-2.26353 0.335614 0)
(-2.58064 0.326491 3.45393e-20)
(-2.87941 0.310352 0)
(-3.15642 0.289552 -3.13406e-20)
(-3.41077 0.266415 0)
(-3.64207 0.242535 0)
(-3.85104 0.218945 0)
(-4.03877 0.196351 0)
(-4.20672 0.175129 0)
(-4.35644 0.155487 2.82291e-20)
(-4.4895 0.137459 0)
(-4.60741 0.120974 -5.55698e-20)
(-4.71153 0.105906 0)
(-4.8031 0.0920938 5.47712e-20)
(-4.88316 0.0793763 0)
(-4.95261 0.0676014 0)
(-5.01221 0.056641 -5.35492e-20)
(-5.06257 0.0463985 0)
(-5.10421 0.0368146 -5.26575e-20)
(-5.13753 0.0278723 5.21797e-20)
(-5.16293 0.0196157 0)
(-5.18079 0.0121927 5.11529e-20)
(-5.1914 0.00585122 5.06005e-20)
(-5.19492 0.00080167 0)
(-5.1926 -0.00315179 0)
(-5.18568 -0.00645009 0)
(-5.1743 -0.00937253 0)
(-5.15878 -0.0120832 0)
(-5.13927 -0.0146518 -4.61809e-20)
(-5.11593 -0.0170919 0)
(-5.08886 -0.0194148 4.43157e-20)
(-5.05817 -0.0216294 0)
(-5.02395 -0.0237381 0)
(-4.98631 -0.0257427 -4.11375e-20)
(-4.94536 -0.0276435 0)
(-4.9012 -0.0294407 3.87618e-20)
(-4.85394 -0.0311338 0)
(-4.80369 -0.032723 0)
(-4.75058 -0.0342081 0)
(-4.69472 -0.0355891 -3.33822e-20)
(-4.63623 -0.0368663 0)
(-4.57524 -0.0380407 0)
(-4.51188 -0.0391129 -2.87848e-20)
(-4.44627 -0.0400836 0)
(-4.37855 -0.0409542 -2.54435e-20)
(-4.30885 -0.0417262 0)
(-4.2373 -0.0424012 0)
(-4.16403 -0.042981 0)
(-4.08918 -0.0434678 1.80659e-20)
(-4.01286 -0.0438636 0)
(-3.93522 -0.0441708 0)
(-3.85638 -0.0443919 1.18838e-20)
(-3.77646 -0.0445295 9.69001e-21)
(-3.69558 -0.0445861 0)
(-3.61387 -0.0445648 5.08812e-21)
(-3.53143 -0.0444687 0)
(-3.44839 -0.0443015 3.59987e-22)
(-3.36485 -0.0440681 0)
(-3.2809 -0.0437747 -1.01301e-20)
(-3.19665 -0.0434303 0)
(-3.11219 -0.043048 2.13731e-20)
(-3.02759 -0.0426471 0)
(-2.94293 -0.0422561 0)
(-2.85827 -0.0419179 0)
(-2.77363 -0.0416946 -4.65659e-20)
(-2.68905 -0.0416688 0)
(-2.60453 -0.0419303 6.08417e-20)
(-2.52005 -0.0425352 0)
(-2.43556 -0.0434249 -7.65122e-20)
(-2.35131 -0.0443275 -8.48912e-20)
(-2.26754 -0.0447825 -9.35998e-20)
(-2.18452 -0.0445746 0)
(-2.10241 -0.0439697 0)
(-2.02123 -0.0432713 0)
(-1.94099 -0.0425663 0)
(-1.8617 -0.041866 0)
(-1.78339 -0.0411716 0)
(-1.70608 -0.0404845 0)
(-1.62979 -0.0398088 0)
(-1.55455 -0.0391501 1.92714e-19)
(-1.48037 -0.0385155 2.07035e-19)
(-1.40727 -0.0379104 0)
(-1.33526 -0.0373238 0)
(-1.26438 -0.0366985 0)
(-1.19464 -0.0360409 2.74305e-19)
(-1.12607 -0.0354067 0)
(-1.05866 -0.0347912 0)
(-0.992409 -0.0341955 0)
(-0.927325 -0.0336214 0)
(-0.863407 -0.0330709 -3.90948e-19)
(-0.800653 -0.0325466 0)
(-0.739058 -0.0320515 0)
(-0.678616 -0.0315893 4.8913e-19)
(-0.619321 -0.0311613 -5.2883e-19)
(-0.561165 -0.0307711 0)
(-0.504141 -0.0304293 -6.22443e-19)
(-0.448237 -0.0301596 0)
(-0.393432 -0.0300066 7.41427e-19)
(-0.339706 -0.0299812 0)
(-0.287044 -0.030045 0)
(-0.235433 -0.0301849 0)
(-0.184842 -0.0304119 0)
(-0.135247 -0.0307416 0)
(-0.0866922 -0.0311927 -2.84669e-18)
(-0.0393881 -0.0316472 -3.27741e-18)
(0.00671808 -0.031348 0)
(0.0521363 -0.0298507 0)
(0.0968772 -0.0280006 0)
(0.1408 -0.0262829 2.68485e-18)
(0.18381 -0.0247503 0)
(0.225889 -0.023377 0)
(0.267057 -0.0221396 0)
(0.307349 -0.0210183 2.03997e-18)
(0.346794 -0.0199957 -1.93369e-18)
(0.38542 -0.0190577 0)
(0.423254 -0.0181928 0)
(0.460321 -0.0173918 -1.68691e-18)
(0.496645 -0.0166472 -1.62224e-18)
(0.532248 -0.0159529 0)
(0.567154 -0.0153036 0)
(0.601387 -0.0146952 1.46396e-18)
(0.634968 -0.014124 -1.42048e-18)
(0.66792 -0.0135869 0)
(0.700265 -0.0130812 0)
(0.732027 -0.0126047 -1.31019e-18)
(0.763227 -0.0121553 0)
(0.793889 -0.0117313 0)
(0.824035 -0.0113311 -1.22267e-18)
(0.85369 -0.0109534 0)
(0.882875 -0.0105968 -1.17358e-18)
(0.911615 -0.0102603 0)
(0.939932 -0.00994275 0)
(0.967851 -0.00964307 0)
(0.995392 -0.00936021 1.09157e-18)
(1.02258 -0.00909305 0)
(1.04943 -0.00884034 0)
(1.07596 -0.0086006 0)
(1.10219 -0.00837205 0)
(1.12813 -0.00815243 0)
(1.15378 -0.00793882 0)
(1.17913 -0.00772737 9.82756e-19)
(1.20416 -0.0075129 9.69834e-19)
(1.22884 -0.00728844 0)
(1.25308 -0.00704445 0)
(1.27679 -0.0067674 0)
(1.29981 -0.00643872 -9.24488e-19)
(1.32189 -0.00602867 0)
(1.34262 -0.00549852 1.81387e-18)
(1.36156 -0.00476125 -1.8005e-18)
(1.3773 -0.00372542 -1.79177e-18)
(1.38989 -0.00195384 1.79007e-18)
(1.39031 0.00132808 -1.79545e-18)
(1.38761 0.00807607 1.80877e-18)
(1.30834 0.0198897 0)
(0.0963198 -0.268988 0)
(0.334076 -0.68128 0)
(0.514181 -0.706528 1.57354e-19)
(0.61182 -0.571349 0)
(0.662817 -0.408899 -1.11135e-19)
(0.683257 -0.253827 -1.08101e-19)
(0.67723 -0.112176 -5.62532e-20)
(0.646858 0.0155819 -5.61983e-20)
(0.603881 0.1254 0)
(0.544686 0.211922 -6.08066e-20)
(0.467874 0.2674 0)
(0.373389 0.283203 0)
(0.257584 0.256439 1.70487e-19)
(0.11025 0.211442 9.82825e-20)
(-0.0747805 0.206292 -1.84459e-19)
(-0.301055 0.271842 -1.43793e-19)
(-0.579039 0.383417 -5.7188e-20)
(-0.904973 0.513253 0)
(-1.25856 0.642616 0)
(-1.61667 0.756443 0)
(-1.97228 0.841997 -2.85747e-20)
(-2.31787 0.895562 0)
(-2.64777 0.919045 6.9062e-20)
(-2.95449 0.915463 0)
(-3.23399 0.889024 0)
(-3.48462 0.844857 1.98194e-20)
(-3.70499 0.788289 0)
(-3.89593 0.724854 -1.97617e-20)
(-4.05932 0.65878 -4.17978e-20)
(-4.1987 0.592779 2.01686e-20)
(-4.317 0.528954 0)
(-4.41709 0.469086 0)
(-4.5017 0.414007 0)
(-4.57323 0.364068 -4.42593e-20)
(-4.63374 0.31923 -4.47657e-20)
(-4.68492 0.279221 -2.21901e-20)
(-4.72815 0.24363 0)
(-4.76454 0.211975 4.53079e-20)
(-4.79498 0.183757 0)
(-4.82018 0.158498 -4.58796e-20)
(-4.84074 0.135755 0)
(-4.85715 0.115134 0)
(-4.86983 0.0962946 4.609e-20)
(-4.87915 0.0789463 0)
(-4.88545 0.0628484 1.38171e-19)
(-4.88904 0.0478067 -4.56105e-20)
(-4.89022 0.0336857 0)
(-4.8892 0.0204551 -4.49413e-20)
(-4.88627 0.00823101 -4.44846e-20)
(-4.88168 -0.00282446 0)
(-4.87453 -0.0127672 0)
(-4.86371 -0.0218931 0)
(-4.8492 -0.0304453 0)
(-4.83091 -0.0385384 0)
(-4.80886 -0.0462419 4.02185e-20)
(-4.78313 -0.0535928 7.91674e-20)
(-4.75377 -0.0606122 -3.84412e-20)
(-4.72088 -0.0673115 0)
(-4.68454 -0.0736963 7.34889e-20)
(-4.64486 -0.0797693 -3.59681e-20)
(-4.60192 -0.0855312 0)
(-4.55582 -0.0909817 -3.3268e-20)
(-4.50668 -0.0961209 0)
(-4.45461 -0.10095 0)
(-4.39971 -0.105471 -5.98941e-20)
(-4.3421 -0.109683 2.83864e-20)
(-4.2819 -0.113588 -5.47023e-20)
(-4.21923 -0.117187 5.19835e-20)
(-4.15422 -0.120485 2.42946e-20)
(-4.08699 -0.123486 0)
(-4.01767 -0.126195 2.13616e-20)
(-3.94639 -0.128618 0)
(-3.87328 -0.130762 0)
(-3.79845 -0.132634 0)
(-3.72205 -0.134241 1.56349e-20)
(-3.6442 -0.135594 0)
(-3.56502 -0.1367 2.37669e-20)
(-3.48464 -0.13757 -2.99744e-20)
(-3.40317 -0.138214 -7.94171e-21)
(-3.32075 -0.138643 0)
(-3.23747 -0.138868 -4.14093e-21)
(-3.15346 -0.138901 0)
(-3.06883 -0.138753 -2.90751e-22)
(-2.98367 -0.138436 0)
(-2.8981 -0.137963 8.11545e-21)
(-2.81221 -0.137345 -2.3573e-20)
(-2.72609 -0.136595 -1.6969e-20)
(-2.63983 -0.135722 0)
(-2.55353 -0.134734 0)
(-2.46728 -0.133638 0)
(-2.38117 -0.132432 3.61879e-20)
(-2.29532 -0.131108 0)
(-2.20986 -0.129638 -4.666e-20)
(-2.12494 -0.127967 0)
(-2.04069 -0.126041 1.71894e-19)
(-1.95721 -0.123886 6.36371e-20)
(-1.87448 -0.121603 6.96687e-20)
(-1.79247 -0.119298 0)
(-1.71114 -0.117029 0)
(-1.63055 -0.114795 0)
(-1.55076 -0.112573 0)
(-1.47183 -0.110349 0)
(-1.3938 -0.108118 2.19506e-19)
(-1.3167 -0.105881 2.34998e-19)
(-1.24056 -0.103642 0)
(-1.16541 -0.101403 -1.34769e-19)
(-1.09127 -0.099167 -1.43548e-19)
(-1.01817 -0.096936 0)
(-0.946126 -0.0947119 -3.23053e-19)
(-0.875165 -0.092499 0)
(-0.805275 -0.090311 1.81332e-19)
(-0.736466 -0.0881536 0)
(-0.668749 -0.086027 0)
(-0.602129 -0.0839337 -4.34469e-19)
(-0.536607 -0.081875 0)
(-0.472184 -0.0798525 2.44842e-19)
(-0.408861 -0.0778693 0)
(-0.346637 -0.075931 0)
(-0.285504 -0.0740465 2.8978e-19)
(-0.225455 -0.0722138 3.09085e-19)
(-0.166483 -0.0704275 0)
(-0.108581 -0.0686906 -3.4638e-19)
(-0.0517548 -0.0670033 0)
(0.00399815 -0.065357 3.82653e-19)
(0.0587197 -0.0637447 7.66227e-19)
(0.112443 -0.0621779 0)
(0.165169 -0.0606713 0)
(0.216899 -0.0592292 0)
(0.267646 -0.0578496 0)
(0.317443 -0.0565346 7.09267e-19)
(0.36636 -0.0552732 2.09652e-18)
(0.414485 -0.0538952 0)
(0.461729 -0.0522503 0)
(0.507952 -0.0504767 0)
(0.553224 -0.0487303 -6.65648e-19)
(0.597625 -0.047063 0)
(0.641185 -0.0454831 0)
(0.68392 -0.0439883 1.28797e-18)
(0.725852 -0.0425719 6.36964e-19)
(0.767002 -0.0412266 6.32439e-19)
(0.807392 -0.0399457 0)
(0.847042 -0.0387238 0)
(0.885975 -0.0375564 6.15893e-19)
(0.924211 -0.0364399 -6.09656e-19)
(0.961772 -0.0353713 0)
(0.998679 -0.0343481 0)
(1.03495 -0.0333682 -5.96796e-19)
(1.07062 -0.0324298 1.77641e-18)
(1.10569 -0.0315311 0)
(1.1402 -0.0306708 0)
(1.17416 -0.0298477 5.80326e-19)
(1.2076 -0.0290605 0)
(1.24053 -0.0283083 1.14494e-18)
(1.27298 -0.0275899 -5.68538e-19)
(1.30498 -0.0269044 0)
(1.33653 -0.0262509 5.62423e-19)
(1.36768 -0.0256283 1.11756e-18)
(1.39843 -0.0250356 0)
(1.4288 -0.0244714 0)
(1.45883 -0.0239343 -5.49585e-19)
(1.48853 -0.0234226 0)
(1.51791 -0.022934 1.08646e-18)
(1.547 -0.0224655 0)
(1.5758 -0.0220134 0)
(1.60432 -0.0215727 0)
(1.63257 -0.0211367 0)
(1.66054 -0.0206965 -5.29006e-19)
(1.68821 -0.02024 -5.26238e-19)
(1.71553 -0.0197509 0)
(1.74247 -0.0192064 0)
(1.76891 -0.0185749 0)
(1.79472 -0.0178109 5.16145e-19)
(1.8197 -0.0168473 0)
(1.84352 -0.0155809 -1.02487e-18)
(1.86575 -0.0138349 1.02262e-18)
(1.88549 -0.0113246 1.02223e-18)
(1.90229 -0.00730932 1.02332e-18)
(1.9125 -0.000518317 1.02849e-18)
(1.9248 0.0124258 1.02038e-18)
(1.90523 0.0361878 0)
(0.116441 -0.859724 0)
(0.269015 -1.05684 0)
(0.316106 -0.826012 -1.26326e-19)
(0.315412 -0.584238 -1.08166e-19)
(0.297981 -0.373773 1.00486e-19)
(0.266773 -0.188646 1.00667e-19)
(0.22059 -0.0231861 -6.44898e-22)
(0.158693 0.124557 0)
(0.0809553 0.2551 0)
(-0.0138603 0.366019 0)
(-0.129311 0.451732 0)
(-0.273461 0.512798 0)
(-0.459226 0.566628 -2.67322e-19)
(-0.697092 0.641368 0)
(-0.983321 0.753928 6.62738e-20)
(-1.30206 0.895896 5.71733e-20)
(-1.63534 1.04401 0)
(-1.96628 1.17801 0)
(-2.27961 1.28539 0)
(-2.5635 1.3591 0)
(-2.8126 1.39484 3.49031e-20)
(-3.02654 1.39239 0)
(-3.20668 1.35642 -3.2346e-20)
(-3.35587 1.29418 0)
(-3.47857 1.21297 0)
(-3.57939 1.1192 0)
(-3.66314 1.01896 -6.85875e-20)
(-3.73418 0.917564 0)
(-3.79604 0.819158 3.31174e-20)
(-3.8515 0.726534 -7.07012e-20)
(-3.90248 0.641206 0)
(-3.95027 0.563911 0)
(-3.99563 0.494699 0)
(-4.03892 0.433184 3.65646e-20)
(-4.08026 0.37872 3.7152e-20)
(-4.11959 0.330533 0)
(-4.15679 0.287826 0)
(-4.19167 0.24984 -7.78009e-20)
(-4.22407 0.215879 -7.81938e-20)
(-4.25381 0.185334 7.84268e-20)
(-4.28075 0.157685 0)
(-4.30479 0.132505 0)
(-4.32582 0.109444 0)
(-4.34377 0.0882187 0)
(-4.35859 0.0685949 -7.70103e-20)
(-4.37021 0.0503729 -7.69123e-20)
(-4.37858 0.0333685 7.62693e-20)
(-4.38355 0.0173808 0)
(-4.38494 0.0021535 0)
(-4.38261 -0.0126 0)
(-4.37649 -0.0270125 0)
(-4.36664 -0.0409975 -7.11056e-20)
(-4.35312 -0.0544631 0)
(-4.33596 -0.0673981 0)
(-4.31521 -0.0798067 -6.69938e-20)
(-4.29091 -0.0916977 -6.49681e-20)
(-4.26313 -0.103078 0)
(-4.23194 -0.113953 1.24568e-19)
(-4.19743 -0.124324 -6.00301e-20)
(-4.15966 -0.13419 5.82534e-20)
(-4.11875 -0.143551 0)
(-4.07476 -0.152403 0)
(-4.02782 -0.160746 0)
(-3.97802 -0.168578 0)
(-3.92547 -0.175902 4.84217e-20)
(-3.87028 -0.18272 9.37742e-20)
(-3.81256 -0.189031 4.40562e-20)
(-3.75244 -0.194838 -4.17841e-20)
(-3.69003 -0.200148 0)
(-3.62546 -0.204967 7.54226e-20)
(-3.55884 -0.209303 7.05395e-20)
(-3.4903 -0.213165 6.55399e-20)
(-3.41997 -0.216563 -6.04247e-20)
(-3.34797 -0.219508 0)
(-3.27443 -0.222015 -7.40953e-20)
(-3.19946 -0.224095 0)
(-3.1232 -0.225764 2.0094e-20)
(-3.04577 -0.227036 1.58709e-20)
(-2.96728 -0.227928 0)
(-2.88785 -0.228457 0)
(-2.8076 -0.22864 1.53587e-20)
(-2.72664 -0.228494 0)
(-2.64508 -0.228039 2.92415e-21)
(-2.56302 -0.227292 0)
(-2.48058 -0.226272 9.99895e-21)
(-2.39785 -0.225 3.47259e-20)
(-2.31493 -0.223494 0)
(-2.23192 -0.221773 0)
(-2.14891 -0.219857 0)
(-2.066 -0.217763 4.45841e-20)
(-1.98329 -0.215505 0)
(-1.90088 -0.213096 5.9406e-20)
(-1.81885 -0.210536 0)
(-1.7373 -0.207811 0)
(-1.65631 -0.204895 -1.67059e-19)
(-1.5759 -0.201772 0)
(-1.49609 -0.198455 -9.9316e-20)
(-1.41689 -0.19499 0)
(-1.33833 -0.191432 -1.16596e-19)
(-1.26047 -0.18782 0)
(-1.18336 -0.184172 0)
(-1.10706 -0.180496 0)
(-1.03161 -0.176798 -4.62701e-19)
(-0.957046 -0.173084 -1.65047e-19)
(-0.883393 -0.169361 0)
(-0.810681 -0.165637 0)
(-0.738934 -0.161917 0)
(-0.668176 -0.158205 0)
(-0.598424 -0.154508 2.18842e-19)
(-0.529687 -0.150829 -4.58473e-19)
(-0.461975 -0.147179 -2.42675e-19)
(-0.395296 -0.143565 5.07664e-19)
(-0.329663 -0.139994 5.33462e-19)
(-0.26508 -0.136472 2.8138e-19)
(-0.201549 -0.133 0)
(-0.139073 -0.129579 6.16228e-19)
(-0.0776508 -0.126213 0)
(-0.0172856 -0.122903 -6.73566e-19)
(0.0420294 -0.119652 -3.4517e-19)
(0.100308 -0.116461 0)
(0.157555 -0.113333 6.93146e-19)
(0.213778 -0.11027 3.48842e-19)
(0.268987 -0.107273 0)
(0.323192 -0.104332 3.48735e-19)
(0.376401 -0.101437 -1.05285e-18)
(0.428622 -0.0985955 0)
(0.479871 -0.0958192 0)
(0.530162 -0.0931102 0)
(0.579515 -0.0904696 0)
(0.627952 -0.0879018 -7.07769e-19)
(0.675506 -0.0854139 -7.1026e-19)
(0.722201 -0.0830208 0)
(0.768003 -0.0807098 0)
(0.812897 -0.0784418 0)
(0.856935 -0.0762153 0)
(0.900161 -0.0740467 0)
(0.942591 -0.0719445 0)
(0.984237 -0.0699113 -7.14033e-19)
(1.02512 -0.067947 -1.0888e-21)
(1.06525 -0.06605 0)
(1.10465 -0.0642182 0)
(1.14334 -0.0624496 -7.13866e-19)
(1.18134 -0.0607425 0)
(1.21867 -0.0590952 7.14914e-19)
(1.25535 -0.0575062 7.14052e-19)
(1.29141 -0.0559743 0)
(1.32685 -0.0544982 0)
(1.36171 -0.0530767 -7.14585e-19)
(1.39601 -0.0517089 -1.42737e-18)
(1.42975 -0.0503937 0)
(1.46297 -0.0491303 0)
(1.49569 -0.0479176 0)
(1.52793 -0.0467548 -7.13276e-19)
(1.55971 -0.0456409 7.12894e-19)
(1.59104 -0.0445749 0)
(1.62196 -0.0435559 1.42291e-18)
(1.65248 -0.0425826 7.10434e-19)
(1.68263 -0.0416536 -1.42085e-18)
(1.71242 -0.0407674 0)
(1.74188 -0.0399219 0)
(1.77102 -0.0391145 -1.41704e-18)
(1.79986 -0.0383419 -7.0823e-19)
(1.82843 -0.0375998 0)
(1.85673 -0.0368825 0)
(1.88476 -0.0361824 0)
(1.91255 -0.0354893 0)
(1.94008 -0.0347898 -1.4069e-18)
(1.96733 -0.0340654 0)
(1.99429 -0.0332913 0)
(2.02089 -0.0324332 0)
(2.04708 -0.0314432 0)
(2.07272 -0.030253 0)
(2.09765 -0.0287618 0)
(2.12161 -0.026818 -1.39756e-18)
(2.14425 -0.0241703 0)
(2.16492 -0.0204132 0)
(2.18338 -0.0147546 -2.81634e-18)
(2.19682 -0.00587679 1.41819e-18)
(2.21151 0.00887765 -1.41631e-18)
(2.20641 0.0362567 1.41176e-18)
(0.0333194 -1.16608 0)
(0.0696785 -1.02976 3.59926e-19)
(0.0339237 -0.7468 0)
(-0.0105346 -0.506322 1.10875e-19)
(-0.0658717 -0.283601 0)
(-0.133739 -0.0740118 0)
(-0.216987 0.122843 -8.28038e-20)
(-0.317989 0.306227 0)
(-0.438871 0.475698 0)
(-0.582239 0.631814 0)
(-0.751947 0.777112 0)
(-0.953205 0.917693 0)
(-1.18864 1.06167 2.04186e-19)
(-1.45267 1.21244 9.24316e-20)
(-1.73082 1.36376 -8.36842e-20)
(-2.00471 1.50229 0)
(-2.25863 1.61418 0)
(-2.48251 1.6901 0)
(-2.67157 1.72634 0)
(-2.82439 1.72415 0)
(-2.94354 1.68739 6.01611e-20)
(-3.03456 1.62131 5.88446e-20)
(-3.10355 1.53275 -5.79918e-20)
(-3.15685 1.42937 5.76904e-20)
(-3.19984 1.31787 0)
(-3.23687 1.20366 0)
(-3.2714 1.0911 5.58438e-20)
(-3.30579 0.983472 0)
(-3.3413 0.882895 0)
(-3.37847 0.790411 5.86982e-20)
(-3.41727 0.706262 6.15162e-20)
(-3.45739 0.630221 6.22279e-20)
(-3.49827 0.561757 0)
(-3.53931 0.500175 0)
(-3.57989 0.444715 -6.40381e-20)
(-3.61946 0.394618 0)
(-3.65751 0.349176 0)
(-3.69363 0.307744 6.4311e-20)
(-3.72748 0.269758 -6.60311e-20)
(-3.75878 0.23473 6.60416e-20)
(-3.7873 0.202244 0)
(-3.81287 0.17195 0)
(-3.83532 0.143551 1.30016e-19)
(-3.85453 0.116798 0)
(-3.87039 0.0914787 1.28628e-19)
(-3.88282 0.0674161 1.91038e-19)
(-3.89172 0.0444665 -1.89397e-19)
(-3.89703 0.0225098 1.2533e-19)
(-3.89872 0.00142878 0)
(-3.89677 -0.0188924 0)
(-3.89123 -0.038532 1.19874e-19)
(-3.88215 -0.0575087 5.84059e-20)
(-3.86957 -0.0758187 0)
(-3.85351 -0.0934607 0)
(-3.83402 -0.110434 5.48996e-20)
(-3.81115 -0.126738 1.0825e-19)
(-3.78494 -0.142372 0)
(-3.75547 -0.157332 -1.01797e-19)
(-3.7228 -0.171615 9.99673e-20)
(-3.68701 -0.185216 -9.69953e-20)
(-3.64818 -0.19813 0)
(-3.6064 -0.210353 0)
(-3.56176 -0.221877 0)
(-3.51436 -0.232702 0)
(-3.4643 -0.242832 0)
(-3.41169 -0.252265 -7.5922e-20)
(-3.35664 -0.261003 0)
(-3.29926 -0.269049 0)
(-3.23966 -0.27641 0)
(-3.17797 -0.283096 -1.2262e-19)
(-3.1143 -0.289117 -5.67023e-20)
(-3.04876 -0.294485 -5.2601e-20)
(-2.98149 -0.299214 9.80369e-20)
(-2.9126 -0.303319 -4.53609e-20)
(-2.84221 -0.306818 3.98089e-20)
(-2.77044 -0.309729 0)
(-2.69741 -0.312072 -3.08861e-20)
(-2.62324 -0.313867 0)
(-2.54805 -0.315136 0)
(-2.47194 -0.315903 0)
(-2.39504 -0.316189 -2.54856e-20)
(-2.31744 -0.316019 8.48285e-21)
(-2.23927 -0.315417 4.76531e-21)
(-2.16062 -0.314407 -2.98674e-21)