/*--------------------------------*- C++ -*----------------------------------*\
  =========                 |
  \\      /  F ield         | OpenFOAM: The Open Source CFD Toolbox
   \\    /   O peration     | Website:  https://openfoam.org
    \\  /    A nd           | Version:  8
     \\/     M anipulation  |
\*---------------------------------------------------------------------------*/
FoamFile
{
    version     2.0;
    format      ascii;
    class       volScalarField;
    location    "3900";
    object      p;
}
// * * * * * * * * * * * * * * * * * * * * * * * * * * * * * * * * * * * * * //

dimensions      [0 2 -2 0 0 0 0];

internalField   nonuniform List<scalar> 
12225
(
514.676
55.5282
2.36382
0.281708
-1.89876
-3.37431
-3.81154
-4.02195
-4.2317
-4.36859
-4.41574
-4.42536
-4.42836
-4.45633
-4.50973
-4.57621
-4.72163
-4.94425
-122.179
0.238913
-2.7184
-0.765087
-2.21646
-3.5249
-3.95262
-4.13672
-4.2804
-4.38439
-4.45931
-4.51764
-4.56858
-4.60097
-4.62192
-4.64749
-4.71415
-4.80821
-200.645
-16.1484
-2.34642
-0.358309
-1.90079
-3.24478
-3.77218
-4.02241
-4.1951
-4.31936
-4.41205
-4.47926
-4.52789
-4.55313
-4.5682
-4.58378
-4.61569
-4.59891
-110.616
-10.9741
-2.17712
-0.432016
-1.78772
-3.02879
-3.60128
-3.90846
-4.11773
-4.26353
-4.3659
-4.43658
-4.48531
-4.5139
-4.53125
-4.5391
-4.53809
-4.46943
-61.5728
-8.14584
-3.62258
-1.21002
-2.01523
-2.99835
-3.52923
-3.849
-4.07151
-4.22619
-4.33383
-4.40848
-4.45985
-4.49098
-4.50628
-4.50368
-4.47751
-4.38738
-45.7308
-8.78527
-5.25879
-2.20036
-2.42998
-3.10113
-3.53659
-3.83356
-4.04954
-4.20337
-4.31243
-4.38916
-4.44161
-4.47254
-4.48411
-4.47338
-4.43332
-4.33878
-35.7946
-9.27653
-6.38057
-3.1248
-2.922
-3.29009
-3.604
-3.85489
-4.05031
-4.19549
-4.30148
-4.37728
-4.4289
-4.45865
-4.46758
-4.453
-4.40903
-4.32198
-27.7781
-8.90731
-6.97403
-3.80306
-3.36207
-3.49892
-3.70098
-3.90046
-4.06982
-4.20209
-4.30186
-4.37462
-4.42454
-4.45339
-4.46174
-4.44745
-4.40647
-4.33174
-21.6901
-8.52027
-7.13474
-4.31092
-3.72937
-3.70653
-3.81681
-3.96517
-4.10547
-4.22174
-4.31281
-4.38088
-4.42835
-4.4563
-4.46502
-4.45306
-4.41807
-4.35708
-16.6129
-8.14094
-7.0884
-4.75581
-4.08368
-3.93489
-3.95976
-4.05322
-4.15958
-4.25579
-4.33526
-4.39688
-4.44111
-4.4683
-4.47849
-4.47102
-4.4451
-4.40061
-12.6392
-7.68114
-6.90642
-5.10212
-4.4073
-4.17087
-4.12247
-4.16202
-4.23222
-4.30559
-4.37119
-4.42492
-4.46543
-4.49224
-4.50525
-4.50441
-4.49015
-4.46398
-9.69928
-7.14905
-6.62952
-5.32695
-4.67916
-4.39767
-4.295
-4.28728
-4.32246
-4.37212
-4.42265
-4.46769
-4.50435
-4.53142
-4.54859
-4.5562
-4.5553
-4.54801
-7.66633
-6.605
-6.30629
-5.43193
-4.88361
-4.59782
-4.46421
-4.42105
-4.42634
-4.45413
-4.49012
-4.52673
-4.56004
-4.58823
-4.61075
-4.62796
-4.64104
-4.65195
-6.37125
-6.11334
-5.98602
-5.44067
-5.01626
-4.75809
-4.61665
-4.553
-4.53699
-4.54759
-4.57167
-4.60152
-4.63278
-4.66322
-4.69199
-4.71923
-4.74582
-4.77318
-5.623
-5.72269
-5.70933
-5.39118
-5.08626
-4.87335
-4.74214
-4.67259
-4.64559
-4.6458
-4.66246
-4.68856
-4.71984
-4.75387
-4.78952
-4.82656
-4.86538
-4.90671
-5.24369
-5.46049
-5.50842
-5.32787
-5.11535
-4.94829
-4.83601
-4.77102
-4.74234
-4.73949
-4.75417
-4.78045
-4.8144
-4.85355
-4.89654
-4.94274
-4.99203
-5.0446
-5.10245
-5.34459
-5.41726
-5.29926
-5.13524
-4.99612
-4.89847
-4.84057
-4.81547
-4.81528
-4.83313
-4.86374
-4.90333
-4.94939
-5.0003
-5.0551
-5.11328
-5.17461
-5.14018
-5.40039
-5.47449
-5.34834
-5.17452
-5.02879
-4.92853
-4.87132
-4.8494
-4.85426
-4.87846
-4.91631
-4.96369
-5.01779
-5.07671
-5.13924
-5.20464
-5.27245
-5.39246
-5.65483
-5.69052
-5.47539
-5.22616
-5.03578
-4.91468
-4.8516
-4.83257
-4.84486
-4.87853
-4.92638
-4.98355
-5.04677
-5.11396
-5.18377
-5.2554
-5.32842
-6.00184
-6.13665
-6.04241
-5.63489
-5.24689
-4.98712
-4.8406
-4.77567
-4.76617
-4.79256
-4.84115
-4.90303
-4.9726
-5.04647
-5.12255
-5.19967
-5.27716
-5.35479
-7.24945
-6.88928
-6.49395
-5.76163
-5.18286
-4.85273
-4.69612
-4.64599
-4.65993
-4.71048
-4.78075
-4.86083
-4.94518
-5.03079
-5.1161
-5.20035
-5.28329
-5.36502
-9.64095
-7.96434
-6.98236
-5.77164
-4.97931
-4.61191
-4.48171
-4.47349
-4.52836
-4.61373
-4.71153
-4.81273
-4.91288
-5.01025
-5.10425
-5.19492
-5.2825
-5.36754
-13.9821
-9.39082
-7.40293
-5.5693
-4.59452
-4.26397
-4.21483
-4.27949
-4.39166
-4.51917
-4.64732
-4.76989
-4.88503
-4.99265
-5.09377
-5.18938
-5.28037
-5.36763
-20.8897
-10.9538
-7.55395
-5.05701
-4.01563
-3.83562
-3.92976
-4.09393
-4.27207
-4.44295
-4.59953
-4.74089
-4.86794
-4.98303
-5.08878
-5.18728
-5.28009
-5.36831
-29.7363
-11.9492
-7.03329
-4.12589
-3.26383
-3.37777
-3.67087
-3.94667
-4.18902
-4.39709
-4.57571
-4.73007
-4.86457
-4.98334
-5.09089
-5.19024
-5.28322
-5.3711
-43.1063
-12.6137
-5.47257
-2.72874
-2.41305
-2.96324
-3.4841
-3.86225
-4.15354
-4.38592
-4.57764
-4.73799
-4.87408
-4.99192
-5.09851
-5.197
-5.28932
-5.37616
-84.5992
-17.3732
-3.66388
-1.26523
-1.69582
-2.72164
-3.43603
-3.86983
-4.1734
-4.4106
-4.6066
-4.76809
-4.89938
-5.00879
-5.10944
-5.20511
-5.29608
-5.38058
-177.886
-26.8494
-3.67995
-0.77001
-1.5349
-2.84288
-3.61394
-4.01514
-4.27101
-4.46722
-4.6508
-4.81646
-4.95144
-5.05383
-5.14025
-5.22259
-5.30823
-5.38909
-154.79
-9.62708
-3.27219
-1.06809
-1.84291
-3.2207
-3.91355
-4.22492
-4.41745
-4.55913
-4.70191
-4.85471
-5.00321
-5.12426
-5.21862
-5.29321
-5.36972
-5.45333
428.057
66.6057
7.05616
1.59962
-0.915412
-2.85675
-3.65283
-3.99459
-4.31032
-4.57692
-4.70794
-4.75402
-4.80135
-4.89376
-5.01174
-5.13207
-5.2299
-5.3139
-8.52552
-8.51269
-8.50205
-8.54342
-8.63646
-8.74016
-8.82009
-8.8601
-8.86375
-8.84608
-8.81866
-8.79009
-8.76842
-8.75961
-8.76462
-8.77726
-8.78848
-8.79361
-8.79284
-8.79078
-8.79527
-8.82797
-8.9182
-9.08956
-9.34258
-9.66035
-10.0315
-10.4453
-10.8863
-11.3384
-11.7863
-12.2183
-12.625
-12.9999
-13.3385
-13.6385
-13.8988
-14.1195
-14.3013
-14.4451
-14.5523
-14.6241
-14.662
-14.6673
-14.6414
-14.5854
-14.5013
-14.3911
-14.2561
-14.0943
-13.9029
-13.6832
-13.438
-13.169
-12.8774
-12.5644
-12.2309
-11.878
-11.5067
-11.118
-10.7131
-10.293
-9.85893
-9.41199
-8.95338
-8.48428
-8.00589
-7.51941
-7.02603
-6.52694
-6.0233
-5.51626
-5.00692
-4.49636
-3.98564
-3.47574
-2.96764
-2.46223
-1.96039
-1.46291
-0.970566
-0.484043
-0.00399495
0.468988
0.934369
1.39167
1.84046
2.28037
2.71107
3.13233
3.54393
3.94568
4.33743
4.71914
5.09106
5.4532
5.80509
6.14633
6.47693
6.79711
7.10711
7.40714
7.69738
7.97801
8.24922
8.51122
8.7642
9.0084
9.24402
9.47127
9.69038
9.90159
10.1052
10.3013
10.4903
10.6724
10.8478
11.0168
11.1795
11.3363
11.4873
11.6327
11.7729
11.9079
12.0381
12.1635
12.2844
12.401
12.5134
12.6219
12.7265
12.8276
12.9256
13.0203
13.1117
13.2
13.2853
13.3678
13.4475
13.5247
13.5994
13.6717
13.7418
13.8097
13.8754
13.9392
14.001
14.061
14.1192
14.1756
14.2303
14.2835
14.335
14.385
14.4335
14.4805
14.5261
14.5702
14.613
14.6544
14.6945
14.7333
14.7707
14.8068
14.8417
14.8753
14.9078
14.939
14.9692
14.9983
15.0267
15.0544
15.0819
15.1096
15.1383
15.1691
15.2045
15.2461
15.304
15.3644
-8.58296
-8.61422
-8.68817
-8.78178
-8.88525
-8.97745
-9.0387
-9.06308
-9.04603
-8.98558
-8.89581
-8.79899
-8.71737
-8.66609
-8.64403
-8.64083
-8.65039
-8.67583
-8.71112
-8.73136
-8.7557
-8.83366
-8.99342
-9.23299
-9.53987
-9.91085
-10.3366
-10.7968
-11.2697
-11.7374
-12.1876
-12.6108
-13.0005
-13.353
-13.6666
-13.9408
-14.1762
-14.3737
-14.5345
-14.6598
-14.7507
-14.8084
-14.8339
-14.8279
-14.7915
-14.7251
-14.6292
-14.5039
-14.3497
-14.1697
-13.9676
-13.7437
-13.497
-13.2277
-12.9365
-12.624
-12.2913
-11.9392
-11.5686
-11.1807
-10.7765
-10.3571
-9.92362
-9.47721
-9.01904
-8.5503
-8.07219
-7.58592
-7.09266
-6.59361
-6.08992
-5.58275
-5.07319
-4.56235
-4.05125
-3.54091
-3.03228
-2.52628
-2.02377
-1.52555
-1.03241
-0.545024
-0.0640613
0.409885
0.87627
1.3346
1.78444
2.22539
2.6571
3.07927
3.49164
3.89396
4.28602
4.66771
5.0391
5.40041
5.75184
6.09342
6.425
6.74646
7.05785
7.3593
7.65095
7.93298
8.20556
8.46891
8.7232
8.96867
9.20555
9.43407
9.65445
9.86692
10.0717
10.2691
10.4593
10.6425
10.819
10.9891
11.1529
11.3107
11.4627
11.6092
11.7503
11.8863
12.0175
12.144
12.266
12.3837
12.4972
12.6067
12.7125
12.8143
12.9124
13.0071
13.0987
13.1872
13.2728
13.3555
13.4356
13.513
13.588
13.6607
13.731
13.7992
13.8653
13.9293
13.9915
14.0517
14.1102
14.1669
14.2219
14.2752
14.327
14.3772
14.4259
14.4732
14.519
14.5633
14.6063
14.6479
14.6882
14.7271
14.7647
14.801
14.8361
14.8698
14.9024
14.9338
14.964
14.9933
15.0218
15.0496
15.0772
15.105
15.1337
15.1644
15.1993
15.2388
15.2925
15.3423
-8.70999
-8.79182
-8.90979
-9.01561
-9.0985
-9.15235
-9.17297
-9.15915
-9.10958
-9.02648
-8.91895
-8.80357
-8.70381
-8.63926
-8.61051
-8.60569
-8.6247
-8.68142
-8.78503
-8.93208
-9.12242
-9.36317
-9.65721
-9.99634
-10.3684
-10.7641
-11.1735
-11.5848
-11.9874
-12.374
-12.7399
-13.0814
-13.3958
-13.6814
-13.9372
-14.1627
-14.3576
-14.5221
-14.6564
-14.7608
-14.8357
-14.8815
-14.8985
-14.8873
-14.8482
-14.7818
-14.6883
-14.5678
-14.4202
-14.2465
-14.0482
-13.8262
-13.5811
-13.3135
-13.024
-12.7134
-12.3825
-12.0322
-11.6634
-11.2772
-10.8746
-10.4566
-10.0244
-9.57918
-9.12205
-8.65421
-8.17685
-7.69117
-7.19837
-6.69963
-6.19611
-5.68897
-5.17932
-4.66824
-4.15679
-3.64598
-3.13677
-2.63008
-2.12678
-1.62769
-1.13358
-0.645153
-0.163073
0.312059
0.779694
1.23934
1.69055
2.13294
2.56617
2.98995
3.40404
3.80825
4.20242
4.58646
4.96035
5.3241
5.67773
6.02126
6.35466
6.67792
6.99112
7.29438
7.58783
7.87165
8.146
8.41109
8.66711
8.91428
9.15282
9.38296
9.60493
9.81895
10.0253
10.2241
10.4157
10.6004
10.7783
10.9497
11.1148
11.2739
11.4272
11.5749
11.7172
11.8543
11.9864
12.1137
12.2365
12.3549
12.4691
12.5792
12.6855
12.7881
12.8872
12.983
13.0756
13.165
13.2515
13.3351
13.416
13.4942
13.57
13.6433
13.7143
13.7831
13.8498
13.9144
13.9771
14.0379
14.0968
14.154
14.2094
14.2632
14.3154
14.366
14.4151
14.4627
14.5088
14.5535
14.5968
14.6387
14.6792
14.7184
14.7562
14.7928
14.828
14.862
14.8947
14.9263
14.9567
14.9862
15.0147
15.0427
15.0702
15.0979
15.1264
15.1566
15.1901
15.2267
15.2741
15.3076
-8.7494
-8.84684
-8.94811
-9.03463
-9.09908
-9.13878
-9.15123
-9.13383
-9.08656
-9.01445
-8.92872
-8.84617
-8.78496
-8.75798
-8.7701
-8.82341
-8.92179
-9.0689
-9.26534
-9.50611
-9.78238
-10.0869
-10.4138
-10.7567
-11.11
-11.4688
-11.8276
-12.1812
-12.5251
-12.8552
-13.1681
-13.4612
-13.7323
-13.9798
-14.2023
-14.3991
-14.5695
-14.7131
-14.8297
-14.9193
-14.9818
-15.0173
-15.026
-15.0079
-14.9632
-14.8922
-14.795
-14.6721
-14.5239
-14.3511
-14.1542
-13.9337
-13.6903
-13.4243
-13.1365
-12.8276
-12.4983
-12.1496
-11.7824
-11.3976
-10.9962
-10.5794
-10.1483
-9.7039
-9.24747
-8.78017
-8.30321
-7.81776
-7.32503
-6.8262
-6.32244
-5.81491
-5.30472
-4.79297
-4.28071
-3.76895
-3.25868
-2.75081
-2.24623
-1.74575
-1.25015
-0.760147
-0.276411
0.200452
0.669887
1.13139
1.58452
2.02889
2.46414
2.88999
3.30619
3.71256
4.10896
4.49529
4.8715
5.23757
5.59346
5.93915
6.27466
6.60001
6.91528
7.22061
7.51611
7.80195
8.07831
8.34538
8.60335
8.85244
9.09286
9.32484
9.5486
9.76438
9.97241
10.173
10.3662
10.5525
10.732
10.9049
11.0715
11.232
11.3866
11.5356
11.6791
11.8175
11.9508
12.0793
12.2033
12.3228
12.438
12.5492
12.6566
12.7602
12.8603
12.9571
13.0507
13.1411
13.2285
13.3129
13.3946
13.4737
13.5501
13.6242
13.6959
13.7653
13.8327
13.8979
13.9611
14.0224
14.0819
14.1396
14.1955
14.2498
14.3024
14.3534
14.4029
14.4509
14.4974
14.5425
14.5861
14.6283
14.6691
14.7086
14.7467
14.7835
14.819
14.8532
14.8861
14.9179
14.9484
14.978
15.0066
15.0344
15.0619
15.0892
15.1171
15.146
15.1774
15.2099
15.2493
15.2679
-8.53753
-8.62244
-8.72254
-8.81964
-8.89699
-8.94972
-8.9768
-8.97908
-8.961
-8.93088
-8.9008
-8.88474
-8.89548
-8.9426
-9.0323
-9.16771
-9.34893
-9.57139
-9.82665
-10.1067
-10.4059
-10.7203
-11.0453
-11.376
-11.7081
-12.0377
-12.3616
-12.6766
-12.98
-13.2693
-13.5425
-13.798
-14.0342
-14.25
-14.4444
-14.6165
-14.7656
-14.8912
-14.9927
-15.0699
-15.1224
-15.15
-15.1526
-15.13
-15.0822
-15.0093
-14.9113
-14.7884
-14.6408
-14.4689
-14.2733
-14.0541
-13.8121
-13.5476
-13.2613
-12.9538
-12.626
-12.2787
-11.9128
-11.5292
-11.129
-10.7131
-10.2828
-9.83913
-9.38324
-8.91635
-8.43964
-7.95429
-7.46151
-6.96249
-6.45839
-5.95037
-5.43956
-4.92705
-4.41391
-3.90114
-3.38975
-2.88064
-2.37471
-1.87279
-1.37565
-0.884019
-0.398569
0.0800868
0.551389
1.01483
1.46996
1.91639
2.35376
2.78178
3.2002
3.60883
4.00752
4.39616
4.77467
5.14302
5.50117
5.84911
6.18684
6.51442
6.83192
7.13945
7.43716
7.72518
8.0037
8.27289
8.53297
8.78412
9.02659
9.26059
9.48634
9.70406
9.914
10.1164
10.3115
10.4995
10.6806
10.8552
11.0234
11.1855
11.3417
11.4922
11.6372
11.777
11.9118
12.0417
12.1669
12.2877
12.4042
12.5167
12.6252
12.7299
12.8311
12.9289
13.0235
13.1148
13.2031
13.2885
13.371
13.4509
13.5282
13.603
13.6754
13.7456
13.8136
13.8795
13.9434
14.0053
14.0653
14.1236
14.1801
14.2348
14.288
14.3395
14.3894
14.4379
14.4848
14.5302
14.5742
14.6168
14.658
14.6978
14.7363
14.7733
14.8091
14.8435
14.8766
14.9085
14.9392
14.9688
14.9973
15.0251
15.0522
15.079
15.1059
15.1332
15.1618
15.1896
15.2212
15.2274
-8.11756
-8.20597
-8.3269
-8.44959
-8.55483
-8.63525
-8.69356
-8.73564
-8.76912
-8.80378
-8.85058
-8.91982
-9.01954
-9.15454
-9.32702
-9.53602
-9.77683
-10.0439
-10.3319
-10.6351
-10.948
-11.266
-11.585
-11.9015
-12.2128
-12.5167
-12.8113
-13.0951
-13.3665
-13.6243
-13.8672
-14.0941
-14.304
-14.4958
-14.6687
-14.8219
-14.9545
-15.0659
-15.1554
-15.2225
-15.2668
-15.2878
-15.2853
-15.2588
-15.2083
-15.1335
-15.0346
-14.9114
-14.7641
-14.5929
-14.3982
-14.1802
-13.9394
-13.6762
-13.3913
-13.0853
-12.759
-12.413
-12.0484
-11.666
-11.2669
-10.8521
-10.4227
-9.97973
-9.52444
-9.058
-8.58159
-8.09639
-7.60361
-7.10443
-6.60003
-6.09156
-5.58016
-5.06692
-4.55292
-4.03917
-3.52667
-3.01635
-2.50909
-2.00574
-1.50707
-1.01382
-0.526667
-0.0462246
0.426941
0.892318
1.34945
1.79794
2.23743
2.66763
3.08828
3.49917
3.90015
4.2911
4.67192
5.04257
5.40301
5.75324
6.09325
6.42311
6.7429
7.05271
7.35267
7.64295
7.92371
8.19513
8.4574
8.71072
8.95532
9.1914
9.41919
9.63893
9.85085
10.0552
10.2522
10.442
10.6251
10.8014
10.9714
11.1352
11.2931
11.4452
11.5918
11.7331
11.8694
12.0007
12.1274
12.2496
12.3674
12.4811
12.5909
12.6969
12.7992
12.8981
12.9937
13.0861
13.1754
13.2617
13.3452
13.426
13.5041
13.5798
13.6531
13.724
13.7928
13.8594
13.924
13.9866
14.0473
14.1062
14.1633
14.2186
14.2723
14.3243
14.3748
14.4237
14.4711
14.517
14.5614
14.6044
14.646
14.6862
14.7249
14.7623
14.7983
14.833
14.8664
14.8984
14.9292
14.9588
14.9873
15.0148
15.0414
15.0675
15.0932
15.1185
15.144
15.167
15.1913
15.1868
-7.65255
-7.75123
-7.89329
-8.04208
-8.18002
-8.29866
-8.40156
-8.49806
-8.59755
-8.70896
-8.83992
-8.99531
-9.17787
-9.38806
-9.62417
-9.88409
-10.1648
-10.4618
-10.7696
-11.0833
-11.3984
-11.7117
-12.0203
-12.3222
-12.6158
-12.8998
-13.1732
-13.435
-13.6844
-13.9205
-14.1426
-14.3497
-14.541
-14.7157
-14.873
-15.0121
-15.1322
-15.2325
-15.3125
-15.3715
-15.4089
-15.4242
-15.4169
-15.3868
-15.3334
-15.2566
-15.1562
-15.0321
-14.8845
-14.7133
-14.5189
-14.3015
-14.0614
-13.7992
-13.5153
-13.2104
-12.8852
-12.5405
-12.1771
-11.7959
-11.398
-10.9842
-10.5558
-10.1138
-9.65938
-9.19368
-8.71789
-8.2332
-7.7408
-7.24187
-6.7376
-6.22912
-5.71757
-5.20405
-4.68964
-4.17535
-3.66217
-3.15104
-2.64286
-2.13846
-1.63863
-1.14411
-0.655576
-0.173651
0.301093
0.768143
1.22703
1.67736
2.11877
2.55094
2.97363
3.38662
3.78974
4.18285
4.56587
4.93873
5.30138
5.65382
5.99607
6.32818
6.65021
6.96227
7.26449
7.55702
7.84
8.11363
8.37809
8.63359
8.88034
9.11855
9.34845
9.57026
9.78422
9.99056
10.1895
10.3813
10.5662
10.7445
10.9163
11.0818
11.2414
11.3953
11.5435
11.6865
11.8243
11.9571
12.0853
12.2089
12.3282
12.4432
12.5543
12.6616
12.7652
12.8653
12.962
13.0555
13.1458
13.2332
13.3177
13.3994
13.4785
13.5551
13.6293
13.7011
13.7706
13.8381
13.9034
13.9667
14.0281
14.0877
14.1454
14.2014
14.2557
14.3083
14.3593
14.4087
14.4566
14.503
14.5479
14.5914
14.6334
14.6739
14.713
14.7508
14.7871
14.822
14.8555
14.8877
14.9186
14.9482
14.9765
15.0037
15.0298
15.0549
15.0792
15.1024
15.1246
15.1427
15.1604
15.1466
-7.2969
-7.39038
-7.54242
-7.70814
-7.87497
-8.03595
-8.19055
-8.34666
-8.51253
-8.69395
-8.89499
-9.11684
-9.35808
-9.61784
-9.89555
-10.1889
-10.4941
-10.8069
-11.1229
-11.4386
-11.7511
-12.0581
-12.3577
-12.6487
-12.9299
-13.2005
-13.4598
-13.7072
-13.9421
-14.1639
-14.3719
-14.5655
-14.7441
-14.9068
-15.053
-15.1819
-15.2928
-15.3849
-15.4576
-15.5101
-15.542
-15.5525
-15.5412
-15.5077
-15.4515
-15.3725
-15.2703
-15.1449
-14.9963
-14.8245
-14.6297
-14.4121
-14.172
-13.91
-13.6264
-13.3219
-12.9972
-12.6531
-12.2904
-11.9099
-11.5127
-11.0998
-10.6722
-10.231
-9.7774
-9.31248
-8.83745
-8.35349
-7.86177
-7.36346
-6.85974
-6.35175
-5.8406
-5.3274
-4.81319
-4.29901
-3.78584
-3.27461
-2.7662
-2.26146
-1.76118
-1.26608
-0.77685
-0.294113
0.181559
0.649649
1.10969
1.56127
2.00403
2.43766
2.86189
3.27649
3.68129
4.07615
4.46096
4.83565
5.20019
5.55455
5.89875
6.23285
6.5569
6.87101
7.17529
7.46989
7.75496
8.03068
8.29724
8.55482
8.80365
9.04392
9.27586
9.4997
9.71567
9.924
10.1249
10.3187
10.5055
10.6856
10.8592
11.0265
11.1879
11.3434
11.4934
11.638
11.7774
11.9118
12.0415
12.1666
12.2873
12.4037
12.5162
12.6248
12.7296
12.831
12.9289
13.0235
13.115
13.2034
13.289
13.3717
13.4518
13.5294
13.6044
13.6771
13.7476
13.8158
13.8819
13.946
14.0082
14.0684
14.1268
14.1835
14.2384
14.2916
14.3432
14.3932
14.4417
14.4886
14.534
14.5779
14.6203
14.6613
14.7008
14.7388
14.7755
14.8107
14.8444
14.8768
14.9077
14.9372
14.9653
14.9921
15.0175
15.0416
15.0643
15.0851
15.104
15.1174
15.1291
15.1071
-7.10658
-7.19269
-7.34681
-7.51917
-7.70257
-7.89487
-8.09267
-8.29793
-8.51524
-8.74701
-8.99356
-9.25484
-9.53079
-9.82102
-10.1237
-10.4354
-10.7527
-11.0721
-11.3906
-11.7056
-12.0149
-12.3169
-12.6102
-12.8938
-13.167
-13.429
-13.6794
-13.9178
-14.1435
-14.3562
-14.5553
-14.7403
-14.9105
-15.0653
-15.2041
-15.326
-15.4305
-15.5168
-15.5841
-15.6319
-15.6594
-15.6662
-15.6515
-15.6151
-15.5564
-15.4752
-15.3712
-15.2442
-15.0943
-14.9214
-14.7256
-14.5073
-14.2667
-14.0042
-13.7203
-13.4157
-13.091
-12.7469
-12.3844
-12.0042
-11.6073
-11.1948
-10.7677
-10.327
-9.87403
-9.40978
-8.93545
-8.45221
-7.96122
-7.46367
-6.9607
-6.45344
-5.94302
-5.4305
-4.91694
-4.40336
-3.89073
-3.37996
-2.87195
-2.36751
-1.86744
-1.37246
-0.883244
-0.400415
0.0754562
0.543853
1.00431
1.45641
1.8998
2.33415
2.75921
3.17474
3.58056
3.97653
4.36253
4.7385
5.10438
5.46015
5.80583
6.14146
6.46711
6.78286
7.08884
7.38517
7.67201
7.94952
8.21789
8.47731
8.72798
8.9701
9.2039
9.4296
9.64741
9.85758
10.0603
10.2559
10.4445
10.6263
10.8017
10.9708
11.1338
11.2911
11.4426
11.5888
11.7298
11.8658
11.997
12.1235
12.2457
12.3635
12.4773
12.5872
12.6934
12.796
12.8951
12.9909
13.0835
13.173
13.2597
13.3435
13.4245
13.503
13.5791
13.6527
13.724
13.793
13.86
13.9249
13.9878
14.0488
14.1079
14.1652
14.2208
14.2747
14.3269
14.3775
14.4265
14.4739
14.5198
14.5642
14.6071
14.6485
14.6884
14.7268
14.7638
14.7992
14.8332
14.8656
14.8966
14.926
14.9539
14.9802
15.0049
15.0278
15.0488
15.0672
15.0827
15.0916
15.0979
15.0689
-7.07871
-7.16554
-7.31324
-7.48203
-7.66876
-7.87333
-8.09256
-8.32446
-8.56929
-8.82764
-9.09902
-9.38258
-9.67806
-9.98433
-10.2987
-10.6181
-10.9397
-11.2608
-11.579
-11.8921
-12.1986
-12.4969
-12.7861
-13.0652
-13.3336
-13.5908
-13.8363
-14.0695
-14.2902
-14.4979
-14.692
-14.872
-15.0374
-15.1876
-15.3219
-15.4395
-15.5399
-15.6224
-15.6861
-15.7306
-15.755
-15.7589
-15.7416
-15.7027
-15.6418
-15.5586
-15.4528
-15.3242
-15.1728
-14.9985
-14.8016
-14.5823
-14.3408
-14.0775
-13.7931
-13.488
-13.1629
-12.8186
-12.4559
-12.0758
-11.6791
-11.2668
-10.8401
-10.3999
-9.94749
-9.48391
-9.01033
-8.52791
-8.03781
-7.54119
-7.03919
-6.53293
-6.02352
-5.51203
-4.99949
-4.48691
-3.97524
-3.4654
-2.95827
-2.45466
-1.95535
-1.46106
-0.972449
-0.490143
-0.0146999
0.453369
0.913603
1.36559
1.80898
2.24344
2.66871
3.08456
3.4908
3.88728
4.27389
4.65055
5.01721
5.37386
5.72049
6.05716
6.38391
6.70084
7.00806
7.3057
7.5939
7.87283
8.14265
8.40356
8.65575
8.89942
9.13479
9.36208
9.5815
9.79327
9.99763
10.1948
10.385
10.5685
10.7455
10.9161
11.0807
11.2395
11.3926
11.5403
11.6828
11.8202
11.9528
12.0808
12.2043
12.3235
12.4387
12.5498
12.6572
12.761
12.8613
12.9583
13.052
13.1426
13.2303
13.3151
13.3972
13.4767
13.5536
13.6281
13.7003
13.7703
13.838
13.9037
13.9674
14.0291
14.0889
14.147
14.2032
14.2577
14.3105
14.3617
14.4113
14.4593
14.5057
14.5506
14.5939
14.6358
14.6761
14.7149
14.7522
14.7879
14.8221
14.8546
14.8856
14.9149
14.9425
14.9683
14.9921
15.0138
15.0331
15.0491
15.0613
15.066
15.0673
15.0322
-7.18962
-7.26799
-7.39893
-7.55482
-7.73346
-7.93456
-8.1554
-8.3934
-8.64692
-8.91464
-9.19488
-9.48653
-9.78864
-10.0993
-10.4159
-10.736
-11.057
-11.3767
-11.6929
-12.0038
-12.3079
-12.6039
-12.8908
-13.1678
-13.4342
-13.6894
-13.9329
-14.1643
-14.3831
-14.5888
-14.7809
-14.959
-15.1223
-15.2704
-15.4025
-15.518
-15.6162
-15.6965
-15.7581
-15.8003
-15.8227
-15.8245
-15.8052
-15.7644
-15.7017
-15.6167
-15.5092
-15.379
-15.2261
-15.0505
-14.8524
-14.6319
-14.3894
-14.1254
-13.8402
-13.5346
-13.2091
-12.8646
-12.5018
-12.1217
-11.7253
-11.3134
-10.8872
-10.4477
-9.99607
-9.5334
-9.06086
-8.57958
-8.09071
-7.5954
-7.09477
-6.58994
-6.082
-5.57201
-5.06099
-4.54992
-4.03975
-3.53139
-3.02569
-2.52346
-2.02546
-1.5324
-1.04495
-0.563706
-0.0892332
0.377964
0.837429
1.28876
1.73158
2.1656
2.59053
3.00615
3.41227
3.80874
4.19544
4.57229
4.93925
5.29629
5.64341
5.98066
6.30809
6.62578
6.93384
7.2324
7.52158
7.80156
8.07249
8.33456
8.58796
8.83289
9.06955
9.29815
9.51892
9.73207
9.93782
10.1364
10.328
10.5129
10.6913
10.8634
11.0294
11.1896
11.3441
11.4932
11.6371
11.7759
11.9098
12.0391
12.1639
12.2844
12.4008
12.5132
12.6218
12.7267
12.8281
12.9262
13.021
13.1127
13.2014
13.2872
13.3703
13.4507
13.5285
13.6039
13.677
13.7477
13.8163
13.8828
13.9472
14.0097
14.0702
14.1289
14.1858
14.241
14.2944
14.3462
14.3964
14.4449
14.4919
14.5373
14.5811
14.6234
14.6641
14.7033
14.7409
14.7769
14.8112
14.8439
14.8749
14.9041
14.9313
14.9565
14.9795
15
15.0175
15.0311
15.0402
15.0409
15.0377
14.9974
-7.36613
-7.4307
-7.54161
-7.68005
-7.84387
-8.03261
-8.24392
-8.47513
-8.72377
-8.98752
-9.26415
-9.55249
-9.85132
-10.1584
-10.4714
-10.7878
-11.1053
-11.4218
-11.7353
-12.0441
-12.3466
-12.6415
-12.9279
-13.2047
-13.4713
-13.7269
-13.9709
-14.2029
-14.4223
-14.6285
-14.8211
-14.9993
-15.1627
-15.3106
-15.4424
-15.5573
-15.6548
-15.7341
-15.7946
-15.8357
-15.8567
-15.8571
-15.8364
-15.7941
-15.7298
-15.6433
-15.5343
-15.4028
-15.2485
-15.0717
-14.8724
-14.651
-14.4076
-14.1429
-13.8572
-13.5512
-13.2256
-12.8811
-12.5185
-12.1388
-11.743
-11.3319
-10.9066
-10.4683
-10.018
-9.55675
-9.08578
-8.60621
-8.11916
-7.62576
-7.12712
-6.62434
-6.11849
-5.61061
-5.10172
-4.59277
-4.08473
-3.57845
-3.07479
-2.57455
-2.07848
-1.58727
-1.10158
-0.622009
-0.149104
0.316635
0.774755
1.22485
1.66657
2.0996
2.52367
2.93855
3.34406
3.74003
4.12636
4.50296
4.86978
5.22679
5.574
5.91144
6.23916
6.55725
6.8658
7.16493
7.45478
7.73549
8.00723
8.27018
8.52452
8.77044
9.00814
9.23784
9.45973
9.67405
9.88099
10.0808
10.2736
10.4598
10.6395
10.8128
10.9801
11.1416
11.2974
11.4477
11.5929
11.7329
11.8681
11.9986
12.1246
12.2463
12.3639
12.4774
12.5872
12.6932
12.7957
12.8948
12.9907
13.0834
13.1731
13.2599
13.3439
13.4252
13.504
13.5802
13.6541
13.7257
13.7951
13.8623
13.9275
13.9907
14.0519
14.1113
14.1689
14.2247
14.2788
14.3311
14.3819
14.431
14.4785
14.5244
14.5687
14.6114
14.6526
14.6921
14.73
14.7663
14.8009
14.8337
14.8646
14.8936
14.9206
14.9452
14.9673
14.9865
15.0023
15.0136
15.0197
15.0168
15.0095
14.9648
-7.54003
-7.59152
-7.68409
-7.80467
-7.9513
-8.12344
-8.31903
-8.53569
-8.77097
-9.0223
-9.28766
-9.56594
-9.85573
-10.1548
-10.4608
-10.7712
-11.0839
-11.3967
-11.7075
-12.0147
-12.3166
-12.6119
-12.8993
-13.1778
-13.4465
-13.7045
-13.9511
-14.1857
-14.4076
-14.6162
-14.8109
-14.9911
-15.1561
-15.3052
-15.4379
-15.5535
-15.6512
-15.7305
-15.7908
-15.8313
-15.8516
-15.8511
-15.8293
-15.7859
-15.7204
-15.6327
-15.5225
-15.3898
-15.2345
-15.0568
-14.8567
-14.6345
-14.3907
-14.1256
-13.8398
-13.5339
-13.2086
-12.8647
-12.5029
-12.1243
-11.7296
-11.3199
-10.8963
-10.4598
-10.0115
-9.55242
-9.08378
-8.60666
-8.12219
-7.63147
-7.1356
-6.63564
-6.13267
-5.62769
-5.1217
-4.61566
-4.11048
-3.60704
-3.10617
-2.60865
-2.1152
-1.62653
-1.14327
-0.666021
-0.195317
0.268348
0.724528
1.17282
1.61288
2.04439
2.46708
2.88072
3.28513
3.68015
4.06566
4.44157
4.80784
5.16443
5.51135
5.84862
6.1763
6.49445
6.80317
7.10258
7.39281
7.67399
7.94628
8.20986
8.4649
8.71159
8.95013
9.18071
9.40355
9.61884
9.82681
10.0277
10.2216
10.4089
10.5897
10.7642
10.9327
11.0953
11.2522
11.4038
11.5501
11.6913
11.8277
11.9593
12.0865
12.2093
12.328
12.4427
12.5535
12.6606
12.7641
12.8643
12.9611
13.0548
13.1455
13.2332
13.3181
13.4003
13.4799
13.5571
13.6318
13.7042
13.7743
13.8423
13.9083
13.9722
14.0341
14.0942
14.1524
14.2089
14.2635
14.3165
14.3678
14.4175
14.4655
14.5119
14.5567
14.5999
14.6415
14.6815
14.7197
14.7563
14.791
14.824
14.8549
14.8838
14.9104
14.9344
14.9557
14.9736
14.9877
14.9968
15.0001
14.9939
14.983
14.9344
-7.66682
-7.709
-7.78618
-7.89013
-8.01936
-8.17343
-8.35058
-8.54887
-8.76626
-9.00058
-9.25043
-9.51508
-9.79311
-10.0822
-10.38
-10.6839
-10.9917
-11.3013
-11.6103
-11.9171
-12.2198
-12.5169
-12.807
-13.0888
-13.3613
-13.6234
-13.8742
-14.1129
-14.3388
-14.5512
-14.7493
-14.9325
-15.1
-15.2514
-15.3858
-15.5026
-15.6013
-15.6811
-15.7415
-15.7819
-15.8019
-15.8008
-15.7783
-15.7341
-15.6677
-15.5791
-15.4681
-15.3346
-15.1787
-15.0004
-14.7999
-14.5776
-14.3339
-14.0691
-13.7839
-13.4788
-13.1545
-12.8119
-12.4518
-12.0749
-11.6824
-11.275
-10.854
-10.4202
-9.97488
-9.51899
-9.05366
-8.57998
-8.09907
-7.612
-7.11985
-6.62368
-6.12451
-5.62336
-5.12118
-4.61892
-4.11748
-3.61771
-3.12044
-2.62643
-2.13638
-1.65099
-1.17088
-0.696643
-0.228805
0.232146
0.68577
1.13167
1.56949
1.99894
2.41972
2.83163
3.23447
3.62808
4.01234
4.38717
4.75249
5.1083
5.45457
5.79134
6.11865
6.43657
6.74518
7.0446
7.33494
7.61634
7.88896
8.15295
8.40849
8.65576
8.89495
9.12625
9.34986
9.56599
9.77483
9.97661
10.1715
10.3598
10.5416
10.7172
10.8867
11.0504
11.2085
11.3611
11.5085
11.6508
11.7883
11.921
12.0493
12.1732
12.293
12.4087
12.5205
12.6287
12.7332
12.8344
12.9322
13.0268
13.1184
13.2071
13.2929
13.376
13.4564
13.5344
13.6099
13.6831
13.7541
13.8228
13.8895
13.9541
14.0168
14.0775
14.1364
14.1935
14.2488
14.3024
14.3543
14.4045
14.4531
14.5
14.5453
14.589
14.631
14.6713
14.71
14.7468
14.7818
14.8148
14.8458
14.8745
14.9008
14.9243
14.9447
14.9615
14.9739
14.981
14.9817
14.9725
14.9582
14.9065
-7.72224
-7.76049
-7.82609
-7.91508
-8.02729
-8.16269
-8.32024
-8.49859
-8.69621
-8.91153
-9.14407
-9.39372
-9.65914
-9.93794
-10.2276
-10.5255
-10.8292
-11.1365
-11.4451
-11.7528
-12.0577
-12.358
-12.6521
-12.9386
-13.2162
-13.4836
-13.7397
-13.9836
-14.2145
-14.4314
-14.6336
-14.8204
-14.9912
-15.1451
-15.2816
-15.4001
-15.4999
-15.5805
-15.6413
-15.6819
-15.7017
-15.7003
-15.6774
-15.6327
-15.5659
-15.4768
-15.3655
-15.2318
-15.0757
-14.8976
-14.6975
-14.4759
-14.233
-13.9694
-13.6856
-13.3824
-13.0602
-12.72
-12.3625
-11.9887
-11.5993
-11.1955
-10.7782
-10.3484
-9.90721
-9.45563
-8.99476
-8.52568
-8.04946
-7.56717
-7.07985
-6.58854
-6.09424
-5.59794
-5.10058
-4.60308
-4.10632
-3.61113
-3.11832
-2.62867
-2.14285
-1.66152
-1.18531
-0.714804
-0.25052
0.20706
0.657501
1.10041
1.53543
1.96226
2.38064
2.79032
3.19112
3.58288
3.96548
4.33882
4.70284
5.05751
5.40281
5.73876
6.06541
6.38282
6.69106
6.99024
7.28047
7.56189
7.83462
8.09884
8.3547
8.60238
8.84206
9.07393
9.29818
9.51501
9.72462
9.92721
10.123
10.3121
10.4949
10.6714
10.8419
11.0066
11.1657
11.3194
11.4678
11.6112
11.7497
11.8836
12.0129
12.1378
12.2586
12.3753
12.4882
12.5973
12.7029
12.805
12.9038
12.9994
13.0919
13.1814
13.2681
13.3521
13.4334
13.5122
13.5885
13.6625
13.7342
13.8037
13.8711
13.9365
13.9998
14.0612
14.1208
14.1785
14.2344
14.2886
14.3411
14.3919
14.4411
14.4886
14.5344
14.5785
14.621
14.6618
14.7007
14.7379
14.7731
14.8063
14.8373
14.8659
14.8919
14.9149
14.9346
14.9502
14.9612
14.9663
14.9647
14.9528
14.9355
14.8812
-7.70777
-7.74246
-7.79929
-7.87445
-7.96946
-8.08517
-8.22158
-8.37832
-8.55462
-8.74977
-8.96421
-9.19844
-9.45127
-9.72021
-10.0025
-10.2956
-10.5968
-10.9034
-11.213
-11.5233
-11.8319
-12.1369
-12.4364
-12.7287
-13.0122
-13.2856
-13.5477
-13.7973
-14.0334
-14.2551
-14.4616
-14.6521
-14.8259
-14.9824
-15.121
-15.241
-15.342
-15.4234
-15.4847
-15.5256
-15.5455
-15.5441
-15.5212
-15.4764
-15.4097
-15.3208
-15.2098
-15.0766
-14.9214
-14.7443
-14.5456
-14.3256
-14.0848
-13.8235
-13.5425
-13.2422
-12.9235
-12.587
-12.2335
-11.864
-11.4793
-11.0804
-10.6682
-10.2437
-9.80797
-9.36205
-8.90698
-8.44379
-7.97355
-7.49728
-7.01601
-6.53073
-6.04245
-5.55211
-5.06063
-4.56893
-4.07784
-3.5882
-3.10078
-2.61634
-2.13558
-1.65914
-1.18761
-0.721562
-0.26152
0.192036
0.63867
1.07799
1.50965
1.93335
2.3488
2.75579
3.15411
3.5436
3.92414
4.29563
4.65799
5.01119
5.35522
5.69008
6.01581
6.33246
6.64009
6.93882
7.22873
7.50996
7.78264
8.04691
8.30294
8.55089
8.79094
9.02325
9.24803
9.46546
9.67573
9.87904
10.0756
10.2656
10.4492
10.6266
10.798
10.9637
11.1238
11.2784
11.4279
11.5722
11.7118
11.8466
11.977
12.1029
12.2247
12.3425
12.4563
12.5665
12.673
12.776
12.8758
12.9723
13.0657
13.1561
13.2437
13.3285
13.4107
13.4903
13.5675
13.6422
13.7147
13.785
13.8531
13.9192
13.9832
14.0453
14.1055
14.1639
14.2205
14.2753
14.3284
14.3798
14.4295
14.4776
14.5239
14.5686
14.6115
14.6527
14.6921
14.7296
14.7651
14.7985
14.8296
14.8581
14.8838
14.9064
14.9253
14.9399
14.9495
14.9529
14.9492
14.9348
14.9148
14.8584
-7.64387
-7.66965
-7.71583
-7.77448
-7.84924
-7.94213
-8.05437
-8.18684
-8.33977
-8.51344
-8.70925
-8.92821
-9.16915
-9.42939
-9.70593
-9.99581
-10.2961
-10.6038
-10.9161
-11.2303
-11.5439
-11.8546
-12.1602
-12.4588
-12.7487
-13.0282
-13.2961
-13.5511
-13.7922
-14.0183
-14.2287
-14.4225
-14.5991
-14.7579
-14.8983
-15.0198
-15.1219
-15.2042
-15.2662
-15.3075