/*--------------------------------*- C++ -*----------------------------------*\
  =========                 |
  \\      /  F ield         | OpenFOAM: The Open Source CFD Toolbox
   \\    /   O peration     | Website:  https://openfoam.org
    \\  /    A nd           | Version:  8
     \\/     M anipulation  |
\*---------------------------------------------------------------------------*/
FoamFile
{
    version     2.0;
    format      ascii;
    class       volVectorField;
    location    "3900";
    object      U;
}
// * * * * * * * * * * * * * * * * * * * * * * * * * * * * * * * * * * * * * //

dimensions      [0 1 -1 0 0 0 0];

internalField   nonuniform List<vector> 
12225
(
(9.2745 -4.73371 0)
(13.1094 -1.71343 0)
(12.4778 -0.395198 0)
(11.2771 -0.0422043 0)
(10.6314 0.0141381 0)
(10.2979 -9.43116e-05 0)
(10.0776 -0.0165236 0)
(9.91228 -0.00288878 0)
(9.7791 0.0348737 0)
(9.66231 0.0428917 0)
(9.55575 0.0248821 0)
(9.45768 0.00214127 0)
(9.36676 -0.0227924 0)
(9.28212 -0.0302254 0)
(9.20233 -0.0217872 0)
(9.13254 -0.0212273 0)
(9.07018 -0.021038 0)
(9.08956 -0.0277104 0)
(10.2592 0.0928019 0)
(10.7814 0.199339 0)
(10.9594 0.245656 0)
(10.7469 0.229143 0)
(10.5875 0.172969 0)
(10.4527 0.115534 0)
(10.33 0.082331 0)
(10.2327 0.0647293 0)
(10.155 0.0524756 0)
(10.0894 0.0472326 0)
(10.0323 0.0469918 0)
(9.98212 0.0489899 0)
(9.93785 0.0517978 0)
(9.89833 0.0519432 0)
(9.86151 0.048326 0)
(9.82887 0.0438433 0)
(9.7943 0.0300817 0)
(9.76827 0.010272 0)
(9.87768 -0.24504 0)
(9.74285 0.00579101 0)
(10.1971 0.125744 0)
(10.3245 0.179364 0)
(10.3564 0.161548 0)
(10.3311 0.120077 0)
(10.2777 0.0904936 0)
(10.2252 0.0746651 0)
(10.1812 0.0658743 0)
(10.1438 0.0600279 0)
(10.1103 0.0562076 0)
(10.0799 0.0536506 0)
(10.052 0.0511365 0)
(10.026 0.0487626 0)
(10.0023 0.0460761 0)
(9.98118 0.0417681 0)
(9.95916 0.0316703 0)
(9.93459 0.0135715 0)
(9.83416 -0.443933 0)
(9.57654 -0.163146 0)
(9.91603 0.0336705 0)
(10.0933 0.134224 0)
(10.1892 0.145473 0)
(10.2168 0.120738 0)
(10.205 0.0978947 0)
(10.1824 0.0839089 0)
(10.1599 0.0756289 0)
(10.1389 0.0697115 0)
(10.119 0.0651339 0)
(10.1001 0.0616373 0)
(10.0821 0.0586133 0)
(10.0648 0.0562297 0)
(10.0483 0.0538552 0)
(10.0325 0.0501448 0)
(10.0148 0.0424175 0)
(9.99178 0.0306086 0)
(9.87825 -0.387476 0)
(9.61653 -0.196147 0)
(9.81623 -0.0186703 0)
(9.96136 0.0916128 0)
(10.0698 0.122196 0)
(10.1219 0.113628 0)
(10.1354 0.0992638 0)
(10.1332 0.0884205 0)
(10.1257 0.0809479 0)
(10.1162 0.0753961 0)
(10.1056 0.0711238 0)
(10.0946 0.0678817 0)
(10.0833 0.0652544 0)
(10.0718 0.0631569 0)
(10.0601 0.0610449 0)
(10.0477 0.0581063 0)
(10.0328 0.0530798 0)
(10.0125 0.0468996 0)
(9.91439 -0.28804 0)
(9.68304 -0.185176 0)
(9.78717 -0.0532075 0)
(9.88917 0.0509992 0)
(9.98796 0.0936798 0)
(10.0476 0.0992037 0)
(10.0751 0.093874 0)
(10.0861 0.0875177 0)
(10.0892 0.0821201 0)
(10.0879 0.0777642 0)
(10.0842 0.0743507 0)
(10.0789 0.0717602 0)
(10.0726 0.069742 0)
(10.0654 0.0681723 0)
(10.0572 0.066726 0)
(10.0476 0.065043 0)
(10.0354 0.062782 0)
(10.0185 0.0611678 0)
(9.93763 -0.214041 0)
(9.74856 -0.167536 0)
(9.79244 -0.0752154 0)
(9.85608 0.0162205 0)
(9.93595 0.0644219 0)
(9.99281 0.0805951 0)
(10.0261 0.083561 0)
(10.0447 0.0822432 0)
(10.0546 0.0797792 0)
(10.0593 0.0772873 0)
(10.0606 0.0751759 0)
(10.0596 0.0735592 0)
(10.057 0.0723896 0)
(10.053 0.0716356 0)
(10.0477 0.0711909 0)
(10.0407 0.0710156 0)
(10.0312 0.0712772 0)
(10.0182 0.0731503 0)
(9.95263 -0.167334 0)
(9.79947 -0.149677 0)
(9.81177 -0.0846413 0)
(9.84959 -0.00621031 0)
(9.9114 0.0419319 0)
(9.96107 0.063897 0)
(9.99432 0.0725498 0)
(10.0156 0.075286 0)
(10.0288 0.0755298 0)
(10.0367 0.0749035 0)
(10.041 0.0741479 0)
(10.0427 0.073582 0)
(10.0425 0.0733235 0)
(10.0408 0.073449 0)
(10.0375 0.074006 0)
(10.0325 0.0751362 0)
(10.0254 0.0772041 0)
(10.0157 0.0812033 0)
(9.96406 -0.132089 0)
(9.84003 -0.131988 0)
(9.83337 -0.0876899 0)
(9.85306 -0.0213327 0)
(9.89927 0.0244156 0)
(9.94102 0.049513 0)
(9.97207 0.0621233 0)
(9.99385 0.0680767 0)
(10.0086 0.070696 0)
(10.0184 0.0717947 0)
(10.0246 0.0723178 0)
(10.0282 0.0727539 0)
(10.0298 0.0733609 0)
(10.0297 0.0743194 0)
(10.028 0.0757873 0)
(10.0248 0.0780077 0)
(10.0197 0.0814104 0)
(10.0129 0.0868072 0)
(9.97418 -0.100205 0)
(9.87757 -0.11239 0)
(9.85857 -0.0853662 0)
(9.86387 -0.0323328 0)
(9.89487 0.00892894 0)
(9.92742 0.035224 0)
(9.95439 0.0507171 0)
(9.97502 0.059497 0)
(9.99014 0.0644443 0)
(10.0009 0.0673596 0)
(10.0085 0.0692985 0)
(10.0135 0.0708783 0)
(10.0166 0.072477 0)
(10.018 0.0743697 0)
(10.0179 0.0768022 0)
(10.0164 0.0800765 0)
(10.0136 0.0846179 0)
(10.0095 0.0910433 0)
(9.98253 -0.0727091 0)
(9.91035 -0.0921963 0)
(9.88507 -0.0782442 0)
(9.88001 -0.0386074 0)
(9.89746 -0.00337385 0)
(9.92043 0.0221691 0)
(9.94196 0.0391845 0)
(9.95999 0.0500813 0)
(9.97425 0.0570566 0)
(9.98518 0.0617055 0)
(9.99339 0.0650801 0)
(9.99941 0.0678641 0)
(10.0037 0.0705171 0)
(10.0064 0.0733853 0)
(10.0078 0.0767705 0)
(10.0081 0.0809925 0)
(10.0073 0.0864251 0)
(10.0058 0.0935043 0)
(9.98894 -0.0502566 0)
(9.93733 -0.0723781 0)
(9.91073 -0.067448 0)
(9.89917 -0.0399826 0)
(9.90566 -0.0116495 0)
(9.91955 0.0114525 0)
(9.93496 0.0285311 0)
(9.94934 0.0405809 0)
(9.96169 0.0490251 0)
(9.97188 0.0551124 0)
(9.98009 0.0597806 0)
(9.98659 0.0637039 0)
(9.99163 0.0673724 0)
(9.99544 0.0711655 0)
(9.99819 0.0754044 0)
(10.0001 0.0803916 0)
(10.0013 0.0864275 0)
(10.0021 0.0937954 0)
(9.99348 -0.0329086 0)
(9.9582 -0.0538109 0)
(9.93368 -0.0542834 0)
(9.91898 -0.036787 0)
(9.91755 -0.015453 0)
(9.92366 0.0039954 0)
(9.93301 0.0197762 0)
(9.94318 0.0318775 0)
(9.9529 0.0410116 0)
(9.96163 0.0480217 0)
(9.96922 0.0536486 0)
(9.9757 0.058485 0)
(9.98118 0.0629939 0)
(9.98578 0.067543 0)
(9.98964 0.0724359 0)
(9.99294 0.0779329 0)
(9.99587 0.0842558 0)
(9.99869 0.091576 0)
(9.99643 -0.0202025 0)
(9.97327 -0.0372097 0)
(9.95261 -0.0400452 0)
(9.93731 -0.0298103 0)
(9.93089 -0.014823 0)
(9.93102 0.00036725 0)
(9.93504 0.0137752 0)
(9.94104 0.0248439 0)
(9.94781 0.0337602 0)
(9.95464 0.0409926 0)
(9.96117 0.0470514 0)
(9.96724 0.0523966 0)
(9.9728 0.0574135 0)
(9.9779 0.0624171 0)
(9.98261 0.0676614 0)
(9.98704 0.0733489 0)
(9.99135 0.0796301 0)
(9.99573 0.0865986 0)
(9.99816 -0.0112876 0)
(9.9833 -0.0229303 0)
(9.96682 -0.0257623 0)
(9.95243 -0.0200762 0)
(9.94344 -0.0102411 0)
(9.93952 0.000675931 0)
(9.9394 0.0110312 0)
(9.94183 0.0201454 0)
(9.94582 0.0279268 0)
(9.95069 0.0345737 0)
(9.95597 0.0403876 0)
(9.96139 0.0456784 0)
(9.96681 0.0507242 0)
(9.97215 0.0557568 0)
(9.97744 0.0609604 0)
(9.9827 0.0664716 0)
(9.98803 0.0723796 0)
(9.99353 0.0787251 0)
(9.99906 -0.00508076 0)
(9.98922 -0.0107804 0)
(9.97612 -0.0119163 0)
(9.96309 -0.008482 0)
(9.9531 -0.00243367 0)
(9.94685 0.00457992 0)
(9.94399 0.011559 0)
(9.94384 0.0180225 0)
(9.9457 0.023841 0)
(9.94896 0.0290831 0)
(9.95317 0.0339041 0)
(9.95799 0.0384809 0)
(9.96321 0.0429782 0)
(9.96868 0.0475332 0)
(9.97435 0.0522502 0)
(9.98019 0.0571989 0)
(9.98623 0.0624147 0)
(9.99249 0.0678999 0)
(9.99942 -0.000367129 0)
(9.9918 0.000152238 0)
(9.98042 0.00183305 0)
(9.96821 0.0045947 0)
(9.9579 0.00792142 0)
(9.95061 0.0114033 0)
(9.94642 0.0148188 0)
(9.94498 0.018091 0)
(9.94576 0.0212366 0)
(9.94825 0.0243219 0)
(9.95198 0.027428 0)
(9.95661 0.030632 0)
(9.96186 0.0339961 0)
(9.96757 0.0375647 0)
(9.97362 0.0413612 0)
(9.97993 0.0453906 0)
(9.98648 0.0496385 0)
(9.99325 0.0540749 0)
(9.99935 0.00408489 0)
(9.9911 0.0111738 0)
(9.97897 0.0161342 0)
(9.96616 0.0187379 0)
(9.95552 0.0196145 0)
(9.94819 0.0195485 0)
(9.94419 0.0191622 0)
(9.94311 0.0188654 0)
(9.94438 0.0188988 0)
(9.94741 0.0193796 0)
(9.95174 0.0203483 0)
(9.95699 0.0217999 0)
(9.96287 0.0237033 0)
(9.96919 0.026014 0)
(9.97583 0.0286802 0)
(9.98269 0.0316453 0)
(9.98974 0.0348511 0)
(9.99692 0.0382368 0)
(9.99882 0.00972982 0)
(9.98675 0.0240493 0)
(9.97122 0.0318474 0)
(9.95641 0.033295 0)
(9.94558 0.0307059 0)
(9.93942 0.0263524 0)
(9.93734 0.0217503 0)
(9.93845 0.0177421 0)
(9.94186 0.0146984 0)
(9.94687 0.0127148 0)
(9.95292 0.0117358 0)
(9.95963 0.0116423 0)
(9.96674 0.0122952 0)
(9.97408 0.0135588 0)
(9.98155 0.0153078 0)
(9.98909 0.0174323 0)
(9.99665 0.0198353 0)
(10.0042 0.0224327 0)
(9.99757 0.01821 0)
(9.97773 0.0404557 0)
(9.95664 0.0495783 0)
(9.93945 0.04748 0)
(9.92961 0.0394255 0)
(9.92659 0.0296493 0)
(9.92849 0.0204929 0)
(9.93357 0.0129699 0)
(9.94055 0.0073524 0)
(9.94856 0.00352215 0)
(9.95704 0.00122828 0)
(9.96568 0.000180764 0)
(9.97428 0.000116696 0)
(9.98277 0.000802043 0)
(9.99109 0.00205067 0)
(9.99925 0.00370884 0)
(10.0073 0.00565414 0)
(10.0151 0.00778846 0)
(9.99502 0.0318145 0)
(9.96177 0.062134 0)
(9.93372 0.069552 0)
(9.91534 0.060116 0)
(9.90932 0.0439523 0)
(9.91249 0.027662 0)
(9.92084 0.013996 0)
(9.93162 0.00364195 0)
(9.94323 -0.0036388 0)
(9.9548 -0.00836968 0)
(9.96595 -0.0111251 0)
(9.97653 -0.0123864 0)
(9.98652 -0.0125607 0)
(9.99596 -0.0119464 0)
(10.0049 -0.0107809 0)
(10.0135 -0.0092368 0)
(10.0217 -0.0074467 0)
(10.0296 -0.00550864 0)
(9.99018 0.0534618 0)
(9.93561 0.0901521 0)
(9.90098 0.0906282 0)
(9.88515 0.0687575 0)
(9.8878 0.0418199 0)
(9.90121 0.0186598 0)
(9.91856 0.00141891 0)
(9.93627 -0.0103941 0)
(9.95285 -0.0179378 0)
(9.96786 -0.0223888 0)
(9.9813 -0.0246427 0)
(9.99333 -0.0253815 0)
(10.0042 -0.0250836 0)
(10.0141 -0.0241056 0)
(10.0233 -0.0226828 0)
(10.0318 -0.0209853 0)
(10.0399 -0.0191335 0)
(10.0476 -0.0172075 0)
(9.9819 0.0862471 0)
(9.89548 0.124258 0)
(9.85817 0.109884 0)
(9.85209 0.0697743 0)
(9.87033 0.0303386 0)
(9.89842 0.00144971 0)
(9.92658 -0.0172032 0)
(9.95135 -0.0283187 0)
(9.9722 -0.0344167 0)
(9.9896 -0.0373246 0)
(10.0043 -0.0381987 0)
(10.0168 -0.0377897 0)
(10.0276 -0.0366051 0)
(10.0372 -0.0349678 0)
(10.0459 -0.0330738 0)
(10.0539 -0.0310695 0)
(10.0613 -0.0290406 0)
(10.0684 -0.0270427 0)
(9.96925 0.133989 0)
(9.83823 0.163089 0)
(9.80793 0.122591 0)
(9.82311 0.0588002 0)
(9.86512 0.00730863 0)
(9.91138 -0.0240259 0)
(9.95035 -0.0405895 0)
(9.98049 -0.0483692 0)
(10.0034 -0.0512319 0)
(10.0212 -0.0515314 0)
(10.0354 -0.0504063 0)
(10.0469 -0.0484998 0)
(10.0565 -0.0462438 0)
(10.0649 -0.0438529 0)
(10.0723 -0.0414222 0)
(10.079 -0.0390679 0)
(10.0852 -0.0368525 0)
(10.0911 -0.0347836 0)
(9.94951 0.20714 0)
(9.76128 0.207022 0)
(9.75726 0.123478 0)
(9.81042 0.0320112 0)
(9.88382 -0.0278606 0)
(9.94874 -0.0559942 0)
(9.99526 -0.0660717 0)
(10.0266 -0.0677995 0)
(10.048 -0.0659686 0)
(10.063 -0.0631849 0)
(10.0743 -0.0598731 0)
(10.083 -0.0564769 0)
(10.09 -0.0531392 0)
(10.0959 -0.0501305 0)
(10.1011 -0.0472981 0)
(10.1057 -0.0446819 0)
(10.11 -0.0423443 0)
(10.114 -0.0402466 0)
(9.91094 0.322718 0)
(9.65923 0.254545 0)
(9.71887 0.107407 0)
(9.83329 -0.0119229 0)
(9.94173 -0.0726522 0)
(10.0199 -0.090162 0)
(10.0662 -0.0893215 0)
(10.0917 -0.0831367 0)
(10.1058 -0.0760341 0)
(10.1141 -0.0696104 0)
(10.1198 -0.0644788 0)
(10.1236 -0.0600597 0)
(10.1261 -0.0563672 0)
(10.1281 -0.0532687 0)
(10.1298 -0.05036 0)
(10.1314 -0.0476797 0)
(10.1328 -0.0454119 0)
(10.1343 -0.0434615 0)
(9.84404 0.43511 0)
(9.53798 0.261026 0)
(9.7269 0.0591351 0)
(9.92367 -0.0731152 0)
(10.0584 -0.121552 0)
(10.1344 -0.120191 0)
(10.1665 -0.10528 0)
(10.1758 -0.0906164 0)
(10.1759 -0.0784788 0)
(10.1726 -0.0703685 0)
(10.1686 -0.0644217 0)
(10.1647 -0.0597369 0)
(10.1605 -0.0556837 0)
(10.1568 -0.0526517 0)
(10.1536 -0.0498895 0)
(10.1505 -0.0474133 0)
(10.1478 -0.0454746 0)
(10.1456 -0.043878 0)
(9.83598 0.319666 0)
(9.55021 0.0912514 0)
(9.91739 -0.0687252 0)
(10.1507 -0.160112 0)
(10.2634 -0.172136 0)
(10.3032 -0.142726 0)
(10.2978 -0.112094 0)
(10.276 -0.0899548 0)
(10.2517 -0.0753838 0)
(10.2303 -0.0674514 0)
(10.2133 -0.0619277 0)
(10.1983 -0.0574554 0)
(10.1842 -0.0528698 0)
(10.1713 -0.0489388 0)
(10.1599 -0.0450273 0)
(10.1495 -0.0420206 0)
(10.1407 -0.0406288 0)
(10.1323 -0.0393448 0)
(10.2049 -0.0633775 0)
(10.4095 -0.191706 0)
(10.7164 -0.282557 0)
(10.6879 -0.282287 0)
(10.6191 -0.230102 0)
(10.5417 -0.163667 0)
(10.4546 -0.117043 0)
(10.3763 -0.0924993 0)
(10.3137 -0.0798644 0)
(10.2654 -0.0678623 0)
(10.2262 -0.058913 0)
(10.1917 -0.0543268 0)
(10.1603 -0.0537702 0)
(10.1328 -0.052601 0)
(10.1064 -0.0517121 0)
(10.0833 -0.0497271 0)
(10.0638 -0.045918 0)
(10.0449 -0.0433505 0)
(9.41631 4.45107 0)
(12.7294 2.07612 0)
(12.5649 0.621213 0)
(11.569 0.127658 0)
(10.9309 0.0034353 0)
(10.5866 -0.00206667 0)
(10.3638 0.0123114 0)
(10.2022 0.0302383 0)
(10.0796 0.0412096 0)
(9.97731 0.0358183 0)
(9.88488 0.0251298 0)
(9.79871 0.0219631 0)
(9.72281 0.0252223 0)
(9.65534 0.0213487 0)
(9.59892 0.0157081 0)
(9.54763 0.00969797 0)
(9.49689 -0.00151135 0)
(9.45205 -0.00803905 0)
(-0.0275197 0.0934359 0)
(0.137016 -0.183503 0)
(0.324983 -0.305892 0)
(0.52547 -0.315114 0)
(0.702947 -0.27207 0)
(0.833496 -0.211078 0)
(0.909816 -0.14634 -8.60191e-20)
(0.940397 -0.0824947 8.66432e-20)
(0.919525 -0.0201722 0)
(0.858841 0.034538 9.18637e-20)
(0.771684 0.073961 0)
(0.672422 0.0920063 0)
(0.578498 0.0877249 0)
(0.505697 0.0666642 -1.43204e-19)
(0.455745 0.0377109 0)
(0.412403 0.00997444 0)
(0.352872 -0.00897294 1.87931e-19)
(0.262716 -0.00868038 0)
(0.135177 0.029302 0)
(-0.0448074 0.112943 0)
(-0.300519 0.186489 -1.64817e-19)
(-0.594218 0.235259 0)
(-0.91564 0.266818 -7.62391e-20)
(-1.25189 0.296036 0)
(-1.59132 0.323655 0)
(-1.93106 0.336464 -4.13224e-20)
(-2.26349 0.335615 0)
(-2.5806 0.326493 3.45405e-20)
(-2.87938 0.310355 0)
(-3.15639 0.289555 -3.13415e-20)
(-3.41074 0.266419 0)
(-3.64204 0.242539 0)
(-3.85101 0.218948 0)
(-4.03875 0.196354 0)
(-4.2067 0.175133 0)
(-4.35642 0.15549 2.82297e-20)
(-4.48949 0.137462 0)
(-4.6074 0.120977 -5.5571e-20)
(-4.71153 0.105909 0)
(-4.8031 0.0920965 5.47723e-20)
(-4.88316 0.0793789 0)
(-4.95261 0.0676039 0)
(-5.01221 0.0566434 -5.35503e-20)
(-5.06258 0.0464009 0)
(-5.10422 0.0368169 -5.26586e-20)
(-5.13754 0.0278744 5.21807e-20)
(-5.16294 0.0196177 0)
(-5.1808 0.0121945 5.11539e-20)
(-5.19141 0.00585276 5.06015e-20)
(-5.19494 0.000802885 0)
(-5.19262 -0.00315081 0)
(-5.1857 -0.00644919 0)
(-5.17432 -0.00937171 0)
(-5.1588 -0.0120825 0)
(-5.1393 -0.0146512 -4.6182e-20)
(-5.11595 -0.0170913 0)
(-5.08888 -0.0194143 4.43169e-20)
(-5.05819 -0.0216291 0)
(-5.02397 -0.023738 0)
(-4.98634 -0.0257428 -4.11388e-20)
(-4.94539 -0.0276439 0)
(-4.90122 -0.0294413 3.87632e-20)
(-4.85396 -0.0311348 0)
(-4.80372 -0.0327244 0)
(-4.75061 -0.03421 0)
(-4.69475 -0.0355916 -3.33837e-20)
(-4.63626 -0.0368695 0)
(-4.57527 -0.0380447 0)
(-4.51191 -0.0391177 -2.87863e-20)
(-4.4463 -0.0400893 0)
(-4.37858 -0.0409608 -2.5445e-20)
(-4.30888 -0.0417334 0)
(-4.23733 -0.0424088 0)
(-4.16406 -0.0429886 0)
(-4.0892 -0.0434746 1.80675e-20)
(-4.01289 -0.0438691 0)
(-3.93524 -0.0441743 0)
(-3.8564 -0.0443928 1.18855e-20)
(-3.77648 -0.0445274 9.69172e-21)
(-3.6956 -0.0445812 0)
(-3.61389 -0.0445575 5.09003e-21)
(-3.53145 -0.0444599 0)
(-3.44841 -0.0442922 3.64233e-22)
(-3.36487 -0.044059 0)
(-3.28092 -0.0437665 -1.01255e-20)
(-3.19667 -0.0434234 0)
(-3.11221 -0.0430424 2.13683e-20)
(-3.02761 -0.0426427 0)
(-2.94295 -0.0422531 0)
(-2.85828 -0.0419159 0)
(-2.77364 -0.0416933 -4.65608e-20)
(-2.68906 -0.0416679 0)
(-2.60454 -0.0419297 6.08362e-20)
(-2.52005 -0.0425349 0)
(-2.43556 -0.0434248 -7.65064e-20)
(-2.35131 -0.0443275 -8.48853e-20)
(-2.26754 -0.0447825 -9.35939e-20)
(-2.18452 -0.0445746 0)
(-2.1024 -0.0439697 0)
(-2.02122 -0.0432714 0)
(-1.94098 -0.0425665 0)
(-1.86169 -0.0418663 0)
(-1.78338 -0.0411719 0)
(-1.70606 -0.040485 0)
(-1.62977 -0.0398094 0)
(-1.55453 -0.0391508 1.9271e-19)
(-1.48035 -0.0385164 2.07031e-19)
(-1.40725 -0.0379114 0)
(-1.33524 -0.037325 0)
(-1.26434 -0.0366998 0)
(-1.19461 -0.0360422 2.74303e-19)
(-1.12603 -0.0354083 0)
(-1.05862 -0.0347928 0)
(-0.992369 -0.0341973 0)
(-0.927283 -0.0336234 0)
(-0.863363 -0.0330731 -3.90952e-19)
(-0.800607 -0.0325489 0)
(-0.73901 -0.0320541 0)
(-0.678567 -0.031592 4.89141e-19)
(-0.61927 -0.0311642 -5.28844e-19)
(-0.561114 -0.0307743 0)
(-0.504089 -0.0304327 -6.22466e-19)
(-0.448184 -0.0301632 0)
(-0.393378 -0.0300103 7.41462e-19)
(-0.339652 -0.029985 0)
(-0.28699 -0.0300488 0)
(-0.235379 -0.0301887 0)
(-0.184788 -0.0304157 0)
(-0.135194 -0.0307452 0)
(-0.0866392 -0.0311962 -2.84695e-18)
(-0.0393363 -0.0316503 -3.27775e-18)
(0.00676845 -0.0313497 0)
(0.0521854 -0.0298509 0)
(0.0969244 -0.0280004 0)
(0.140844 -0.0262824 2.68457e-18)
(0.183852 -0.0247496 0)
(0.225928 -0.0233761 0)
(0.267094 -0.0221385 0)
(0.307382 -0.0210169 2.03984e-18)
(0.346823 -0.019994 -1.93358e-18)
(0.385446 -0.0190558 0)
(0.423277 -0.0181907 0)
(0.46034 -0.0173895 -1.68685e-18)
(0.49666 -0.0166447 -1.62219e-18)
(0.532259 -0.0159501 0)
(0.567162 -0.0153007 0)
(0.601391 -0.0146922 1.46393e-18)
(0.634967 -0.0141209 -1.42044e-18)
(0.667914 -0.0135837 0)
(0.700255 -0.0130779 0)
(0.732011 -0.0126014 -1.31017e-18)
(0.763206 -0.0121519 0)
(0.793863 -0.0117279 0)
(0.824004 -0.0113277 -1.22266e-18)
(0.853653 -0.01095 0)
(0.882833 -0.0105935 -1.17358e-18)
(0.911568 -0.010257 0)
(0.939881 -0.00993949 0)
(0.967795 -0.0096399 0)
(0.995331 -0.00935713 1.0916e-18)
(1.02251 -0.00909009 0)
(1.04936 -0.00883749 0)
(1.07589 -0.00859792 0)
(1.10212 -0.00836953 0)
(1.12805 -0.00815011 0)
(1.1537 -0.00793669 0)
(1.17904 -0.00772546 9.82798e-19)
(1.20407 -0.00751122 9.69878e-19)
(1.22875 -0.007287 0)
(1.25299 -0.00704324 0)
(1.2767 -0.00676644 0)
(1.29972 -0.006438 -9.24534e-19)
(1.3218 -0.0060282 0)
(1.34253 -0.00549828 1.81396e-18)
(1.36147 -0.00476125 -1.80059e-18)
(1.37722 -0.00372563 -1.79186e-18)
(1.38981 -0.00195436 1.79016e-18)
(1.39023 0.00132715 -1.79554e-18)
(1.38753 0.00807469 1.80886e-18)
(1.30827 0.0198887 0)
(0.0963173 -0.268978 0)
(0.334073 -0.68127 0)
(0.514181 -0.706526 1.5736e-19)
(0.611823 -0.571352 0)
(0.662821 -0.408903 -1.11139e-19)
(0.683261 -0.253831 -1.08105e-19)
(0.677236 -0.11218 -5.62549e-20)
(0.646863 0.0155792 -5.62e-20)
(0.603886 0.125399 0)
(0.544691 0.211921 -6.08084e-20)
(0.46788 0.2674 0)
(0.373396 0.283203 0)
(0.257595 0.256436 1.70494e-19)
(0.110265 0.211436 9.82861e-20)
(-0.0747592 0.206281 -1.84468e-19)
(-0.301026 0.271828 -1.43802e-19)
(-0.579002 0.383401 -5.71913e-20)
(-0.90493 0.513237 0)
(-1.25852 0.642601 0)
(-1.61662 0.75643 0)
(-1.97224 0.841989 -2.85759e-20)
(-2.31783 0.895558 0)
(-2.64773 0.919044 6.90647e-20)
(-2.95445 0.915466 0)
(-3.23395 0.889031 0)
(-3.48459 0.844865 1.98199e-20)
(-3.70497 0.788299 0)
(-3.89592 0.724865 -1.97622e-20)
(-4.05931 0.658791 -4.17987e-20)
(-4.1987 0.59279 2.0169e-20)
(-4.31699 0.528964 0)
(-4.41709 0.469096 0)
(-4.5017 0.414016 0)
(-4.57323 0.364077 -4.42601e-20)
(-4.63375 0.319238 -4.47665e-20)
(-4.68493 0.279228 -2.21904e-20)
(-4.72816 0.243636 0)
(-4.76455 0.211981 4.53086e-20)
(-4.79499 0.183763 0)
(-4.82019 0.158503 -4.58804e-20)
(-4.84075 0.135759 0)
(-4.85716 0.115139 0)
(-4.86984 0.0962989 4.60908e-20)
(-4.87916 0.0789503 0)
(-4.88546 0.0628523 1.38173e-19)
(-4.88906 0.0478104 -4.56113e-20)
(-4.89023 0.0336894 0)
(-4.88922 0.0204585 -4.49422e-20)
(-4.88629 0.00823422 -4.44855e-20)
(-4.8817 -0.00282152 0)
(-4.87455 -0.0127645 0)
(-4.86373 -0.0218905 0)
(-4.84922 -0.0304428 0)
(-4.83093 -0.038536 0)
(-4.80889 -0.0462396 4.02195e-20)
(-4.78315 -0.0535905 7.91695e-20)
(-4.75379 -0.06061 -3.84422e-20)
(-4.7209 -0.0673093 0)
(-4.68457 -0.0736942 7.34912e-20)
(-4.64488 -0.0797673 -3.59693e-20)
(-4.60194 -0.0855293 0)
(-4.55585 -0.0909799 -3.32692e-20)
(-4.50671 -0.0961191 0)
(-4.45463 -0.100948 0)
(-4.39973 -0.105469 -5.98967e-20)
(-4.34212 -0.109682 2.83877e-20)
(-4.28193 -0.113586 -5.4705e-20)
(-4.21926 -0.117185 5.19862e-20)
(-4.15425 -0.120483 2.4296e-20)
(-4.08702 -0.123484 0)
(-4.0177 -0.126193 2.1363e-20)
(-3.94642 -0.128616 0)
(-3.87331 -0.13076 0)
(-3.79848 -0.132632 0)
(-3.72208 -0.134239 1.56365e-20)
(-3.64423 -0.135592 0)
(-3.56505 -0.136699 2.37699e-20)
(-3.48467 -0.137569 -2.9979e-20)
(-3.4032 -0.138213 -7.9433e-21)
(-3.32077 -0.138643 0)
(-3.2375 -0.138868 -4.14261e-21)
(-3.15349 -0.138901 0)
(-3.06885 -0.138754 -2.94285e-22)
(-2.98369 -0.138437 0)
(-2.89812 -0.137964 8.11176e-21)
(-2.81222 -0.137347 -2.35658e-20)
(-2.7261 -0.136596 -1.69652e-20)
(-2.63985 -0.135723 0)
(-2.55355 -0.134736 0)
(-2.46729 -0.13364 0)
(-2.38118 -0.132434 3.61838e-20)
(-2.29532 -0.13111 0)
(-2.20986 -0.12964 -4.66556e-20)
(-2.12494 -0.127968 0)
(-2.04069 -0.126042 1.7188e-19)
(-1.95721 -0.123887 6.36324e-20)
(-1.87448 -0.121604 6.9664e-20)
(-1.79246 -0.119299 0)
(-1.71113 -0.11703 0)
(-1.63054 -0.114796 0)
(-1.55075 -0.112574 0)
(-1.47182 -0.11035 0)
(-1.39379 -0.108119 2.19497e-19)
(-1.31668 -0.105883 2.34989e-19)
(-1.24054 -0.103643 0)
(-1.16539 -0.101404 -1.34764e-19)
(-1.09124 -0.0991688 -1.43544e-19)
(-1.01814 -0.0969379 0)
(-0.946097 -0.0947139 -3.23045e-19)
(-0.875134 -0.0925012 0)
(-0.805242 -0.0903133 1.81329e-19)
(-0.736432 -0.088156 0)
(-0.668713 -0.0860296 0)
(-0.60209 -0.0839363 -4.34465e-19)
(-0.536566 -0.0818777 0)
(-0.472142 -0.0798554 2.44841e-19)
(-0.408818 -0.0778723 0)
(-0.346592 -0.0759341 0)
(-0.285458 -0.0740496 2.8978e-19)
(-0.225408 -0.072217 3.09086e-19)
(-0.166434 -0.0704307 0)
(-0.108532 -0.0686939 -3.46382e-19)
(-0.0517056 -0.0670065 0)
(0.00404748 -0.0653602 3.82643e-19)
(0.0587689 -0.0637479 7.66182e-19)
(0.112492 -0.062181 0)
(0.165218 -0.0606743 0)
(0.216946 -0.0592321 0)
(0.267691 -0.0578523 0)
(0.317487 -0.056537 7.09232e-19)
(0.366403 -0.0552751 2.09642e-18)
(0.414526 -0.0538963 0)
(0.461767 -0.0522505 0)
(0.507988 -0.0504761 0)
(0.553256 -0.0487291 -6.65621e-19)
(0.597655 -0.0470613 0)
(0.641212 -0.045481 0)
(0.683944 -0.0439857 1.28792e-18)
(0.725873 -0.0425689 6.36942e-19)
(0.76702 -0.0412232 6.32418e-19)
(0.807406 -0.039942 0)
(0.847053 -0.0387197 0)
(0.885982 -0.037552 6.15874e-19)
(0.924215 -0.0364351 -6.09638e-19)
(0.961772 -0.0353662 0)
(0.998676 -0.0343428 0)
(1.03495 -0.0333627 -5.9678e-19)
(1.07061 -0.0324241 1.77636e-18)
(1.10568 -0.0315253 0)
(1.14018 -0.030665 0)
(1.17414 -0.0298418 5.80312e-19)
(1.20757 -0.0290547 0)
(1.2405 -0.0283024 1.14492e-18)
(1.27295 -0.0275842 -5.68527e-19)
(1.30494 -0.0268988 0)
(1.33649 -0.0262455 5.62415e-19)
(1.36763 -0.025623 1.11755e-18)
(1.39838 -0.0250305 0)
(1.42875 -0.0244665 0)
(1.45878 -0.0239297 -5.49584e-19)
(1.48847 -0.0234182 0)
(1.51785 -0.0229298 1.08646e-18)
(1.54693 -0.0224617 0)
(1.57573 -0.0220099 0)
(1.60425 -0.0215696 0)
(1.6325 -0.021134 0)
(1.66046 -0.0206942 -5.29013e-19)
(1.68813 -0.0202381 -5.26246e-19)
(1.71545 -0.0197494 0)
(1.74239 -0.0192054 0)
(1.76883 -0.0185744 0)
(1.79464 -0.0178108 5.16155e-19)
(1.81962 -0.0168476 0)
(1.84344 -0.0155816 -1.0249e-18)
(1.86568 -0.013836 1.02264e-18)
(1.88541 -0.0113261 1.02225e-18)
(1.90221 -0.00731137 1.02335e-18)
(1.91242 -0.000521009 1.02851e-18)
(1.92472 0.0124225 1.0204e-18)
(1.90516 0.0361844 0)
(0.116443 -0.859713 0)
(0.26902 -1.05684 0)
(0.316115 -0.826018 -1.2633e-19)
(0.315422 -0.584244 -1.08169e-19)
(0.297992 -0.373778 1.00489e-19)
(0.266784 -0.18865 1.0067e-19)
(0.220602 -0.0231896 -6.44946e-22)
(0.158706 0.124554 0)
(0.0809692 0.255098 0)
(-0.0138445 0.366017 0)
(-0.129292 0.451729 0)
(-0.273438 0.512791 0)
(-0.459198 0.566616 -2.67336e-19)
(-0.697059 0.641352 0)
(-0.983284 0.753908 6.62771e-20)
(-1.30202 0.895875 5.71761e-20)
(-1.6353 1.04399 0)
(-1.96624 1.178 0)
(-2.27958 1.28538 0)
(-2.56346 1.35909 0)
(-2.81258 1.39484 3.49044e-20)
(-3.02651 1.39239 0)
(-3.20666 1.35643 -3.23471e-20)
(-3.35585 1.29419 0)
(-3.47856 1.21299 0)
(-3.57938 1.11922 0)
(-3.66313 1.01897 -6.8589e-20)
(-3.73418 0.917581 0)
(-3.79605 0.819174 3.3118e-20)
(-3.8515 0.726549 -7.07025e-20)
(-3.90248 0.64122 0)
(-3.95027 0.563924 0)
(-3.99563 0.49471 0)
(-4.03892 0.433195 3.65652e-20)
(-4.08026 0.37873 3.71526e-20)
(-4.1196 0.330542 0)
(-4.15679 0.287834 0)
(-4.19168 0.249847 -7.78023e-20)
(-4.22408 0.215886 -7.81952e-20)
(-4.25382 0.18534 7.84282e-20)
(-4.28076 0.157691 0)
(-4.3048 0.132511 0)
(-4.32583 0.109449 0)
(-4.34378 0.0882237 0)
(-4.3586 0.0685997 -7.70118e-20)
(-4.37023 0.0503775 -7.69137e-20)
(-4.37859 0.0333729 7.62708e-20)
(-4.38356 0.0173851 0)
(-4.38495 0.00215765 0)
(-4.38262 -0.0125958 0)
(-4.3765 -0.0270084 0)
(-4.36665 -0.0409935 -7.11072e-20)
(-4.35314 -0.0544592 0)
(-4.33598 -0.0673943 0)
(-4.31523 -0.079803 -6.69955e-20)
(-4.29093 -0.0916941 -6.49699e-20)
(-4.26315 -0.103075 0)
(-4.23197 -0.11395 1.24571e-19)
(-4.19745 -0.124321 -6.00319e-20)
(-4.15969 -0.134187 5.82553e-20)
(-4.11877 -0.143548 0)
(-4.07479 -0.152401 0)
(-4.02785 -0.160744 0)
(-3.97805 -0.168576 0)
(-3.92549 -0.1759 4.84238e-20)
(-3.87031 -0.182718 9.37785e-20)
(-3.81259 -0.189029 4.40584e-20)
(-3.75247 -0.194837 -4.17863e-20)
(-3.69006 -0.200147 0)
(-3.62548 -0.204966 7.54272e-20)
(-3.55886 -0.209302 7.05442e-20)
(-3.49032 -0.213164 6.55447e-20)
(-3.41999 -0.216562 -6.04295e-20)
(-3.34799 -0.219508 0)
(-3.27445 -0.222015 -7.41027e-20)
(-3.19949 -0.224095 0)
(-3.12323 -0.225764 2.00964e-20)
(-3.04579 -0.227036 1.58734e-20)
(-2.9673 -0.227929 0)
(-2.88787 -0.228458 0)
(-2.80762 -0.228641 1.53637e-20)
(-2.72666 -0.228495 0)
(-2.64509 -0.22804 2.92922e-21)
(-2.56304 -0.227293 0)
(-2.48059 -0.226274 9.99369e-21)
(-2.39786 -0.225001 3.47151e-20)
(-2.31494 -0.223495 0)
(-2.23193 -0.221775 0)
(-2.14892 -0.219859 0)
(-2.06601 -0.217765 4.45783e-20)
(-1.9833 -0.215507 0)
(-1.90088 -0.213098 5.93997e-20)
(-1.81885 -0.210538 0)
(-1.7373 -0.207813 0)
(-1.6563 -0.204897 -1.67045e-19)
(-1.57589 -0.201773 0)
(-1.49608 -0.198457 -9.9309e-20)
(-1.41688 -0.194992 0)
(-1.33832 -0.191433 -1.16588e-19)
(-1.26046 -0.187822 0)
(-1.18335 -0.184174 0)
(-1.10705 -0.180498 0)
(-1.0316 -0.1768 -4.62681e-19)
(-0.957028 -0.173086 -1.6504e-19)
(-0.883373 -0.169364 0)
(-0.810658 -0.16564 0)
(-0.73891 -0.16192 0)
(-0.66815 -0.158209 0)
(-0.598395 -0.154511 2.18836e-19)
(-0.529657 -0.150832 -4.58461e-19)
(-0.461942 -0.147182 -2.42669e-19)
(-0.395262 -0.143569 5.07653e-19)
(-0.329627 -0.139998 5.33451e-19)
(-0.265043 -0.136476 2.81376e-19)
(-0.20151 -0.133004 0)
(-0.139032 -0.129583 6.1622e-19)
(-0.0776094 -0.126217 0)
(-0.0172432 -0.122907 -6.73549e-19)
(0.0420727 -0.119656 -3.45156e-19)
(0.100352 -0.116466 0)
(0.1576 -0.113337 6.93119e-19)
(0.213823 -0.110274 3.48828e-19)
(0.269032 -0.107277 0)
(0.323236 -0.104336 3.48722e-19)
(0.376444 -0.10144 -1.05281e-18)
(0.428665 -0.0985987 0)
(0.479912 -0.0958219 0)
(0.530203 -0.0931125 0)
(0.579554 -0.0904714 0)
(0.627989 -0.0879031 -7.07745e-19)
(0.675541 -0.0854145 -7.10237e-19)
(0.722233 -0.0830208 0)
(0.768033 -0.080709 0)
(0.812924 -0.0784402 0)
(0.856959 -0.076213 0)
(0.900182 -0.0740437 0)
(0.942609 -0.0719409 0)
(0.984252 -0.0699072 -7.14013e-19)
(1.02513 -0.0679423 -1.08879e-21)
(1.06526 -0.0660448 0)
(1.10465 -0.0642125 0)
(1.14334 -0.0624436 -7.13846e-19)
(1.18134 -0.060736 0)
(1.21867 -0.0590883 7.14893e-19)
(1.25535 -0.057499 7.14032e-19)
(1.2914 -0.0559667 0)
(1.32684 -0.0544903 0)
(1.3617 -0.0530687 -7.14565e-19)
(1.39599 -0.0517007 -1.42733e-18)
(1.42973 -0.0503855 0)
(1.46295 -0.049122 0)
(1.49567 -0.0479094 0)
(1.5279 -0.0467466 -7.13259e-19)
(1.55967 -0.0456328 7.12877e-19)
(1.591 -0.0445671 0)
(1.62192 -0.0435482 1.42288e-18)
(1.65244 -0.0425752 7.10422e-19)
(1.68258 -0.0416465 -1.42083e-18)
(1.71237 -0.0407606 0)
(1.74182 -0.0399154 0)
(1.77096 -0.0391084 -1.41703e-18)
(1.79981 -0.0383363 -7.08225e-19)
(1.82837 -0.0375946 0)
(1.85666 -0.0368778 0)
(1.8847 -0.0361782 0)
(1.91248 -0.0354856 0)
(1.94001 -0.0347867 -1.4069e-18)
(1.96726 -0.0340629 0)
(1.99422 -0.0332894 0)
(2.02082 -0.0324319 0)
(2.04701 -0.0314426 0)
(2.07265 -0.030253 0)
(2.09758 -0.0287624 0)
(2.12154 -0.0268193 -1.39757e-18)
(2.14419 -0.0241722 0)
(2.16486 -0.0204157 0)
(2.18332 -0.0147576 -2.81637e-18)
(2.19676 -0.00588044 1.41821e-18)
(2.21145 0.00887334 -1.41633e-18)
(2.20636 0.0362518 1.41178e-18)
(0.0333236 -1.16608 0)
(0.0696861 -1.02977 3.59935e-19)
(0.0339338 -0.74681 0)
(-0.0105231 -0.50633 1.10879e-19)
(-0.0658584 -0.283609 0)
(-0.133724 -0.0740191 0)
(-0.21697 0.122836 -8.28072e-20)
(-0.31797 0.306219 0)
(-0.438849 0.47569 0)
(-0.582213 0.631805 0)
(-0.751917 0.7771 0)
(-0.953172 0.917677 0)
(-1.18861 1.06165 2.04195e-19)
(-1.45263 1.21242 9.24354e-20)
(-1.73078 1.36374 -8.36874e-20)
(-2.00468 1.50227 0)
(-2.2586 1.61416 0)
(-2.48248 1.6901 0)
(-2.67155 1.72633 0)
(-2.82438 1.72415 0)
(-2.94353 1.6874 6.01628e-20)
(-3.03456 1.62132 5.88461e-20)
(-3.10355 1.53276 -5.79932e-20)
(-3.15685 1.42939 5.76917e-20)
(-3.19985 1.31789 0)
(-3.23687 1.20368 0)
(-3.27141 1.09112 5.58449e-20)
(-3.30579 0.98349 0)
(-3.34131 0.882912 0)
(-3.37847 0.790427 5.86993e-20)
(-3.41728 0.706276 6.15173e-20)
(-3.45739 0.630234 6.2229e-20)
(-3.49828 0.56177 0)
(-3.53932 0.500187 0)
(-3.5799 0.444725 -6.40392e-20)
(-3.61946 0.394628 0)
(-3.65751 0.349185 0)
(-3.69363 0.307753 6.43121e-20)
(-3.72748 0.269766 -6.60322e-20)
(-3.75879 0.234737 6.60427e-20)
(-3.78731 0.202251 0)
(-3.81288 0.171957 0)
(-3.83533 0.143558 1.30018e-19)
(-3.85454 0.116805 0)
(-3.8704 0.0914849 1.2863e-19)
(-3.88283 0.0674221 1.91042e-19)
(-3.89173 0.0444724 -1.894e-19)
(-3.89704 0.0225155 1.25332e-19)
(-3.89873 0.00143439 0)
(-3.89678 -0.0188869 0)
(-3.89125 -0.0385265 1.19876e-19)
(-3.88217 -0.0575034 5.84072e-20)
(-3.86958 -0.0758135 0)
(-3.85353 -0.0934556 0)
(-3.83404 -0.110429 5.4901e-20)
(-3.81117 -0.126734 1.08253e-19)
(-3.78496 -0.142367 0)
(-3.75549 -0.157328 -1.018e-19)
(-3.72282 -0.171611 9.99703e-20)
(-3.68703 -0.185212 -9.69984e-20)
(-3.6482 -0.198127 0)
(-3.60642 -0.210349 0)
(-3.56178 -0.221874 0)
(-3.51438 -0.232699 0)
(-3.46432 -0.242829 0)
(-3.41171 -0.252263 -7.59255e-20)
(-3.35666 -0.261001 0)
(-3.29928 -0.269047 0)
(-3.23969 -0.276409 0)
(-3.17799 -0.283095 -1.22627e-19)
(-3.11432 -0.289116 -5.67061e-20)
(-3.04878 -0.294484 -5.26049e-20)
(-2.98151 -0.299213 9.80446e-20)
(-2.91262 -0.303319 -4.53647e-20)
(-2.84223 -0.306818 3.98128e-20)
(-2.77046 -0.309729 0)
(-2.69743 -0.312072 -3.08901e-20)
(-2.62326 -0.313868 0)
(-2.54807 -0.315137 0)
(-2.47196 -0.315904 0)
(-2.39505 -0.31619 -2.54934e-20)
(-2.31746 -0.31602 8.4868e-21)
(-2.23929 -0.315418 4.76929e-21)
(-2.16063 -0.314409 -2.97867e-21)
(-2.08161 -0.313016 -2.10021e-20)