/*--------------------------------*- C++ -*----------------------------------*\
  =========                 |
  \\      /  F ield         | OpenFOAM: The Open Source CFD Toolbox
   \\    /   O peration     | Website:  https://openfoam.org
    \\  /    A nd           | Version:  8
     \\/     M anipulation  |
\*---------------------------------------------------------------------------*/
FoamFile
{
    version     2.0;
    format      ascii;
    class       volScalarField;
    location    "500";
    object      omega;
}
// * * * * * * * * * * * * * * * * * * * * * * * * * * * * * * * * * * * * * //

dimensions      [0 0 -1 0 0 0 0];

internalField   nonuniform List<scalar> 
12225
(
32582.3
32582.3
38331.7
38368.4
39811.6
32582.3
46485.1
41532.5
40088.7
32582.3
43079.6
39146.4
32582.3
32582.3
40362
41696.1
45402.2
40981.8
8559.76
10181
13102
13093.4
15114.9
13797.4
16116.3
16160.6
16541.3
15728.9
16845.8
16475.2
16013.7
15706
15899.7
16250.7
17037.8
16499.5
1794.38
2140.02
2884.49
3623.42
4234.58
4345.4
4697.44
4921.62
5266.61
5377.89
5640.64
5846.7
5986.26
6158.55
6361.69
6676.28
6952.25
7212.83
806.218
858.932
1092.87
1309.51
1506.77
1617.04
1721.85
1836.74
1949.75
2047.39
2133.94
2237.61
2302.54
2402.47
2479.75
2586.87
2652.61
2756.53
547.797
557.241
654.407
736.442
807.23
858.605
901.936
950.131
991.242
1038.22
1073.01
1119.66
1150.07
1196.53
1225.76
1273.1
1295.66
1341.38
459.383
462.731
511.583
548.032
581.687
600.595
616.521
636.843
653.987
675.63
692.022
714.31
729.947
753.011
767.635
791.167
803.071
825.852
441.051
441.844
454.163
471.777
485.856
494.875
499.496
507.804
514.953
524.606
532.322
542.94
550.977
562.495
570.398
582.427
589.35
601.324
438.672
437.953
440.242
446.692
452.159
457.255
458.122
461.225
464.091
468.495
472.177
477.536
481.769
487.962
492.402
499.165
503.261
510.275
438.759
436.995
435.938
436.871
438.14
440.316
440.882
440.657
441.162
442.557
443.891
446.191
448.044
451.042
453.227
456.82
458.988
462.988
438.925
436.837
434.871
433.583
432.562
431.919
431.232
430.389
430.125
429.919
429.801
430.13
430.3
430.95
431.541
432.79
433.586
435.25
438.987
436.798
434.705
432.816
431.077
429.518
428.083
426.746
425.536
424.52
423.584
422.861
422.162
421.706
421.312
421.121
420.917
421.029
438.999
436.786
434.675
432.689
430.801
429.033
427.356
425.796
424.307
422.942
421.642
420.473
419.352
418.374
417.434
416.658
415.868
415.28
439
436.779
434.665
432.664
430.759
428.956
427.237
425.613
424.063
422.601
421.204
419.893
418.638
417.47
416.349
415.318
414.32
413.414
439.001
436.775
434.661
432.655
430.747
428.937
427.213
425.577
424.016
422.534
421.119
419.776
418.492
417.275
416.111
415.009
413.953
412.956
439.001
436.773
434.658
432.649
430.741
428.927
427.201
425.56
423.997
422.509
421.092
419.741
418.452
417.224
416.052
414.935
413.868
412.85
439.001
436.772
434.656
432.646
430.736
428.92
427.193
425.549
423.984
422.494
421.074
419.721
418.43
417.199
416.025
414.904
413.834
412.811
439.001
436.772
434.655
432.644
430.732
428.915
427.187
425.542
423.976
422.484
421.063
419.708
418.416
417.184
416.008
414.885
413.814
412.79
439.001
436.771
434.655
432.642
430.732
428.913
427.186
425.539
423.974
422.48
421.06
419.702
418.411
417.177
416.001
414.877
413.806
412.781
439
436.772
434.654
432.644
430.732
428.916
427.186
425.542
423.974
422.484
421.061
419.707
418.413
417.182
416.004
414.882
413.809
412.787
439
436.774
434.655
432.646
430.736
428.919
427.193
425.547
423.984
422.492
421.074
419.721
418.434
417.202
416.031
414.909
413.846
412.829
438.995
436.781
434.654
432.657
430.742
428.93
427.208
425.563
424.015
422.535
421.142
419.819
418.558
417.348
416.219
415.12
414.117
413.163
438.98
436.796
434.656
432.702
430.792
429
427.313
425.708
424.266
422.897
421.68
420.536
419.455
418.41
417.519
416.567
415.902
415.338
438.93
436.827
434.722
432.996
431.244
429.69
428.305
427.124
426.171
425.496
425.043
424.71
424.454
424.151
423.968
423.966
424.373
425.323
438.766
436.955
434.82
434.282
434.404
434.925
435.276
436.419
436.738
438.211
440.195
442.296
444.405
446.224
448.304
450.616
454.358
458.615
438.711
439.437
442.065
445.367
454.002
460.299
465.04
469.271
475.837
483.318
491.441
498.868
506.227
512.181
519.092
525.83
535.876
546.129
445.327
455.85
474.44
486.647
515.916
544.34
562.695
580.238
600.034
620.147
641.282
659.091
677.33
690.381
706.683
720.541
741.51
760.979
501.543
534.822
598.194
650.526
740.895
849.661
902.243
946.39
994.259
1039.93
1088.41
1125.79
1165.54
1189.98
1223.23
1247.42
1285.24
1316.15
792.22
928.644
1236.88
1500.53
1821.72
2132.76
2272.32
2366.27
2468.66
2559.51
2650.1
2711.99
2777.14
2810.31
2861.3
2891.08
2948.32
2996.25
2375.22
3948.47
5811.71
7029.46
7759.17
8160.3
8425.07
8603.92
8709.93
8764
8776.71
8772.85
8758.13
8736.88
8737.47
8741.22
8778.81
8801.68
16112.1
21955.9
23888.8
24786.6
25197.4
25206.5
25130.2
24980
24742.5
24486.7
24230.7
23984.1
23753.5
23541.2
23345.8
23169.2
23003.6
22856.5
11463.3
2494.65
2496.87
2499.12
2501.38
2503.67
2505.98
2508.3
2510.65
2513.02
2515.42
2517.83
2520.27
2522.73
2525.21
2527.72
2530.25
2532.8
2535.37
2537.97
2540.6
2543.25
2545.92
2548.62
2551.34
2554.09
2556.87
2559.67
2562.5
2565.35
2568.23
2571.14
2574.08
2577.04
2580.04
2583.06
2586.11
2589.19
2592.3
2595.43
2598.6
2601.8
2605.03
2608.29
2611.59
2614.91
2618.27
2621.66
2625.08
2628.54
2632.03
2635.55
2639.11
2642.71
2646.33
3182.64
3290.05
3216.05
2661.21
3236.94
3408.6
2672.76
3371.3
3413.88
3517.01
3605.4
3684.76
3767.39
3842.01
3917.43
3988.35
4058.67
4126.22
4192.7
4257.26
4320.62
4382.5
4443.2
4502.63
4560.95
4618.1
4674.21
4729.22
4783.22
4836.18
4888.12
4939.07
4988.95
5037.84
5085.64
5132.36
5177.99
5222.45
5265.75
5307.82
5348.65
5388.23
5426.51
5463.64
5499.78
5535.55
5570
5603.7
5636.37
5668.23
5699.09
5729.07
5758.07
5786.13
5813.22
5839.3
5864.41
5888.45
5911.53
5933.47
5954.45
5974.21
5993.03
6010.57
6027.16
6042.44
6056.76
6069.75
6081.78
6092.48
6102.22
6110.64
6118.29
6124.26
6130.03
6131.93
6134.35
6135.93
6136.74
6136.44
6135.11
6131.86
6127.46
6121.86
6115.25
6107.86
6099.6
6090.83
6081.36
6070.82
6060.06
6048.19
6036.15
6022.73
6009.41
5994.65
5980.34
5964.59
5949.53
5933
5917.4
5900.36
5884.47
5867.38
5851.24
5834.76
5818.63
5802.64
5786.85
5771.3
5756.01
5741.04
5726.44
5712.24
5698.49
5685.15
5672.22
5659.49
5646.8
5633.66
5619.61
5603.55
5582.72
5552.25
5426.1
11463.3
1993.34
1000.03
813.065
695.223
630.492
638.345
633.613
621.624
598.446
573.804
550.179
528.218
510.029
497.428
488.569
487.525
489.31
514.327
562.034
645.297
745.883
856.184
966.234
1066.8
1144.8
1193.57
1188.35
1154.95
1074.21
950.062
796.327
658.167
572.644
503.868
464.887
457.559
464.965
485.264
517.886
548.245
588.858
666.517
791.434
974.823
1273.16
1592.1
1824.37
1976.72
2059.93
2084.96
2084.4
2044.62
2003.38
1960.6
1934.69
1879.7
1816.12
1746.32
1750.15
1720.03
1681.05
1716.53
1693.35
1693.11
1689.83
1689.29
1691.08
1693.78
1698.1
1703.03
1708.95
1715.27
1722.17
1729.32
1736.76
1744.35
1752.08
1759.87
1767.69
1775.51
1783.31
1791.07
1798.74
1806.33
1813.8
1821.14
1828.34
1835.39
1842.26
1849
1855.53
1861.91
1868.12
1874.19
1880.19
1886.2
1892.43
1899.12
1906.82
1915.9
1924.13
1932.39
1940.35
1948.1
1955.63
1962.91
1969.96
1976.77
1983.34
1989.65
1995.72
2001.53
2007.07
2012.37
2017.4
2022.17
2026.68
2030.93
2034.93
2038.67
2042.16
2045.4
2048.39
2051.15
2053.66
2055.94
2057.98
2059.75
2061.28
2062.48
2063.68
2064.76
2065.56
2066.06
2066.17
2065.71
2064.39
2062.85
2061.16
2059.37
2056.67
2055.28
2051.67
2050.29
2046.31
2044.66
2040.3
2038.35
2033.65
2031.45
2026.54
2024.11
2019.05
2016.4
2011.27
2008.35
2003.28
1999.95
1995.46
1991.49
1987.39
1983.32
1979.26
1975.23
1971.23
1967.28
1963.38
1959.55
1955.79
1952.13
1948.53
1945.07
1941.76
1938.65
1935.86
1933.44
1931.99
1930.69
1938.9
11463.3
2007.16
818.112
653.494
695.999
694.405
662.518
605.562
545.007
488.28
438.474
395.658
362.138
335.945
315.821
300.431
289.66
281.615
279.253
281.525
291.602
309.906
341.875
385.086
440.403
500.422
563.804
611.4
646.8
644.865
627.979
586.043
524.618
453.748
400.63
387.967
397.692
420.307
453.68
519.788
624.427
770.376
963.87
1148.15
1302.06
1435.76
1527.83
1575.4
1578.31
1538.22
1484.39
1425.21
1366.77
1316.78
1272.26
1233.55
1201.44
1175.52
1153.77
1143.83
1132.44
1126.01
1123.82
1119.24
1118.57
1118.17
1119.06
1120.76
1123.03
1125.84
1128.99
1132.48
1136.19
1140.09
1144.13
1148.28
1152.5
1156.78
1161.09
1165.43
1169.77
1174.1
1178.42
1182.71
1186.97
1191.18
1195.35
1199.47
1203.54
1207.56
1211.54
1215.46
1219.36
1223.24
1227.13
1231.06
1235.06
1239.2
1243.49
1247.97
1252.45
1256.7
1260.88
1264.92
1268.83
1272.6
1276.24
1279.74
1283.09
1286.3
1289.37
1292.28
1295.05
1297.67
1300.13
1302.44
1304.6
1306.61
1308.47
1310.17
1311.73
1313.13
1314.39
1315.5
1316.47
1317.29
1317.97
1318.51
1318.91
1319.16
1319.3
1319.37
1319.4
1319.16
1318.49
1317.87
1317
1315.91
1314.73
1313.45
1312.06
1310.47
1309.01
1307.13
1305.56
1303.46
1301.72
1299.4
1297.5
1294.99
1292.97
1290.31
1288.18
1285.41
1283.16
1280.31
1277.95
1275.04
1272.54
1269.73
1267.02
1264.26
1261.5
1258.72
1255.93
1253.15
1250.36
1247.58
1244.81
1242.06
1239.35
1236.69
1234.12
1231.66
1229.4
1227.46
1226.01
1225.77
1227.13
1237.51
11463.3
2042.04
1030.19
998.843
915.791
782.559
663.1
554.569
469.433
406.058
358.305
320.746
291.85
269.795
252.98
240.203
230.618
223.688
219.105
217.442
218.502
221.564
229.87
243.887
265.435
293.716
328.612
363.726
396.609
420.415
429.146
423.598
402.132
398.216
432.119
518.976
587.015
642.28
709.888
805.341
937.325
1063.73
1147.51
1217.98
1275.58
1303.97
1285.08
1228.8
1190.93
1134.6
1089.29
1046.23
1010.97
981.621
957.672
938.045
923.111
911.958
903.599
898.613
894.739
892.778
891.989
891.619
892.352
893.645
895.475
897.691
900.211
902.987
905.956
909.089
912.345
915.705
919.143
922.644
926.193
929.778
933.388
937.013
940.646
944.28
947.908
951.525
955.126
958.706
962.265
965.8
969.311
972.798
976.264
979.709
983.139
986.563
989.988
993.421
996.87
1000.33
1003.8
1007.24
1010.6
1013.84
1016.99
1020.03
1022.97
1025.8
1028.53
1031.13
1033.63
1036
1038.26
1040.4
1042.42
1044.31
1046.09
1047.74
1049.26
1050.66
1051.94
1053.09
1054.12
1055.03
1055.81
1056.47
1057
1057.41
1057.7
1057.87
1057.93
1057.88
1057.71
1057.44
1057.07
1056.52
1055.79
1054.96
1053.99
1052.9
1051.7
1050.42
1049.03
1047.55
1046.02
1044.34
1042.66
1040.81
1038.98
1036.97
1034.99
1032.82
1030.73
1028.45
1026.25
1023.87
1021.58
1019.11
1016.72
1014.18
1011.71
1009.14
1006.57
1003.97
1001.36
998.721
996.071
993.41
990.738
988.063
985.386
982.717
980.07
977.461
974.917
972.474
970.195
968.196
966.633
966.061
967.029
973.425
11463.3
2335.49
1499.22
1200.53
949.408
730.907
563.524
451.871
375.532
322.152
284.176
257.6
238.142
223.395
212
203.191
196.552
191.745
188.549
187.068
187.382
188.723
192.603
199.389
210.18
225.884
247.054
271.088
295.745
315.74
331.937
353.504
415.018
515.552
607.689
675.807
743.534
818.966
893.559
960.215
1017.93
1067.83
1104.75
1118.13
1097.78
1046.61
1012.6
966.955
931.943
895.326
867.613
842.868
823.379
807.505
795.131
785.555
778.644
773.915
770.876
769.56
768.993
769.177
770.196
771.716
773.731
776.09
778.736
781.603
784.648
787.84
791.15
794.557
798.042
801.592
805.195
808.84
812.517
816.22
819.94
823.671
827.408
831.144
834.875
838.598
842.307
845.999
849.673
853.326
856.956
860.566
864.149
867.709
871.243
874.754
878.241
881.701
885.13
888.515
891.846
895.104
898.273
901.345
904.324
907.203
909.981
912.655
915.223
917.682
920.031
922.267
924.391
926.4
928.293
930.069
931.727
933.266
934.686
935.987
937.167
938.227
939.165
939.984
940.678
941.251
941.698
942.022
942.216
942.28
942.284
942.127
941.85
941.456
940.942
940.286
939.481
938.557
937.507
936.339
935.07
933.699
932.223
930.655
928.997
927.239
925.413
923.487
921.497
919.405
917.261
915.024
912.752
910.393
908.012
905.546
903.066
900.505
897.935
895.291
892.642
889.939
887.216
884.467
881.695
878.906
876.099
873.278
870.445
867.605
864.766
861.938
859.13
856.355
853.636
851.005
848.515
846.262
844.375
843.222
843.381
846.563
11463.3
2974.44
1752.92
1217.88
835.042
588.112
444.837
356.603
302.292
267.037
242.496
224.365
210.397
199.435
190.685
183.717
178.336
174.414
171.864
170.797
171.133
172.51
175.775
181.02
188.871
200.524
217.007
238.424
265.907
305.626
359.747
444.282
557.226
652.346
721.18
784.055
838.739
881.385
917.502
951.645
974.907
981.492
958.755
925.642
895.415
859.022
829.753
799.743
776.193
754.783
738.099
724.032
713.09
704.584
698.346
693.974
691.337
690.234
689.96
690.588
691.941
693.882
696.293
699.062
702.124
705.411
708.879
712.49
716.218
720.041
723.945
727.915
731.94
736.012
740.121
744.262
748.426
752.607
756.798
760.995
765.192
769.384
773.567
777.735
781.886
786.016
790.12
794.197
798.245
802.259
806.239
810.18
814.079
817.936
821.745
825.503
829.2
832.825
836.372
839.831
843.194
846.458
849.62
852.678
855.629
858.469
861.198
863.812
866.31
868.689
870.952
873.095
875.117
877.017
878.793
880.446
881.974
883.376
884.651
885.799
886.819
887.709
888.468
889.096
889.589
889.948
890.162
890.237
890.231
890.06
889.75
889.304
888.721
887.993
887.118
886.105
884.959
883.684
882.291
880.78
879.152
877.416
875.573
873.626
871.584
869.45
867.228
864.913
862.52
860.044
857.505
854.895
852.232
849.505
846.733
843.903
841.035
838.115
835.165
832.177
829.161
826.119
823.056
819.974
816.877
813.764
810.641
807.51
804.38
801.26
798.158
795.089
792.07
789.13
786.314
783.7
781.387
779.636
778.833
779.868
11463.3
3471.95
1789.74
1036.34
650.046
457.866
360.462
305.086
269.797
244.983
226.317
211.753
199.956
190.166
182.033
175.394
170.188
166.409
164.178
163.592
164.448
166.998
171.736
179.025
189.678
204.106
225.4
258.373
309.48
389.699
495.761
590.364
661.943
723.335
772.384
809.272
838.349
864.219
875.937
877.422
858.127
834.386
809.325
782.803
757.845
733.14
712.406
693.676
678.573
665.746
655.639
647.601
641.618
637.382
634.864
633.746
633.527
634.314
635.917
638.177
640.964
644.184
647.74
651.564
655.599
659.801
664.137
668.58
673.111
677.715
682.381
687.099
691.86
696.658
701.486
706.336
711.203
716.079
720.958
725.835
730.704
735.559
740.397
745.211
749.998
754.754
759.475
764.156
768.793
773.384
777.924
782.408
786.833
791.195
795.49
799.714
803.859
807.923
811.894
815.765
819.528
823.18
826.718
830.14
833.442
836.623
839.678
842.607
845.407
848.075
850.609
853.006
855.27
857.399
859.394
861.252
862.974
864.557
866.002
867.305
868.468
869.487
870.362
871.089
871.669
872.099
872.369
872.478
872.482
872.311
871.984
871.501
870.862
870.064
869.107
867.995
866.733
865.327
863.781
862.101
860.288
858.349
856.287
854.107
851.806
849.386
846.862
844.237
841.52
838.715
835.832
832.874
829.852
826.765
823.622
820.422
817.176
813.882
810.551
807.185
803.788
800.368
796.927
793.47
789.997
786.511
783.015
779.515
776.017
772.53
769.063
765.629
762.243
758.931
755.727
752.697
749.912
747.553
745.812
745.228
11463.3
3603.02
1561
813.22
515.689
383.87
315.716
275.852
250.064
231.927
217.97
206.127
195.826
186.932
179.4
173.288
168.775
166.025
164.955
165.511
167.901
172.734
180.501
193.02
212.756
242.108
286.465
355.522
442.835
526.789
593.637
650.326
698.363
736.926
767.635
789.633
798.541
795.938
780.413
762.834
742.592
722.4
702.541
683.074
664.965
648.456
634.513
622.6
612.955
605.163
599.211
594.867
592.084
590.783
590.473
591.147
592.738
595.108
598.122
601.667
605.645
609.978
614.593
619.434
624.455
629.621
634.905
640.284
645.741
651.263
656.839
662.459
668.116
673.802
679.511
685.237
690.97
696.704
702.432
708.147
713.842
719.512
725.151
730.755
736.317
741.835
747.303
752.714
758.066
763.351
768.568
773.709
778.771
783.748
788.638
793.435
798.137
802.739
807.227
811.594
815.834
819.944
823.921
827.763
831.468
835.033
838.455
841.733
844.865
847.851
850.688
853.378
855.92
858.312
860.554
862.645
864.583
866.367
867.996
869.468
870.782
871.934
872.925
873.75
874.409
874.9
875.208
875.336
875.325
875.128
874.753
874.2
873.47
872.56
871.472
870.209
868.774
867.173
865.412
863.495
861.426
859.212
856.859
854.37
851.75
849.013
846.16
843.197
840.13
836.966
833.714
830.38
826.974
823.498
819.96
816.363
812.715
809.02
805.285
801.514
797.714
793.89
790.046
786.187
782.314
778.429
774.538
770.645
766.756
762.881
759.029
755.211
751.441
747.74
744.137
740.663
737.377
734.418
731.873
729.935
11463.3
3402.2
1274.98
660.28
445.427
350.83
299.313
268.181
246.681
230.51
217.704
207.132
198.126
190.418
184.045
179.217
176.276
175.368
176.772
180.452
187.328
198.749
215.985
243.337
285.472
342.849
409.944
474.346
532.644
583.558
627.184
663.813
695.168
719.232
729.098
729.053
717.341
704.133
687.972
672.205
656.552
641.493
626.904
613.006
600.356
589.268
579.981
572.325
566.286
561.72
558.549
556.859
556.292
556.636
558.006
560.241
563.243
566.907
571.135
575.836
580.933
586.357
592.049
597.957
604.042
610.271
616.618
623.065
629.59
636.178
642.815
649.491
656.194
662.917
669.655
676.402
683.145
689.875
696.586
703.268
709.916
716.523
723.083
729.588
736.031
742.397
748.691
754.914
761.059
767.125
773.102
778.986
784.771
790.45
796.021
801.475
806.808
812.008
817.071
821.991
826.764
831.384
835.852
840.162
844.314
848.305
852.134
855.798
859.298
862.631
865.798
868.799
871.633
874.301
876.8
879.13
881.289
883.276
885.089
886.726
888.185
889.464
890.559
891.469
892.19
892.722
893.045
893.171
893.119
892.867
892.412
891.755
890.896
889.835
888.572
887.111
885.454
883.608
881.577
879.367
876.986
874.439
871.733
868.876
865.874
862.736
859.468
856.078
852.573
848.96
845.249
841.449
837.569
833.614
829.592
825.509
821.374
817.191
812.968
808.71
804.423
800.113
795.785
791.444
787.091
782.73
778.366
774.003
769.65
765.314
761.005
756.732
752.509
748.352
744.287
740.352
736.586
733.085
729.876
726.884
11463.3
2959.1
1027.86
563.53
403.061
330.23
291.402
266.001
248.624
235.851
225.615
216.994
209.718
203.87
199.842
198.231
199.21
203.636
211.436
222.979
240.31
265.311
299.662
342.383
389.514
437.924
484.299
526.521
564.492
597.243
625.961
651.583
664.993
667.853
662.318
653.354
641.025
628.749
616.454
604.835
593.575
582.674
572.175
562.376
553.647
546.19
540.085
535.288
531.767
529.564
528.623
528.543
529.518
531.43
534.217
537.785
542.05
546.928
552.34
558.213
564.48
571.08
577.955
585.056
592.344
599.784
607.351
615.036
622.804
630.631
638.502
646.401
654.309
662.208
670.067
677.879
685.677
693.458
701.212
708.929
716.601
724.222
731.785
739.283
746.709
754.062
761.331
768.5
775.561
782.507
789.334
796.033
802.6
809.029
815.316
821.455
827.438
833.262
838.922
844.413
849.729
854.868
859.828
864.605
869.199
873.607
877.829
881.864
885.71
889.369
892.841
896.126
899.225
902.138
904.863
907.4
909.746
911.9
913.86
915.625
917.19
918.555
919.714
920.665
921.405
921.931
922.222
922.299
922.162
921.803
921.218
920.405
919.365
918.098
916.603
914.885
912.947
910.794
908.433
905.869
903.11
900.165
897.042
893.75
890.296
886.689
882.94
879.055
875.044
870.916
866.681
862.348
857.929
853.431
848.862
844.231
839.546
834.816
830.046
825.243
820.412
815.56
810.693
805.814
800.927
796.037
791.148
786.267
781.4
776.555
771.741
766.967
762.245
757.589
753.022
748.573
744.272
740.192
736.327
732.374
11463.3
2476.66
889.469
522.385
388.559
326.557
292.463
272.17
258.665
248.767
241.047
235.01
230.788
228.996
229.65
234.001
242.167
253.413
267.903
287.778
313.279
343.605
377.314
412.462
447.351
480.847
512.075
539.932
565.245
588.886
604.799
610.473
610.464
606.076
598.401
589.575
580.312
571.501
563.011
554.833
546.808
538.98
531.522
524.708
518.792
513.921
510.156
507.493
506.089
505.673
506.197
507.706
510.161
513.497
517.654
522.558
528.134
534.311
541.021
548.2
555.8
563.77
572.031
580.536
589.24
598.1
607.062
616.043
625.081
634.187
643.345
652.536
661.736
670.926
680.101
689.256
698.368
707.439
716.447
725.382
734.237
743.009
751.693
760.28
768.759
777.12
785.35
793.445
801.398
809.204
816.857
824.349
831.674
838.828
845.805
852.602
859.213
865.634
871.858
877.882
883.699
889.309
894.708
899.897
904.872
909.634
914.181
918.515
922.635
926.545
930.244
933.737
937.023
940.102
942.975
945.639
948.094
950.336
952.366
954.179
955.775
957.147
958.295
959.212
959.896
960.336
960.526
960.475
960.184
959.645
958.856
957.815
956.522
954.975
953.177
951.13
948.838
946.306
943.541
940.55
937.343
933.928
930.316
926.515
922.537
918.391
914.089
909.64
905.055
900.344
895.518
890.587
885.564
880.458
875.279
870.039
864.747
859.412
854.039
848.636
843.207
837.76
832.3
826.832
821.36
815.891
810.43
804.983
799.556
794.158
788.795
783.477
778.213
773.019
767.912
762.918
758.056
753.386
748.89
744.074
11463.3
2069.11
790.551
491.438
380.995
328.334
300.635
284.401
274.029
267.008
262.269
259.911
259.509
261.96
267.797
277.077
289.32
304.24
322.482
343.944
367.829
393.178
419.044
444.608
469.158
491.803
513.128
533.548
549.897
558.041
560.518
560.615
557.503
552.507
546.549
540.418
534.367
528.521
522.767
517.06
511.399
505.91
500.797
496.293
492.589
489.801
488.1
487.448
487.656
488.889
491.072
494.185
498.2
503.084
508.822
515.292
522.429
530.167
538.439
547.164
556.226
565.548
575.188
585.121
595.307
605.703
616.272
627.01
637.852
648.745
659.652
670.554
681.413
692.187
702.861
713.423
723.859
734.154
744.326
754.385
764.333
774.174
783.903
793.513
802.989
812.313
821.473
830.459
839.263
847.88
856.305
864.53
872.548
880.353
887.943
895.314
902.462
909.381
916.067
922.515
928.72
934.682
940.399
945.872
951.099
956.082
960.82
965.314
969.569
973.588
977.376
980.936
984.269
987.376
990.258
992.914
995.342
997.541
999.509
1001.24
1002.74
1004
1005.02
1005.78
1006.29
1006.54
1006.52
1006.23
1005.68
1004.86
1003.77
1002.41
1000.76
998.846
996.653
994.187
991.453
988.456
985.203
981.703
977.965
974
969.819
965.432
960.853
956.092
951.162
946.076
940.846
935.482
929.997
924.402
918.708
912.931
907.082
901.174
895.217
889.221
883.191
877.135
871.056
864.963
858.859
852.752
846.648
840.554
834.477
828.421
822.394
816.4
810.449
804.547
798.704
792.935
787.256
781.687
776.243
770.97
765.859
760.25
11463.3
1944.73
773.651
488.511
384.197
337.253
313.417
300.147
292.341
288.057
286.374
286.479
289.329
294.935
303.27
314.075
327.045
342.164
359.162
377.45
396.424
415.499
434.119
451.936
469.243
486.317
500.701
510.283
515.187
517.161
517.567
516.414
513.865
510.622
507.071
503.435
499.764
496.06
492.305
488.542
484.867
481.44
478.45
476.085
474.593
474.024
474.325
475.759
478.117
481.401
485.591
490.661
496.56
503.194
510.394
518.327
526.984
536.314
546.255
556.744
567.744
579.215
591.066
603.242
615.692
628.364
641.197
654.158
667.18
680.154
693.008
705.675
718.121
730.338
742.318
754.06
765.574
776.881
788.015
798.998
809.846
820.57
831.177
841.655
851.98
862.125
872.068
881.791
891.287
900.555
909.588
918.378
926.917
935.198
943.219
950.976
958.468
965.689
972.635
979.3
985.684
991.783
997.602
1003.14
1008.4
1013.38
1018.09
1022.52
1026.69
1030.6
1034.25
1037.66
1040.83
1043.75
1046.43
1048.87
1051.06
1053.02
1054.73
1056.19
1057.41
1058.38
1059.09
1059.53
1059.71
1059.61
1059.22
1058.55
1057.6
1056.36
1054.84
1053.02
1050.9
1048.49
1045.79
1042.8
1039.51
1035.95
1032.11
1028.01
1023.64
1019.04
1014.2
1009.14
1003.88
998.425
992.79
986.991
981.041
974.954
968.741
962.417
955.989
949.478
942.901
936.27
929.595
922.884
916.146
909.386
902.61
895.822
889.028
882.236
875.457
868.698
861.965
855.263
848.597
841.972
835.395
828.873
822.418
816.043
809.763
803.595
797.549
791.662
785.941
779.594
11463.3
1888.21
751.574
486.782
391.704
349.307
328.414
317.281
311.326
308.709
308.166
310.053
314.509
321.195
329.822
340.072
351.688
364.421
377.938
391.841
405.739
419.48
433.24
446.834
458.689
467.186
473.36
477.716
480.373
481.64
482.065
481.886
481.029
479.811
478.37
476.778
475.075
473.309
471.564
469.993
468.83
468.12
467.91
468.35
469.581
471.6
474.333
477.585
481.731
486.852
492.956
500.023
508.02
516.926
526.771
537.463
548.969
561.215
574.12
587.614
601.634
616.109
630.939
646.046
661.381
676.878
692.382
707.766
722.921
737.794
752.32
766.443
780.129
793.368
806.162
818.52
830.496
842.172
853.656
864.997
876.205
887.315
898.352
909.29
920.082
930.683
941.054
951.152
960.984
970.55
979.846
988.86
997.579
1006
1014.11
1021.91
1029.4
1036.58
1043.44
1049.98
1056.2
1062.09
1067.67
1072.93
1077.88
1082.52
1086.87
1090.94
1094.72
1098.23
1101.45
1104.41
1107.1
1109.53
1111.71
1113.63
1115.3
1116.72
1117.89
1118.8
1119.47
1119.88
1120.02
1119.9
1119.51
1118.82
1117.87
1116.62
1115.09
1113.26
1111.13
1108.69
1105.95
1102.91
1099.55
1095.9
1091.94
1087.69
1083.15
1078.33
1073.24
1067.9
1062.31
1056.49
1050.45
1044.22
1037.8
1031.21
1024.46
1017.58
1010.57
1003.46
996.232
988.934
981.578
974.173
966.73
959.258
951.764
944.254
936.734
929.211
921.682
914.167
906.677
899.218
891.796
884.414
877.078
869.79
862.555
855.384
848.29
841.285
834.382
827.595
820.93
814.417
808.093
801.049
11463.3
1856.79
750.176
493.723
403.117
363.014
343.292
332.889
327.531
325.343
325.045
327.346
331.88
338.138
345.701
354.233
363.536
373.398
383.597
393.903
404.438
414.68
423.663
431.168
437.439
442.952
447.445
451.106
454.109
456.634
458.894
460.904
462.566
463.961
465.155
466.206
467.17
468.109
469.072
470.061
470.926
472.289
474.386
477.464
481.465
486.405
492.31
499.32
507.371
516.499
526.72
537.99
550.258
563.491
577.673
592.733
608.725
625.426
642.687
660.394
678.441
696.719
715.112
733.501
751.745
769.713
787.344
804.533
821.163
837.125
852.344
866.79
880.486
893.467
905.754
917.314
928.305
938.909
949.474
960.054
970.558
981.07
991.687
1002.31
1012.84
1023.2
1033.33
1043.21
1052.83
1062.16
1071.21
1079.95
1088.37
1096.44
1104.16
1111.54
1118.57
1125.25
1131.58
1137.54
1143.14
1148.38
1153.26
1157.79
1161.98
1165.83
1169.36
1172.61
1175.55
1178.19
1180.54
1182.59
1184.37
1185.87
1187.12
1188.12
1188.86
1189.35
1189.59
1189.57
1189.35
1188.85
1188.09
1187.07
1185.8
1184.26
1182.45
1180.36
1177.98
1175.3
1172.33
1169.05
1165.47
1161.59
1157.4
1152.9
1148.09
1142.99
1137.6
1131.92
1125.96
1119.74
1113.27
1106.57
1099.64
1092.52
1085.2
1077.72
1070.08
1062.31
1054.41
1046.42
1038.36
1030.23
1022.05
1013.83
1005.58
997.305
989.012
980.711
972.409
964.113
955.818
947.551
939.323
931.139
923.001
914.914
906.881
898.905
890.988
883.147
875.394
867.742
860.199
852.779
845.485
838.338
831.414
823.715
11463.3
1835.71
750.176
502.2
413.026
373.879
354.874
344.455
338.908
336.577
336.148
338.058
341.902
347.115
353.284
360.159
367.629
375.597
383.863
391.909
399.636
407.022
414.218
421.007
427.477
433.696
439.618
445.238
450.496
455.344
459.643
463.443
467.037
470.519
473.962
477.442
481.035
484.828
488.916
493.431
498.654
504.687
511.807
520.254
529.694
540.175
551.744
564.468
578.298
593.25
609.467
626.744
644.904
663.824
683.389
703.459
723.813
744.423
765.198
786.028
806.8
827.405
847.74
867.708
887.212
906.165
924.494
942.117
958.935
974.798
989.603
1003.43
1016.4
1028.61
1040.1
1050.93
1061.09
1070.67
1079.82
1088.65
1097.3
1106.1
1115.47
1124.98
1134.43
1143.71
1152.76
1161.59
1170.17
1178.46
1186.46
1194.13
1201.46
1208.41
1214.99
1221.2
1227.03
1232.49
1237.57
1242.26
1246.56
1250.47
1254
1257.16
1259.95
1262.38
1264.46
1266.25
1267.73
1268.89
1269.77
1270.36
1270.69
1270.75
1270.58
1270.23
1269.6
1268.75
1267.67
1266.38
1264.87
1263.14
1261.17
1258.98
1256.54
1253.86
1250.92
1247.72
1244.25
1240.5
1236.47
1232.15
1227.55
1222.66
1217.47
1211.99
1206.21
1200.14
1193.79
1187.15
1180.25
1173.08
1165.67
1158.03
1150.17
1142.11
1133.87
1125.46
1116.91
1108.22
1099.41
1090.51
1081.55
1072.55
1063.49
1054.39
1045.27
1036.12
1026.97
1017.81
1008.67
999.546
990.472
981.444
972.466
963.54
954.67
945.858
937.11
928.429
919.816
911.294
902.874
894.567
886.378
878.319
870.395
862.615
855.097
846.787
11463.3
1824.79
753.64
507.602
419.404
381.289
362.518
351.981
346.343
343.921
343.423
345.141
348.71
353.642
359.507
366.101
373.244
380.783
388.623
396.911
405.215
413.465
421.766
430.082
438.473
446.972
455.582
464.227
472.761
481.257
489.811
498.481
507.281
516.282
525.559
535.196
545.286
555.908
567.154
579.144
592.028
605.797
620.44
635.763
651.964
669.097
687.224
706.407
726.52
747.413
768.88
791.094
813.773
836.72
859.775
882.777
905.57
928.041
950.076
971.572
992.449
1012.65
1032.12
1050.83
1068.76
1085.87
1102.16
1117.62
1132.25
1146.05
1159.05
1171.05
1182.33
1193.01
1203.15
1212.82
1221.86
1230.26
1237.9
1244.95
1251.78
1258.97
1266.42
1273.82
1281.05
1288.03
1294.78
1301.25
1307.47
1313.42
1319.07
1324.41
1329.41
1334.06
1338.34
1342.26
1345.82
1349.03
1351.89
1354.37
1356.47
1358.2
1359.58
1360.62
1361.32
1361.67
1361.68
1361.49
1361.02
1360.26
1359.25
1358
1356.54
1354.87
1353
1350.96
1348.73
1346.31
1343.72
1340.95
1338.01
1334.89
1331.58
1328.08
1324.38
1320.47
1316.33
1311.97
1307.36
1302.51
1297.41
1292.05
1286.43
1280.55
1274.41
1267.99
1261.31
1254.35
1247.13
1239.64
1231.9
1223.91
1215.7
1207.26
1198.63
1189.8
1180.8
1171.64
1162.33
1152.89
1143.33
1133.67
1123.93
1114.13
1104.27
1094.37
1084.44
1074.48
1064.52
1054.56
1044.61
1034.69
1024.84
1015.04
1005.29
995.593
985.958
976.389
966.893
957.484
948.183
938.991
929.913
920.955
912.125
903.435
894.887
886.49
878.391
869.523
11463.3
1814.92
755.894
510.66
422.656
386.734
368.6
358.844
354.722
353.319
353.991
357.166
362.089
368.364
375.934
385.036
394.779
405.085
416.49
429.132
442.304
456.001
470.481
485.757
501.809
518.59
536.04
554.079
572.726
591.939
611.698
631.929
652.545
673.528
694.914
716.768
739.21
762.232
785.742
809.666
833.949
858.504
883.214
907.956
932.811
957.833
983.152
1009.34
1035.63
1061.61
1086.89
1111.17
1134.54
1157.01
1178.5
1198.94
1218.27
1236.42
1253.39
1269.18
1283.82
1297.35
1309.8
1321.26
1331.75
1341.32
1350.04
1357.97
1365.21
1371.95
1378.43
1384.71
1390.74
1396.41
1401.68
1406.53
1410.73
1414.64
1418.44
1422.36
1426.72
1431.12
1434.88
1438.27
1441.4
1444.32
1447.04
1449.6
1451.96
1454.13
1456.07
1457.78
1459.22
1460.39
1461.29
1461.92
1462.28
1462.34
1462.14
1461.63
1460.82
1459.73
1458.36
1456.74
1454.87
1452.74
1450.38
1447.82
1445.06
1442.12
1439.01
1435.75
1432.35
1428.81
1425.14
1421.35
1417.45
1413.42
1409.28
1405.02
1400.65
1396.15
1391.52
1386.75