/*--------------------------------*- C++ -*----------------------------------*\
  =========                 |
  \\      /  F ield         | OpenFOAM: The Open Source CFD Toolbox
   \\    /   O peration     | Website:  https://openfoam.org
    \\  /    A nd           | Version:  8
     \\/     M anipulation  |
\*---------------------------------------------------------------------------*/
FoamFile
{
    version     2.0;
    format      ascii;
    class       volScalarField;
    location    "500";
    object      p;
}
// * * * * * * * * * * * * * * * * * * * * * * * * * * * * * * * * * * * * * //

dimensions      [0 2 -2 0 0 0 0];

internalField   nonuniform List<scalar> 
12225
(
-4.17481
-5.07094
-5.45986
-5.57411
-5.69494
-5.84277
-5.97695
-6.08729
-6.17683
-6.25178
-6.31818
-6.38161
-6.4436
-6.50773
-6.57607
-6.64557
-6.72854
-6.82056
-4.43859
-5.09835
-5.43395
-5.54695
-5.66521
-5.80992
-5.94053
-6.05183
-6.14803
-6.22623
-6.29315
-6.35811
-6.42124
-6.48436
-6.55101
-6.62169
-6.69285
-6.75244
-4.65786
-5.10386
-5.41717
-5.55299
-5.67491
-5.81464
-5.94177
-6.05069
-6.14505
-6.2233
-6.29084
-6.35513
-6.41831
-6.48087
-6.5443
-6.60823
-6.66896
-6.7172
-4.81154
-5.1292
-5.4232
-5.56952
-5.68635
-5.81586
-5.93705
-6.04181
-6.1327
-6.21029
-6.27858
-6.3429
-6.40549
-6.46656
-6.52697
-6.58629
-6.64165
-6.68723
-4.93844
-5.17849
-5.43964
-5.58607
-5.69887
-5.82072
-5.93675
-6.0377
-6.12567
-6.20253
-6.27107
-6.33495
-6.39625
-6.4555
-6.51321
-6.56883
-6.62014
-6.66318
-5.05119
-5.2331
-5.45711
-5.60092
-5.71186
-5.82724
-5.93772
-6.03481
-6.12012
-6.19586
-6.26403
-6.32716
-6.38714
-6.44466
-6.49999
-6.55249
-6.60049
-6.64145
-5.15693
-5.28973
-5.47784
-5.61599
-5.72445
-5.83332
-5.93797
-6.03131
-6.1142
-6.18863
-6.25614
-6.31851
-6.37732
-6.43326
-6.48643
-6.53621
-6.58146
-6.62063
-5.23934
-5.33946
-5.49944
-5.62968
-5.73472
-5.83799
-5.9376
-6.02772
-6.10852
-6.18167
-6.2484
-6.31005
-6.36788
-6.42252
-6.47398
-6.52174
-6.56505
-6.60292
-5.30628
-5.38423
-5.52092
-5.64271
-5.74403
-5.84225
-5.93731
-6.02443
-6.10324
-6.17509
-6.24095
-6.30186
-6.35878
-6.41225
-6.46228
-6.50848
-6.55033
-6.58718
-5.37277
-5.43268
-5.54669
-5.65825
-5.75478
-5.84748
-5.93756
-6.02125
-6.09771
-6.16788
-6.23254
-6.29242
-6.34821
-6.40036
-6.44892
-6.49356
-6.53405
-6.57
-5.43759
-5.48341
-5.57667
-5.67662
-5.76719
-5.85399
-5.93866
-6.01844
-6.09214
-6.16023
-6.22329
-6.2818
-6.33621
-6.38693
-6.43392
-6.47711
-6.51633
-6.55144
-5.49967
-5.53478
-5.61005
-5.69768
-5.78123
-5.86181
-5.94077
-6.01619
-6.08668
-6.1523
-6.21335
-6.27015
-6.32299
-6.37211
-6.41758
-6.45933
-6.4974
-6.53168
-5.55781
-5.58503
-5.64541
-5.72082
-5.79658
-5.87072
-5.94383
-6.01452
-6.08145
-6.14419
-6.20292
-6.2577
-6.30879
-6.35622
-6.40017
-6.44055
-6.47753
-6.51102
-5.61072
-5.63214
-5.68069
-5.74484
-5.81254
-5.8802
-5.94748
-6.01331
-6.07635
-6.13601
-6.19212
-6.24476
-6.29388
-6.33966
-6.38202
-6.42114
-6.45701
-6.4898
-5.65647
-5.67371
-5.71328
-5.76779
-5.82783
-5.88926
-5.95102
-6.01207
-6.07122
-6.12768
-6.18114
-6.23148
-6.27867
-6.3227
-6.36361
-6.40146
-6.43638
-6.4684
-5.69243
-5.70676
-5.7399
-5.78692
-5.84041
-5.89637
-5.95328
-6.01007
-6.0656
-6.11904
-6.16996
-6.21812
-6.26344
-6.30585
-6.3454
-6.38211
-6.41614
-6.44751
-5.7147
-5.72722
-5.75638
-5.79846
-5.84731
-5.89923
-5.9525
-6.00601
-6.05868
-6.10967
-6.15847
-6.20479
-6.24852
-6.28958
-6.32798
-6.36377
-6.39708
-6.42794
-5.71724
-5.72921
-5.75718
-5.79763
-5.84482
-5.89504
-5.94677
-5.99873
-6.05004
-6.09969
-6.14735
-6.19256
-6.23537
-6.27555
-6.31327
-6.34845
-6.38133
-6.41187
-5.6998
-5.71252
-5.74208
-5.78438
-5.83294
-5.88417
-5.93649
-5.98899
-6.04046
-6.09025
-6.13774
-6.18286
-6.22536
-6.26537
-6.30278
-6.33783
-6.37048
-6.401
-5.66747
-5.6821
-5.71581
-5.76278
-5.81517
-5.86924
-5.92396
-5.97833
-6.03133
-6.08207
-6.13031
-6.17581
-6.21865
-6.25874
-6.29627
-6.33128
-6.364
-6.39449
-5.62332
-5.64121
-5.68186
-5.73615
-5.79408
-5.85235
-5.91061
-5.96797
-6.02318
-6.07555
-6.12492
-6.17124
-6.21461
-6.25505
-6.29278
-6.32792
-6.36068
-6.39127
-5.56895
-5.59211
-5.6431
-5.70713
-5.77169
-5.83495
-5.89764
-5.95864
-6.01653
-6.07084
-6.12157
-6.16891
-6.21288
-6.25377
-6.29166
-6.32695
-6.35971
-6.39035
-5.50508
-5.53663
-5.60223
-5.67791
-5.74942
-5.81814
-5.88587
-5.95088
-6.01159
-6.0679
-6.12012
-6.16847
-6.21312
-6.25431
-6.29239
-6.32764
-6.36042
-6.39095
-5.43154
-5.47657
-5.56207
-5.65026
-5.72812
-5.80255
-5.87578
-5.94487
-6.00831
-6.06653
-6.12016
-6.16945
-6.21465
-6.25607
-6.29418
-6.32937
-6.362
-6.39246
-5.34745
-5.41347
-5.52512
-5.62533
-5.70806
-5.78812
-5.86704
-5.94011
-6.0061
-6.06618
-6.12116
-6.17133
-6.21696
-6.25851
-6.29649
-6.33148
-6.3639
-6.39417
-5.25264
-5.34824
-5.49152
-5.60247
-5.68892
-5.77451
-5.85876
-5.93536
-6.00373
-6.06564
-6.12208
-6.17328
-6.21957
-6.26145
-6.29953
-6.33449
-6.36692
-6.39742
-5.1491
-5.28516
-5.45842
-5.57657
-5.66826
-5.76139
-5.85144
-5.93137
-6.00196
-6.0655
-6.1231
-6.17502
-6.22163
-6.26359
-6.30149
-6.33621
-6.36852
-6.39926
-5.02762
-5.24074
-5.43501
-5.54723
-5.64309
-5.74652
-5.84461
-5.92981
-6.00432
-6.07098
-6.13079
-6.18404
-6.23134
-6.27329
-6.31065
-6.3444
-6.37576
-6.40645
-4.82968
-5.21353
-5.44452
-5.54118
-5.63204
-5.73913
-5.8401
-5.92669
-6.00254
-6.07083
-6.13214
-6.1864
-6.23415
-6.27605
-6.31268
-6.34467
-6.37324
-6.40003
-4.54622
-5.13208
-5.43405
-5.54422
-5.64403
-5.75986
-5.86606
-5.9547
-6.03127
-6.10002
-6.1615
-6.21539
-6.26222
-6.30296
-6.338
-6.36727
-6.39123
-6.40984
-7.36028
-7.36039
-7.36043
-7.3604
-7.36006
-7.3588
-7.35618
-7.35273
-7.34945
-7.3474
-7.34761
-7.35027
-7.35484
-7.3605
-7.36646
-7.37201
-7.37658
-7.37974
-7.38145
-7.38204
-7.38184
-7.38104
-7.3799
-7.37872
-7.37776
-7.37716
-7.37689
-7.37677
-7.3766
-7.37625
-7.37572
-7.37503
-7.37412
-7.37291
-7.37143
-7.36995
-7.36908
-7.36957
-7.37164
-7.37469
-7.37774
-7.38016
-7.38206
-7.38389
-7.38606
-7.38908
-7.39288
-7.39636
-7.39885
-7.40173
-7.40853
-7.42359
-7.44797
-7.48066
-7.52155
-7.57134
-7.62981
-7.69544
-7.7667
-7.84143
-7.91717
-7.99193
-8.06458
-8.13398
-8.19907
-8.25945
-8.31494
-8.36545
-8.41105
-8.4518
-8.48782
-8.51919
-8.54599
-8.56829
-8.58609
-8.59943
-8.60827
-8.61259
-8.61235
-8.60749
-8.59792
-8.58357
-8.56433
-8.54011
-8.51086
-8.47651
-8.43707
-8.39248
-8.34271
-8.28767
-8.22722
-8.1613
-8.0898
-8.01268
-7.92991
-7.84151
-7.74761
-7.64838
-7.54399
-7.43437
-7.31923
-7.19839
-7.07198
-6.94017
-6.80301
-6.66055
-6.51282
-6.35983
-6.20159
-6.03813
-5.86942
-5.69551
-5.51636
-5.332
-5.1424
-4.9476
-4.74758
-4.5424
-4.33204
-4.1166
-3.8961
-3.67067
-3.44037
-3.20538
-2.9658
-2.72184
-2.47366
-2.2215
-1.96561
-1.70636
-1.44408
-1.17909
-0.911683
-0.642183
-0.371082
-0.0987904
0.174545
0.448808
0.723543
0.998368
1.27279
1.54647
1.81897
2.09007
2.35942
2.62682
2.89197
3.15475
3.41499
3.67254
3.92722
4.17886
4.42732
4.67249
4.91428
5.15261
5.38743
5.61872
5.84645
6.07063
6.29125
6.50831
6.72183
6.93179
7.13819
7.34102
7.54027
7.73591
7.92792
8.11628
8.30094
8.48184
8.65892
8.83209
9.0013
9.16662
9.32835
9.48618
9.6435
9.79188
-7.36153
-7.36172
-7.36208
-7.36246
-7.36245
-7.36161
-7.35962
-7.35708
-7.35531
-7.35527
-7.35727
-7.36112
-7.36628
-7.37207
-7.37784
-7.38308
-7.38742
-7.39065
-7.39256
-7.39296
-7.39192
-7.38977
-7.38695
-7.38397
-7.38128
-7.3792
-7.37779
-7.37689
-7.37621
-7.37556
-7.37495
-7.37436
-7.37372
-7.37292
-7.37189
-7.37098
-7.37095
-7.37241
-7.37525
-7.37857
-7.38115
-7.38238
-7.38262
-7.38213
-7.38089
-7.3802
-7.38233
-7.38862
-7.39558
-7.40201
-7.41133
-7.42551
-7.44605
-7.47634
-7.5189
-7.57336
-7.63742
-7.70868
-7.78427
-7.86134
-7.93788
-8.01263
-8.08391
-8.15056
-8.21262
-8.26996
-8.32256
-8.37049
-8.41383
-8.45269
-8.48715
-8.51728
-8.54312
-8.56469
-8.58198
-8.59497
-8.60361
-8.60787
-8.60766
-8.60292
-8.59357
-8.5795
-8.56061
-8.53681
-8.508
-8.47413
-8.43518
-8.3911
-8.34186
-8.28738
-8.22755
-8.16228
-8.09151
-8.01518
-7.93327
-7.84579
-7.75273
-7.65411
-7.54988
-7.44007
-7.32486
-7.2044
-7.07868
-6.94764
-6.81131
-6.66968
-6.52281
-6.37068
-6.21334
-6.05077
-5.88301
-5.71004
-5.53186
-5.34848
-5.15989
-4.9661
-4.76712
-4.56296
-4.35365
-4.13924
-3.91979
-3.69537
-3.46609
-3.23207
-2.99344
-2.75039
-2.50307
-2.25174
-1.99663
-1.73809
-1.47645
-1.21201
-0.945009
-0.675706
-0.404451
-0.131718
0.141903
0.416089
0.69072
0.965454
1.23985
1.51352
1.78609
2.05729
2.3268
2.59438
2.85976
3.12281
3.38334
3.64121
3.89623
4.14823
4.39706
4.64262
4.8848
5.12354
5.35877
5.59047
5.8186
6.04318
6.26419
6.48165
6.69555
6.9059
7.11269
7.3159
7.51552
7.71155
7.90395
8.0927
8.27777
8.45913
8.63674
8.81052
8.98043
9.14634
9.30853
9.46664
9.62598
9.77363
-7.36286
-7.36285
-7.36288
-7.36295
-7.36304
-7.3631
-7.36336
-7.36436
-7.36659
-7.3702
-7.37497
-7.38051
-7.38639
-7.39216
-7.39743
-7.4019
-7.40537
-7.4077
-7.40883
-7.40869
-7.40731
-7.40482
-7.40139
-7.39724
-7.39262
-7.38783
-7.38317
-7.37892
-7.37531
-7.37243
-7.37025
-7.36853
-7.36699
-7.36559
-7.36477
-7.36524
-7.36762
-7.37182
-7.37655
-7.37998
-7.38054
-7.37864
-7.3763
-7.3755
-7.37613
-7.37758
-7.38191
-7.39121
-7.4048
-7.42285
-7.44647
-7.47593
-7.51172
-7.55445
-7.60432
-7.66055
-7.72172
-7.78633
-7.85272
-7.91934
-7.98517
-8.04945
-8.11135
-8.17014
-8.22553
-8.27732
-8.32538
-8.36964
-8.41006
-8.44662
-8.4793
-8.50807
-8.53289
-8.55373
-8.57054
-8.58324
-8.59176
-8.59602
-8.59595
-8.59144
-8.58241
-8.56876
-8.55036
-8.52713
-8.49895
-8.46575
-8.42747
-8.38408
-8.33554
-8.28177
-8.22266
-8.15813
-8.08813
-8.01261
-7.93156
-7.84502
-7.75299
-7.65548
-7.55242
-7.44379
-7.32969
-7.21026
-7.08553
-6.95552
-6.82022
-6.67967
-6.53389
-6.38289
-6.2267
-6.06531
-5.89876
-5.72701
-5.5501
-5.368
-5.18073
-4.98826
-4.79064
-4.58783
-4.37989
-4.16684
-3.94874
-3.72566
-3.4977
-3.26496
-3.0276
-2.78575
-2.53961
-2.28939
-2.03535
-1.77781
-1.5171
-1.2535
-0.987265
-0.718693
-0.448133
-0.176027
0.0971282
0.370985
0.645346
0.91984
1.19406
1.4676
1.74013
2.01133
2.28091
2.5486
2.81415
3.07739
3.33816
3.59629
3.85159
4.10388
4.35302
4.59891
4.84143
5.08052
5.3161
5.54815
5.77662
6.00153
6.22286
6.44062
6.65481
6.86543
7.07247
7.27593
7.47578
7.67202
7.86462
8.05356
8.2388
8.42028
8.59796
8.7718
8.94186
9.10812
9.27119
9.42998
9.59193
9.73534
-7.36404
-7.36375
-7.36336
-7.3634
-7.36467
-7.36756
-7.37187
-7.37719
-7.38318
-7.38952
-7.39592
-7.40209
-7.40784
-7.41295
-7.41727
-7.42064
-7.42296
-7.42417
-7.42424
-7.42314
-7.42087
-7.41752
-7.41317
-7.40792
-7.40186
-7.39512
-7.3879
-7.38049
-7.37325
-7.36657
-7.36073
-7.35592
-7.35241
-7.35064
-7.35139
-7.35503
-7.36066
-7.36634
-7.37027
-7.37196
-7.37184
-7.37127
-7.37201
-7.37503
-7.38075
-7.38987
-7.40329
-7.42178
-7.44552
-7.47426
-7.50765
-7.54534
-7.58711
-7.63269
-7.68188
-7.73431
-7.78949
-7.84669
-7.90508
-7.96374
-8.0219
-8.07892
-8.13422
-8.1873
-8.2378
-8.28545
-8.33005
-8.37146
-8.40956
-8.44425
-8.47545
-8.50308
-8.52705
-8.54728
-8.56368
-8.57614
-8.58457
-8.58887
-8.58893
-8.58465
-8.57593
-8.56265
-8.54472
-8.522
-8.4944
-8.46183
-8.4242
-8.38147
-8.33361
-8.28051
-8.22209
-8.15826
-8.08897
-8.01417
-7.93385
-7.84803
-7.75674
-7.65998
-7.55773
-7.45
-7.33685
-7.21836
-7.09457
-6.9655
-6.83117
-6.69162
-6.54685
-6.39691
-6.2418
-6.08153
-5.91612
-5.74557
-5.56987
-5.38901
-5.203
-5.01183
-4.8155
-4.61402
-4.4074
-4.19567
-3.97889
-3.7571
-3.53042
-3.29893
-3.06278
-2.8221
-2.57708
-2.32792
-2.07491
-1.81833
-1.55848
-1.29566
-1.03013
-0.76222
-0.492303
-0.220782
0.0519341
0.325491
0.599624
0.873918
1.148
1.42145
1.69396
1.96519
2.23485
2.50266
2.76839
3.03186
3.29288
3.55127
3.80683
4.0594
4.30885
4.55504
4.79788
5.03728
5.27319
5.50555
5.73434
5.95954
6.18116
6.39918
6.61363
6.82449
7.03176
7.23543
7.43547
7.63187
7.82461
8.01368
8.19903
8.38064
8.55846
8.73248
8.90276
9.06931
9.23284
9.3916
9.55413
9.69112
-7.36644
-7.36583
-7.36545
-7.36701
-7.37149
-7.37811
-7.38575
-7.3937
-7.40148
-7.40876
-7.41541
-7.42136
-7.42654
-7.43091
-7.43436
-7.43681
-7.4382
-7.43846
-7.43759
-7.43554
-7.43232
-7.42798
-7.42255
-7.4161
-7.40869
-7.40038
-7.39127
-7.38157
-7.37159
-7.36181
-7.35286
-7.34554
-7.34082
-7.33974
-7.34248
-7.34731
-7.35234
-7.3567
-7.36014
-7.36299
-7.36601
-7.37028
-7.37688
-7.38678
-7.40091
-7.41976
-7.44305
-7.47007
-7.50053
-7.53413
-7.57061
-7.60991
-7.65199
-7.69675
-7.74399
-7.7934
-7.84454
-7.89691
-7.94996
-8.00308
-8.05573
-8.10743
-8.15774
-8.20629
-8.25277
-8.29692
-8.33852
-8.37739
-8.41338
-8.44634
-8.47615
-8.50267
-8.52579
-8.54538
-8.56133
-8.5735
-8.58177
-8.58602
-8.58614
-8.58199
-8.57347
-8.56047
-8.54286
-8.52053
-8.49336
-8.46126
-8.42413
-8.38193
-8.33457
-8.28202
-8.22414
-8.16086
-8.09213
-8.0179
-7.93819
-7.85298
-7.7623
-7.66615
-7.56456
-7.45752
-7.3451
-7.22735
-7.10431
-6.976
-6.84246
-6.70372
-6.5598
-6.41073
-6.25653
-6.09723
-5.93279
-5.76327
-5.58861
-5.40885
-5.22393
-5.0339
-4.83869
-4.63837
-4.43288
-4.2223
-4.00663
-3.78596
-3.56033
-3.32989
-3.09473
-2.85501
-2.61088
-2.36259
-2.11038
-1.85454
-1.59535
-1.33309
-1.06807
-0.800609
-0.531117
-0.25994
0.0125124
0.285918
0.559908
0.834124
1.10812
1.38157
1.6541
1.92541
2.19516
2.46313
2.72904
2.99273
3.25398
3.5126
3.76839
4.02119
4.27086
4.5173
4.76037
5.00002
5.23616
5.46876
5.69778
5.92321
6.14504
6.36328
6.57793
6.78898
6.99642
7.20025
7.40045
7.59701
7.78991
7.97911
8.16461
8.34636
8.52433
8.69851
8.86894
9.03554
9.19901
9.35703
9.5189
9.64895
-7.37086
-7.36994
-7.37055
-7.37531
-7.38313
-7.39196
-7.40089
-7.40943
-7.41729
-7.42438
-7.43073
-7.4363
-7.44103
-7.44487
-7.44772
-7.44953
-7.45024
-7.4498
-7.44821
-7.44544
-7.4415
-7.43641
-7.4302
-7.42285
-7.41438
-7.40487
-7.39448
-7.38337
-7.37191
-7.36072
-7.35065
-7.34293
-7.33876
-7.3382
-7.33987
-7.34237
-7.34547
-7.34953
-7.35482
-7.36141
-7.36945
-7.38002
-7.39425
-7.41246
-7.43449
-7.45993
-7.48849
-7.51977
-7.55345
-7.58939
-7.62741
-7.66744
-7.70938
-7.75311
-7.79844
-7.84512
-7.89286
-7.94129
-7.99006
-8.03878
-8.08706
-8.13456
-8.18095
-8.22591
-8.26916
-8.31047
-8.34961
-8.38638
-8.4206
-8.45209
-8.4807
-8.50626
-8.52863
-8.54765
-8.56318
-8.57506
-8.58317
-8.58734
-8.58746
-8.5834
-8.57502
-8.5622
-8.54482
-8.52277
-8.49591
-8.46415
-8.42738
-8.38554
-8.33857
-8.28636
-8.22886
-8.16595
-8.09759
-8.02376
-7.94445
-7.85966
-7.76941
-7.6737
-7.57255
-7.46599
-7.35407
-7.23682
-7.11431
-6.98656
-6.8536
-6.71547
-6.5722
-6.42383
-6.27037
-6.11183
-5.94823
-5.77955
-5.60579
-5.42694
-5.24298
-5.05389
-4.85966
-4.6603
-4.45578
-4.24615
-4.03141
-3.81163
-3.58688
-3.35726
-3.12288
-2.88388
-2.64044
-2.39278
-2.14114
-1.88581
-1.62705
-1.36515
-1.10041
-0.833222
-0.563938
-0.292913
-0.02054
0.252843
0.526832
0.801052
1.07509
1.34861
1.62123
1.89264
2.16253
2.43065
2.69675
2.96064
3.22208
3.48088
3.73684
3.9898
4.23964
4.48622
4.72944
4.96923
5.2055
5.43823
5.66736
5.89291
6.11486
6.33321
6.54796
6.75911
6.96665
7.17058
7.37086
7.56751
7.76048
7.94977
8.13534
8.31717
8.49521
8.66942
8.83984
9.00629
9.16938
9.32635
9.48729
9.61061
-7.37625
-7.37586
-7.37881
-7.38639
-7.39555
-7.40463
-7.41327
-7.42135
-7.42881
-7.43561
-7.4417
-7.44699
-7.45142
-7.45489
-7.45735
-7.45873
-7.45899
-7.4581
-7.45603
-7.45279
-7.44839
-7.44285
-7.43607
-7.42801
-7.41879
-7.40859
-7.39763
-7.38618
-7.37466
-7.36383
-7.35486
-7.34866
-7.34497
-7.3428
-7.34191
-7.34271
-7.34581
-7.35127
-7.35894
-7.36933
-7.38308
-7.40031
-7.42085
-7.44445
-7.47091
-7.49991
-7.53119
-7.56458
-7.59988
-7.63695
-7.67561
-7.71572
-7.75714
-7.79974
-7.84338
-7.88786
-7.93298
-7.97851
-8.02418
-8.06972
-8.11486
-8.15932
-8.20283
-8.24513
-8.28598
-8.32515
-8.3624
-8.39755
-8.43039
-8.46073
-8.48839
-8.51319
-8.53495
-8.5535
-8.56868
-8.58032
-8.58827
-8.59237
-8.59248
-8.58845
-8.58016
-8.56747
-8.55026
-8.52839
-8.50175
-8.47021
-8.43368
-8.39207
-8.34531
-8.29334
-8.23603
-8.17331
-8.10515
-8.03153
-7.95243
-7.86787
-7.77783
-7.68235
-7.58144
-7.47514
-7.3635
-7.24656
-7.12436
-6.99696
-6.86439
-6.72668
-6.58389
-6.43603
-6.28314
-6.12522
-5.96229
-5.79431
-5.62132
-5.44323
-5.2601
-5.07181
-4.87843
-4.67986
-4.47618
-4.26732
-4.05337
-3.83431
-3.61027
-3.38128
-3.1475
-2.90903
-2.66608
-2.41884
-2.16759
-1.91256
-1.65404
-1.3923
-1.12768
-0.860572
-0.591313
-0.320279
-0.0478219
0.22564
0.499753
0.77406
1.04824
1.32188
1.59467
1.86622
2.13628
2.40457
2.67086
2.93492
3.19652
3.45544
3.71151
3.96457
4.2145
4.46114
4.70442
4.94424
5.18054
5.41328
5.64244
5.86799
6.08996
6.30833
6.5231
6.73426
6.9418
7.14573
7.34602
7.54266
7.73565
7.92495
8.11054
8.29236
8.47039
8.64455
8.81484
8.981
9.14357
9.29939
9.45945
9.57653
-7.38036
-7.38132
-7.38704
-7.39568
-7.40446
-7.41288
-7.42095
-7.42861
-7.43579
-7.44238
-7.44829
-7.4534
-7.45764
-7.46092
-7.46316
-7.46432
-7.46435
-7.46322
-7.46093
-7.45747
-7.45285
-7.44699
-7.4398
-7.43143
-7.42214
-7.41206
-7.40141
-7.39061
-7.38037
-7.37151
-7.36446
-7.35873
-7.35373
-7.34994
-7.34835
-7.34931
-7.35314
-7.36048
-7.37153
-7.38613
-7.40404
-7.42502
-7.44885
-7.47525
-7.50399
-7.53485
-7.56762
-7.60212
-7.63819
-7.67565
-7.71436
-7.75418
-7.79499
-7.83666
-7.87904
-7.92199
-7.96534
-8.00892
-8.05253
-8.09595
-8.13897
-8.18136
-8.2229
-8.26337
-8.30254
-8.34019
-8.37612
-8.41011
-8.44197
-8.47147
-8.49844
-8.52268
-8.54399
-8.56219
-8.57711
-8.58856
-8.59639
-8.60042
-8.6005
-8.5965
-8.58826
-8.57565
-8.55854
-8.53679
-8.51027
-8.47887
-8.44246
-8.40096
-8.35431
-8.30239
-8.24514
-8.18246
-8.11435
-8.04076
-7.9617
-7.87717
-7.78717
-7.69173
-7.59086
-7.48462
-7.37306
-7.25622
-7.13416
-7.00693
-6.87456
-6.73712
-6.59463
-6.44714
-6.29468
-6.13725
-5.97485
-5.80748
-5.63511
-5.4577
-5.27524
-5.08768
-4.895
-4.69716
-4.49417
-4.286
-4.07268
-3.85423
-3.63073
-3.40225
-3.16891
-2.93082
-2.6882
-2.44125
-2.19021
-1.93533
-1.67688
-1.41516
-1.15052
-0.883338
-0.613962
-0.342771
-0.0701236
0.203538
0.477841
0.752351
1.02674
1.30058
1.57355
1.84531
2.11557
2.38406
2.65053
2.91475
3.17647
3.43549
3.69163
3.94474
4.1947
4.44135
4.6846
4.92438
5.16063
5.39331
5.6224
5.84789
6.06979
6.28809
6.50279
6.71388
6.92136
7.1252
7.32543
7.52201
7.71494
7.9042
8.08974
8.27152
8.44946
8.62351
8.79358
8.95937
9.12136
9.27604
9.43528
9.54677
-7.38147
-7.38417
-7.39147
-7.39976
-7.40784
-7.41575
-7.42347
-7.43091
-7.43794
-7.44444
-7.45029
-7.45538
-7.45959
-7.46285
-7.46508
-7.46623
-7.46627
-7.46515
-7.46287
-7.45942
-7.45475
-7.44879
-7.44162
-7.4335
-7.42463
-7.41522
-7.40571
-7.39657
-7.38825
-7.38083
-7.3741
-7.36789
-7.3625
-7.35884
-7.35782
-7.36004
-7.36589
-7.37556
-7.38884
-7.40551
-7.42535
-7.44806
-7.47341
-7.50113
-7.53097
-7.56274
-7.59623
-7.63125
-7.66763
-7.70521
-7.74386
-7.78345
-7.82383
-7.86489
-7.90648
-7.94849
-7.99078
-8.03318
-8.07553
-8.11766
-8.15938
-8.20049
-8.24081
-8.28014
-8.31826
-8.35498
-8.39007
-8.42334
-8.45457
-8.48355
-8.51007
-8.53393
-8.55495
-8.57292
-8.58766
-8.59897
-8.6067
-8.61066
-8.61072
-8.60671
-8.5985
-8.58593
-8.56887
-8.54717
-8.52071
-8.48935
-8.45297
-8.41149
-8.3648
-8.31286
-8.25552
-8.19276
-8.12455
-8.05085
-7.97168
-7.88701
-7.79688
-7.70128
-7.60029
-7.49392
-7.38227
-7.26536
-7.14327
-7.01605
-6.88375
-6.74642
-6.6041
-6.45687
-6.3047
-6.14767
-5.98571
-5.81886
-5.64702
-5.47022
-5.28835
-5.10144
-4.90936
-4.71218
-4.50977
-4.3022
-4.0894
-3.87147
-3.6484
-3.42032
-3.18728
-2.94946
-2.70704
-2.46024
-2.20929
-1.95442
-1.69592
-1.4341
-1.16931
-0.901929
-0.63233
-0.36086
-0.0879588
0.185999
0.460539
0.73534
1.00995
1.28406
1.55725
1.82924
2.09971
2.3684
2.63504
2.89939
3.1612
3.42028
3.67644
3.92957
4.1795
4.42611
4.66928
4.90895
5.14507
5.37762
5.60656
5.8319
6.05365
6.27183
6.4864
6.69736
6.90469
7.10841
7.30851
7.50499
7.69782
7.887
8.07247
8.25415
8.43198
8.60585
8.77567
8.94104
9.10242
9.25598
9.41449
9.52108
-7.37799
-7.38211
-7.38952
-7.39725
-7.40501
-7.41274
-7.42037
-7.42778
-7.43486
-7.44146
-7.44745
-7.45271
-7.45713
-7.4606
-7.46304
-7.46439
-7.46461
-7.46366
-7.46153
-7.45819
-7.45363
-7.44787
-7.4411
-7.43359
-7.42558
-7.41742
-7.40937
-7.40152
-7.39395
-7.38678
-7.3801
-7.37423
-7.36979
-7.3675
-7.368
-7.37171
-7.37891
-7.3897
-7.40399
-7.42159
-7.44227
-7.46576
-7.49179
-7.52009
-7.55045
-7.58264
-7.61647
-7.65175
-7.68832
-7.72602
-7.76471
-7.80423
-7.84445
-7.88526
-7.92653
-7.96813
-8.00992
-8.05177
-8.09353
-8.13503
-8.17612
-8.21662
-8.25635
-8.29512
-8.33273
-8.36899
-8.40369
-8.4366
-8.46751
-8.4962
-8.52247
-8.54612
-8.56694
-8.58474
-8.59933
-8.61054
-8.61818
-8.62209
-8.62212
-8.61811
-8.60991
-8.59736
-8.58032
-8.55864
-8.53219
-8.50082
-8.4644
-8.42283
-8.37604
-8.3239
-8.26639
-8.20343
-8.13499
-8.06106
-7.98162
-7.89667
-7.80623
-7.71034
-7.60905
-7.50242
-7.39052
-7.27341
-7.15116
-7.02383
-6.89148
-6.75415
-6.6119
-6.4648
-6.31289
-6.15616
-5.99461
-5.82819
-5.65686
-5.48057
-5.29927
-5.11291
-4.92143
-4.72479
-4.52294
-4.31587
-4.10355
-3.88603
-3.66333
-3.43553
-3.20273
-2.96508
-2.72277
-2.47604
-2.22507
-1.97013
-1.71148
-1.44947
-1.18444
-0.916784
-0.646873
-0.375071
-0.101834
0.172441
0.447305
0.722414
0.997328
1.2717
1.54515
1.81738
2.08808
2.35698
2.62378
2.88824
3.15012
3.40922
3.66538
3.91849
4.16837
4.41487
4.65789
4.89739
5.13331
5.36565
5.59438
5.81952
6.04107
6.25906
6.47345
6.68422
6.89137
7.0949
7.29483
7.49115
7.68385
7.87292
8.05827
8.23982
8.41749
8.59114
8.76066
8.92558
9.08633
9.23884
9.39664
9.49909
-7.36788
-7.37264
-7.37975
-7.38747
-7.39544
-7.40338
-7.41119
-7.41881
-7.42614
-7.43305
-7.43938
-7.44499
-7.44975
-7.45355
-7.4563
-7.45795
-7.45844
-7.45776
-7.45589
-7.45285
-7.44869
-7.44352
-7.43755
-7.43097
-7.42394
-7.41662
-7.40917
-7.40172
-7.3944
-7.38747
-7.38133
-7.37641
-7.37315
-7.37209
-7.37376
-7.37854
-7.38667
-7.39823
-7.41317
-7.43132
-7.45247
-7.47634
-7.50269
-7.53129
-7.56192
-7.59438
-7.62846
-7.664
-7.70081
-7.73873
-7.77761
-7.81729
-7.85767
-7.89859
-7.93994
-7.98158
-8.02338
-8.0652
-8.10691
-8.14836
-8.18938
-8.22979
-8.26942
-8.30809
-8.3456
-8.38175
-8.41633
-8.44913
-8.47993
-8.50851
-8.53467
-8.55821
-8.57892
-8.59661
-8.6111
-8.62221
-8.62978
-8.63365
-8.63366
-8.62964
-8.62144
-8.60889
-8.59186
-8.57018
-8.5437
-8.51226
-8.47571
-8.43396
-8.38692
-8.33456
-8.27674
-8.21348
-8.1447
-8.07042
-7.99058
-7.90523
-7.81435
-7.71805
-7.61633
-7.50933
-7.39707
-7.27967
-7.15717
-7.02965
-6.89716
-6.75975
-6.61751
-6.4705
-6.3188
-6.16235
-6.00118
-5.83516
-5.66432
-5.48852
-5.30777
-5.12193
-4.93102
-4.73488
-4.53356
-4.32692
-4.11506
-3.89788
-3.6755
-3.44793
-3.21531
-2.97777
-2.73554
-2.48879
-2.23775
-1.98266
-1.72382
-1.46155
-1.19622
-0.92824
-0.657957
-0.385815
-0.112199
0.162398
0.437637
0.713052
0.988301
1.26295
1.5367
1.80918
2.08012
2.3492
2.61614
2.88068
3.14258
3.40166
3.65777
3.91082
4.16061
4.40694
4.64976
4.88902
5.12469
5.35676
5.58523
5.81009
6.0314
6.24917
6.46336
6.67389
6.88081
7.08412
7.28385
7.47999
7.67255
7.86149
8.04671
8.22811
8.40559
8.57901
8.7482
8.91266
9.07278
9.2243
9.38141
9.48046
-7.34958
-7.35431
-7.3616
-7.37014
-7.37883
-7.38725
-7.39543
-7.40339
-7.41113
-7.41852
-7.42536
-7.43147
-7.43668
-7.4409
-7.44407
-7.44613
-7.44704
-7.4468
-7.44542
-7.44293
-7.4394
-7.43494
-7.42966
-7.42371
-7.41722
-7.41033
-7.40317
-7.39594
-7.38894
-7.38252
-7.37701
-7.3728
-7.37038
-7.37026
-7.37287
-7.37854
-7.38746
-7.39969
-7.41517
-7.43373
-7.45519
-7.47932
-7.5059
-7.53473
-7.56562
-7.59836
-7.63276
-7.66863
-7.7058
-7.7441
-7.78338
-7.8235
-7.86433
-7.90572
-7.94753
-7.98959
-8.0318
-8.074
-8.11606
-8.15782
-8.19912
-8.23981
-8.27969
-8.31859
-8.3563
-8.39262
-8.42733
-8.46021
-8.49106
-8.51964
-8.54576
-8.56924
-8.58986
-8.60745
-8.62182
-8.63279
-8.64023
-8.64401
-8.64396
-8.63991
-8.6317
-8.61916
-8.60211
-8.58041
-8.55386
-8.52229
-8.48553
-8.4435
-8.39618
-8.34345
-8.2853
-8.22165
-8.15249
-8.07777
-7.99748
-7.91162
-7.82024
-7.72342
-7.62124
-7.51378
-7.40113
-7.28337
-7.16058
-7.03284
-6.90019
-6.76269
-6.62041
-6.4735
-6.32199
-6.16586
-6.00503
-5.83945
-5.66906
-5.49377
-5.31353
-5.12824
-4.93784
-4.74224
-4.5414
-4.33525
-4.12378
-3.90698
-3.6849
-3.45756
-3.22512
-2.98772
-2.74555
-2.49881
-2.2477
-1.99245
-1.7334
-1.47085
-1.2052
-0.93684
-0.666162
-0.393631
-0.119647
0.155326
0.430927
0.706696
0.982267
1.25723
1.53127
1.80402
2.07518
2.34443
2.61148
2.87606
3.13797
3.39699
3.65304
3.90604
4.15572
4.40184
4.6444
4.88336
5.11873
5.35049
5.57865
5.80321
6.02425
6.24178
6.45572
6.66598
6.87263
7.07569
7.27519
7.47113
7.66352
7.85232
8.0374
8.21863
8.3959
8.56905
8.7379
8.90188
9.0614
9.212
9.3684
9.46479
-7.32273
-7.32731
-7.33557
-7.34556
-7.35527
-7.36426
-7.37285
-7.38133
-7.38978
-7.39796
-7.40557
-7.41234
-7.41813
-7.42288
-7.42657
-7.42916
-7.43064
-7.43098
-7.4302
-7.42832
-7.42539
-7.4215
-7.41673
-7.4112
-7.405
-7.39832
-7.39136
-7.3844
-7.37772
-7.37163
-7.36655
-7.36292
-7.36123
-7.36191
-7.36534
-7.37178
-7.38139
-7.39418
-7.41008
-7.42897
-7.45067
-7.47501
-7.50181
-7.5309
-7.56209
-7.59521
-7.63006
-7.66643
-7.70414
-7.74302
-7.78292
-7.82369
-7.86519
-7.90725
-7.94973
-7.99249
-8.03538
-8.07826
-8.12096
-8.16333
-8.2052
-8.24642
-8.28681
-8.32617
-8.36429
-8.40097
-8.43598
-8.46907
-8.49999
-8.52852
-8.55449
-8.57776
-8.59818
-8.61554
-8.62963
-8.64031
-8.64751
-8.65113
-8.65101
-8.64696
-8.63878
-8.62626
-8.60921
-8.58746
-8.56083
-8.52909
-8.49205
-8.4497
-8.40202
-8.34897
-8.29044
-8.22642
-8.15687
-8.08171
-8.00095
-7.91456
-7.82266
-7.7253
-7.62264
-7.51472
-7.40167
-7.28357
-7.16051
-7.03256
-6.89979
-6.76224
-6.61997
-6.47319
-6.3219
-6.16608
-6.00558
-5.84041
-5.67044
-5.49566
-5.31591
-5.1312
-4.94133
-4.74631
-4.54597
-4.34035
-4.12932
-3.91297
-3.69124
-3.46424
-3.23204
-2.99486
-2.75282
-2.50613
-2.25498
-1.99962
-1.74037
-1.47755
-1.21158
-0.942842
-0.671793
-0.398859
-0.124545
0.150813
0.426726
0.702841
0.978698
1.25397
1.52826
1.80125
2.07259
2.34196
2.60906
2.87365
3.13549
3.39443
3.6504
3.90343
4.15302
4.39889
4.64112
4.87976
5.11479
5.34621
5.57403
5.79828
6.01904
6.23638
6.45006
6.66003
6.86638
7.06918
7.26843
7.46417
7.65639
7.84507
8.03002
8.21105
8.38811
8.56099
8.7295
8.89301
9.05193
9.20167
9.35734
9.45177
-7.2887
-7.29363
-7.30347
-7.31531
-7.32615
-7.33588
-7.34525
-7.35442
-7.36355
-7.37266
-7.38137
-7.38919
-7.39573
-7.40099
-7.40519
-7.40837
-7.41046
-7.41142
-7.41123
-7.40991
-7.40748
-7.404
-7.39953
-7.3942
-7.38816
-7.38161
-7.37475
-7.36787
-7.3613
-7.35545
-7.35074
-7.34762
-7.34654
-7.34788
-7.35196
-7.35898
-7.36907
-7.38224
-7.39844
-7.41756
-7.43948
-7.46404
-7.49109
-7.52047
-7.55202
-7.58555
-7.62088
-7.65779
-7.69613
-7.73571
-7.77637
-7.81795
-7.86027
-7.90317
-7.94651
-7.99014
-8.0339
-8.07763
-8.12116
-8.16432
-8.20694
-8.24882
-8.2898
-8.32966
-8.36821
-8.4052
-8.44039
-8.4735
-8.50426
-8.53245
-8.55797
-8.5808
-8.60084
-8.6178
-8.63136
-8.64144
-8.64821
-8.65169
-8.65162
-8.64773
-8.63976
-8.62738
-8.61036
-8.58857
-8.56188
-8.53004
-8.49279
-8.45014
-8.40221
-8.34883
-8.28997
-8.2256
-8.15565
-8.08008
-7.9988
-7.91186
-7.81936
-7.72144
-7.61823
-7.50984
-7.39637
-7.2779
-7.15453
-7.02638
-6.89355
-6.75609
-6.61409
-6.46754
-6.31646
-6.16082
-6.00057
-5.83568
-5.66609
-5.49172
-5.31246
-5.12824
-4.93892
-4.74444
-4.54468
-4.33959
-4.1291
-3.91323
-3.69197
-3.46539
-3.23358
-2.99669
-2.75486
-2.50829
-2.25714
-2.00173
-1.74234
-1.47935
-1.2132
-0.944268
-0.673022
-0.399877
-0.125318
0.150268
0.4264
0.702696
0.978734
1.25416
1.52858
1.80164
2.07299
2.3423
2.60929
2.8737
3.13532
3.39398
3.64972
3.90261
4.15202
4.39754
4.6394
4.87766
5.11232
5.34337
5.57083
5.79475
6.01527
6.2325
6.44601
6.65567
6.86171
7.06423
7.26325
7.45879
7.65087
7.83949
8.02432
8.20516
8.38197
8.55458
8.72274
8.88579
9.04414
9.19308
9.34796
9.4411
-7.25066
-7.25652
-7.26847
-7.28257
-7.29458
-7.30457
-7.31433
-7.3246
-7.33504
-7.34529
-7.35505
-7.36391
-7.37129
-7.37712
-7.38183
-7.38559
-7.38828
-7.38982
-7.39017
-7.3893
-7.38722
-7.38399
-7.37969
-7.37443
-7.36837
-7.36172
-7.35475
-7.34781
-7.34127
-7.33555
-7.33108
-7.32829
-7.32757
-7.32928
-7.33368
-7.34095
-7.35121
-7.36448
-7.38075
-7.39993
-7.42191
-7.44659
-7.47382
-7.50347
-7.53536
-7.5693
-7.6051
-7.64258
-7.68158
-7.72191
-7.76339
-7.80584
-7.84909
-7.89295
-7.93727
-7.98187
-8.02655
-8.07114
-8.11544
-8.15927
-8.20246
-8.24481
-8.28614
-8.32625
-8.36492
-8.40191
-8.43695
-8.46974
-8.4999
-8.52719
-8.55171
-8.57373
-8.59317
-8.60954
-8.62216
-8.63106
-8.637
-8.64026
-8.64044
-8.63703
-8.62958
-8.61768
-8.60112
-8.57984
-8.55373
-8.5226
-8.48616
-8.44418
-8.39649
-8.34309
-8.28401
-8.21933
-8.14898
-8.07292
-7.99104
-7.90344
-7.81022
-7.7116
-7.60769
-7.49866
-7.38456
-7.26554
-7.14167
-7.01313
-6.88005
-6.74254
-6.60063
-6.45417
-6.30316
-6.14758
-5.98749
-5.8228
-5.65352
-5.47948
-5.30067
-5.11688
-4.9281
-4.73412
-4.53493
-4.33034
-4.1204
-3.90501
-3.68424
-3.4581
-3.2267
-2.99014
-2.74857
-2.50212
-2.25104
-1.9956
-1.73614
-1.47307
-1.20681
-0.937812
-0.666438
-0.393185
-0.118436
0.157265
0.433544
0.709917
0.986043
1.26149
1.53592
1.80891
2.08012
2.34922
2.61593
2.87998
3.14116
3.39926
3.65416
3.90573
4.15397
4.39875
4.64003
4.87773
5.11185
5.34237
5.5693
5.79269
6.0128
6.22978
6.44306
6.65236
6.85808
7.06033
7.25912
7.45448
7.64648
7.83515
8.01998
8.20064
8.37724
8.54959
8.71742
8.88005
9.03787
9.18606
9.34011
9.4326
-7.21232
-7.21946
-7.23398
-7.25004
-7.26234
-7.27278
-7.28365
-7.29506
-7.30657
-7.31787
-7.32867
-7.3385
-7.34669
-7.3532
-7.35855
-7.36296
-7.36627
-7.36837
-7.36918
-7.36866
-7.36682
-7.36369
-7.35934
-7.35391
-7.3476
-7.34065
-7.33337
-7.32614
-7.31935
-7.31342
-7.30877
-7.30581
-7.30492
-7.30643
-7.31058
-7.31757
-7.32752
-7.34047
-7.35643
-7.37535
-7.39718
-7.42182
-7.44916
-7.47905
-7.51129
-7.54569
-7.58205
-7.6202
-7.65996
-7.70113
-7.7435
-7.78687
-7.83103
-7.87578
-7.92094
-7.9663
-8.01167
-8.05682
-8.10157
-8.14573
-8.18911
-8.23154
-8.27282
-8.31276
-8.35117
-8.38783
-8.42246
-8.45463
-8.48369
-8.50907
-8.53128
-8.55153
-8.57016
-8.58658
-8.60001
-8.61002
-8.61671
-8.62031
-8.62075
-8.61765
-8.61053
-8.59897
-8.58276
-8.56191
-8.53634
-8.5059
-8.47032
-8.42911
-8.38186
-8.32858
-8.26951
-8.20468
-8.13406
-8.0576
-7.97526
-7.88712
-7.79336
-7.69416
-7.58968
-7.48006
-7.36542
-7.24587
-7.12155
-6.99262
-6.85924
-6.72151
-6.57943
-6.43294
-6.28199
-6.12661
-5.96677
-5.80244
-5.63356
-5.46002
-5.28171