/*--------------------------------*- C++ -*----------------------------------*\
  =========                 |
  \\      /  F ield         | OpenFOAM: The Open Source CFD Toolbox
   \\    /   O peration     | Website:  https://openfoam.org
    \\  /    A nd           | Version:  8
     \\/     M anipulation  |
\*---------------------------------------------------------------------------*/
FoamFile
{
    version     2.0;
    format      ascii;
    class       volVectorField;
    location    "500";
    object      wallShearStress;
}
// * * * * * * * * * * * * * * * * * * * * * * * * * * * * * * * * * * * * * //

dimensions      [0 2 -2 0 0 0 0];

internalField   uniform (0 0 0);

boundaryField
{
    inlet
    {
        type            calculated;
        value           uniform (0 0 0);
    }
    outlet
    {
        type            calculated;
        value           uniform (0 0 0);
    }
    upperWall
    {
        type            calculated;
        value           nonuniform List<vector> 
223
(
(-0.459393 0.00288928 0)
(-0.494989 0.00586335 0)
(-0.511198 0.00701823 0)
(-0.511826 0.00729181 0)
(-0.505518 0.00706988 0)
(-0.493933 0.00656855 0)
(-0.482564 0.00601551 0)
(-0.47061 0.00543255 0)
(-0.458966 0.00485092 0)
(-0.448077 0.00429538 0)
(-0.438134 0.00377648 0)
(-0.42917 0.00330004 0)
(-0.421172 0.00287583 0)
(-0.414067 0.00251064 0)
(-0.407721 0.00220364 0)
(-0.402078 0.00195865 0)
(-0.396916 0.00176502 0)
(-0.392291 0.00166255 0)
(-0.388484 0.00162407 0)
(-0.385388 0.00161146 5.73e-22)
(-0.382333 0.00157323 0)
(-0.379306 0.00152118 0)
(-0.376338 0.00146117 0)
(-0.373422 0.00140164 5.83388e-22)
(-0.370572 0.00134211 0)
(-0.36779 0.00127668 0)
(-0.365095 0.00121128 0)
(-0.362497 0.00115461 -1.18595e-21)
(-0.359979 0.00109413 1.19111e-21)
(-0.357552 0.00102038 1.19637e-21)
(-0.355254 0.000936708 0)
(-0.353102 0.000849263 -1.20709e-21)
(-0.351092 0.000763303 0)
(-0.349223 0.000682517 1.21781e-21)
(-0.347462 0.00060833 1.22302e-21)
(-0.345818 0.000541872 -1.2281e-21)
(-0.344256 0.000483274 0)
(-0.342778 0.000431271 0)
(-0.341375 0.000385612 0)
(-0.340034 0.000345132 0)
(-0.338762 0.000309619 -1.25152e-21)
(-0.337539 0.000278548 0)
(-0.336377 0.00025176 0)
(-0.335254 0.000228325 1.26458e-21)
(-0.334178 0.000207373 0)
(-0.333151 0.000190495 1.27314e-21)
(-0.332148 0.000176848 -1.27743e-21)
(-0.331185 0.000166383 1.28173e-21)
(-0.330244 0.000159283 0)
(-0.32932 0.000153701 0)
(-0.328428 0.000150088 0)
(-0.32754 0.000147532 1.29928e-21)
(-0.326679 0.000145703 -1.30373e-21)
(-0.325827 0.000145925 0)
(-0.32498 0.000147623 0)
(-0.324143 0.000153084 0)
(-0.323307 0.000162407 0)
(-0.322462 0.000171423 0)
(-0.321617 0.000176802 0)
(-0.32078 0.000178668 0)
(-0.319959 0.000178906 0)
(-0.319159 0.000178405 1.34741e-21)
(-0.318373 0.000177718 -1.35256e-21)
(-0.317606 0.000176695 0)
(-0.316848 0.000175891 0)
(-0.316105 0.000175921 0)
(-0.315365 0.000176616 -1.37294e-21)
(-0.314631 0.000178082 0)
(-0.313908 0.000180137 0)
(-0.313167 0.00018323 0)
(-0.312457 0.000186886 0)
(-0.311702 0.000191679 0)
(-0.31098 0.000197094 -2.8044e-21)
(-0.310235 0.000201916 0)
(-0.309452 0.000215283 0)
(-0.308713 0.000220368 0)
(-0.307899 0.000199539 0)
(-0.306928 0.000217673 0)
(-0.306454 0.000255506 0)
(-0.306256 0.000231166 0)
(-0.333493 0.000200196 3.14575e-21)
(-0.348013 0.000178408 0)
(-0.340063 0.000161919 0)
(-0.376115 0.000210953 0)
(-0.388924 0.000626736 -3.70671e-21)
(-0.363317 0.000792085 0)
(-0.342986 0.000675679 -3.28124e-21)
(-0.323977 0.000566082 0)
(-0.318926 0.00036967 0)
(-0.303613 0.000196656 0)
(-0.347131 0.00033456 -3.40125e-21)
(-0.326699 0.00114271 0)
(-0.338457 0.00163511 3.31026e-21)
(-0.320572 0.0010906 3.15197e-21)
(-0.327692 0.000606137 0)
(-0.316786 0.000360134 3.20615e-21)
(-0.314981 0.00032973 0)
(-0.300588 0.000100378 0)
(-0.343256 0.000189239 0)
(-0.325011 0.000294488 -3.3807e-21)
(-0.316221 0.000101204 0)
(-0.306703 6.59267e-05 -3.22689e-21)
(-0.299228 0.000190479 3.15767e-21)
(-0.298845 0.00026804 0)
(-0.298536 -5.41378e-06 0)
(-0.308467 -0.000107326 0)
(-0.356755 0.000243714 0)
(-0.329946 0.000168945 0)
(-0.348535 0.000367657 0)
(-0.326834 0.00136836 0)
(-0.300543 0.00125508 -3.06215e-21)
(-0.295032 0.000914037 0)
(-0.294323 0.000714944 0)
(-0.297558 0.000166621 0)
(-0.293313 1.95525e-05 0)
(-0.321105 -0.000130985 0)
(-0.321062 -9.27445e-05 0)
(-0.348068 0.00026549 0)
(-0.361475 0.000157909 0)
(-0.355658 0.000522124 0)
(-0.31931 0.000761587 0)
(-0.288534 0.000308427 0)
(-0.335242 0.000385628 0)
(-0.349861 0.000230216 -6.62868e-21)
(-0.345145 0.000667581 0)
(-0.311791 0.00133095 0)
(-0.290513 0.00122872 0)
(-0.283084 0.000988578 4.96017e-21)
(-0.282076 0.00115057 0)
(-0.280612 0.00164085 0)
(-0.279179 0.00142917 4.61348e-21)
(-0.278026 0.000780211 0)
(-0.276513 0.000785881 -4.46022e-21)
(-0.274908 0.000825757 0)
(-0.273414 0.0002563 0)
(-0.272287 -0.000187325 0)
(-0.275733 -0.000315629 4.05527e-21)
(-0.277116 -0.000139413 0)
(-0.287078 0.000741988 -3.93108e-21)
(-0.266488 0.000880935 0)
(-0.286139 0.00102726 0)
(-0.263902 0.00090936 0)
(-0.284832 0.000900729 0)
(-0.261126 0.000856746 0)
(-0.281025 0.00015722 0)
(-0.278878 0.000655144 0)
(-0.256 0.000733822 0)
(-0.2648 0.000779499 0)
(-0.252503 0.000786336 0)
(-0.255729 0.000894486 0)
(-0.248771 0.00116444 -8.94806e-22)
(-0.265616 0.000914155 6.50045e-22)
(-0.280269 0.000620511 0)
(-0.272687 0.000867002 0)
(-0.240492 0.0020896 0)
(-0.239019 0.00233495 0)
(-0.237671 0.000891371 -1.00846e-21)
(-0.235558 0.000314696 1.42276e-21)
(-0.252595 0.000290419 -1.94576e-21)
(-0.251103 0.000714585 0)
(-0.229523 0.000437203 -2.58075e-21)
(-0.226875 -0.000609118 -6.23305e-21)
(-0.223288 0.000265294 0)
(-0.221237 0.000559584 -7.93925e-21)
(-0.218568 0.000689272 8.87453e-21)
(-0.242168 0.00210054 0)
(-0.216866 0.00232215 0)
(-0.215563 0.00172081 0)
(-0.214101 0.00173591 0)
(-0.212871 0.000430908 0)
(-0.209357 -0.000753233 -1.50711e-20)
(-0.206603 -0.000442703 0)
(-0.202483 -0.000489505 -1.75626e-20)
(-0.199748 0.000625766 0)
(-0.200142 0.000290558 0)
(-0.195122 -0.000261278 0)
(-0.192436 -0.000407543 0)
(-0.188426 0.000448673 0)
(-0.189664 0.000736698 2.43068e-20)
(-0.186196 0.000890991 0)
(-0.186517 0.00222119 0)
(-0.185755 0.00177137 -2.80154e-20)
(-0.184435 0.00118545 0)
(-0.183235 0.000856508 0)
(-0.182209 0.00071417 0)
(-0.181554 0.000580707 3.3137e-20)
(-0.180253 0.000522324 0)
(-0.177997 0.00053277 0)
(-0.174308 0.000470561 0)
(-0.168429 0.000362702 0)
(-0.159273 0.000442461 -4.7057e-20)
(-0.146235 0.000860277 0)
(-0.130023 0.00150845 0)
(-0.112304 0.00201713 0)
(-0.0957437 0.00220535 8.62306e-20)
(-0.0793131 0.00203765 0)
(-0.0699811 0.00226143 0)
(-0.0381911 0.00163954 -1.38638e-19)
(-0.0710155 0.000645321 1.20371e-35)
(-0.106469 0.00605895 1.18803e-17)
(-0.130877 0.0106069 2.1207e-17)
(-0.143877 0.0133104 1.98749e-17)
(-0.151476 0.0148143 1.90813e-17)
(-0.157073 0.0157192 1.84598e-17)
(-0.161391 0.0163543 -1.79399e-17)
(-0.164375 0.01679 -1.74578e-17)
(-0.166516 0.0170828 -1.20371e-35)
(-0.168402 0.0172929 -3.33985e-17)
(-0.170142 0.0174684 -1.63472e-17)
(-0.172015 0.0176248 3.91205e-34)
(-0.174166 0.0178026 -1.20371e-35)
(-0.176855 0.0180124 -3.01885e-17)
(-0.180146 0.0182863 -2.9068e-17)
(-0.184164 0.0186212 -2.77789e-17)
(-0.188894 0.0190342 -4.81482e-35)
(-0.194441 0.0195158 4.9067e-17)
(-0.200785 0.020088 2.25114e-17)
(-0.207892 0.0207224 1.20371e-35)
(-0.216413 0.0214924 -3.51483e-17)
(-0.224555 0.0222547 -1.23304e-20)
(-0.23796 0.023398 -3.00927e-36)
(-0.242207 0.0241086 1.3288e-17)
(-0.267557 0.0256478 -7.08328e-18)
)
;
    }
    lowerWall
    {
        type            calculated;
        value           nonuniform List<vector> 
250
(
(-0.625728 -0.00612172 0)
(-0.722303 -0.011528 0)
(-0.621192 -0.0102552 0)
(-0.561225 -0.00907711 0)
(-0.526181 -0.0074255 0)
(-0.573502 -0.00778373 0)
(-0.517288 -0.00665976 0)
(-0.496414 -0.00487388 0)
(-0.469483 -0.00321 0)
(-0.504056 -0.00308434 0)
(-0.461417 -0.00274853 0)
(-0.447855 -0.00155956 0)
(-0.476773 -0.000877224 0)
(-0.518145 -0.00117281 0)
(-0.473633 -0.00171053 0)
(-0.432395 -0.00191793 0)
(-0.429277 -0.00126584 0)
(-0.427931 -0.000592357 0)
(0.00221145 8.48427e-06 0)
(0.00245084 -0.00285344 0)
(0.00271447 -0.00580839 0)
(0.00304703 -0.00891997 1.08015e-19)
(0.0034544 -0.011994 -9.07488e-20)
(0.00393387 -0.0157193 7.88867e-20)
(0.00427821 -0.0156137 -6.9121e-20)
(0.0108024 -0.0362079 0)
(-0.0471478 -0.112533 0)
(0.000230749 -0.000279248 0)
(6.60258e-05 -0.000803684 0)
(-1.78114e-06 -0.000891238 0)
(6.04748e-05 -0.000893749 0)
(3.17939e-05 -0.000852858 1.52379e-19)
(-0.000152601 -0.000255783 -1.47328e-19)
(-0.000607574 0.0012466 0)
(-0.00121681 0.00404162 -1.67147e-19)
(-0.00158279 0.00754782 1.28006e-19)
(-0.00150127 0.0108074 0)
(-0.00108178 0.0131686 0)
(-0.000531369 0.0143612 0)
(-1.39293e-05 0.0143777 0)
(0.000392381 0.0134381 0)
(0.00073281 0.01181 0)
(0.00106665 0.00954495 0)
(0.00143579 0.00668103 0)
(0.00185553 0.00327147 0)
(-0.000143725 -0.000284209 0)
(0.000176513 -0.000455902 0)
(0.000495643 -0.00050535 0)
(0.00082201 -0.000428984 0)
(0.00107943 -0.00018435 -0)
(0.00111915 0.000217162 -0)
(0.000857457 0.000695593 1.41951e-20)
(0.000325076 0.0011398 -1.59984e-20)
(-0.00040521 0.00145878 0)
(-0.00123786 0.00161589 -9.06567e-21)
(-0.00209347 0.00162537 0)
(-0.00290736 0.00151886 0)
(-0.00363436 0.00133357 0)
(-0.00424983 0.00110051 4.45667e-21)
(-0.00474266 0.000840617 0)
(-0.0051088 0.000565399 0)
(-0.005346 0.000282961 -3.86172e-21)
(-0.0054585 -1.27078e-05 -0)
(-0.00542221 -0.000320067 0)
(-0.00523377 -0.000618736 -0)
(-0.00490155 -0.000888362 4.14833e-21)
(-0.00443691 -0.00110847 -0)
(-0.00385725 -0.00125726 4.90705e-21)
(-0.00318946 -0.00131429 0)
(-0.00247095 -0.00126332 -0)
(-0.00175156 -0.00109869 7.99247e-21)
(-0.00109086 -0.000833926 0)
(-0.000551291 -0.00051252 -1.34407e-20)
(-0.000172659 -0.00021187 0)
(6.23199e-05 -5.88563e-06 2.30185e-20)
(0.000213361 0.000111324 0)
(0.000305401 0.000205644 0)
(0.000310751 0.000319912 0)
(0.000207615 0.000476981 0)
(-3.32853e-05 0.000686341 0)
(-0.000445277 0.000912558 -1.56066e-20)
(-0.00101342 0.00107388 0)
(-0.00165022 0.00109022 1.77749e-20)
(-0.00223341 0.000946591 0)
(-0.00266103 0.000688907 -1.37956e-20)
(-0.00288551 0.00040139 0)
(-0.00292922 0.000160361 0)
(-0.00284508 1.69623e-05 1.34884e-20)
(-0.00271007 -3.19784e-06 0)
(-0.00259538 0.000101898 1.40255e-20)
(-0.00252277 0.000285342 -1.41655e-20)
(-0.0024488 0.000427354 0)
(-0.00225867 0.000298581 -1.51934e-20)
(-0.0016999 -0.000295499 -1.73863e-20)
(-0.000499002 -0.00103446 0)
(0.00124522 -0.00164066 0)
(0.00312261 -0.002303 0)
(0.00529156 -0.00299353 0)
(0.00772045 -0.00352085 -0)
(0.0102701 -0.00378736 3.4671e-21)
(0.0128228 -0.00392468 0)
(0.0153466 -0.00395134 -2.68885e-21)
(0.0183814 -0.00392033 -0)
(0.0214616 -0.00376168 -0)
(0.0223564 -0.00327483 2.12125e-21)
(0.0253565 -0.0031694 0)
(0.0282098 -0.00293868 -2.04829e-21)
(0.0287152 -0.0025366 -0)
(0.0315362 -0.00243004 0)
(0.0336305 -0.00224161 -0)
(0.0357526 -0.00209074 1.81301e-21)
(0.0377336 -0.00195033 0)
(0.0396697 -0.00182638 -0)
(0.0414996 -0.00171538 1.76388e-21)
(0.0432876 -0.00161746 0)
(0.0449988 -0.00152986 1.74233e-21)
(0.046669 -0.00145146 0)
(0.0482821 -0.00138041 0)
(0.0498567 -0.00131542 0)
(0.0513855 -0.00125518 -1.71061e-21)
(0.0528778 -0.00119877 -0)
(0.0543304 -0.00114537 0)
(0.0557478 -0.00109424 -1.69076e-21)
(0.0571283 -0.00104493 -1.68426e-21)
(0.058474 -0.000996838 -0)
(0.0597832 -0.000949907 -1.671e-21)
(0.0610577 -0.000903639 0)
(0.0622955 -0.000858078 -3.31381e-21)
(0.0634976 -0.000812781 -0)
(0.0646621 -0.000767933 -3.28286e-21)
(0.0657894 -0.00072317 -0)
(0.0668778 -0.000678531 3.24819e-21)
(0.0679263 -0.000633839 0)
(0.0689342 -0.000589253 0)
(0.0698999 -0.000544237 0)
(0.0708221 -0.000499292 -3.16503e-21)
(0.0717003 -0.000453619 -0)
(0.0725318 -0.000407062 3.11528e-21)
(0.0733156 -0.000359054 0)
(0.0740485 -0.00030935 -3.05895e-21)
(0.0747292 -0.00025787 -3.02813e-21)
(0.0753559 -0.000204235 -2.99549e-21)
(0.0759256 -0.000149533 0)
(0.0764381 -9.49837e-05 0)
(0.0768925 -4.4043e-05 0)
(0.0772939 -2.45058e-06 0)
(0.0776488 3.17234e-05 0)
(0.0779606 6.5259e-05 0)
(0.0782269 9.75618e-05 0)
(0.0784493 0.000129684 0)
(0.0786259 0.000161131 2.62053e-21)
(0.0787576 0.000192558 2.56935e-21)
(0.0788428 0.000223476 0)
(0.0788817 0.000254382 0)
(0.0788735 0.000284948 0)
(0.0788177 0.000315578 2.34671e-21)
(0.0787139 0.000346085 0)
(0.0785612 0.000376631 0)
(0.0783595 0.000407327 0)
(0.0781075 0.000438017 0)
(0.0778057 0.000469125 -2.02916e-21)
(0.077452 0.000500154 0)
(0.0770478 0.00053179 0)
(0.0765902 0.00056325 1.81625e-21)
(0.0760814 0.000595498 -1.74103e-21)
(0.0755179 0.000627417 0)
(0.0749029 0.000660068 -1.58346e-21)
(0.0742329 0.000692306 0)
(0.0735111 0.000725243 1.41531e-21)
(0.0727341 0.0007575 0)
(0.0719056 0.000790277 0)
(0.0710217 0.000822098 0)
(0.0700877 0.000854019 0)
(0.06911 0.000885164 0)
(0.068071 0.000915924 -1.66522e-21)
(0.0669827 0.000945609 -1.44417e-21)
(0.065848 0.000974274 0)
(0.0646718 0.000998815 0)
(0.0634548 0.00101779 0)
(0.0621973 0.0010282 4.7325e-22)
(0.0609038 0.00102865 0)
(0.059572 0.00103254 0)
(0.0582015 0.001049 0)
(0.0567932 0.00106752 -6.52423e-22)
(0.0553523 0.00108295 9.61044e-22)
(0.0538848 0.00109671 0)
(0.0523931 0.00110881 0)
(0.0508817 0.00111997 1.95674e-21)
(0.0493474 0.00112882 2.31282e-21)
(0.0478007 0.0011372 0)
(0.0462356 0.0011432 0)
(0.0446638 0.00114863 -3.4555e-21)
(0.043078 0.00115195 3.86277e-21)
(0.0414875 0.00115441 0)
(0.039886 0.00115475 0)
(0.0382831 0.00115391 5.17025e-21)
(0.0366736 0.00115118 0)
(0.0350678 0.00114768 0)
(0.0334598 0.00114279 6.6254e-21)
(0.0318591 0.00113763 0)
(0.0302588 0.0011315 7.69058e-21)
(0.0286686 0.00112551 0)
(0.0270816 0.00111912 0)
(0.025506 0.00111336 0)
(0.0239356 0.00110782 -1.01075e-20)
(0.0223751 0.00110294 0)
(0.0208219 0.00109884 0)
(0.0192765 0.0010955 0)
(0.0177384 0.00109302 0)
(0.0162074 0.00109145 0)
(0.0146829 0.00109097 0)
(0.0131646 0.00109173 -1.57687e-20)
(0.0116516 0.00109391 -1.6808e-20)
(0.0101432 0.00109758 0)
(0.00863835 0.00110276 0)
(0.00713635 0.00110941 0)
(0.00563672 0.00111817 2.19288e-20)
(0.00413953 0.0011284 0)
(0.00264655 0.00113782 -5.06266e-20)
(0.0011617 0.00114207 5.45975e-20)
(-0.000303415 0.0011252 5.65976e-20)
(-0.00174791 0.00106894 -5.51395e-20)
(-0.00307146 0.000990959 5.28968e-20)
(-0.00453364 0.00082286 -5.11478e-20)
(-0.00479246 0.000421848 0)
(-0.00674745 0.000962282 -3.06444e-18)
(-0.00988799 0.000726298 -2.78867e-18)
(-0.0130058 0.000369518 -3.00927e-36)
(-0.016177 3.76569e-05 -4.76801e-18)
(-0.0195428 -0.000304926 -8.88333e-18)
(-0.023119 -0.000663813 -4.1513e-18)
(-0.026914 -0.00104123 3.88865e-18)
(-0.0309527 -0.00144136 -2.40741e-35)
(-0.0352605 -0.00186822 3.00927e-36)
(-0.0398501 -0.00232706 3.2248e-18)
(-0.0447438 -0.00279876 3.03425e-18)
(-0.049949 -0.00327552 0)
(-0.055503 -0.00380219 0)
(-0.0614484 -0.00439892 0)
(-0.0678441 -0.00505188 -7.49025e-35)
(-0.0746905 -0.00575673 4.14244e-35)
(-0.0821423 -0.00651687 5.7176e-35)
(-0.090058 -0.00733706 -3.76583e-18)
(-0.0990079 -0.00822906 -3.43018e-18)
(-0.108065 -0.00919417 6.01853e-36)
(-0.119594 -0.0102572 5.39324e-18)
(-0.129167 -0.011424 8.95031e-18)
(-0.146495 -0.0126563 6.01853e-36)
(-0.153972 -0.0141651 -4.30844e-18)
(-0.188309 -0.0165156 1.80556e-35)
)
;
    }
    frontAndBack
    {
        type            empty;
    }
}


// ************************************************************************* //
