/*--------------------------------*- C++ -*----------------------------------*\
  =========                 |
  \\      /  F ield         | OpenFOAM: The Open Source CFD Toolbox
   \\    /   O peration     | Website:  https://openfoam.org
    \\  /    A nd           | Version:  8
     \\/     M anipulation  |
\*---------------------------------------------------------------------------*/
FoamFile
{
    version     2.0;
    format      ascii;
    class       volScalarField;
    location    "1300";
    object      p;
}
// * * * * * * * * * * * * * * * * * * * * * * * * * * * * * * * * * * * * * //

dimensions      [0 2 -2 0 0 0 0];

internalField   nonuniform List<scalar> 
12225
(
514.675
55.5273
2.36298
0.280846
-1.89965
-3.37524
-3.81252
-4.02298
-4.2328
-4.36979
-4.41704
-4.42679
-4.42995
-4.45816
-4.51189
-4.57891
-4.72505
-4.94971
-122.18
0.238084
-2.71925
-0.765952
-2.21735
-3.52583
-3.9536
-4.13776
-4.28151
-4.38558
-4.46061
-4.51906
-4.57017
-4.60279
-4.62404
-4.65011
-4.71745
-4.81294
-200.646
-16.1492
-2.34726
-0.35918
-1.90169
-3.24571
-3.77316
-4.02346
-4.19622
-4.32056
-4.41335
-4.48069
-4.52948
-4.55494
-4.57029
-4.58631
-4.61873
-4.60274
-110.617
-10.9749
-2.17798
-0.432893
-1.78863
-3.02974
-3.60227
-3.90951
-4.11885
-4.26473
-4.36721
-4.43801
-4.48689
-4.51568
-4.53329
-4.54149
-4.54083
-4.47254
-61.5736
-8.14668
-3.62344
-1.2109
-2.01615
-2.9993
-3.53023
-3.85006
-4.07263
-4.2274
-4.33514
-4.4099
-4.46142
-4.49272
-4.50823
-4.50589
-4.47993
-4.38994
-45.7316
-8.78612
-5.25965
-2.20125
-2.4309
-3.10209
-3.5376
-3.83462
-4.05067
-4.20457
-4.31372
-4.39056
-4.44314
-4.47422
-4.48595
-4.4754
-4.43545
-4.34092
-35.7955
-9.27738
-6.38144
-3.12569
-2.92292
-3.29105
-3.605
-3.85595
-4.05143
-4.19669
-4.30277
-4.37866
-4.43038
-4.46025
-4.46931
-4.45482
-4.41089
-4.32378
-27.7789
-8.90816
-6.97491
-3.80395
-3.363
-3.49988
-3.70198
-3.90152
-4.07094
-4.20328
-4.30312
-4.37596
-4.42598
-4.45492
-4.46335
-4.44912
-4.40814
-4.33331
-21.691
-8.52112
-7.13561
-4.31182
-3.7303
-3.70749
-3.81781
-3.96622
-4.10658
-4.22291
-4.31405
-4.38219
-4.42973
-4.45775
-4.46652
-4.4546
-4.41958
-4.35848
-16.6137
-8.1418
-7.08927
-4.75671
-4.0846
-3.93585
-3.96076
-4.05426
-4.16068
-4.25694
-4.33646
-4.39814
-4.44243
-4.46967
-4.47989
-4.47242
-4.44644
-4.40186
-12.64
-7.682
-6.90729
-5.10301
-4.40823
-4.17182
-4.12346
-4.16305
-4.23329
-4.30671
-4.37235
-4.42612
-4.46667
-4.49351
-4.50653
-4.50567
-4.49135
-4.46507
-9.70013
-7.14991
-6.63039
-5.32785
-4.68008
-4.39862
-4.29598
-4.28829
-4.3235
-4.3732
-4.42376
-4.46882
-4.5055
-4.53258
-4.54974
-4.55731
-4.55635
-4.54897
-7.66719
-6.60586
-6.30716
-5.43282
-4.88451
-4.59875
-4.46516
-4.42203
-4.42735
-4.45515
-4.49116
-4.52778
-4.5611
-4.58929
-4.61178
-4.62895
-4.64196
-4.65278
-6.3721
-6.1142
-5.98689
-5.44155
-5.01715
-4.75899
-4.61758
-4.55394
-4.53795
-4.54856
-4.57264
-4.60249
-4.63374
-4.66415
-4.69289
-4.72008
-4.74661
-4.77389
-5.62385
-5.72353
-5.71019
-5.39204
-5.08713
-4.87423
-4.74303
-4.67348
-4.64649
-4.6467
-4.66335
-4.68944
-4.7207
-4.7547
-4.7903
-4.82729
-4.86604
-4.90731
-5.24454
-5.46133
-5.50926
-5.32872
-5.11619
-4.94913
-4.83685
-4.77187
-4.74318
-4.74031
-4.75497
-4.78123
-4.81515
-4.85426
-4.8972
-4.94334
-4.99258
-5.04508
-5.10329
-5.34542
-5.41809
-5.30009
-5.13606
-4.99693
-4.89927
-4.84136
-4.81623
-4.81602
-4.83384
-4.86441
-4.90397
-4.94998
-5.00084
-5.05558
-5.11371
-5.17498
-5.14102
-5.40122
-5.47531
-5.34915
-5.17532
-5.02957
-4.92929
-4.87206
-4.85011
-4.85492
-4.87909
-4.91688
-4.96421
-5.01825
-5.07712
-5.13959
-5.20493
-5.27269
-5.3933
-5.65566
-5.69135
-5.4762
-5.22696
-5.03656
-4.91541
-4.85231
-4.83322
-4.84546
-4.87907
-4.92686
-4.98396
-5.04711
-5.11422
-5.18396
-5.25553
-5.32849
-6.00269
-6.13749
-6.04324
-5.63571
-5.24769
-4.9879
-4.84134
-4.77636
-4.7668
-4.79312
-4.84163
-4.90342
-4.9729
-5.04666
-5.12264
-5.19966
-5.27707
-5.35465
-7.25031
-6.89013
-6.49479
-5.76246
-5.18367
-4.85353
-4.69688
-4.64669
-4.66058
-4.71104
-4.78121
-4.86115
-4.94538
-5.03083
-5.11599
-5.20012
-5.28295
-5.36462
-9.64182
-7.9652
-6.98321
-5.77248
-4.98014
-4.61273
-4.48249
-4.47423
-4.52903
-4.61431
-4.71198
-4.81303
-4.91299
-5.01013
-5.1039
-5.19438
-5.28185
-5.36681
-13.983
-9.39168
-7.40379
-5.57015
-4.59536
-4.2648
-4.21565
-4.28026
-4.39238
-4.5198
-4.64782
-4.7702
-4.8851
-4.99236
-5.09311
-5.1885
-5.27934
-5.3666
-20.8906
-10.9546
-7.55481
-5.05786
-4.01649
-3.83647
-3.9306
-4.09474
-4.27283
-4.44363
-4.60009
-4.74123
-4.86805
-4.98262
-5.08778
-5.18607
-5.27876
-5.36696
-29.7372
-11.95
-7.03415
-4.12676
-3.26469
-3.37863
-3.67172
-3.9475
-4.18982
-4.39782
-4.57635
-4.73048
-4.86482
-4.98288
-5.08968
-5.18877
-5.28167
-5.36954
-43.1071
-12.6146
-5.47343
-2.7296
-2.41391
-2.96411
-3.48496
-3.86311
-4.15439
-4.38669
-4.5784
-4.73845
-4.87455
-4.99156
-5.097
-5.19565
-5.28755
-5.37444
-84.6001
-17.3741
-3.66474
-1.26609
-1.69668
-2.72251
-3.4369
-3.87069
-4.17427
-4.41139
-4.60751
-4.76843
-4.90025
-5.00774
-5.10575
-5.2032
-5.29303
-5.37724
-177.886
-26.8502
-3.6808
-0.770875
-1.53577
-2.84375
-3.61481
-4.01601
-4.2719
-4.46801
-4.65188
-4.81665
-4.95343
-5.04897
-5.1335
-5.22477
-5.30502
-5.382
-154.791
-9.62793
-3.27304
-1.06896
-1.84378
-3.22157
-3.91441
-4.22578
-4.41835
-4.55987
-4.70319
-4.85478
-5.00754
-5.11926
-5.20612
-5.30116
-5.37621
-5.44298
428.056
66.6048
7.0553
1.59875
-0.916284
-2.85762
-3.65369
-3.99546
-4.31112
-4.57798
-4.70818
-4.75691
-4.80094
-4.90893
-5.03905
-5.13262
-5.23613
-5.33885
-8.52585
-8.51301
-8.5023
-8.5436
-8.63665
-8.74044
-8.82048
-8.86061
-8.86433
-8.84669
-8.81924
-8.7906
-8.76884
-8.75994
-8.76486
-8.77748
-8.7887
-8.79381
-8.79289
-8.79037
-8.79429
-8.82672
-8.91664
-9.08752
-9.34023
-9.65778
-10.0287
-10.4424
-10.8834
-11.3355
-11.7836
-12.2157
-12.6225
-12.9975
-13.3363
-13.6365
-13.8969
-14.1178
-14.2997
-14.4436
-14.5509
-14.6228
-14.6608
-14.6661
-14.6402
-14.5844
-14.5002
-14.3901
-14.2552
-14.0934
-13.902
-13.6823
-13.4372
-13.1682
-12.8766
-12.5636
-12.2301
-11.8772
-11.5059
-11.1173
-10.7124
-10.2924
-9.85829
-9.41138
-8.95279
-8.4837
-8.00533
-7.51887
-7.02552
-6.52645
-6.02283
-5.5158
-5.00648
-4.49595
-3.98524
-3.47537
-2.96728
-2.46189
-1.96006
-1.46261
-0.970275
-0.483769
-0.00373747
0.469229
0.934593
1.39188
1.84065
2.28054
2.71123
3.13247
3.54406
3.9458
4.33753
4.71923
5.09114
5.45326
5.80513
6.14637
6.47695
6.79712
7.10711
7.40712
7.69735
7.97798
8.24918
8.51117
8.76414
9.00833
9.24394
9.47119
9.69029
9.9015
10.1051
10.3012
10.4902
10.6723
10.8477
11.0166
11.1794
11.3361
11.4872
11.6326
11.7728
11.9078
12.038
12.1634
12.2843
12.4009
12.5134
12.6218
12.7264
12.8275
12.9255
13.0202
13.1116
13.1999
13.2853
13.3678
13.4475
13.5247
13.5994
13.6717
13.7418
13.8097
13.8755
13.9392
14.0011
14.0611
14.1192
14.1757
14.2304
14.2835
14.3351
14.385
14.4335
14.4806
14.5261
14.5703
14.6131
14.6545
14.6946
14.7333
14.7708
14.8069
14.8418
14.8754
14.9078
14.939
14.9692
14.9984
15.0267
15.0544
15.0819
15.1096
15.1383
15.169
15.2045
15.2461
15.304
15.3644
-8.58326
-8.61451
-8.68846
-8.78208
-8.88562
-8.97794
-9.03931
-9.06381
-9.04687
-8.9865
-8.89674
-8.79983
-8.71804
-8.66654
-8.64431
-8.64099
-8.65045
-8.67589
-8.71122
-8.73134
-8.75549
-8.83294
-8.99192
-9.231
-9.53751
-9.90818
-10.3338
-10.7938
-11.2668
-11.7347
-12.1849
-12.6083
-12.9982
-13.3509
-13.6646
-13.9389
-14.1745
-14.3721
-14.533
-14.6584
-14.7494
-14.8072
-14.8327
-14.8268
-14.7904
-14.724
-14.6282
-14.5029
-14.3488
-14.1688
-13.9667
-13.7428
-13.4961
-13.2269
-12.9357
-12.6233
-12.2905
-11.9384
-11.5679
-11.1801
-10.7759
-10.3565
-9.92298
-9.47659
-9.01845
-8.54973
-8.07164
-7.58538
-7.09214
-6.59311
-6.08944
-5.58229
-5.07276
-4.56193
-4.05085
-3.54053
-3.03192
-2.52593
-2.02344
-1.52525
-1.03212
-0.544751
-0.0638051
0.410125
0.876494
1.33481
1.78463
2.22557
2.65726
3.07942
3.49177
3.89408
4.28613
4.66779
5.03917
5.40047
5.75189
6.09346
6.42502
6.74647
7.05785
7.35929
7.65093
7.93295
8.20552
8.46885
8.72314
8.96861
9.20548
9.43399
9.65436
9.86683
10.0716
10.269
10.4591
10.6424
10.8189
10.9889
11.1528
11.3106
11.4626
11.6091
11.7502
11.8862
12.0174
12.1439
12.2659
12.3836
12.4971
12.6067
12.7124
12.8142
12.9123
13.0071
13.0986
13.1872
13.2727
13.3555
13.4355
13.513
13.588
13.6607
13.731
13.7992
13.8653
13.9294
13.9915
14.0518
14.1102
14.1669
14.2219
14.2753
14.3271
14.3773
14.426
14.4733
14.5191
14.5634
14.6064
14.648
14.6883
14.7272
14.7648
14.8011
14.8361
14.8699
14.9024
14.9338
14.9641
14.9934
15.0218
15.0497
15.0772
15.105
15.1337
15.1644
15.1992
15.2388
15.2925
15.3423
-8.71033
-8.79217
-8.91021
-9.01614
-9.09914
-9.1531
-9.17383
-9.1601
-9.1106
-9.02755
-8.91998
-8.80444
-8.70441
-8.63957
-8.61061
-8.60562
-8.62447
-8.68103
-8.78453
-8.93147
-9.12156
-9.36187
-9.65545
-9.99427
-10.3661
-10.7617
-11.1711
-11.5824
-11.985
-12.3717
-12.7377
-13.0793
-13.3938
-13.6796
-13.9355
-14.161
-14.356
-14.5206
-14.655
-14.7595
-14.8344
-14.8803
-14.8974
-14.8862
-14.8472
-14.7808
-14.6873
-14.5668
-14.4192
-14.2456
-14.0473
-13.8253
-13.5803
-13.3127
-13.0232
-12.7126
-12.3817
-12.0315
-11.6627
-11.2765
-10.8739
-10.4559
-10.0238
-9.57856
-9.12145
-8.65363
-8.17629
-7.69063
-7.19785
-6.69913
-6.19563
-5.68851
-5.17888
-4.66782
-4.15639
-3.6456
-3.1364
-2.62973
-2.12645
-1.62738
-1.13329
-0.644878
-0.162814
0.312301
0.77992
1.23955
1.69074
2.13312
2.56633
2.9901
3.40418
3.80837
4.20253
4.58656
4.96043
5.32416
5.67778
6.0213
6.35468
6.67794
6.99113
7.29437
7.58781
7.87162
8.14596
8.41104
8.66705
8.91421
9.15275
9.38288
9.60485
9.81886
10.0252
10.224
10.4156
10.6003
10.7782
10.9495
11.1147
11.2738
11.4271
11.5748
11.7171
11.8542
11.9863
12.1136
12.2364
12.3548
12.469
12.5791
12.6855
12.788
12.8871
12.9829
13.0755
13.165
13.2515
13.3351
13.416
13.4942
13.57
13.6433
13.7143
13.7831
13.8498
13.9145
13.9771
14.0379
14.0969
14.154
14.2095
14.2633
14.3155
14.3661
14.4152
14.4627
14.5089
14.5536
14.5969
14.6388
14.6793
14.7185
14.7563
14.7928
14.8281
14.862
14.8948
14.9263
14.9568
14.9862
15.0148
15.0427
15.0703
15.0979
15.1264
15.1565
15.19
15.2266
15.274
15.3076
-8.75004
-8.84754
-8.94887
-9.03545
-9.09996
-9.13973
-9.15225
-9.1349
-9.08766
-9.01552
-8.92966
-8.8469
-8.78541
-8.75813
-8.76997
-8.82299
-8.92109
-9.06793
-9.26414
-9.50474
-9.78085
-10.0852
-10.412
-10.7547
-11.108
-11.4668
-11.8255
-12.1792
-12.5231
-12.8532
-13.1662
-13.4594
-13.7305
-13.9781
-14.2008
-14.3976
-14.5681
-14.7117
-14.8284
-14.918
-14.9805
-15.0161
-15.0249
-15.0068
-14.9622
-14.8912
-14.7941
-14.6712
-14.523
-14.3501
-14.1533
-13.9329
-13.6894
-13.4235
-13.1357
-12.8268
-12.4976
-12.1489
-11.7817
-11.3969
-10.9955
-10.5788
-10.1476
-9.70327
-9.24686
-8.77959
-8.30264
-7.81721
-7.3245
-6.8257
-6.32196
-5.81445
-5.30428
-4.79254
-4.2803
-3.76857
-3.25831
-2.75046
-2.24589
-1.74543
-1.24985
-0.759868
-0.276148
0.200698
0.670117
1.13161
1.58472
2.02907
2.4643
2.89014
3.30633
3.71269
4.10907
4.49538
4.87158
5.23763
5.59351
5.93919
6.27469
6.60002
6.91529
7.2206
7.51609
7.80193
8.07828
8.34534
8.6033
8.85238
9.09279
9.32476
9.54852
9.76429
9.97232
10.1729
10.3661
10.5524
10.7319
10.9048
11.0713
11.2318
11.3865
11.5355
11.679
11.8174
11.9507
12.0792
12.2032
12.3227
12.4379
12.5492
12.6565
12.7601
12.8602
12.9571
13.0506
13.141
13.2284
13.3129
13.3946
13.4736
13.5501
13.6242
13.6959
13.7654
13.8327
13.8979
13.9612
14.0225
14.082
14.1396
14.1956
14.2498
14.3025
14.3535
14.403
14.451
14.4975
14.5425
14.5862
14.6284
14.6692
14.7087
14.7468
14.7836
14.8191
14.8533
14.8862
14.9179
14.9485
14.978
15.0066
15.0345
15.0619
15.0892
15.1171
15.146
15.1774
15.2098
15.2492
15.2678
-8.53845
-8.62339
-8.7235
-8.82062
-8.89801
-8.95077
-8.97788
-8.98016
-8.96204
-8.93182
-8.90157
-8.88527
-8.89574
-8.94256
-9.03195
-9.16706
-9.34801
-9.57026
-9.82535
-10.1052
-10.4044
-10.7186
-11.0435
-11.3742
-11.7062
-12.0359
-12.3598
-12.6748
-12.9782
-13.2676
-13.5408
-13.7963
-14.0326
-14.2485
-14.443
-14.6151
-14.7643
-14.8899
-14.9915
-15.0687
-15.1212
-15.1489
-15.1515
-15.1289
-15.0812
-15.0083
-14.9104
-14.7874
-14.6399
-14.468
-14.2724
-14.0533
-13.8112
-13.5467
-13.2605
-12.953
-12.6253
-12.278
-11.9121
-11.5285
-11.1283
-10.7125
-10.2822
-9.83849
-9.38263
-8.91576
-8.43907
-7.95374
-7.46098
-6.96198
-6.4579
-5.9499
-5.43911
-4.92662
-4.41349
-3.90075
-3.38937
-2.88029
-2.37437
-1.87247
-1.37535
-0.883735
-0.398302
0.0803375
0.551623
1.01505
1.47017
1.91657
2.35393
2.78194
3.20035
3.60896
4.00764
4.39626
4.77476
5.14309
5.50123
5.84916
6.18688
6.51444
6.83193
7.13945
7.43714
7.72516
8.00367
8.27285
8.53292
8.78406
9.02652
9.26052
9.48626
9.70397
9.9139
10.1163
10.3114
10.4994
10.6805
10.8551
11.0233
11.1854
11.3416
11.4921
11.6371
11.7769
11.9116
12.0415
12.1668
12.2876
12.4041
12.5166
12.6251
12.7298
12.8311
12.9289
13.0234
13.1148
13.2031
13.2884
13.371
13.4508
13.5281
13.603
13.6754
13.7456
13.8136
13.8795
13.9434
14.0053
14.0654
14.1236
14.1801
14.2349
14.288
14.3396
14.3895
14.4379
14.4849
14.5303
14.5743
14.6169
14.6581
14.6979
14.7363
14.7734
14.8091
14.8435
14.8767
14.9086
14.9392
14.9688
14.9974
15.0251
15.0522
15.079
15.1059
15.1332
15.1618
15.1896
15.2212
15.2273
-8.11855
-8.20695
-8.32787
-8.45056
-8.55579
-8.63621
-8.6945
-8.73653
-8.7699
-8.80441
-8.851
-8.91999
-9.01944
-9.15416
-9.32639
-9.53515
-9.77577
-10.0427
-10.3305
-10.6336
-10.9465
-11.2644
-11.5833
-11.8998
-12.2111
-12.515
-12.8097
-13.0935
-13.3649
-13.6227
-13.8657
-14.0926
-14.3025
-14.4944
-14.6674
-14.8206
-14.9532
-15.0646
-15.1542
-15.2214
-15.2657
-15.2868
-15.2842
-15.2578
-15.2073
-15.1326
-15.0336
-14.9104
-14.7631
-14.592
-14.3973
-14.1793
-13.9385
-13.6754
-13.3905
-13.0845
-12.7582
-12.4123
-12.0477
-11.6653
-11.2662
-10.8514
-10.422
-9.97909
-9.52382
-9.05741
-8.58101
-8.09584
-7.60308
-7.10392
-6.59953
-6.09109
-5.5797
-5.06649
-4.5525
-4.03878
-3.52629
-3.01599
-2.50875
-2.00541
-1.50676
-1.01353
-0.526394
-0.0459684
0.427181
0.892542
1.34966
1.79814
2.23761
2.66779
3.08843
3.49931
3.90027
4.2912
4.67201
5.04265
5.40308
5.75329
6.09329
6.42314
6.74291
7.05271
7.35266
7.64293
7.92368
8.19509
8.45735
8.71067
8.95525
9.19133
9.41911
9.63885
9.85076
10.0551
10.2521
10.4419
10.625
10.8013
10.9713
11.1351
11.2929
11.4451
11.5917
11.733
11.8693
12.0006
12.1273
12.2495
12.3673
12.481
12.5908
12.6968
12.7992
12.8981
12.9937
13.0861
13.1753
13.2617
13.3452
13.426
13.5041
13.5798
13.6531
13.7241
13.7928
13.8595
13.924
13.9867
14.0474
14.1062
14.1633
14.2187
14.2724
14.3244
14.3749
14.4238
14.4712
14.5171
14.5615
14.6045
14.6461
14.6862
14.725
14.7624
14.7984
14.8331
14.8664
14.8984
14.9292
14.9588
14.9873
15.0148
15.0414
15.0675
15.0932
15.1185
15.144
15.167
15.1913
15.1867
-7.6533
-7.75199
-7.89403
-8.04281
-8.18073
-8.29932
-8.40215
-8.49854
-8.59789
-8.70912
-8.83986
-8.99503
-9.17737
-9.38734
-9.62326
-9.88301
-10.1636
-10.4605
-10.7682
-11.0818
-11.3969
-11.7102
-12.0188
-12.3207
-12.6143
-12.8983
-13.1717
-13.4335
-13.683
-13.9191
-14.1412
-14.3483
-14.5397
-14.7144
-14.8718
-15.0109
-15.131
-15.2314
-15.3114
-15.3704
-15.4078
-15.4231
-15.4159
-15.3857
-15.3324
-15.2556
-15.1552
-15.0312
-14.8835
-14.7124
-14.518
-14.3006
-14.0606
-13.7984
-13.5145
-13.2096
-12.8845
-12.5397
-12.1764
-11.7952
-11.3973
-10.9836
-10.5552
-10.1132
-9.65876
-9.19308
-8.7173
-8.23263
-7.74025
-7.24135
-6.73709
-6.22863
-5.71711
-5.20361
-4.68921
-4.17494
-3.66178
-3.15068
-2.64251
-2.13813
-1.63832
-1.14382
-0.655298
-0.173389
0.301339
0.768373
1.22725
1.67756
2.11895
2.55111
2.97379
3.38676
3.78986
4.18296
4.56597
4.93881
5.30145
5.65388
5.99612
6.32821
6.65023
6.96228
7.26449
7.557
7.83998
8.1136
8.37805
8.63354
8.88028
9.11848
9.34837
9.57017
9.78413
9.99046
10.1894
10.3812
10.5661
10.7444
10.9162
11.0817
11.2413
11.3951
11.5434
11.6863
11.8242
11.957
12.0852
12.2088
12.3281
12.4431
12.5542
12.6615
12.7651
12.8652
12.9619
13.0554
13.1458
13.2332
13.3177
13.3994
13.4785
13.5551
13.6293
13.7011
13.7707
13.8381
13.9034
13.9668
14.0282
14.0877
14.1455
14.2015
14.2557
14.3084
14.3594
14.4088
14.4567
14.5031
14.548
14.5915
14.6334
14.674
14.7131
14.7508
14.7871
14.8221
14.8556
14.8878
14.9186
14.9482
14.9765
15.0037
15.0298
15.0549
15.0792
15.1023
15.1245
15.1427
15.1604
15.1465
-7.29721
-7.39072
-7.54275
-7.70845
-7.87525
-8.03615
-8.19065
-8.34664
-8.51235
-8.69361
-8.89447
-9.11615
-9.35723
-9.61684
-9.89441
-10.1876
-10.4928
-10.8055
-11.1215
-11.4371
-11.7496
-12.0566
-12.3563
-12.6472
-12.9284
-13.1991
-13.4584
-13.7058
-13.9407
-14.1625
-14.3706
-14.5643
-14.7428
-14.9056
-15.0518
-15.1807
-15.2916
-15.3838
-15.4565
-15.5091
-15.5409
-15.5514
-15.5402
-15.5067
-15.4505
-15.3715
-15.2694
-15.144
-14.9954
-14.8236
-14.6288
-14.4112
-14.1712
-13.9091
-13.6256
-13.3211
-12.9965
-12.6524
-12.2896
-11.9092
-11.512
-11.0991
-10.6715
-10.2304
-9.77676
-9.31187
-8.83686
-8.35292
-7.86121
-7.36293
-6.85923
-6.35126
-5.84013
-5.32695
-4.81276
-4.2986
-3.78545
-3.27423
-2.76585
-2.26113
-1.76086
-1.26578
-0.776565
-0.293844
0.181812
0.649886
1.10991
1.56148
2.00422
2.43784
2.86205
3.27664
3.68142
4.07626
4.46106
4.83574
5.20026
5.55461
5.8988
6.23289
6.55693
6.87102
7.17529
7.46988
7.75494
8.03066
8.2972
8.55478
8.80359
9.04385
9.27579
9.49962
9.71558
9.9239
10.1248
10.3186
10.5054
10.6854
10.8591
11.0264
11.1878
11.3433
11.4933
11.6378
11.7772
11.9117
12.0414
12.1665
12.2872
12.4036
12.5161
12.6247
12.7296
12.8309
12.9288
13.0234
13.1149
13.2034
13.289
13.3717
13.4518
13.5294
13.6044
13.6771
13.7476
13.8158
13.882
13.9461
14.0082
14.0685
14.1269
14.1835
14.2385
14.2917
14.3433
14.3933
14.4418
14.4887
14.534
14.5779
14.6204
14.6613
14.7008
14.7389
14.7755
14.8107
14.8445
14.8768
14.9077
14.9372
14.9653
14.9921
15.0175
15.0416
15.0643
15.0851
15.1039
15.1173
15.129
15.1071
-7.10644
-7.19255
-7.34665
-7.51899
-7.70235
-7.89459
-8.09229
-8.29744
-8.51461
-8.74626
-8.99268
-9.25384
-9.52967
-9.8198
-10.1223
-10.434
-10.7513
-11.0706
-11.3891
-11.7041
-12.0134
-12.3154
-12.6088
-12.8924
-13.1656
-13.4277
-13.6781
-13.9164
-14.1422
-14.3549
-14.5541
-14.739
-14.9093
-15.0641
-15.2029
-15.3249
-15.4294
-15.5157
-15.583
-15.6308
-15.6584
-15.6651
-15.6505
-15.6141
-15.5554
-15.4742
-15.3702
-15.2433
-15.0934
-14.9205
-14.7248
-14.5064
-14.2658
-14.0034
-13.7195
-13.4149
-13.0902
-12.7462
-12.3836
-12.0034
-11.6066
-11.1941
-10.767
-10.3264
-9.87339
-9.40916
-8.93485
-8.45163
-7.96067
-7.46313
-6.96018
-6.45295
-5.94254
-5.43004
-4.91651
-4.40295
-3.89033
-3.37958
-2.87158
-2.36717
-1.86712
-1.37215
-0.882952
-0.400139
0.0757159
0.544097
1.00454
1.45663
1.9
2.33434
2.75937
3.17489
3.5807
3.97665
4.36264
4.7386
5.10446
5.46022
5.80589
6.14151
6.46714
6.78289
7.08885
7.38517
7.672
7.9495
8.21786
8.47727
8.72792
8.97004
9.20383
9.42952
9.64732
9.85748
10.0602
10.2558
10.4444
10.6262
10.8016
10.9707
11.1337
11.2909
11.4425
11.5887
11.7297
11.8657
11.9969
12.1234
12.2456
12.3634
12.4772
12.5871
12.6933
12.7959
12.895
12.9908
13.0834
13.173
13.2596
13.3434
13.4245
13.503
13.5791
13.6527
13.724
13.7931
13.86
13.9249
13.9878
14.0488
14.108
14.1653
14.2209
14.2747
14.327
14.3775
14.4265
14.474
14.5199
14.5643
14.6072
14.6485
14.6885
14.7269
14.7638
14.7993
14.8332
14.8657
14.8966
14.926
14.9539
14.9802
15.0049
15.0278
15.0488
15.0672
15.0827
15.0916
15.0979
15.0688
-7.07812
-7.16492
-7.31262
-7.48139
-7.66809
-7.87261
-8.09177
-8.3236
-8.56833
-8.82658
-9.09787
-9.38134
-9.67674
-9.98294
-10.2972
-10.6166
-10.9382
-11.2593
-11.5775
-11.8906
-12.1971
-12.4955
-12.7847
-13.0638
-13.3323
-13.5895
-13.8349
-14.0683
-14.289
-14.4966
-14.6908
-14.8708
-15.0363
-15.1865
-15.3207
-15.4384
-15.5389
-15.6213
-15.6851
-15.7295
-15.754
-15.7579
-15.7406
-15.7017
-15.6409
-15.5577
-15.4518
-15.3232
-15.1718
-14.9976
-14.8007
-14.5814
-14.3399
-14.0767
-13.7922
-13.4871
-13.1621
-12.8178
-12.4552
-12.075
-11.6783
-11.2661
-10.8394
-10.3993
-9.94684
-9.48328
-9.00972
-8.52732
-8.03725
-7.54065
-7.03867
-6.53243
-6.02304
-5.51157
-4.99905
-4.48648
-3.97483
-3.46502
-2.9579
-2.45431
-1.95502
-1.46074
-0.97215
-0.48986
-0.0144332
0.45362
0.913839
1.36581
1.80918
2.24363
2.66889
3.08472
3.49094
3.88741
4.27401
4.65066
5.01731
5.37394
5.72056
6.05721
6.38395
6.70087
7.00808
7.3057
7.59389
7.87281
8.14262
8.40352
8.6557
8.89936
9.13472
9.362
9.58141
9.79318
9.99753
10.1947
10.3849
10.5684
10.7453
10.916
11.0806
11.2394
11.3925
11.5402
11.6827
11.8201
11.9527
12.0807
12.2042
12.3234
12.4386
12.5498
12.6572
12.7609
12.8613
12.9582
13.0519
13.1426
13.2303
13.3151
13.3972
13.4767
13.5536
13.6281
13.7003
13.7703
13.8381
13.9038
13.9674
14.0292
14.089
14.147
14.2033
14.2578
14.3106
14.3618
14.4114
14.4594
14.5058
14.5507
14.594
14.6359
14.6762
14.715
14.7522
14.788
14.8221
14.8547
14.8856
14.9149
14.9425
14.9683
14.9921
15.0138
15.0331
15.0491
15.0613
15.066
15.0673
15.0322
-7.18863
-7.267
-7.39795
-7.55383
-7.73245
-7.93351
-8.15431
-8.39225
-8.64571
-8.91336
-9.19353
-9.48513
-9.78718
-10.0978
-10.4144
-10.7344
-11.0555
-11.3752
-11.6914
-12.0023
-12.3064
-12.6025
-12.8894
-13.1664
-13.4328
-13.688
-13.9316
-14.163
-14.3818
-14.5876
-14.7797
-14.9578
-15.1212
-15.2693
-15.4014
-15.5169
-15.6152
-15.6954
-15.757
-15.7993
-15.8217
-15.8235
-15.8042
-15.7634
-15.7007
-15.6157
-15.5082
-15.378
-15.2252
-15.0496
-14.8515
-14.631
-14.3886
-14.1245
-13.8394
-13.5337
-13.2083
-12.8638
-12.5011
-12.121
-11.7245
-11.3127
-10.8865
-10.447
-9.99541
-9.53277
-9.06024
-8.57898
-8.09014
-7.59485
-7.09424
-6.58944
-6.08151
-5.57154
-5.06054
-4.54949
-4.03934
-3.531
-3.02531
-2.5231
-2.02512
-1.53208
-1.04464
-0.563416
-0.0889591
0.378223
0.837672
1.28898
1.7318
2.1658
2.59071
3.00632
3.41242
3.80888
4.19557
4.57241
4.93935
5.29638
5.64349
5.98072
6.30814
6.62582
6.93387
7.23241
7.52158
7.80154
8.07246
8.33452
8.58791
8.83283
9.06948
9.29808
9.51884
9.73198
9.93772
10.1363
10.3279
10.5128
10.6912
10.8633
11.0293
11.1895
11.344
11.4931
11.6369
11.7757
11.9097
12.039
12.1638
12.2843
12.4007
12.5131
12.6217
12.7266
12.8281
12.9261
13.0209
13.1126
13.2013
13.2872
13.3702
13.4507
13.5285
13.6039
13.677
13.7478
13.8164
13.8828
13.9473
14.0098
14.0703
14.129
14.1859
14.2411
14.2945
14.3463
14.3965
14.445
14.492
14.5374
14.5812
14.6235
14.6642
14.7034
14.7409
14.7769
14.8113
14.844
14.8749
14.9041
14.9313
14.9566
14.9796
15
15.0175
15.0311
15.0402
15.0409
15.0377
14.9974
-7.36491
-7.42949
-7.5404
-7.67883
-7.84264
-8.03135
-8.24262
-8.47379
-8.72239
-8.98609
-9.26268
-9.55098
-9.84978
-10.1569
-10.4698
-10.7862
-11.1037
-11.4202
-11.7338
-12.0425
-12.3451
-12.6401
-12.9265
-13.2033
-13.4699
-13.7255
-13.9696
-14.2017
-14.4211
-14.6273
-14.8199
-14.9981
-15.1616
-15.3095
-15.4413
-15.5562
-15.6537
-15.7331
-15.7936
-15.8347
-15.8557
-15.8561
-15.8354
-15.7931
-15.7289
-15.6424
-15.5334
-15.4018
-15.2476
-15.0708
-14.8715
-14.6501
-14.4068
-14.142
-13.8563
-13.5504
-13.2247
-12.8803
-12.5177
-12.1381
-11.7422
-11.3312
-10.9059
-10.4676
-10.0173
-9.5561
-9.08516
-8.60561
-8.11858
-7.6252
-7.12659
-6.62383
-6.118
-5.61014
-5.10126
-4.59234
-4.08431
-3.57805
-3.07441
-2.57419
-2.07813
-1.58694
-1.10127
-0.621711
-0.148822
0.316901
0.775006
1.22509
1.6668
2.09981
2.52387
2.93873
3.34422
3.74018
4.1265
4.50309
4.86989
5.22689
5.57408
5.91151
6.23922
6.55729
6.86583
7.16495
7.45478
7.73548
8.00721
8.27015
8.52447
8.77038
9.00808
9.23776
9.45965
9.67395
9.88089
10.0807
10.2735
10.4597
10.6393
10.8127
10.98
11.1415
11.2973
11.4476
11.5927
11.7328
11.868
11.9985
12.1245
12.2462
12.3638
12.4773
12.5871
12.6931
12.7957
12.8948
12.9906
13.0833
13.173
13.2598
13.3439
13.4252
13.504
13.5802
13.6541
13.7257
13.7951
13.8624
13.9276
13.9908
14.052
14.1114
14.169
14.2248
14.2789
14.3312
14.382
14.4311
14.4786
14.5245
14.5688
14.6115
14.6526
14.6922
14.7301
14.7664
14.8009
14.8337
14.8647
14.8937
14.9206
14.9452
14.9673
14.9865
15.0023
15.0136
15.0197
15.0168
15.0095
14.9647
-7.53872
-7.5902
-7.68277
-7.80335
-7.94996
-8.12207
-8.31763
-8.53426
-8.7695
-9.0208
-9.28614
-9.56438
-9.85416
-10.1532
-10.4592
-10.7696
-11.0823
-11.3951
-11.706
-12.0132
-12.3151
-12.6104
-12.8979
-13.1764
-13.4451
-13.7031
-13.9498
-14.1844
-14.4063
-14.615
-14.8097
-14.9899
-15.1549
-15.3041
-15.4368
-15.5524
-15.6501
-15.7295
-15.7897
-15.8303
-15.8506
-15.8501
-15.8283
-15.7849
-15.7195
-15.6317
-15.5216
-15.3889
-15.2336
-15.0558
-14.8558
-14.6336
-14.3898
-14.1247
-13.839
-13.5331
-13.2078
-12.8639
-12.5021
-12.1235
-11.7288
-11.3192
-10.8956
-10.4591
-10.0108
-9.55177
-9.08315
-8.60606
-8.12161
-7.63091
-7.13505
-6.63512
-6.13217
-5.62721
-5.12124
-4.61521
-4.11005
-3.60664
-3.10579
-2.60828
-2.11485
-1.62619
-1.14295
-0.665716
-0.195027
0.268623
0.724788
1.17307
1.61311
2.0446
2.46728
2.88091
3.2853
3.6803
4.0658
4.44171
4.80796
5.16454
5.51144
5.8487
6.17636
6.4945
6.80321
7.10261
7.39281
7.67398
7.94626
8.20983
8.46486
8.71154
8.95006
9.18063
9.40346
9.61874
9.8267
10.0275
10.2215
10.4087
10.5895
10.764
10.9325
11.0951
11.2521
11.4036
11.5499
11.6912
11.8275
11.9592
12.0864
12.2092
12.3279
12.4426
12.5534
12.6605
12.7641
12.8642
12.9611
13.0547
13.1454
13.2331
13.3181
13.4003
13.4799
13.5571
13.6318
13.7042
13.7744
13.8424
13.9083
13.9722
14.0342
14.0943
14.1525
14.2089
14.2636
14.3166
14.3679
14.4176
14.4656
14.512
14.5568
14.6
14.6416
14.6815
14.7198
14.7563
14.7911
14.824
14.855
14.8838
14.9104
14.9345
14.9557
14.9736
14.9877
14.9968
15.0001
14.9939
14.9829
14.9344
-7.66551
-7.70768
-7.78485
-7.88879
-8.018
-8.17204
-8.34917
-8.54742
-8.7648
-8.99909
-9.24891
-9.51354
-9.79154
-10.0806
-10.3784
-10.6823
-10.9902
-11.2997
-11.6088
-11.9156
-12.2183
-12.5154
-12.8055
-13.0874
-13.3598
-13.622
-13.8728
-14.1116
-14.3375
-14.5499
-14.7481
-14.9313
-15.0989
-15.2502
-15.3847
-15.5015
-15.6002
-15.68
-15.7405
-15.7809
-15.8008
-15.7998
-15.7773
-15.7331
-15.6667
-15.5781
-15.4671
-15.3337
-15.1777
-14.9994
-14.799
-14.5767
-14.333
-14.0682
-13.783
-13.4779
-13.1537
-12.8111
-12.451
-12.0741
-11.6816
-11.2743
-10.8533
-10.4195
-9.97421
-9.51833
-9.05302
-8.57937
-8.09848
-7.61143
-7.1193
-6.62315
-6.12401
-5.62287
-5.12071
-4.61847
-4.11705
-3.6173
-3.12005
-2.62605
-2.13602
-1.65065
-1.17055
-0.69633
-0.228507
0.232429
0.686037
1.13192
1.56973
1.99916
2.41993
2.83183
3.23465
3.62825
4.0125
4.38731
4.75262
5.10841
5.45467
5.79143
6.11872
6.43662
6.74522
7.04463
7.33495
7.61634
7.88895
8.15292
8.40845
8.65571
8.89488
9.12617
9.34977
9.56589
9.77473
9.97649
10.1714
10.3596
10.5414
10.717
10.8865
11.0502
11.2083
11.3609
11.5083
11.6507
11.7881
11.9209
12.0492
12.1731
12.2928
12.4086
12.5204
12.6286
12.7331
12.8343
12.9321
13.0268
13.1184
13.207
13.2928
13.376
13.4564
13.5344
13.61
13.6832
13.7541
13.8229
13.8895
13.9542
14.0168
14.0776
14.1365
14.1936
14.2489
14.3025
14.3544
14.4046
14.4532
14.5001
14.5454
14.5891
14.6311
14.6714
14.71
14.7469
14.7818
14.8149
14.8458
14.8746
14.9008
14.9243
14.9447
14.9615
14.9739
14.981
14.9817
14.9725
14.9582
14.9065
-7.72101
-7.75924
-7.82481
-7.91379
-8.02599
-8.16136
-8.31888
-8.49721
-8.6948
-8.9101
-9.14261
-9.39223
-9.65762
-9.9364
-10.226
-10.5239
-10.8277
-11.135
-11.4435
-11.7512
-12.0561
-12.3565
-12.6507
-12.9372
-13.2148
-13.4822
-13.7383
-13.9823
-14.2132
-14.4301
-14.6324
-14.8192
-14.99
-15.1439
-15.2805
-15.399
-15.4988
-15.5794
-15.6403
-15.6808
-15.7006
-15.6993
-15.6764
-15.6317
-15.5649
-15.4758
-15.3645
-15.2308
-15.0748
-14.8966
-14.6966
-14.4749
-14.2321
-13.9685
-13.6848
-13.3815
-13.0594
-12.7192
-12.3617
-11.9879
-11.5986
-11.1948
-10.7775
-10.3477
-9.90652
-9.45496
-8.99412
-8.52506
-8.04887
-7.5666
-7.0793
-6.58801
-6.09373
-5.59745
-5.10011
-4.60263
-4.10588
-3.61071
-3.11792
-2.62828
-2.14248
-1.66117
-1.18498
-0.714484
-0.250214
0.207351
0.657777
1.10067
1.53568
1.9625
2.38086
2.79053
3.19131
3.58306
3.96564
4.33897
4.70298
5.05763
5.40291
5.73886
6.06549
6.38289
6.69111
6.99028
7.28049
7.56189
7.83461
8.09881
8.35466
8.60232
8.84199
9.07385
9.29809
9.51491
9.72451
9.92708
10.1228
10.312
10.4947
10.6713
10.8418
11.0065
11.1656
11.3192
11.4677
11.6111
11.7496
11.8834
12.0127
12.1377
12.2585
12.3752
12.4881
12.5972
12.7028
12.8049
12.9037
12.9993
13.0918
13.1814
13.2681
13.3521
13.4334
13.5122
13.5885
13.6625
13.7343
13.8038
13.8712
13.9365
13.9999
14.0613
14.1209
14.1786
14.2345
14.2887
14.3412
14.392
14.4412
14.4887
14.5345
14.5786
14.6211
14.6618
14.7008
14.738
14.7732
14.8064
14.8374
14.866
14.892
14.915
14.9346
14.9502
14.9612
14.9663
14.9647
14.9527
14.9354
14.8811
-7.70665
-7.74133
-7.79814
-7.87328
-7.96827
-8.08396
-8.22034
-8.37705
-8.55332
-8.74844
-8.96285
-9.19705
-9.44984
-9.71874
-10.0011
-10.2941
-10.5952
-10.9019
-11.2115
-11.5217
-11.8304
-12.1354
-12.4349
-12.7272
-13.0108
-13.2842
-13.5463
-13.7959
-14.032
-14.2538
-14.4603
-14.6508
-14.8247
-14.9812
-15.1198
-15.2399
-15.3409
-15.4223
-15.4836
-15.5245
-15.5444
-15.5431
-15.5202
-15.4754
-15.4087
-15.3198
-15.2088
-15.0757
-14.9204
-14.7434
-14.5447
-14.3247
-14.0839
-13.8226
-13.5416
-13.2414
-12.9226
-12.5861
-12.2327
-11.8632
-11.4785
-11.0796
-10.6674
-10.243
-9.80728
-9.36138
-8.90633
-8.44317
-7.97295
-7.4967
-7.01545
-6.5302
-6.04193
-5.55161
-5.06015
-4.56847
-4.0774
-3.58777
-3.10037
-2.61595
-2.1352
-1.65878
-1.18727
-0.721233
-0.261206
0.192335
0.638955
1.07826
1.50991
1.93359
2.34903
2.756
3.15431
3.54379
3.92432
4.29579
4.65814
5.01133
5.35534
5.69018
6.0159
6.33253
6.64015
6.93886
7.22876
7.50997
7.78263
8.04689
8.3029
8.55084
8.79087
9.02317
9.24794
9.46535
9.67561
9.87891
10.0754
10.2654
10.449
10.6264
10.7979
10.9635
11.1236
11.2783
11.4277
11.5721
11.7116
11.8465
11.9768
12.1028
12.2246
12.3424
12.4562
12.5664
12.6729
12.776
12.8757
12.9722
13.0656
13.1561
13.2437
13.3285
13.4107
13.4903
13.5675
13.6423
13.7148
13.785
13.8532
13.9192
13.9833
14.0454
14.1056
14.164
14.2206
14.2754
14.3285
14.3799
14.4296
14.4777
14.524
14.5687
14.6116
14.6528
14.6922
14.7297
14.7652
14.7985
14.8296
14.8581
14.8839
14.9064
14.9253
14.94
14.9495
14.9529
14.9491
14.9348
14.9148
14.8583
-7.64298
-7.6687
-7.71483
-7.77345
-7.84821
-7.94108
-8.0533
-8.18574
-8.33864
-8.51227
-8.70803
-8.92694
-9.16783
-9.42802
-9.70453
-9.99438
-10.2946
-10.6023
-10.9146
-11.2288
-11.5424
-11.8531
-12.1587
-12.4573
-12.7472
-13.0268
-13.2947
-13.5497
-13.7908
-14.017
-14.2274
-14.4213
-14.5979
-14.7567
-14.8971
-15.0186
-15.1208
-15.203