/*--------------------------------*- C++ -*----------------------------------*\
| =========                 |                                                 |
| \\      /  F ield         | OpenFOAM: The Open Source CFD Toolbox           |
|  \\    /   O peration     | Version:  v2012                                 |
|   \\  /    A nd           | Website:  www.openfoam.com                      |
|    \\/     M anipulation  |                                                 |
\*---------------------------------------------------------------------------*/
FoamFile
{
    version     2.0;
    format      ascii;
    class       volScalarField;
    location    "4800";
    object      nut;
}
// * * * * * * * * * * * * * * * * * * * * * * * * * * * * * * * * * * * * * //

dimensions      [0 2 -1 0 0 0 0];


internalField   nonuniform List<scalar> 
12225
(
0.0122671
0.00158819
0.000666128
0.000410104
0.00029404
0.000227808
0.000186418
0.000144343
0.000166327
0.000215679
0.000223825
0.000214192
0.00019517
0.000167531
0.000161405
0.000145536
0.000132333
0.000120158
0.0323823
0.00744532
0.00330638
0.00204329
0.00146802
0.00114429
0.000938659
0.000784861
0.000690369
0.000626883
0.000569544
0.000518715
0.000475216
0.000435571
0.000404979
0.000372254
0.00034712
0.000321107
0.0490123
0.01515
0.00728196
0.00457854
0.00330639
0.00258047
0.00211327
0.00178187
0.00154674
0.00137249
0.00123146
0.00111529
0.00101835
0.000936108
0.000866698
0.000804298
0.000753566
0.000701008
0.063054
0.0237783
0.0122894
0.00788814
0.00573397
0.00448496
0.0036744
0.00310418
0.00268715
0.00236995
0.0021179
0.00191315
0.00174401
0.00160222
0.00148243
0.00137861
0.00129107
0.00120453
0.074932
0.0328517
0.0181452
0.0119262
0.00874549
0.00686412
0.00563086
0.00476129
0.00411867
0.0036257
0.00323515
0.00291874
0.002658
0.00244005
0.00225597
0.00209833
0.00196335
0.00183981
0.0849536
0.0420208
0.0246655
0.0166359
0.0123325
0.00972587
0.0079954
0.00676739
0.00585402
0.00515004
0.0045919
0.00413983
0.00376742
0.00345635
0.00319352
0.00296907
0.00277613
0.00260657
0.0933822
0.0510219
0.0316642
0.0219415
0.016474
0.0130717
0.0107779
0.00913539
0.00790597
0.00695436
0.00619832
0.00558532
0.00508009
0.00465802
0.00430137
0.00399702
0.00373534
0.00350913
0.0993794
0.0583363
0.0378386
0.0268568
0.0204171
0.0163053
0.0134892
0.011453
0.00991905
0.0087267
0.00777696
0.00700569
0.00636943
0.00583762
0.00538816
0.00500468
0.00467516
0.00439182
0.104023
0.0645454
0.0433804
0.0314239
0.0241571
0.0194092
0.0161097
0.0137018
0.0118767
0.0104523
0.00931473
0.0083894
0.00762524
0.00698615
0.00644586
0.00598491
0.00558899
0.00524916
0.108368
0.0708939
0.0493757
0.0365496
0.0284517
0.0230231
0.0191863
0.0163548
0.0141927
0.0124969
0.0111382
0.0100305
0.00911456
0.00834784
0.00769937
0.00714607
0.00667097
0.00626328
0.112368
0.0772557
0.0557282
0.0421918
0.0332976
0.0271652
0.0227468
0.0194433
0.0168984
0.0148904
0.013275
0.0119546
0.0108606
0.00994396
0.00916816
0.00850607
0.00793759
0.0074494
0.115994
0.0834975
0.0623054
0.0482611
0.0386474
0.0318167
0.026789
0.0229739
0.0200047
0.0176453
0.0157379
0.0141737
0.012875
0.0117851
0.010862
0.0100738
0.0093969
0.00881485
0.119234
0.0894856
0.0689377
0.0546109
0.0443919
0.0369007
0.0312597
0.0269089
0.0234837
0.02074
0.0185097
0.0166735
0.015145
0.0138601
0.0127705
0.0118397
0.0110398
0.010351
0.122086
0.095084
0.075415
0.0610223
0.0503361
0.0422535
0.0360231
0.0311353
0.0272402
0.0240931
0.0215191
0.0193909
0.0176141
0.0161175
0.0148467
0.0137601
0.0128258
0.0120198
0.124546
0.100135
0.0814619
0.0671726
0.056158
0.047577
0.0408126
0.0354174
0.031066
0.0275197
0.0246013
0.0221778
0.0201482
0.018435
0.0169783
0.0157315
0.0146584
0.0137312
0.126578
0.104396
0.0866605
0.0725515
0.0613228
0.0523526
0.0451453
0.0393148
0.0345631
0.0306611
0.0274325
0.024741
0.0224806
0.020569
0.0189413
0.0175468
0.0163455
0.0153062
0.128011
0.107322
0.0902141
0.0762353
0.0648743
0.0556509
0.0481493
0.0420254
0.0370012
0.0328553
0.0294126
0.0265352
0.0241143
0.0220643
0.0203171
0.0188191
0.0175275
0.0164083
0.128006
0.107313
0.0902048
0.0762269
0.0648674
0.0556454
0.048145
0.0420221
0.0369988
0.0328537
0.0294117
0.0265349
0.0241147
0.0220651
0.0203184
0.0188205
0.0175286
0.0164082
0.126509
0.104255
0.0864922
0.0723807
0.0611613
0.052205
0.0450128
0.0391967
0.0344584
0.0305685
0.0273506
0.0246684
0.0224163
0.0205118
0.0188902
0.0175006
0.0163023
0.015263
0.124267
0.0995604
0.0807712
0.0664676
0.0554886
0.0469631
0.0402594
0.0349228
0.0306248
0.0271258
0.0242487
0.0218611
0.0198625
0.0181762
0.0167425
0.0155151
0.0144574
0.0135404
0.12136
0.0936399
0.0737261
0.0593348
0.0487592
0.0408248
0.0347467
0.0300003
0.0262308
0.0231928
0.0207127
0.018665
0.0169572
0.0155197
0.0142998
0.0132566
0.0123582
0.0115797
0.117686
0.0865903
0.0656967
0.0514791
0.0415374
0.0343608
0.0290183
0.0249322
0.0217348
0.0191848
0.0171184
0.0154211
0.0140105
0.0128262
0.0118228
0.0109656
0.0102279
0.00958885
0.11305
0.0784122
0.056921
0.0432687
0.0342296
0.0279652
0.0234365
0.0200435
0.0174263
0.0153598
0.0136967
0.012337
0.0112107
0.0102671
0.00946865
0.00878716
0.00820096
0.00769339
0.107169
0.0691009
0.0476371
0.035029
0.0271566
0.021922
0.0182437
0.0155401
0.0134818
0.0118708
0.0105819
0.00953233
0.00866517
0.0079399
0.00732685
0.00680389
0.00635418
0.00596494
0.0996761
0.0587036
0.0381279
0.0270699
0.0205782
0.0164329
0.0135949
0.0115437
0.00999935
0.00879954
0.00784424
0.00706856
0.00642884
0.00589443
0.00544293
0.00505791
0.00472682
0.00444035
0.0901097
0.0473665
0.0287363
0.0196847
0.0146976
0.0116311
0.00957849
0.0081152
0.0070235
0.00618081
0.00551237
0.00497029
0.00452348
0.00415046
0.00383511
0.00356628
0.00333502
0.00313488
0.0779076
0.0353826
0.0198606
0.0131383
0.00966105
0.00759295
0.00623348
0.00527409
0.00456424
0.00402037
0.00359043
0.00324087
0.00295212
0.00271109
0.00250635
0.0023321
0.00218208
0.00205164
0.06238
0.0232554
0.0119461
0.00765493
0.00556336
0.00435253
0.00356719
0.00301614
0.00261329
0.00231034
0.00207204
0.00187476
0.0017102
0.00157288
0.00145382
0.00135289
0.00126634
0.00118879
0.0426105
0.0117794
0.0054693
0.00341385
0.0024607
0.00192004
0.00157265
0.00132941
0.00115828
0.0010412
0.000949581
0.000864974
0.000792242
0.000729814
0.000672627
0.000620353
0.000581859
0.0005443
0.0168348
0.00255985
0.00110002
0.000683429
0.000493725
0.00038681
0.000318007
0.000268387
0.000267467
0.000335943
0.000374803
0.000353491
0.000322219
0.000283671
0.000268817
0.000219613
0.00025874
0.000256048
5.28792e-10
1.01547e-07
1.14774e-06
5.16854e-06
9.86043e-06
1.28023e-05
1.31248e-05
1.11692e-05
8.84763e-06
5.7683e-06
3.39713e-06
1.93935e-06
1.35875e-06
1.47341e-06
2.01117e-06
2.48085e-06
2.41332e-06
1.6349e-06
7.30597e-07
3.7063e-07
4.11479e-07
1.22132e-06
5.52403e-06
2.83946e-05
5.71817e-05
7.50034e-05
9.13916e-05
0.000105186
0.000117326
0.00012744
0.000136298
0.000143911
0.000150572
0.000156373
0.000161436
0.000165905
0.000169866
0.000173405
0.000176578
0.000179429
0.000181987
0.000184275
0.000186309
0.000188108
0.000189685
0.000191052
0.00019222
0.000193195
0.000193977
0.00019456
0.000194822
0.000195072
0.00019512
0.000194992
0.000194692
0.000194245
0.000193645
0.000192897
0.000192002
0.000190963
0.000189781
0.000188458
0.000186997
0.0001854
0.000183671
0.00018181
0.000179819
0.0001777
0.000175457
0.00017309
0.000170603
0.000167997
0.000165274
0.000162436
0.000159483
0.000156417
0.000153238
0.000149946
0.000146542
0.000143023
0.000139388
0.000135633
0.000131754
0.000127745
0.000123596
0.000119296
0.000114833
0.000110189
0.000105346
0.000100282
9.49687e-05
8.93826e-05
8.35176e-05
7.7442e-05
7.14358e-05
6.61745e-05
6.24462e-05
6.01226e-05
5.83753e-05
5.67705e-05
5.51945e-05
5.36261e-05
5.2064e-05
5.05097e-05
4.89652e-05
4.74324e-05
4.5914e-05
4.44163e-05
4.2968e-05
4.17356e-05
4.05312e-05
3.93417e-05
3.81693e-05
3.70149e-05
3.58792e-05
3.47632e-05
3.36674e-05
3.25929e-05
3.15399e-05
3.05091e-05
2.95008e-05
2.85155e-05
2.75538e-05
2.66162e-05
2.57027e-05
2.4813e-05
2.39486e-05
2.31398e-05
2.24058e-05
2.16905e-05
2.09897e-05
2.03123e-05
1.96628e-05
1.90275e-05
1.84066e-05
1.7803e-05
1.72173e-05
1.66498e-05
1.61003e-05
1.55687e-05
1.50542e-05
1.45568e-05
1.40756e-05
1.36106e-05
1.31609e-05
1.27265e-05
1.23066e-05
1.19011e-05
1.15095e-05
1.11314e-05
1.07666e-05
1.04148e-05
1.00755e-05
9.74844e-06
9.43329e-06
9.12982e-06
8.83766e-06
8.55665e-06
8.2865e-06
8.02704e-06
7.77805e-06
7.53938e-06
7.31084e-06
7.09224e-06
6.8834e-06
6.68404e-06
6.49386e-06
6.3124e-06
6.13914e-06
5.97332e-06
5.81402e-06
5.66014e-06
5.50962e-06
5.36235e-06
5.20896e-06
5.06512e-06
4.86178e-06
4.71964e-06
4.30542e-06
3.68233e-06
3.34214e-09
6.03711e-06
6.1562e-05
0.000137849
0.000181885
0.000205996
0.00021552
0.000214022
0.000205547
0.000188721
0.000167813
0.000147708
0.000137592
0.000143069
0.000156911
0.000165318
0.000167423
0.000168284
0.00017376
0.000183528
0.000199761
0.000218063
0.000235162
0.000251139
0.000262453
0.000272238
0.000281084
0.000294264
0.000313155
0.00032706
0.000339734
0.000350619
0.000360522
0.000369577
0.000377451
0.000384643
0.000391343
0.000397774
0.000404065
0.000410281
0.000416416
0.000422428
0.000428264
0.000433882
0.000439256
0.000444368
0.000449204
0.00045375
0.000458009
0.000461987
0.000465692
0.000469146
0.000472338
0.000475278
0.000477968
0.000480409
0.000482601
0.000484545
0.000486242
0.000487692
0.000488895
0.000489853
0.000490568
0.000491044
0.000491291
0.000491316
0.00049111
0.000490673
0.000490019
0.000489152
0.000488079
0.000486806
0.00048534
0.000483687
0.000481855
0.00047985
0.000477681
0.000475355
0.000472879
0.000470261
0.00046751
0.000464633
0.000461637
0.000458531
0.000455323
0.00045202
0.000448631
0.000445164
0.000441626
0.000438027
0.000434373
0.000430669
0.000426915
0.000423104
0.000419215
0.000415224
0.000411113
0.000406911
0.00040267
0.000398413
0.000394148
0.000389879
0.000385609
0.000381342
0.00037708
0.000372829
0.000368589
0.000364364
0.000360153
0.000355955
0.000351779
0.000347631
0.000343513
0.000339425
0.00033537
0.00033135
0.000327366
0.00032342
0.000319513
0.000315645
0.000311818
0.000308034
0.000304292
0.000300594
0.000296941
0.000293333
0.00028977
0.000286249
0.00028277
0.000279336
0.000275945
0.000272604
0.000269317
0.000266066
0.000262852
0.00025968
0.000256552
0.000253469
0.00025043
0.000247437
0.000244489
0.000241584
0.000238723
0.000235904
0.000233126
0.00023039
0.000227693
0.000225037
0.000222419
0.000219842
0.000217303
0.000214803
0.000212342
0.000209919
0.000207536
0.000205191
0.000202886
0.000200621
0.000198396
0.000196214
0.000194074
0.000191981
0.000189933
0.000187935
0.000185986
0.00018409
0.000182247
0.000180458
0.000178721
0.000177036
0.000175397
0.000173804
0.000172236
0.000170725
0.000169135
0.000167796
0.000165749
0.000165162
0.000162119
0.000160625
7.63259e-08
3.9844e-05
0.0001629
0.000245615
0.000298879
0.000329072
0.00033996
0.000336944
0.00032395
0.000304607
0.000284908
0.000272511
0.000270562
0.000277539
0.000288081
0.000299118
0.000312178
0.000329338
0.000350989
0.000376351
0.000403782
0.000431996
0.000471291
0.000517468
0.000563064
0.000607141
0.000650198
0.000693844
0.000732906
0.000763979
0.000788813
0.000808506
0.000824122
0.000836517
0.000846471
0.000854756
0.000862068
0.000869049
0.000876231
0.000883967
0.000892358
0.000901281
0.000910497
0.000919769
0.000928922
0.000937835
0.000946434
0.000954672
0.00096251
0.000969922
0.000976881
0.000983366
0.000989367
0.000994879
0.000999902
0.00100443
0.00100847
0.00101202
0.00101507
0.00101763
0.0010197
0.00102127
0.00102235
0.0010229
0.00102305
0.00102277
0.00102197
0.00102073
0.00101904
0.00101692
0.00101438
0.00101143
0.0010081
0.00100438
0.0010003
0.000995864
0.000991095
0.000986006
0.000980611
0.000974925
0.000968964
0.000962742
0.000956276
0.000949579
0.000942667
0.000935554
0.000928256
0.000920787
0.00091316
0.000905388
0.000897484
0.000889459
0.000881323
0.000873082
0.000864747
0.000856326
0.000847832
0.00083928
0.000830687
0.000822067
0.00081343
0.000804785
0.000796139
0.000787501
0.000778878
0.000770276
0.000761703
0.000753163
0.000744663
0.000736209
0.000727805
0.000719457
0.00071117
0.000702948
0.000694795
0.000686713
0.000678706
0.000670777
0.000662928
0.000655162
0.000647481
0.000639886
0.00063238
0.000624965
0.000617641
0.000610409
0.000603269
0.000596223
0.00058927
0.000582412
0.000575648
0.000568978
0.000562402
0.000555914
0.000549512
0.000543201
0.00053698
0.00053085
0.000524812
0.000518866
0.000513011
0.000507245
0.000501567
0.000495977
0.000490472
0.000485051
0.000479714
0.000474458
0.000469283
0.000464188
0.000459172
0.000454234
0.000449374
0.000444589
0.000439879
0.000435243
0.000430679
0.000426186
0.000421764
0.000417411
0.000413125
0.000408905
0.000404748
0.000400654
0.000396619
0.00039264
0.000388713
0.000384832
0.000380991
0.000377182
0.000373391
0.000369606
0.000365799
0.00036196
0.00035799
0.000353986
0.000349451
0.000345201
0.000338656
0.000326938
6.16221e-07
8.21579e-05
0.000213011
0.00030883
0.000372263
0.000409343
0.000424629
0.000424846
0.00041475
0.000401424
0.000393593
0.000393027
0.000402627
0.000420123
0.000443114
0.000471098
0.000504657
0.000544066
0.000588489
0.000652292
0.000726399
0.00080636
0.000890232
0.000960492
0.00102266
0.00107855
0.00112876
0.00117347
0.00121255
0.00124628
0.0012754
0.00130063
0.00132268
0.00134217
0.00135967
0.00137566
0.00139057
0.00140473
0.00141838
0.00143173
0.00144489
0.00145794
0.0014709
0.00148375
0.00149645
0.0015089
0.00152103
0.00153273
0.00154392
0.00155451
0.00156446
0.00157373
0.0015823
0.00159016
0.00159729
0.0016037
0.00160937
0.0016143
0.0016185
0.00162196
0.00162468
0.00162666
0.00162781
0.00162825
0.00162812
0.0016272
0.00162558
0.00162325
0.00162025
0.00161659
0.00161229
0.00160737
0.00160185
0.00159575
0.00158909
0.00158189
0.00157418
0.00156598
0.00155731
0.0015482
0.00153867
0.00152874
0.00151844
0.00150778
0.00149679
0.0014855
0.00147392
0.00146208
0.00145001
0.0014377
0.0014252
0.00141252
0.00139967
0.00138667
0.00137353
0.00136028
0.00134693
0.0013335
0.00132001
0.00130648
0.00129291
0.00127934
0.00126577
0.00125221
0.00123867
0.00122517
0.00121171
0.00119831
0.00118497
0.0011717
0.00115851
0.00114541
0.00113241
0.0011195
0.0011067
0.00109402
0.00108144
0.001069
0.00105667
0.00104447
0.00103241
0.00102048
0.00100869
0.000997034
0.000985522
0.000974153
0.000962928
0.000951847
0.000940912
0.000930123
0.00091948
0.000908984
0.00089863
0.000888417
0.000878342
0.000868407
0.000858613
0.000848961
0.00083945
0.000830079
0.000820848
0.000811756
0.000802799
0.000793977
0.000785288
0.000776729
0.000768299
0.000759996
0.000751818
0.000743764
0.000735832
0.000728021
0.000720328
0.000712752
0.00070529
0.000697942
0.000690705
0.000683577
0.000676556
0.00066964
0.000662827
0.000656113
0.000649496
0.000642973
0.000636539
0.000630189
0.000623918
0.000617717
0.000611578
0.000605487
0.000599428
0.000593381
0.000587314
0.000581194
0.000574946
0.000568547
0.000561715
0.000554712
0.000546261
0.000530006
1.39952e-06
0.000101863
0.000234923
0.000354656
0.000433282
0.000480499
0.000503932
0.000512335
0.00051397
0.000515196
0.000522451
0.000539027
0.000565497
0.00060087
0.000644378
0.000696064
0.000756732
0.000840633
0.00093671
0.00103246
0.00112123
0.00120539
0.00128447
0.00135691
0.00142345
0.00148466
0.00154095
0.00159264
0.0016401
0.00168375
0.00172408
0.00176156
0.00179663
0.00182966
0.00186095
0.00189076
0.00191928
0.00194664
0.00197295
0.00199827
0.00202262
0.00204601
0.00206845
0.00208991
0.00211036
0.00212979
0.00214815
0.00216543
0.00218158
0.0021966
0.00221046
0.00222319
0.00223478
0.00224525
0.00225461
0.0022629
0.00227011
0.00227627
0.0022814
0.0022855
0.00228859
0.00229064
0.00229155
0.00229164
0.00229076
0.00228888
0.00228604
0.00228227
0.00227758
0.00227199
0.00226554
0.00225825
0.00225015
0.00224127
0.00223164
0.00222128
0.00221023
0.00219853
0.00218619
0.00217326
0.00215976
0.00214573
0.00213119
0.00211618
0.00210072
0.00208485
0.00206861
0.00205201
0.00203508
0.00201787
0.00200038
0.00198265
0.00196471
0.00194657
0.00192826
0.0019098
0.00189122
0.00187254
0.00185379
0.00183497
0.00181613
0.00179727
0.00177841
0.00175957
0.00174077
0.00172202
0.00170333
0.00168472
0.0016662
0.00164778
0.00162947
0.00161128
0.00159322
0.0015753
0.00155753
0.00153991
0.00152246
0.00150516
0.00148804
0.0014711
0.00145434
0.00143776
0.00142137
0.00140518
0.00138917
0.00137336
0.00135775
0.00134233
0.00132712
0.0013121
0.00129729
0.00128267
0.00126825
0.00125402
0.00123999
0.00122615
0.0012125
0.00119904
0.00118578
0.00117271
0.00115983
0.00114713
0.00113462
0.0011223
0.00111015
0.00109818
0.00108639
0.00107477
0.00106332
0.00105204
0.00104093
0.00102998
0.00101919
0.00100856
0.000998078
0.000987754
0.00097758
0.000967553
0.000957671
0.000947931
0.000938329
0.000928862
0.000919526
0.000910316
0.000901228
0.000892254
0.000883388
0.000874621
0.000865939
0.00085733
0.000848774
0.000840245
0.00083171
0.000823125
0.000814421
0.000805537
0.000796269
0.000786652
0.000776485
0.000756708
2.32579e-06
0.000118224
0.000256257
0.000389868
0.000486684
0.000548387
0.000586138
0.000609629
0.000627566
0.000647206
0.000673751
0.000709789
0.000756021
0.000812716
0.00088042
0.000971342
0.00107675
0.0011784
0.00127749
0.00137276
0.00146323
0.00154901
0.00163004
0.0017063
0.00177808
0.00184573
0.0019096
0.00197001
0.00202731
0.00208182
0.00213385
0.0021837
0.00223162
0.00227781
0.00232243
0.00236561
0.00240742
0.00244793
0.00248716
0.00252512
0.00256181
0.00259721
0.00263129
0.00266401
0.00269534
0.00272523
0.00275365
0.00278055
0.0028059
0.00282967
0.00285182
0.00287234
0.0028912
0.00290841
0.00292394
0.00293781
0.00295
0.00296054
0.00296944
0.0029767
0.00298236
0.00298643
0.00298886
0.00298976
0.00298929
0.00298732
0.00298398
0.00297927
0.00297327
0.00296601
0.00295756
0.00294797
0.00293728
0.00292555
0.00291282
0.00289916
0.00288459
0.00286917
0.00285294
0.00283595
0.00281823
0.00279984
0.0027808
0.00276116
0.00274097
0.00272026
0.00269907
0.00267744
0.0026554
0.002633
0.00261027
0.00258724
0.00256394
0.00254041
0.00251667
0.00249276
0.0024687
0.00244453
0.00242027
0.00239594
0.00237158
0.00234721
0.00232284
0.00229851
0.00227422
0.00225001
0.00222587
0.00220184
0.00217793
0.00215415
0.00213051
0.00210703
0.00208372
0.00206058
0.00203764
0.00201489
0.00199235
0.00197002
0.00194792
0.00192603
0.00190438
0.00188297
0.00186179
0.00184086
0.00182017
0.00179973
0.00177954
0.00175961
0.00173992
0.00172049
0.00170132
0.00168239
0.00166372
0.00164529
0.00162711
0.00160917
0.00159148
0.00157403
0.00155683
0.00153987
0.00152315
0.00150666
0.00149041
0.00147439
0.0014586
0.00144303
0.00142768
0.00141255
0.00139764
0.00138294
0.00136844
0.00135415
0.00134007
0.00132618
0.00131249
0.00129899
0.00128568
0.00127256
0.00125961
0.00124685
0.00123425
0.00122183
0.00120958
0.00119748
0.00118554
0.00117374
0.00116208
0.00115055
0.00113914
0.00112782
0.00111658
0.0011054
0.00109422
0.00108302
0.00107171
0.00106024
0.00104841
0.00103625
0.00102397
0.00100152
2.79438e-06
0.000126784
0.000269164
0.000407462
0.000526046
0.000607444
0.000663619
0.000705728
0.000743018
0.000782731
0.000829885
0.000887382
0.000956948
0.00104971
0.001157
0.00126363
0.0013697
0.00147295
0.00157287
0.00166904
0.00176125
0.0018495
0.00193389
0.00201458
0.00209182
0.00216587
0.00223703
0.00230554
0.00237168
0.00243566
0.0024977
0.00255799
0.00261666
0.00267383
0.00272959
0.00278399
0.00283706
0.00288883
0.00293927
0.00298838
0.00303613
0.00308246
0.00312735
0.00317075
0.00321259
0.00325283
0.00329141
0.00332828
0.0033634
0.00339671
0.00342817
0.00345775
0.0034854
0.0035111
0.00353482
0.00355654
0.00357625
0.00359393
0.00360958
0.0036232
0.0036348
0.00364438
0.00365196
0.00365758
0.00366123
0.00366285
0.00366276
0.00366077
0.003657
0.00365148
0.00364427
0.00363543
0.00362501
0.00361308
0.00359969
0.00358492
0.00356883
0.00355149
0.00353295
0.0035133
0.0034926
0.00347091
0.0034483
0.00342484
0.00340059
0.00337561
0.00334996
0.00332371
0.0032969
0.00326959
0.00324183
0.00321368
0.00318517
0.00315635
0.00312727
0.00309796
0.00306846
0.00303881
0.00300904
0.00297919
0.00294929
0.00291937
0.00288946
0.00285957
0.00282975
0.00280001
0.00277037
0.00274085
0.00271147
0.00268225
0.00265321
0.00262435
0.0025957
0.00256727
0.00253906
0.00251109
0.00248337
0.00245591
0.00242872
0.0024018
0.00237516
0.0023488
0.00232273
0.00229695
0.00227148
0.0022463
0.00222142
0.00219685
0.00217258
0.00214861
0.00212495
0.0021016
0.00207854
0.00205579
0.00203333
0.00201117
0.0019893
0.00196773
0.00194645
0.00192547
0.00190476
0.00188435
0.00186421
0.00184435
0.00182476
0.00180545
0.0017864
0.00176761
0.00174908
0.0017308
0.00171278
0.001695
0.00167747
0.00166017
0.00164311
0.00162628
0.00160968
0.0015933
0.00157713
0.00156119
0.00154545
0.00152992
0.00151459
0.00149945
0.0014845
0.00146973
0.00145513
0.00144069
0.0014264
0.00141223
0.00139817
0.00138418
0.00137024
0.00135629
0.00134226
0.00132809
0.00131361
0.00129888
0.00128382
0.00125958
2.93942e-06
0.000128665
0.000270492
0.000406976
0.000537577
0.000641156
0.00071846
0.000780054
0.000836118
0.000894364
0.000962805
0.00105543
0.0011656
0.00128713
0.00140264
0.00151384
0.00162157
0.00172602
0.00182713
0.00192485
0.00201919
0.00211024
0.00219815
0.0022831
0.00236533
0.00244504
0.00252247
0.00259782
0.00267129
0.00274305
0.00281323
0.00288197
0.00294933
0.0030154
0.00308021
0.00314378
0.00320611
0.00326719
0.00332698
0.00338545
0.00344254
0.00349821
0.00355239
0.00360502
0.00365603
0.00370537
0.00375296
0.00379874
0.00384265
0.00388463
0.00392463
0.00396259
0.00399847
0.00403222
0.00406382
0.00409321
0.00412039
0.00414532
0.00416799
0.00418839
0.00420651
0.00422236
0.00423594
0.00424727
0.00425636
0.00426323
0.00426795
0.00427041
0.00427084
0.00426919
0.00426552
0.00425988
0.00425231
0.00424288
0.00423165
0.00421868
0.00420403
0.00418777
0.00416997
0.00415071
0.00413004
0.00410805
0.0040848
0.00406037
0.00403483
0.00400825
0.0039807
0.00395226
0.00392299
0.00389296
0.00386223
0.00383087
0.00379893
0.00376649
0.00373359
0.00370029
0.00366665
0.00363272
0.00359854
0.00356416
0.00352963
0.003495
0.0034603
0.00342556
0.00339083
0.00335613
0.0033215
0.00328696
0.00325255
0.00321828
0.00318418
0.00315026
0.00311656
0.00308308
0.00304985
0.00301687
0.00298416
0.00295173
0.0029196
0.00288777
0.00285625
0.00282505
0.00279417
0.00276363
0.00273342
0.00270355
0.00267403
0.00264485
0.00261602
0.00258753
0.0025594
0.00253161
0.00250417
0.00247708
0.00245033
0.00242392
0.00239785
0.00237212
0.00234673
0.00232167
0.00229694
0.00227255
0.00224847
0.00222472
0.00220128
0.00217815
0.00215534
0.00213282
0.00211061
0.00208869
0.00206707
0.00204573
0.00202467
0.00200389
0.00198339
0.00196315
0.00194318
0.00192347
0.00190402
0.00188481
0.00186586
0.00184714
0.00182866
0.00181041
0.00179238
0.00177456
0.00175695
0.00173953
0.00172229
0.0017052
0.00168825
0.0016714
0.00165462
0.00163786
0.00162105
0.00160411
0.00158691
0.00156952
0.00155156
0.00152542
2.75527e-06
0.000125158
0.000263799
0.000395331
0.000519864
0.000632141
0.000726081
0.000807572
0.0008915
0.000987432
0.00109725
0.00122238
0.00135887
0.00148628
0.00160649
0.00172142
0.00183203
0.00193868
0.00204171
0.00214145
0.00223815
0.00233199
0.00242317
0.00251192
0.00259842
0.00268289
0.00276552
0.00284648
0.00292592
0.00300397
0.00308073
0.0031563
0.00323071
0.00330401
0.00337621
0.0034473
0.00351725
0.00358604
0.00365361
0.00371991
0.00378486
0.00384841
0.00391047
0.00397097
0.00402984
0.00408698
0.00414233
0.00419581
0.00424734
0.00429687
0.00434432
0.00438962
0.00443274
0.00447361
0.00451218
0.00454842
0.0045823
0.00461378
0.00464284
0.00466946
0.00469364
0.00471537
0.00473464
0.00475148
0.00476588
0.00477787
0.00478747
0.00479471
0.00479964
0.00480221
0.00480259
0.00480078
0.00479681
0.00479075
0.00478265
0.00477257
0.00476057
0.00474671
0.00473107
0.00471371
0.0046947
0.00467412
0.00465203
0.0046285
0.00460362
0.00457744
0.00455006
0.00452153
0.00449193
0.00446134
0.00442982
0.00439743
0.00436425
0.00433035
0.00429578
0.00426061
0.00422491
0.00418872
0.00415211
0.00411514
0.00407786
0.00404031
0.00400256
0.00396464
0.0039266
0.00388848
0.00385032
0.00381216
0.00377403
0.00373597
0.003698
0.00366016
0.00362247
0.00358496
0.00354765
0.00351056
0.0034737
0.00343711
0.00340079
0.00336476
0.00332903
0.00329361
0.00325852
0.00322376
0.00318934
0.00315528
0.00312156
0.00308821
0.00305522
0.0030226
0.00299036
0.00295848
0.00292697
0.00289584
0.00286508
0.00283469
0.00280466
0.00277501
0.00274573
0.00271681
0.00268826
0.00266007
0.00263223
0.00260475
0.00257762
0.00255083
0.00252439
0.00249829
0.00247252
0.00244708
0.00242197
0.00239718
0.0023727
0.00234854
0.00232469
0.00230114
0.00227788
0.00225493
0.00223226
0.00220988
0.00218778
0.00216595
0.00214439
0.00212309
0.00210205
0.00208125
0.00206068
0.00204034
0.0020202
0.00200025
0.00198046
0.0019608
0.00194124
0.00192171
0.00190215
0.0018825
0.00186261
0.00184254
0.00182179
0.00179345
2.33901e-06
0.000117866
0.000252632
0.000380645
0.000503522
0.000620026
0.000731018
0.000840504
0.00095591
0.00108228
0.00122077
0.00137083
0.00151304
0.00164492
0.00176908
0.00188741
0.00200103
0.00211057
0.00221642
0.0023188
0.00241809
0.00251468
0.00260887
0.00270093
0.00279107
0.0028795
0.0029664
0.00305193
0.00313623
0.0032194
0.00330152
0.00338266
0.00346284
0.00354209
0.00362038
0.0036977
0.00377401
0.00384925
0.00392336
0.00399626
0.00406788
0.00413812
0.00420691
0.00427414
0.00433973
0.00440359
0.00446563
0.00452576
0.0045839
0.00463997
0.0046939
0.00474561
0.00479504
0.00484213
0.00488683
0.0049291
0.00496888
0.00500615
0.00504088
0.00507305
0.00510265
0.00512966
0.00515408
0.00517591
0.00519517
0.00521188
0.00522604
0.0052377
0.00524687
0.00525359
0.00525791
0.00525985
0.00525951
0.0052569
0.00525208
0.00524512
0.00523607
0.00522499
0.00521195
0.00519701
0.00518025
0.00516173
0.00514153
0.00511971
0.00509635
0.00507152
0.0050453
0.00501776
0.00498896
0.00495899
0.0049279
0.00489578
0.00486269
0.00482869
0.00479386
0.00475826
0.00472195
0.004685
0.00464747
0.00460942
0.0045709
0.00453198
0.0044927
0.00445311
0.00441328
0.00437324
0.00433303
0.00429271
0.00425231
0.00421187
0.00417142
0.00413101
0.00409066
0.00405041
0.00401028
0.00397029
0.00393049
0.00389088
0.00385149
0.00381233
0.00377344
0.00373482
0.00369648
0.00365845
0.00362073
0.00358334
0.00354628
0.00350957
0.00347321
0.0034372
0.00340156
0.00336628
0.00333138
0.00329685
0.00326269
0.00322892
0.00319551
0.00316249
0.00312984
0.00309758
0.00306569
0.00303417
0.00300303
0.00297226
0.00294185
0.00291181
0.00288214
0.00285282
0.00282386
0.00279526
0.002767
0.00273908
0.00271151
0.00268427
0.00265736
0.00263079
0.00260453
0.0025786
0.00255298
0.00252768
0.00250267
0.00247797
0.00245357
0.00242945
0.00240561
0.00238205
0.00235874
0.00233568
0.00231285
0.00229024
0.0022678
0.00224552
0.00222336
0.00220125
0.00217913
0.00215693
0.00213452
0.00211194
0.00208864
0.00205797
1.92446e-06
0.000110211
0.000242402
0.000369696
0.00049543
0.000619933
0.00074512
0.00087487
0.00101263
0.00116035
0.00131818
0.00147981
0.00162744
0.00176376
0.00189176
0.00201342
0.00213001
0.00224236
0.00235099
0.0024563
0.00255859
0.00265805
0.00275513
0.00285017
0.00294346
0.00303525
0.00312573
0.00321506
0.00330337
0.00339076
0.00347732
0.00356307
0.00364805
0.00373225
0.00381565
0.00389821
0.00397987
0.00406058
0.00414024
0.00421877
0.00429608
0.00437207
0.00444663
0.00451967
0.00459107
0.00466075
0.00472859
0.0047945
0.00485839
0.00492017
0.00497976
0.00503707
0.00509204
0.00514461
0.0051947
0.00524228
0.00528729
0.0053297
0.00536948
0.00540659
0.00544103
0.00547277
0.00550183
0.00552818
0.00555186
0.00557286
0.00559121
0.00560693
0.00562006
0.00563061
0.00563864
0.00564419
0.0056473
0.00564802
0.00564642
0.00564254
0.00563645
0.0056282
0.00561787
0.0056055
0.00559118
0.00557497
0.00555693
0.00553716
0.0055157
0.00549264
0.00546805
0.00544201
0.00541457
0.00538582
0.00535583
0.00532466
0.00529238
0.00525907
0.00522478
0.00518959
0.00515357
0.00511676
0.00507925
0.00504108
0.00500233
0.00496304
0.00492327
0.00488308
0.00484252
0.00480163
0.00476048
0.00471909
0.00467752
0.00463581
0.00459399
0.00455211
0.00451021
0.00446831
0.00442644
0.00438465
0.00434296
0.00430139
0.00425997
0.00421872
0.00417767
0.00413684
0.00409624
0.00405589
0.00401581
0.00397602
0.00393651
0.00389732
0.00385844
0.00381989
0.00378168
0.00374381
0.00370628
0.00366912
0.00363231
0.00359586
0.00355978
0.00352407
0.00348873
0.00345376
0.00341916
0.00338493
0.00335108
0.0033176
0.00328448
0.00325174
0.00321936
0.00318735
0.00315571
0.00312442
0.00309349
0.00306291
0.00303269
0.00300281
0.00297328
0.00294409
0.00291524
0.00288673
0.00285854
0.00283068
0.00280314
0.00277593
0.00274902
0.00272242
0.00269612
0.00267011
0.00264437
0.00261891
0.0025937
0.00256871
0.00254393
0.00251932
0.00249484
0.00247044
0.00244605
0.00242159
0.00239697
0.00237216
0.00234665
0.00231383
1.53426e-06
0.000102063
0.000231946
0.000358923
0.000487631
0.000619014
0.000755732
0.000899702
0.00105259
0.00121493
0.00138721
0.00155299
0.00170461
0.00184479
0.00197628
0.00210106
0.00222046
0.00233542
0.0024466
0.00255449
0.00265947
0.00276186
0.00286191
0.00295983
0.00305604
0.00315082
0.00324441
0.003337
0.00342874
0.00351973
0.00361004
0.00369971
0.00378876
0.00387718
0.00396493
0.00405197
0.00413822
0.00422362
0.00430805
0.00439144
0.00447366
0.00455461
0.00463418
0.00471224
0.0047887
0.00486343
0.00493633
0.00500729
0.0050762
0.00514298
0.00520753
0.00526977
0.00532962
0.00538701
0.00544187
0.00549416
0.00554381
0.0055908
0.00563507
0.00567661
0.0057154
0.00575141
0.00578465
0.00581511
0.00584281
0.00586774
0.00588994
0.00590942
0.00592621
0.00594034
0.00595186
0.0059608
0.00596721
0.00597113
0.00597262
0.00597176
0.00596859
0.00596316
0.00595554
0.00594579
0.00593398
0.00592018
0.00590446
0.00588689
0.00586754
0.00584648
0.00582379
0.00579954
0.00577379
0.00574662
0.00571811
0.00568831
0.0056573
0.00562514
0.00559191
0.00555766
0.00552247
0.0054864
0.00544951
0.00541187
0.00537353
0.00533456
0.00529501
0.00525493
0.00521438
0.00517341
0.00513207
0.0050904
0.00504846
0.00500628
0.00496391
0.00492139
0.00487876
0.00483605
0.00479329