/*--------------------------------*- C++ -*----------------------------------*\
  =========                 |
  \\      /  F ield         | OpenFOAM: The Open Source CFD Toolbox
   \\    /   O peration     | Website:  https://openfoam.org
    \\  /    A nd           | Version:  8
     \\/     M anipulation  |
\*---------------------------------------------------------------------------*/
FoamFile
{
    version     2.0;
    format      ascii;
    class       volScalarField;
    location    "4800";
    object      nuTilda;
}
// * * * * * * * * * * * * * * * * * * * * * * * * * * * * * * * * * * * * * //

dimensions      [0 2 -1 0 0 0 0];

internalField   nonuniform List<scalar> 
12225
(
0.0122671
0.00158833
0.000666932
0.000412201
0.000298001
0.000234418
0.000192049
0.000186517
0.000141364
0.000110263
9.73199e-05
9.07189e-05
8.20027e-05
7.63417e-05
7.17067e-05
7.01719e-05
6.81327e-05
7.40045e-05
0.0323823
0.00744533
0.00330642
0.00204338
0.00146818
0.00114477
0.000936743
0.000800566
0.000680242
0.000578059
0.000507246
0.00045356
0.000411866
0.000380371
0.00035202
0.000329993
0.000313754
0.00029588
0.0490123
0.01515
0.00728196
0.00457856
0.00330642
0.00258059
0.00211241
0.00178924
0.00154196
0.00134781
0.00119795
0.00107898
0.000982388
0.000902873
0.000836437
0.000781445
0.000736159
0.000687884
0.063054
0.0237783
0.0122894
0.00788815
0.00573398
0.004485
0.00367415
0.00310736
0.00268476
0.00235811
0.00210119
0.00189468
0.00172542
0.00158464
0.0014663
0.00136623
0.00128167
0.00119814
0.074932
0.0328517
0.0181452
0.0119262
0.00874549
0.00686413
0.00563081
0.00476256
0.0041175
0.00362032
0.00322735
0.00290996
0.00264904
0.00243149
0.00224806
0.00209196
0.00195835
0.00183637
0.0849536
0.0420208
0.0246655
0.0166359
0.0123325
0.00972587
0.0079954
0.00676785
0.00585346
0.00514771
0.00458846
0.00413589
0.00376337
0.00345242
0.00318986
0.002966
0.00277364
0.00260477
0.0933822
0.0510219
0.0316642
0.0219415
0.016474
0.0130717
0.0107779
0.00913552
0.00790571
0.00695341
0.00619691
0.00558368
0.00507838
0.00465634
0.00429978
0.00399563
0.00373417
0.00350821
0.0993794
0.0583363
0.0378386
0.0268568
0.0204171
0.0163053
0.0134892
0.011453
0.00991891
0.00872629
0.00777635
0.00700498
0.00636867
0.00583686
0.00538741
0.00500399
0.00467453
0.00439128
0.104023
0.0645454
0.0433804
0.0314239
0.0241571
0.0194092
0.0161097
0.0137018
0.0118766
0.0104521
0.00931443
0.00838904
0.00762486
0.00698575
0.00644545
0.0059845
0.00558859
0.00524878
0.108368
0.0708939
0.0493756
0.0365496
0.0284517
0.0230231
0.0191863
0.0163547
0.0141926
0.0124968
0.011138
0.0100304
0.00911434
0.0083476
0.0076991
0.00714579
0.00667069
0.00626298
0.112368
0.0772557
0.0557282
0.0421918
0.0332976
0.0271652
0.0227467
0.0194432
0.0168984
0.0148903
0.0132749
0.0119544
0.0108605
0.00994379
0.00916797
0.00850586
0.00793736
0.00744915
0.115994
0.0834975
0.0623053
0.0482611
0.0386474
0.0318167
0.026789
0.0229739
0.0200046
0.0176452
0.0157378
0.0141736
0.0128749
0.011785
0.0108618
0.0100736
0.00939671
0.00881464
0.119234
0.0894856
0.0689377
0.0546109
0.0443919
0.0369007
0.0312597
0.0269088
0.0234836
0.02074
0.0185096
0.0166735
0.0151449
0.01386
0.0127704
0.0118396
0.0110397
0.0103508
0.122086
0.095084
0.075415
0.0610223
0.0503361
0.0422534
0.0360231
0.0311353
0.0272402
0.024093
0.021519
0.0193909
0.017614
0.0161174
0.0148466
0.01376
0.0128257
0.0120196
0.124546
0.100135
0.0814619
0.0671725
0.056158
0.047577
0.0408126
0.0354174
0.031066
0.0275196
0.0246012
0.0221777
0.0201481
0.0184349
0.0169782
0.0157314
0.0146583
0.0137311
0.126578
0.104396
0.0866605
0.0725515
0.0613228
0.0523526
0.0451453
0.0393148
0.0345631
0.0306611
0.0274325
0.0247409
0.0224806
0.020569
0.0189413
0.0175468
0.0163454
0.0153061
0.128011
0.107322
0.0902141
0.0762353
0.0648743
0.0556509
0.0481493
0.0420254
0.0370012
0.0328553
0.0294126
0.0265352
0.0241143
0.0220643
0.0203172
0.0188191
0.0175275
0.0164083
0.128006
0.107313
0.0902048
0.0762269
0.0648674
0.0556454
0.048145
0.0420222
0.0369988
0.0328537
0.0294117
0.0265349
0.0241147
0.0220652
0.0203185
0.0188206
0.0175287
0.0164083
0.126509
0.104255
0.0864922
0.0723807
0.0611613
0.052205
0.0450128
0.0391967
0.0344584
0.0305686
0.0273506
0.0246684
0.0224163
0.0205118
0.0188903
0.0175006
0.0163024
0.0152631
0.124267
0.0995604
0.0807712
0.0664676
0.0554886
0.0469631
0.0402594
0.0349228
0.0306248
0.0271258
0.0242488
0.0218611
0.0198626
0.0181762
0.0167426
0.0155152
0.0144575
0.0135405
0.12136
0.0936399
0.0737261
0.0593348
0.0487592
0.0408249
0.0347467
0.0300003
0.0262308
0.0231928
0.0207127
0.018665
0.0169572
0.0155198
0.0142999
0.0132567
0.0123583
0.0115798
0.117686
0.0865903
0.0656967
0.0514791
0.0415374
0.0343608
0.0290184
0.0249322
0.0217348
0.0191848
0.0171184
0.0154211
0.0140106
0.0128263
0.0118229
0.0109657
0.010228
0.00958895
0.11305
0.0784122
0.056921
0.0432687
0.0342296
0.0279652
0.0234365
0.0200435
0.0174263
0.0153597
0.0136966
0.0123369
0.0112106
0.0102671
0.00946866
0.00878719
0.00820102
0.00769347
0.107169
0.0691009
0.0476372
0.035029
0.0271566
0.021922
0.0182437
0.0155401
0.0134817
0.0118706
0.0105816
0.00953198
0.00866488
0.00793965
0.00732671
0.00680378
0.00635412
0.00596495
0.0996761
0.0587036
0.0381279
0.0270699
0.0205782
0.016433
0.0135949
0.0115438
0.00999923
0.00879909
0.00784342
0.00706756
0.00642794
0.00589354
0.00544235
0.00505737
0.00472638
0.00444013
0.0901097
0.0473665
0.0287363
0.0196847
0.0146976
0.0116312
0.00957853
0.00811529
0.00702332
0.00617995
0.00551059
0.00496792
0.00452125
0.00414798
0.0038335
0.00356469
0.00333345
0.00313391
0.0779076
0.0353826
0.0198606
0.0131383
0.00966107
0.00759298
0.00623353
0.00527431
0.00456401
0.00401884
0.00358703
0.00323602
0.00294756
0.00270531
0.00250294
0.00232861
0.00217798
0.00204899
0.06238
0.0232554
0.0119461
0.00765494
0.00556339
0.00435258
0.00356727
0.00301643
0.00261313
0.00230799
0.00206674
0.001867
0.00170321
0.00156266
0.00144888
0.00134779
0.00125931
0.00118383
0.0426105
0.0117794
0.00546931
0.00341388
0.00246077
0.00192015
0.0015729
0.00132905
0.0011597
0.00103885
0.00094457
0.000858163
0.000786195
0.00072144
0.000667015
0.000616966
0.00057792
0.00053339
0.0168348
0.0025599
0.00110031
0.000684192
0.000495179
0.000389151
0.00032166
0.000270752
0.0002809
0.000338969
0.000384516
0.000373912
0.000344024
0.000314315
0.000286158
0.000252613
0.000249679
0.000182558
3.78128e-06
1.43223e-05
2.60295e-05
3.85379e-05
4.60112e-05
4.96623e-05
5.01551e-05
4.78129e-05
4.46225e-05
3.95538e-05
3.42193e-05
2.94481e-05
2.67707e-05
2.74483e-05
2.96321e-05
3.14817e-05
3.13388e-05
2.85146e-05
2.38723e-05
2.02114e-05
2.08243e-05
2.64238e-05
3.93428e-05
6.39057e-05
8.72011e-05
0.000100613
0.000113335
0.000124344
0.000134329
0.000142832
0.000150424
0.000157043
0.000162904
0.000168059
0.000172591
0.000176617
0.000180204
0.000183423
0.00018632
0.000188931
0.000191281
0.000193387
0.000195264
0.000196927
0.000198387
0.000199655
0.00020074
0.000201649
0.000202381
0.000202805
0.000203296
0.00020338
0.000203439
0.000203323
0.000203046
0.000202632
0.000202076
0.000201383
0.000200555
0.000199594
0.000198501
0.00019728
0.000195933
0.000194464
0.000192874
0.000191167
0.000189343
0.000187407
0.000185361
0.000183208
0.000180951
0.000178592
0.000176132
0.000173573
0.000170917
0.00016817
0.000165339
0.000162438
0.000159486
0.000156501
0.000153475
0.000150353
0.000147031
0.000143401
0.000139482
0.000135544
0.000131996
0.000128889
0.00012552
0.000121107
0.000116092
0.000111816
0.000107934
0.000103037
9.8245e-05
9.4505e-05
9.15644e-05
8.98486e-05
8.85224e-05
8.73199e-05
8.61366e-05
8.49575e-05
8.37818e-05
8.26093e-05
8.14413e-05
8.02786e-05
7.91227e-05
7.79777e-05
7.68646e-05
7.59098e-05
7.49759e-05
7.4048e-05
7.31281e-05
7.22164e-05
7.13134e-05
7.04194e-05
6.95347e-05
6.86597e-05
6.77947e-05
6.69398e-05
6.60952e-05
6.52612e-05
6.44381e-05
6.36263e-05
6.28258e-05
6.20364e-05
6.12592e-05
6.05197e-05
5.98425e-05
5.91739e-05
5.85106e-05
5.78605e-05
5.72287e-05
5.6602e-05
5.59801e-05
5.53662e-05
5.47615e-05
5.41663e-05
5.35809e-05
5.3005e-05
5.24386e-05
5.18816e-05
5.13337e-05
5.07948e-05
5.02649e-05
4.97438e-05
4.92314e-05
4.87276e-05
4.82324e-05
4.77455e-05
4.72671e-05
4.6797e-05
4.63351e-05
4.58815e-05
4.54361e-05
4.49991e-05
4.45703e-05
4.415e-05
4.37383e-05
4.33353e-05
4.29412e-05
4.25562e-05
4.21806e-05
4.18146e-05
4.14585e-05
4.11122e-05
4.07759e-05
4.04494e-05
4.01319e-05
3.98231e-05
3.95208e-05
3.92252e-05
3.89275e-05
3.86408e-05
3.83119e-05
3.80562e-05
3.75485e-05
3.73537e-05
3.6303e-05
3.49088e-05
5.89802e-06
4.05886e-05
9.24657e-05
0.000153706
0.000192551
0.000214555
0.000223346
0.000221919
0.000214075
0.000198517
0.000179501
0.000161547
0.000152479
0.000157006
0.00016932
0.000177334
0.000179532
0.000180675
0.00018563
0.000194339
0.000208076
0.000224511
0.000240375
0.000256185
0.000267065
0.000276644
0.000285194
0.000297691
0.000316339
0.000330003
0.000342516
0.000353261
0.000363041
0.000372013
0.00037981
0.000386933
0.000393569
0.000399939
0.000406172
0.000412332
0.000418414
0.000424376
0.000430166
0.000435741
0.000441076
0.000446152
0.000450954
0.00045547
0.000459701
0.000463646
0.000467345
0.000470764
0.00047394
0.000476862
0.000479536
0.000481962
0.000484142
0.000486075
0.000487762
0.000489204
0.000490401
0.000491354
0.000492066
0.00049254
0.000492787
0.000492811
0.000492608
0.000492174
0.000491525
0.000490664
0.000489598
0.000488333
0.000486875
0.000485231
0.000483408
0.000481413
0.000479254
0.000476942
0.000474487
0.000471901
0.000469193
0.000466362
0.000463397
0.00046028
0.000457011
0.000453645
0.000450285
0.000446985
0.000443631
0.000440022
0.000436198
0.000432507
0.000428958
0.000425156
0.000421222
0.000417337
0.000413241
0.00040909
0.000404893
0.000400681
0.000396463
0.000392242
0.000388022
0.000383807
0.000379598
0.000375401
0.000371218
0.000367051
0.0003629
0.000358764
0.000354651
0.000350569
0.000346517
0.000342498
0.000338514
0.000334566
0.000330656
0.000326785
0.000322956
0.000319168
0.000315422
0.000311721
0.000308064
0.000304454
0.00030089
0.000297373
0.000293901
0.000290476
0.000287093
0.000283758
0.000280468
0.000277231
0.000274049
0.000270905
0.0002678
0.000264737
0.000261721
0.000258752
0.000255829
0.000252953
0.000250124
0.000247339
0.0002446
0.000241904
0.000239253
0.000236644
0.000234078
0.000231554
0.000229072
0.000226631
0.000224231
0.000221871
0.000219551
0.000217272
0.000215033
0.000212834
0.000210676
0.000208559
0.000206484
0.000204452
0.000202463
0.00020052
0.000198623
0.000196774
0.000194976
0.000193228
0.000191531
0.000189887
0.000188293
0.000186749
0.000185248
0.000183794
0.000182358
0.000180995
0.000179511
0.000178387
0.000176292
0.000175968
0.00017299
0.000172127
1.28767e-05
7.40665e-05
0.000174305
0.000251873
0.000303654
0.000333361
0.000344211
0.000341393
0.000328796
0.000309926
0.000290645
0.000278292
0.000276102
0.000282578
0.000292642
0.000303195
0.000315664
0.00033228
0.000353514
0.000378314
0.000405388
0.000433477
0.000471396
0.000517512
0.000562961
0.00060696
0.000649939
0.00069351
0.000732773
0.000764011
0.000788982
0.000808779
0.000824474
0.000836927
0.00084692
0.000855227
0.000862548
0.000869527
0.0008767
0.000884424
0.000892804
0.000901718
0.000910927
0.000920196
0.000929345
0.000938256
0.000946853
0.000955088
0.000962924
0.000970333
0.000977294
0.000983775
0.000989775
0.000995286
0.00100031
0.00100484
0.00100887
0.00101242
0.00101547
0.00101803
0.0010201
0.00102168
0.00102276
0.0010233
0.00102346
0.00102318
0.00102239
0.00102114
0.00101946
0.00101734
0.0010148
0.00101186
0.00100853
0.00100481
0.00100074
0.000996307
0.000991542
0.000986457
0.000981068
0.000975389
0.000969438
0.00096323
0.000956775
0.000950083
0.000943164
0.000936036
0.000928734
0.000921292
0.000913714
0.000905962
0.000898025
0.000889987
0.000881896
0.000873673
0.000865324
0.000856926
0.000848439
0.000839898
0.000831316
0.000822707
0.000814081
0.000805447
0.000796814
0.000788188
0.000779577
0.000770989
0.000762428
0.000753902
0.000745417
0.000736976
0.000728587
0.000720255
0.000711984
0.000703778
0.000695641
0.000687576
0.000679586
0.000671675
0.000663845
0.000656098
0.000648436
0.000640861
0.000633376
0.000625981
0.000618678
0.000611468
0.00060435
0.000597326
0.000590396
0.000583561
0.000576821
0.000570177
0.000563626
0.000557163
0.000550787
0.000544501
0.000538306
0.000532203
0.000526192
0.000520273
0.000514444
0.000508705
0.000503054
0.000497491
0.000492014
0.000486623
0.000481316
0.000476092
0.000470949
0.000465888
0.000460906
0.000456003
0.000451177
0.000446427
0.000441753
0.000437153
0.000432625
0.00042817
0.000423786
0.000419471
0.000415223
0.000411043
0.000406926
0.000402873
0.000398879
0.000394941
0.000391056
0.000387219
0.000383422
0.000379657
0.000375913
0.000372175
0.000368418
0.000364625
0.000360723
0.000356745
0.000352326
0.000348024
0.000341566
0.000330415
2.17715e-05
0.000106433
0.000220239
0.000312834
0.000375513
0.000412495
0.000427923
0.00042831
0.000418391
0.000405122
0.000397054
0.000396226
0.000405353
0.000422394
0.000444953
0.000472506
0.000505657
0.000544775
0.000589059
0.000651109
0.000724811
0.000804475
0.000888638
0.000959236
0.00102162
0.00107771
0.0011281
0.00117298
0.00121223
0.0012461
0.00127534
0.00130066
0.00132277
0.00134231
0.00135984
0.00137586
0.00139078
0.00140494
0.0014186
0.00143195
0.00144511
0.00145816
0.00147112
0.00148397
0.00149666
0.00150912
0.00152125
0.00153295
0.00154414
0.00155473
0.00156469
0.00157396
0.00158253
0.00159039
0.00159753
0.00160394
0.00160961
0.00161455
0.00161874
0.00162221
0.00162493
0.00162691
0.00162806
0.0016285
0.00162837
0.00162746
0.00162584
0.00162352
0.00162052
0.00161686
0.00161257
0.00160765
0.00160213
0.00159603
0.00158937
0.00158218
0.00157447
0.00156628
0.00155762
0.00154851
0.00153898
0.00152906
0.00151876
0.0015081
0.00149712
0.00148583
0.00147425
0.00146242
0.00145035
0.00143806
0.00142556
0.00141287
0.00140003
0.00138704
0.00137391
0.00136066
0.00134731
0.00133389
0.0013204
0.00130687
0.00129332
0.00127975
0.00126618
0.00125262
0.00123909
0.00122559
0.00121214
0.00119874
0.00118541
0.00117215
0.00115896
0.00114587
0.00113287
0.00111997
0.00110718
0.0010945
0.00108193
0.00106949
0.00105717
0.00104498
0.00103292
0.001021
0.00100922
0.00099757
0.000986066
0.000974705
0.000963487
0.000952414
0.000941487
0.000930706
0.000920071
0.000909583
0.000899238
0.000889033
0.000878966
0.000869039
0.000859253
0.000849608
0.000840103
0.00083074
0.000821515
0.000812428
0.000803478
0.000794662
0.00078598
0.000777428
0.000769007
0.000760713
0.000752544
0.000744501
0.000736579
0.000728778
0.000721096
0.000713531
0.000706081
0.000698744
0.000691519
0.000684403
0.000677394
0.000670491
0.00066369
0.000656989
0.000650386
0.000643877
0.000637457
0.000631122
0.000624866
0.000618681
0.000612557
0.000606483
0.000600441
0.000594412
0.000588365
0.000582263
0.000576043
0.000569648
0.000562897
0.000555736
0.000547516
0.000531419
2.6971e-05
0.000122011
0.000241113
0.000357833
0.000435854
0.000483016
0.000506516
0.000514941
0.000516507
0.00051749
0.000524335
0.000540421
0.00056637
0.000601231
0.000644231
0.000695394
0.000755366
0.000838668
0.000934243
0.00103039
0.00111935
0.0012037
0.00128302
0.0013557
0.00142244
0.00148384
0.00154029
0.00159214
0.00163973
0.00168349
0.00172392
0.00176148
0.00179661
0.00182968
0.00186102
0.00189086
0.0019194
0.00194678
0.00197311
0.00199843
0.00202279
0.00204619
0.00206864
0.0020901
0.00211057
0.00213
0.00214837
0.00216564
0.0021818
0.00219682
0.00221069
0.00222342
0.00223501
0.00224548
0.00225485
0.00226313
0.00227035
0.00227651
0.00228164
0.00228574
0.00228884
0.00229089
0.0022918
0.00229189
0.00229102
0.00228914
0.00228631
0.00228253
0.00227785
0.00227227
0.00226582
0.00225854
0.00225044
0.00224156
0.00223193
0.00222158
0.00221053
0.00219883
0.0021865
0.00217357
0.00216008
0.00214605
0.00213151
0.0021165
0.00210105
0.00208519
0.00206895
0.00205235
0.00203543
0.00201822
0.00200074
0.00198301
0.00196507
0.00194694
0.00192863
0.00191017
0.0018916
0.00187292
0.00185416
0.00183535
0.00181651
0.00179765
0.0017788
0.00175996
0.00174117
0.00172242
0.00170373
0.00168512
0.0016666
0.00164818
0.00162988
0.00161169
0.00159363
0.00157572
0.00155795
0.00154033
0.00152288
0.00150559
0.00148847
0.00147153
0.00145477
0.0014382
0.00142181
0.00140562
0.00138962
0.00137381
0.0013582
0.00134279
0.00132758
0.00131256
0.00129775
0.00128313
0.00126872
0.00125449
0.00124046
0.00122662
0.00121297
0.00119951
0.00118625
0.00117318
0.00116029
0.00114759
0.00113508
0.00112276
0.00111061
0.00109864
0.00108685
0.00107523
0.00106378
0.0010525
0.00104139
0.00103044
0.00101965
0.00100902
0.000998542
0.00098822
0.000978049
0.000968025
0.000958146
0.000948409
0.000938811
0.000929348
0.000920015
0.00091081
0.000901726
0.000892758
0.000883898
0.000875136
0.000866461
0.000857859
0.00084931
0.00084079
0.000832264
0.000823689
0.000814997
0.000806118
0.000796887
0.000787157
0.000777202
0.000757417
3.07978e-05
0.000135318
0.000261503
0.000392464
0.000488737
0.000550341
0.00058806
0.000611447
0.000629153
0.000648426
0.000674505
0.000710042
0.000755776
0.000811988
0.000879086
0.000969508
0.00107457
0.00117624
0.00127542
0.0013709
0.00146158
0.00154756
0.00162879
0.00170523
0.00177718
0.00184499
0.001909
0.00196955
0.00202696
0.00208156
0.00213368
0.0021836
0.00223158
0.00227783
0.00232249
0.0023657
0.00240755
0.00244808
0.00248734
0.00252533
0.00256203
0.00259745
0.00263154
0.00266427
0.00269561
0.00272552
0.00275394
0.00278085
0.00280621
0.00282998
0.00285213
0.00287265
0.00289152
0.00290872
0.00292426
0.00293812
0.00295032
0.00296086
0.00296975
0.00297702
0.00298267
0.00298675
0.00298918
0.00299008
0.00298962
0.00298765
0.0029843
0.0029796
0.0029736
0.00296635
0.0029579
0.00294831
0.00293762
0.0029259
0.00291318
0.00289951
0.00288495
0.00286954
0.00285331
0.00283632
0.00281861
0.00280022
0.00278119
0.00276155
0.00274137
0.00272066
0.00269947
0.00267784
0.00265581
0.00263341
0.00261068
0.00258765
0.00256436
0.00254083
0.0025171
0.00249319
0.00246913
0.00244496
0.0024207
0.00239638
0.00237202
0.00234765
0.00232328
0.00229895
0.00227467
0.00225045
0.00222632
0.00220229
0.00217838
0.00215459
0.00213096
0.00210748
0.00208417
0.00206103
0.00203809
0.00201535
0.00199281
0.00197048
0.00194837
0.00192649
0.00190484
0.00188343
0.00186225
0.00184132
0.00182063
0.0018002
0.00178001
0.00176007
0.00174039
0.00172096
0.00170178
0.00168285
0.00166418
0.00164575
0.00162756
0.00160962
0.00159193
0.00157448
0.00155727
0.0015403
0.00152357
0.00150708
0.00149082
0.00147479
0.00145899
0.00144342
0.00142806
0.00141293
0.00139801
0.0013833
0.00136881
0.00135452
0.00134043
0.00132654
0.00131284
0.00129934
0.00128603
0.0012729
0.00125995
0.00124719
0.00123459
0.00122217
0.00120991
0.00119782
0.00118588
0.00117408
0.00116242
0.00115089
0.00113948
0.00112817
0.00111693
0.00110575
0.00109458
0.00108338
0.00107208
0.00106061
0.00104881
0.0010366
0.00102442
0.00100196
3.23479e-05
0.0001425
0.000273967
0.000409847
0.000527785
0.000609003
0.000665054
0.000706971
0.000743961
0.00078327
0.00082995
0.000886949
0.000955894
0.00104816
0.0011551
0.00126167
0.00136774
0.00147108
0.00157114
0.00166748
0.00175986
0.00184829
0.00193284
0.00201369
0.00209108
0.00216527
0.00223654
0.00230517
0.0023714
0.00243547
0.0024976
0.00255795
0.00261668
0.00267391
0.00272971
0.00278416
0.00283727
0.00288907
0.00293955
0.00298868
0.00303645
0.00308281
0.00312772
0.00317113
0.00321298
0.00325323
0.00329182
0.00332871
0.00336383
0.00339715
0.00342861
0.00345819
0.00348584
0.00351155
0.00353527
0.00355699
0.0035767
0.00359438
0.00361004
0.00362366
0.00363526
0.00364484
0.00365241
0.00365803
0.00366168
0.0036633
0.00366322
0.00366123
0.00365745
0.00365194
0.00364473
0.00363589
0.00362547
0.00361354
0.00360016
0.00358539
0.0035693
0.00355196
0.00353343
0.00351378
0.00349308
0.00347139
0.00344879
0.00342533
0.00340108
0.0033761
0.00335046
0.00332421
0.0032974
0.00327009
0.00324234
0.00321419
0.00318568
0.00315687
0.00312779
0.00309848
0.00306898
0.00303933
0.00300956
0.00297971
0.00294981
0.00291989
0.00288998
0.0028601
0.00283028
0.00280053
0.00277089
0.00274137
0.002712
0.00268278
0.00265373
0.00262488
0.00259623
0.00256779
0.00253959
0.00251162
0.0024839
0.00245644
0.00242925
0.00240233
0.00237569
0.00234933
0.00232326
0.00229748
0.002272
0.00224682
0.00222195
0.00219737
0.0021731
0.00214913
0.00212547
0.00210211
0.00207905
0.00205629
0.00203383
0.00201166
0.00198979
0.00196821
0.00194692
0.00192592
0.00190521
0.00188478
0.00186463
0.00184476
0.00182516
0.00180584
0.00178678
0.00176798
0.00174944
0.00173116
0.00171313
0.00169534
0.0016778
0.0016605
0.00164343
0.00162659
0.00160999
0.0015936
0.00157743
0.00156148
0.00154574
0.00153021
0.00151487
0.00149973
0.00148478
0.00147001
0.00145541
0.00144097
0.00142667
0.0014125
0.00139844
0.00138446
0.00137052
0.00135657
0.00134255
0.00132839
0.00131391
0.00129916
0.00128416
0.00125992
3.27957e-05
0.000144125
0.000275311
0.000409431
0.000539337
0.000642644
0.000719734
0.000781084
0.000836814
0.000894608
0.000962154
0.00105406
0.00116364
0.00128532
0.00140087
0.00151212
0.00161993
0.00172449
0.00182573
0.0019236
0.00201808
0.00210928
0.00219733
0.00228242
0.00236477
0.0024446
0.00252213
0.00259759
0.00267115
0.00274299
0.00281325
0.00288204
0.00294947
0.0030156
0.00308046
0.00314407
0.00320644
0.00326755
0.00332738
0.00338587
0.00344299
0.00349868
0.00355289
0.00360554
0.00365657
0.00370592
0.00375352
0.00379931
0.00384323
0.00388522
0.00392523
0.00396319
0.00399907
0.00403283
0.00406443
0.00409382
0.004121
0.00414593
0.0041686
0.004189
0.00420713
0.00422298
0.00423656
0.00424789
0.00425698
0.00426385
0.00426857
0.00427102
0.00427146
0.00426981
0.00426614
0.0042605
0.00425293
0.0042435
0.00423227
0.0042193
0.00420465
0.00418839
0.0041706
0.00415133
0.00413067
0.00410867
0.00408543
0.004061
0.00403546
0.00400888
0.00398134
0.0039529
0.00392363
0.00389359
0.00386287
0.0038315
0.00379957
0.00376713
0.00373423
0.00370093
0.00366729
0.00363335
0.00359918
0.0035648
0.00353027
0.00349564
0.00346093
0.0034262
0.00339146
0.00335676
0.00332213
0.0032876
0.00325318
0.00321891
0.00318481
0.00315089
0.00311719
0.00308371
0.00305047
0.00301749
0.00298478
0.00295236
0.00292022
0.00288839
0.00285687
0.00282567
0.00279479
0.00276425
0.00273404
0.00270417
0.00267464
0.00264546
0.00261662
0.00258814
0.00256
0.0025322
0.00250476
0.00247765
0.00245089
0.00242448
0.0023984
0.00237266
0.00234725
0.00232218
0.00229744
0.00227302
0.00224893
0.00222517
0.00220172
0.00217858
0.00215575
0.00213322
0.002111
0.00208907
0.00206743
0.00204608
0.00202502
0.00200423
0.00198372
0.00196347
0.00194349
0.00192378
0.00190432
0.00188511
0.00186614
0.00184742
0.00182894
0.00181068
0.00179265
0.00177483
0.00175721
0.00173979
0.00172255
0.00170546
0.00168851
0.00167166
0.00165488
0.00163812
0.00162132
0.00160439
0.00158719
0.00156979
0.00155186
0.00152573
3.22375e-05
0.000141196
0.000268903
0.000398015
0.000521852
0.000633963
0.000727737
0.000808816
0.000891784
0.000987051
0.00109623
0.00122088
0.00135724
0.00148473
0.00160502
0.00172002
0.00183072
0.00193748
0.00204063
0.0021405
0.00223732
0.00233128
0.00242259
0.00251145
0.00259807
0.00268265
0.00276537
0.00284641
0.00292594
0.00300406
0.0030809
0.00315653
0.003231
0.00330435
0.0033766
0.00344773
0.00351773
0.00358655
0.00365416
0.00372048
0.00378547
0.00384904
0.00391112
0.00397164
0.00403052
0.00408768
0.00414304
0.00419654
0.00424808
0.00429762
0.00434507
0.00439039
0.00443351
0.00447438
0.00451296
0.0045492
0.00458308
0.00461456
0.00464362
0.00467025
0.00469443
0.00471616
0.00473543
0.00475226
0.00476667
0.00477866
0.00478826
0.0047955
0.00480043
0.00480299
0.00480338
0.00480157
0.0047976
0.00479154
0.00478344
0.00477335
0.00476135
0.0047475
0.00473186
0.0047145
0.00469549
0.00467491
0.00465281
0.00462929
0.0046044
0.00457823
0.00455085
0.00452232
0.00449272
0.00446213
0.0044306
0.00439822
0.00436504
0.00433113
0.00429657
0.0042614
0.00422569
0.0041895
0.00415289
0.00411592
0.00407863
0.00404108
0.00400333
0.00396541
0.00392736
0.00388924
0.00385108
0.00381292
0.00377479
0.00373672
0.00369875
0.00366091
0.00362322
0.0035857
0.00354839
0.00351129
0.00347444
0.00343784
0.00340152
0.00336549
0.00332975
0.00329433
0.00325924
0.00322448
0.00319006
0.00315599
0.00312227
0.00308891
0.00305592
0.00302329
0.00299104
0.00295915
0.00292764
0.00289649
0.00286572
0.00283532
0.00280528
0.00277562
0.00274632
0.00271738
0.00268881
0.0026606
0.00263275
0.00260525
0.00257811
0.00255131
0.00252485
0.00249873
0.00247295
0.0024475
0.00242237
0.00239757
0.00237308
0.00234891
0.00232505
0.00230149
0.00227823
0.00225526
0.00223259
0.0022102
0.00218809
0.00216625
0.00214469
0.00212339
0.00210234
0.00208153
0.00206097
0.00204062
0.00202048
0.00200053
0.00198074
0.00196108
0.00194152
0.00192199
0.00190244
0.00188279
0.0018629
0.00184284
0.0018221
0.00179377
3.08682e-05
0.00013511
0.00025811
0.000383392
0.000505343
0.000621407
0.000732043
0.000840997
0.000955817
0.00108164
0.00121969
0.00136943
0.00151171
0.00164368
0.00176793
0.00188635
0.00200006
0.0021097
0.00221566
0.00231814
0.00241754
0.00251424
0.00260854
0.0027007
0.00279094
0.00287946
0.00296645
0.00305206
0.00313644
0.00321968
0.00330187
0.00338306
0.0034633
0.0035426
0.00362094
0.0036983
0.00377465
0.00384993
0.00392407
0.003997
0.00406864
0.00413891
0.00420772
0.00427497
0.00434058
0.00440446
0.00446651
0.00452665
0.0045848
0.00464088
0.00469482
0.00474653
0.00479597
0.00484307
0.00488777
0.00493004
0.00496983
0.0050071
0.00504184
0.00507401
0.0051036
0.00513061
0.00515503
0.00517687
0.00519613
0.00521283
0.005227
0.00523865
0.00524783
0.00525455
0.00525887
0.0052608
0.00526046
0.00525785
0.00525304
0.00524607
0.00523702
0.00522594
0.0052129
0.00519796
0.0051812
0.00516268
0.00514248
0.00512066
0.0050973
0.00507247
0.00504625
0.0050187
0.00498991
0.00495993
0.00492884
0.00489672
0.00486363
0.00482963
0.0047948
0.00475919
0.00472288
0.00468593
0.00464839
0.00461034
0.00457182
0.00453289
0.00449361
0.00445402
0.00441418
0.00437413
0.00433392
0.0042936
0.00425319
0.00421275
0.0041723
0.00413188
0.00409153
0.00405127
0.00401114
0.00397115
0.00393134
0.00389173
0.00385233
0.00381317
0.00377427
0.00373565
0.00369731
0.00365927
0.00362155
0.00358415
0.00354709
0.00351037
0.003474
0.00343798
0.00340233
0.00336705
0.00333213
0.00329759
0.00326342
0.00322963
0.00319621
0.00316317
0.00313051
0.00309822
0.00306631
0.00303478
0.00300362
0.00297283
0.00294241
0.00291235
0.00288266
0.00285333
0.00282435
0.00279573
0.00276746
0.00273953
0.00271194
0.00268469
0.00265777
0.00263118
0.00260492
0.00257898
0.00255335
0.00252804
0.00250303
0.00247832
0.00245391
0.00242979
0.00240595
0.00238238
0.00235907
0.00233601
0.00231318
0.00229056
0.00226813
0.00224585
0.00222369
0.00220158
0.00217946
0.00215727
0.00213487
0.00211229
0.00208899
0.00205833
2.93174e-05
0.000128791
0.000248238
0.000372469
0.000497093
0.000621008
0.000745653
0.000874973
0.00101223
0.00115948
0.00131685
0.00147861
0.0016264
0.00176283
0.00189092
0.00201268
0.00212936
0.0022418
0.00235053
0.00245594
0.00255832
0.00265788
0.00275505
0.00285018
0.00294356
0.00303544
0.00312599
0.0032154
0.00330378
0.00339124
0.00347785
0.00356366
0.00364869
0.00373294
0.00381638
0.00389898
0.00398069
0.00406143
0.00414112
0.00421968
0.00429702
0.00437303
0.00444761
0.00452067
0.00459209
0.00466178
0.00472963
0.00479556
0.00485946
0.00492125
0.00498084
0.00503816
0.00509314
0.00514571
0.00519581
0.00524339
0.00528841
0.00533082
0.00537059
0.00540771
0.00544215
0.00547389
0.00550295
0.0055293
0.00555298
0.00557398
0.00559233
0.00560805
0.00562118
0.00563173
0.00563976
0.0056453
0.00564841
0.00564914
0.00564753
0.00564365
0.00563756
0.00562931
0.00561898
0.00560661
0.00559229
0.00557607
0.00555804
0.00553826
0.0055168
0.00549374
0.00546915
0.0054431
0.00541567
0.00538691
0.00535692
0.00532575
0.00529347
0.00526015
0.00522586
0.00519067
0.00515464
0.00511783
0.00508031
0.00504214
0.00500338
0.00496409
0.00492432
0.00488412
0.00484355
0.00480266
0.0047615
0.00472011
0.00467853
0.00463681
0.00459499
0.00455311
0.0045112
0.00446929
0.00442742
0.00438563
0.00434393
0.00430235
0.00426093
0.00421967
0.00417862
0.00413778
0.00409717
0.00405682
0.00401673
0.00397693
0.00393742
0.00389821
0.00385933
0.00382077
0.00378254
0.00374466
0.00370712
0.00366994
0.00363312
0.00359666
0.00356056
0.00352483
0.00348947
0.00345448
0.00341986
0.00338562
0.00335174
0.00331824
0.00328511
0.00325235
0.00321996
0.00318793
0.00315626
0.00312496
0.00309401
0.00306342
0.00303318
0.0030033
0.00297375
0.00294455
0.00291569
0.00288717
0.00285897
0.00283111
0.00280356
0.00277634
0.00274943
0.00272282
0.00269652
0.0026705
0.00264477
0.0026193
0.00259409
0.0025691
0.00254432
0.00251971
0.00249524
0.00247084
0.00244645
0.002422
0.00239738
0.00237258
0.00234707
0.00231426
2.76233e-05
0.000122193
0.000238215
0.000361767
0.000489211
0.000619919
0.000756149
0.00089968
0.00105219
0.00121417
0.00138614
0.00155208
0.00170385
0.00184415
0.00197575
0.00210062
0.00222011
0.00233516
0.00244643
0.0025544
0.00265948
0.00276195
0.00286209
0.00296009
0.00305638
0.00315123
0.0032449
0.00333756
0.00342936
0.00352041
0.00361078
0.0037005
0.0037896
0.00387806
0.00396586
0.00405293
0.00413922
0.00422465
0.00430911
0.00439252
0.00447477
0.00455574
0.00463533
0.00471341
0.00478989
0.00486463
0.00493754
0.00500851
0.00507744
0.00514422
0.00520878
0.00527103
0.00533088
0.00538827
0.00544314
0.00549543
0.00554509
0.00559207
0.00563635
0.00567789
0.00571667
0.00575269
0.00578593
0.00581639
0.00584408
0.00586902
0.00589122
0.00591069
0.00592749
0.00594162
0.00595313
0.00596207
0.00596848
0.0059724
0.00597389
0.00597302
0.00596985
0.00596442
0.0059568
0.00594705
0.00593524
0.00592144
0.00590572
0.00588814
0.00586879
0.00584773
0.00582504
0.00580078
0.00577503
0.00574786
0.00571934
0.00568954
0.00565852
0.00562636
0.00559312
0.00555887
0.00552368
0.0054876
0.00545071
0.00541306
0.00537472
0.00533574
0.00529618
0.0052561
0.00521554
0.00517457
0.00513322
0.00509154
0.00504959
0.00500741
0.00496503
0.00492251
0.00487986
0.00483715
0.00479439
0.00475162
0.00470887
0.00466618
0.00462357
0.00458106
0.00453868
0.00449645
0.00445441
0.00441255
0.00437091
0.0043295
0.00428833
0.00424743
0.0042068