/*--------------------------------*- C++ -*----------------------------------*\
| =========                 |                                                 |
| \\      /  F ield         | OpenFOAM: The Open Source CFD Toolbox           |
|  \\    /   O peration     | Version:  v2012                                 |
|   \\  /    A nd           | Website:  www.openfoam.com                      |
|    \\/     M anipulation  |                                                 |
\*---------------------------------------------------------------------------*/
FoamFile
{
    version     2.0;
    format      ascii;
    class       surfaceScalarField;
    location    "4800";
    object      phi;
}
// * * * * * * * * * * * * * * * * * * * * * * * * * * * * * * * * * * * * * //

dimensions      [0 3 -1 0 0 0 0];
oriented        oriented;


internalField   nonuniform List<scalar> 
24170
(
3.92539e-06
-7.91497e-07
3.76461e-06
1.60757e-07
3.63337e-06
1.31209e-07
3.43318e-06
2.0014e-07
3.28007e-06
1.53081e-07
3.18941e-06
9.0634e-08
3.12904e-06
6.02627e-08
3.08113e-06
4.76357e-08
3.04123e-06
3.95e-08
3.00435e-06
3.63853e-08
2.96976e-06
3.41081e-08
2.93779e-06
3.1536e-08
2.90853e-06
2.89007e-08
2.88205e-06
2.62e-08
2.85832e-06
2.35201e-08
2.83878e-06
1.94769e-08
2.83077e-06
8.12081e-09
-9.42855e-09
2.84036e-06
3.58444e-06
-9.19498e-07
3.80423e-06
-5.90405e-08
3.74279e-06
1.9262e-07
3.69054e-06
2.52363e-07
3.63724e-06
2.06337e-07
3.58983e-06
1.3799e-07
3.55256e-06
9.74047e-08
3.52376e-06
7.62071e-08
3.50035e-06
6.25603e-08
3.48088e-06
5.53928e-08
3.46383e-06
5.06576e-08
3.44836e-06
4.65068e-08
3.43409e-06
4.27261e-08
3.42065e-06
3.92607e-08
3.40805e-06
3.58147e-08
3.39629e-06
3.10479e-08
3.38467e-06
1.96934e-08
3.76197e-09
3.37122e-06
3.68518e-06
-7.92482e-07
3.83638e-06
-2.1025e-07
3.91492e-06
1.14076e-07
3.94499e-06
2.22289e-07
3.94406e-06
2.07267e-07
3.92721e-06
1.54837e-07
3.90779e-06
1.16833e-07
3.89026e-06
9.37918e-08
3.87465e-06
7.82673e-08
3.86141e-06
6.87577e-08
3.84987e-06
6.23317e-08
3.83928e-06
5.71862e-08
3.82933e-06
5.27277e-08
3.81992e-06
4.86678e-08
3.8112e-06
4.44814e-08
3.80311e-06
3.90789e-08
3.79329e-06
2.94496e-08
1.75088e-08
3.77929e-06
4.05359e-06
-6.41511e-07
4.11459e-06
-2.71264e-07
4.20798e-06
2.06782e-08
4.26634e-06
1.63916e-07
4.29067e-06
1.82908e-07
4.29272e-06
1.52762e-07
4.28601e-06
1.23517e-07
4.27703e-06
1.02778e-07
4.2676e-06
8.77747e-08
4.25883e-06
7.76198e-08
4.25084e-06
7.04115e-08
4.24332e-06
6.47456e-08
4.23612e-06
5.99325e-08
4.22915e-06
5.55924e-08
4.22237e-06
5.11756e-08
4.2154e-06
4.59478e-08
4.2062e-06
3.85369e-08
3.03209e-08
4.19313e-06
4.50491e-06
-5.09116e-07
4.51536e-06
-2.81712e-07
4.58528e-06
-4.92446e-08
4.64664e-06
1.02555e-07
4.68256e-06
1.46986e-07
4.6968e-06
1.3853e-07
4.69972e-06
1.20631e-07
4.69775e-06
1.0482e-07
4.69353e-06
9.21063e-08
4.68862e-06
8.26752e-08
4.6836e-06
7.55783e-08
4.67854e-06
6.99231e-08
4.67342e-06
6.51411e-08
4.66817e-06
6.08797e-08
4.66264e-06
5.67015e-08
4.65633e-06
5.22122e-08
4.64782e-06
4.69757e-08
4.21103e-08
4.63588e-06
5.00014e-06
-3.94666e-07
4.98614e-06
-2.67712e-07
5.03068e-06
-9.37952e-08
5.08505e-06
4.81775e-08
5.12452e-06
1.07497e-07
5.14606e-06
1.16967e-07
5.15605e-06
1.10636e-07
5.15977e-06
1.01128e-07
5.16003e-06
9.1922e-08
5.15855e-06
8.42528e-08
5.15618e-06
7.80383e-08
5.15327e-06
7.29177e-08
5.14989e-06
6.85608e-08
5.14605e-06
6.47333e-08
5.14155e-06
6.11719e-08
5.13595e-06
5.77519e-08
5.12835e-06
5.45102e-08
5.23591e-08
5.11793e-06
5.54382e-06
-2.97478e-07
5.51664e-06
-2.40535e-07
5.54055e-06
-1.17698e-07
5.58387e-06
4.85518e-09
5.62165e-06
6.97208e-08
5.64657e-06
9.20558e-08
5.66123e-06
9.59939e-08
5.66932e-06
9.30907e-08
5.67329e-06
8.80137e-08
5.67482e-06
8.28022e-08
5.67485e-06
7.80828e-08
5.67387e-06
7.39687e-08
5.67207e-06
7.04052e-08
5.66951e-06
6.73221e-08
5.66604e-06
6.46416e-08
5.66135e-06
6.24167e-08
5.65492e-06
6.08807e-08
6.0799e-08
5.64642e-06
4.34788e-06
-2.39245e-07
4.32251e-06
-2.15171e-07
4.33078e-06
-1.25969e-07
4.35419e-06
-1.85605e-08
4.3784e-06
4.55005e-08
4.39647e-06
7.39712e-08
4.40847e-06
8.40008e-08
4.41605e-06
8.55219e-08
4.42064e-06
8.34535e-08
4.42326e-06
8.02167e-08
4.42457e-06
7.68182e-08
4.42493e-06
7.36464e-08
4.42454e-06
7.08302e-08
4.42345e-06
6.84235e-08
4.42162e-06
6.64648e-08
4.41893e-06
6.50962e-08
4.41518e-06
6.46156e-08
6.55872e-08
4.41032e-06
5.08622e-06
-1.85603e-07
5.05777e-06
-1.86727e-07
5.0584e-06
-1.26595e-07
5.07686e-06
-3.70276e-08
5.09918e-06
2.31848e-08
5.11774e-06
5.54099e-08
5.13129e-06
7.0459e-08
5.14066e-06
7.61739e-08
5.14691e-06
7.72209e-08
5.15097e-06
7.61849e-08
5.15347e-06
7.43474e-08
5.15481e-06
7.23326e-08
5.15521e-06
7.04461e-08
5.15477e-06
6.88638e-08
5.1535e-06
6.77295e-08
5.15134e-06
6.72456e-08
5.14822e-06
6.76984e-08
6.95526e-08
5.14425e-06
5.94839e-06
-1.38198e-07
5.91832e-06
-1.56659e-07
5.91161e-06
-1.19887e-07
5.924e-06
-4.94274e-08
5.94286e-06
4.32018e-09
5.9606e-06
3.76709e-08
5.97485e-06
5.62155e-08
5.98553e-06
6.54993e-08
5.99325e-06
6.95103e-08
5.99871e-06
7.07437e-08
6.00246e-06
7.06148e-08
6.00489e-06
6.99182e-08
6.00624e-06
6.91017e-08
6.00664e-06
6.84603e-08
6.00616e-06
6.82101e-08
6.00482e-06
6.85816e-08
6.00267e-06
6.98479e-08
7.22862e-08
5.9999e-06
6.95439e-06
-9.83183e-08
6.92401e-06
-1.26288e-07
6.91113e-06
-1.07007e-07
6.9168e-06
-5.51015e-08
6.93088e-06
-9.75817e-09
6.94638e-06
2.21757e-08
6.9602e-06
4.23963e-08
6.97146e-06
5.42432e-08
6.98023e-06
6.07509e-08
6.98689e-06
6.40928e-08
6.99184e-06
6.56679e-08
6.99541e-06
6.63428e-08
6.99785e-06
6.66746e-08
6.99929e-06
6.70163e-08
6.99985e-06
6.76475e-08
6.99964e-06
6.87996e-08
6.9988e-06
7.06778e-08
7.34898e-08
6.99759e-06
8.12719e-06
-6.64935e-08
8.09793e-06
-9.70316e-08
8.08056e-06
-8.96347e-08
8.07955e-06
-5.40993e-08
8.08794e-06
-1.81456e-08
8.09987e-06
1.02447e-08
8.11202e-06
3.02477e-08
8.12291e-06
4.33663e-08
8.13207e-06
5.15908e-08
8.13955e-06
5.6624e-08
8.14552e-06
5.96931e-08
8.15021e-06
6.16565e-08
8.15381e-06
6.30747e-08
8.15647e-06
6.43608e-08
8.15833e-06
6.57865e-08
8.15955e-06
6.75773e-08
8.16034e-06
6.98953e-08
7.28412e-08
8.16097e-06
9.49368e-06
-4.24458e-08
9.4668e-06
-7.01548e-08
9.44683e-06
-6.96696e-08
9.43991e-06
-4.7178e-08
9.4423e-06
-2.05336e-08
9.44967e-06
2.86731e-09
9.45898e-06
2.09454e-08
9.46844e-06
3.39125e-08
9.4772e-06
4.28399e-08
9.48494e-06
4.88847e-08
9.49162e-06
5.30242e-08
9.49729e-06
5.59822e-08
9.50206e-06
5.83043e-08
9.50606e-06
6.0353e-08
9.50945e-06
6.24112e-08
9.51236e-06
6.46506e-08
9.51505e-06
6.72082e-08
7.01201e-08
9.51776e-06
1.10854e-05
-2.5167e-08
1.10618e-05
-4.65159e-08
1.1041e-05
-4.8839e-08
1.10294e-05
-3.56023e-08
1.10261e-05
-1.72399e-08
1.10284e-05
5.10594e-10
1.1034e-05
1.53524e-08
1.10411e-05
2.68162e-08
1.10487e-05
3.5302e-08
1.10561e-05
4.14916e-08
1.10631e-05
4.60531e-08
1.10695e-05
4.95489e-08
1.10754e-05
5.2403e-08
1.10808e-05
5.49363e-08
1.10858e-05
5.73625e-08
1.10907e-05
5.98351e-08
1.10954e-05
6.24257e-08
6.51702e-08
1.11004e-05
1.29396e-05
-1.31269e-08
1.29194e-05
-2.62926e-08
1.28988e-05
-2.82844e-08
1.28839e-05
-2.0739e-08
1.28758e-05
-9.06807e-09
1.28732e-05
3.05e-09
1.28748e-05
1.38185e-08
1.2879e-05
2.26377e-08
1.28847e-05
2.95624e-08
1.28913e-05
3.49291e-08
1.28982e-05
3.91363e-08
1.29052e-05
4.25478e-08
1.29121e-05
4.54557e-08
1.2919e-05
4.80785e-08
1.29258e-05
5.05654e-08
1.29326e-05
5.30098e-08
1.29395e-05
5.5455e-08
5.79045e-08
1.29468e-05
1.50998e-05
-4.49111e-09
1.50822e-05
-8.69115e-09
1.50621e-05
-8.14591e-09
1.50448e-05
-3.5098e-09
1.50327e-05
3.03948e-09
1.50259e-05
9.8447e-09
1.50237e-05
1.60441e-08
1.5025e-05
2.13188e-08
1.50289e-05
2.56803e-08
1.50346e-05
2.92821e-08
1.50414e-05
3.23224e-08
1.5049e-05
3.49812e-08
1.5057e-05
3.74029e-08
1.50654e-05
3.96897e-08
1.5074e-05
4.19046e-08
1.5083e-05
4.40784e-08
1.50922e-05
4.62139e-08
4.82921e-08
1.51018e-05
1.76171e-05
2.88507e-09
1.75999e-05
8.505e-09
1.75787e-05
1.29934e-08
1.7559e-05
1.62291e-08
1.75436e-05
1.84014e-08
1.75336e-05
1.98717e-08
1.75287e-05
2.09408e-08
1.75282e-05
2.18632e-08
1.75311e-05
2.27814e-08
1.75366e-05
2.38044e-08
1.75439e-05
2.4968e-08
1.75526e-05
2.62945e-08
1.75622e-05
2.77669e-08
1.75726e-05
2.93658e-08
1.75834e-05
3.1051e-08
1.75947e-05
3.2786e-08
1.76064e-05
3.45215e-08
3.62152e-08
1.76185e-05
1.78181e-05
1.09933e-08
1.77994e-05
2.71859e-08
1.77768e-05
3.55877e-08
1.7756e-05
3.70038e-08
1.77402e-05
3.42648e-08
1.77302e-05
2.98653e-08
1.77257e-05
2.54101e-08
1.77259e-05
2.1665e-08
1.77298e-05
1.8949e-08
1.77363e-05
1.72478e-08
1.77449e-05
1.64608e-08
1.77547e-05
1.64049e-08
1.77656e-05
1.69228e-08
1.77771e-05
1.78482e-08
1.77891e-05
1.90589e-08
1.78015e-05
2.04323e-08
1.78141e-05
2.18896e-08
2.33427e-08
1.7827e-05
1.58702e-05
2.21266e-08
1.58478e-05
4.95524e-08
1.58233e-05
6.00907e-08
1.58032e-05
5.7185e-08
1.57899e-05
4.75478e-08
1.57834e-05
3.63057e-08
1.57827e-05
2.6122e-08
1.57863e-05
1.80665e-08
1.5793e-05
1.22702e-08
1.58018e-05
8.5042e-09
1.58119e-05
6.366e-09
1.58229e-05
5.47482e-09
1.58343e-05
5.48515e-09
1.5846e-05
6.12754e-09
1.58579e-05
7.17972e-09
1.58699e-05
8.48309e-09
1.58819e-05
9.90374e-09
1.1358e-08
1.58939e-05
1.41313e-05
3.95334e-08
1.41021e-05
7.86778e-08
1.40745e-05
8.77466e-08
1.40557e-05
7.59855e-08
1.40469e-05
5.6356e-08
1.40462e-05
3.69833e-08
1.40512e-05
2.11519e-08
1.40597e-05
9.52866e-09
1.40703e-05
1.70387e-09
1.40819e-05
-3.10748e-09
1.4094e-05
-5.67929e-09
1.41062e-05
-6.66183e-09
1.41182e-05
-6.54769e-09
1.41301e-05
-5.72195e-09
1.41417e-05
-4.446e-09
1.41531e-05
-2.92608e-09
1.41643e-05
-1.2908e-09
3.5273e-10
1.41753e-05
1.25772e-05
6.7351e-08
1.25392e-05
1.16713e-07
1.25091e-05
1.1785e-07
1.24942e-05
9.08405e-08
1.24928e-05
5.77601e-08
1.25002e-05
2.96298e-08
1.25123e-05
9.0969e-09
1.25264e-05
-4.53892e-09
1.25409e-05
-1.28411e-08
1.25552e-05
-1.73486e-08
1.25688e-05
-1.92861e-08
1.25817e-05
-1.95335e-08
1.25939e-05
-1.87285e-08
1.26055e-05
-1.7265e-08
1.26165e-05
-1.54589e-08
1.26271e-05
-1.34754e-08
1.26372e-05
-1.14637e-08
-9.48872e-09
1.26471e-05
1.11862e-05
1.10913e-07
1.11384e-05
1.64548e-07
1.11088e-05
1.47484e-07
1.11022e-05
9.74366e-08
1.11117e-05
4.82611e-08
1.1129e-05
1.23632e-08
1.11486e-05
-1.05046e-08
1.11678e-05
-2.37247e-08
1.11855e-05
-3.04976e-08
1.12014e-05
-3.32022e-08
1.12156e-05
-3.34536e-08
1.12283e-05
-3.22757e-08
1.12399e-05
-3.02936e-08
1.12506e-05
-2.79089e-08
1.12605e-05
-2.53475e-08
1.12699e-05
-2.27969e-08
1.12787e-05
-2.0312e-08
-1.79691e-08
1.12872e-05
9.93908e-06
1.7645e-07
9.88248e-06
2.21145e-07
9.85874e-06
1.71231e-07
9.86596e-06
9.02299e-08
9.88965e-06
2.45875e-08
9.91764e-06
-1.56098e-08
9.94397e-06
-3.68041e-08
9.96673e-06
-4.64316e-08
9.98579e-06
-4.94809e-08
1.00017e-05
-4.90822e-08
1.00151e-05
-4.6877e-08
1.00267e-05
-4.38336e-08
1.00369e-05
-4.03973e-08
1.0046e-05
-3.69425e-08
1.00543e-05
-3.36051e-08
1.0062e-05
-3.04716e-08
1.00693e-05
-2.7562e-08
-2.48738e-08
1.00762e-05
8.81963e-06
2.69915e-07
8.75785e-06
2.82932e-07
8.74788e-06
1.81197e-07
8.77483e-06
6.32788e-08
8.81462e-06
-1.51893e-08
8.85218e-06
-5.31383e-08
8.88273e-06
-6.72858e-08
8.90636e-06
-6.9973e-08
8.92439e-06
-6.75595e-08
8.93844e-06
-6.30569e-08
8.94966e-06
-5.80402e-08
8.95901e-06
-5.29358e-08
8.96693e-06
-4.82409e-08
8.97391e-06
-4.38115e-08
8.98017e-06
-3.98056e-08
8.98596e-06
-3.61966e-08
8.99139e-06
-3.29629e-08
-3.00547e-08
8.99656e-06
7.81391e-06
3.96675e-07
7.7539e-06
3.42934e-07
7.76868e-06
1.66415e-07
7.82056e-06
1.14159e-08
7.87572e-06
-7.03401e-08
7.91918e-06
-9.65859e-08
7.94976e-06
-9.78576e-08
7.97068e-06
-9.08131e-08
7.98508e-06
-8.17378e-08
7.99528e-06
-7.31782e-08
8.00302e-06
-6.55848e-08
8.00907e-06
-5.90233e-08
8.01416e-06
-5.31137e-08
8.01848e-06
-4.80285e-08
8.02233e-06
-4.35046e-08
8.02587e-06
-3.97213e-08
8.02925e-06
-3.63762e-08
-3.33257e-08
8.03253e-06
6.90424e-06
5.66768e-07
6.86137e-06
3.85802e-07
6.91717e-06
1.1061e-07
6.99676e-06
-6.81824e-08
7.06258e-06
-1.36158e-07
7.10537e-06
-1.39386e-07
7.13035e-06
-1.22714e-07
7.14455e-06
-1.0497e-07
7.15251e-06
-8.96929e-08
7.15716e-06
-7.76766e-08
7.16016e-06
-6.84755e-08
7.16233e-06
-6.08604e-08
7.16389e-06
-5.46291e-08
7.1652e-06
-4.92875e-08
7.1662e-06
-4.4554e-08
7.16722e-06
-4.07688e-08
7.16838e-06
-3.75109e-08
-3.45521e-08
7.16952e-06
6.07162e-06
7.97663e-07
6.08525e-06
3.7216e-07
6.19865e-06
-2.79385e-09
6.29991e-06
-1.69443e-07
6.3653e-06
-2.01551e-07
6.3976e-06
-1.71667e-07
6.41008e-06
-1.35324e-07
6.41335e-06
-1.07929e-07
6.41237e-06
-8.87576e-08
6.40995e-06
-7.52459e-08
6.40743e-06
-6.58919e-08
6.40489e-06
-5.84143e-08
6.40237e-06
-5.22645e-08
6.40013e-06
-4.69511e-08
6.39786e-06
-4.23028e-08
6.39599e-06
-3.89391e-08
6.39459e-06
-3.62105e-08
-3.31762e-08
6.3933e-06
5.35805e-06
1.05451e-06
5.50649e-06
2.23712e-07
5.64777e-06
-1.4409e-07
5.73566e-06
-2.57339e-07
5.7765e-06
-2.42407e-07
5.78329e-06
-1.78579e-07
5.77503e-06
-1.26924e-07
5.76262e-06
-9.56099e-08
5.75014e-06
-7.64434e-08
5.73925e-06
-6.46367e-08
5.73036e-06
-5.72135e-08
5.7224e-06
-5.07433e-08
5.71484e-06
-4.49773e-08
5.70791e-06
-4.02442e-08
5.70157e-06
-3.60762e-08
5.69609e-06
-3.35675e-08
5.6918e-06
-3.18877e-08
-2.85773e-08
5.68718e-06
5.04576e-06
1.01105e-06
5.36491e-06
-9.54588e-08
5.35253e-06
-1.31737e-07
5.33288e-06
-2.37717e-07
5.29604e-06
-2.05638e-07
5.25012e-06
-1.32761e-07
5.20828e-06
-8.51146e-08
5.17419e-06
-6.16606e-08
5.14676e-06
-4.93704e-08
5.12466e-06
-4.29833e-08
5.10674e-06
-3.96801e-08
5.09097e-06
-3.55283e-08
5.07621e-06
-3.08215e-08
5.06261e-06
-2.70024e-08
5.05055e-06
-2.42265e-08
5.04013e-06
-2.32595e-08
5.03144e-06
-2.32092e-08
-2.01913e-08
5.02307e-06
5.4676e-06
5.37214e-06
5.2404e-06
5.00268e-06
4.79702e-06
4.66426e-06
4.57912e-06
4.51741e-06
4.46796e-06
4.42491e-06
4.38512e-06
4.34946e-06
4.31855e-06
4.2915e-06
4.26724e-06
4.24397e-06
4.22077e-06
4.20059e-06
2.47669e-08
-2.47838e-08
2.38623e-07
-2.13838e-07
4.89931e-07
-2.51345e-07
7.09225e-07
-2.19292e-07
8.75886e-07
-1.66693e-07
9.85994e-07
-1.10105e-07
1.04053e-06
-5.45665e-08
1.04182e-06
-1.27974e-09
9.95199e-07
4.65973e-08
9.11033e-07
8.41968e-08
8.04621e-07
1.06407e-07
6.95379e-07
1.09314e-07
6.02969e-07
9.24914e-08
5.36875e-07
6.60361e-08
4.85456e-07
5.15563e-08
4.2422e-07
6.09138e-08
3.36526e-07
8.7823e-08
2.08137e-07
1.28295e-07
3.17121e-08
1.76553e-07
-2.13809e-07
2.45831e-07
-5.18805e-07
3.05045e-07
-8.60045e-07
3.41387e-07
-1.22356e-06
3.63485e-07
-1.60008e-06
3.76546e-07
-1.98085e-06
3.80721e-07
-2.35575e-06
3.74885e-07
-2.71683e-06
3.61053e-07
-3.05889e-06
3.42043e-07
-3.37815e-06
3.19242e-07
-3.6723e-06
2.94134e-07
-3.94051e-06
2.68205e-07
-4.18313e-06
2.42613e-07
-4.40119e-06
2.18056e-07
-4.59618e-06
1.94984e-07
-4.7698e-06
1.73616e-07
-4.92382e-06
1.54032e-07
-5.06002e-06
1.3619e-07
-5.17999e-06
1.19974e-07
-5.28521e-06
1.0522e-07
-5.37696e-06
9.17505e-08
-5.45634e-06
7.93825e-08
-5.52428e-06
6.79453e-08
-5.58156e-06
5.72837e-08
-5.62883e-06
4.72651e-08
-5.66661e-06
3.77808e-08
-5.69535e-06
2.87449e-08
-5.71543e-06
2.00858e-08
-5.72721e-06
1.17752e-08
-5.73116e-06
3.94839e-09
-5.72813e-06
-3.02302e-09
-5.71923e-06
-8.90004e-09
-5.70522e-06
-1.40063e-08
-5.68649e-06
-1.8727e-08
-5.6633e-06
-2.31897e-08
-5.63582e-06
-2.74833e-08
-5.60418e-06
-3.16346e-08
-5.56853e-06
-3.56586e-08
-5.52896e-06
-3.95616e-08
-5.48562e-06
-4.33449e-08
-5.43861e-06
-4.70069e-08
-5.38807e-06
-5.05456e-08
-5.33411e-06
-5.3957e-08
-5.27687e-06
-5.72379e-08
-5.21648e-06
-6.03849e-08
-5.15309e-06
-6.33957e-08
-5.08682e-06
-6.62669e-08
-5.01783e-06
-6.89953e-08
-4.94625e-06
-7.15783e-08
-4.87223e-06
-7.40146e-08
-4.79593e-06
-7.63026e-08
-4.71749e-06
-7.8442e-08
-4.63705e-06
-8.04319e-08
-4.55478e-06
-8.22731e-08
-4.47081e-06
-8.39658e-08
-4.3853e-06
-8.55115e-08
-4.29839e-06
-8.69117e-08
-4.21022e-06
-8.81688e-08
-4.12094e-06
-8.92849e-08
-4.03067e-06
-9.02635e-08
-3.93956e-06
-9.11078e-08
-3.84774e-06
-9.18221e-08
-3.75533e-06
-9.24103e-08
-3.66245e-06
-9.28778e-08
-3.56922e-06
-9.32299e-08
-3.47575e-06
-9.3473e-08
-3.38214e-06
-9.36138e-08
-3.28848e-06
-9.36615e-08
-3.19485e-06
-9.36258e-08
-3.10133e-06
-9.35198e-08
-3.00798e-06
-9.33594e-08
-2.91481e-06
-9.31656e-08
-2.82185e-06
-9.29637e-08
-2.72908e-06
-9.27717e-08
-2.63651e-06
-9.25683e-08
-2.54424e-06
-9.22669e-08
-2.45247e-06
-9.17662e-08
-2.36149e-06
-9.0982e-08
-2.27155e-06
-8.99343e-08
-2.18277e-06
-8.87813e-08
-2.09514e-06
-8.76274e-08
-2.00867e-06
-8.64719e-08
-1.92337e-06
-8.52988e-08
-1.83927e-06
-8.41011e-08
-1.7564e-06
-8.28779e-08
-1.67477e-06
-8.16317e-08
-1.5944e-06
-8.03664e-08
-1.51532e-06
-7.90857e-08
-1.43752e-06
-7.77923e-08
-1.36104e-06
-7.6484e-08
-1.2859e-06
-7.51398e-08
-1.21213e-06
-7.37724e-08
-1.13973e-06
-7.24099e-08
-1.06868e-06
-7.10463e-08
-9.99002e-07
-6.96833e-08
-9.30683e-07
-6.83217e-08
-8.63723e-07
-6.69633e-08
-7.98116e-07
-6.56098e-08
-7.33856e-07
-6.42648e-08
-6.70931e-07
-6.29291e-08
-6.09333e-07
-6.1603e-08
-5.49052e-07
-6.02864e-08
-4.90075e-07
-5.89831e-08
-4.32383e-07
-5.76986e-08
-3.75951e-07
-5.64402e-08
-3.20758e-07
-5.52012e-08
-2.66787e-07
-5.39796e-08
-2.14017e-07
-5.27781e-08
-1.62429e-07
-5.15972e-08
-1.12015e-07
-5.04231e-08
-6.27632e-08
-4.92572e-08
-1.48045e-08
-4.79575e-08
3.19992e-08
-4.68008e-08
7.79424e-08
-4.59461e-08
1.22906e-07
-4.49756e-08
1.66803e-07
-4.39127e-08
2.09637e-07
-4.28491e-08
2.51433e-07
-4.18002e-08
2.92212e-07
-4.07816e-08
3.31997e-07
-3.97937e-08
3.70813e-07
-3.88389e-08
4.08699e-07
-3.7913e-08
4.45684e-07
-3.70176e-08
4.81805e-07
-3.61461e-08
5.17084e-07
-3.53023e-08
5.51554e-07
-3.44803e-08
5.85236e-07
-3.36847e-08
6.18164e-07
-3.29076e-08
6.50352e-07
-3.21553e-08
6.81817e-07
-3.1423e-08
7.1257e-07
-3.07162e-08
7.42636e-07
-3.0033e-08
7.72036e-07
-2.93763e-08
8.00801e-07
-2.87429e-08
8.28948e-07
-2.81355e-08
8.56509e-07
-2.75512e-08
8.835e-07
-2.69926e-08
9.09955e-07
-2.64571e-08
9.35889e-07
-2.59467e-08
9.61336e-07
-2.54589e-08
9.86309e-07
-2.49946e-08
1.01084e-06
-2.45513e-08
1.03494e-06
-2.41278e-08
1.05864e-06
-2.37212e-08
1.08193e-06
-2.3327e-08
1.10485e-06
-2.29403e-08
1.12737e-06
-2.25516e-08
1.14949e-06
-2.21513e-08
1.17119e-06
-2.17213e-08
1.19241e-06
-2.12419e-08
1.21306e-06
-2.06791e-08
1.23303e-06
-1.99915e-08
1.25213e-06
-1.9112e-08
1.27006e-06
-1.79464e-08
1.28639e-06
-1.63463e-08
1.30042e-06
-1.40417e-08
1.31102e-06
-1.06119e-08
1.31555e-06
-4.54952e-09
1.30866e-06
6.88e-09
1.27906e-06
2.95908e-08
7.24298e-08
1.20663e-06
2.5368e-07
-2.78473e-07
4.88901e-07
-4.49054e-07
6.38062e-07
-4.0052e-07
7.22232e-07
-3.03463e-07
7.61208e-07
-2.05682e-07
7.66589e-07
-1.15486e-07
7.45096e-07
-3.30866e-08
7.02426e-07
4.13926e-08
6.41543e-07
1.07473e-07
5.62407e-07
1.63344e-07
4.64226e-07
2.04591e-07
3.45308e-07
2.28239e-07
1.99413e-07
2.38421e-07
1.47452e-08
2.50647e-07
-2.19084e-07
2.85398e-07
-5.06351e-07
3.48108e-07
-8.45026e-07
4.265e-07
-1.22391e-06
5.07195e-07
-1.62906e-06
5.81738e-07
-2.02937e-06
6.46195e-07
-2.41719e-06
6.92888e-07
-2.79207e-06
7.16296e-07
-3.14693e-06
7.1834e-07
-3.47366e-06
7.0328e-07
-3.76744e-06
6.74484e-07
-4.02745e-06
6.3489e-07
-4.25425e-06
5.87844e-07
-4.44922e-06
5.37007e-07
-4.61531e-06
4.85329e-07
-4.75604e-06
4.34851e-07
-4.87475e-06
3.86913e-07
-4.97461e-06
3.42469e-07
-5.05847e-06
3.01921e-07
-5.12884e-06
2.65349e-07
-5.18781e-06
2.32585e-07
-5.2371e-06
2.03327e-07
-5.27812e-06
1.77205e-07
-5.31197e-06
1.53828e-07
-5.33957e-06
1.32817e-07
-5.36163e-06
1.13821e-07
-5.37878e-06
9.65318e-08
-5.39152e-06
8.06853e-08
-5.4003e-06
6.60609e-08
-5.40551e-06
5.24786e-08
-5.40752e-06
3.97924e-08
-5.40666e-06
2.78888e-08
-5.40327e-06
1.66907e-08
-5.39765e-06
6.16434e-09
-5.38997e-06
-3.73458e-09
-5.37979e-06
-1.31997e-08
-5.36623e-06
-2.2465e-08
-5.34867e-06
-3.15582e-08
-5.32698e-06
-4.04182e-08
-5.30113e-06
-4.90375e-08
-5.27119e-06
-5.74235e-08
-5.23724e-06
-6.55825e-08
-5.19939e-06
-7.35174e-08
-5.15772e-06
-8.12273e-08
-5.11235e-06
-8.87091e-08
-5.0634e-06
-9.59568e-08
-5.01099e-06
-1.02964e-07
-4.95522e-06
-1.09722e-07
-4.89623e-06
-1.16224e-07
-4.83415e-06
-1.22463e-07
-4.76912e-06
-1.28433e-07
-4.70125e-06
-1.34129e-07
-4.63071e-06
-1.39543e-07
-4.55761e-06
-1.4467e-07
-4.48212e-06
-1.49507e-07
-4.40437e-06
-1.54052e-07
-4.32451e-06
-1.58303e-07
-4.24268e-06
-1.62259e-07
-4.15904e-06
-1.65921e-07
-4.07371e-06
-1.6929e-07
-3.98685e-06
-1.72368e-07
-3.89861e-06
-1.7516e-07
-3.80911e-06
-1.77668e-07
-3.71849e-06
-1.79899e-07
-3.6269e-06
-1.81858e-07
-3.53445e-06
-1.83551e-07
-3.44129e-06
-1.84987e-07
-3.34752e-06
-1.86175e-07
-3.25328e-06
-1.87122e-07
-3.15867e-06
-1.87839e-07
-3.06381e-06
-1.88337e-07
-2.96879e-06
-1.88627e-07
-2.87373e-06
-1.88722e-07
-2.77873e-06
-1.88634e-07
-2.68387e-06
-1.88376e-07
-2.58927e-06
-1.87961e-07
-2.49504e-06
-1.874e-07
-2.4013e-06
-1.86702e-07
-2.30821e-06
-1.8586e-07
-2.21593e-06
-1.84846e-07
-2.12458e-06
-1.83616e-07
-2.03421e-06
-1.82141e-07
-1.94477e-06
-1.80418e-07
-1.85622e-06
-1.78488e-07
-1.76857e-06
-1.7643e-07
-1.6819e-06
-1.74295e-07
-1.59627e-06
-1.72096e-07
-1.51174e-06
-1.69836e-07
-1.42833e-06
-1.67514e-07
-1.34607e-06
-1.65136e-07
-1.26499e-06
-1.62706e-07
-1.18513e-06
-1.6023e-07
-1.10651e-06
-1.57713e-07
-1.02914e-06
-1.55159e-07
-9.53056e-07
-1.52569e-07
-8.78253e-07
-1.49944e-07
-8.04729e-07
-1.47298e-07
-7.32498e-07
-1.44643e-07
-6.61564e-07
-1.41983e-07
-5.91927e-07
-1.39322e-07
-5.23589e-07
-1.36663e-07
-4.56546e-07
-1.34008e-07
-3.90796e-07
-1.31362e-07
-3.26333e-07
-1.2873e-07
-2.63147e-07
-1.26118e-07
-2.01228e-07
-1.23525e-07
-1.40567e-07
-1.20951e-07
-8.11528e-08
-1.18401e-07
-2.29797e-08
-1.15876e-07
3.39661e-08
-1.1339e-07
8.97119e-08
-1.10952e-07
1.44276e-07
-1.08547e-07
1.97667e-07
-1.06174e-07
2.49903e-07
-1.03836e-07
3.01011e-07
-1.01534e-07
3.5102e-07
-9.92656e-08
4.00097e-07
-9.70315e-08
4.48204e-07
-9.49031e-08
4.9512e-07
-9.28622e-08
5.40921e-07
-9.07808e-08
5.85682e-07
-8.86802e-08
6.29439e-07
-8.66079e-08
6.72221e-07
-8.45818e-08
7.1405e-07
-8.26085e-08
7.54944e-07
-8.06911e-08
7.94925e-07
-7.88295e-08
8.3402e-07
-7.70218e-08
8.72255e-07
-7.52665e-08
9.09657e-07
-7.35601e-08
9.46249e-07
-7.19027e-08
9.82057e-07
-7.02919e-08
1.0171e-06
-6.87268e-08
1.05142e-06
-6.72054e-08
1.08501e-06
-6.57286e-08
1.11791e-06
-6.42968e-08
1.15013e-06
-6.29122e-08
1.18169e-06
-6.15753e-08
1.21262e-06
-6.02871e-08
1.24293e-06
-5.90457e-08
1.27265e-06
-5.78529e-08
1.30181e-06
-5.67058e-08
1.33042e-06
-5.56074e-08
1.35851e-06
-5.45536e-08
1.3861e-06
-5.3548e-08
1.41321e-06
-5.25848e-08
1.43986e-06
-5.16671e-08
1.46607e-06
-5.07873e-08
1.49187e-06
-4.99467e-08
1.51726e-06
-4.91342e-08
1.54225e-06
-4.83475e-08
1.56685e-06
-4.75701e-08
1.59106e-06
-4.67917e-08
1.61487e-06
-4.5986e-08
1.63825e-06
-4.51278e-08
1.66115e-06
-4.41719e-08
1.68351e-06
-4.30641e-08
1.70522e-06
-4.17193e-08
1.72611e-06
-4.00219e-08
1.74594e-06
-3.77929e-08
1.76435e-06
-3.4764e-08
1.78077e-06
-3.04738e-08
1.79431e-06
-2.41659e-08
1.80402e-06
-1.42627e-08
1.80886e-06
2.03085e-09
1.80696e-06
3.14911e-08
8.81462e-08
1.79125e-06
2.45022e-07
-5.23497e-07
3.40217e-07
-5.44247e-07
3.55979e-07
-4.1629e-07
3.44625e-07
-2.92105e-07
3.16594e-07
-1.7766e-07
2.72148e-07
-7.10352e-08
2.10545e-07
2.85059e-08
1.30776e-07
1.21166e-07
3.17278e-08
2.06514e-07
-8.87771e-08
2.83851e-07
-2.36582e-07
3.52395e-07
-4.22333e-07
4.1398e-07
-6.59388e-07
4.75476e-07
-9.54241e-07
5.45473e-07
-1.2961e-06
6.2725e-07
-1.66305e-06
7.15043e-07
-2.03447e-06
7.97921e-07
-2.39387e-06
8.66612e-07
-2.72795e-06
9.15831e-07
-3.02531e-06
9.43575e-07
-3.28158e-06
9.49169e-07
-3.49875e-06
9.33482e-07
-3.68027e-06
8.9986e-07
-3.82991e-06
8.52929e-07
-3.95235e-06
7.96915e-07
-4.05294e-06
7.35486e-07
-4.13701e-06
6.71903e-07
-4.20889e-06
6.0889e-07
-4.27202e-06
5.48447e-07
-4.32896e-06
4.91798e-07
-4.38159e-06
4.39538e-07
-4.43101e-06
3.91889e-07
-4.47785e-06
3.4876e-07
-4.52237e-06
3.09869e-07
-4.56461e-06
2.74822e-07
-4.60446e-06
2.43182e-07
-4.64177e-06
2.1451e-07
-4.67633e-06
1.88393e-07
-4.70797e-06
1.64456e-07
-4.73651e-06
1.4237e-07
-4.76184e-06
1.21855e-07
-4.78382e-06
1.02674e-07
-4.80239e-06
8.46303e-08
-4.81747e-06
6.75605e-08
-4.82901e-06
5.13256e-08
-4.83692e-06
3.5807e-08
-4.84114e-06
2.09037e-08
-4.84149e-06
6.5223e-09
-4.83778e-06
-7.44392e-09
-4.82987e-06
-2.11087e-08
-4.81781e-06
-3.45301e-08
-4.80167e-06
-4.7695e-08
-4.78151e-06
-6.05817e-08
-4.75736e-06
-7.31815e-08
-4.7293e-06
-8.54877e-08
-4.69738e-06
-9.74945e-08
-4.66171e-06
-1.09195e-07
-4.62235e-06
-1.2058e-07
-4.57942e-06
-1.31639e-07
-4.53302e-06
-1.42361e-07
-4.48325e-06
-1.52734e-07
-4.43022e-06
-1.62745e-07
-4.37407e-06
-1.72379e-07
-4.3149e-06
-1.81626e-07
-4.25286e-06
-1.90479e-07
-4.18806e-06
-1.98927e-07
-4.12064e-06
-2.06959e-07
-4.05074e-06
-2.14568e-07
-3.9785e-06
-2.21749e-07
-3.90406e-06
-2.28497e-07
-3.82755e-06
-2.34811e-07
-3.74912e-06
-2.40688e-07
-3.66891e-06
-2.4613e-07
-3.58706e-06
-2.51138e-07
-3.50371e-06
-2.55715e-07
-3.41901e-06
-2.59866e-07
-3.33308e-06
-2.63597e-07
-3.24606e-06
-2.66915e-07
-3.15809e-06
-2.69828e-07
-3.0693e-06
-2.72347e-07
-2.9798e-06
-2.74481e-07
-2.88973e-06
-2.76243e-07
-2.79921e-06
-2.77645e-07
-2.70835e-06
-2.787e-07
-2.61727e-06
-2.79422e-07
-2.52607e-06
-2.79826e-07
-2.43486e-06
-2.79927e-07
-2.34376e-06
-2.7974e-07
-2.25286e-06
-2.79279e-07
-2.16226e-06
-2.78558e-07
-2.07208e-06
-2.77586e-07
-1.98241e-06
-2.76372e-07
-1.89335e-06
-2.74913e-07
-1.805e-06
-2.73196e-07
-1.71741e-06
-2.71208e-07
-1.63061e-06
-2.68944e-07
-1.5446e-06
-2.66422e-07
-1.45941e-06
-2.63678e-07
-1.37508e-06
-2.60758e-07
-1.29168e-06
-2.57697e-07
-1.20926e-06
-2.54514e-07
-1.12787e-06
-2.51222e-07
-1.04756e-06
-2.4783e-07
-9.68347e-07
-2.44348e-07
-8.90269e-07
-2.40784e-07
-8.13351e-07
-2.37149e-07
-7.37616e-07
-2.33449e-07
-6.63083e-07
-2.29693e-07
-5.89765e-07
-2.25887e-07
-5.1767e-07
-2.22041e-07
-4.46804e-07
-2.18164e-07
-3.77179e-07
-2.14269e-07
-3.08801e-07
-2.10362e-07
-2.41671e-07
-2.06453e-07
-1.75789e-07
-2.02546e-07
-1.11154e-07
-1.98644e-07
-4.77627e-08
-1.94756e-07
1.43921e-08
-1.90887e-07
7.53138e-08
-1.87042e-07
1.35011e-07
-1.83225e-07
1.93496e-07
-1.79439e-07
2.50782e-07
-1.75689e-07
3.06883e-07
-1.71981e-07
3.61812e-07
-1.68323e-07
4.15575e-07
-1.64718e-07
4.68187e-07
-1.61163e-07
5.19669e-07
-1.5766e-07
5.70039e-07
-1.5421e-07
6.19321e-07
-1.50818e-07
6.67545e-07
-1.4749e-07
7.14754e-07
-1.44239e-07
7.60927e-07
-1.41076e-07
8.0603e-07
-1.37968e-07
8.50113e-07
-1.3487e-07
8.93222e-07
-1.31795e-07
9.35381e-07
-1.2877e-07
9.76608e-07
-1.2581e-07
1.01692e-06
-1.22922e-07
1.05633e-06
-1.2011e-07
1.09487e-06
-1.17375e-07
1.13255e-06
-1.14715e-07
1.1694e-06
-1.12129e-07
1.20545e-06
-1.09614e-07
1.2407e-06
-1.07169e-07
1.2752e-06
-1.04793e-07
1.30896e-06
-1.02483e-07
1.342e-06
-1.00239e-07
1.37435e-06
-9.80616e-08
1.40602e-06
-9.59514e-08
1.43703e-06
-9.39111e-08
1.46741e-06
-9.19404e-08
1.49717e-06
-9.00404e-08
1.52634e-06
-8.82093e-08
1.55494e-06
-8.64486e-08
1.583e-06
-8.47559e-08
1.61052e-06
-8.31332e-08
1.63755e-06
-8.15773e-08
1.66409e-06
-8.00898e-08
1.69016e-06
-7.86663e-08
1.7158e-06
-7.73073e-08
1.74101e-06
-7.60056e-08
1.76582e-06
-7.47591e-08
1.79023e-06
-7.35562e-08
1.81426e-06
-7.23895e-08
1.83792e-06
-7.12394e-08
1.86121e-06
-7.0088e-08
1.88412e-06
-6.89017e-08
1.90663e-06
-6.76424e-08
1.9287e-06
-6.62495e-08
1.95027e-06
-6.46453e-08
1.97126e-06
-6.27141e-08
1.99153e-06
-6.02947e-08
2.01088e-06
-5.71445e-08
2.02901e-06
-5.29011e-08
2.04551e-06
-4.69724e-08
2.05976e-06
-3.84187e-08
2.07097e-06
-2.54869e-08
2.0783e-06
-5.30254e-09
2.08219e-06
2.76031e-08
8.56118e-08
2.08473e-06
9.23607e-08
-6.15859e-07
6.09369e-08
-5.12817e-07
1.19175e-08
-3.67275e-07
-4.57154e-08
-2.34465e-07
-1.15767e-07
-1.07614e-07
-2.01697e-07
1.48997e-08
-3.06525e-07
1.33329e-07
-4.32659e-07
2.47302e-07
-5.82706e-07
3.56557e-07
-7.60062e-07
4.61203e-07
-9.69492e-07
5.61826e-07
-1.21524e-06
6.59714e-07
-1.49579e-06
7.56034e-07
-1.8001e-06
8.4977e-07
-2.10935e-06
9.3649e-07
-2.4041e-06
1.00979e-06
-2.67017e-06
1.064e-06
-2.89953e-06
1.09598e-06
-3.08904e-06
1.10535e-06
-3.23929e-06
1.09384e-06
-3.35461e-06
1.06448e-06
-3.44176e-06
1.02065e-06
-3.50802e-06
9.66124e-07
-3.55984e-06
9.04744e-07
-3.60262e-06
8.39696e-07
-3.64073e-06
7.73599e-07
-3.67737e-06
7.08542e-07
-3.71453e-06
6.46049e-07
-3.75318e-06
5.87103e-07
-3.79359e-06
5.32209e-07
-3.83557e-06
4.81512e-07
-3.87861e-06
4.34929e-07
-3.92207e-06
3.92222e-07
-3.96527e-06
3.53072e-07
-4.00756e-06
3.17114e-07
-4.04836e-06
2.83982e-07
-4.08717e-06
2.53317e-07
-4.12357e-06
2.24791e-07
-4.15722e-06
1.98106e-07
-4.18785e-06
1.72999e-07
-4.21523e-06
1.49241e-07
-4.2392e-06
1.26638e-07
-4.25959e-06
1.05025e-07
-4.27629e-06
8.42596e-08
-4.28919e-06
6.42243e-08
-4.2982e-06
4.4818e-08
-4.30325e-06
2.5955e-08
-4.30429e-06
7.55889e-09
-4.30128e-06
-1.04436e-08
-4.29428e-06
-2.81131e-08
-4.28333e-06
-4.54768e-08
-4.2685e-06
-6.2531e-08
-4.24981e-06
-7.92629e-08
-4.22734e-06
-9.56597e-08
-4.20111e-06
-1.11708e-07
-4.17122e-06
-1.27393e-07
-4.13771e-06
-1.42698e-07
-4.10068e-06
-1.57608e-07
-4.06022e-06
-1.72104e-07
-4.01641e-06
-1.86169e-07
-3.96936e-06
-1.99783e-07
-3.91918e-06
-2.12929e-07
-3.86597e-06
-2.25586e-07
-3.80985e-06
-2.37739e-07
-3.75096e-06
-2.49376e-07
-3.6894e-06
-2.60484e-07
-3.62531e-06
-2.71049e-07
-3.55882e-06
-2.8106e-07
-3.49006e-06
-2.90509e-07
-3.41916e-06
-2.99393e-07
-3.34627e-06
-3.07705e-07
-3.27151e-06
-3.15445e-07
-3.19503e-06
-3.22613e-07
-3.11696e-06
-3.2921e-07
-3.03743e-06
-3.35241e-07
-2.95659e-06
-3.40711e-07
-2.87455e-06
-3.45628e-07
-2.79147e-06
-3.50002e-07
-2.70745e-06
-3.53842e-07
-2.62264e-06
-3.57161e-07
-2.53715e-06
-3.59972e-07
-2.4511e-06
-3.6229e-07
-2.36462e-06
-3.6413e-07
-2.27781e-06
-3.6551e-07
-2.19078e-06
-3.66446e-07
-2.10365e-06
-3.66955e-07
-2.01652e-06
-3.67057e-07
-1.92949e-06
-3.66768e-07
-1.84267e-06
-3.66106e-07
-1.75614e-06
-3.65087e-07
-1.67e-06
-3.63724e-07
-1.58435e-06
-3.62028e-07
-1.49925e-06
-3.60007e-07
-1.41479e-06
-3.57662e-07
-1.331e-06
-3.54994e-07
-1.24793e-06
-3.52015e-07
-1.1656e-06
-3.48743e-07
-1.08407e-06
-3.45211e-07
-1.00338e-06
-3.41454e-07
-9.2357e-07
-3.37502e-07
-8.44706e-07
-3.33379e-07
-7.66827e-07
-3.29101e-07
-6.89971e-07
-3.24686e-07
-6.1417e-07
-3.20148e-07
-5.39455e-07
-3.155e-07
-4.6585e-07
-3.10754e-07
-3.93378e-07