/*--------------------------------*- C++ -*----------------------------------*\
| =========                 |                                                 |
| \\      /  F ield         | OpenFOAM: The Open Source CFD Toolbox           |
|  \\    /   O peration     | Version:  v2012                                 |
|   \\  /    A nd           | Website:  www.openfoam.com                      |
|    \\/     M anipulation  |                                                 |
\*---------------------------------------------------------------------------*/
FoamFile
{
    version     2.0;
    format      ascii;
    class       volScalarField;
    location    "300";
    object      nut;
}
// * * * * * * * * * * * * * * * * * * * * * * * * * * * * * * * * * * * * * //

dimensions      [0 2 -1 0 0 0 0];


internalField   nonuniform List<scalar> 
12225
(
0.0122671
0.00158819
0.000666128
0.000410104
0.000294039
0.000227818
0.00018633
0.000144596
0.000165494
0.000214327
0.000222531
0.000215052
0.000195745
0.00016817
0.000162204
0.000145705
0.000133127
0.00012111
0.0323823
0.00744532
0.00330638
0.00204329
0.00146802
0.00114429
0.000938654
0.000785207
0.000689993
0.000625971
0.000569182
0.000519099
0.000475392
0.00043604
0.000404807
0.000372144
0.000347406
0.00032134
0.0490123
0.01515
0.00728195
0.00457854
0.00330639
0.00258044
0.00211339
0.00178196
0.00154616
0.00137165
0.00123135
0.00111563
0.00101876
0.000936406
0.000866632
0.00080438
0.000753677
0.00070116
0.063054
0.0237783
0.0122894
0.00788814
0.00573397
0.00448494
0.00367453
0.00310405
0.00268661
0.00236953
0.00211807
0.0019137
0.00174466
0.00160275
0.00148282
0.00137895
0.00129121
0.00120478
0.074932
0.0328517
0.0181452
0.0119262
0.00874548
0.00686411
0.00563093
0.00476111
0.00411833
0.00362561
0.00323551
0.00291939
0.00265872
0.00244069
0.00225652
0.00209879
0.00196364
0.00184009
0.0849536
0.0420208
0.0246655
0.0166359
0.0123325
0.00972586
0.00799542
0.00676727
0.00585386
0.00515009
0.00459225
0.00414036
0.00376801
0.00345689
0.003194
0.00296946
0.00277639
0.00260678
0.0933822
0.0510219
0.0316642
0.0219415
0.016474
0.0130717
0.0107779
0.00913531
0.0079059
0.00695443
0.00619856
0.00558565
0.00508045
0.00465835
0.00430165
0.00399725
0.00373549
0.00350922
0.0993794
0.0583363
0.0378386
0.0268568
0.0204171
0.0163053
0.0134892
0.0114529
0.00991901
0.00872674
0.00777709
0.00700586
0.00636961
0.00583778
0.00538828
0.00500476
0.00467519
0.0043918
0.104023
0.0645454
0.0433804
0.0314239
0.0241571
0.0194092
0.0161097
0.0137017
0.0118767
0.0104523
0.00931478
0.00838947
0.00762531
0.00698621
0.00644589
0.00598491
0.00558895
0.00524909
0.108368
0.0708939
0.0493756
0.0365496
0.0284517
0.0230231
0.0191863
0.0163548
0.0141927
0.0124969
0.0111382
0.0100306
0.00911457
0.00834783
0.00769934
0.00714602
0.0066709
0.00626317
0.112368
0.0772557
0.0557282
0.0421918
0.0332976
0.0271652
0.0227468
0.0194432
0.0168984
0.0148904
0.013275
0.0119545
0.0108606
0.00994392
0.0091681
0.008506
0.0079375
0.00744928
0.115994
0.0834975
0.0623053
0.0482611
0.0386474
0.0318167
0.026789
0.0229739
0.0200046
0.0176452
0.0157379
0.0141737
0.0128749
0.0117851
0.0108619
0.0100737
0.0093968
0.00881473
0.119234
0.0894856
0.0689377
0.0546109
0.0443919
0.0369007
0.0312597
0.0269088
0.0234836
0.02074
0.0185097
0.0166735
0.015145
0.01386
0.0127705
0.0118396
0.0110398
0.0103509
0.122086
0.095084
0.075415
0.0610223
0.0503361
0.0422535
0.0360231
0.0311353
0.0272402
0.024093
0.021519
0.0193909
0.0176141
0.0161174
0.0148467
0.0137601
0.0128257
0.0120197
0.124546
0.100135
0.0814619
0.0671725
0.056158
0.047577
0.0408126
0.0354174
0.031066
0.0275196
0.0246012
0.0221777
0.0201481
0.0184349
0.0169783
0.0157315
0.0146583
0.0137312
0.126578
0.104396
0.0866605
0.0725515
0.0613228
0.0523526
0.0451453
0.0393148
0.0345631
0.0306611
0.0274325
0.0247409
0.0224806
0.020569
0.0189413
0.0175468
0.0163454
0.0153061
0.128011
0.107322
0.0902141
0.0762353
0.0648743
0.0556509
0.0481493
0.0420254
0.0370012
0.0328553
0.0294126
0.0265352
0.0241143
0.0220643
0.0203171
0.0188191
0.0175275
0.0164083
0.128006
0.107313
0.0902048
0.0762269
0.0648674
0.0556454
0.048145
0.0420222
0.0369988
0.0328537
0.0294117
0.0265349
0.0241147
0.0220652
0.0203184
0.0188206
0.0175286
0.0164082
0.126509
0.104255
0.0864922
0.0723807
0.0611613
0.052205
0.0450128
0.0391967
0.0344584
0.0305685
0.0273506
0.0246684
0.0224163
0.0205118
0.0188903
0.0175006
0.0163023
0.0152631
0.124267
0.0995604
0.0807712
0.0664676
0.0554886
0.0469631
0.0402594
0.0349228
0.0306248
0.0271258
0.0242488
0.0218611
0.0198626
0.0181762
0.0167426
0.0155152
0.0144575
0.0135404
0.12136
0.0936399
0.0737261
0.0593348
0.0487592
0.0408249
0.0347467
0.0300003
0.0262308
0.0231928
0.0207127
0.0186651
0.0169572
0.0155198
0.0142999
0.0132566
0.0123583
0.0115797
0.117686
0.0865903
0.0656967
0.0514791
0.0415374
0.0343608
0.0290184
0.0249322
0.0217349
0.0191849
0.0171185
0.0154212
0.0140107
0.0128264
0.0118229
0.0109657
0.0102279
0.00958891
0.11305
0.0784122
0.056921
0.0432687
0.0342296
0.0279652
0.0234365
0.0200435
0.0174264
0.01536
0.0136969
0.0123373
0.011211
0.0102674
0.00946893
0.00878739
0.00820115
0.00769353
0.107169
0.0691009
0.0476372
0.035029
0.0271566
0.021922
0.0182437
0.0155402
0.0134819
0.0118711
0.0105824
0.00953309
0.00866602
0.00794071
0.0073276
0.00680454
0.00635471
0.00596534
0.0996761
0.0587036
0.0381279
0.0270699
0.0205782
0.0164329
0.0135949
0.0115438
0.00999949
0.00880007
0.00784533
0.00707012
0.00643067
0.0058962
0.00544468
0.00505946
0.00472812
0.00444141
0.0901097
0.0473665
0.0287363
0.0196847
0.0146976
0.0116311
0.0095785
0.00811519
0.00702363
0.00618162
0.00551421
0.00497305
0.00452688
0.00415366
0.00383855
0.00356932
0.00333757
0.00313706
0.0779076
0.0353826
0.0198606
0.0131383
0.00966106
0.00759295
0.00623349
0.00527404
0.00456427
0.00402144
0.00359308
0.00324487
0.00295736
0.00271539
0.00251194
0.00233664
0.00218561
0.00205487
0.06238
0.0232554
0.0119461
0.00765493
0.00556337
0.00435253
0.00356721
0.00301607
0.00261312
0.00231141
0.00207487
0.00187893
0.0017163
0.00157604
0.00146056
0.00135696
0.00126813
0.0011909
0.0426105
0.0117794
0.0054693
0.00341385
0.00246071
0.00192004
0.00157268
0.00132937
0.00115794
0.00104178
0.000950922
0.000866965
0.000795223
0.000729405
0.000672239
0.000621863
0.000575794
0.000540488
0.0168348
0.00255985
0.00110002
0.00068343
0.000493726
0.000386809
0.000318022
0.000268416
0.000266827
0.000336794
0.000373864
0.000353734
0.000319568
0.000289731
0.000255036
0.000238811
0.000192514
0.000242955
5.76366e-10
9.79919e-08
1.20215e-06
5.36763e-06
1.00797e-05
1.29315e-05
1.32575e-05
1.10185e-05
8.60139e-06
5.51234e-06
3.20855e-06
1.83986e-06
1.39122e-06
1.5969e-06
2.11529e-06
2.45754e-06
2.33861e-06
1.49884e-06
5.59109e-07
3.25657e-07
4.71125e-07
1.80468e-06
1.3465e-05
3.74914e-05
6.21466e-05
7.98912e-05
9.54606e-05
0.000108945
0.000120471
0.000130296
0.000138819
0.000146199
0.000152647
0.000158263
0.000163183
0.00016753
0.000171394
0.000174851
0.000177955
0.000180745
0.000183248
0.000185484
0.000187472
0.000189225
0.000190759
0.000192086
0.000193214
0.00019415
0.000194882
0.00019542
0.000195652
0.00019583
0.000195856
0.000195659
0.000195321
0.000194822
0.000194173
0.000193372
0.000192423
0.000191327
0.000190086
0.000188702
0.000187179
0.000185518
0.00018372
0.000181793
0.000179728
0.000177537
0.000175219
0.000172775
0.000170209
0.000167523
0.000164717
0.000161794
0.000158754
0.000155599
0.000152329
0.000148945
0.000145445
0.000141828
0.000138092
0.000134233
0.000130246
0.000126121
0.00012185
0.000117419
0.000112812
0.000108011
0.000102995
9.77363e-05
9.22082e-05
8.63948e-05
8.03284e-05
7.41912e-05
6.85075e-05
6.41353e-05
6.13781e-05
5.94864e-05
5.78358e-05
5.62364e-05
5.46487e-05
5.30674e-05
5.14942e-05
4.99302e-05
4.83782e-05
4.68398e-05
4.53207e-05
4.38401e-05
4.25108e-05
4.13002e-05
4.00937e-05
3.89056e-05
3.77359e-05
3.65848e-05
3.54538e-05
3.43431e-05
3.32539e-05
3.21863e-05
3.11414e-05
3.01189e-05
2.91199e-05
2.81441e-05
2.71928e-05
2.62656e-05
2.53627e-05
2.44847e-05
2.36545e-05
2.29093e-05
2.21828e-05
2.14716e-05
2.07839e-05
2.01246e-05
1.94794e-05
1.88475e-05
1.82327e-05
1.76358e-05
1.70574e-05
1.64972e-05
1.5955e-05
1.54301e-05
1.49222e-05
1.44308e-05
1.39556e-05
1.34961e-05
1.30519e-05
1.26226e-05
1.22078e-05
1.1807e-05
1.142e-05
1.10463e-05
1.06856e-05
1.03376e-05
1.00019e-05
9.67814e-06
9.36612e-06
9.06553e-06
8.77611e-06
8.49762e-06
8.22983e-06
7.97258e-06
7.72567e-06
7.48894e-06
7.26221e-06
7.04533e-06
6.83808e-06
6.64021e-06
6.45141e-06
6.27126e-06
6.09917e-06
5.93446e-06
5.77612e-06
5.62315e-06
5.47341e-06
5.32676e-06
5.1742e-06
5.02993e-06
4.83027e-06
4.68578e-06
4.28682e-06
3.64948e-06
4.00367e-09
5.64353e-06
6.46931e-05
0.000141109
0.000184465
0.00020793
0.000216725
0.000214659
0.000205019
0.000187395
0.000166104
0.000146778
0.000139063
0.000146265
0.00015948
0.000166581
0.000168561
0.000170787
0.000177995
0.000188667
0.000204983
0.00022273
0.000240552
0.0002544
0.00026567
0.00027486
0.000284219
0.000300821
0.000317891
0.00033166
0.00034383
0.000354489
0.000364252
0.000372994
0.000380711
0.000387787
0.000394434
0.000400853
0.000407158
0.000413395
0.000419549
0.000425568
0.000431402
0.00043701
0.000442369
0.000447463
0.000452271
0.000456789
0.000461018
0.000464968
0.000468642
0.000472066
0.000475226
0.000478132
0.000480783
0.000483181
0.000485328
0.000487222
0.000488864
0.000490255
0.000491395
0.000492285
0.000492926
0.000493336
0.000493491
0.000493451
0.000493145
0.000492619
0.000491871
0.000490908
0.000489736
0.000488362
0.000486792
0.000485035
0.000483097
0.000480986
0.00047871
0.000476277
0.000473695
0.000470972
0.000468116
0.000465136
0.00046204
0.000458835
0.00045553
0.000452134
0.000448654
0.000445099
0.000441477
0.000437793
0.000434055
0.000430265
0.00042642
0.000422506
0.000418497
0.00041437
0.00041014
0.000405857
0.000401556
0.000397247
0.000392935
0.000388623
0.000384314
0.000380012
0.000375721
0.000371443
0.00036718
0.000362935
0.000358703
0.000354493
0.000350311
0.00034616
0.000342041
0.000337956
0.000333907
0.000329895
0.000325922
0.00032199
0.000318098
0.000314248
0.000310442
0.000306678
0.00030296
0.000299288
0.000295661
0.000292079
0.00028854
0.000285043
0.000281592
0.000278185
0.00027483
0.000271528
0.000268263
0.000265032
0.000261841
0.000258695
0.000255594
0.000252538
0.000249527
0.00024656
0.000243637
0.000240757
0.000237919
0.000235122
0.000232367
0.000229653
0.000226978
0.000224342
0.000221745
0.000219187
0.000216667
0.000214184
0.00021174
0.000209333
0.000206963
0.000204632
0.000202339
0.000200086
0.000197872
0.0001957
0.000193571
0.000191486
0.000189446
0.000187455
0.000185513
0.000183623
0.000181785
0.000179999
0.000178264
0.000176579
0.00017494
0.000173343
0.000171775
0.000170247
0.00016868
0.000167255
0.000165368
0.000164474
0.000161737
0.000160049
8.50341e-08
4.30631e-05
0.000167568
0.000249054
0.000301273
0.000330385
0.000340174
0.000336168
0.000322162
0.000302409
0.000283174
0.000272521
0.000271877
0.000279623
0.000290226
0.000301587
0.000315585
0.000333957
0.000356636
0.000382529
0.000409953
0.000438236
0.000485424
0.000530836
0.000576328
0.000620283
0.000663444
0.000707039
0.000744006
0.000773497
0.000797012
0.00081568
0.000830489
0.000842265
0.000851791
0.000859812
0.000867017
0.000874028
0.000881346
0.000889276
0.000897863
0.000906943
0.000916264
0.0009256
0.000934784
0.000943707
0.000952302
0.000960522
0.000968332
0.000975707
0.000982615
0.00098904
0.000994973
0.00100041
0.00100535
0.00100979
0.00101373
0.00101717
0.0010201
0.00102254
0.00102447
0.0010259
0.0010268
0.00102718
0.00102722
0.00102673
0.00102575
0.0010243
0.00102242
0.00102009
0.00101734
0.00101418
0.00101062
0.00100668
0.00100237
0.000997715
0.00099272
0.000987405
0.000981784
0.000975873
0.000969689
0.000963246
0.000956562
0.000949651
0.000942529
0.000935211
0.000927713
0.000920049
0.000912233
0.000904277
0.000896192
0.000887989
0.000879678
0.000871268
0.00086277
0.000854196
0.000845562
0.000836886
0.000828182
0.000819463
0.000810736
0.000802011
0.000793295
0.000784596
0.00077592
0.000767274
0.000758663
0.000750095
0.000741574
0.000733106
0.000724696
0.00071635
0.00070807
0.000699862
0.000691728
0.00068367
0.000675693
0.000667799
0.000659989
0.000652266
0.000644631
0.000637087
0.000629634
0.000622275
0.000615008
0.000607834
0.000600755
0.00059377
0.00058688
0.000580086
0.000573388
0.000566783
0.000560266
0.000553835
0.000547491
0.000541239
0.000535077
0.000529007
0.000523028
0.000517139
0.000511338
0.000505625
0.000499998
0.000494457
0.000489001
0.000483626
0.000478334
0.000473122
0.000467989
0.000462934
0.000457956
0.000453054
0.000448227
0.000443473
0.000438791
0.000434182
0.000429643
0.000425173
0.000420771
0.000416437
0.000412167
0.000407962
0.000403819
0.000399736
0.000395711
0.00039174
0.000387818
0.000383942
0.000380103
0.000376293
0.000372501
0.00036871
0.000364898
0.000361043
0.000357073
0.00035301
0.000348539
0.000344077
0.000337622
0.000325623
6.57655e-07
8.44215e-05
0.000215855
0.000311943
0.000374832
0.000410846
0.000425003
0.00042439
0.000413944
0.000401187
0.000394828
0.000396054
0.000407515
0.000426529
0.000450987
0.000480643
0.000516045
0.000557244
0.000603938
0.000672808
0.000749306
0.000831854
0.000911951
0.000979853
0.00104048
0.00109505
0.001144
0.00118747
0.00122528
0.00125792
0.00128614
0.00131065
0.00133213
0.0013512
0.0013684
0.00138421
0.00139901
0.00141313
0.0014268
0.0014402
0.00145343
0.00146657
0.00147961
0.00149254
0.00150529
0.00151779
0.00152993
0.00154161
0.00155275
0.00156328
0.00157315
0.00158232
0.00159078
0.00159852
0.00160551
0.00161177
0.00161727
0.00162203
0.00162603
0.00162929
0.00163178
0.00163351
0.00163438
0.00163463
0.0016342
0.00163299
0.00163106
0.00162842
0.0016251
0.00162111
0.00161647
0.0016112
0.00160533
0.00159888
0.00159186
0.00158431
0.00157624
0.00156768
0.00155866
0.00154919
0.00153931
0.00152904
0.00151839
0.0015074
0.00149609
0.00148447
0.00147259
0.00146045
0.00144808
0.0014355
0.00142272
0.00140977
0.00139666
0.00138341
0.00137005
0.00135657
0.00134302
0.00132941
0.00131575
0.00130207
0.00128838
0.0012747
0.00126102
0.00124738
0.00123377
0.00122021
0.00120671
0.00119327
0.00117991
0.00116663
0.00115344
0.00114035
0.00112737
0.0011145
0.00110174
0.0010891
0.00107659
0.0010642
0.00105195
0.00103983
0.00102785
0.001016
0.0010043
0.000992745
0.000981332
0.000970064
0.000958942
0.000947966
0.000937138
0.000926458
0.000915924
0.000905533
0.000895282
0.000885168
0.000875193
0.000865358
0.000855664
0.000846109
0.000836694
0.000827417
0.000818276
0.000809271
0.000800399
0.000791658
0.000783048
0.000774565
0.000766208
0.000757976
0.000749865
0.000741875
0.000734003
0.000726247
0.000718607
0.00071108
0.000703664
0.000696357
0.000689159
0.000682067
0.000675078
0.000668192
0.000661405
0.000654716
0.00064812
0.000641615
0.000635197
0.00062886
0.000622599
0.000616407
0.000610273
0.000604184
0.000598126
0.000592075
0.000586002
0.00057987
0.000573608
0.000567178
0.000560333
0.000553209
0.000544723
0.000528184
1.52076e-06
0.000104414
0.000238405
0.00035851
0.000436627
0.000483003
0.000505787
0.000514124
0.000516261
0.000518903
0.000528247
0.000547162
0.000575965
0.000613628
0.000659514
0.000713698
0.00077921
0.000866609
0.000965535
0.00105885
0.00114654
0.00122964
0.00130709
0.0013781
0.0014434
0.0015035
0.00155876
0.00160953
0.00165616
0.00169911
0.00173886
0.00177589
0.0018106
0.00184336
0.00187445
0.00190412
0.00193253
0.00195982
0.00198608
0.00201135
0.00203566
0.00205901
0.0020814
0.0021028
0.00212319
0.00214252
0.00216078
0.00217793
0.00219393
0.00220879
0.00222248
0.00223501
0.00224639
0.00225663
0.00226577
0.0022738
0.00228075
0.00228663
0.00229146
0.00229525
0.00229802
0.00229966
0.00230024
0.00229998
0.00229868
0.00229638
0.00229311
0.00228889
0.00228374
0.00227768
0.00227075
0.00226298
0.00225438
0.002245
0.00223487
0.00222401
0.00221246
0.00220026
0.00218743
0.002174
0.00216002
0.0021455
0.00213049
0.00211502
0.00209912
0.00208281
0.00206614
0.00204913
0.00203181
0.00201421
0.00199636
0.00197828
0.00195999
0.00194153
0.00192292
0.00190418
0.00188534
0.00186642
0.00184745
0.00182845
0.00180944
0.00179044
0.00177146
0.00175252
0.00173363
0.00171481
0.00169608
0.00167744
0.0016589
0.00164048
0.00162219
0.00160403
0.00158602
0.00156816
0.00155046
0.00153292
0.00151556
0.00149837
0.00148136
0.00146454
0.0014479
0.00143146
0.00141521
0.00139916
0.0013833
0.00136764
0.00135219
0.00133693
0.00132187
0.00130702
0.00129236
0.0012779
0.00126363
0.00124955
0.00123567
0.00122197
0.00120847
0.00119516
0.00118203
0.0011691
0.00115634
0.00114378
0.00113139
0.00111918
0.00110715
0.00109529
0.0010836
0.00107208
0.00106073
0.00104954
0.00103851
0.00102764
0.00101692
0.00100636
0.000995945
0.00098568
0.000975561
0.000965584
0.000955748
0.00094605
0.000936486
0.000927052
0.000917746
0.000908563
0.000899498
0.000890544
0.000881695
0.00087294
0.000864269
0.000855667
0.000847113
0.000838584
0.000830044
0.000821449
0.000812728
0.000803818
0.00079451
0.000784822
0.000774553
0.00075451
2.45682e-06
0.00012054
0.000259589
0.000394034
0.000490849
0.000552344
0.000590132
0.000614234
0.000633513
0.000655202
0.000684259
0.000722993
0.000771962
0.000831411
0.000904141
0.000999
0.0011056
0.00120715
0.00130582
0.00139998
0.00148941
0.00157413
0.00165408
0.00172934
0.00180022
0.00186707
0.00193024
0.00199004
0.00204681
0.00210088
0.00215256
0.00220214
0.00224984
0.00229587
0.00234037
0.00238346
0.0024252
0.00246566
0.00250485
0.00254277
0.00257942
0.00261476
0.00264878
0.00268143
0.00271266
0.00274244
0.00277073
0.00279747
0.00282264
0.00284619
0.00286811
0.00288836
0.00290694
0.00292382
0.00293901
0.0029525
0.0029643
0.0029744
0.00298284
0.00298961
0.00299476
0.0029983
0.0030001
0.0030005
0.00299941
0.00299683
0.00299285
0.00298749
0.00298083
0.00297292
0.0029638
0.00295353
0.00294217
0.00292976
0.00291637
0.00290203
0.0028868
0.00287072
0.00285383
0.00283619
0.00281784
0.00279882
0.00277918
0.00275894
0.00273817
0.0027169
0.00269516
0.00267301
0.00265047
0.00262759
0.0026044
0.00258092
0.0025572
0.00253327
0.00250917
0.00248491
0.00246054
0.00243609
0.00241157
0.00238702
0.00236247
0.00233793
0.00231342
0.00228898
0.0022646
0.00224032
0.00221614
0.00219209
0.00216818
0.00214442
0.00212082
0.0020974
0.00207417
0.00205113
0.0020283
0.00200567
0.00198327
0.0019611
0.00193915
0.00191744
0.00189597
0.00187474
0.00185376
0.00183303
0.00181256
0.00179233
0.00177235
0.00175263
0.00173317
0.00171396
0.001695
0.00167629
0.00165782
0.0016396
0.00162162
0.00160389
0.00158639
0.00156914
0.00155213
0.00153535
0.0015188
0.00150249
0.0014864
0.00147054
0.0014549
0.00143948
0.00142427
0.00140927
0.00139449
0.00137991
0.00136553
0.00135134
0.00133736
0.00132356
0.00130996
0.00129654
0.0012833
0.00127025
0.00125736
0.00124466
0.00123211
0.00121974
0.00120752
0.00119546
0.00118355
0.00117179
0.00116015
0.00114864
0.00113724
0.00112594
0.00111471
0.00110353
0.00109235
0.00108114
0.00106982
0.00105832
0.00104646
0.00103425
0.00102193
0.00099913
2.93328e-06
0.000128831
0.000272132
0.000411119
0.000530316
0.000612203
0.000669134
0.000712543
0.000751804
0.000794117
0.000844361
0.000905139
0.000980032
0.0010768
0.00118603
0.0012933
0.00139938
0.00150223
0.00160152
0.0016969
0.00178829
0.00187574
0.00195937
0.00203936
0.00211597
0.00218949
0.00226017
0.00232829
0.0023941
0.00245783
0.00251968
0.00257981
0.00263838
0.00269548
0.00275119
0.00280557
0.00285863
0.00291039
0.00296084
0.00300994
0.00305768
0.003104
0.00314886
0.0031922
0.00323397
0.00327412
0.00331258
0.00334932
0.00338426
0.00341737
0.00344859
0.0034779
0.00350525
0.00353061
0.00355395
0.00357526
0.00359452
0.00361172
0.00362684
0.0036399
0.0036509
0.00365984
0.00366675
0.00367168
0.00367453
0.00367546
0.00367455
0.00367174
0.00366713
0.00366075
0.00365267
0.00364294
0.00363163
0.00361879
0.0036045
0.00358882
0.00357183
0.00355359
0.00353417
0.00351364
0.00349208
0.00346956
0.00344613
0.00342188
0.00339686
0.00337114
0.00334479
0.00331786
0.00329041
0.00326249
0.00323415
0.00320544
0.0031764
0.0031471
0.00311756
0.00308783
0.00305795
0.00302797
0.0029979
0.00296779
0.00293766
0.00290755
0.00287748
0.00284747
0.00281756
0.00278775
0.00275808
0.00272855
0.0026992
0.00267003
0.00264105
0.0026123
0.00258376
0.00255547
0.00252742
0.00249963
0.0024721
0.00244485
0.00241788
0.00239119
0.00236479
0.00233869
0.00231289
0.00228738
0.00226218
0.00223728
0.00221268
0.0021884
0.00216441
0.00214074
0.00211736
0.00209429
0.00207151
0.00204903
0.00202684
0.00200494
0.00198333
0.00196201
0.00194098
0.00192022
0.00189975
0.00187956
0.00185964
0.00183998
0.0018206
0.00180147
0.00178261
0.00176399
0.00174563
0.00172751
0.00170963
0.00169199
0.00167459
0.00165741
0.00164047
0.00162374
0.00160723
0.00159094
0.00157486
0.00155899
0.00154332
0.00152785
0.00151258
0.00149749
0.00148258
0.00146785
0.00145328
0.00143887
0.00142459
0.00141045
0.0013964
0.00138242
0.00136848
0.00135453
0.0013405
0.00132631
0.0013118
0.00129702
0.00128195
0.00125742
3.05273e-06
0.000130216
0.000272573
0.000409384
0.000539873
0.000644374
0.000723199
0.000786571
0.000844967
0.000906526
0.000983966
0.00108324
0.00119898
0.00131803
0.001433
0.001544
0.00165145
0.00175549
0.00185608
0.00195322
0.00204696
0.00213744
0.00222482
0.0023093
0.0023911
0.00247047
0.0025476
0.00262273
0.00269602
0.00276765
0.00283775
0.00290644
0.00297379
0.00303987
0.0031047
0.00316831
0.00323069
0.00329182
0.00335166
0.00341017
0.0034673
0.00352299
0.00357717
0.00362979
0.00368077
0.00373005
0.00377755
0.00382321
0.00386697
0.00390877
0.00394855
0.00398625
0.00402183
0.00405525
0.00408646
0.00411544
0.00414215
0.00416657
0.00418869
0.0042085
0.00422599
0.00424116
0.00425402
0.00426459
0.00427288
0.00427894
0.00428274
0.00428431
0.00428383
0.00428122
0.00427658
0.00426993
0.00426135
0.00425089
0.00423861
0.00422459
0.00420889
0.00419159
0.00417274
0.00415244
0.00413075
0.00410775
0.00408351
0.00405811
0.00403163
0.00400413
0.0039757
0.00394641
0.00391632
0.00388551
0.00385404
0.00382197
0.00378936
0.00375629
0.0037228
0.00368896
0.00365483
0.00362045
0.00358588
0.00355115
0.00351633
0.00348144
0.00344652
0.00341162
0.00337676
0.00334197
0.0033073
0.00327275
0.00323836
0.00320415
0.00317013
0.00313634
0.00310279
0.00306948
0.00303645
0.00300369
0.00297122
0.00293906
0.00290721
0.00287567
0.00284446
0.00281358
0.00278304
0.00275284
0.00272298
0.00269346
0.00266429
0.00263547
0.002607
0.00257888
0.0025511
0.00252367
0.00249658
0.00246982
0.00244341
0.00241733
0.00239158
0.00236617
0.00234108
0.00231632
0.00229189
0.00226777
0.00224396
0.00222047
0.00219728
0.00217439
0.0021518
0.00212951
0.0021075
0.00208578
0.00206433
0.00204317
0.00202227
0.00200164
0.00198128
0.00196117
0.00194132
0.00192172
0.00190236
0.00188325
0.00186437
0.00184573
0.00182731
0.00180912
0.00179114
0.00177336
0.00175579
0.00173839
0.00172117
0.0017041
0.00168716
0.00167032
0.00165354
0.00163678
0.00161996
0.00160301
0.00158579
0.00156836
0.00155039
0.00152405
2.83911e-06
0.000126225
0.000265057
0.000396415
0.000520426
0.000632019
0.000727334
0.000813343
0.000905295
0.00100747
0.00112398
0.00125469
0.00139057
0.00151701
0.00163673
0.00175136
0.00186171
0.00196804
0.0020707
0.00217006
0.00226635
0.00235982
0.00245066
0.0025391
0.00262536
0.00270963
0.0027921
0.00287295
0.00295233
0.00303035
0.00310713
0.00318273
0.00325721
0.00333059
0.00340288
0.00347407
0.00354414
0.00361303
0.0036807
0.00374709
0.00381212
0.00387573
0.00393784
0.00399836
0.00405722
0.00411434
0.00416963
0.00422301
0.00427442
0.00432378
0.00437103
0.00441609
0.00445892
0.00449945
0.00453765
0.00457348
0.00460688
0.00463785
0.00466635
0.00469236
0.00471589
0.00473691
0.00475544
0.00477149
0.00478506
0.00479618
0.00480487
0.00481117
0.00481509
0.00481667
0.00481603
0.00481316
0.00480811
0.00480095
0.00479174
0.00478054
0.00476742
0.00475243
0.00473567
0.00471719
0.00469707
0.00467539
0.00465222
0.00462763
0.00460171
0.00457453
0.00454616
0.00451668
0.00448618
0.0044547
0.00442234
0.00438915
0.00435521
0.00432059
0.00428535
0.00424956
0.00421328
0.00417657
0.00413949
0.00410211
0.00406446
0.00402661
0.00398859
0.00395046
0.00391226
0.00387402
0.00383579
0.0037976
0.00375949
0.00372148
0.00368361
0.0036459
0.00360837
0.00357105
0.00353397
0.00349713
0.00346056
0.00342426
0.00338827
0.00335258
0.00331721
0.00328217
0.00324746
0.00321311
0.0031791
0.00314544
0.00311215
0.00307922
0.00304666
0.00301447
0.00298264
0.00295118
0.00292009
0.00288936
0.00285899
0.00282899
0.00279935
0.00277008
0.00274115
0.00271259
0.00268437
0.00265651
0.00262899
0.00260181
0.00257497
0.00254846
0.00252228
0.00249643
0.0024709
0.00244568
0.00242077
0.00239618
0.00237188
0.00234789
0.00232419
0.00230078
0.00227766
0.00225482
0.00223226
0.00220997
0.00218794
0.00216619
0.00214469
0.00212344
0.00210244
0.00208167
0.00206113
0.0020408
0.00202067
0.00200072
0.00198093
0.00196126
0.00194168
0.00192213
0.00190255
0.00188286
0.00186294
0.00184284
0.00182205
0.00179359
2.40355e-06
0.000118894
0.000254163
0.00038278
0.000506528
0.000624549
0.000737871
0.000852134
0.00097295
0.00110466
0.00124757
0.00140087
0.00154297
0.00167453
0.00179847
0.00191664
0.0020301
0.00213947
0.00224513
0.00234729
0.00244636
0.00254274
0.00263675
0.00272865
0.00281867
0.00290702
0.00299389
0.00307942
0.00316375
0.00324698
0.0033292
0.00341045
0.00349077
0.00357015
0.00364861
0.00372609
0.00380256
0.00387795
0.00395221
0.00402525
0.00409699
0.00416734
0.0042362
0.0043035
0.00436912
0.00443298
0.00449499
0.00455505
0.00461309
0.00466901
0.00472275
0.00477423
0.00482339
0.00487016
0.00491449
0.00495633
0.00499565
0.00503241
0.00506657
0.00509812
0.00512705
0.00515335
0.005177
0.00519803
0.00521644
0.00523225
0.00524548
0.00525617
0.00526433
0.00527002
0.00527325
0.00527412
0.00527266
0.00526892
0.00526296
0.00525484
0.00524462
0.00523238
0.00521817
0.00520207
0.00518416
0.00516451
0.00514318
0.00512026
0.00509583
0.00506995
0.00504271
0.00501418
0.00498443
0.00495355
0.00492159
0.00488863
0.00485475
0.00482001
0.00478448
0.00474823
0.00471133
0.00467384
0.00463583
0.00459735
0.00455846
0.00451921
0.00447967
0.00443988
0.00439988
0.00435973
0.00431947
0.00427913
0.00423877
0.0041984
0.00415808
0.00411783
0.00407768
0.00403766
0.0039978
0.00395811
0.00391863
0.00387938
0.00384036
0.00380161
0.00376313
0.00372494
0.00368706
0.00364949
0.00361224
0.00357532
0.00353875
0.00350252
0.00346664
0.00343112
0.00339596
0.00336117
0.00332673
0.00329267
0.00325896
0.00322563
0.00319266
0.00316006
0.00312782
0.00309594
0.00306443
0.00303328
0.00300249
0.00297206
0.00294197
0.00291224
0.00288285
0.00285381
0.0028251
0.00279673
0.00276869
0.00274097
0.00271359
0.00268652
0.00265976
0.00263333
0.00260719
0.00258137
0.00255584
0.00253062
0.00250568
0.00248103
0.00245666
0.00243257
0.00240875
0.00238519
0.00236188
0.0023388
0.00231595
0.0022933
0.00227083
0.0022485
0.00222628
0.00220412
0.00218194
0.00215967
0.0021372
0.00211455
0.00209116
0.00206038
1.98402e-06
0.000111397
0.000244369
0.000372809
0.000500172
0.000627014
0.000755761
0.000889463
0.00103214
0.00118463
0.00134726
0.00150861
0.00165588
0.00179201
0.00191994
0.00204157
0.00215814
0.00227046
0.00237904
0.0024843
0.00258652
0.00268592
0.00278295
0.00287797
0.00297126
0.00306308
0.00315361
0.00324303
0.00333146
0.00341899
0.00350571
0.00359164
0.00367682
0.00376122
0.00384483
0.00392761
0.00400948
0.00409039
0.00417025
0.00424896
0.00432644
0.00440257
0.00447725
0.00455038
0.00462186
0.00469156
0.0047594
0.00482527
0.00488908
0.00495074
0.00501016
0.00506726
0.00512198
0.00517423
0.00522397
0.00527113
0.00531568
0.00535758
0.00539679
0.00543328
0.00546705
0.00549807
0.00552636
0.0055519
0.00557471
0.0055948
0.0056122
0.00562693
0.00563903
0.00564853
0.00565547
0.0056599
0.00566188
0.00566145
0.00565868
0.00565363
0.00564636
0.00563692
0.0056254
0.00561186
0.00559637
0.005579
0.00555984
0.00553894
0.0055164
0.00549229
0.00546667
0.00543963
0.00541124
0.00538158
0.00535072
0.00531872
0.00528567
0.00525162
0.00521666
0.00518084
0.00514424
0.00510692
0.00506895
0.00503038
0.00499129
0.00495171
0.00491172
0.00487136
0.00483068
0.00478973
0.00474856
0.00470722
0.00466573
0.00462416
0.00458252
0.00454086
0.00449922
0.00445762
0.00441609
0.00437467
0.00433337
0.00429223
0.00425126
0.00421049
0.00416993
0.0041296
0.00408953
0.00404972
0.00401018
0.00397093
0.00393199
0.00389335
0.00385503
0.00381703
0.00377937
0.00374204
0.00370505
0.00366841
0.00363211
0.00359617
0.00356057
0.00352533
0.00349044
0.00345591
0.00342173
0.0033879
0.00335443
0.00332131
0.00328855
0.00325613
0.00322406
0.00319233
0.00316095
0.0031299
0.00309919
0.00306882
0.00303878
0.00300907
0.00297968
0.00295061
0.00292187
0.00289344
0.00286532
0.00283751
0.00281001
0.00278282
0.00275592
0.00272931
0.00270298
0.00267694
0.00265116
0.00262563
0.00260035
0.00257528
0.00255042
0.00252571
0.00250113
0.00247661
0.00245211
0.00242753
0.00240278
0.00237785
0.00235219
0.0023192
1.58543e-06
0.000103315
0.000234092
0.000362424
0.000493
0.000626867
0.000767108
0.000915087
0.00107194
0.00123814
0.00141399
0.00157977
0.00173125
0.00187141
0.00200297
0.00212784
0.00224734
0.00236238
0.00247364
0.0025816
0.00268665
0.00278911
0.00288924
0.00298725
0.00308355
0.00317846
0.0032722
0.00336496
0.00345688
0.00354808
0.00363861
0.00372853
0.00381783
0.00390651
0.00399452
0.00408182
0.00416833
0.00425398
0.00433865
0.00442226
0.00450469
0.00458582
0.00466555
0.00474375
0.0048203
0.0048951
0.00496803
0.00503898
0.00510784
0.00517453
0.00523894
0.00530098
0.00536059
0.00541769
0.00547221
0.0055241
0.00557331
0.00561978
0.0056635
0.00570443
0.00574255
0.00577784
0.00581031
0.00583996
0.00586678
0.00589081
0.00591205
0.00593053
0.00594629
0.00595936
0.00596978
0.00597759
0.00598286
0.00598562
0.00598593
0.0059839
0.00597953
0.0059729
0.00596409
0.00595316
0.00594018
0.00592523
0.00590838
0.00588969
0.00586926
0.00584716
0.00582345
0.00579822
0.00577154
0.00574348
0.00571411
0.00568351
0.00565175
0.0056189
0.00558502
0.00555019
0.00551448
0.00547794
0.00544064
0.00540266
0.00536403
0.00532484
0.00528512
0.00524493
0.00520433
0.00516337
0.00512209
0.00508054
0.00503876
0.0049968
0.00495469
0.00491247
0.00487019
0.00482786