/*--------------------------------*- C++ -*----------------------------------*\
| =========                 |                                                 |
| \\      /  F ield         | OpenFOAM: The Open Source CFD Toolbox           |
|  \\    /   O peration     | Version:  v2012                                 |
|   \\  /    A nd           | Website:  www.openfoam.com                      |
|    \\/     M anipulation  |                                                 |
\*---------------------------------------------------------------------------*/
FoamFile
{
    version     2.0;
    format      ascii;
    class       volScalarField;
    location    "300";
    object      p;
}
// * * * * * * * * * * * * * * * * * * * * * * * * * * * * * * * * * * * * * //

dimensions      [0 2 -2 0 0 0 0];


internalField   nonuniform List<scalar> 
12225
(
514.711
55.5637
2.39974
0.318244
-1.86152
-3.33686
-3.77718
-3.97969
-4.18722
-4.33565
-4.37917
-4.38174
-4.38137
-4.40889
-4.46064
-4.53249
-4.68704
-4.902
-122.144
0.274398
-2.68253
-0.728588
-2.17926
-3.48741
-3.91382
-4.09935
-4.23703
-4.32829
-4.3992
-4.45847
-4.51374
-4.5528
-4.58324
-4.6158
-4.69141
-4.81644
-200.61
-16.113
-2.3106
-0.32187
-1.86368
-3.20716
-3.73241
-3.98617
-4.15757
-4.27397
-4.36659
-4.43498
-4.48557
-4.51403
-4.53455
-4.55377
-4.59165
-4.58901
-110.581
-10.9387
-2.14138
-0.395676
-1.75073
-2.99113
-3.56192
-3.87306
-4.08575
-4.23055
-4.3336
-4.40339
-4.451
-4.47977
-4.49911
-4.50878
-4.51016
-4.44408
-61.5378
-8.11058
-3.58692
-1.17379
-1.97838
-2.96079
-3.49071
-3.81438
-4.04154
-4.19751
-4.30572
-4.37916
-4.42896
-4.45949
-4.47546
-4.47363
-4.44758
-4.35635
-45.6959
-8.75012
-5.22325
-2.1643
-2.39334
-3.06388
-3.49907
-3.7995
-4.01957
-4.1751
-4.28498
-4.36112
-4.41248
-4.44277
-4.45433
-4.44348
-4.40231
-4.30544
-35.7598
-9.24146
-6.34516
-3.08892
-2.88562
-3.25325
-3.56735
-3.82116
-4.01991
-4.16688
-4.27392
-4.34961
-4.40054
-4.42964
-4.43814
-4.4228
-4.37713
-4.28721
-27.7434
-8.87239
-6.93882
-3.76747
-3.32609
-3.46266
-3.66513
-3.867
-4.03903
-4.17296
-4.27381
-4.34671
-4.3962
-4.42447
-4.43221
-4.41693
-4.37411
-4.29665
-21.6555
-8.48549
-7.09974
-4.27565
-3.69382
-3.67089
-3.78172
-3.93195
-4.07428
-4.19198
-4.28406
-4.35244
-4.3997
-4.4272
-4.43528
-4.42228
-4.38558
-4.32213
-16.5783
-8.10633
-7.05364
-4.72087
-4.04859
-3.89987
-3.92533
-4.02019
-4.12806
-4.22542
-4.30576
-4.36775
-4.41193
-4.43877
-4.44835
-4.43989
-4.41246
-4.36601
-12.6048
-7.64668
-6.87188
-5.06749
-4.37264
-4.13638
-4.08852
-4.12913
-4.20043
-4.2747
-4.34101
-4.39511
-4.43562
-4.46217
-4.47463
-4.47293
-4.45749
-4.42981
-9.66499
-7.11476
-6.5952
-5.29262
-4.64488
-4.36361
-4.26141
-4.25446
-4.29044
-4.34079
-4.39188
-4.43722
-4.47394
-4.50079
-4.51753
-4.52448
-4.52271
-4.51442
-7.6322
-6.57088
-6.27219
-5.39786
-4.84965
-4.56408
-4.43086
-4.38827
-4.39412
-4.42243
-4.45883
-4.49571
-4.52908
-4.55716
-4.57937
-4.59615
-4.60867
-4.61898
-6.33725
-6.07937
-5.9521
-5.40682
-4.98255
-4.72459
-4.58347
-4.52021
-4.50463
-4.51559
-4.53999
-4.57004
-4.6014
-4.63179
-4.66043
-4.68742
-4.71374
-4.7408
-5.58912
-5.68885
-5.67556
-5.35751
-5.05274
-4.84004
-4.70908
-4.63982
-4.61311
-4.6136
-4.63048
-4.65676
-4.68815
-4.72222
-4.75784
-4.79482
-4.83355
-4.87484
-5.20993
-5.42677
-5.47478
-5.29435
-5.08198
-4.91511
-4.80304
-4.73827
-4.7098
-4.70715
-4.722
-4.74844
-4.78249
-4.82173
-4.86477
-4.91103
-4.96037
-5.01303
-5.06878
-5.31095
-5.38372
-5.26585
-5.102
-4.96305
-4.86559
-4.80786
-4.78293
-4.78289
-4.80088
-4.83161
-4.87131
-4.91748
-4.96848
-5.02339
-5.08168
-5.14317
-5.10644
-5.36675
-5.44095
-5.315
-5.14134
-4.99586
-4.89576
-4.83878
-4.817
-4.82202
-4.8463
-4.88426
-4.93169
-4.98589
-5.04486
-5.10752
-5.173
-5.24098
-5.35859
-5.62104
-5.65692
-5.44199
-5.19307
-5.00296
-4.88218
-4.81935
-4.80057
-4.81299
-4.84678
-4.89466
-4.95185
-5.01505
-5.08226
-5.15207
-5.22378
-5.29686
-5.9677
-6.10267
-6.00863
-5.60142
-5.2138
-4.95449
-4.80841
-4.74392
-4.73475
-4.7614
-4.8101
-4.87197
-4.94144
-5.01516
-5.09109
-5.16811
-5.24553
-5.32319
-7.2151
-6.85509
-6.45998
-5.72802
-5.14975
-4.82027
-4.66429
-4.6148
-4.62928
-4.68027
-4.75072
-4.83075
-4.91485
-5.0001
-5.08505
-5.16902
-5.25176
-5.33337
-9.60638
-7.92995
-6.94819
-5.73786
-4.94617
-4.57956
-4.45024
-4.4428
-4.49857
-4.58459
-4.68277
-4.78387
-4.88363
-4.98038
-5.07377
-5.1639
-5.25113
-5.33592
-13.9474
-9.35626
-7.36856
-5.53536
-4.56128
-4.23169
-4.18353
-4.24928
-4.3625
-4.49115
-4.61991
-4.7425
-4.85694
-4.96367
-5.06384
-5.1587
-5.24915
-5.33614
-20.8549
-10.9191
-7.51942
-5.02289
-3.98227
-3.80328
-3.89858
-4.06384
-4.24352
-4.41578
-4.57332
-4.71454
-4.84097
-4.95479
-5.05925
-5.15676
-5.24892
-5.33688
-29.7015
-11.9144
-6.99862
-4.09161
-3.23029
-3.3453
-3.63949
-3.91661
-4.16031
-4.37025
-4.55
-4.70451
-4.83798
-4.95531
-5.06123
-5.15949
-5.25178
-5.33961
-43.0714
-12.5789
-5.43779
-2.6943
-2.3793
-2.93051
-3.45247
-3.83147
-4.12377
-4.35861
-4.55179
-4.71176
-4.84655
-4.96278
-5.06775
-5.16552
-5.25715
-5.3444
-84.5644
-17.3384
-3.62901
-1.23065
-1.66185
-2.68861
-3.4039
-3.83802
-4.14117
-4.37786
-4.57548
-4.73713
-4.86787
-4.97605
-5.07534
-5.17105
-5.26181
-5.3492
-177.851
-26.8145
-3.64501
-0.735339
-1.50077
-2.80956
-3.58142
-3.98207
-4.2334
-4.42852
-4.61529
-4.78197
-4.91533
-5.01344
-5.0988
-5.18488
-5.26965
-5.35678
-154.755
-9.59218
-3.23724
-1.03339
-1.8087
-3.18718
-3.88051
-4.19071
-4.37861
-4.51711
-4.6631
-4.81857
-4.96746
-5.08064
-5.16928
-5.24883
-5.32099
-5.40891
428.092
66.6406
7.09108
1.6343
-0.881209
-2.82308
-3.61895
-3.95928
-4.27636
-4.54568
-4.66663
-4.70683
-4.759
-4.86998
-4.99955
-5.11213
-5.21294
-5.2853
-8.44795
-8.43495
-8.42739
-8.47391
-8.57003
-8.67352
-8.75051
-8.78637
-8.78654
-8.76665
-8.7383
-8.71024
-8.69047
-8.68415
-8.69072
-8.70256
-8.71164
-8.71478
-8.71604
-8.7211
-8.73389
-8.77864
-8.89225
-9.09083
-9.36523
-9.70093
-10.0884
-10.5144
-10.9629
-11.4179
-11.8651
-12.2934
-12.6942
-13.0617
-13.392
-13.6833
-13.9346
-14.1464
-14.3193
-14.4546
-14.5532
-14.6168
-14.6466
-14.644
-14.61
-14.5461
-14.4543
-14.3372
-14.1951
-14.0241
-13.8226
-13.5936
-13.3392
-13.0609
-12.7601
-12.4376
-12.0946
-11.7321
-11.3512
-10.9528
-10.5382
-10.1085
-9.66481
-9.20839
-8.74044
-8.26217
-7.77485
-7.27969
-6.77795
-6.27081
-5.75952
-5.24519
-4.72903
-4.21207
-3.69546
-3.18013
-2.66716
-2.15738
-1.65175
-1.151
-0.655985
-0.167296
0.314311
0.788363
1.25423
1.71157
2.15988
2.59885
3.02808
3.44737
3.85665
4.25571
4.64444
5.02303
5.39158
5.74972
6.09696
6.4332
6.75862
7.07352
7.37811
7.67261
7.95719
8.23208
8.49747
8.7536
9.00068
9.23897
9.46866
9.69
9.90324
10.1086
10.3065
10.4969
10.6804
10.8569
11.0269
11.1906
11.3482
11.4999
11.6459
11.7866
11.9221
12.0525
12.1782
12.2994
12.4161
12.5286
12.6371
12.7417
12.8428
12.9407
13.0353
13.1266
13.2148
13.2999
13.3822
13.4618
13.5387
13.6132
13.6852
13.755
13.8226
13.8881
13.9516
14.0131
14.0728
14.1307
14.1869
14.2413
14.2942
14.3455
14.3952
14.4435
14.4903
14.5356
14.5796
14.6222
14.6635
14.7035
14.7421
14.7794
14.8155
14.8503
14.8839
14.9163
14.9474
14.9775
15.0065
15.0345
15.0618
15.0885
15.115
15.1417
15.1696
15.1996
15.2344
15.2755
15.3331
15.3935
-8.50992
-8.54331
-8.62098
-8.71788
-8.82275
-8.9138
-8.97186
-8.99122
-8.96727
-8.89994
-8.80583
-8.70865
-8.63061
-8.58414
-8.56508
-8.56376
-8.57746
-8.60889
-8.64549
-8.66089
-8.69421
-8.79753
-8.98597
-9.24789
-9.57673
-9.96902
-10.4102
-10.8792
-11.3548
-11.8214
-12.2673
-12.6841
-13.066
-13.4101
-13.7149
-13.9805
-14.2073
-14.3965
-14.5492
-14.6666
-14.7497
-14.7997
-14.8175
-14.8038
-14.7595
-14.6852
-14.5809
-14.4467
-14.2835
-14.0959
-13.8866
-13.6545
-13.3992
-13.121
-12.8206
-12.4989
-12.1567
-11.7951
-11.4149
-11.0174
-10.6035
-10.1744
-9.73135
-9.27546
-8.80794
-8.33003
-7.84297
-7.348
-6.84635
-6.33922
-5.82784
-5.31335
-4.79692
-4.27963
-3.76258
-3.24677
-2.73321
-2.22278
-1.71641
-1.21488
-0.718985
-0.229391
0.253212
0.728275
1.19522
1.65363
2.10303
2.54304
2.97324
3.39342
3.80337
4.20286
4.59171
4.9699
5.33768
5.69522
6.04263
6.37975
6.70647
7.02279
7.32884
7.62479
7.91083
8.18714
8.45394
8.71143
8.95984
9.19942
9.43042
9.65307
9.86761
10.0743
10.2733
10.465
10.6496
10.8274
10.9985
11.1633
11.3219
11.4747
11.6218
11.7634
11.8999
12.0315
12.1583
12.2805
12.3984
12.512
12.6216
12.7274
12.8292
12.9273
13.0219
13.1134
13.2018
13.2871
13.3697
13.4495
13.5268
13.6016
13.6739
13.744
13.812
13.8778
13.9416
14.0034
14.0634
14.1216
14.178
14.2327
14.2858
14.3374
14.3874
14.4359
14.4829
14.5285
14.5727
14.6155
14.6569
14.6971
14.7359
14.7734
14.8096
14.8446
14.8783
14.9108
14.9422
14.9723
15.0015
15.0296
15.057
15.0838
15.1104
15.1372
15.1651
15.195
15.2292
15.2682
15.3215
15.3712
-8.64188
-8.72714
-8.84643
-8.95206
-9.03348
-9.08466
-9.10165
-9.08296
-9.02737
-8.93837
-8.82645
-8.71055
-8.61558
-8.55836
-8.53471
-8.53442
-8.56277
-8.63469
-8.75452
-8.91449
-9.11889
-9.37782
-9.68897
-10.0408
-10.4228
-10.8262
-11.2399
-11.652
-12.0529
-12.4365
-12.7981
-13.1345
-13.4432
-13.7228
-13.9723
-14.1914
-14.3798
-14.5378
-14.6655
-14.7634
-14.8316
-14.8707
-14.881
-14.8628
-14.8168
-14.7432
-14.6423
-14.5139
-14.358
-14.1761
-13.9697
-13.7394
-13.4857
-13.2093
-12.9108
-12.591
-12.2508
-11.891
-11.5127
-11.1168
-10.7045
-10.2769
-9.83516
-9.38044
-8.91394
-8.4369
-7.95056
-7.45614
-6.95489
-6.44802
-5.93674
-5.42222
-4.90561
-4.38802
-3.87053
-3.35417
-2.83993
-2.32874
-1.82149
-1.31899
-0.822033
-0.331309
0.152515
0.628853
1.09716
1.55697
2.00785
2.4494
2.88125
3.3032
3.71508
4.11672
4.50796
4.88873
5.25905
5.61892
5.96839
6.30741
6.63598
6.95417
7.2621
7.55992
7.84781
8.12595
8.39455
8.65383
8.904
9.14531
9.37799
9.60228
9.81843
10.0267
10.2273
10.4205
10.6065
10.7857
10.9582
11.1243
11.2843
11.4384
11.5867
11.7296
11.8672
11.9997
12.1274
12.2504
12.369
12.4833
12.5936
12.7
12.8025
12.9015
12.9973
13.0898
13.1792
13.2655
13.349
13.4297
13.5077
13.5832
13.6563
13.7271
13.7956
13.8621
13.9264
13.9888
14.0493
14.108
14.1649
14.2201
14.2737
14.3256
14.376
14.4249
14.4722
14.5182
14.5627
14.6058
14.6476
14.688
14.7271
14.7648
14.8013
14.8365
14.8705
14.9032
14.9347
14.965
14.9943
15.0226
15.0501
15.077
15.1036
15.1303
15.1579
15.1872
15.22
15.256
15.3029
15.3361
-8.67008
-8.76846
-8.87076
-8.95832
-9.02278
-9.06139
-9.07165
-9.05104
-9.00023
-8.9254
-8.83961
-8.76082
-8.7071
-8.6899
-8.71288
-8.77843
-8.89085
-9.05326
-9.26488
-9.51879
-9.80579
-10.1194
-10.4535
-10.8018
-11.1594
-11.521
-11.881
-12.2346
-12.5771
-12.9048
-13.2146
-13.5039
-13.7706
-14.0134
-14.2309
-14.4224
-14.5873
-14.7253
-14.8361
-14.9198
-14.9763
-15.0057
-15.008
-14.9834
-14.932
-14.854
-14.7498
-14.6195
-14.4638
-14.2832
-14.0784
-13.8498
-13.5978
-13.3232
-13.0265
-12.7085
-12.37
-12.0119
-11.6351
-11.2407
-10.8297
-10.4033
-9.96256
-9.50867
-9.04284
-8.56631
-8.0803
-7.58606
-7.0848
-6.57777
-6.06616
-5.55115
-5.0339
-4.51553
-3.99712
-3.47971
-2.96429
-2.45181
-1.94315
-1.43914
-0.940571
-0.448152
0.0374521
0.515642
0.985871
1.44766
1.90057
2.34419
2.77818
3.20233
3.61645
4.02039
4.41398
4.79717
5.1699
5.53215
5.88387
6.22508
6.55582
6.87616
7.18623
7.48618
7.77617
8.05639
8.32705
8.58835
8.84051
9.08376
9.31835
9.5445
9.76247
9.97248
10.1748
10.3697
10.5575
10.7383
10.9124
11.08
11.2414
11.3968
11.5465
11.6907
11.8296
11.9634
12.0922
12.2165
12.3362
12.4517
12.563
12.6704
12.7741
12.8742
12.971
13.0645
13.1548
13.2421
13.3264
13.4079
13.4868
13.563
13.6369
13.7084
13.7776
13.8447
13.9096
13.9726
14.0337
14.0929
14.1504
14.2061
14.2601
14.3125
14.3633
14.4126
14.4604
14.5067
14.5516
14.595
14.6371
14.6779
14.7172
14.7553
14.792
14.8275
14.8616
14.8946
14.9263
14.9568
14.9862
15.0146
15.0421
15.0689
15.0953
15.1217
15.1487
15.1768
15.2074
15.2392
15.278
15.2961
-8.43598
-8.52286
-8.62657
-8.72682
-8.80609
-8.85948
-8.88645
-8.88857
-8.87121
-8.84369
-8.81903
-8.81136
-8.83317
-8.89333
-8.99738
-9.14762
-9.34283
-9.57713
-9.84193
-10.1299
-10.436
-10.7561
-11.0855
-11.4191
-11.7529
-12.0834
-12.4071
-12.7211
-13.0227
-13.3097
-13.5801
-13.8323
-14.0649
-14.2769
-14.4672
-14.6349
-14.7795
-14.9003
-14.9968
-15.0689
-15.116
-15.1381
-15.1349
-15.1063
-15.0523
-14.973
-14.8682
-14.7382
-14.5833
-14.404
-14.2005
-13.9734
-13.723
-13.4499
-13.1548
-12.8384
-12.5014
-12.1448
-11.7694
-11.3762
-10.9664
-10.5409
-10.101
-9.64774
-9.18243
-8.70625
-8.22044
-7.72622
-7.22485
-6.71753
-6.20548
-5.68988
-5.17191
-4.65267
-4.13326
-3.61472
-3.09805
-2.58421
-2.07407
-1.56849
-1.06825
-0.574072
-0.0866193
0.393496
0.865726
1.32958
1.78461
2.23042
2.66667
3.09311
3.50959
3.91591
4.3119
4.69748
5.07258
5.43718
5.79122
6.13475
6.46779
6.79044
7.1028
7.40503
7.69728
7.97974
8.25261
8.51609
8.77039
9.01576
9.25244
9.48065
9.70062
9.91262
10.1169
10.3136
10.5032
10.6857
10.8615
11.0309
11.1939
11.351
11.5022
11.6479
11.7883
11.9235
12.0538
12.1794
12.3005
12.4172
12.5298
12.6384
12.7432
12.8445
12.9423
13.0368
13.1281
13.2163
13.3015
13.3839
13.4636
13.5407
13.6153
13.6876
13.7575
13.8253
13.891
13.9546
14.0163
14.0762
14.1342
14.1904
14.245
14.2979
14.3492
14.3989
14.4472
14.4939
14.5392
14.5831
14.6256
14.6666
14.7064
14.7447
14.7818
14.8175
14.8519
14.8851
14.9169
14.9476
14.9771
15.0056
15.033
15.0597
15.0858
15.1116
15.1376
15.1641
15.1919
15.219
15.2498
15.2554
-7.9959
-8.08829
-8.21487
-8.34276
-8.45205
-8.53563
-8.59718
-8.64335
-8.68263
-8.72533
-8.78258
-8.86418
-8.97749
-9.12664
-9.31306
-9.53456
-9.78612
-10.0623
-10.3575
-10.6663
-10.9833
-11.304
-11.6246
-11.9419
-12.2532
-12.5566
-12.8502
-13.1325
-13.4021
-13.6578
-13.8982
-14.1225
-14.3294
-14.5181
-14.6875
-14.837
-14.9657
-15.073
-15.1582
-15.2208
-15.2602
-15.2762
-15.2683
-15.2363
-15.1799
-15.0991
-14.9937
-14.8638
-14.7095
-14.531
-14.3287
-14.1028
-13.8539
-13.5823
-13.2887
-12.9738
-12.6384
-12.2832
-11.9091
-11.5172
-11.1085
-10.6841
-10.245
-9.7925
-9.32775
-8.85197
-8.36639
-7.87225
-7.37078
-6.8632
-6.35075
-5.83459
-5.3159
-4.79581
-4.27542
-3.75576
-3.23786
-2.72266
-2.21106
-1.70391
-1.202
-0.706065
-0.216766
0.265277
0.739509
1.20543
1.6626
2.11061
2.5491
2.97787
3.39671
3.8054
4.20379
4.59177
4.96926
5.33622
5.69264
6.03852
6.37393
6.69894
7.01367
7.31824
7.61283
7.89762
8.17279
8.43854
8.6951
8.94268
9.18151
9.41184
9.6339
9.84795
10.0542
10.253
10.4444
10.6289
10.8066
10.9777
11.1425
11.3013
11.4542
11.6015
11.7435
11.8802
12.0121
12.1391
12.2616
12.3797
12.4936
12.6035
12.7096
12.812
12.911
13.0065
13.0989
13.1881
13.2743
13.3577
13.4383
13.5163
13.5918
13.6649
13.7357
13.8042
13.8706
13.935
13.9974
14.0579
14.1165
14.1734
14.2285
14.282
14.3339
14.3841
14.4329
14.4801
14.5258
14.5702
14.613
14.6545
14.6946
14.7333
14.7707
14.8067
14.8414
14.8748
14.9069
14.9377
14.9673
14.9958
15.0231
15.0496
15.0752
15.1003
15.125
15.1495
15.1741
15.1963
15.2199
15.2146
-7.5254
-7.62804
-7.77616
-7.93125
-8.07536
-8.20029
-8.31027
-8.41524
-8.52507
-8.64857
-8.79259
-8.96122
-9.15672
-9.37902
-9.62633
-9.89622
-10.1853
-10.4888
-10.8013
-11.1182
-11.4353
-11.7495
-12.0583
-12.3599
-12.6527
-12.9357
-13.2077
-13.468
-13.7156
-13.9498
-14.1696
-14.3744
-14.5631
-14.7351
-14.8894
-15.0252
-15.1419
-15.2386
-15.3147
-15.3696
-15.4025
-15.4132
-15.401
-15.3656
-15.3067
-15.2241
-15.1176
-14.9871
-14.8327
-14.6545
-14.4527
-14.2275
-13.9795
-13.709
-13.4166
-13.1029
-12.7687
-12.4148
-12.042
-11.6514
-11.2438
-10.8205
-10.3825
-9.93089
-9.46696
-8.99187
-8.50686
-8.01316
-7.512
-7.00459
-6.49216
-5.97589
-5.45695
-4.93646
-4.41553
-3.8952
-3.37649
-2.86035
-2.34768
-1.83934
-1.33612
-0.838762
-0.347934
0.135739
0.611698
1.07944
1.5385
1.98849
2.42904
2.85992
3.28094
3.69186
4.09249
4.48273
4.86251
5.23175
5.59047
5.93866
6.27639
6.60373
6.9208
7.22771
7.52464
7.81173
8.0892
8.35722
8.61604
8.86584
9.10689
9.33939
9.5636
9.77975
9.9881
10.1889
10.3824
10.5688
10.7484
10.9214
11.088
11.2486
11.4033
11.5523
11.6959
11.8343
11.9676
12.0962
12.2202
12.3397
12.455
12.5663
12.6737
12.7774
12.8775
12.9743
13.0677
13.158
13.2453
13.3297
13.4114
13.4903
13.5668
13.6407
13.7124
13.7818
13.849
13.9141
13.9773
14.0385
14.0978
14.1553
14.2111
14.2652
14.3176
14.3685
14.4177
14.4655
14.5117
14.5565
14.5998
14.6417
14.6822
14.7214
14.7591
14.7954
14.8304
14.864
14.8963
14.9273
14.957
14.9854
15.0126
15.0387
15.0637
15.0878
15.1111
15.1334
15.1547
15.172
15.1889
15.1743
-7.18135
-7.27619
-7.43422
-7.60673
-7.78103
-7.95082
-8.11573
-8.28317
-8.46096
-8.655
-8.86879
-9.10223
-9.35391
-9.62342
-9.91001
-10.2109
-10.5219
-10.8389
-11.1577
-11.4751
-11.7884
-12.0954
-12.3946
-12.6847
-12.9648
-13.2341
-13.4919
-13.7376
-13.9707
-14.1906
-14.3966
-14.5881
-14.7643
-14.9245
-15.068
-15.194
-15.3018
-15.3906
-15.4598
-15.5085
-15.5363
-15.5425
-15.5266
-15.4881
-15.4267
-15.3421
-15.2341
-15.1025
-14.9473
-14.7686
-14.5666
-14.3414
-14.0935
-13.8233
-13.5313
-13.2181
-12.8845
-12.5313
-12.1593
-11.7694
-11.3627
-10.9401
-10.5029
-10.0522
-9.58905
-9.11473
-8.63046
-8.13744
-7.63691
-7.13007
-6.61813
-6.10227
-5.58364
-5.06338
-4.54256
-4.02224
-3.50342
-2.98706
-2.47405
-1.96524
-1.46144
-0.963365
-0.471705
0.0129191
0.489945
0.958861
1.41921
1.87059
2.31263
2.74512
3.1678
3.58046
3.98288
4.37497
4.75663
5.12781
5.48851
5.83873
6.17852
6.50795
6.82714
7.13619
7.43527
7.72453
8.00416
8.27436
8.53533
8.78729
9.03046
9.26508
9.49139
9.70962
9.92001
10.1228
10.3183
10.5066
10.6882
10.863
11.0316
11.1939
11.3504
11.5011
11.6464
11.7864
11.9214
12.0515
12.177
12.298
12.4148
12.5275
12.6362
12.7412
12.8426
12.9406
13.0352
13.1267
13.2151
13.3006
13.3832
13.4632
13.5406
13.6155
13.6881
13.7583
13.8264
13.8923
13.9563
14.0182
14.0783
14.1365
14.1929
14.2477
14.3007
14.3522
14.402
14.4503
14.4971
14.5424
14.5862
14.6285
14.6695
14.709
14.7471
14.7838
14.8191
14.853
14.8854
14.9165
14.9463
14.9746
15.0016
15.0273
15.0516
15.0747
15.0964
15.1162
15.1342
15.1467
15.1575
15.1347
-7.00944
-7.09838
-7.25858
-7.43744
-7.62835
-7.82948
-8.03779
-8.25482
-8.48387
-8.72658
-8.98361
-9.25483
-9.5399
-9.83813
-10.1473
-10.4643
-10.7854
-11.1075
-11.4276
-11.7433
-12.0527
-12.3542
-12.6467
-12.9292
-13.201
-13.4616
-13.7104
-13.947
-14.1709
-14.3818
-14.5789
-14.7618
-14.9299
-15.0824
-15.2186
-15.338
-15.4396
-15.5228
-15.5868
-15.6311
-15.6548
-15.6574
-15.6384
-15.5973
-15.5336
-15.447
-15.3373
-15.2043
-15.0479
-14.8683
-14.6655
-14.4397
-14.1914
-13.9208
-13.6286
-13.3154
-12.9818
-12.6287
-12.2569
-11.8673
-11.4609
-11.0388
-10.6021
-10.1519
-9.6894
-9.21573
-8.73214
-8.23981
-7.73998
-7.23385
-6.72261
-6.20744
-5.68948
-5.16983
-4.6496
-4.1298
-3.61144
-3.09546
-2.58275
-2.07416
-1.57046
-1.0724
-0.580651
-0.0958256
0.38151
0.850846
1.31172
1.76373
2.20652
2.63984
3.06348
3.47718
3.88074
4.27404
4.65699
5.02956
5.3917
5.74344
6.08481
6.4159
6.73677
7.04758
7.34844
7.63953
7.92101
8.19309
8.45595
8.70982
8.9549
9.19144
9.41966
9.63979
9.85208
10.0568
10.2541
10.4443
10.6277
10.8043
10.9746
11.1387
11.2969
11.4493
11.5963
11.7379
11.8745
12.0062
12.1332
12.2557
12.3738
12.4879
12.598
12.7043
12.807
12.9062
13.002
13.0946
13.1842
13.2707
13.3545
13.4355
13.5139
13.5897
13.6632
13.7344
13.8033
13.8701
13.9348
13.9975
14.0583
14.1173
14.1744
14.2298
14.2835
14.3356
14.386
14.4349
14.4822
14.528
14.5723
14.6152
14.6565
14.6965
14.735
14.772
14.8076
14.8418
14.8744
14.9057
14.9354
14.9636
14.9904
15.0156
15.0391
15.061
15.081
15.0984
15.113
15.1209
15.1262
15.0964
-7.00557
-7.09673
-7.249
-7.42332
-7.61697
-7.82935
-8.0572
-8.29857
-8.55339
-8.82145
-9.10191
-9.39394
-9.69693
-10.0093
-10.3285
-10.6516
-10.9758
-11.2986
-11.6176
-11.931
-12.237
-12.5346
-12.8227
-13.1006
-13.3675
-13.6231
-13.8669
-14.0985
-14.3174
-14.5232
-14.7154
-14.8935
-15.0568
-15.2048
-15.3367
-15.4519
-15.5496
-15.6291
-15.6898
-15.7308
-15.7516
-15.7516
-15.7301
-15.6867
-15.621
-15.5325
-15.4212
-15.2867
-15.129
-14.9481
-14.7443
-14.5176
-14.2684
-13.9972
-13.7045
-13.3908
-13.0569
-12.7036
-12.3318
-11.9422
-11.536
-11.1142
-10.6779
-10.2282
-9.7662
-9.29319
-8.81032
-8.3188
-7.81982
-7.31459
-6.80429
-6.29007
-5.77308
-5.25441
-4.73514
-4.21628
-3.69883
-3.18371
-2.67182
-2.16399
-1.66099
-1.16354
-0.672321
-0.187933
0.289063
0.758164
1.21892
1.67092
2.11381
2.54736
2.97131
3.38542
3.78949
4.18338
4.56703
4.94038
5.30341
5.65611
5.99855
6.33076
6.65285
6.96493
7.26714
7.55962
7.84256
8.11612
8.38052
8.63595
8.88263
9.12078
9.35063
9.57242
9.78637
9.99272
10.1917
10.3836
10.5686
10.7469
10.9188
11.0845
11.2443
11.3983
11.5468
11.69
11.828
11.9612
12.0896
12.2135
12.3331
12.4485
12.5599
12.6675
12.7714
12.8718
12.9688
13.0626
13.1532
13.2409
13.3257
13.4077
13.4871
13.5639
13.6383
13.7103
13.7801
13.8478
13.9133
13.9768
14.0384
14.098
14.1559
14.212
14.2663
14.319
14.37
14.4195
14.4674
14.5137
14.5585
14.6019
14.6437
14.6841
14.7229
14.7603
14.7962
14.8307
14.8635
14.8949
14.9246
14.9527
14.9791
15.0038
15.0265
15.0472
15.0654
15.0804
15.0916
15.0953
15.0956
15.0596
-7.14146
-7.22204
-7.35597
-7.5163
-7.70077
-7.90862
-8.13685
-8.38274
-8.64443
-8.92007
-9.2076
-9.50588
-9.81379
-10.1292
-10.4495
-10.7723
-11.0953
-11.416
-11.7327
-12.0435
-12.347
-12.6421
-12.9279
-13.2035
-13.4684
-13.722
-13.9639
-14.1936
-14.4106
-14.6145
-14.8048
-14.9809
-15.1423
-15.2882
-15.4181
-15.5312
-15.6268
-15.7043
-15.7629
-15.8019
-15.8208
-15.8188
-15.7954
-15.7502
-15.6828
-15.5927
-15.4797
-15.3438
-15.1847
-15.0026
-14.7976
-14.5698
-14.3198
-14.0478
-13.7544
-13.4403
-13.106
-12.7525
-12.3806
-11.9911
-11.5852
-11.1638
-10.728
-10.2789
-9.81774
-9.34563
-8.86379
-8.37339
-7.87563
-7.37169
-6.86273
-6.34992
-5.83438
-5.31718
-4.79939
-4.28202
-3.76602
-3.25233
-2.74182
-2.2353
-1.73355
-1.23727
-0.747129
-0.263733
0.212369
0.680675
1.14074
1.59216
2.03459
2.46776
2.89148
3.30543
3.70946
4.10342
4.48725
4.86087
5.22429
5.57748
5.9205
6.25338
6.57625
6.88918
7.19232
7.4858
7.76981
8.0445
8.31009
8.56675
8.81472
9.05419
9.2854
9.50856
9.72392
9.9317
10.1321
10.3255
10.5119
10.6917
10.8651
11.0322
11.1934
11.3489
11.4988
11.6434
11.7828
11.9173
12.0471
12.1724
12.2932
12.4099
12.5226
12.6314
12.7365
12.8381
12.9362
13.0311
13.1228
13.2115
13.2973
13.3803
13.4606
13.5384
13.6137
13.6866
13.7573
13.8257
13.8921
13.9563
14.0186
14.079
14.1376
14.1943
14.2493
14.3026
14.3543
14.4043
14.4528
14.4997
14.545
14.5888
14.6311
14.6719
14.7112
14.749
14.7852
14.8199
14.8529
14.8844
14.9141
14.9421
14.9681
14.9922
15.0141
15.0334
15.0498
15.0624
15.0705
15.0702
15.066
15.0247
-7.33454
-7.40063
-7.51399
-7.65619
-7.82495
-8.01946
-8.2371
-8.4749
-8.73013
-9.0002
-9.2828
-9.57656
-9.88001
-10.1909
-10.5069
-10.8255
-11.1445
-11.4619
-11.7756
-12.0842
-12.3861
-12.6802
-12.9655
-13.241
-13.5061
-13.7602
-14.0026
-14.2329
-14.4506
-14.6551
-14.8458
-15.0222
-15.1836
-15.3294
-15.459
-15.5716
-15.6666
-15.7432
-15.8008
-15.8387
-15.8563
-15.853
-15.8283
-15.7817
-15.7127
-15.6212
-15.5069
-15.3696
-15.2092
-15.0259
-14.8198
-14.5912
-14.3403
-14.0676
-13.7738
-13.4593
-13.1249
-12.7715
-12.3998
-12.0108
-11.6054
-11.1848
-10.75
-10.3021
-9.84223
-9.37158
-8.89132
-8.40263
-7.90669
-7.40465
-6.89768
-6.38691
-5.87343
-5.35833
-4.84265
-4.32738
-3.81347
-3.30184
-2.79333
-2.28876
-1.78888
-1.2944
-0.805971
-0.324184
0.150413
0.617328
1.07612
1.52639
1.96777
2.40006
2.82298
3.23628
3.63976
4.03331
4.41683
4.79029
5.15365
5.50691
5.85009
6.18327
6.50652
6.81993
7.12365
7.4178
7.70255
7.97807
8.24454
8.50216
8.75113
8.99166
9.22398
9.44829
9.66483
9.87383
10.0755
10.2701
10.4578
10.6389
10.8136
10.982
11.1446
11.3013
11.4525
11.5984
11.7391
11.8749
12.006
12.1324
12.2545
12.3724
12.4863
12.5962
12.7025
12.8051
12.9044
13.0003
13.093
13.1827
13.2695
13.3535
13.4347
13.5134
13.5896
13.6634
13.7349
13.8041
13.8713
13.9363
13.9993
14.0605
14.1197
14.1771
14.2328
14.2867
14.339
14.3896
14.4386
14.486
14.5319
14.5762
14.619
14.6602
14.6999
14.738
14.7746
14.8095
14.8428
14.8743
14.904
14.9318
14.9575
14.981
15.002
15.0201
15.0347
15.0449
15.05
15.0461
15.0377
14.992
-7.51688
-7.56974
-7.66464
-7.78864
-7.93965
-8.11683
-8.31787
-8.54017
-8.78098
-9.03759
-9.30801
-9.59104
-9.88496
-10.1875
-10.4962
-10.8087
-11.1228
-11.4365
-11.7477
-12.0548
-12.3563
-12.6509
-12.9373
-13.2146
-13.4819
-13.7385
-13.9836
-14.2166
-14.4369
-14.6438
-14.8367
-15.015
-15.178
-15.3252
-15.4557
-15.569
-15.6642
-15.7409
-15.7982
-15.8357
-15.8525
-15.8484
-15.8227
-15.775
-15.7049
-15.6122
-15.4967
-15.3583
-15.197
-15.0128
-14.8059
-14.5766
-14.3252
-14.0523
-13.7584
-13.444
-13.11
-12.7572
-12.3863
-11.9983
-11.5942
-11.175
-10.7419
-10.2958
-9.83796
-9.36951
-8.8916
-8.40538
-7.91204
-7.41269
-6.9085
-6.40056
-5.88996
-5.37776
-4.86498
-4.3526
-3.84156
-3.33275
-2.827
-2.32512
-1.82784
-1.33585
-0.849812
-0.370297
0.102153
0.567052
1.02397
1.47249
1.9123
2.34312
2.76473
3.17687
3.57932
3.97199
4.35477
4.72764
5.09053
5.44346
5.78644
6.11955
6.44283
6.75641
7.06038
7.35491
7.64011
7.91618
8.18328
8.44161
8.69136
8.93273
9.16594
9.39121
9.60875
9.81878
10.0215
10.2172
10.4061
10.5883
10.7641
10.9338
11.0975
11.2555
11.4079
11.5549
11.6969
11.8339
11.9661
12.0937
12.217
12.336
12.451
12.562
12.6693
12.7731
12.8733
12.9703
13.064
13.1547
13.2424
13.3273
13.4095
13.4891
13.5661
13.6407
13.713
13.7831
13.851
13.9168
13.9805
14.0424
14.1023
14.1604
14.2167
14.2712
14.3241
14.3753
14.4249
14.4728
14.5192
14.564
14.6073
14.649
14.6891
14.7276
14.7645
14.7997
14.8331
14.8648
14.8945
14.9221
14.9475
14.9704
14.9905
15.0073
15.0202
15.0282
15.0304
15.0231
15.0111
14.9615
-7.64463
-7.68869
-7.76825
-7.8754
-8.00868
-8.16735
-8.34945
-8.55283
-8.77523
-9.01439
-9.26898
-9.53818
-9.82026
-10.1129
-10.4135
-10.7197
-11.0292
-11.3399
-11.6496
-11.9566
-12.2591
-12.5557
-12.8451
-13.1259
-13.3972
-13.6581
-13.9075
-14.1448
-14.3691
-14.5798
-14.7762
-14.9575
-15.1232
-15.2725
-15.4048
-15.5193
-15.6155
-15.6927
-15.7502
-15.7875
-15.804
-15.7993
-15.7729
-15.7244
-15.6535
-15.5599
-15.4436
-15.3044
-15.1424
-14.9577
-14.7505
-14.5211
-14.2699
-13.9973
-13.7039
-13.3904
-13.0575
-12.706
-12.3367
-11.9506
-11.5487
-11.1319
-10.7013
-10.2581
-9.80327
-9.33801
-8.86344
-8.38071
-7.89096
-7.39531
-6.89487
-6.39074
-5.88398
-5.37563
-4.86667
-4.35808
-3.85078
-3.34564
-2.8435
-2.34511
-1.85121
-1.36248
-0.879549
-0.40301
0.0666181
0.528853
0.983265
1.42946
1.86709
2.29592
2.7157
3.12616
3.52712
3.91845
4.30008
4.67193
5.03397
5.3862
5.72864
6.06133
6.38435
6.69778
7.00174
7.29635
7.58177
7.85815
8.12565
8.38447
8.6348
8.87682
9.11076
9.3368
9.55518
9.7661
9.96978
10.1664
10.3563
10.5396
10.7165
10.8872
11.052
11.2111
11.3646
11.5128
11.6558
11.7939
11.9273
12.0561
12.1804
12.3005
12.4165
12.5287
12.637
12.7418
12.843
12.941
13.0357
13.1273
13.216
13.3018
13.3848
13.4653
13.5432
13.6186
13.6917
13.7625
13.8312
13.8977
13.9622
14.0247
14.0853
14.1441
14.201
14.2562
14.3097
14.3615
14.4116
14.4601
14.507
14.5524
14.5961
14.6382
14.6788
14.7177
14.7549
14.7904
14.8241
14.8558
14.8855
14.913
14.938
14.9604
14.9796
14.9952
15.0065
15.0124
15.012
15.0017
14.9863
14.9335
-7.69492
-7.7356
-7.80384
-7.89609
-8.01227
-8.15213
-8.31446
-8.49776
-8.70027
-8.92046
-9.15788
-9.41228
-9.68203
-9.96465
-10.2575
-10.5582
-10.8641
-11.173
-11.4826
-11.791
-12.0961
-12.3964
-12.6901
-12.976
-13.2526
-13.5189
-13.7738
-14.0164
-14.2457
-14.4611
-14.6616
-14.8466
-15.0154
-15.1673
-15.3017
-15.4178
-15.5151
-15.593
-15.651
-15.6884
-15.7048
-15.6998
-15.6729
-15.6239
-15.5524
-15.4585
-15.3418
-15.2024
-15.0404
-14.8558
-14.649
-14.4202
-14.1699
-13.8985
-13.6067
-13.295
-12.9642
-12.6152
-12.2486
-11.8656
-11.4669
-11.0537
-10.6269
-10.1877
-9.73711
-9.27623
-8.8062
-8.32813
-7.84314
-7.35233
-6.85678
-6.35756
-5.85572
-5.35226
-4.84817
-4.34437
-3.84177
-3.34122
-2.84356
-2.34953
-1.85985
-1.37517
-0.896123
-0.423285
0.0428232
0.501731
0.953005
1.39626
1.83116
2.25743
2.67487
3.08316
3.48216
3.87173
4.25178
4.62223
4.98306
5.33424
5.67581
6.00778
6.33024
6.64325
6.94694
7.24141
7.52681
7.80328
8.071
8.33012
8.58085
8.82336
9.05786
9.28455
9.50363
9.71532
9.91982
10.1173
10.3081
10.4923
10.6702
10.8419
11.0078
11.1679
11.3224
11.4717
11.6158
11.755
11.8894
12.0192
12.1446
12.2658
12.3828
12.496
12.6054
12.7111
12.8133
12.9122
13.0079
13.1005
13.19
13.2767
13.3607
13.4419
13.5207
13.5969
13.6708
13.7424
13.8118
13.8791
13.9443
14.0075
14.0688
14.1282
14.1858
14.2416
14.2957
14.3481
14.3988
14.4479
14.4954
14.5412
14.5854
14.628
14.669
14.7083
14.7459
14.7817
14.8156
14.8475
14.8772
14.9046
14.9293
14.9511
14.9695
14.984
14.9938
14.9977
14.995
14.9819
14.9635
14.908
-7.6717
-7.7083
-7.76829
-7.84704
-7.94613
-8.06629
-8.20744
-8.36913
-8.55042
-8.75068
-8.97043
-9.20996
-9.46771
-9.74111
-10.0274
-10.3239
-10.6278
-10.9368
-11.2481
-11.5596
-11.869
-12.1744
-12.4739
-12.7659
-13.0488
-13.3213
-13.5823
-13.8307
-14.0654
-14.2856
-14.4904
-14.6791
-14.851
-15.0054
-15.1418
-15.2595
-15.3579
-15.4366
-15.4949
-15.5326
-15.5491
-15.544
-15.517
-15.468
-15.3966
-15.3027
-15.1864
-15.0475
-14.8863
-14.7028
-14.4973
-14.2702
-14.022
-13.753
-13.4639
-13.1553
-12.828
-12.4827
-12.1202
-11.7416
-11.3476
-10.9394
-10.5178
-10.084
-9.63901
-9.1839
-8.71976
-8.24768
-7.76875
-7.28405
-6.79464
-6.30155
-5.80579
-5.30837
-4.81022
-4.31227
-3.81539
-3.32043
-2.82817
-2.33939
-1.85478
-1.37498
-0.900607
-0.432205
0.029684
0.484604
0.93211
1.37184
1.8034
2.22663
2.64119
3.04687
3.44346
3.83085
4.20892
4.57762
4.93689
5.28671
5.6271
5.95808
6.27971
6.59207
6.89525
7.18937
7.47455
7.75093
8.01868
8.27795
8.52893
8.7718
9.00674
9.23394
9.45362
9.66597
9.87119
10.0695
10.2611
10.4462
10.6249
10.7976
10.9644
11.1255
11.2811
11.4313
11.5765
11.7167
11.8521
11.983
12.1094
12.2316
12.3497
12.4638
12.5742
12.6809
12.7841
12.884
12.9806
13.074
13.1645
13.2521
13.3369
13.419
13.4986
13.5757
13.6503
13.7227
13.7929
13.8609
13.9268
13.9907
14.0527
14.1128
14.171
14.2275
14.2822
14.3351
14.3865
14.4361
14.4841
14.5305
14.5752
14.6183
14.6598
14.6995
14.7375
14.7736
14.8077
14.8398
14.8696
14.8969
14.9214
14.9427
14.9604
14.9738
14.9822
14.9844
14.9795
14.9639
14.9428
14.8851
-7.59798
-7.62468
-7.67405
-7.73623
-7.81489
-7.91209
-8.02903
-8.16652
-8.32469
-8.50389
-8.70564
-8.93065
-9.17735
-9.44292
-9.72429
-10.0185
-10.3224
-10.6332
-10.948
-11.2641
-11.5791
-11.8907
-12.1967
-12.4954