/*--------------------------------*- C++ -*----------------------------------*\
| =========                 |                                                 |
| \\      /  F ield         | OpenFOAM: The Open Source CFD Toolbox           |
|  \\    /   O peration     | Version:  v2012                                 |
|   \\  /    A nd           | Website:  www.openfoam.com                      |
|    \\/     M anipulation  |                                                 |
\*---------------------------------------------------------------------------*/
FoamFile
{
    version     2.0;
    format      ascii;
    class       surfaceScalarField;
    location    "300";
    object      phi;
}
// * * * * * * * * * * * * * * * * * * * * * * * * * * * * * * * * * * * * * //

dimensions      [0 3 -1 0 0 0 0];
oriented        oriented;


internalField   nonuniform List<scalar> 
24170
(
3.92539e-06
-7.91497e-07
3.76461e-06
1.60757e-07
3.63337e-06
1.3121e-07
3.43319e-06
2.00142e-07
3.28007e-06
1.53083e-07
3.18939e-06
9.06561e-08
3.12906e-06
6.02259e-08
3.08117e-06
4.76102e-08
3.04123e-06
3.95301e-08
3.00431e-06
3.63977e-08
2.96974e-06
3.40671e-08
2.93773e-06
3.15447e-08
2.9084e-06
2.89397e-08
2.8819e-06
2.62017e-08
2.85807e-06
2.36062e-08
2.8385e-06
1.94867e-08
2.83053e-06
8.05273e-09
-9.76221e-09
2.84042e-06
3.58444e-06
-9.19498e-07
3.80423e-06
-5.9039e-08
3.74279e-06
1.92624e-07
3.69054e-06
2.52369e-07
3.63724e-06
2.06345e-07
3.58983e-06
1.38009e-07
3.55255e-06
9.73832e-08
3.52372e-06
7.62175e-08
3.5003e-06
6.26144e-08
3.48086e-06
5.5385e-08
3.46384e-06
5.05797e-08
3.44839e-06
4.64905e-08
3.43413e-06
4.27524e-08
3.42068e-06
3.92685e-08
3.40814e-06
3.58383e-08
3.39644e-06
3.09762e-08
3.38486e-06
1.9567e-08
3.48682e-09
3.37133e-06
3.68518e-06
-7.92482e-07
3.83638e-06
-2.10248e-07
3.91492e-06
1.14081e-07
3.94499e-06
2.22296e-07
3.94405e-06
2.07277e-07
3.9272e-06
1.54852e-07
3.90777e-06
1.16828e-07
3.89023e-06
9.38106e-08
3.87464e-06
7.83084e-08
3.86141e-06
6.87444e-08
3.84987e-06
6.22644e-08
3.8393e-06
5.71571e-08
3.82937e-06
5.27366e-08
3.81996e-06
4.86792e-08
3.81126e-06
4.44945e-08
3.80314e-06
3.90321e-08
3.79328e-06
2.93643e-08
1.73593e-08
3.77914e-06
4.05359e-06
-6.41511e-07
4.11459e-06
-2.71261e-07
4.20798e-06
2.06855e-08
4.26633e-06
1.63927e-07
4.29067e-06
1.82922e-07
4.29271e-06
1.52782e-07
4.28599e-06
1.23528e-07
4.27701e-06
1.02804e-07
4.2676e-06
8.78108e-08
4.25883e-06
7.7617e-08
4.25082e-06
7.03733e-08
4.24331e-06
6.47315e-08
4.23612e-06
5.99482e-08
4.22915e-06
5.56203e-08
4.22236e-06
5.12073e-08
4.21535e-06
4.59517e-08
4.20607e-06
3.85249e-08
3.02909e-08
4.19287e-06
4.50491e-06
-5.09114e-07
4.51536e-06
-2.81708e-07
4.58528e-06
-4.92363e-08
4.64664e-06
1.02568e-07
4.68256e-06
1.47002e-07
4.69679e-06
1.38551e-07
4.6997e-06
1.2065e-07
4.69773e-06
1.0485e-07
4.69352e-06
9.21416e-08
4.68861e-06
8.26865e-08
4.68357e-06
7.55706e-08
4.6785e-06
6.99331e-08
4.67337e-06
6.51752e-08
4.66811e-06
6.09305e-08
4.66256e-06
5.67633e-08
4.65621e-06
5.22704e-08
4.64762e-06
4.70398e-08
4.21957e-08
4.63557e-06
5.00014e-06
-3.94664e-07
4.98614e-06
-2.67707e-07
5.03068e-06
-9.37846e-08
5.08504e-06
4.81934e-08
5.12451e-06
1.07518e-07
5.14605e-06
1.16994e-07
5.15603e-06
1.10667e-07
5.15975e-06
1.01167e-07
5.16001e-06
9.19653e-08
5.15852e-06
8.42851e-08
5.15614e-06
7.80656e-08
5.15321e-06
7.29611e-08
5.14982e-06
6.86255e-08
5.14595e-06
6.48172e-08
5.14142e-06
6.12735e-08
5.13578e-06
5.78673e-08
5.12811e-06
5.46507e-08
5.25372e-08
5.1176e-06
5.54382e-06
-2.97476e-07
5.51664e-06
-2.40529e-07
5.54054e-06
-1.17686e-07
5.58387e-06
4.87278e-09
5.62164e-06
6.97449e-08
5.64655e-06
9.20869e-08
5.66122e-06
9.60316e-08
5.66929e-06
9.31368e-08
5.67326e-06
8.80651e-08
5.67478e-06
8.28524e-08
5.67479e-06
7.81376e-08
5.6738e-06
7.40402e-08
5.67198e-06
7.04978e-08
5.6694e-06
6.74374e-08
5.66589e-06
6.47809e-08
5.66116e-06
6.25829e-08
5.65467e-06
6.10835e-08
6.10547e-08
5.64611e-06
4.34788e-06
-2.39243e-07
4.32251e-06
-2.15165e-07
4.33078e-06
-1.25956e-07
4.35418e-06
-1.854e-08
4.37839e-06
4.55286e-08
4.39646e-06
7.40078e-08
4.40845e-06
8.40459e-08
4.41603e-06
8.55766e-08
4.42061e-06
8.35154e-08
4.42323e-06
8.0282e-08
4.42453e-06
7.68918e-08
4.42488e-06
7.37373e-08
4.42447e-06
7.09428e-08
4.42337e-06
6.85609e-08
4.42152e-06
6.66299e-08
4.4188e-06
6.5294e-08
4.41503e-06
6.4856e-08
6.58888e-08
4.41013e-06
5.08621e-06
-1.85601e-07
5.05777e-06
-1.86719e-07
5.0584e-06
-1.26581e-07
5.07686e-06
-3.70051e-08
5.09917e-06
2.32161e-08
5.11773e-06
5.54509e-08
5.13128e-06
7.05103e-08
5.14064e-06
7.62357e-08
5.14689e-06
7.72918e-08
5.15094e-06
7.62632e-08
5.15343e-06
7.44373e-08
5.15475e-06
7.24409e-08
5.15514e-06
7.05774e-08
5.15469e-06
6.90221e-08
5.1534e-06
6.79192e-08
5.15121e-06
6.7472e-08
5.14807e-06
6.79723e-08
6.98884e-08
5.14406e-06
5.94839e-06
-1.38195e-07
5.91832e-06
-1.56651e-07
5.9116e-06
-1.1987e-07
5.924e-06
-4.9402e-08
5.94286e-06
4.35553e-09
5.96059e-06
3.77172e-08
5.97483e-06
5.62731e-08
5.98551e-06
6.55685e-08
5.99323e-06
6.95903e-08
5.99868e-06
7.08345e-08
6.00241e-06
7.07199e-08
6.00483e-06
7.00431e-08
6.00617e-06
6.92511e-08
6.00656e-06
6.8638e-08
6.00606e-06
6.84205e-08
6.00469e-06
6.8832e-08
6.00253e-06
7.01462e-08
7.26464e-08
5.99974e-06
6.95439e-06
-9.83151e-08
6.92401e-06
-1.26279e-07
6.91113e-06
-1.06989e-07
6.9168e-06
-5.50732e-08
6.93087e-06
-9.71896e-09
6.94636e-06
2.22268e-08
6.96018e-06
4.24599e-08
6.97144e-06
5.43194e-08
6.9802e-06
6.08399e-08
6.98685e-06
6.41954e-08
6.99179e-06
6.57873e-08
6.99536e-06
6.64833e-08
6.99778e-06
6.68394e-08
6.99921e-06
6.72099e-08
6.99976e-06
6.78749e-08
6.99953e-06
6.90655e-08
6.99868e-06
7.09917e-08
7.38568e-08
6.99746e-06
8.12719e-06
-6.64898e-08
8.09793e-06
-9.70219e-08
8.08056e-06
-8.96146e-08
8.07955e-06
-5.40682e-08
8.08793e-06
-1.81027e-08
8.09986e-06
1.03005e-08
8.11201e-06
3.03162e-08
8.12289e-06
4.34486e-08
8.13205e-06
5.16873e-08
8.13951e-06
5.67364e-08
8.14548e-06
5.98239e-08
8.15016e-06
6.18082e-08
8.15375e-06
6.32517e-08
8.1564e-06
6.45654e-08
8.15825e-06
6.60231e-08
8.15947e-06
6.78508e-08
8.16026e-06
7.02098e-08
7.32021e-08
8.1609e-06
9.49368e-06
-4.24413e-08
9.4668e-06
-7.01439e-08
9.44683e-06
-6.96474e-08
9.43991e-06
-4.71442e-08
9.44229e-06
-2.04872e-08
9.44967e-06
2.92624e-09
9.45897e-06
2.1018e-08
9.46842e-06
3.3999e-08
9.47718e-06
4.29419e-08
9.48491e-06
4.90036e-08
9.49158e-06
5.31617e-08
9.49724e-06
5.61418e-08
9.50202e-06
5.84869e-08
9.50602e-06
6.05628e-08
9.5094e-06
6.26494e-08
9.51232e-06
6.49213e-08
9.51502e-06
6.75116e-08
7.04583e-08
9.51775e-06
1.10854e-05
-2.51618e-08
1.10618e-05
-4.65039e-08
1.1041e-05
-4.8815e-08
1.10294e-05
-3.55661e-08
1.10261e-05
-1.71915e-08
1.10284e-05
5.72172e-10
1.1034e-05
1.54272e-08
1.10411e-05
2.69055e-08
1.10487e-05
3.54068e-08
1.10561e-05
4.16135e-08
1.1063e-05
4.6194e-08
1.10695e-05
4.971e-08
1.10754e-05
5.25868e-08
1.10808e-05
5.51433e-08
1.10858e-05
5.75947e-08
1.10907e-05
6.00917e-08
1.10954e-05
6.27073e-08
6.54735e-08
1.11004e-05
1.29396e-05
-1.31212e-08
1.29194e-05
-2.62802e-08
1.28988e-05
-2.82596e-08
1.28839e-05
-2.07021e-08
1.28758e-05
-9.0185e-09
1.28732e-05
3.11228e-09
1.28748e-05
1.38944e-08
1.2879e-05
2.27279e-08
1.28847e-05
2.96681e-08
1.28913e-05
3.50514e-08
1.28982e-05
3.92763e-08
1.29052e-05
4.27065e-08
1.29121e-05
4.56337e-08
1.2919e-05
4.8276e-08
1.29258e-05
5.07818e-08
1.29326e-05
5.32439e-08
1.29396e-05
5.57043e-08
5.81656e-08
1.29469e-05
1.50998e-05
-4.48514e-09
1.50822e-05
-8.67911e-09
1.50621e-05
-8.12133e-09
1.50448e-05
-3.47306e-09
1.50327e-05
3.08867e-09
1.50259e-05
9.90671e-09
1.50237e-05
1.61197e-08
1.5025e-05
2.14085e-08
1.50289e-05
2.57847e-08
1.50346e-05
2.94017e-08
1.50414e-05
3.24575e-08
1.5049e-05
3.51319e-08
1.5057e-05
3.75687e-08
1.50654e-05
3.987e-08
1.50741e-05
4.20977e-08
1.50831e-05
4.4282e-08
1.50924e-05
4.64246e-08
4.85059e-08
1.5102e-05
1.76171e-05
2.89096e-09
1.75999e-05
8.51644e-09
1.75787e-05
1.30171e-08
1.7559e-05
1.6265e-08
1.75436e-05
1.84492e-08
1.75336e-05
1.99322e-08
1.75287e-05
2.1014e-08
1.75282e-05
2.195e-08
1.75311e-05
2.28812e-08
1.75366e-05
2.39174e-08
1.75439e-05
2.50934e-08
1.75527e-05
2.64318e-08
1.75623e-05
2.79148e-08
1.75727e-05
2.95228e-08
1.75835e-05
3.12152e-08
1.75949e-05
3.29545e-08
1.76066e-05
3.4691e-08
3.63813e-08
1.76187e-05
1.78181e-05
1.0999e-08
1.77994e-05
2.71972e-08
1.77768e-05
3.5611e-08
1.7756e-05
3.70379e-08
1.77402e-05
3.43107e-08
1.77302e-05
2.99225e-08
1.77257e-05
2.54799e-08
1.77259e-05
2.17462e-08
1.77298e-05
1.90425e-08
1.77364e-05
1.73517e-08
1.77449e-05
1.65749e-08
1.77548e-05
1.65273e-08
1.77657e-05
1.7052e-08
1.77772e-05
1.79823e-08
1.77893e-05
1.91956e-08
1.78017e-05
2.05695e-08
1.78143e-05
2.20236e-08
2.347e-08
1.78272e-05
1.58702e-05
2.21318e-08
1.58478e-05
4.95643e-08
1.58233e-05
6.01132e-08
1.58032e-05
5.72183e-08
1.57899e-05
4.75911e-08
1.57835e-05
3.63604e-08
1.57827e-05
2.61867e-08
1.57864e-05
1.81433e-08
1.57931e-05
1.23568e-08
1.58018e-05
8.60115e-09
1.5812e-05
6.47046e-09
1.58229e-05
5.58574e-09
1.58344e-05
5.59966e-09
1.58461e-05
6.24368e-09
1.5858e-05
7.29586e-09
1.587e-05
8.59658e-09
1.5882e-05
1.00129e-08
1.14581e-08
1.58941e-05
1.41313e-05
3.95381e-08
1.41021e-05
7.86897e-08
1.40745e-05
8.77688e-08
1.40557e-05
7.60171e-08
1.40469e-05
5.63976e-08
1.40462e-05
3.70341e-08
1.40512e-05
2.1214e-08
1.40597e-05
9.60033e-09
1.40703e-05
1.7859e-09
1.4082e-05
-3.01591e-09
1.40941e-05
-5.58004e-09
1.41062e-05
-6.55777e-09
1.41183e-05
-6.44239e-09
1.41302e-05
-5.6175e-09
1.41418e-05
-4.34475e-09
1.41533e-05
-2.82751e-09
1.41645e-05
-1.19804e-09
4.37164e-10
1.41755e-05
1.25772e-05
6.73551e-08
1.25392e-05
1.16724e-07
1.25091e-05
1.17871e-07
1.24942e-05
9.08707e-08
1.24928e-05
5.7799e-08
1.25002e-05
2.96783e-08
1.25123e-05
9.15406e-09
1.25264e-05
-4.4711e-09
1.25409e-05
-1.27612e-08
1.25552e-05
-1.72593e-08
1.25688e-05
-1.91871e-08
1.25817e-05
-1.94301e-08
1.2594e-05
-1.86239e-08
1.26056e-05
-1.71668e-08
1.26166e-05
-1.53643e-08
1.26272e-05
-1.33862e-08
1.26374e-05
-1.1377e-08
-9.40989e-09
1.26472e-05
1.11862e-05
1.10916e-07
1.11384e-05
1.64558e-07
1.11088e-05
1.47503e-07
1.11022e-05
9.74641e-08
1.11117e-05
4.82973e-08
1.1129e-05
1.24075e-08
1.11486e-05
-1.04502e-08
1.11679e-05
-2.36588e-08
1.11855e-05
-3.0421e-08
1.12014e-05
-3.31106e-08
1.12156e-05
-3.33479e-08
1.12284e-05
-3.21598e-08
1.124e-05
-3.01782e-08
1.12507e-05
-2.78053e-08
1.12606e-05
-2.52617e-08
1.127e-05
-2.27076e-08
1.12789e-05
-2.02245e-08
-1.78841e-08
1.12873e-05
9.93908e-06
1.76452e-07
9.88248e-06
2.21154e-07
9.85874e-06
1.71248e-07
9.86596e-06
9.02553e-08
9.88966e-06
2.46203e-08
9.91765e-06
-1.5569e-08
9.94399e-06
-3.67553e-08
9.96676e-06
-4.63697e-08
9.98583e-06
-4.93998e-08
1.00017e-05
-4.89826e-08
1.00152e-05
-4.67531e-08
1.00267e-05
-4.36974e-08
1.00369e-05
-4.02523e-08
1.0046e-05
-3.68272e-08
1.00544e-05
-3.35094e-08
1.00621e-05
-3.03818e-08
1.00694e-05
-2.74654e-08
-2.47749e-08
1.00763e-05
8.81963e-06
2.69917e-07
8.75785e-06
2.8294e-07
8.74789e-06
1.81212e-07
8.77484e-06
6.33008e-08
8.81463e-06
-1.51604e-08
8.8522e-06
-5.3103e-08
8.88275e-06
-6.72423e-08
8.90639e-06
-6.99108e-08
8.92443e-06
-6.74757e-08
8.93849e-06
-6.29438e-08
8.94971e-06
-5.7891e-08
8.95906e-06
-5.27621e-08
8.96697e-06
-4.80395e-08
8.97397e-06
-4.36582e-08
8.98027e-06
-3.97393e-08
8.9861e-06
-3.60826e-08
8.99155e-06
-3.28529e-08
-2.99279e-08
8.99673e-06
7.81391e-06
3.96677e-07
7.7539e-06
3.42941e-07
7.76869e-06
1.66428e-07
7.82056e-06
1.1435e-08
7.87573e-06
-7.0316e-08
7.9192e-06
-9.65564e-08
7.94979e-06
-9.78239e-08
7.97072e-06
-9.07563e-08
7.98513e-06
-8.16444e-08
7.99535e-06
-7.30569e-08
8.00308e-06
-6.54017e-08
8.00914e-06
-5.88337e-08
8.0142e-06
-5.28411e-08
8.01852e-06
-4.78414e-08
8.0225e-06
-4.34448e-08
8.02605e-06
-3.95847e-08
8.02947e-06
-3.62137e-08
-3.32361e-08
8.03279e-06
6.90424e-06
5.6677e-07
6.86137e-06
3.85807e-07
6.91717e-06
1.10621e-07
6.99676e-06
-6.81671e-08
7.06258e-06
-1.36139e-07
7.10538e-06
-1.39364e-07
7.13038e-06
-1.22693e-07
7.1446e-06
-1.04923e-07
7.15257e-06
-8.96059e-08
7.15725e-06
-7.75641e-08
7.16024e-06
-6.82774e-08
7.16245e-06
-6.0672e-08
7.16396e-06
-5.42863e-08
7.16528e-06
-4.90288e-08
7.16648e-06
-4.47059e-08
7.16756e-06
-4.05841e-08
7.16868e-06
-3.73199e-08
-3.4601e-08
7.17001e-06
6.07162e-06
7.97664e-07
6.08525e-06
3.72164e-07
6.19865e-06
-2.78556e-09
6.29992e-06
-1.69432e-07
6.36531e-06
-2.01538e-07
6.39761e-06
-1.71651e-07
6.41011e-06
-1.3532e-07
6.4134e-06
-1.07903e-07
6.41243e-06
-8.8684e-08
6.41007e-06
-7.51809e-08
6.40754e-06
-6.56876e-08
6.40506e-06
-5.8311e-08
6.40249e-06
-5.18218e-08
6.40023e-06
-4.67207e-08
6.39841e-06
-4.28225e-08
6.39655e-06
-3.87888e-08
6.39501e-06
-3.58623e-08
-3.37862e-08
6.39421e-06
5.35805e-06
1.05451e-06
5.50649e-06
2.23714e-07
5.64777e-06
-1.44085e-07
5.73566e-06
-2.57332e-07
5.7765e-06
-2.42399e-07
5.7833e-06
-1.78568e-07
5.77505e-06
-1.26936e-07
5.76266e-06
-9.561e-08
5.75019e-06
-7.64136e-08
5.73939e-06
-6.46842e-08
5.73052e-06
-5.70641e-08
5.72263e-06
-5.06993e-08
5.71499e-06
-4.45064e-08
5.70811e-06
-4.01259e-08
5.70235e-06
-3.72907e-08
5.69696e-06
-3.3609e-08
5.69211e-06
-3.10973e-08
-3.01787e-08
5.6884e-06
5.04576e-06
1.01105e-06
5.36491e-06
-9.54589e-08
5.35253e-06
-1.31738e-07
5.33288e-06
-2.37717e-07
5.29604e-06
-2.05638e-07
5.25012e-06
-1.32753e-07
5.20829e-06
-8.51285e-08
5.17419e-06
-6.16871e-08
5.14678e-06
-4.94174e-08
5.12482e-06
-4.32133e-08
5.107e-06
-3.96726e-08
5.09126e-06
-3.55534e-08
5.07634e-06
-3.02915e-08
5.06313e-06
-2.74649e-08
5.05164e-06
-2.62029e-08
5.04092e-06
-2.31501e-08
5.03127e-06
-2.16015e-08
-2.31785e-08
5.02418e-06
5.4676e-06
5.37214e-06
5.2404e-06
5.00267e-06
4.79702e-06
4.66426e-06
4.57911e-06
4.51736e-06
4.46786e-06
4.42457e-06
4.38478e-06
4.34908e-06
4.31866e-06
4.2911e-06
4.26482e-06
4.24163e-06
4.22e-06
4.19682e-06
3.09419e-08
-3.09059e-08
2.51054e-07
-2.20047e-07
5.04736e-07
-2.53698e-07
7.23609e-07
-2.18881e-07
8.88038e-07
-1.64446e-07
9.94544e-07
-1.065e-07
1.04436e-06
-4.98197e-08
1.04021e-06
4.18852e-09
9.88173e-07
5.20498e-08
8.99592e-07
8.8664e-08
7.90813e-07
1.08809e-07
6.82152e-07
1.08764e-07
5.92834e-07
8.94289e-08
5.29169e-07
6.3639e-08
4.75466e-07
5.38368e-08
4.07916e-07
6.74214e-08
3.10368e-07
9.76549e-08
1.694e-07
1.41306e-07
-2.33825e-08
1.9289e-07
-2.87484e-07
2.64616e-07
-6.03604e-07
3.1602e-07
-9.51927e-07
3.48445e-07
-1.3202e-06
3.68111e-07
-1.69954e-06
3.79279e-07
-2.08055e-06
3.80866e-07
-2.45324e-06
3.72586e-07
-2.8107e-06
3.57361e-07
-3.14804e-06
3.37243e-07
-3.46181e-06
3.13717e-07
-3.75016e-06
2.88276e-07
-4.01255e-06
2.62368e-07
-4.24959e-06
2.3699e-07
-4.46237e-06
2.12783e-07
-4.65253e-06
1.90121e-07
-4.82171e-06
1.69192e-07
-4.97177e-06
1.50036e-07
-5.10435e-06
1.32593e-07
-5.2211e-06
1.16728e-07
-5.32336e-06
1.02278e-07
-5.41243e-06
8.90574e-08
-5.48931e-06
7.68905e-08
-5.55493e-06
6.56056e-08
-5.60997e-06
5.5057e-08
-5.6551e-06
4.51161e-08
-5.69077e-06
3.56867e-08
-5.71746e-06
2.66833e-08
-5.73548e-06
1.80374e-08
-5.74522e-06
9.73506e-09
-5.74719e-06
1.99003e-09
-5.74243e-06
-4.75708e-09
-5.73197e-06
-1.04382e-08
-5.71648e-06
-1.54864e-08
-5.69627e-06
-2.01914e-08
-5.67159e-06
-2.46755e-08
-5.64256e-06
-2.8999e-08
-5.60937e-06
-3.31855e-08
-5.57209e-06
-3.72468e-08
-5.53089e-06
-4.11893e-08
-5.48585e-06
-4.50099e-08
-5.43712e-06
-4.87097e-08
-5.3848e-06
-5.22822e-08
-5.32906e-06
-5.57266e-08
-5.26999e-06
-5.90358e-08
-5.20776e-06
-6.22091e-08
-5.14248e-06
-6.52412e-08
-5.07433e-06
-6.81302e-08
-5.00342e-06
-7.08708e-08
-4.92993e-06
-7.34624e-08
-4.854e-06
-7.59018e-08
-4.77577e-06
-7.81885e-08
-4.69542e-06
-8.03213e-08
-4.61307e-06
-8.22997e-08
-4.52891e-06
-8.41246e-08
-4.44307e-06
-8.57955e-08
-4.35572e-06
-8.73158e-08
-4.26698e-06
-8.86849e-08
-4.17703e-06
-8.99083e-08
-4.08599e-06
-9.09853e-08
-3.99404e-06
-9.19233e-08
-3.90127e-06
-9.27213e-08
-3.80786e-06
-9.33892e-08
-3.71389e-06
-9.39252e-08
-3.61954e-06
-9.43421e-08
-3.52486e-06
-9.46376e-08
-3.43002e-06
-9.48271e-08
-3.33507e-06
-9.49089e-08
-3.24015e-06
-9.49053e-08
-3.14531e-06
-9.48183e-08
-3.05065e-06
-9.46716e-08
-2.95621e-06
-9.44842e-08
-2.86196e-06
-9.42689e-08
-2.76791e-06
-9.40501e-08
-2.67406e-06
-9.38263e-08
-2.58048e-06
-9.35364e-08
-2.48735e-06
-9.30799e-08
-2.39492e-06
-9.2351e-08
-2.30351e-06
-9.13355e-08
-2.21328e-06
-9.01504e-08
-2.12426e-06
-8.89522e-08
-2.03643e-06
-8.77548e-08
-1.94984e-06
-8.65519e-08
-1.86447e-06
-8.53211e-08
-1.78037e-06
-8.40716e-08
-1.69754e-06
-8.27923e-08
-1.61603e-06
-8.14994e-08
-1.53583e-06
-8.01836e-08
-1.45697e-06
-7.88614e-08
-1.37945e-06
-7.75192e-08
-1.30331e-06
-7.61567e-08
-1.22856e-06
-7.47586e-08
-1.15522e-06
-7.3363e-08
-1.08328e-06
-7.19647e-08
-1.01274e-06
-7.05734e-08
-9.43593e-07
-6.91781e-08
-8.75848e-07
-6.7793e-08
-8.09484e-07
-6.64068e-08
-7.44508e-07
-6.5035e-08
-6.80893e-07
-6.36679e-08
-6.18644e-07
-6.23183e-08
-5.57736e-07
-6.09734e-08
-4.98169e-07
-5.96475e-08
-4.39913e-07
-5.83325e-08
-3.82959e-07
-5.70458e-08
-3.2727e-07
-5.57786e-08
-2.72833e-07
-5.45373e-08
-2.1962e-07
-5.33137e-08
-1.67618e-07
-5.21136e-08
-1.1681e-07
-5.09193e-08
-6.7198e-08
-4.97341e-08
-1.88943e-08
-4.84315e-08
2.82282e-08
-4.72589e-08
7.45012e-08
-4.63986e-08
1.19822e-07
-4.54306e-08
1.64074e-07
-4.43419e-08
2.07238e-07
-4.32476e-08
2.49326e-07
-4.21683e-08
2.9036e-07
-4.11225e-08
3.30385e-07
-4.01101e-08
3.69437e-07
-3.91306e-08
4.0755e-07
-3.81802e-08
4.44745e-07
-3.72582e-08
4.81046e-07
-3.63626e-08
5.16476e-07
-3.54946e-08
5.51064e-07
-3.46518e-08
5.84834e-07
-3.38349e-08
6.17816e-07
-3.30424e-08
6.50031e-07
-3.22745e-08
6.81508e-07
-3.15303e-08
7.12268e-07
-3.08104e-08
7.42338e-07
-3.01144e-08
7.7174e-07
-2.94424e-08
8.00497e-07
-2.87945e-08
8.28631e-07
-2.81705e-08
8.56166e-07
-2.75708e-08
8.83127e-07
-2.69951e-08
9.09535e-07
-2.64434e-08
9.35415e-07
-2.59156e-08
9.6079e-07
-2.54115e-08
9.85683e-07
-2.49307e-08
1.01012e-06
-2.44723e-08
1.03411e-06
-2.40354e-08
1.05769e-06
-2.36176e-08
1.08087e-06
-2.32164e-08
1.10366e-06
-2.28275e-08
1.12607e-06
-2.2445e-08
1.14809e-06
-2.20605e-08
1.16972e-06
-2.16625e-08
1.19093e-06
-2.12346e-08
1.21165e-06
-2.07545e-08
1.23182e-06
-2.01908e-08
1.25129e-06
-1.94989e-08
1.26988e-06
-1.86145e-08
1.28729e-06
-1.74398e-08
1.30309e-06
-1.58293e-08
1.31656e-06
-1.35065e-08
1.32657e-06
-1.00545e-08
1.33042e-06
-3.89444e-09
1.32268e-06
7.69064e-09
1.292e-06
3.06277e-08
7.34969e-08
1.21845e-06
2.59051e-07
-2.89915e-07
4.93525e-07
-4.54486e-07
6.39677e-07
-3.99841e-07
7.20727e-07
-2.99925e-07
7.56739e-07
-2.00456e-07
7.59151e-07
-1.08902e-07
7.34715e-07
-2.53764e-08
6.8898e-07
4.99556e-08
6.24633e-07
1.16415e-07
5.41583e-07
1.7176e-07
4.38925e-07
2.11493e-07
3.14192e-07
2.33518e-07
1.59778e-07
2.43885e-07
-3.67685e-08
2.6014e-07
-2.84602e-07
3.01685e-07
-5.86415e-07
3.69202e-07
-9.37858e-07
4.49118e-07
-1.32546e-06
5.28971e-07
-1.73382e-06
6.01281e-07
-2.13115e-06
6.62017e-07
-2.51766e-06
7.02526e-07
-2.88907e-06
7.1987e-07
-3.23831e-06
7.17306e-07
-3.55752e-06
6.98464e-07
-3.84331e-06
6.66599e-07
-4.09545e-06
6.24677e-07
-4.31447e-06
5.76332e-07
-4.50232e-06
5.25056e-07
-4.66219e-06
4.73548e-07
-4.79754e-06
4.23592e-07
-4.91167e-06
3.76481e-07
-5.0077e-06
3.32989e-07
-5.08836e-06
2.93433e-07
-5.15607e-06
2.57817e-07
-5.21281e-06
2.25931e-07
-5.26024e-06
1.97452e-07
-5.29965e-06
1.72003e-07
-5.33212e-06
1.49194e-07
-5.35849e-06
1.28653e-07
-5.37948e-06
1.10039e-07
-5.39564e-06
9.30564e-08
-5.40749e-06
7.74519e-08
-5.41544e-06
6.3017e-08
-5.41991e-06
4.95801e-08
-5.42121e-06
3.70029e-08
-5.41971e-06
2.51785e-08
-5.41571e-06
1.40449e-08
-5.40955e-06
3.58347e-09
-5.40128e-06
-6.26899e-09
-5.39025e-06
-1.57819e-08
-5.37553e-06
-2.51434e-08
-5.3567e-06
-3.43084e-08
-5.33364e-06
-4.32385e-08
-5.30637e-06
-5.19327e-08
-5.27496e-06
-6.03968e-08
-5.23949e-06
-6.86362e-08
-5.20007e-06
-7.66519e-08
-5.1568e-06
-8.44423e-08
-5.10978e-06
-9.2002e-08
-5.05915e-06
-9.93249e-08
-5.00501e-06
-1.06402e-07
-4.94749e-06
-1.13226e-07
-4.88671e-06
-1.19786e-07
-4.82282e-06
-1.26077e-07
-4.75595e-06
-1.32092e-07
-4.68623e-06
-1.37823e-07
-4.61381e-06
-1.43263e-07
-4.53883e-06
-1.48407e-07
-4.46145e-06
-1.53252e-07
-4.38182e-06
-1.57796e-07
-4.30007e-06
-1.62035e-07
-4.21637e-06
-1.6597e-07
-4.13086e-06
-1.69601e-07
-4.04368e-06
-1.72929e-07
-3.95501e-06
-1.75958e-07
-3.86496e-06
-1.7869e-07
-3.7737e-06
-1.81132e-07
-3.68136e-06
-1.83287e-07
-3.58808e-06
-1.85165e-07
-3.494e-06
-1.8677e-07
-3.39925e-06
-1.88112e-07
-3.30395e-06
-1.89198e-07
-3.20823e-06
-1.90041e-07
-3.1122e-06
-1.90648e-07
-3.01598e-06
-1.91033e-07
-2.91965e-06
-1.91205e-07
-2.82336e-06
-1.91181e-07
-2.72718e-06
-1.90975e-07
-2.63127e-06
-1.90607e-07
-2.5357e-06
-1.9008e-07
-2.44059e-06
-1.894e-07
-2.34606e-06
-1.88566e-07
-2.25231e-06
-1.87558e-07
-2.15946e-06
-1.86341e-07
-2.06761e-06
-1.84876e-07
-1.97675e-06
-1.83154e-07
-1.88681e-06
-1.81199e-07
-1.79781e-06
-1.7909e-07
-1.70981e-06
-1.76893e-07
-1.62288e-06
-1.74634e-07
-1.53707e-06
-1.72315e-07
-1.45242e-06
-1.69936e-07
-1.36896e-06
-1.675e-07
-1.28673e-06
-1.65011e-07
-1.20574e-06
-1.62475e-07
-1.12602e-06
-1.59896e-07
-1.04759e-06
-1.57281e-07
-9.70483e-07
-1.5463e-07
-8.94696e-07
-1.51947e-07
-8.2023e-07
-1.49237e-07
-7.47088e-07
-1.46516e-07
-6.75282e-07
-1.43791e-07
-6.04808e-07
-1.41067e-07
-5.3567e-07
-1.38345e-07
-4.6786e-07
-1.35631e-07
-4.01378e-07
-1.32924e-07
-3.36217e-07
-1.30231e-07
-2.72369e-07
-1.27559e-07
-2.09817e-07
-1.24911e-07
-1.48555e-07
-1.22284e-07
-8.85685e-08
-1.19683e-07
-2.9847e-08
-1.17108e-07
2.76292e-08
-1.14575e-07
8.38863e-08
-1.12092e-07
1.38938e-07
-1.09642e-07
1.9279e-07
-1.0722e-07
2.45458e-07
-1.04834e-07
2.96968e-07
-1.02482e-07
3.47352e-07
-1.00169e-07
3.9676e-07
-9.78932e-08
4.45175e-07
-9.57271e-08
4.9238e-07
-9.36549e-08
5.38446e-07
-9.15418e-08
5.8346e-07
-8.9395e-08
6.27449e-07
-8.72728e-08
6.7044e-07
-8.51973e-08
7.12454e-07
-8.31781e-08
7.53518e-07
-8.1216e-08
7.93659e-07
-7.93104e-08
8.32902e-07
-7.74578e-08
8.7127e-07
-7.56577e-08
9.08782e-07
-7.39081e-08
9.45463e-07
-7.22093e-08
9.81335e-07
-7.05594e-08
1.01642e-06
-6.89586e-08
1.05075e-06
-6.7405e-08
1.08435e-06
-6.58994e-08
1.11723e-06
-6.444e-08
1.14942e-06
-6.30283e-08
1.18094e-06
-6.16629e-08
1.21182e-06
-6.03449e-08
1.24208e-06
-5.90734e-08
1.27173e-06
-5.7849e-08
1.30081e-06
-5.66713e-08
1.32933e-06
-5.55403e-08
1.35732e-06
-5.44559e-08
1.3848e-06
-5.34173e-08
1.41179e-06
-5.24244e-08
1.43831e-06
-5.14754e-08
1.46438e-06
-5.05695e-08
1.49002e-06
-4.9703e-08
1.51525e-06
-4.88731e-08
1.54008e-06
-4.8073e-08
1.56452e-06
-4.72954e-08
1.58858e-06
-4.65285e-08
1.61225e-06
-4.57569e-08
1.63552e-06
-4.49586e-08
1.65837e-06
-4.41035e-08
1.68075e-06
-4.31504e-08
1.70258e-06
-4.20408e-08
1.72375e-06
-4.06928e-08
1.74411e-06
-3.89874e-08
1.7634e-06
-3.67469e-08
1.78125e-06
-3.37012e-08
1.7971e-06
-2.93837e-08
1.81005e-06
-2.30389e-08
1.81918e-06
-1.30609e-08
1.82348e-06
3.3497e-09
1.82101e-06
3.30603e-08
8.992e-08
1.80454e-06
2.42743e-07
-5.32602e-07
3.32306e-07
-5.44008e-07
3.44762e-07
-4.12271e-07
3.30809e-07
-2.8595e-07
3e-07
-1.69632e-07
2.52402e-07
-6.12777e-08
1.87197e-07
3.98403e-08
1.03306e-07
1.33885e-07
-5.86612e-10
2.20322e-07
-1.27207e-07
2.9841e-07
-2.83257e-07
3.6755e-07
-4.80175e-07
4.30431e-07
-7.30891e-07
4.94594e-07
-1.03876e-06
5.67986e-07
-1.38921e-06
6.52115e-07
-1.75963e-06
7.39615e-07
-2.13008e-06
8.1956e-07
-2.48469e-06
8.83603e-07
-2.81077e-06
9.27365e-07
-3.09808e-06
9.49347e-07
-3.34466e-06
9.49099e-07
-3.55294e-06
9.2815e-07
-3.72621e-06
8.90554e-07
-3.8687e-06
8.40938e-07
-3.98531e-06
7.83182e-07
-4.08156e-06
7.20897e-07
-4.16248e-06
6.57231e-07
-4.23218e-06
5.94729e-07
-4.29383e-06
5.35184e-07
-4.34988e-06
4.79612e-07
-4.40192e-06
4.28514e-07
-4.45097e-06
3.82017e-07
-4.49751e-06
3.39971e-07
-4.54177e-06
3.0206e-07
-4.58372e-06
2.67875e-07
-4.62325e-06
2.36975e-07
-4.66017e-06
2.08927e-07
-4.69431e-06
1.83327e-07
-4.72546e-06
1.5981e-07
-4.75348e-06
1.38061e-07
-4.77823e-06
1.1781e-07
-4.79961e-06
9.88315e-08
-4.81753e-06
8.09388e-08
-4.83192e-06
6.39745e-08
-4.84272e-06
4.78048e-08
-4.84985e-06
3.23154e-08
-4.85321e-06
1.74091e-08
-4.85261e-06
2.9923e-09
-4.84782e-06
-1.10504e-08
-4.83877e-06
-2.4828e-08
-4.82553e-06
-3.83704e-08
-4.80818e-06
-5.16542e-08
-4.78674e-06
-6.46627e-08
-4.76128e-06
-7.73871e-08
-4.73185e-06
-8.98199e-08
-4.69852e-06
-1.01954e-07
-4.66138e-06
-1.13781e-07
-4.62052e-06
-1.2529e-07
-4.57603e-06
-1.36469e-07
-4.52804e-06
-1.47306e-07
-4.47664e-06
-1.57787e-07
-4.42195e-06
-1.67896e-07
-4.3641e-06
-1.7762e-07
-4.30321e-06
-1.86947e-07
-4.23941e-06
-1.95868e-07
-4.17284e-06
-2.04371e-07
-4.10364e-06
-2.12445e-07
-4.03194e-06
-2.20082e-07
-3.9579e-06
-2.27277e-07
-3.88164e-06
-2.34026e-07
-3.80333e-06
-2.40325e-07
-3.7231e-06
-2.46173e-07
-3.6411e-06
-2.51571e-07
-3.55748e-06
-2.5652e-07
-3.47238e-06
-2.61025e-07
-3.38595e-06
-2.6509e-07
-3.29833e-06
-2.68723e-07
-3.20966e-06
-2.71931e-07
-3.12007e-06
-2.74723e-07
-3.02971e-06
-2.7711e-07
-2.93869e-06
-2.79103e-07
-2.84716e-06
-2.80714e-07
-2.75523e-06
-2.81956e-07
-2.66302e-06
-2.82844e-07
-2.57064e-06
-2.83392e-07
-2.47821e-06
-2.83614e-07
-2.38585e-06
-2.83529e-07
-2.29366e-06
-2.83154e-07
-2.20177e-06
-2.82505e-07
-2.11029e-06
-2.81594e-07
-2.01928e-06
-2.8042e-07
-1.92885e-06
-2.78984e-07
-1.8391e-06
-2.77277e-07
-1.75012e-06
-2.75289e-07
-1.66193e-06
-2.7301e-07
-1.57457e-06
-2.70457e-07
-1.48806e-06
-2.67661e-07
-1.40242e-06
-2.64673e-07
-1.31773e-06
-2.61534e-07
-1.23406e-06
-2.58272e-07
-1.15144e-06
-2.54896e-07
-1.06994e-06
-2.5142e-07
-9.89563e-07
-2.47851e-07
-9.10361e-07
-2.442e-07
-8.32349e-07
-2.40473e-07
-7.55557e-07
-2.36682e-07
-6.8e-07
-2.32832e-07
-6.05698e-07
-2.28934e-07
-5.32653e-07
-2.24991e-07
-4.60877e-07
-2.2102e-07
-3.90373e-07
-2.17026e-07
-3.21153e-07
-2.13023e-07
-2.53216e-07
-2.09015e-07
-1.86563e-07
-2.05014e-07
-1.2119e-07
-2.0102e-07
-5.70934e-08
-1.9704e-07
5.73859e-09
-1.93082e-07
6.73087e-08
-1.89152e-07
1.27626e-07
-1.8525e-07
1.86697e-07
-1.8138e-07
2.44539e-07
-1.77547e-07
3.01164e-07
-1.73758e-07
3.56586e-07
-1.70021e-07
4.10809e-07
-1.6634e-07
4.63853e-07
-1.6271e-07
5.15738e-07
-1.59131e-07
5.66485e-07
-1.55606e-07
6.16117e-07
-1.5214e-07
6.64664e-07
-1.48742e-07
7.12167e-07
-1.45425e-07
7.58612e-07
-1.42201e-07
8.03966e-07
-1.39036e-07
8.4828e-07
-1.3588e-07
8.91603e-07
-1.32739e-07
9.33957e-07
-1.29646e-07
9.75358e-07
-1.2662e-07
1.01583e-06
-1.23669e-07
1.05538e-06
-1.20794e-07
1.09404e-06
-1.17996e-07
1.13184e-06
-1.15273e-07
1.16879e-06
-1.12625e-07
1.20491e-06
-1.1005e-07
1.24023e-06
-1.07548e-07
1.27476e-06
-1.05117e-07
1.30854e-06
-1.02758e-07
1.34158e-06
-1.00468e-07
1.37391e-06
-9.82479e-08
1.40554e-06
-9.60967e-08
1.43651e-06
-9.40149e-08
1.46683e-06
-9.20017e-08
1.49653e-06
-9.00578e-08
1.52563e-06
-8.81826e-08
1.55414e-06
-8.63764e-08
1.58209e-06
-8.46389e-08
1.60951e-06
-8.297e-08
1.63641e-06
-8.13691e-08
1.66281e-06
-7.98358e-08
1.68874e-06
-7.8369e-08
1.71422e-06
-7.69668e-08
1.73926e-06
-7.56271e-08
1.76389e-06
-7.43455e-08
1.78811e-06
-7.31169e-08
1.81196e-06
-7.19327e-08
1.83543e-06
-7.07819e-08
1.85853e-06
-6.9648e-08
1.88127e-06
-6.85093e-08
1.90363e-06
-6.7335e-08
1.9256e-06
-6.60831e-08
1.94713e-06
-6.4696e-08
1.96817e-06
-6.3092e-08
1.98862e-06
-6.11581e-08
2.00835e-06
-5.87296e-08
2.02715e-06
-5.55652e-08
2.04474e-06
-5.12997e-08
2.06067e-06
-4.53374e-08
2.07435e-06
-3.6735e-08
2.08499e-06
-2.37227e-08
2.09174e-06
-3.41864e-09
2.09507e-06
2.97131e-08
8.79603e-08
2.09702e-06
8.47374e-08
-6.17269e-07
4.84484e-08
-5.07653e-07
-4.11262e-09
-3.59668e-07
-6.56487e-08
-2.24377e-07
-1.40164e-07
-9.50943e-08
-2.31152e-07
2.97422e-08
-3.41654e-07
1.50356e-07
-4.74068e-07
2.66327e-07
-6.31141e-07
3.77403e-07
-8.16395e-07
4.8368e-07
-1.0346e-06
5.85756e-07
-1.28905e-06
6.84871e-07
-1.57628e-06
7.81812e-07
-1.88314e-06
8.74837e-07
-2.19004e-06
9.5899e-07
-2.47838e-06
1.02795e-06
-2.73551e-06
1.07668e-06
-2.95472e-06
1.10281e-06
-3.13391e-06
1.10655e-06
-3.2746e-06
1.09004e-06
-3.38201e-06
1.05649e-06
-3.46329e-06
1.00942e-06
-3.52549e-06
9.52737e-07
-3.5747e-06
8.90145e-07
-3.61614e-06
8.24605e-07
-3.65387e-06
7.58613e-07
-3.69077e-06
6.94111e-07
-3.72853e-06
6.32474e-07
-3.7679e-06
5.7455e-07
-3.80904e-06
5.20733e-07
-3.85163e-06
4.71102e-07
-3.89515e-06
4.25524e-07
-3.93892e-06
3.83738e-07
-3.98228e-06
3.45407e-07
-4.02457e-06
3.10165e-07
-4.06524e-06
2.77644e-07
-4.1038e-06
2.47494e-07
-4.13987e-06
2.19392e-07
-4.17311e-06
1.93049e-07
-4.20326e-06
1.6821e-07
-4.2301e-06
1.44655e-07
-4.25346e-06
1.22197e-07
-4.27319e-06
1.00677e-07
-4.28918e-06
7.99608e-08
-4.3013e-06
5.99333e-08
-4.30948e-06
4.04984e-08
-4.31364e-06
2.15743e-08
-4.31373e-06
3.08553e-09
-4.30973e-06
-1.50416e-08
-4.30169e-06
-3.28601e-08
-4.28967e-06
-5.03844e-08
-4.27372e-06
-6.76047e-08
-4.25386e-06
-8.45075e-08
-4.23016e-06
-1.01078e-07
-4.20267e-06
-1.17302e-07
-4.17146e-06
-1.33162e-07
-4.13659e-06
-1.48641e-07
-4.09815e-06
-1.63721e-07
-4.05623e-06
-1.7838e-07
-4.01092e-06
-1.926e-07
-3.96234e-06
-2.06361e-07
-3.91058e-06
-2.19641e-07
-3.85577e-06
-2.32419e-07
-3.79802e-06
-2.4468e-07
-3.73746e-06
-2.56411e-07
-3.67422e-06
-2.67595e-07
-3.60843e-06
-2.78218e-07
-3.54022e-06
-2.8827e-07
-3.46974e-06
-2.97742e-07
-3.39712e-06
-3.06629e-07
-3.3225e-06
-3.14925e-07
-3.24602e-06
-3.2263e-07
-3.16782e-06
-3.29742e-07
-3.08805e-06
-3.36266e-07
-3.00685e-06
-3.42204e-07
-2.92435e-06
-3.47564e-07
-2.8407e-06
-3.52354e-07
-2.75602e-06
-3.56583e-07
-2.67046e-06
-3.60264e-07
-2.58414e-06
-3.63409e-07
-2.49719e-06
-3.66033e-07
-2.40974e-06
-3.68151e-07
-2.3219e-06
-3.6978e-07
-2.2338e-06
-3.70936e-07
-2.14554e-06
-3.71638e-07
-2.05724e-06
-3.71904e-07
-1.969e-06
-3.71754e-07
-1.88094e-06
-3.71209e-07
-1.79317e-06
-3.70288e-07
-1.70577e-06
-3.69002e-07
-1.61884e-06
-3.67363e-07
-1.53243e-06
-3.65374e-07
-1.44665e-06
-3.63038e-07
-1.36154e-06
-3.6036e-07
-1.27715e-06
-3.5735e-07
-1.19353e-06
-3.54027e-07
-1.11072e-06
-3.50425e-07
-1.02877e-06
-3.46584e-07
-9.47732e-07
-3.42537e-07
-8.6766e-07
-3.38313e-07
-7.88603e-07
-3.33929e-07
-7.10599e-07
-3.29404e-07
-6.33683e-07
-3.24751e-07
-5.57884e-07
-3.19985e-07
-4.8323e-07
-3.15118e-07
-4.09741e-07
-3.10164e-07
-3.37438e-07
-3.05132e-07
-2.66333e-07
-3.00036e-07