/*--------------------------------*- C++ -*----------------------------------*\
  =========                 |
  \\      /  F ield         | OpenFOAM: The Open Source CFD Toolbox
   \\    /   O peration     | Website:  https://openfoam.org
    \\  /    A nd           | Version:  8
     \\/     M anipulation  |
\*---------------------------------------------------------------------------*/
FoamFile
{
    version     2.0;
    format      ascii;
    class       volVectorField;
    location    "300";
    object      U;
}
// * * * * * * * * * * * * * * * * * * * * * * * * * * * * * * * * * * * * * //

dimensions      [0 1 -1 0 0 0 0];

internalField   nonuniform List<vector> 
12225
(
(9.2745 -4.73371 0)
(13.1094 -1.71343 0)
(12.4779 -0.395196 0)
(11.2772 -0.042202 0)
(10.6315 0.0141464 0)
(10.2982 -7.73478e-05 0)
(10.0779 -0.0163616 0)
(9.91214 -0.00341951 0)
(9.77741 0.0328681 0)
(9.65898 0.0397395 0)
(9.55138 0.0213229 0)
(9.45295 -0.000560728 0)
(9.36217 -0.0234322 0)
(9.27848 -0.030133 0)
(9.19993 -0.0141438 0)
(9.13133 -0.00644313 0)
(9.06973 -0.0129519 0)
(9.08882 -0.028072 0)
(10.2592 0.0928017 0)
(10.7814 0.199338 0)
(10.9594 0.245655 0)
(10.747 0.229143 0)
(10.5876 0.172972 0)
(10.4528 0.115563 0)
(10.3301 0.0823126 0)
(10.2331 0.0642634 0)
(10.1561 0.0514616 0)
(10.0908 0.0461973 0)
(10.0336 0.0464568 0)
(9.98309 0.0489902 0)
(9.93855 0.052005 0)
(9.89862 0.0519804 0)
(9.86126 0.0469136 0)
(9.82758 0.0414084 0)
(9.79253 0.0293613 0)
(9.76716 0.0114666 0)
(9.87768 -0.24504 0)
(9.74285 0.00578976 0)
(10.1971 0.125742 0)
(10.3245 0.179363 0)
(10.3564 0.16155 0)
(10.3312 0.120082 0)
(10.2777 0.0904275 0)
(10.2253 0.0742905 0)
(10.1816 0.0651315 0)
(10.1443 0.0591433 0)
(10.1108 0.055434 0)
(10.0803 0.0531226 0)
(10.0521 0.0508868 0)
(10.026 0.0486209 0)
(10.0021 0.0462518 0)
(9.98112 0.0423279 0)
(9.95938 0.0321157 0)
(9.9348 0.0136772 0)
(9.83416 -0.443933 0)
(9.57654 -0.163148 0)
(9.91603 0.0336692 0)
(10.0933 0.134223 0)
(10.1893 0.145472 0)
(10.2168 0.120726 0)
(10.205 0.0978057 0)
(10.1824 0.0836617 0)
(10.16 0.0752201 0)
(10.1391 0.0691993 0)
(10.1193 0.0646237 0)
(10.1003 0.0612317 0)
(10.0822 0.0583628 0)
(10.0647 0.0560836 0)
(10.0482 0.0540095 0)
(10.0327 0.0505809 0)
(10.0152 0.0426657 0)
(9.99214 0.0304031 0)
(9.87825 -0.387476 0)
(9.61653 -0.196148 0)
(9.81623 -0.0186719 0)
(9.96136 0.0916106 0)
(10.0698 0.122192 0)
(10.1219 0.113605 0)
(10.1353 0.0991831 0)
(10.1331 0.0882867 0)
(10.1257 0.0807865 0)
(10.1162 0.0751912 0)
(10.1057 0.0708854 0)
(10.0947 0.0676471 0)
(10.0834 0.0650557 0)
(10.0718 0.0630089 0)
(10.0601 0.0610601 0)
(10.0479 0.0582304 0)
(10.0332 0.0530398 0)
(10.0127 0.046563 0)
(9.91439 -0.28804 0)
(9.68304 -0.185177 0)
(9.78717 -0.0532097 0)
(9.88918 0.0509956 0)
(9.98798 0.0936722 0)
(10.0476 0.0991773 0)
(10.0751 0.0938131 0)
(10.086 0.0874544 0)
(10.0891 0.0820801 0)
(10.088 0.0777123 0)
(10.0843 0.0742586 0)
(10.0791 0.0716285 0)
(10.0727 0.0695895 0)
(10.0654 0.0680269 0)
(10.0572 0.0666456 0)
(10.0477 0.0649862 0)
(10.0356 0.0626059 0)
(10.0187 0.0608026 0)
(9.93763 -0.214041 0)
(9.74856 -0.167538 0)
(9.79244 -0.0752189 0)
(9.85609 0.0162144 0)
(9.93596 0.06441 0)
(9.99282 0.0805682 0)
(10.026 0.0835182 0)
(10.0446 0.0822173 0)
(10.0546 0.0797871 0)
(10.0593 0.0772963 0)
(10.0607 0.0751492 0)
(10.0597 0.0734832 0)
(10.0571 0.0722732 0)
(10.0531 0.0715001 0)
(10.0478 0.071063 0)
(10.0408 0.0708698 0)
(10.0313 0.0710454 0)
(10.0183 0.0727993 0)
(9.95263 -0.167334 0)
(9.79947 -0.149678 0)
(9.81178 -0.0846433 0)
(9.84959 -0.00621406 0)
(9.91141 0.0419239 0)
(9.96107 0.0638808 0)
(9.9943 0.07253 0)
(10.0156 0.0752853 0)
(10.0288 0.0755563 0)
(10.0367 0.0749343 0)
(10.041 0.0741548 0)
(10.0428 0.0735502 0)
(10.0426 0.0732543 0)
(10.0408 0.0733517 0)
(10.0375 0.0738897 0)
(10.0325 0.0749857 0)
(10.0254 0.0769876 0)
(10.0157 0.0809133 0)
(9.96406 -0.132089 0)
(9.84003 -0.13199 0)
(9.83337 -0.0876928 0)
(9.85306 -0.021338 0)
(9.89927 0.0244052 0)
(9.94102 0.0494943 0)
(9.97206 0.0621019 0)
(9.99383 0.068072 0)
(10.0086 0.0707145 0)
(10.0184 0.0718171 0)
(10.0246 0.0723188 0)
(10.0282 0.0727184 0)
(10.0298 0.0732882 0)
(10.0297 0.0742169 0)
(10.0281 0.0756602 0)
(10.0248 0.0778459 0)
(10.0197 0.0811976 0)
(10.0128 0.0865444 0)
(9.97418 -0.100205 0)
(9.87757 -0.112392 0)
(9.85857 -0.0853697 0)
(9.86388 -0.0323389 0)
(9.89487 0.00891786 0)
(9.92742 0.035206 0)
(9.95438 0.0506979 0)
(9.97501 0.0594907 0)
(9.99014 0.0644543 0)
(10.001 0.0673714 0)
(10.0085 0.0692925 0)
(10.0136 0.0708419 0)
(10.0166 0.0724083 0)
(10.018 0.074272 0)
(10.018 0.0766783 0)
(10.0165 0.0799207 0)
(10.0136 0.0844239 0)
(10.0094 0.0908156 0)
(9.98253 -0.0727091 0)
(9.91035 -0.0921986 0)
(9.88507 -0.0782477 0)
(9.88002 -0.0386134 0)
(9.89746 -0.00338428 0)
(9.92043 0.0221536 0)
(9.94195 0.0391686 0)
(9.95998 0.0500731 0)
(9.97425 0.057057 0)
(9.98519 0.0617046 0)
(9.99341 0.0650646 0)
(9.99944 0.0678251 0)
(10.0037 0.0704514 0)
(10.0064 0.073294 0)
(10.0078 0.0766545 0)
(10.008 0.0808497 0)
(10.0073 0.086255 0)
(10.0057 0.0933129 0)
(9.98894 -0.0502566 0)
(9.93733 -0.0723808 0)
(9.91073 -0.0674517 0)
(9.89917 -0.0399886 0)
(9.90566 -0.0116592 0)
(9.91955 0.0114392 0)
(9.93496 0.028517 0)
(9.94933 0.0405701 0)
(9.96169 0.0490171 0)
(9.97188 0.0551006 0)
(9.9801 0.0597567 0)
(9.9866 0.0636615 0)
(9.99164 0.0673085 0)
(9.99544 0.0710801 0)
(9.99819 0.0752976 0)
(10 0.0802637 0)
(10.0012 0.0862808 0)
(10.0021 0.0936344 0)
(9.99348 -0.0329084 0)
(9.9582 -0.0538139 0)
(9.93368 -0.054287 0)
(9.91898 -0.0367927 0)
(9.91755 -0.0154617 0)
(9.92366 0.00398374 0)
(9.93301 0.019763 0)
(9.94317 0.0318642 0)
(9.95289 0.0409971 0)
(9.96162 0.0480019 0)
(9.96922 0.0536184 0)
(9.9757 0.0584401 0)
(9.98118 0.0629323 0)
(9.98577 0.0674638 0)
(9.98962 0.0723399 0)
(9.99291 0.0778214 0)
(9.99582 0.0841301 0)
(9.99863 0.0914411 0)
(9.99643 -0.0202021 0)
(9.97327 -0.0372128 0)
(9.95261 -0.0400487 0)
(9.93731 -0.0298155 0)
(9.93089 -0.0148309 0)
(9.93102 0.000356638 0)
(9.93503 0.0137622 0)
(9.94104 0.0248286 0)
(9.94781 0.0337415 0)
(9.95464 0.0409679 0)
(9.96117 0.0470177 0)
(9.96723 0.0523516 0)
(9.97279 0.0573555 0)
(9.97788 0.0623462 0)
(9.98258 0.067578 0)
(9.987 0.073254 0)
(9.9913 0.0795249 0)
(9.99567 0.086485 0)
(9.99816 -0.0112871 0)
(9.9833 -0.0229341 0)
(9.96682 -0.0257662 0)
(9.95243 -0.0200814 0)
(9.94344 -0.0102486 0)
(9.93952 0.000665838 0)
(9.93939 0.0110182 0)
(9.94182 0.0201292 0)
(9.94581 0.0279063 0)
(9.95068 0.0345474 0)
(9.95596 0.0403538 0)
(9.96138 0.0456359 0)
(9.96679 0.0506724 0)
(9.97213 0.0556956 0)
(9.9774 0.0608903 0)
(9.98266 0.0663925 0)
(9.98798 0.0722923 0)
(9.99348 0.0786293 0)
(9.99906 -0.0050802 0)
(9.98922 -0.0107858 0)
(9.97612 -0.0119211 0)
(9.96309 -0.00848791 0)
(9.9531 -0.00244101 0)
(9.94685 0.00457017 0)
(9.94399 0.0115469 0)
(9.94383 0.0180071 0)
(9.94569 0.0238218 0)
(9.94895 0.0290588 0)
(9.95316 0.0338739 0)
(9.95798 0.038444 0)
(9.96319 0.0429343 0)
(9.96866 0.0474823 0)
(9.97432 0.0521923 0)
(9.98016 0.0571338 0)
(9.98618 0.0623419 0)
(9.99244 0.0678186 0)
(9.99942 -0.00036664 0)
(9.99181 0.000144756 0)
(9.98042 0.00182666 0)
(9.96821 0.00458853 0)
(9.9579 0.00791417 0)
(9.9506 0.0113954 0)
(9.94641 0.0148094 0)
(9.94497 0.0180799 0)
(9.94575 0.0212227 0)
(9.94824 0.0243041 0)
(9.95197 0.0274055 0)
(9.95659 0.0306038 0)
(9.96184 0.0339623 0)
(9.96754 0.0375244 0)
(9.97359 0.041315 0)
(9.9799 0.0453374 0)
(9.98644 0.049578 0)
(9.99321 0.0540056 0)
(9.99935 0.00408541 0)
(9.9911 0.011165 0)
(9.97897 0.0161275 0)
(9.96616 0.0187319 0)
(9.95552 0.0196097 0)
(9.94819 0.0195449 0)
(9.94419 0.0191595 0)
(9.94311 0.0188632 0)
(9.94437 0.0188959 0)
(9.9474 0.0193743 0)
(9.95172 0.0203385 0)
(9.95696 0.0217848 0)
(9.96284 0.0236811 0)
(9.96916 0.0259853 0)
(9.9758 0.0286437 0)
(9.98266 0.0316022 0)
(9.9897 0.0347999 0)
(9.99688 0.0381774 0)
(9.99882 0.00973038 0)
(9.98675 0.0240411 0)
(9.97122 0.0318416 0)
(9.95642 0.0332905 0)
(9.94559 0.0307046 0)
(9.93942 0.0263546 0)
(9.93735 0.0217581 0)
(9.93845 0.017753 0)
(9.94186 0.0147123 0)
(9.94685 0.012728 0)
(9.9529 0.0117456 0)
(9.9596 0.0116445 0)
(9.96671 0.0122882 0)
(9.97405 0.0135407 0)
(9.98152 0.0152796 0)
(9.98905 0.0173944 0)
(9.99661 0.019789 0)
(10.0042 0.0223776 0)
(9.99757 0.0182106 0)
(9.97774 0.040449 0)
(9.95664 0.0495728 0)
(9.93945 0.0474767 0)
(9.92962 0.0394263 0)
(9.9266 0.029659 0)
(9.9285 0.02051 0)
(9.93357 0.0129979 0)
(9.94055 0.00738576 0)
(9.94854 0.00356206 0)
(9.95702 0.00126682 0)
(9.96564 0.000209576 0)
(9.97424 0.000130575 0)
(9.98272 0.000796737 0)
(9.99104 0.00202938 0)
(9.99921 0.00367209 0)
(10.0072 0.0056073 0)
(10.0151 0.00773182 0)
(9.99502 0.0318152 0)
(9.96178 0.0621285 0)
(9.93372 0.0695472 0)
(9.91535 0.0601123 0)
(9.90934 0.043955 0)
(9.91251 0.0276755 0)
(9.92086 0.014025 0)
(9.93164 0.00368072 0)
(9.94324 -0.00357881 0)
(9.95479 -0.00829451 0)
(9.96591 -0.0110445 0)
(9.97647 -0.0123175 0)
(9.98644 -0.0125164 0)
(9.99588 -0.0119303 0)
(10.0048 -0.0107967 0)
(10.0134 -0.009273 0)
(10.0216 -0.00750074 0)
(10.0296 -0.00557058 0)
(9.99018 0.0534625 0)
(9.93561 0.090148 0)
(9.90099 0.0906234 0)
(9.88516 0.0687536 0)
(9.88782 0.0418224 0)
(9.90125 0.0186758 0)
(9.9186 0.00144936 0)
(9.93631 -0.0103402 0)
(9.95289 -0.0178568 0)
(9.96787 -0.0222632 0)
(9.98126 -0.0244982 0)
(9.99325 -0.0252448 0)
(10.0041 -0.0249896 0)
(10.014 -0.0240606 0)
(10.0231 -0.022689 0)
(10.0317 -0.021027 0)
(10.0398 -0.019194 0)
(10.0475 -0.0172836 0)
(9.9819 0.0862478 0)
(9.89549 0.124255 0)
(9.85818 0.10988 0)
(9.85211 0.0697692 0)
(9.87037 0.0303383 0)
(9.89847 0.00146093 0)
(9.92664 -0.0171711 0)
(9.95142 -0.0282627 0)
(9.97228 -0.034292 0)
(9.98966 -0.0371251 0)
(10.0042 -0.0379562 0)
(10.0167 -0.0375728 0)
(10.0274 -0.0364253 0)
(10.037 -0.03487 0)
(10.0457 -0.0330613 0)
(10.0537 -0.0311193 0)
(10.0612 -0.0291138 0)
(10.0683 -0.0271312 0)
(9.96925 0.13399 0)
(9.83823 0.163087 0)
(9.80793 0.122587 0)
(9.82313 0.0587933 0)
(9.86517 0.00730168 0)
(9.91145 -0.0240236 0)
(9.95043 -0.0405715 0)
(9.9806 -0.0483007 0)
(10.0036 -0.0510849 0)
(10.0213 -0.0512398 0)
(10.0353 -0.0500501 0)
(10.0467 -0.0481532 0)
(10.0563 -0.0459581 0)
(10.0646 -0.0436639 0)
(10.072 -0.0413986 0)
(10.0788 -0.039133 0)
(10.0851 -0.0369338 0)
(10.0909 -0.0348749 0)
(9.94951 0.207141 0)
(9.76128 0.207022 0)
(9.75726 0.123473 0)
(9.81044 0.0320018 0)
(9.88387 -0.0278763 0)
(9.94881 -0.0560097 0)
(9.99537 -0.0660719 0)
(10.0268 -0.0677817 0)
(10.0482 -0.0659271 0)
(10.0632 -0.0628286 0)
(10.0743 -0.059415 0)
(10.0829 -0.0560445 0)
(10.0897 -0.0528184 0)
(10.0955 -0.0498982 0)
(10.1007 -0.0472788 0)
(10.1054 -0.0447899 0)
(10.1098 -0.0424125 0)
(10.1139 -0.040301 0)
(9.91094 0.322719 0)
(9.65922 0.254545 0)
(9.71887 0.107402 0)
(9.83331 -0.0119366 0)
(9.94178 -0.0726791 0)
(10.02 -0.0902044 0)
(10.0663 -0.0893767 0)
(10.0919 -0.0832696 0)
(10.1062 -0.0763021 0)
(10.1146 -0.0701645 0)
(10.1198 -0.0649059 0)
(10.1234 -0.060376 0)
(10.1259 -0.0563504 0)
(10.1277 -0.0530493 0)
(10.1294 -0.0503476 0)
(10.1312 -0.0478311 0)
(10.1329 -0.0452962 0)
(10.1342 -0.0431777 0)
(9.84404 0.43511 0)
(9.53797 0.261027 0)
(9.7269 0.0591293 0)
(9.92369 -0.0731314 0)
(10.0584 -0.121588 0)
(10.1345 -0.12025 0)
(10.1665 -0.1054 0)
(10.1758 -0.0910715 0)
(10.1759 -0.0798162 0)
(10.1727 -0.071743 0)
(10.1689 -0.0657201 0)
(10.165 -0.0605816 0)
(10.1609 -0.0559535 0)
(10.1567 -0.0522508 0)
(10.1534 -0.0498089 0)
(10.151 -0.0476683 0)
(10.1485 -0.0449627 0)
(10.1458 -0.0427033 0)
(9.83598 0.319667 0)
(9.55021 0.0912512 0)
(9.91739 -0.0687282 0)
(10.1507 -0.160124 0)
(10.2635 -0.172164 0)
(10.3033 -0.142777 0)
(10.2976 -0.112288 0)
(10.2753 -0.0908944 0)
(10.2515 -0.0769114 0)
(10.2306 -0.068316 0)
(10.2135 -0.0626965 0)
(10.199 -0.0577979 0)
(10.185 -0.0523553 0)
(10.1716 -0.0478875 0)
(10.1603 -0.0452745 0)
(10.1511 -0.0422928 0)
(10.1424 -0.0384367 0)
(10.1331 -0.0367672 0)
(10.2049 -0.0633774 0)
(10.4095 -0.191708 0)
(10.7164 -0.282552 0)
(10.6879 -0.282284 0)
(10.6192 -0.230103 0)
(10.5417 -0.163694 0)
(10.4539 -0.117389 0)
(10.3751 -0.09333 0)
(10.3135 -0.0799723 0)
(10.2656 -0.0685533 0)
(10.2261 -0.0595421 0)
(10.1927 -0.0548874 0)
(10.1612 -0.0541717 0)
(10.1335 -0.0525261 0)
(10.1097 -0.0474826 0)
(10.0864 -0.0445957 0)
(10.0644 -0.0464666 0)
(10.0461 -0.0449584 0)
(9.41631 4.45107 0)
(12.7294 2.07612 0)
(12.5649 0.621225 0)
(11.5691 0.127671 0)
(10.9311 0.0034482 0)
(10.5866 -0.00207699 0)
(10.3631 0.0119569 0)
(10.2009 0.0295818 0)
(10.0784 0.0414809 0)
(9.97609 0.0354315 0)
(9.88333 0.0260182 0)
(9.7969 0.0229808 0)
(9.72401 0.028319 0)
(9.66085 0.0231094 0)
(9.5997 0.00556309 0)
(9.54363 -0.00944993 0)
(9.4955 0.00256264 0)
(9.45213 0.0087848 0)
(-0.0273101 0.0934231 0)
(0.13811 -0.184228 0)
(0.326571 -0.306847 0)
(0.527519 -0.315783 0)
(0.705016 -0.272307 0)
(0.835295 -0.210977 0)
(0.911161 -0.145998 -8.58048e-20)
(0.941256 -0.0819562 8.64926e-20)
(0.919599 -0.019471 0)
(0.858207 0.0352412 9.17751e-20)
(0.770517 0.0744815 0)
(0.670999 0.0921881 0)
(0.577201 0.0875419 0)
(0.504819 0.0662062 -1.43223e-19)
(0.455128 0.0370735 0)
(0.411319 0.00919434 0)
(0.350827 -0.00964104 1.88067e-19)
(0.259288 -0.00857313 0)
(0.129649 0.0320239 0)
(-0.0528326 0.116764 0)
(-0.31077 0.188015 -1.61304e-19)
(-0.60614 0.237693 0)
(-0.928399 0.269377 -7.50968e-20)
(-1.26575 0.297893 0)
(-1.60582 0.324993 0)
(-1.94573 0.337219 -4.10234e-20)
(-2.27807 0.335961 0)
(-2.59487 0.326482 3.43773e-20)
(-2.89314 0.310066 0)
(-3.16956 0.289098 -3.12423e-20)
(-3.42326 0.265869 0)
(-3.6539 0.241946 0)
(-3.86222 0.21835 0)
(-4.04935 0.195769 0)
(-4.21672 0.174575 0)
(-4.3659 0.154963 2.81913e-20)
(-4.49848 0.136965 0)
(-4.61593 0.120504 -5.55069e-20)
(-4.71963 0.105452 0)
(-4.8108 0.0916482 5.47163e-20)
(-4.89047 0.0789316 0)
(-4.95954 0.0671505 0)
(-5.01875 0.0561795 -5.35013e-20)
(-5.06873 0.0459239 0)
(-5.10995 0.0363276 -5.2612e-20)
(-5.14285 0.0273766 5.21347e-20)
(-5.16782 0.0191235 0)
(-5.18524 0.0117292 5.11082e-20)
(-5.19538 0.00545318 5.05553e-20)
(-5.1984 0.000475783 0)
(-5.19572 -0.00343332 0)
(-5.1884 -0.00672534 0)
(-5.17661 -0.00965377 0)
(-5.16067 -0.0123714 0)
(-5.14074 -0.0149508 -4.6114e-20)
(-5.11695 -0.0173997 0)
(-5.08941 -0.0197335 4.42385e-20)
(-5.05822 -0.0219581 0)
(-5.0235 -0.0240763 0)
(-4.98534 -0.0260898 -4.10411e-20)
(-4.94384 -0.0279985 0)
(-4.89912 -0.0298027 3.86499e-20)
(-4.85129 -0.0315016 0)
(-4.80046 -0.0330956 0)
(-4.74675 -0.0345843 0)
(-4.69028 -0.0359677 -3.32321e-20)
(-4.63118 -0.0372468 0)
(-4.56957 -0.0384219 0)
(-4.50559 -0.0394929 -2.85993e-20)
(-4.43936 -0.0404616 0)
(-4.37101 -0.041329 -2.52308e-20)
(-4.30069 -0.0420964 0)
(-4.22851 -0.0427657 0)
(-4.15463 -0.0433385 0)
(-4.07916 -0.0438173 1.77894e-20)
(-4.00225 -0.0442039 0)
(-3.92402 -0.044501 0)
(-3.8446 -0.0447108 1.155e-20)
(-3.76411 -0.0448363 9.33507e-21)
(-3.68269 -0.0448798 0)
(-3.60046 -0.0448451 4.68755e-21)
(-3.51752 -0.0447348 0)
(-3.43399 -0.044554 -5.42595e-22)
(-3.34998 -0.0443067 0)
(-3.26559 -0.0440009 -1.11461e-20)
(-3.18091 -0.0436453 0)
(-3.09604 -0.0432559 2.25174e-20)
(-3.01106 -0.0428522 0)
(-2.92605 -0.0424674 0)
(-2.84104 -0.0421468 0)
(-2.75608 -0.0419566 -4.80246e-20)
(-2.67118 -0.0419852 0)
(-2.58634 -0.0423208 6.25003e-20)
(-2.50153 -0.0430008 0)
(-2.41672 -0.0439215 -7.83957e-20)
(-2.33226 -0.0447554 -8.68849e-20)
(-2.24835 -0.045049 -9.56987e-20)
(-2.16525 -0.0447049 0)
(-2.08309 -0.0440513 0)
(-2.00189 -0.0433404 0)
(-1.92164 -0.0426291 0)
(-1.84237 -0.0419229 0)
(-1.7641 -0.0412236 0)
(-1.68684 -0.0405321 0)
(-1.61063 -0.0398538 0)
(-1.53549 -0.0391935 1.96347e-19)
(-1.46143 -0.0385599 2.10923e-19)
(-1.38846 -0.0379555 0)
(-1.31659 -0.037365 0)
(-1.24587 -0.0367246 0)
(-1.17632 -0.0360593 2.79472e-19)
(-1.10794 -0.0354278 0)
(-1.04073 -0.0348125 0)
(-0.974699 -0.034218 0)
(-0.90984 -0.0336464 0)
(-0.846156 -0.0330988 -3.98753e-19)
(-0.783642 -0.032579 0)
(-0.722296 -0.0320894 0)
(-0.662108 -0.0316338 4.99549e-19)
(-0.603072 -0.031213 -5.40408e-19)
(-0.545181 -0.0308322 0)
(-0.488426 -0.0305027 -6.36989e-19)
(-0.432792 -0.0302533 0)
(-0.378259 -0.0301352 7.60222e-19)
(-0.324803 -0.0301387 0)
(-0.272412 -0.030217 0)
(-0.22107 -0.0303756 0)
(-0.170745 -0.0306242 0)
(-0.121421 -0.0309803 0)
(-0.073151 -0.0314654 -2.95382e-18)
(-0.0262391 -0.0319153 -3.41404e-18)
(0.0195657 -0.0312797 0)
(0.0648312 -0.0294748 0)
(0.109356 -0.0276133 0)
(0.153014 -0.0259396 2.62114e-18)
(0.195741 -0.0244464 0)
(0.237533 -0.0231059 0)
(0.278419 -0.0218964 0)
(0.318433 -0.0207984 2.00815e-18)
(0.357606 -0.0197955 -1.90611e-18)
(0.395965 -0.0188739 0)
(0.433535 -0.0180231 0)
(0.470342 -0.017234 -1.66809e-18)
(0.50641 -0.0164998 -1.60545e-18)
(0.541763 -0.0158144 0)
(0.576424 -0.0151731 0)
(0.610415 -0.0145717 1.4517e-18)
(0.643759 -0.014007 -1.40934e-18)
(0.676478 -0.0134758 0)
(0.708595 -0.0129756 0)
(0.740131 -0.0125041 -1.30169e-18)
(0.771108 -0.0120594 0)
(0.801551 -0.0116397 0)
(0.831482 -0.0112434 -1.21606e-18)
(0.860924 -0.0108693 0)
(0.889901 -0.0105161 -1.16794e-18)
(0.918435 -0.0101827 0)
(0.94655 -0.00986793 0)
(0.974269 -0.00957083 0)
(1.00161 -0.00929033 1.08742e-18)
(1.0286 -0.0090253 0)
(1.05526 -0.00877451 0)
(1.0816 -0.00853649 0)
(1.10764 -0.00830945 0)
(1.13339 -0.00809116 0)
(1.15885 -0.0078787 0)
(1.18402 -0.00766826 9.80329e-19)
(1.20886 -0.00745469 9.67596e-19)
(1.23335 -0.00723104 0)
(1.25741 -0.00698778 0)
(1.28093 -0.00671151 0)
(1.30376 -0.00638341 -9.22899e-19)
(1.32565 -0.00597448 0)
(1.3462 -0.00544415 1.81122e-18)
(1.36494 -0.00470999 -1.79815e-18)
(1.38051 -0.00366861 -1.78951e-18)
(1.39287 -0.00190328 1.78829e-18)
(1.39308 0.00138711 -1.79332e-18)
(1.39007 0.00814428 1.8072e-18)
(1.31059 0.0199298 0)
(0.0962826 -0.271644 0)
(0.335125 -0.684312 0)
(0.515106 -0.70758 1.56468e-19)
(0.612259 -0.57136 0)
(0.662934 -0.408342 -1.10549e-19)
(0.68307 -0.252783 -1.07738e-19)
(0.676708 -0.110723 -5.61638e-20)
(0.64593 0.017331 -5.61317e-20)
(0.602681 0.127244 0)
(0.543088 0.21361 -6.08043e-20)
(0.465816 0.268598 0)
(0.370798 0.283564 0)
(0.254219 0.255928 1.70896e-19)
(0.105624 0.211034 9.86419e-20)
(-0.0809819 0.207576 -1.839e-19)
(-0.309355 0.275142 -1.42542e-19)
(-0.589969 0.388156 -5.66867e-20)
(-0.918186 0.518838 0)
(-1.2728 0.648615 0)
(-1.6309 0.762067 0)
(-1.98717 0.846149 -2.83993e-20)
(-2.33263 0.898378 0)
(-2.66171 0.921002 6.86873e-20)
(-2.9678 0.916267 0)
(-3.24656 0.888814 0)
(-3.49623 0.843969 1.97661e-20)
(-3.71565 0.78691 0)
(-3.90561 0.723208 -1.97264e-20)
(-4.06814 0.656993 -4.17429e-20)
(-4.20676 0.590944 2.01486e-20)
(-4.32437 0.527172 0)
(-4.42389 0.467408 0)
(-4.508 0.412462 0)
(-4.57911 0.362665 -4.42389e-20)
(-4.63926 0.317966 -4.47474e-20)
(-4.69013 0.278084 -2.21826e-20)
(-4.73309 0.242605 0)
(-4.76923 0.211043 4.52925e-20)
(-4.79944 0.1829 0)
(-4.82444 0.157696 -4.58623e-20)
(-4.84481 0.134992 0)
(-4.86103 0.114394 0)
(-4.87353 0.095564 4.60685e-20)
(-4.88268 0.0782134 0)
(-4.88882 0.0621035 1.38097e-19)
(-4.89226 0.0470402 -4.55829e-20)
(-4.89327 0.0328931 0)
(-4.8921 0.0196435 -4.49083e-20)
(-4.88903 0.00742182 -4.44443e-20)
(-4.8843 -0.00361692 0)
(-4.87684 -0.0135573 0)
(-4.86568 -0.0227012 0)
(-4.85081 -0.0312781 0)
(-4.83212 -0.0394011 0)
(-4.80966 -0.0471359 4.01543e-20)
(-4.78348 -0.0545188 7.90344e-20)
(-4.75366 -0.061569 -3.83677e-20)
(-4.72029 -0.068298 0)
(-4.68346 -0.0747103 7.33251e-20)
(-4.64325 -0.0808088 -3.58828e-20)
(-4.59978 -0.0865933 0)
(-4.55314 -0.0920639 -3.31645e-20)
(-4.50343 -0.0972199 0)
(-4.45078 -0.102063 0)
(-4.39529 -0.106595 -5.9646e-20)
(-4.33708 -0.110814 2.82509e-20)
(-4.27627 -0.114722 -5.44191e-20)
(-4.21299 -0.118321 5.16812e-20)
(-4.14736 -0.121616 2.41304e-20)
(-4.07952 -0.12461 0)
(-4.00958 -0.127309 2.11758e-20)
(-3.93767 -0.129718 0)
(-3.86394 -0.131845 0)
(-3.7885 -0.133697 0)
(-3.7115 -0.135282 1.54062e-20)
(-3.63305 -0.136609 0)
(-3.55328 -0.137688 2.32471e-20)
(-3.47232 -0.138529 -2.9147e-20)
(-3.3903 -0.139143 -7.64829e-21)
(-3.30733 -0.13954 0)
(-3.22353 -0.139732 -3.81477e-21)
(-3.13901 -0.13973 0)
(-3.05389 -0.139548 4.32335e-22)
(-2.96827 -0.139195 0)
(-2.88225 -0.138686 8.91513e-21)
(-2.79593 -0.138031 -2.52407e-20)
(-2.70941 -0.137244 -1.78521e-20)
(-2.62277 -0.136335 0)
(-2.53613 -0.135314 0)
(-2.44956 -0.134182 0)
(-2.36317 -0.132934 3.72596e-20)
(-2.27706 -0.13156 0)
(-2.19138 -0.130026 -4.78399e-20)
(-2.10629 -0.128274 0)
(-2.0219 -0.126257 1.75778e-19)
(-1.93829 -0.124027 6.50005e-20)
(-1.85545 -0.121697 7.10974e-20)
(-1.77332 -0.119367 0)
(-1.6919 -0.117079 0)
(-1.61124 -0.114822 0)
(-1.53143 -0.112576 0)
(-1.4525 -0.110326 0)
(-1.37449 -0.108071 2.23289e-19)
(-1.29744 -0.105811 2.38969e-19)
(-1.22136 -0.103551 0)
(-1.14629 -0.101292 -1.36965e-19)
(-1.07226 -0.0990376 -1.45857e-19)
(-0.999283 -0.0967889 0)
(-0.927386 -0.0945491 -3.28149e-19)
(-0.856583 -0.0923221 0)
(-0.786862 -0.0901243 1.84154e-19)
(-0.718237 -0.0879581 0)
(-0.650716 -0.0858242 0)
(-0.584303 -0.0837243 -4.41131e-19)
(-0.518999 -0.0816607 0)
(-0.454805 -0.0796341 2.48584e-19)
(-0.39172 -0.0776489 0)
(-0.329741 -0.0757118 0)
(-0.268861 -0.0738293 2.94258e-19)
(-0.20907 -0.0719966 3.13873e-19)
(-0.150362 -0.0702121 0)
(-0.0927308 -0.0684778 -3.51841e-19)
(-0.0361869 -0.0667931 0)
(0.019282 -0.0651465 3.84517e-19)
(0.0737299 -0.0635356 7.61678e-19)
(0.127176 -0.0619752 0)
(0.179615 -0.0604775 0)
(0.231052 -0.0590438 0)
(0.281507 -0.0576731 0)
(0.331015 -0.0563664 7.05924e-19)
(0.379665 -0.055107 2.08709e-18)
(0.427543 -0.0536569 0)
(0.474478 -0.0519234 0)
(0.520368 -0.0501254 0)
(0.565343 -0.0483836 -6.63133e-19)
(0.609458 -0.0467282 0)
(0.652731 -0.045162 0)
(0.695183 -0.0436807 1.28369e-18)
(0.736834 -0.0422766 6.34939e-19)
(0.777707 -0.0409423 6.30501e-19)
(0.817821 -0.0396711 0)
(0.857199 -0.0384579 0)
(0.895863 -0.0372985 6.14225e-19)
(0.933834 -0.0361893 -6.0808e-19)
(0.971134 -0.0351275 0)
(1.00778 -0.0341108 0)
(1.04381 -0.0331372 -5.95432e-19)
(1.07922 -0.032205 1.77252e-18)
(1.11405 -0.0313125 0)
(1.14832 -0.0304584 0)
(1.18204 -0.0296411 5.79215e-19)
(1.21524 -0.0288597 0)
(1.24794 -0.0281129 1.14295e-18)
(1.28016 -0.0273998 -5.67603e-19)
(1.31193 -0.0267194 0)
(1.34327 -0.0260707 5.61587e-19)
(1.37419 -0.0254527 1.11599e-18)
(1.40472 -0.0248642 0)
(1.43489 -0.0243041 0)
(1.46471 -0.0237708 -5.48942e-19)
(1.4942 -0.0232626 0)
(1.52337 -0.0227773 1.08535e-18)
(1.55226 -0.0223118 0)
(1.58086 -0.0218626 0)
(1.60918 -0.0214246 0)
(1.63723 -0.0209911 0)
(1.66501 -0.0205532 -5.28661e-19)
(1.69248 -0.020099 -5.25933e-19)
(1.71962 -0.019612 0)
(1.74636 -0.0190697 0)
(1.77261 -0.0184402 0)
(1.79824 -0.0176784 5.15989e-19)
(1.82303 -0.0167163 0)
(1.84666 -0.0154529 -1.0247e-18)
(1.86871 -0.0137064 1.02254e-18)
(1.88826 -0.011202 1.02214e-18)
(1.90487 -0.00718012 1.0235e-18)
(1.91491 -0.000381054 1.02825e-18)
(1.92704 0.0125807 1.02048e-18)
(1.90734 0.0363349 0)
(0.116443 -0.86343 0)
(0.268719 -1.05848 0)
(0.315439 -0.82605 -1.26126e-19)
(0.314455 -0.583452 -1.08023e-19)
(0.296745 -0.372475 1.00391e-19)
(0.265199 -0.186892 1.00656e-19)
(0.218607 -0.0210362 -6.42029e-22)
(0.156249 0.127013 0)
(0.0779794 0.257726 0)
(-0.0174783 0.368627 0)
(-0.133802 0.454127 0)
(-0.279217 0.515134 0)
(-0.466775 0.5696 -2.65929e-19)
(-0.70676 0.645755 0)
(-0.9949 0.759901 6.58475e-20)
(-1.31504 0.90287 5.68057e-20)
(-1.64913 1.05114 0)
(-1.98019 1.18464 0)
(-2.2929 1.29106 0)
(-2.57567 1.36345 0)
(-2.82359 1.39764 3.47616e-20)
(-3.0363 1.3936 0)
(-3.21516 1.35634 -3.224e-20)
(-3.36325 1.29311 0)
(-3.48502 1.21107 0)
(-3.58512 1.11677 0)
(-3.66833 1.01622 -6.85021e-20)
(-3.73898 0.91473 0)
(-3.80059 0.816382 3.30914e-20)
(-3.85589 0.723907 -7.06552e-20)
(-3.90677 0.638786 0)
(-3.95451 0.561722 0)
(-3.99984 0.49274 0)
(-4.04311 0.431441 3.65553e-20)
(-4.08443 0.377168 3.71426e-20)
(-4.12374 0.329143 0)
(-4.1609 0.28657 0)
(-4.19574 0.248689 -7.77744e-20)
(-4.22808 0.214809 -7.81645e-20)
(-4.25775 0.184323 7.83942e-20)
(-4.28462 0.156716 0)
(-4.30855 0.131561 0)
(-4.32948 0.108513 0)
(-4.34731 0.0872918 0)
(-4.36198 0.0676639 -7.69595e-20)
(-4.37345 0.0494305 -7.68597e-20)
(-4.38164 0.0324062 7.62133e-20)
(-4.38639 0.0163842 0)
(-4.38754 0.00109997 0)
(-4.38492 -0.0137319 0)
(-4.3785 -0.0282205 0)
(-4.36833 -0.0422698 -7.10137e-20)
(-4.35446 -0.0557963 0)
(-4.33694 -0.06879 0)
(-4.3158 -0.0812556 -6.68837e-20)
(-4.29109 -0.0932018 -6.4846e-20)
(-4.26288 -0.104635 0)
(-4.23124 -0.11556 1.24301e-19)
(-4.19625 -0.125977 -5.98823e-20)
(-4.158 -0.135886 5.8096e-20)
(-4.11657 -0.145284 0)
(-4.07207 -0.154169 0)
(-4.02459 -0.16254 0)
(-3.97424 -0.170395 0)
(-3.92112 -0.177737 4.82063e-20)
(-3.86536 -0.184566 9.33288e-20)
(-3.80706 -0.190883 4.38134e-20)
(-3.74635 -0.19669 -4.15265e-20)
(-3.68334 -0.201994 0)
(-3.61817 -0.206801 7.48575e-20)
(-3.55095 -0.211119 6.99412e-20)
(-3.48182 -0.214958 6.49071e-20)
(-3.41089 -0.218327 -5.9756e-20)
(-3.3383 -0.22124 0)
(-3.26417 -0.223707 -7.29726e-20)
(-3.18863 -0.225745 0)
(-3.1118 -0.227367 1.9688e-20)
(-3.03381 -0.228589 1.54309e-20)
(-2.95478 -0.229429 0)
(-2.87483 -0.229902 0)
(-2.79407 -0.230026 1.43571e-20)
(-2.71262 -0.22982 0)
(-2.63059 -0.229303 1.82653e-21)
(-2.54809 -0.228493 0)
(-2.46522 -0.227409 1.11977e-20)
(-2.38208 -0.226071 3.72406e-20)
(-2.29878 -0.2245 0)
(-2.21542 -0.222716 0)
(-2.13209 -0.220739 0)
(-2.0489 -0.218585 4.60585e-20)
(-1.96592 -0.216265 0)
(-1.88327 -0.213788 6.10009e-20)
(-1.80103 -0.211154 0)
(-1.71929 -0.208344 0)
(-1.63813 -0.205332 -1.70649e-19)
(-1.55756 -0.202111 0)
(-1.47762 -0.198704 -1.01249e-19)
(-1.3983 -0.195162 0)
(-1.31964 -0.191542 -1.18677e-19)
(-1.24172 -0.187876 0)
(-1.16458 -0.184179 0)
(-1.08827 -0.180456 0)
(-1.01284 -0.176714 -4.699e-19)
(-0.93831 -0.17296 -1.67536e-19)
(-0.864718 -0.1692 0)
(-0.792088 -0.165441 0)
(-0.720443 -0.161688 0)
(-0.649805 -0.157946 0)
(-0.580189 -0.15422 2.21789e-19)
(-0.511604 -0.150516 -4.64554e-19)
(-0.444056 -0.146844 -2.45827e-19)
(-0.377558 -0.143212 5.14167e-19)
(-0.312118 -0.139625 5.40186e-19)
(-0.24774 -0.136089 2.84864e-19)
(-0.184426 -0.132604 0)
(-0.122176 -0.129172 6.23665e-19)
(-0.0609917 -0.125796 0)
(-0.000872257 -0.122479 -6.77661e-19)
(0.0581924 -0.119222 -3.45234e-19)
(0.116213 -0.116027 0)
(0.173195 -0.112896 6.93161e-19)
(0.229147 -0.109831 3.48812e-19)
(0.284079 -0.106833 0)
(0.338002 -0.103886 3.48669e-19)
(0.390923 -0.100983 -1.05256e-18)
(0.442853 -0.0981398 0)
(0.493809 -0.095363 0)
(0.543805 -0.0926542 0)
(0.592863 -0.0900148 0)
(0.641006 -0.0874501 -7.07419e-19)
(0.688274 -0.0849677 -7.09878e-19)
(0.734681 -0.0825881 0)
(0.780176 -0.0802807 0)
(0.824763 -0.0780038 0)
(0.868511 -0.0757752 0)
(0.911452 -0.0736094 0)
(0.953596 -0.0715126 0)
(0.994958 -0.0694862 -7.13578e-19)
(1.03556 -0.0675292 -1.07961e-21)
(1.07541 -0.0656396 0)
(1.11453 -0.0638152 0)
(1.15295 -0.0620539 -7.13412e-19)
(1.19068 -0.060354 0)
(1.22774 -0.0587139 7.1446e-19)
(1.26416 -0.0571321 7.13612e-19)
(1.29996 -0.0556074 0)
(1.33515 -0.0541386 0)
(1.36975 -0.0527248 -7.14166e-19)
(1.4038 -0.0513647 -1.42657e-18)
(1.4373 -0.0500574 0)
(1.47028 -0.0488017 0)
(1.50276 -0.0475966 0)
(1.53476 -0.0464412 -7.12932e-19)
(1.56631 -0.0453345 7.12569e-19)
(1.59741 -0.0442756 0)
(1.6281 -0.0432633 1.42235e-18)
(1.6584 -0.0422965 7.1018e-19)
(1.68833 -0.0413738 -1.42038e-18)
(1.7179 -0.0404935 0)
(1.74714 -0.0396537 0)
(1.77607 -0.0388516 -1.41671e-18)
(1.80471 -0.0380842 -7.08086e-19)
(1.83307 -0.0373469 0)
(1.86116 -0.0366342 0)
(1.88899 -0.0359384 0)
(1.91658 -0.0352495 0)
(1.94391 -0.0345539 -1.40687e-18)
(1.97097 -0.0338334 0)
(1.99773 -0.033063 0)
(2.02414 -0.0322086 0)
(2.05013 -0.0312222 0)
(2.07559 -0.0300356 0)
(2.10033 -0.0285479 0)
(2.1241 -0.0266075 -1.39792e-18)
(2.14657 -0.0239632 0)
(2.16705 -0.0202086 0)
(2.18533 -0.0145524 -2.81762e-18)
(2.19857 -0.00567304 1.41868e-18)
(2.21311 0.00909386 -1.41685e-18)
(2.20787 0.0364751 1.41215e-18)
(0.0327632 -1.16843 0)
(0.0687275 -1.02977 3.59054e-19)
(0.0325507 -0.746136 0)
(-0.0123168 -0.504942 1.1067e-19)
(-0.0681502 -0.281508 0)
(-0.136597 -0.0712596 0)
(-0.220525 0.12619 -8.25359e-20)
(-0.32231 0.310088 0)
(-0.444094 0.480017 0)
(-0.58853 0.636585 0)
(-0.759512 0.78243 0)
(-0.962241 0.923751 0)
(-1.19916 1.0686 2.03145e-19)
(-1.46432 1.22009 9.19607e-20)
(-1.74297 1.37159 -8.32753e-20)
(-2.01667 1.50961 0)
(-2.26981 1.62039 0)
(-2.49254 1.69483 0)
(-2.68024 1.72945 0)
(-2.83159 1.7257 0)
(-2.94942 1.68752 5.99915e-20)
(-3.03941 1.62023 5.87004e-20)
(-3.10763 1.5308 -5.78772e-20)
(-3.16038 1.42685 5.7604e-20)
(-3.20303 1.31499 0)
(-3.23989 1.20062 0)
(-3.27439 1.08807 5.58017e-20)
(-3.30883 0.980562 0)
(-3.34444 0.880183 0)
(-3.38172 0.787931 5.86749e-20)
(-3.42065 0.704021 6.14926e-20)
(-3.46087 0.628211 6.2206e-20)
(-3.50185 0.559958 0)
(-3.54296 0.498561 0)
(-3.58359 0.443256 -6.40166e-20)
(-3.62318 0.393286 0)
(-3.66123 0.347942 0)
(-3.69734 0.306583 6.42861e-20)
(-3.73115 0.268645 -6.60038e-20)
(-3.7624 0.233644 6.60127e-20)
(-3.79086 0.201167 0)
(-3.81634 0.170866 0)
(-3.83868 0.142446 1.29944e-19)
(-3.85777 0.115658 0)
(-3.87348 0.090292 1.28546e-19)
(-3.88574 0.0661735 1.90906e-19)
(-3.89445 0.0431609 -1.89256e-19)
(-3.89955 0.0211344 1.25232e-19)
(-3.90099 -2.42502e-05 0)
(-3.89879 -0.0204311 0)
(-3.89298 -0.040159 1.19729e-19)
(-3.8836 -0.0592233 5.83258e-20)
(-3.8707 -0.0776195 0)
(-3.85431 -0.0953459 0)
(-3.83446 -0.112401 5.4804e-20)
(-3.8112 -0.128785 1.08055e-19)
(-3.78459 -0.144494 0)
(-3.75469 -0.159525 -1.01566e-19)
(-3.72158 -0.173874 9.97323e-20)
(-3.68533 -0.187536 -9.67449e-20)
(-3.64602 -0.200504 0)
(-3.60374 -0.212774 0)
(-3.55859 -0.224339 0)
(-3.51066 -0.235197 0)
(-3.46007 -0.245353 0)
(-3.40691 -0.254804 -7.55478e-20)
(-3.35131 -0.263551 0)
(-3.29336 -0.271598 0)
(-3.2332 -0.278953 0)
(-3.17093 -0.285624 -1.21695e-19)
(-3.10668 -0.291622 -5.62084e-20)
(-3.04057 -0.29696 -5.20805e-20)
(-2.97272 -0.30165 9.69523e-20)
(-2.90326 -0.305711 -4.47959e-20)
(-2.83231 -0.309158 3.92036e-20)
(-2.75998 -0.312011 0)
(-2.68641 -0.31429 -3.02204e-20)
(-2.6117 -0.316016 0)
(-2.53598 -0.317212 0)
(-2.45937 -0.317901 0)
(-2.38198 -0.318106 -2.39059e-20)
(-2.30391 -0.317852 7.66419e-21)
(-2.22529 -0.317164 3.9222e-21)
(-2.14621 -0.316065 -4.76393e-21)
(-2.06677 -0.314581 -2.37975e-20)