/*--------------------------------*- C++ -*----------------------------------*\
| =========                 |                                                 |
| \\      /  F ield         | OpenFOAM: The Open Source CFD Toolbox           |
|  \\    /   O peration     | Version:  v2012                                 |
|   \\  /    A nd           | Website:  www.openfoam.com                      |
|    \\/     M anipulation  |                                                 |
\*---------------------------------------------------------------------------*/
FoamFile
{
    version     2.0;
    format      ascii;
    class       volVectorField;
    location    "300";
    object      U;
}
// * * * * * * * * * * * * * * * * * * * * * * * * * * * * * * * * * * * * * //

dimensions      [0 1 -1 0 0 0 0];


internalField   nonuniform List<vector> 
12225
(
(9.2745 -4.73371 0)
(13.1094 -1.71343 0)
(12.4776 -0.395206 0)
(11.2768 -0.0422153 0)
(10.6311 0.0141977 0)
(10.2977 -0.000732896 0)
(10.0738 -0.00417828 0)
(9.9047 -0.0200105 0)
(9.76606 -0.0493608 0)
(9.64449 -0.0472761 0)
(9.53081 -0.0372464 0)
(9.42409 -0.0325017 0)
(9.32621 -0.0298381 0)
(9.23671 -0.0236361 0)
(9.15545 -0.0088755 0)
(9.08945 0.000321933 0)
(9.02896 0.00748942 0)
(9.05165 0.0198364 0)
(10.2592 0.0928026 0)
(10.7814 0.199339 0)
(10.9593 0.245652 0)
(10.7468 0.22914 0)
(10.5874 0.172977 0)
(10.4521 0.115316 0)
(10.329 0.0819621 0)
(10.2314 0.0692916 0)
(10.1583 0.0650751 0)
(10.098 0.0585507 0)
(10.0454 0.052636 0)
(9.99846 0.0500686 0)
(9.9555 0.0493089 0)
(9.91592 0.0481895 0)
(9.87834 0.0444212 0)
(9.84392 0.0391958 0)
(9.80816 0.0221971 0)
(9.77601 -0.00152773 0)
(9.87768 -0.245039 0)
(9.74284 0.00579227 0)
(10.1971 0.125741 0)
(10.3244 0.179363 0)
(10.3563 0.161551 0)
(10.3308 0.120002 0)
(10.2776 0.0911912 0)
(10.2263 0.0753541 0)
(10.1829 0.0658243 0)
(10.1458 0.0604766 0)
(10.1137 0.0571353 0)
(10.0848 0.0544121 0)
(10.0579 0.0517221 0)
(10.0327 0.0487017 0)
(10.0089 0.0450991 0)
(9.98692 0.0400489 0)
(9.96329 0.0288883 0)
(9.93562 0.00988535 0)
(9.83416 -0.443933 0)
(9.57654 -0.163146 0)
(9.91601 0.0336678 0)
(10.0932 0.134223 0)
(10.1892 0.145474 0)
(10.2166 0.120742 0)
(10.2051 0.0985269 0)
(10.1835 0.0839543 0)
(10.1609 0.0741152 0)
(10.1394 0.0682858 0)
(10.1196 0.0645088 0)
(10.1012 0.0615424 0)
(10.0837 0.0589126 0)
(10.0668 0.0564678 0)
(10.0505 0.0537225 0)
(10.0343 0.0494872 0)
(10.0155 0.0411118 0)
(9.99103 0.0292902 0)
(9.87825 -0.387476 0)
(9.61653 -0.196148 0)
(9.81622 -0.018673 0)
(9.96133 0.0916114 0)
(10.0698 0.122198 0)
(10.1218 0.113668 0)
(10.1356 0.0996538 0)
(10.1339 0.0883953 0)
(10.1263 0.0799338 0)
(10.1162 0.0742614 0)
(10.1054 0.0703914 0)
(10.0945 0.0675428 0)
(10.0835 0.0652364 0)
(10.0723 0.0631855 0)
(10.0607 0.0608717 0)
(10.0482 0.057585 0)
(10.0327 0.052216 0)
(10.0116 0.046101 0)
(9.91439 -0.28804 0)
(9.68303 -0.185177 0)
(9.78716 -0.0532099 0)
(9.88915 0.0509984 0)
(9.98793 0.0936845 0)
(10.0476 0.0992517 0)
(10.0753 0.0940927 0)
(10.0866 0.0874605 0)
(10.0896 0.0814779 0)
(10.088 0.0769796 0)
(10.084 0.073755 0)
(10.0787 0.0714118 0)
(10.0725 0.0696014 0)
(10.0654 0.0680759 0)
(10.0573 0.0664962 0)
(10.0476 0.0645724 0)
(10.035 0.0621271 0)
(10.0178 0.0605038 0)
(9.93763 -0.214041 0)
(9.74855 -0.167535 0)
(9.79243 -0.0752154 0)
(9.85607 0.0162239 0)
(9.93593 0.0644335 0)
(9.99281 0.0806414 0)
(10.0262 0.0836707 0)
(10.045 0.0821719 0)
(10.0549 0.0793805 0)
(10.0593 0.0767745 0)
(10.0604 0.074735 0)
(10.0594 0.0732501 0)
(10.0569 0.0721928 0)
(10.053 0.071458 0)
(10.0477 0.0709198 0)
(10.0406 0.0705902 0)
(10.0309 0.0707389 0)
(10.0177 0.0725633 0)
(9.95263 -0.167335 0)
(9.79947 -0.149678 0)
(9.81177 -0.0846454 0)
(9.84958 -0.00621554 0)
(9.9114 0.0419278 0)
(9.96108 0.0639045 0)
(9.99437 0.0725594 0)
(10.0157 0.0751921 0)
(10.0289 0.0752932 0)
(10.0367 0.0746107 0)
(10.0409 0.0738651 0)
(10.0427 0.0733309 0)
(10.0425 0.0730895 0)
(10.0408 0.0731835 0)
(10.0375 0.0736487 0)
(10.0325 0.0746604 0)
(10.0252 0.076634 0)
(10.0154 0.0805532 0)
(9.96406 -0.13209 0)
(9.84003 -0.13199 0)
(9.83337 -0.0876929 0)
(9.85305 -0.0213358 0)
(9.89926 0.0244157 0)
(9.94103 0.0495246 0)
(9.97211 0.0621325 0)
(9.99393 0.0680061 0)
(10.0087 0.0705151 0)
(10.0184 0.0715591 0)
(10.0246 0.0720791 0)
(10.0282 0.072533 0)
(10.0298 0.0731471 0)
(10.0297 0.0740749 0)
(10.028 0.0754695 0)
(10.0247 0.077602 0)
(10.0196 0.0809382 0)
(10.0125 0.0862824 0)
(9.97418 -0.100206 0)
(9.87757 -0.112391 0)
(9.85856 -0.0853686 0)
(9.86387 -0.0323354 0)
(9.89486 0.00892911 0)
(9.92744 0.0352312 0)
(9.95443 0.050715 0)
(9.97508 0.0594348 0)
(9.9902 0.0643019 0)
(10.001 0.0671692 0)
(10.0085 0.0690936 0)
(10.0135 0.0706749 0)
(10.0166 0.0722664 0)
(10.018 0.0741283 0)
(10.0179 0.0765033 0)
(10.0164 0.0797148 0)
(10.0134 0.0842122 0)
(10.0092 0.090613 0)
(9.98253 -0.0727103 0)
(9.91035 -0.0921972 0)
(9.88507 -0.0782473 0)
(9.88001 -0.0386117 0)
(9.89746 -0.00337757 0)
(9.92044 0.0221658 0)
(9.94199 0.0391669 0)
(9.96004 0.050019 0)
(9.97429 0.0569395 0)
(9.9852 0.0615497 0)
(9.99339 0.0649044 0)
(9.9994 0.0676762 0)
(10.0036 0.0703138 0)
(10.0064 0.0731518 0)
(10.0077 0.0764946 0)
(10.008 0.0806739 0)
(10.0071 0.0860783 0)
(10.0055 0.0931409 0)
(9.98894 -0.0502579 0)
(9.93733 -0.0723787 0)
(9.91073 -0.0674515 0)
(9.89917 -0.0399884 0)
(9.90566 -0.011657 0)
(9.91956 0.0114403 0)
(9.93499 0.0285028 0)
(9.94937 0.0405193 0)
(9.96172 0.0489236 0)
(9.9719 0.0549794 0)
(9.98009 0.0596244 0)
(9.98657 0.0635306 0)
(9.99161 0.0671799 0)
(9.9954 0.0709485 0)
(9.99813 0.0751569 0)
(9.99997 0.0801167 0)
(10.0011 0.0861294 0)
(10.0019 0.093487 0)
(9.99348 -0.0329101 0)
(9.9582 -0.0538115 0)
(9.93368 -0.0542875 0)
(9.91898 -0.0367944 0)
(9.91755 -0.0154644 0)
(9.92367 0.00397669 0)
(9.93303 0.0197418 0)
(9.9432 0.0318174 0)
(9.95292 0.0409218 0)
(9.96164 0.047905 0)
(9.96922 0.0535095 0)
(9.97569 0.0583268 0)
(9.98115 0.0628164 0)
(9.98574 0.0673451 0)
(9.98958 0.0722164 0)
(9.99285 0.077691 0)
(9.99575 0.0839995 0)
(9.99854 0.0913024 0)
(9.99643 -0.0202041 0)
(9.97327 -0.0372104 0)
(9.95261 -0.0400502 0)
(9.93731 -0.0298195 0)
(9.9309 -0.0148376 0)
(9.93103 0.000344221 0)
(9.93505 0.0137383 0)
(9.94106 0.0247866 0)
(9.94782 0.0336805 0)
(9.95465 0.0408898 0)
(9.96117 0.0469283 0)
(9.96722 0.0522531 0)
(9.97278 0.0572522 0)
(9.97786 0.0622358 0)
(9.98255 0.0674619 0)
(9.98697 0.0731303 0)
(9.99125 0.0793961 0)
(9.99561 0.0863484 0)
(9.99816 -0.0112893 0)
(9.9833 -0.0229312 0)
(9.96682 -0.0257677 0)
(9.95243 -0.0200862 0)
(9.94344 -0.0102571 0)
(9.93953 0.000651212 0)
(9.9394 0.0109941 0)
(9.94183 0.0200923 0)
(9.94582 0.027855 0)
(9.95068 0.034483 0)
(9.95596 0.0402772 0)
(9.96138 0.0455495 0)
(9.96678 0.0505755 0)
(9.97212 0.0555899 0)
(9.97739 0.0607738 0)
(9.98263 0.0662681 0)
(9.98795 0.0721572 0)
(9.99345 0.0784862 0)
(9.99906 -0.0050822 0)
(9.98922 -0.0107819 0)
(9.97612 -0.0119215 0)
(9.96309 -0.00849226 0)
(9.9531 -0.00244965 0)
(9.94686 0.00455525 0)
(9.94399 0.0115238 0)
(9.94384 0.0179734 0)
(9.94569 0.0237767 0)
(9.94895 0.0290019 0)
(9.95316 0.0338054 0)
(9.95797 0.0383639 0)
(9.96318 0.0428422 0)
(9.96865 0.0473785 0)
(9.97431 0.0520763 0)
(9.98014 0.0570064 0)
(9.98616 0.0622027 0)
(9.99242 0.0676664 0)
(9.99942 -0.000368417 0)
(9.99181 0.000149038 0)
(9.98042 0.00182618 0)
(9.96821 0.00458495 0)
(9.9579 0.00790521 0)
(9.95061 0.0113813 0)
(9.94642 0.0147867 0)
(9.94498 0.0180493 0)
(9.94576 0.021181 0)
(9.94824 0.0242528 0)
(9.95196 0.0273417 0)
(9.95658 0.030529 0)
(9.96183 0.033874 0)
(9.96754 0.0374241 0)
(9.97357 0.0412004 0)
(9.97988 0.0452102 0)
(9.98643 0.0494362 0)
(9.9932 0.0538486 0)
(9.99935 0.00408388 0)
(9.9911 0.0111664 0)
(9.97897 0.0161254 0)
(9.96616 0.018726 0)
(9.95553 0.0196002 0)
(9.94819 0.0195295 0)
(9.94419 0.0191388 0)
(9.94311 0.018834 0)
(9.94437 0.0188594 0)
(9.9474 0.019327 0)
(9.95172 0.0202817 0)
(9.95696 0.021715 0)
(9.96283 0.0235997 0)
(9.96915 0.0258892 0)
(9.97579 0.0285348 0)
(9.98265 0.0314771 0)
(9.98968 0.0346612 0)
(9.99686 0.0380199 0)
(9.99882 0.00972905 0)
(9.98675 0.0240388 0)
(9.97123 0.0318366 0)
(9.95642 0.0332822 0)
(9.94559 0.0306931 0)
(9.93943 0.0263388 0)
(9.93735 0.0217375 0)
(9.93845 0.0177269 0)
(9.94185 0.0146799 0)
(9.94685 0.0126872 0)
(9.95289 0.0116954 0)
(9.95959 0.0115824 0)
(9.96669 0.0122136 0)
(9.97403 0.013452 0)
(9.9815 0.015177 0)
(9.98903 0.0172765 0)
(9.99659 0.0196565 0)
(10.0042 0.0222277 0)
(9.99757 0.0182095 0)
(9.97774 0.0404448 0)
(9.95665 0.0495657 0)
(9.93946 0.047467 0)
(9.92962 0.0394127 0)
(9.9266 0.0296426 0)
(9.9285 0.0204892 0)
(9.93358 0.0129744 0)
(9.94054 0.00735651 0)
(9.94854 0.00352894 0)
(9.957 0.0012235 0)
(9.96562 0.000156345 0)
(9.97422 6.29273e-05 0)
(9.98269 0.000716565 0)
(9.99102 0.00193379 0)
(9.99918 0.00356316 0)
(10.0072 0.00548256 0)
(10.015 0.00759188 0)
(9.99502 0.0318144 0)
(9.96178 0.0621236 0)
(9.93372 0.0695399 0)
(9.91536 0.0601018 0)
(9.90934 0.0439413 0)
(9.91252 0.0276577 0)
(9.92087 0.014005 0)
(9.93164 0.00365698 0)
(9.94324 -0.00360229 0)
(9.95479 -0.00832291 0)
(9.9659 -0.0110785 0)
(9.97645 -0.0123636 0)
(9.98641 -0.0125739 0)
(9.99584 -0.0120022 0)
(10.0048 -0.0108803 0)
(10.0134 -0.00937211 0)
(10.0216 -0.00761229 0)
(10.0295 -0.00569898 0)
(9.99018 0.053462 0)
(9.93561 0.0901437 0)
(9.90099 0.0906167 0)
(9.88516 0.0687436 0)
(9.88783 0.0418089 0)
(9.90125 0.0186595 0)
(9.9186 0.00143041 0)
(9.93631 -0.0103612 0)
(9.95289 -0.0178788 0)
(9.96787 -0.0222852 0)
(9.98124 -0.024524 0)
(9.99322 -0.0252799 0)
(10.004 -0.0250375 0)
(10.0139 -0.0241199 0)
(10.0231 -0.0227583 0)
(10.0317 -0.021109 0)
(10.0398 -0.0192917 0)
(10.0474 -0.0173934 0)
(9.9819 0.0862476 0)
(9.89549 0.124251 0)
(9.85818 0.109874 0)
(9.85211 0.0697605 0)
(9.87037 0.0303264 0)
(9.89848 0.00144645 0)
(9.92664 -0.0171869 0)
(9.95142 -0.0282813 0)
(9.97229 -0.0343082 0)
(9.98966 -0.0371402 0)
(10.0042 -0.0379745 0)
(10.0166 -0.037601 0)
(10.0274 -0.0364595 0)
(10.037 -0.0349105 0)
(10.0457 -0.0331052 0)
(10.0537 -0.0311781 0)
(10.0612 -0.0291949 0)
(10.0682 -0.0272246 0)
(9.96925 0.13399 0)
(9.83823 0.163085 0)
(9.80793 0.122582 0)
(9.82313 0.0587859 0)
(9.86517 0.0072911 0)
(9.91146 -0.0240356 0)
(9.95043 -0.0405809 0)
(9.98062 -0.0483162 0)
(10.0036 -0.051102 0)
(10.0213 -0.0512452 0)
(10.0353 -0.0500549 0)
(10.0467 -0.0481578 0)
(10.0563 -0.0459723 0)
(10.0645 -0.0436802 0)
(10.0719 -0.0414121 0)
(10.0787 -0.039147 0)
(10.085 -0.0370053 0)
(10.0909 -0.0349599 0)
(9.94951 0.207141 0)
(9.76128 0.20702 0)
(9.75726 0.12347 0)
(9.81044 0.0319952 0)
(9.88387 -0.0278861 0)
(9.94882 -0.056021 0)
(9.99538 -0.0660748 0)
(10.0268 -0.0677978 0)
(10.0482 -0.0659413 0)
(10.0632 -0.0628159 0)
(10.0743 -0.0593925 0)
(10.0828 -0.0560296 0)
(10.0897 -0.0528029 0)
(10.0955 -0.0498939 0)
(10.1006 -0.0472295 0)
(10.1053 -0.0447287 0)
(10.1097 -0.0424889 0)
(10.1139 -0.0404473 0)
(9.91094 0.322719 0)
(9.65922 0.254545 0)
(9.71887 0.107399 0)
(9.83331 -0.0119426 0)
(9.94178 -0.0726897 0)
(10.02 -0.0902194 0)
(10.0663 -0.0893676 0)
(10.0919 -0.0832931 0)
(10.1062 -0.0763165 0)
(10.1146 -0.0701319 0)
(10.1198 -0.0648682 0)
(10.1233 -0.0603567 0)
(10.1259 -0.0563231 0)
(10.1277 -0.0530489 0)
(10.1294 -0.0502566 0)
(10.131 -0.0476206 0)
(10.1325 -0.0454452 0)
(10.1343 -0.0435754 0)
(9.84404 0.43511 0)
(9.53797 0.261027 0)
(9.7269 0.0591269 0)
(9.92369 -0.0731376 0)
(10.0584 -0.121601 0)
(10.1345 -0.120275 0)
(10.1665 -0.105374 0)
(10.1758 -0.0910897 0)
(10.1759 -0.0798498 0)
(10.1727 -0.0716976 0)
(10.1688 -0.0657251 0)
(10.1649 -0.0606485 0)
(10.1608 -0.0560193 0)
(10.1568 -0.0523496 0)
(10.1535 -0.0497584 0)
(10.1505 -0.0471414 0)
(10.1478 -0.0452441 0)
(10.1461 -0.0439376 0)
(9.83598 0.319667 0)
(9.5502 0.0912508 0)
(9.91739 -0.0687297 0)
(10.1507 -0.160129 0)
(10.2635 -0.172179 0)
(10.3033 -0.14282 0)
(10.2976 -0.112249 0)
(10.2753 -0.0909924 0)
(10.2515 -0.0770876 0)
(10.2306 -0.0683531 0)
(10.2135 -0.0629129 0)
(10.199 -0.0582512 0)
(10.1851 -0.0528238 0)
(10.1719 -0.0485311 0)
(10.1607 -0.0455944 0)
(10.1505 -0.0419774 0)
(10.1415 -0.0405274 0)
(10.1343 -0.0398098 0)
(10.2049 -0.0633774 0)
(10.4095 -0.191708 0)
(10.7164 -0.282552 0)
(10.6879 -0.282289 0)
(10.6191 -0.230117 0)
(10.5417 -0.163755 0)
(10.4537 -0.117618 0)
(10.375 -0.0936579 0)
(10.3135 -0.0805856 0)
(10.2657 -0.0697616 0)
(10.2263 -0.0606233 0)
(10.1933 -0.0556438 0)
(10.1618 -0.055048 0)
(10.1346 -0.0531526 0)
(10.1102 -0.0493863 0)
(10.0863 -0.0484573 0)
(10.0683 -0.0447015 0)
(10.0507 -0.0396975 0)
(9.41631 4.45107 0)
(12.7294 2.07612 0)
(12.5649 0.621227 0)
(11.5691 0.127671 0)
(10.9311 0.00343173 0)
(10.5863 -0.0022326 0)
(10.3629 0.0137429 0)
(10.2007 0.0312118 0)
(10.0778 0.0451234 0)
(9.97574 0.044152 0)
(9.88338 0.0351155 0)
(9.7963 0.0319367 0)
(9.7234 0.038113 0)
(9.65831 0.0318418 0)
(9.59742 0.016315 0)
(9.5459 0.0175587 0)
(9.49257 0.00925663 0)
(9.44221 -0.0160915 0)
(-0.0198736 0.0883612 0)
(0.144562 -0.189132 0)
(0.337212 -0.309455 0)
(0.538808 -0.315737 0)
(0.714573 -0.270494 0)
(0.841302 -0.207892 0)
(0.913246 -0.141547 -8.53455e-20)
(0.938083 -0.0762218 8.61543e-20)
(0.910884 -0.0132486 0)
(0.844767 0.0409398 9.23005e-20)
(0.75372 0.0782232 0)
(0.653108 0.0930355 0)
(0.561048 0.0856668 0)
(0.491771 0.0626389 -1.45323e-19)
(0.442776 0.033245 0)
(0.395086 0.00656451 0)
(0.327381 -0.0088022 1.94971e-19)
(0.231924 -0.00169147 0)
(0.0767398 0.0300213 0)
(-0.127586 0.145934 0)
(-0.374785 0.218447 -1.28584e-19)
(-0.685166 0.252418 0)
(-1.01497 0.275392 -6.94453e-20)
(-1.35205 0.305842 0)
(-1.69114 0.330013 0)
(-2.03027 0.338126 -3.96523e-20)
(-2.35877 0.335091 0)
(-2.67144 0.323682 3.36786e-20)
(-2.96449 0.30594 0)
(-3.23559 0.284275 -3.08472e-20)
(-3.4838 0.260793 0)
(-3.70918 0.236889 0)
(-3.91253 0.213512 0)
(-4.09507 0.191249 0)
(-4.25828 0.170433 0)
(-4.40372 0.151209 2.80472e-20)
(-4.53294 0.13358 0)
(-4.6474 0.117454 -5.5259e-20)
(-4.74843 0.102694 0)
(-4.83719 0.0891349 5.449e-20)
(-4.91468 0.0766197 0)
(-4.98176 0.0650004 0)
(-5.03913 0.0541609 -5.329e-20)
(-5.08737 0.0440142 0)
(-5.12694 0.0345142 -5.24041e-20)
(-5.15826 0.0256563 5.19271e-20)
(-5.18171 0.0175164 0)
(-5.19768 0.0102895 5.08992e-20)
(-5.20636 0.00426813 5.03448e-20)
(-5.20791 -0.000483678 0)
(-5.20426 -0.00422679 0)
(-5.1959 -0.00741549 0)
(-5.18315 -0.010329 0)
(-5.16624 -0.0130478 0)
(-5.14533 -0.01563 -4.58499e-20)
(-5.12054 -0.0180814 0)
(-5.092 -0.0204212 4.39529e-20)
(-5.05979 -0.0226526 0)
(-5.02402 -0.0247774 0)
(-4.9848 -0.026798 -4.07174e-20)
(-4.94222 -0.0287126 0)
(-4.89641 -0.0305225 3.82964e-20)
(-4.84746 -0.0322256 0)
(-4.7955 -0.0338232 0)
(-4.74066 -0.0353141 0)
(-4.68303 -0.036698 -3.2807e-20)
(-4.62277 -0.0379752 0)
(-4.56 -0.039148 0)
(-4.49484 -0.0402143 -2.81083e-20)
(-4.42743 -0.0411771 0)
(-4.35791 -0.0420366 -2.46892e-20)
(-4.28642 -0.0427945 0)
(-4.21308 -0.0434524 0)
(-4.13803 -0.0440122 0)
(-4.06142 -0.0444763 1.7128e-20)
(-3.98337 -0.0448464 0)
(-3.90402 -0.0451259 0)
(-3.8235 -0.0453163 1.07792e-20)
(-3.74194 -0.0454219 8.52337e-21)
(-3.65947 -0.0454441 0)
(-3.57621 -0.0453886 3.78634e-21)
(-3.49227 -0.0452569 0)
(-3.40777 -0.0450566 -2.548e-21)
(-3.32282 -0.0447902 0)
(-3.23752 -0.0444689 -1.33833e-20)
(-3.15196 -0.0441001 0)
(-3.06624 -0.043705 2.50216e-20)
(-2.98043 -0.0433037 0)
(-2.89462 -0.0429379 0)
(-2.80886 -0.0426599 0)
(-2.72316 -0.0425434 -5.12046e-20)
(-2.63752 -0.0426832 0)
(-2.55192 -0.0431587 6.61189e-20)
(-2.46634 -0.0439651 0)
(-2.38088 -0.0449049 -8.25041e-20)
(-2.29588 -0.0455418 -9.12321e-20)
(-2.21156 -0.0455217 -1.00286e-19)
(-2.12816 -0.0449781 0)
(-2.04574 -0.0442698 0)
(-1.96429 -0.0435416 0)
(-1.88384 -0.0428202 0)
(-1.8044 -0.0421029 0)
(-1.726 -0.0413957 0)
(-1.64865 -0.0406963 0)
(-1.57238 -0.0400155 0)
(-1.49722 -0.0393545 2.04579e-19)
(-1.42316 -0.038725 2.19779e-19)
(-1.35023 -0.0381164 0)
(-1.27845 -0.0374932 0)
(-1.20785 -0.0368286 0)
(-1.13844 -0.0361713 2.91531e-19)
(-1.07023 -0.0355367 0)
(-1.00322 -0.0349244 0)
(-0.937404 -0.0343319 0)
(-0.872785 -0.0337664 0)
(-0.809362 -0.0332249 -4.17635e-19)
(-0.747129 -0.0327161 0)
(-0.68608 -0.032239 0)
(-0.626207 -0.0318005 5.25388e-19)
(-0.567501 -0.0313979 -5.69383e-19)
(-0.509955 -0.0310459 0)
(-0.453557 -0.0307606 -6.74092e-19)
(-0.39829 -0.0305896 0)
(-0.344131 -0.0305467 8.09199e-19)
(-0.291058 -0.030601 0)
(-0.239058 -0.0307302 0)
(-0.188102 -0.030949 0)
(-0.138161 -0.0312696 0)
(-0.08928 -0.0317125 0)
(-0.0416757 -0.0321662 -3.25884e-18)
(0.00470711 -0.0319073 -3.49117e-18)
(0.050402 -0.0304325 0)
(0.0954227 -0.028551 0)
(0.139617 -0.0267901 0)
(0.182889 -0.0252171 2.48224e-18)
(0.225205 -0.0238061 0)
(0.266577 -0.0225356 0)
(0.307042 -0.0213844 0)
(0.34664 -0.0203355 1.93527e-18)
(0.385405 -0.0193731 -1.84231e-18)
(0.423363 -0.0184858 0)
(0.460534 -0.0176638 0)
(0.49694 -0.0169001 -1.62331e-18)
(0.532605 -0.0161878 -1.56517e-18)
(0.567553 -0.0155222 0)
(0.60181 -0.0148981 0)
(0.6354 -0.0143121 1.42155e-18)
(0.668346 -0.0137609 -1.38175e-18)
(0.700671 -0.0132418 0)
(0.7324 -0.0127526 0)
(0.763552 -0.0122911 -1.28014e-18)
(0.794151 -0.0118555 0)
(0.824218 -0.0114443 0)
(0.853776 -0.0110559 -1.19881e-18)
(0.882846 -0.0106892 0)
(0.911451 -0.010343 -1.15292e-18)
(0.939615 -0.0100161 0)
(0.96736 -0.00970761 0)
(0.994709 -0.00941652 0)
(1.02169 -0.00914174 1.07579e-18)
(1.04831 -0.00888231 0)
(1.0746 -0.00863684 0)
(1.10059 -0.00840402 0)
(1.12627 -0.00818187 0)
(1.15167 -0.00796825 0)
(1.17679 -0.00776006 0)
(1.20161 -0.00755351 9.72695e-19)
(1.22612 -0.00734331 9.60407e-19)
(1.25028 -0.00712248 0)
(1.27401 -0.00688142 0)
(1.29721 -0.00660668 0)
(1.31971 -0.00627934 -9.17245e-19)
(1.34126 -0.00587046 0)
(1.36146 -0.0053389 1.80117e-18)
(1.37984 -0.0046031 -1.78866e-18)
(1.395 -0.00355472 -1.78058e-18)
(1.40697 -0.00178227 1.77983e-18)
(1.40651 0.00158834 -1.78499e-18)
(1.40286 0.00839479 1.79869e-18)
(1.32226 0.0201282 0)
(0.101146 -0.294981 0)
(0.338012 -0.699451 0)
(0.51566 -0.70994 1.53163e-19)
(0.609986 -0.566674 0)
(0.65813 -0.39988 -1.09834e-19)
(0.675507 -0.241894 -1.07546e-19)
(0.66619 -0.0979522 -5.63257e-20)
(0.632894 0.0311276 -5.61083e-20)
(0.586928 0.140801 0)
(0.523955 0.225213 -6.12955e-20)
(0.442985 0.275999 0)
(0.343497 0.284603 0)
(0.220273 0.25181 1.74702e-19)
(0.0623533 0.211317 9.78098e-20)
(-0.134264 0.223487 -1.7288e-19)
(-0.375274 0.303419 -1.32892e-19)
(-0.66862 0.421769 -5.31264e-20)
(-1.00445 0.552348 0)
(-1.36254 0.677339 0)
(-1.71908 0.784589 0)
(-2.07233 0.862087 -2.73849e-20)
(-2.41569 0.906898 0)
(-2.74059 0.922901 6.71449e-20)
(-3.0404 0.912264 0)
(-3.31272 0.880284 0)
(-3.55507 0.831983 1.96141e-20)
(-3.76735 0.772979 0)
(-3.95043 0.708518 -1.96464e-20)
(-4.10709 0.642251 -4.16163e-20)
(-4.2406 0.576615 2.0128e-20)
(-4.35385 0.51378 0)
(-4.44972 0.45517 0)
(-4.53081 0.401481 0)
(-4.59942 0.352932 -4.42044e-20)
(-4.65752 0.309411 -4.47088e-20)
(-4.70668 0.270601 -2.21713e-20)
(-4.74821 0.236069 0)
(-4.78314 0.205322 4.52423e-20)
(-4.81231 0.17787 0)
(-4.8364 0.15324 -4.5783e-20)
(-4.85597 0.131006 0)
(-4.87148 0.110787 0)
(-4.88335 0.0922599 4.59509e-20)
(-4.89192 0.0751463 0)
(-4.89755 0.0592193 1.37672e-19)
(-4.90052 0.0442915 -4.5432e-20)
(-4.90109 0.0302497 0)
(-4.89951 0.0171101 -4.47363e-20)
(-4.89608 0.00504297 -4.42498e-20)
(-4.89105 -0.00581621 0)
(-4.88278 -0.0156348 0)
(-4.87082 -0.0247288 0)
(-4.85507 -0.033284 0)
(-4.83548 -0.0414059 0)
(-4.81209 -0.0491491 3.99027e-20)
(-4.78496 -0.0565473 7.85197e-20)
(-4.75417 -0.0636154 -3.80978e-20)
(-4.71981 -0.0703645 0)
(-4.68196 -0.0767962 7.27517e-20)
(-4.64072 -0.0829141 -3.5589e-20)
(-4.5962 -0.0887153 0)
(-4.54848 -0.094201 -3.28385e-20)
(-4.4977 -0.0993686 0)
(-4.44394 -0.104221 0)
(-4.38734 -0.108757 -5.89202e-20)
(-4.328 -0.112977 2.7868e-20)
(-4.26606 -0.116882 -5.36305e-20)
(-4.20163 -0.120473 5.08588e-20)
(-4.13486 -0.123755 2.36965e-20)
(-4.06586 -0.126733 0)
(-3.99477 -0.129411 2.07034e-20)
(-3.92171 -0.131795 0)
(-3.84684 -0.133892 0)
(-3.77026 -0.13571 0)
(-3.69213 -0.137258 1.4856e-20)
(-3.61256 -0.138545 0)
(-3.53169 -0.13958 2.20337e-20)
(-3.44965 -0.140374 -2.7239e-20)
(-3.36656 -0.14094 -6.97967e-21)
(-3.28255 -0.141285 0)
(-3.19773 -0.141425 -3.08424e-21)
(-3.11223 -0.141368 0)
(-3.02615 -0.14113 2.03031e-21)
(-2.9396 -0.14072 0)
(-2.85268 -0.140152 1.06651e-20)
(-2.76549 -0.139436 -2.88791e-20)
(-2.67813 -0.13859 -1.97713e-20)
(-2.5907 -0.137619 0)
(-2.50331 -0.136538 0)
(-2.41606 -0.135344 0)
(-2.32903 -0.134024 3.95786e-20)
(-2.24234 -0.132555 0)
(-2.15615 -0.130892 -5.03969e-20)
(-2.0706 -0.128983 0)
(-1.98581 -0.126819 1.84221e-19)
(-1.90181 -0.124482 6.79683e-20)
(-1.81857 -0.122093 7.42138e-20)
(-1.73604 -0.119729 0)
(-1.65427 -0.117409 0)
(-1.57333 -0.115111 0)
(-1.49328 -0.112818 0)
(-1.41415 -0.110519 0)
(-1.33599 -0.108217 2.31717e-19)
(-1.25881 -0.105911 2.47859e-19)
(-1.18266 -0.103608 0)
(-1.10755 -0.101307 -1.41936e-19)
(-1.03351 -0.0990128 -1.51113e-19)
(-0.960567 -0.0967245 0)
(-0.888731 -0.0944501 -3.39899e-19)
(-0.818008 -0.0921951 0)
(-0.748396 -0.0899736 1.90756e-19)
(-0.679909 -0.0877826 0)
(-0.61255 -0.0856288 0)
(-0.546323 -0.0835095 -4.57097e-19)
(-0.481227 -0.0814304 0)
(-0.417261 -0.0793891 2.57714e-19)
(-0.354425 -0.0773946 0)
(-0.292714 -0.0754531 0)
(-0.232115 -0.0735693 3.05494e-19)
(-0.172621 -0.0717318 3.26015e-19)
(-0.114225 -0.0699475 0)
(-0.0569315 -0.0682124 -3.65977e-19)
(-0.000731322 -0.0665251 0)
(0.0544217 -0.0648756 3.82539e-19)
(0.108556 -0.0632739 7.53472e-19)
(0.161666 -0.0617299 0)
(0.213754 -0.0602522 0)
(0.26483 -0.0588364 0)
(0.31493 -0.0574865 0)
(0.364122 -0.056192 6.99864e-19)
(0.412489 -0.0547898 2.06969e-18)
(0.45995 -0.0531185 0)
(0.50637 -0.051305 0)
(0.551819 -0.0495105 0)
(0.596384 -0.0477946 -6.58557e-19)
(0.640089 -0.0461674 0)
(0.682947 -0.0446287 0)
(0.724981 -0.0431714 1.27589e-18)
(0.766215 -0.0417884 6.31243e-19)
(0.806674 -0.0404716 6.26952e-19)
(0.84638 -0.0392159 0)
(0.885351 -0.038016 0)
(0.923607 -0.0368694 6.11156e-19)
(0.96117 -0.035772 -6.05179e-19)
(0.998062 -0.0347218 0)
(1.03431 -0.0337155 0)
(1.06992 -0.0327518 -5.92887e-19)
(1.10494 -0.0318284 1.76525e-18)
(1.13937 -0.0309443 0)
(1.17324 -0.0300978 0)
(1.20658 -0.029288 5.7709e-19)
(1.2394 -0.0285136 0)
(1.27172 -0.0277736 1.13908e-18)
(1.30356 -0.0270671 -5.65753e-19)
(1.33496 -0.0263931 0)
(1.36592 -0.0257506 5.59873e-19)
(1.39647 -0.0251387 1.11272e-18)
(1.42664 -0.0245564 0)
(1.45643 -0.0240023 0)
(1.48588 -0.0234752 -5.47499e-19)
(1.51501 -0.0229733 0)
(1.54382 -0.0224943 1.08274e-18)
(1.57234 -0.0220352 0)
(1.60059 -0.0215923 0)
(1.62856 -0.0211603 0)
(1.65626 -0.0207325 0)
(1.68368 -0.0202998 -5.27674e-19)
(1.71081 -0.0198498 -5.2501e-19)
(1.7376 -0.019366 0)
(1.764 -0.0188255 0)
(1.78991 -0.0181965 0)
(1.81518 -0.0174334 5.15317e-19)
(1.83962 -0.016468 0)
(1.86288 -0.0151987 -1.0236e-18)
(1.88455 -0.0134424 1.02156e-18)
(1.9037 -0.0109232 1.02131e-18)
(1.91987 -0.0068657 1.02278e-18)
(1.92954 -4.39762e-06 1.02719e-18)
(1.94123 0.013077 1.01908e-18)
(1.92115 0.0369099 0)
(0.116634 -0.884426 0)
(0.262246 -1.05809 0)
(0.305267 -0.817421 -1.2503e-19)
(0.301863 -0.571528 -1.07841e-19)
(0.281863 -0.358367 1.00732e-19)
(0.247747 -0.170806 1.01463e-19)
(0.19817 -0.00328104 -6.01086e-22)
(0.132606 0.146115 0)
(0.0506504 0.27747 0)
(-0.0492072 0.387663 0)
(-0.171529 0.471348 0)
(-0.325414 0.532264 0)
(-0.524285 0.591458 -2.54951e-19)
(-0.776076 0.676468 0)
(-1.07276 0.798656 6.2952e-20)
(-1.39717 0.944198 5.44783e-20)
(-1.73146 1.08947 0)
(-2.05913 1.21634 0)
(-2.36569 1.31419 0)
(-2.6403 1.37799 0)
(-2.87941 1.40294 3.41393e-20)
(-3.08375 1.38971 0)
(-3.25462 1.34489 -3.18598e-20)
(-3.39592 1.27639 0)
(-3.51219 1.19076 0)
(-3.60793 1.09443 0)
(-3.688 0.993312 -6.82805e-20)
(-3.7564 0.892384 0)
(-3.81652 0.795393 3.3081e-20)
(-3.87085 0.704675 -7.05821e-20)
(-3.92111 0.621529 0)
(-3.96845 0.546461 0)
(-4.01348 0.479383 0)
(-4.0565 0.419819 3.65582e-20)
(-4.09756 0.367077 3.71337e-20)
(-4.13659 0.320374 0)
(-4.17343 0.278923 0)
(-4.20791 0.24198 -7.76426e-20)
(-4.23985 0.208877 -7.80061e-20)
(-4.26909 0.179028 7.82095e-20)
(-4.29549 0.151943 0)
(-4.31895 0.127215 0)
(-4.33937 0.104519 0)
(-4.35668 0.083585 0)
(-4.37081 0.0641928 -7.66786e-20)
(-4.38173 0.0461498 -7.65624e-20)
(-4.38932 0.0292715 7.59024e-20)
(-4.39343 0.0133395 0)
(-4.39386 -0.00192969 0)
(-4.39048 -0.0168159 0)
(-4.38328 -0.031357 0)
(-4.37232 -0.0454314 -7.06066e-20)
(-4.35764 -0.0589826 0)
(-4.33927 -0.072004 0)
(-4.31727 -0.0845007 -6.64405e-20)
(-4.29167 -0.096481 -6.43824e-20)
(-4.26256 -0.10795 0)
(-4.22999 -0.11891 1.23328e-19)
(-4.19405 -0.129362 -5.93721e-20)
(-4.15482 -0.139303 5.75686e-20)
(-4.1124 -0.148731 0)
(-4.06689 -0.157641 0)
(-4.01838 -0.166031 0)
(-3.96698 -0.173899 0)
(-3.9128 -0.181249 4.7579e-20)
(-3.85597 -0.18808 9.20483e-20)
(-3.79659 -0.194389 4.31396e-20)
(-3.73479 -0.200183 -4.08278e-20)
(-3.67069 -0.205466 0)
(-3.60441 -0.210244 7.33741e-20)
(-3.5361 -0.214527 6.84013e-20)
(-3.46586 -0.218322 6.33083e-20)
(-3.39384 -0.221641 -5.80958e-20)
(-3.32016 -0.224496 0)
(-3.24495 -0.2269 -7.02757e-20)
(-3.16834 -0.228867 0)
(-3.09046 -0.230414 1.87332e-20)
(-3.01143 -0.231555 1.44164e-20)
(-2.93138 -0.232309 0)
(-2.85043 -0.232692 0)
(-2.76871 -0.232723 1.2108e-20)
(-2.68631 -0.23242 0)
(-2.60337 -0.231803 -6.01122e-22)
(-2.51998 -0.23089 0)
(-2.43626 -0.229702 1.38193e-20)
(-2.35231 -0.228258 4.27136e-20)
(-2.26823 -0.22658 0)
(-2.18412 -0.224691 0)
(-2.1001 -0.222613 0)
(-2.01627 -0.220358 4.92416e-20)
(-1.93271 -0.217933 0)
(-1.8495 -0.215343 6.44476e-20)
(-1.76674 -0.212578 0)
(-1.68452 -0.209619 0)
(-1.6029 -0.206443 -1.78445e-19)
(-1.5219 -0.20306 0)
(-1.44153 -0.199506 -1.05465e-19)
(-1.36182 -0.195843 0)
(-1.28283 -0.19212 -1.23242e-19)
(-1.20461 -0.188361 0)
(-1.12723 -0.184574 0)
(-1.05072 -0.180766 0)
(-0.975127 -0.176942 -4.85977e-19)
(-0.900478 -0.17311 -1.73127e-19)
(-0.826801 -0.169275 0)
(-0.754121 -0.165446 0)
(-0.682461 -0.161625 0)
(-0.611838 -0.157819 0)
(-0.542265 -0.154033 2.28647e-19)
(-0.473749 -0.150275 -4.78814e-19)
(-0.4063 -0.146554 -2.53284e-19)
(-0.339927 -0.142877 5.29689e-19)
(-0.274637 -0.13925 5.5639e-19)
(-0.210431 -0.135677 2.93345e-19)
(-0.14731 -0.132158 0)
(-0.0852742 -0.128695 6.42144e-19)
(-0.0243251 -0.125291 0)
(0.0355485 -0.121951 -6.87286e-19)
(0.0943601 -0.118674 -3.46304e-19)
(0.152111 -0.115462 0)
(0.208808 -0.112318 6.95092e-19)
(0.26446 -0.109242 3.49712e-19)
(0.319079 -0.106227 0)
(0.372671 -0.103258 3.49488e-19)
(0.425247 -0.100342 -1.05484e-18)
(0.476822 -0.0974906 0)
(0.527414 -0.0947081 0)
(0.577043 -0.0919953 0)
(0.62573 -0.0893574 0)
(0.67351 -0.086802 -7.08579e-19)
(0.720405 -0.0843457 -7.10946e-19)
(0.766386 -0.0819738 0)
(0.811437 -0.0796443 0)
(0.855615 -0.0773551 0)
(0.898965 -0.0751235 0)
(0.941501 -0.0729598 0)
(0.983235 -0.0708681 0)
(1.02418 -0.0688477 -7.144e-19)
(1.06437 -0.0668974 -1.05936e-21)
(1.10381 -0.0650142 0)
(1.14252 -0.0631965 0)
(1.18053 -0.0614423 -7.14151e-19)
(1.21785 -0.0597503 0)
(1.25451 -0.0581184 7.15141e-19)
(1.29052 -0.0565455 7.14293e-19)
(1.32591 -0.0550294 0)
(1.3607 -0.0535694 0)
(1.39491 -0.0521637 -7.14784e-19)
(1.42856 -0.050812 -1.42781e-18)
(1.46167 -0.0495126 0)
(1.49427 -0.0482651 0)
(1.52636 -0.047068 0)
(1.55799 -0.0459207 -7.13486e-19)
(1.58916 -0.0448221 7.13111e-19)
(1.61989 -0.0437712 0)
(1.65021 -0.042767 1.42341e-18)
(1.68014 -0.0418081 7.10709e-19)
(1.70971 -0.0408936 -1.4214e-18)
(1.73892 -0.0400213 0)
(1.7678 -0.0391899 0)
(1.79637 -0.0383961 -1.41772e-18)
(1.82465 -0.0376373 -7.08594e-19)
(1.85266 -0.0369084 0)
(1.8804 -0.0362041 0)
(1.90789 -0.0355164 0)
(1.93512 -0.034835 0)
(1.96211 -0.0341461 -1.40808e-18)
(1.98883 -0.033431 0)
(2.01525 -0.0326647 0)
(2.04132 -0.0318124 0)
(2.06697 -0.0308262 0)
(2.09207 -0.029637 0)
(2.11647 -0.0281439 0)
(2.13988 -0.0261944 -1.39958e-18)
(2.16197 -0.0235354 0)
(2.18207 -0.0197579 0)
(2.19994 -0.0140671 -2.82162e-18)
(2.21279 -0.00513119 1.42056e-18)
(2.22687 0.00974375 -1.41816e-18)
(2.22128 0.0372495 1.4137e-18)
(0.02826 -1.17448 0)
(0.0590189 -1.0183 3.58496e-19)
(0.0195959 -0.732515 0)
(-0.028294 -0.488439 1.09564e-19)
(-0.0878009 -0.261615 0)
(-0.160368 -0.0481424 0)
(-0.248871 0.152204 -8.05202e-20)
(-0.355684 0.338594 0)
(-0.482977 0.510697 0)
(-0.633583 0.669271 0)
(-0.811593 0.817452 0)
(-1.02186 0.961883 0)
(-1.2654 1.11 1.96142e-19)
(-1.53416 1.26293 8.89547e-20)
(-1.81205 1.4123 -8.07827e-20)
(-2.08097 1.54427 0)
(-2.32667 1.64616 0)
(-2.54071 1.71044 0)
(-2.7195 1.7351 0)
(-2.8623 1.7224 0)
(-2.97264 1.67648 5.92397e-20)
(-3.05667 1.60284 5.80831e-20)
(-3.12067 1.50894 -5.74231e-20)
(-3.17072 1.40248 5.72915e-20)
(-3.21184 1.28957 0)
(-3.24813 1.17535 0)
(-3.28272 1.06386 5.5728e-20)
(-3.31763 0.958029 0)
(-3.35387 0.859647 0)
(-3.39179 0.769469 5.86444e-20)
(-3.43129 0.687586 6.14129e-20)
(-3.47196 0.613667 6.21234e-20)
(-3.51323 0.547126 0)
(-3.55449 0.487239 0)
(-3.59513 0.433245 -6.39047e-20)
(-3.63461 0.384397 0)
(-3.67246 0.340002 0)
(-3.70829 0.299438 6.41467e-20)
(-3.74176 0.262163 -6.58209e-20)
(-3.77261 0.227709 6.58175e-20)
(-3.80063 0.195679 0)
(-3.82564 0.165741 0)
(-3.84748 0.13761 1.29491e-19)
(-3.86603 0.111048 0)
(-3.88118 0.0858536 1.28045e-19)
(-3.89284 0.0618595 1.90122e-19)
(-3.90092 0.0389336 -1.8844e-19)
(-3.90537 0.0169606 1.24669e-19)
(-3.90613 -0.00417997 0)
(-3.90323 -0.0246021 0)
(-3.89671 -0.0443627 1.19045e-19)
(-3.88661 -0.063466 5.79703e-20)
(-3.87295 -0.0819075 0)
(-3.85578 -0.0996842 0)
(-3.83513 -0.116793 5.44188e-20)
(-3.81105 -0.133233 1.07276e-19)
(-3.7836 -0.148998 0)
(-3.75283 -0.164085 -1.00727e-19)
(-3.71883 -0.178486 9.8882e-20)
(-3.68166 -0.192197 -9.58685e-20)
(-3.64142 -0.205209 0)
(-3.59819 -0.217516 0)
(-3.55206 -0.22911 0)
(-3.50315 -0.239991 0)
(-3.45155 -0.25016 0)
(-3.39738 -0.259615 -7.44691e-20)
(-3.34074 -0.268355 0)
(-3.28176 -0.276387 0)
(-3.22055 -0.283715 0)
(-3.15724 -0.29035 -1.1925e-19)
(-3.09194 -0.296301 -5.49346e-20)
(-3.02478 -0.301581 -5.07631e-20)
(-2.95589 -0.306205 9.42456e-20)
(-2.88539 -0.310188 -4.34052e-20)
(-2.8134 -0.31355 3.77457e-20)
(-2.74005 -0.316308 0)
(-2.66547 -0.318484 -2.86607e-20)
(-2.58978 -0.3201 0)
(-2.51309 -0.321179 0)
(-2.43552 -0.321744 0)