/*--------------------------------*- C++ -*----------------------------------*\
  =========                 |
  \\      /  F ield         | OpenFOAM: The Open Source CFD Toolbox
   \\    /   O peration     | Website:  https://openfoam.org
    \\  /    A nd           | Version:  8
     \\/     M anipulation  |
\*---------------------------------------------------------------------------*/
FoamFile
{
    version     2.0;
    format      ascii;
    class       volScalarField;
    location    "1100";
    object      nuTilda;
}
// * * * * * * * * * * * * * * * * * * * * * * * * * * * * * * * * * * * * * //

dimensions      [0 2 -1 0 0 0 0];

internalField   nonuniform List<scalar> 
12225
(
0.0122671
0.00158833
0.000666932
0.000412201
0.000298001
0.000234419
0.000192049
0.000186518
0.000141364
0.000110263
9.73202e-05
9.07193e-05
8.20035e-05
7.63424e-05
7.17079e-05
7.01742e-05
6.81337e-05
7.40044e-05
0.0323823
0.00744533
0.00330642
0.00204338
0.00146818
0.00114477
0.000936743
0.000800567
0.000680244
0.00057806
0.000507247
0.000453561
0.000411868
0.000380374
0.000352023
0.000329998
0.000313759
0.000295894
0.0490123
0.01515
0.00728196
0.00457856
0.00330642
0.00258059
0.00211241
0.00178924
0.00154196
0.00134781
0.00119795
0.00107898
0.000982393
0.000902879
0.000836444
0.000781456
0.000736172
0.000687907
0.063054
0.0237783
0.0122894
0.00788815
0.00573398
0.004485
0.00367415
0.00310736
0.00268476
0.00235812
0.00210119
0.00189468
0.00172543
0.00158465
0.00146631
0.00136625
0.00128169
0.00119817
0.074932
0.0328517
0.0181452
0.0119262
0.00874549
0.00686413
0.00563081
0.00476256
0.0041175
0.00362033
0.00322735
0.00290997
0.00264905
0.0024315
0.00224808
0.00209198
0.00195837
0.0018364
0.0849536
0.0420208
0.0246655
0.0166359
0.0123325
0.00972587
0.0079954
0.00676786
0.00585347
0.00514771
0.00458846
0.0041359
0.00376338
0.00345244
0.00318988
0.00296602
0.00277367
0.0026048
0.0933822
0.0510219
0.0316642
0.0219415
0.016474
0.0130717
0.0107779
0.00913552
0.00790571
0.00695341
0.00619691
0.00558369
0.0050784
0.00465635
0.0042998
0.00399565
0.0037342
0.00350825
0.0993794
0.0583363
0.0378386
0.0268568
0.0204171
0.0163053
0.0134892
0.011453
0.00991892
0.0087263
0.00777636
0.00700499
0.00636869
0.00583688
0.00538743
0.00500401
0.00467456
0.00439132
0.104023
0.0645454
0.0433804
0.0314239
0.0241571
0.0194092
0.0161097
0.0137018
0.0118766
0.0104521
0.00931444
0.00838906
0.00762487
0.00698577
0.00644547
0.00598453
0.00558862
0.00524881
0.108368
0.0708939
0.0493756
0.0365496
0.0284517
0.0230231
0.0191863
0.0163548
0.0141926
0.0124968
0.011138
0.0100304
0.00911436
0.00834762
0.00769913
0.00714582
0.00667072
0.00626302
0.112368
0.0772557
0.0557282
0.0421918
0.0332976
0.0271652
0.0227468
0.0194432
0.0168984
0.0148904
0.0132749
0.0119545
0.0108605
0.00994381
0.00916799
0.00850588
0.00793739
0.00744918
0.115994
0.0834975
0.0623053
0.0482611
0.0386474
0.0318167
0.026789
0.0229739
0.0200046
0.0176452
0.0157379
0.0141736
0.0128749
0.011785
0.0108618
0.0100736
0.00939673
0.00881467
0.119234
0.0894856
0.0689377
0.0546109
0.0443919
0.0369007
0.0312597
0.0269088
0.0234836
0.02074
0.0185097
0.0166735
0.0151449
0.01386
0.0127704
0.0118396
0.0110397
0.0103508
0.122086
0.095084
0.075415
0.0610223
0.0503361
0.0422535
0.0360231
0.0311353
0.0272402
0.024093
0.021519
0.0193909
0.017614
0.0161174
0.0148466
0.0137601
0.0128257
0.0120196
0.124546
0.100135
0.0814619
0.0671725
0.056158
0.047577
0.0408126
0.0354174
0.031066
0.0275196
0.0246012
0.0221777
0.0201481
0.0184349
0.0169782
0.0157314
0.0146583
0.0137312
0.126578
0.104396
0.0866605
0.0725515
0.0613228
0.0523526
0.0451453
0.0393148
0.0345631
0.0306611
0.0274325
0.0247409
0.0224806
0.020569
0.0189413
0.0175468
0.0163454
0.0153061
0.128011
0.107322
0.0902141
0.0762353
0.0648743
0.0556509
0.0481493
0.0420254
0.0370012
0.0328553
0.0294126
0.0265352
0.0241143
0.0220643
0.0203172
0.0188191
0.0175275
0.0164083
0.128006
0.107313
0.0902048
0.0762269
0.0648674
0.0556454
0.048145
0.0420222
0.0369988
0.0328537
0.0294117
0.0265349
0.0241147
0.0220652
0.0203185
0.0188206
0.0175287
0.0164083
0.126509
0.104255
0.0864922
0.0723807
0.0611613
0.052205
0.0450128
0.0391967
0.0344584
0.0305686
0.0273506
0.0246684
0.0224163
0.0205118
0.0188903
0.0175006
0.0163024
0.0152631
0.124267
0.0995604
0.0807712
0.0664676
0.0554886
0.0469631
0.0402594
0.0349228
0.0306248
0.0271258
0.0242488
0.0218611
0.0198626
0.0181762
0.0167426
0.0155152
0.0144575
0.0135405
0.12136
0.0936399
0.0737261
0.0593348
0.0487592
0.0408249
0.0347467
0.0300003
0.0262308
0.0231928
0.0207127
0.018665
0.0169572
0.0155198
0.0142999
0.0132567
0.0123583
0.0115798
0.117686
0.0865903
0.0656967
0.0514791
0.0415374
0.0343608
0.0290184
0.0249322
0.0217348
0.0191848
0.0171184
0.0154211
0.0140106
0.0128263
0.0118229
0.0109656
0.010228
0.00958894
0.11305
0.0784122
0.056921
0.0432687
0.0342296
0.0279652
0.0234365
0.0200435
0.0174263
0.0153597
0.0136966
0.0123369
0.0112106
0.010267
0.00946865
0.00878719
0.00820101
0.00769346
0.107169
0.0691009
0.0476372
0.035029
0.0271566
0.021922
0.0182437
0.0155401
0.0134817
0.0118706
0.0105816
0.00953197
0.00866486
0.00793965
0.00732669
0.00680378
0.00635414
0.00596495
0.0996761
0.0587036
0.0381279
0.0270699
0.0205782
0.0164329
0.0135949
0.0115438
0.00999922
0.00879908
0.00784341
0.00706756
0.00642791
0.00589357
0.00544229
0.00505735
0.00472646
0.00444013
0.0901097
0.0473665
0.0287363
0.0196847
0.0146976
0.0116312
0.00957853
0.00811528
0.00702332
0.00617994
0.00551058
0.00496793
0.00452117
0.0041481
0.00383335
0.00356446
0.00333372
0.00313396
0.0779076
0.0353826
0.0198606
0.0131383
0.00966107
0.00759298
0.00623353
0.00527431
0.00456401
0.00401884
0.00358702
0.00323607
0.00294738
0.00270566
0.00250272
0.00232758
0.00217861
0.00204932
0.06238
0.0232554
0.0119461
0.00765494
0.00556339
0.00435258
0.00356726
0.00301643
0.00261312
0.00230799
0.00206673
0.00186704
0.00170297
0.00156315
0.00144914
0.00134563
0.00125995
0.00118517
0.0426105
0.0117794
0.00546931
0.00341388
0.00246077
0.00192015
0.0015729
0.00132905
0.00115971
0.00103881
0.000944728
0.000857691
0.000787367
0.000718743
0.000673682
0.000623112
0.000574814
0.000542078
0.0168348
0.0025599
0.00110031
0.000684192
0.000495179
0.000389151
0.00032166
0.00027075
0.000280929
0.000338746
0.000385598
0.000370753
0.000352962
0.000289133
0.000353828
0.000326731
0.000244498
0.00028767
3.783e-06
1.43244e-05
2.60321e-05
3.85426e-05
4.60197e-05
4.96758e-05
5.01639e-05
4.78401e-05
4.46492e-05
3.95802e-05
3.42412e-05
2.94625e-05
2.67587e-05
2.74186e-05
2.95912e-05
3.1434e-05
3.12816e-05
2.84075e-05
2.36597e-05
1.94773e-05
1.94411e-05
2.62695e-05
3.92474e-05
6.36966e-05
8.71416e-05
0.000100542
0.000113282
0.000124294
0.000134289
0.000142798
0.000150395
0.000157018
0.000162883
0.000168041
0.000172575
0.000176604
0.000180193
0.000183413
0.000186311
0.000188924
0.000191274
0.000193381
0.000195259
0.000196922
0.000198382
0.000199651
0.000200737
0.000201646
0.000202378
0.000202803
0.000203294
0.000203377
0.000203437
0.000203321
0.000203044
0.00020263
0.000202075
0.000201382
0.000200554
0.000199593
0.0001985
0.000197279
0.000195933
0.000194463
0.000192873
0.000191166
0.000189343
0.000187407
0.000185363
0.000183211
0.000180957
0.000178603
0.000176151
0.000173604
0.000170966
0.000168237
0.00016542
0.000162517
0.000159528
0.000156456
0.000153299
0.000150059
0.000146735
0.000143324
0.000139824
0.00013623
0.000132535
0.000128731
0.000124806
0.000120748
0.000116538
0.000112162
0.000107619
0.000102964
9.83995e-05
9.44175e-05
9.15947e-05
8.98385e-05
8.85242e-05
8.73194e-05
8.6136e-05
8.49572e-05
8.37813e-05
8.26089e-05
8.14409e-05
8.02782e-05
7.91223e-05
7.79773e-05
7.68642e-05
7.59097e-05
7.49757e-05
7.40478e-05
7.31279e-05
7.22162e-05
7.13132e-05
7.04191e-05
6.95344e-05
6.86594e-05
6.77944e-05
6.69395e-05
6.60949e-05
6.52608e-05
6.44377e-05
6.36259e-05
6.28254e-05
6.2036e-05
6.12588e-05
6.05194e-05
5.98422e-05
5.91736e-05
5.85103e-05
5.78602e-05
5.72284e-05
5.66017e-05
5.59797e-05
5.53659e-05
5.47611e-05
5.4166e-05
5.35805e-05
5.30047e-05
5.24383e-05
5.18813e-05
5.13334e-05
5.07945e-05
5.02646e-05
4.97435e-05
4.92311e-05
4.87274e-05
4.82321e-05
4.77453e-05
4.72668e-05
4.67967e-05
4.63348e-05
4.58812e-05
4.54359e-05
4.49988e-05
4.45701e-05
4.41498e-05
4.37381e-05
4.3335e-05
4.29409e-05
4.2556e-05
4.21804e-05
4.18144e-05
4.14583e-05
4.1112e-05
4.07758e-05
4.04492e-05
4.01318e-05
3.9823e-05
3.95207e-05
3.92251e-05
3.89274e-05
3.86407e-05
3.83118e-05
3.80562e-05
3.75484e-05
3.73536e-05
3.63029e-05
3.49086e-05
5.89547e-06
4.0585e-05
9.24561e-05
0.000153698
0.000192564
0.000214589
0.000223402
0.000221986
0.000214159
0.000198606
0.000179578
0.000161573
0.000152394
0.000156818
0.000169069
0.000177029
0.000179117
0.0001802
0.000185101
0.000193803
0.000208053
0.000224371
0.00024028
0.000256122
0.000267016
0.000276606
0.000285155
0.000297603
0.000316281
0.000329951
0.000342474
0.000353226
0.00036301
0.000371988
0.000379789
0.000386916
0.000393554
0.000399925
0.000406159
0.00041232
0.000418403
0.000424366
0.000430157
0.000435734
0.000441069
0.000446145
0.000450948
0.000455465
0.000459697
0.000463643
0.000467342
0.000470761
0.000473937
0.00047686
0.000479534
0.00048196
0.00048414
0.000486074
0.000487761
0.000489203
0.0004904
0.000491354
0.000492065
0.000492539
0.000492786
0.000492811
0.000492608
0.000492174
0.000491525
0.000490664
0.000489599
0.000488334
0.000486878
0.000485236
0.000483416
0.000481425
0.00047927
0.000476959
0.0004745
0.000471899
0.000469165
0.000466307
0.000463331
0.000460246
0.000457061
0.000453783
0.00045042
0.000446981
0.000443474
0.000439906
0.000436284
0.000432614
0.000428894
0.000425119
0.000421268
0.000417316
0.000413247
0.000409089
0.000404891
0.00040068
0.000396462
0.000392241
0.000388021
0.000383806
0.000379597
0.0003754
0.000371217
0.00036705
0.000362899
0.000358762
0.00035465
0.000350567
0.000346515
0.000342496
0.000338512
0.000334564
0.000330654
0.000326784
0.000322954
0.000319166
0.000315421
0.000311719
0.000308062
0.000304452
0.000300888
0.00029737
0.000293899
0.000290473
0.000287091
0.000283756
0.000280465
0.000277229
0.000274046
0.000270903
0.000267797
0.000264735
0.000261719
0.000258749
0.000255827
0.000252951
0.000250122
0.000247337
0.000244598
0.000241903
0.000239251
0.000236642
0.000234076
0.000231553
0.00022907
0.000226629
0.000224229
0.000221869
0.00021955
0.00021727
0.000215031
0.000212833
0.000210675
0.000208558
0.000206482
0.00020445
0.000202461
0.000200518
0.000198621
0.000196773
0.000194974
0.000193226
0.00019153
0.000189885
0.000188292
0.000186747
0.000185247
0.000183793
0.000182356
0.000180993
0.000179509
0.000178386
0.00017629
0.000175967
0.000172988
0.000172126
1.2873e-05
7.40521e-05
0.000174297
0.000251897
0.000303709
0.000333444
0.000344317
0.000341514
0.000328922
0.000310032
0.000290699
0.000278249
0.000275982
0.000282397
0.000292435
0.000302974
0.000315431
0.000332056
0.000353323
0.000378186
0.000405321
0.0004334
0.00047116
0.000517302
0.000562763
0.000606775
0.000649761
0.000693336
0.000732641
0.000763912
0.000788909
0.000808727
0.000824436
0.000836901
0.000846901
0.000855213
0.000862537
0.000869516
0.000876689
0.000884412
0.000892791
0.000901706
0.000910915
0.000920184
0.000929334
0.000938246
0.000946844
0.00095508
0.000962916
0.000970327
0.000977288
0.000983769
0.00098977
0.000995282
0.0010003
0.00100483
0.00100887
0.00101242
0.00101547
0.00101803
0.0010201
0.00102168
0.00102276
0.0010233
0.00102346
0.00102318
0.00102238
0.00102114
0.00101946
0.00101734
0.0010148
0.00101186
0.00100853
0.00100481
0.00100074
0.000996309
0.000991545
0.000986461
0.000981072
0.000975391
0.000969436
0.00096322
0.000956759
0.000950068
0.000943163
0.000936058
0.000928767
0.000921306
0.000913687
0.000905925
0.00089803
0.000890014
0.000881887
0.000873657
0.000865331
0.00085692
0.000848437
0.000839895
0.000831313
0.000822704
0.000814078
0.000805445
0.000796811
0.000788185
0.000779574
0.000770985
0.000762425
0.000753899
0.000745413
0.000736973
0.000728584
0.000720251
0.00071198
0.000703774
0.000695637
0.000687572
0.000679582
0.000671671
0.000663841
0.000656094
0.000648432
0.000640857
0.000633371
0.000625976
0.000618673
0.000611463
0.000604345
0.000597321
0.000590391
0.000583556
0.000576816
0.000570172
0.000563621
0.000557158
0.000550783
0.000544496
0.000538301
0.000532199
0.000526188
0.000520268
0.000514439
0.0005087
0.00050305
0.000497487
0.00049201
0.000486619
0.000481312
0.000476088
0.000470945
0.000465884
0.000460902
0.000455999
0.000451173
0.000446423
0.000441749
0.000437149
0.000432622
0.000428167
0.000423782
0.000419467
0.00041522
0.000411039
0.000406923
0.00040287
0.000398876
0.000394938
0.000391054
0.000387216
0.000383419
0.000379655
0.00037591
0.000372172
0.000368415
0.000364623
0.00036072
0.000356742
0.000352323
0.000348021
0.000341563
0.000330412
2.17689e-05
0.000106431
0.000220255
0.000312871
0.000375576
0.000412585
0.000428032
0.000428423
0.000418489
0.000405179
0.000397041
0.000396164
0.00040524
0.000422258
0.000444809
0.00047236
0.000505515
0.000544646
0.000588949
0.000650791
0.000724459
0.000804086
0.000888305
0.000958964
0.00102139
0.00107751
0.00112793
0.00117284
0.00121212
0.00124602
0.00127527
0.00130061
0.00132273
0.00134228
0.00135982
0.00137584
0.00139076
0.00140492
0.00141858
0.00143193
0.0014451
0.00145815
0.0014711
0.00148396
0.00149665
0.00150911
0.00152124
0.00153294
0.00154413
0.00155473
0.00156468
0.00157395
0.00158253
0.00159039
0.00159752
0.00160393
0.0016096
0.00161454
0.00161874
0.0016222
0.00162493
0.0016269
0.00162806
0.0016285
0.00162837
0.00162746
0.00162584
0.00162352
0.00162052
0.00161686
0.00161257
0.00160765
0.00160213
0.00159603
0.00158937
0.00158218
0.00157447
0.00156628
0.00155762
0.00154851
0.00153898
0.00152905
0.00151875
0.0015081
0.00149712
0.00148583
0.00147426
0.00146242
0.00145035
0.00143805
0.00142555
0.00141287
0.00140003
0.00138703
0.0013739
0.00136065
0.00134731
0.00133388
0.0013204
0.00130687
0.00129331
0.00127974
0.00126617
0.00125262
0.00123908
0.00122559
0.00121214
0.00119874
0.0011854
0.00117214
0.00115896
0.00114586
0.00113286
0.00111996
0.00110717
0.00109449
0.00108192
0.00106948
0.00105716
0.00104497
0.00103292
0.00102099
0.00100921
0.000997562
0.000986058
0.000974696
0.000963478
0.000952405
0.000941478
0.000930697
0.000920063
0.000909575
0.00089923
0.000889024
0.000878958
0.000869031
0.000859245
0.0008496
0.000840096
0.000830732
0.000821508
0.000812421
0.000803471
0.000794655
0.000785973
0.000777422
0.000769
0.000760706
0.000752538
0.000744494
0.000736573
0.000728772
0.00072109
0.000713525
0.000706075
0.000698738
0.000691513
0.000684397
0.000677389
0.000670485
0.000663685
0.000656984
0.000650381
0.000643872
0.000637452
0.000631117
0.000624861
0.000618676
0.000612553
0.000606478
0.000600437
0.000594408
0.000588361
0.000582259
0.000576038
0.000569644
0.000562893
0.000555732
0.000547511
0.000531414
2.69688e-05
0.00012201
0.000241123
0.000357866
0.000435912
0.000483094
0.000506599
0.000515009
0.000516549
0.000517483
0.00052427
0.000540304
0.000566207
0.000601032
0.000643998
0.000695122
0.000755029
0.000838272
0.000933789
0.00103
0.001119
0.00120338
0.00128274
0.00135545
0.00142223
0.00148366
0.00154014
0.00159201
0.00163962
0.0016834
0.00172384
0.00176141
0.00179655
0.00182964
0.00186097
0.00189082
0.00191936
0.00194675
0.00197308
0.00199841
0.00202277
0.00204617
0.00206862
0.00209009
0.00211055
0.00212998
0.00214835
0.00216563
0.00218179
0.00219681
0.00221068
0.00222341
0.002235
0.00224547
0.00225484
0.00226313
0.00227034
0.00227651
0.00228164
0.00228574
0.00228884
0.00229089
0.0022918
0.00229189
0.00229101
0.00228914
0.00228631
0.00228253
0.00227785
0.00227227
0.00226582
0.00225853
0.00225044
0.00224156
0.00223193
0.00222157
0.00221053
0.00219883
0.0021865
0.00217357
0.00216007
0.00214604
0.00213151
0.0021165
0.00210105
0.00208519
0.00206894
0.00205234
0.00203543
0.00201821
0.00200073
0.001983
0.00196506
0.00194693
0.00192862
0.00191017
0.00189159
0.00187291
0.00185415
0.00183534
0.0018165
0.00179764
0.00177879
0.00175995
0.00174115
0.00172241
0.00170372
0.00168511
0.00166659
0.00164817
0.00162986
0.00161168
0.00159362
0.0015757
0.00155793
0.00154032
0.00152286
0.00150558
0.00148846
0.00147152
0.00145476
0.00143819
0.0014218
0.00140561
0.0013896
0.0013738
0.00135819
0.00134278
0.00132756
0.00131255
0.00129774
0.00128312
0.0012687
0.00125448
0.00124045
0.00122661
0.00121296
0.0011995
0.00118624
0.00117316
0.00116028
0.00114758
0.00113507
0.00112275
0.0011106
0.00109863
0.00108684
0.00107522
0.00106377
0.00105249
0.00104138
0.00103043
0.00101964
0.00100901
0.000998534
0.000988212
0.000978041
0.000968017
0.000958139
0.000948402
0.000938803
0.00092934
0.000920008
0.000910803
0.000901719
0.000892751
0.000883891
0.000875129
0.000866455
0.000857852
0.000849304
0.000840783
0.000832257
0.000823682
0.00081499
0.000806111
0.00079688
0.000787151
0.000777195
0.000757409
3.07984e-05
0.000135321
0.000261517
0.000392496
0.000488786
0.0005504
0.000588114
0.00061148
0.000629148
0.00064837
0.000674395
0.000709879
0.000755565
0.000811733
0.000878767
0.000969137
0.00107417
0.00117585
0.00127505
0.00137056
0.00146127
0.00154728
0.00162854
0.00170501
0.00177699
0.00184482
0.00190885
0.00196942
0.00202684
0.00208146
0.00213359
0.00218353
0.00223151
0.00227776
0.00232243
0.00236565
0.0024075
0.00244804
0.0024873
0.00252529
0.002562
0.00259742
0.00263152
0.00266425
0.00269559
0.0027255
0.00275393
0.00278084
0.00280619
0.00282996
0.00285212
0.00287264
0.00289151
0.00290871
0.00292425
0.00293812
0.00295032
0.00296086
0.00296975
0.00297701
0.00298267
0.00298675
0.00298918
0.00299008
0.00298961
0.00298764
0.0029843
0.0029796
0.0029736
0.00296635
0.0029579
0.00294831
0.00293762
0.00292589
0.00291317
0.00289951
0.00288495
0.00286953
0.00285331
0.00283632
0.00281861
0.00280021
0.00278118
0.00276155
0.00274136
0.00272065
0.00269946
0.00267783
0.0026558
0.0026334
0.00261067
0.00258764
0.00256435
0.00254082
0.00251708
0.00249317
0.00246912
0.00244495
0.00242069
0.00239637
0.00237201
0.00234763
0.00232327
0.00229893
0.00227465
0.00225043
0.0022263
0.00220227
0.00217836
0.00215458
0.00213094
0.00210746
0.00208415
0.00206102
0.00203807
0.00201533
0.00199279
0.00197046
0.00194836
0.00192647
0.00190482
0.00188341
0.00186223
0.0018413
0.00182062
0.00180018
0.00177999
0.00176005
0.00174037
0.00172094
0.00170176
0.00168284
0.00166416
0.00164573
0.00162755
0.00160961
0.00159191
0.00157446
0.00155725
0.00154028
0.00152356
0.00150706
0.0014908
0.00147478
0.00145898
0.0014434
0.00142805
0.00141292
0.001398
0.00138329
0.0013688
0.0013545
0.00134042
0.00132653
0.00131283
0.00129933
0.00128602
0.00127289
0.00125994
0.00124718
0.00123458
0.00122216
0.00120991
0.00119781
0.00118587
0.00117407
0.00116241
0.00115089
0.00113947
0.00112816
0.00111692
0.00110574
0.00109457
0.00108337
0.00107207
0.0010606
0.0010488
0.00103659
0.00102441
0.00100195
3.23491e-05
0.000142507
0.000273987
0.000409889
0.000527837
0.000609056
0.000665093
0.000706983
0.000743931
0.000783189
0.000829813
0.000886755
0.000955627
0.00104783
0.00115474
0.0012613
0.00136739
0.00147074
0.00157082
0.00166718
0.00175959
0.00184804
0.00193262
0.0020135
0.0020909
0.00216511
0.0022364
0.00230504
0.00237129
0.00243537
0.0024975
0.00255786
0.0026166
0.00267384
0.00272965
0.0027841
0.00283722
0.00288902
0.0029395
0.00298864
0.00303641
0.00308278
0.00312769
0.0031711
0.00321296
0.00325321
0.0032918
0.00332869
0.00336381
0.00339713
0.0034286
0.00345818
0.00348583
0.00351154
0.00353526
0.00355698
0.00357669
0.00359438
0.00361003
0.00362365
0.00363525
0.00364483
0.00365241
0.00365803
0.00366168
0.0036633
0.00366321
0.00366123
0.00365745
0.00365193
0.00364473
0.00363588
0.00362547
0.00361354
0.00360015
0.00358539
0.0035693
0.00355195
0.00353342
0.00351377
0.00349307
0.00347138
0.00344878
0.00342532
0.00340107
0.00337609
0.00335045
0.00332419
0.00329739
0.00327008
0.00324233
0.00321417
0.00318567
0.00315685
0.00312777
0.00309846
0.00306896
0.00303931
0.00300954
0.0029797
0.0029498
0.00291987
0.00288996
0.00286008
0.00283026
0.00280051
0.00277087
0.00274135
0.00271198
0.00268276
0.00265371
0.00262486
0.0025962
0.00256777
0.00253956
0.0025116
0.00248388
0.00245642
0.00242923
0.0024023
0.00237566
0.0023493
0.00232324
0.00229746
0.00227198
0.0022468
0.00222192
0.00219735
0.00217308
0.00214911
0.00212545
0.00210209
0.00207903
0.00205627
0.00203381
0.00201164
0.00198977
0.00196819
0.0019469
0.0019259
0.00190519
0.00188476
0.00186461
0.00184474
0.00182515
0.00180582
0.00178676
0.00176797
0.00174943
0.00173115
0.00171311
0.00169533
0.00167779
0.00166048
0.00164342
0.00162658
0.00160997
0.00159359
0.00157742
0.00156147
0.00154573
0.00153019
0.00151486
0.00149972
0.00148477
0.00147
0.00145539
0.00144095
0.00142666
0.00141249
0.00139843
0.00138445
0.00137051
0.00135656
0.00134254
0.00132838
0.0013139
0.00129915
0.00128415
0.0012599
3.27982e-05
0.000144138
0.000275344
0.000409488
0.000539421
0.000642726
0.000719794
0.000781112
0.000836799
0.000894535
0.000961964
0.00105378
0.00116329
0.00128499
0.00140054
0.0015118
0.00161962
0.0017242
0.00182546
0.00192334
0.00201785
0.00210907
0.00219713
0.00228224
0.00236461
0.00244445
0.002522
0.00259747
0.00267104
0.00274289
0.00281315
0.00288196
0.0029494
0.00301553
0.00308039
0.00314401
0.00320639
0.00326751
0.00332733
0.00338583
0.00344296
0.00349865
0.00355285
0.00360551
0.00365654
0.00370589
0.0037535
0.00379929
0.00384321
0.0038852
0.00392521
0.00396318
0.00399906
0.00403282
0.00406441
0.00409381
0.00412099
0.00414592
0.00416859
0.004189
0.00420712
0.00422297
0.00423656
0.00424788
0.00425697
0.00426384
0.00426856
0.00427102
0.00427145
0.0042698
0.00426614
0.00426049
0.00425293
0.0042435
0.00423226
0.00421929
0.00420464
0.00418839
0.00417059
0.00415132
0.00413066
0.00410866
0.00408542
0.00406099
0.00403545
0.00400887
0.00398132
0.00395288
0.00392361
0.00389358
0.00386285
0.00383149
0.00379955
0.00376711
0.00373421
0.00370091
0.00366727
0.00363333
0.00359915
0.00356478
0.00353025
0.00349561
0.00346091
0.00342617
0.00339144
0.00335674
0.00332211
0.00328757
0.00325315
0.00321888
0.00318478
0.00315087
0.00311716
0.00308368
0.00305044
0.00301747
0.00298476
0.00295233
0.00292019
0.00288836
0.00285684
0.00282564
0.00279477
0.00276422
0.00273401
0.00270414
0.00267461
0.00264543
0.0026166
0.00258811
0.00255997
0.00253218
0.00250473
0.00247763
0.00245087
0.00242445
0.00239837
0.00237263
0.00234723
0.00232216
0.00229742
0.002273
0.00224891
0.00222515
0.0022017
0.00217856
0.00215573
0.00213321
0.00211098
0.00208905
0.00206742
0.00204607
0.002025
0.00200421
0.0019837
0.00196346
0.00194348
0.00192376
0.0019043
0.00188509
0.00186613
0.00184741
0.00182892
0.00181067
0.00179264
0.00177482
0.0017572
0.00173978
0.00172253
0.00170544
0.00168849
0.00167165
0.00165487
0.00163811
0.0016213
0.00160438
0.00158718
0.00156978
0.00155185
0.00152571
3.22407e-05
0.000141214
0.000268946
0.000398088
0.000521961
0.000634107
0.00072788
0.000808907
0.000891739
0.000986918
0.00109601
0.0012206
0.00135694
0.00148444
0.00160474
0.00171975
0.00183047
0.00193724
0.0020404
0.00214028
0.00223712
0.0023311
0.00242242
0.0025113
0.00259793
0.00268252
0.00276525
0.00284631
0.00292584
0.00300397
0.00308082
0.00315645
0.00323093
0.00330429
0.00337654
0.00344768
0.00351768
0.00358651
0.00365411
0.00372044
0.00378543
0.003849
0.00391109
0.00397161
0.0040305
0.00408766
0.00414302
0.00419651
0.00424806
0.0042976
0.00434505
0.00439037
0.00443349
0.00447436
0.00451294
0.00454919
0.00458307
0.00461455
0.00464361
0.00467024
0.00469442
0.00471614
0.00473542
0.00475225
0.00476666
0.00477865
0.00478825
0.00479549
0.00480042
0.00480298
0.00480337
0.00480156
0.00479759
0.00479153
0.00478342
0.00477334
0.00476134
0.00474749
0.00473185
0.00471449
0.00469548
0.00467489
0.0046528
0.00462927
0.00460439
0.00457821
0.00455083
0.0045223
0.0044927
0.00446211
0.00443058
0.0043982
0.00436502
0.00433111
0.00429654
0.00426137
0.00422566
0.00418947
0.00415287
0.00411589
0.0040786
0.00404106
0.0040033
0.00396538
0.00392734
0.00388921
0.00385105
0.00381289
0.00377476
0.00373669
0.00369872
0.00366088
0.00362319
0.00358567
0.00354836
0.00351126
0.00347441
0.00343781
0.00340149
0.00336545
0.00332972
0.0032943
0.00325921
0.00322445
0.00319003
0.00315596
0.00312224
0.00308888
0.00305589
0.00302326
0.00299101
0.00295912
0.00292761
0.00289647
0.00286569
0.00283529
0.00280526
0.00277559
0.00274629
0.00271736
0.00268879
0.00266058
0.00263273
0.00260523
0.00257809
0.00255129
0.00252483
0.00249871
0.00247293
0.00244748
0.00242235
0.00239755
0.00237307
0.00234889
0.00232503
0.00230147
0.00227821
0.00225525
0.00223257
0.00221018
0.00218807
0.00216624
0.00214467
0.00212337
0.00210232
0.00208152
0.00206095
0.00204061
0.00202047
0.00200052
0.00198073
0.00196107
0.0019415
0.00192198
0.00190243
0.00188277
0.00186289
0.00184283
0.00182208
0.00179376
3.08718e-05
0.000135128
0.000258146
0.000383446
0.00050541
0.000621476
0.000732093
0.000840986
0.000955732
0.00108148
0.00121948
0.00136917
0.00151146
0.00164344
0.0017677
0.00188612
0.00199985
0.0021095
0.00221547
0.00231796
0.00241737
0.00251409
0.0026084
0.00270057
0.00279081
0.00287935
0.00296635
0.00305197
0.00313635
0.0032196
0.00330179
0.00338299
0.00346324
0.00354254
0.00362088
0.00369825
0.00377461
0.00384989
0.00392403
0.00399696
0.00406861
0.00413888
0.00420769
0.00427494
0.00434056
0.00440443
0.00446649
0.00452663
0.00458478
0.00464086
0.0046948
0.00474652
0.00479595
0.00484305
0.00488776
0.00493002
0.00496981
0.00500709
0.00504182
0.00507399
0.00510359
0.0051306
0.00515502
0.00517685
0.00519612
0.00521282
0.00522699
0.00523864
0.00524781
0.00525453
0.00525885
0.00526079
0.00526045
0.00525784
0.00525302
0.00524605
0.005237
0.00522592
0.00521288
0.00519794
0.00518118
0.00516266
0.00514246
0.00512064
0.00509728
0.00507245
0.00504622
0.00501868
0.00498988
0.0049599
0.00492882
0.00489669
0.0048636
0.0048296
0.00479477
0.00475916
0.00472285
0.0046859
0.00464837
0.00461031
0.00457179
0.00453286
0.00449358
0.00445399
0.00441415
0.0043741
0.00433389
0.00429357
0.00425316
0.00421271
0.00417227
0.00413185
0.0040915
0.00405124
0.0040111
0.00397112
0.00393131
0.00389169
0.0038523
0.00381314
0.00377424
0.00373562
0.00369728
0.00365924
0.00362152
0.00358412
0.00354706
0.00351034
0.00347397
0.00343795
0.0034023
0.00336702
0.0033321
0.00329756
0.00326339
0.0032296
0.00319618
0.00316315
0.00313048
0.0030982
0.00306629
0.00303476
0.0030036
0.00297281
0.00294239
0.00291233
0.00288264
0.00285331
0.00282433
0.00279571
0.00276744
0.00273951
0.00271192
0.00268467
0.00265776
0.00263117
0.00260491
0.00257896
0.00255334
0.00252802
0.00250302
0.00247831
0.0024539
0.00242977
0.00240593
0.00238236
0.00235905
0.00233599
0.00231316
0.00229055
0.00226811
0.00224583
0.00222367
0.00220156
0.00217945
0.00215725
0.00213485
0.00211228
0.00208898
0.00205832
2.93204e-05
0.000128806
0.000248264
0.000372504
0.000497127
0.00062103
0.000745634
0.000874912
0.00101211
0.0011593
0.00131661
0.00147839
0.00162619
0.00176264
0.00189074
0.0020125
0.00212919
0.00224164
0.00235038
0.00245579
0.00255819
0.00265775
0.00275493
0.00285007
0.00294346
0.00303534
0.00312591
0.00321532
0.00330371
0.00339117
0.00347779
0.0035636
0.00364864
0.00373289
0.00381634
0.00389894
0.00398065
0.00406139
0.00414108
0.00421965
0.00429699
0.004373
0.00444758
0.00452064
0.00459206
0.00466175
0.00472961
0.00479553
0.00485944
0.00492123
0.00498082
0.00503814
0.00509312
0.00514569
0.00519579
0.00524337
0.00528839
0.0053308
0.00537058
0.00540769
0.00544213
0.00547388
0.00550293
0.00552929
0.00555296
0.00557396
0.00559231
0.00560803
0.00562116
0.00563171
0.00563974
0.00564528
0.00564839
0.00564911
0.00564751
0.00564363
0.00563754
0.00562929
0.00561895
0.00560659
0.00559226
0.00557605
0.00555801
0.00553823
0.00551678
0.00549371
0.00546912
0.00544307
0.00541564
0.00538689
0.00535689
0.00532572
0.00529344
0.00526012
0.00522583
0.00519064
0.00515461
0.0051178
0.00508028
0.00504211
0.00500335
0.00496406
0.00492428
0.00488409
0.00484352
0.00480263
0.00476147
0.00472008
0.0046785
0.00463678
0.00459496
0.00455308
0.00451116
0.00446926
0.00442739
0.00438559
0.00434389
0.00430232
0.00426089
0.00421964
0.00417859
0.00413775
0.00409714
0.00405679
0.0040167
0.0039769
0.00393739
0.00389818
0.0038593
0.00382074
0.00378251
0.00374463
0.0037071
0.00366992
0.00363309
0.00359663
0.00356054
0.00352481
0.00348945
0.00345446
0.00341984
0.00338559
0.00335172
0.00331822
0.00328509
0.00325233
0.00321994
0.00318791
0.00315624
0.00312494
0.003094
0.00306341
0.00303317
0.00300328
0.00297374
0.00294454
0.00291567
0.00288715
0.00285896
0.00283109
0.00280355
0.00277632
0.00274941
0.0027228
0.0026965
0.00267048
0.00264475
0.00261928
0.00259407
0.00256908
0.0025443
0.0025197
0.00249522
0.00247082
0.00244643
0.00242198
0.00239736
0.00237256
0.00234705
0.00231424
2.76261e-05
0.000122204
0.000238234
0.000361787
0.000489224
0.000619914
0.000756114
0.000899605
0.00105207
0.00121401
0.00138594
0.0015519
0.00170368
0.001844
0.0019756
0.00210048
0.00221998
0.00233504
0.00244631
0.00255429
0.00265937
0.00276185
0.002862
0.00296001
0.0030563
0.00315116
0.00324483
0.0033375
0.00342931
0.00352036
0.00361073
0.00370046
0.00378956
0.00387802
0.00396582
0.0040529
0.00413919
0.00422461
0.00430908
0.00439249
0.00447474
0.00455572
0.0046353
0.00471339
0.00478986
0.00486461
0.00493752
0.00500849
0.00507742
0.0051442
0.00520876
0.00527101
0.00533086
0.00538826
0.00544312
0.00549541
0.00554507
0.00559205
0.00563633
0.00567787
0.00571666
0.00575267
0.00578591
0.00581637
0.00584406
0.005869
0.00589119
0.00591067
0.00592746
0.0059416
0.00595311
0.00596205
0.00596845
0.00597237
0.00597386
0.00597299
0.00596983
0.00596439
0.00595677
0.00594702
0.00593521
0.00592141
0.00590569
0.00588811
0.00586876
0.0058477
0.005825
0.00580075
0.005775
0.00574783
0.0057193
0.0056895
0.00565849
0.00562633
0.00559309
0.00555884
0.00552364
0.00548757
0.00545067
0.00541303
0.00537468
0.00533571
0.00529615
0.00525606
0.00521551
0.00517453
0.00513318
0.00509151
0.00504956
0.00500738
0.004965
0.00492247
0.00487983
0.00483711
0.00479435
0.00475159
0.00470884
0.00466615
0.00462353
0.00458102
0.00453865
0.00449642
0.00445437
0.00441252
0.00437088
0.00432947
0.0042883
0.0042474
0.00420677
0.00416643
0.00412638
0.00408664