/*--------------------------------*- C++ -*----------------------------------*\
| =========                 |                                                 |
| \\      /  F ield         | OpenFOAM: The Open Source CFD Toolbox           |
|  \\    /   O peration     | Version:  v2012                                 |
|   \\  /    A nd           | Website:  www.openfoam.com                      |
|    \\/     M anipulation  |                                                 |
\*---------------------------------------------------------------------------*/
FoamFile
{
    version     2.0;
    format      ascii;
    class       volScalarField;
    location    "1300";
    object      nut;
}
// * * * * * * * * * * * * * * * * * * * * * * * * * * * * * * * * * * * * * //

dimensions      [0 2 -1 0 0 0 0];


internalField   nonuniform List<scalar> 
12225
(
0.0122671
0.00158819
0.000666128
0.000410104
0.00029404
0.000227808
0.000186419
0.000144346
0.000166362
0.00021571
0.000223841
0.000214199
0.00019517
0.000167531
0.000161396
0.000145524
0.000132313
0.000120118
0.0323823
0.00744532
0.00330638
0.00204329
0.00146802
0.0011443
0.000938662
0.000784867
0.000690383
0.000626895
0.00056955
0.000518716
0.000475213
0.000435566
0.000404972
0.000372247
0.000347113
0.000321087
0.0490123
0.01515
0.00728196
0.00457854
0.00330639
0.00258047
0.00211327
0.00178187
0.00154675
0.0013725
0.00123147
0.00111529
0.00101835
0.0009361
0.000866688
0.000804287
0.000753556
0.000700986
0.063054
0.0237783
0.0122894
0.00788815
0.00573397
0.00448497
0.00367441
0.00310419
0.00268716
0.00236996
0.0021179
0.00191315
0.00174401
0.00160221
0.00148242
0.0013786
0.00129106
0.00120451
0.074932
0.0328517
0.0181452
0.0119262
0.00874549
0.00686412
0.00563086
0.00476129
0.00411868
0.00362571
0.00323515
0.00291874
0.00265799
0.00244004
0.00225596
0.00209832
0.00196333
0.00183979
0.0849536
0.0420208
0.0246655
0.0166359
0.0123325
0.00972587
0.0079954
0.0067674
0.00585403
0.00515004
0.0045919
0.00413982
0.00376742
0.00345634
0.00319351
0.00296906
0.00277611
0.00260655
0.0933822
0.0510219
0.0316642
0.0219415
0.016474
0.0130717
0.0107779
0.00913539
0.00790598
0.00695436
0.00619832
0.00558531
0.00508009
0.00465801
0.00430136
0.00399701
0.00373533
0.00350912
0.0993794
0.0583363
0.0378386
0.0268568
0.0204171
0.0163053
0.0134892
0.011453
0.00991905
0.0087267
0.00777696
0.00700569
0.00636942
0.00583762
0.00538815
0.00500467
0.00467515
0.00439181
0.104023
0.0645454
0.0433804
0.0314239
0.0241571
0.0194092
0.0161097
0.0137018
0.0118767
0.0104523
0.00931473
0.00838939
0.00762524
0.00698615
0.00644585
0.0059849
0.00558898
0.00524915
0.108368
0.0708939
0.0493757
0.0365496
0.0284517
0.0230231
0.0191863
0.0163548
0.0141927
0.0124969
0.0111382
0.0100305
0.00911456
0.00834784
0.00769936
0.00714606
0.00667097
0.00626327
0.112368
0.0772557
0.0557282
0.0421918
0.0332976
0.0271652
0.0227468
0.0194433
0.0168984
0.0148904
0.013275
0.0119546
0.0108606
0.00994396
0.00916815
0.00850607
0.00793759
0.00744939
0.115994
0.0834975
0.0623054
0.0482612
0.0386474
0.0318167
0.026789
0.0229739
0.0200047
0.0176452
0.0157379
0.0141737
0.012875
0.0117851
0.010862
0.0100738
0.0093969
0.00881484
0.119234
0.0894856
0.0689377
0.0546109
0.0443919
0.0369007
0.0312597
0.0269089
0.0234837
0.02074
0.0185097
0.0166735
0.015145
0.0138601
0.0127705
0.0118397
0.0110398
0.010351
0.122086
0.095084
0.075415
0.0610223
0.0503361
0.0422535
0.0360231
0.0311353
0.0272402
0.0240931
0.0215191
0.0193909
0.0176141
0.0161175
0.0148467
0.0137601
0.0128258
0.0120198
0.124546
0.100135
0.0814619
0.0671726
0.056158
0.047577
0.0408126
0.0354174
0.031066
0.0275197
0.0246013
0.0221778
0.0201482
0.018435
0.0169783
0.0157315
0.0146584
0.0137312
0.126578
0.104396
0.0866605
0.0725515
0.0613228
0.0523526
0.0451453
0.0393148
0.0345631
0.0306611
0.0274325
0.024741
0.0224806
0.020569
0.0189413
0.0175468
0.0163455
0.0153062
0.128011
0.107322
0.0902141
0.0762353
0.0648743
0.0556509
0.0481493
0.0420254
0.0370012
0.0328553
0.0294126
0.0265352
0.0241143
0.0220643
0.0203171
0.0188191
0.0175275
0.0164083
0.128006
0.107313
0.0902048
0.0762269
0.0648674
0.0556454
0.048145
0.0420221
0.0369988
0.0328537
0.0294117
0.0265349
0.0241147
0.0220651
0.0203184
0.0188205
0.0175286
0.0164082
0.126509
0.104255
0.0864922
0.0723807
0.0611613
0.052205
0.0450128
0.0391967
0.0344584
0.0305685
0.0273506
0.0246684
0.0224163
0.0205118
0.0188902
0.0175006
0.0163023
0.015263
0.124267
0.0995604
0.0807712
0.0664676
0.0554886
0.0469631
0.0402594
0.0349227
0.0306248
0.0271258
0.0242487
0.0218611
0.0198625
0.0181762
0.0167425
0.0155151
0.0144574
0.0135404
0.12136
0.0936399
0.0737261
0.0593348
0.0487592
0.0408248
0.0347467
0.0300003
0.0262308
0.0231928
0.0207127
0.018665
0.0169572
0.0155197
0.0142998
0.0132566
0.0123582
0.0115797
0.117686
0.0865903
0.0656967
0.0514791
0.0415374
0.0343608
0.0290183
0.0249322
0.0217348
0.0191848
0.0171184
0.0154211
0.0140105
0.0128262
0.0118228
0.0109656
0.0102279
0.00958884
0.11305
0.0784122
0.056921
0.0432687
0.0342296
0.0279652
0.0234365
0.0200435
0.0174263
0.0153598
0.0136966
0.012337
0.0112107
0.0102671
0.00946863
0.00878715
0.00820095
0.00769338
0.107169
0.0691009
0.0476372
0.035029
0.0271566
0.021922
0.0182437
0.0155401
0.0134818
0.0118708
0.0105819
0.0095323
0.00866514
0.00793987
0.00732682
0.00680387
0.00635417
0.00596494
0.0996761
0.0587036
0.0381279
0.0270699
0.0205782
0.0164329
0.0135949
0.0115437
0.00999935
0.00879953
0.00784422
0.00706852
0.00642879
0.00589438
0.00544289
0.00505789
0.0047268
0.00444037
0.0901097
0.0473665
0.0287363
0.0196847
0.0146976
0.0116311
0.0095785
0.00811521
0.00702351
0.00618081
0.00551235
0.00497025
0.00452342
0.0041504
0.00383504
0.00356626
0.00333496
0.00313496
0.0779076
0.0353826
0.0198606
0.0131383
0.00966106
0.00759295
0.00623349
0.00527411
0.00456426
0.00402038
0.00359042
0.00324084
0.00295206
0.00271104
0.00250622
0.00233212
0.00218187
0.00205184
0.06238
0.0232554
0.0119461
0.00765493
0.00556337
0.00435254
0.0035672
0.00301616
0.00261332
0.00231036
0.00207204
0.00187474
0.00171012
0.00157288
0.00145357
0.00135318
0.00126572
0.00118899
0.0426105
0.0117794
0.0054693
0.00341385
0.00246071
0.00192004
0.00157266
0.00132942
0.0011583
0.00104122
0.000949578
0.000864976
0.000792136
0.000730001
0.00067194
0.000621865
0.000579563
0.000539716
0.0168348
0.00255984
0.00110002
0.000683429
0.000493725
0.000386811
0.000318009
0.000268389
0.00026749
0.000336012
0.000374796
0.00035357
0.00032192
0.000284669
0.0002654
0.000233385
0.000213968
0.000177793
5.28919e-10
1.01559e-07
1.14789e-06
5.16896e-06
9.86216e-06
1.28046e-05
1.31268e-05
1.11711e-05
8.84896e-06
5.76907e-06
3.39746e-06
1.93943e-06
1.35853e-06
1.47294e-06
2.01048e-06
2.48026e-06
2.41319e-06
1.63589e-06
7.31706e-07
3.7106e-07
4.11447e-07
1.22015e-06
5.51869e-06
2.83888e-05
5.71794e-05
7.50019e-05
9.13909e-05
0.000105186
0.000117326
0.00012744
0.000136299
0.000143912
0.000150573
0.000156375
0.000161437
0.000165907
0.000169868
0.000173407
0.00017658
0.000179431
0.000181989
0.000184277
0.000186312
0.00018811
0.000189687
0.000191054
0.000192223
0.000193198
0.00019398
0.000194563
0.000194825
0.000195074
0.000195123
0.000194995
0.000194695
0.000194248
0.000193648
0.000192901
0.000192006
0.000190966
0.000189784
0.000188462
0.000187001
0.000185404
0.000183675
0.000181814
0.000179823
0.000177704
0.000175461
0.000173095
0.000170608
0.000168002
0.00016528
0.000162442
0.000159491
0.000156427
0.000153251
0.000149964
0.000146565
0.000143053
0.000139424
0.000135675
0.000131798
0.000127788
0.000123633
0.000119326
0.000114854
0.000110204
0.000105357
0.000100291
9.49777e-05
8.93916e-05
8.35262e-05
7.74501e-05
7.1443e-05
6.61803e-05
6.24502e-05
6.01257e-05
5.8378e-05
5.67731e-05
5.51971e-05
5.36288e-05
5.20667e-05
5.05124e-05
4.89678e-05
4.7435e-05
4.59167e-05
4.4419e-05
4.29705e-05
4.17378e-05
4.05335e-05
3.93439e-05
3.81715e-05
3.70171e-05
3.58815e-05
3.47653e-05
3.36696e-05
3.2595e-05
3.1542e-05
3.05112e-05
2.95028e-05
2.85174e-05
2.75556e-05
2.66177e-05
2.57039e-05
2.48139e-05
2.39492e-05
2.31396e-05
2.24054e-05
2.16899e-05
2.09892e-05
2.03127e-05
1.96641e-05
1.90289e-05
1.84078e-05
1.78039e-05
1.7218e-05
1.66503e-05
1.61007e-05
1.55687e-05
1.5054e-05
1.45561e-05
1.40746e-05
1.3609e-05
1.3159e-05
1.27241e-05
1.23041e-05
1.18983e-05
1.15066e-05
1.11285e-05
1.07637e-05
1.04118e-05
1.00724e-05
9.74535e-06
9.43019e-06
9.12668e-06
8.83452e-06
8.55348e-06
8.28332e-06
8.02384e-06
7.77484e-06
7.53614e-06
7.30759e-06
7.08899e-06
6.88015e-06
6.68081e-06
6.49066e-06
6.30925e-06
6.13605e-06
5.97032e-06
5.81111e-06
5.65735e-06
5.50695e-06
5.35981e-06
5.20657e-06
5.06284e-06
4.85976e-06
4.71803e-06
4.30387e-06
3.68091e-06
3.34201e-09
6.03732e-06
6.15638e-05
0.000137852
0.000181892
0.000206007
0.000215531
0.000214032
0.000205556
0.000188728
0.000167819
0.000147711
0.000137589
0.000143061
0.000156901
0.000165313
0.000167428
0.000168297
0.000173772
0.000183533
0.00019976
0.000218061
0.000235162
0.000251138
0.000262453
0.000272239
0.000281085
0.000294262
0.000313156
0.00032706
0.000339735
0.000350621
0.000360523
0.000369578
0.000377453
0.000384645
0.000391345
0.000397775
0.000404066
0.000410282
0.000416417
0.000422429
0.000428265
0.000433883
0.000439257
0.000444369
0.000449205
0.000453751
0.00045801
0.000461988
0.000465693
0.000469147
0.000472339
0.00047528
0.00047797
0.000480411
0.000482603
0.000484547
0.000486244
0.000487694
0.000488897
0.000489855
0.000490571
0.000491047
0.000491294
0.000491319
0.000491114
0.000490676
0.000490023
0.000489156
0.000488084
0.000486811
0.000485345
0.000483693
0.000481861
0.000479858
0.00047769
0.000475366
0.000472892
0.000470276
0.000467527
0.00046465
0.000461655
0.000458548
0.000455338
0.000452033
0.000448642
0.000445172
0.000441634
0.000438034
0.00043438
0.000430676
0.000426922
0.000423111
0.000419223
0.000415231
0.00041112
0.000406919
0.000402678
0.000398421
0.000394156
0.000389887
0.000385617
0.00038135
0.000377088
0.000372837
0.000368597
0.000364372
0.000360162
0.000355963
0.000351788
0.00034764
0.000343521
0.000339434
0.00033538
0.00033136
0.000327376
0.000323429
0.000319522
0.000315655
0.000311828
0.000308044
0.000304302
0.000300604
0.000296951
0.000293343
0.000289779
0.000286258
0.000282779
0.000279345
0.000275954
0.000272615
0.000269329
0.000266079
0.000262864
0.00025969
0.00025656
0.000253476
0.000250436
0.000247441
0.000244491
0.000241583
0.000238719
0.000235897
0.000233117
0.000230379
0.00022768
0.000225023
0.000222404
0.000219826
0.000217286
0.000214786
0.000212324
0.000209901
0.000207516
0.000205171
0.000202864
0.000200598
0.000198372
0.000196188
0.000194048
0.000191952
0.000189903
0.000187903
0.000185953
0.000184055
0.00018221
0.000180418
0.000178679
0.000176992
0.000175351
0.000173756
0.000172185
0.000170672
0.00016908
0.000167737
0.000165693
0.000165099
0.000162029
0.000160566
7.63282e-08
3.98456e-05
0.000162905
0.000245622
0.000298887
0.000329081
0.000339968
0.000336952
0.000323957
0.000304613
0.000284912
0.000272512
0.00027056
0.000277535
0.000288079
0.000299122
0.000312187
0.000329352
0.000351002
0.000376361
0.00040379
0.000432005
0.000471284
0.000517462
0.000563059
0.000607136
0.000650194
0.000693841
0.000732904
0.000763979
0.000788814
0.000808509
0.000824125
0.000836521
0.000846476
0.000854761
0.000862074
0.000869055
0.000876237
0.000883971
0.000892362
0.000901285
0.0009105
0.000919772
0.000928925
0.000937838
0.000946437
0.000954674
0.000962513
0.000969925
0.000976884
0.00098337
0.00098937
0.000994883
0.000999906
0.00100444
0.00100848
0.00101202
0.00101508
0.00101764
0.0010197
0.00102128
0.00102236
0.0010229
0.00102306
0.00102277
0.00102198
0.00102074
0.00101905
0.00101693
0.00101439
0.00101144
0.00100811
0.00100439
0.00100031
0.000995875
0.000991107
0.000986019
0.000980625
0.00097494
0.000968979
0.000962758
0.000956292
0.000949594
0.000942682
0.000935569
0.00092827
0.0009208
0.000913173
0.000905401
0.000897497
0.000889473
0.000881336
0.000873097
0.000864761
0.00085634
0.000847846
0.000839295
0.000830702
0.000822082
0.000813445
0.0008048
0.000796155
0.000787517
0.000778894
0.000770292
0.000761719
0.00075318
0.00074468
0.000736226
0.000727822
0.000719475
0.000711188
0.000702967
0.000694813
0.000686732
0.000678725
0.000670796
0.000662948
0.000655182
0.000647501
0.000639907
0.000632401
0.000624985
0.000617661
0.000610428
0.000603288
0.000596241
0.000589287
0.000582428
0.000575663
0.000568994
0.000562418
0.000555928
0.000549525
0.00054321
0.000536987
0.000530855
0.000524814
0.000518865
0.000513005
0.000507235
0.000501552
0.000495957
0.000490448
0.000485023
0.000479682
0.000474424
0.000469246
0.000464149
0.000459132
0.000454192
0.00044933
0.000444543
0.000439831
0.000435192
0.000430627
0.000426132
0.000421708
0.000417352
0.000413064
0.000408842
0.000404685
0.000400589
0.000396552
0.000392572
0.000388644
0.000384763
0.000380922
0.000377112
0.000373321
0.000369536
0.000365729
0.000361891
0.000357922
0.000353917
0.000349384
0.000345135
0.000338573
0.000326865
6.16263e-07
8.21623e-05
0.00021302
0.000308839
0.000372271
0.000409351
0.000424637
0.000424852
0.000414755
0.000401428
0.000393595
0.000393027
0.000402625
0.00042012
0.000443111
0.000471097
0.000504659
0.000544068
0.00058849
0.000652289
0.00072639
0.000806345
0.000890221
0.000960484
0.00102265
0.00107855
0.00112876
0.00117347
0.00121255
0.00124628
0.0012754
0.00130064
0.00132268
0.00134217
0.00135967
0.00137567
0.00139058
0.00140473
0.00141839
0.00143174
0.0014449
0.00145795
0.00147091
0.00148376
0.00149645
0.00150891
0.00152104
0.00153274
0.00154392
0.00155451
0.00156446
0.00157374
0.00158231
0.00159017
0.0015973
0.0016037
0.00160938
0.00161431
0.00161851
0.00162197
0.00162469
0.00162667
0.00162782
0.00162826
0.00162813
0.00162722
0.00162559
0.00162326
0.00162027
0.00161661
0.00161231
0.00160739
0.00160186
0.00159576
0.0015891
0.00158191
0.0015742
0.001566
0.00155733
0.00154822
0.00153869
0.00152876
0.00151845
0.0015078
0.00149681
0.00148552
0.00147394
0.0014621
0.00145002
0.00143772
0.00142522
0.00141254
0.00139969
0.00138669
0.00137355
0.0013603
0.00134695
0.00133352
0.00132003
0.0013065
0.00129294
0.00127936
0.00126579
0.00125223
0.0012387
0.00122519
0.00121174
0.00119834
0.001185
0.00117173
0.00115854
0.00114544
0.00113244
0.00111953
0.00110673
0.00109405
0.00108148
0.00106903
0.0010567
0.00104451
0.00103244
0.00102051
0.00100872
0.000997065
0.000985553
0.000974183
0.000962956
0.000951874
0.000940937
0.000930146
0.000919502
0.000909004
0.000898648
0.000888432
0.000878354
0.000868415
0.000858617
0.00084896
0.000839444
0.000830067
0.00082083
0.000811731
0.000802768
0.000793939
0.000785243
0.000776679
0.000768243
0.000759936
0.000751754
0.000743696
0.00073576
0.000727945
0.000720249
0.000712669
0.000705205
0.000697854
0.000690614
0.000683483
0.00067646
0.000669541
0.000662726
0.00065601
0.000649392
0.000642868
0.000636433
0.000630083
0.000623811
0.000617611
0.000611472
0.000605382
0.000599325
0.000593279
0.000587215
0.000581097
0.000574852
0.000568454
0.000561624
0.000554624
0.000546166
0.000529913
1.39965e-06
0.000101869
0.000234936
0.000354667
0.00043329
0.000480507
0.000503938
0.00051234
0.000513973
0.000515198
0.000522451
0.000539025
0.000565494
0.000600865
0.000644373
0.000696058
0.000756727
0.000840631
0.00093671
0.00103246
0.00112122
0.00120539
0.00128446
0.00135691
0.00142345
0.00148466
0.00154094
0.00159264
0.0016401
0.00168375
0.00172408
0.00176156
0.00179663
0.00182966
0.00186095
0.00189076
0.00191928
0.00194665
0.00197296
0.00199827
0.00202262
0.00204601
0.00206845
0.00208991
0.00211037
0.00212979
0.00214816
0.00216543
0.00218158
0.0021966
0.00221047
0.0022232
0.00223479
0.00224526
0.00225462
0.00226291
0.00227012
0.00227628
0.00228141
0.00228551
0.0022886
0.00229065
0.00229156
0.00229165
0.00229077
0.00228889
0.00228606
0.00228228
0.00227759
0.00227201
0.00226556
0.00225827
0.00225017
0.00224129
0.00223166
0.0022213
0.00221025
0.00219855
0.00218621
0.00217328
0.00215978
0.00214575
0.00213121
0.0021162
0.00210075
0.00208488
0.00206863
0.00205203
0.00203511
0.00201789
0.00200041
0.00198268
0.00196474
0.0019466
0.00192829
0.00190983
0.00189125
0.00187257
0.00185381
0.001835
0.00181616
0.0017973
0.00177844
0.00175961
0.00174081
0.00172205
0.00170337
0.00168476
0.00166624
0.00164782
0.00162951
0.00161132
0.00159326
0.00157534
0.00155757
0.00153995
0.0015225
0.00150521
0.00148809
0.00147114
0.00145438
0.00143781
0.00142142
0.00140522
0.00138921
0.0013734
0.00135779
0.00134237
0.00132715
0.00131213
0.00129731
0.00128269
0.00126827
0.00125404
0.00124
0.00122615
0.0012125
0.00119904
0.00118576
0.00117268
0.00115979
0.00114709
0.00113457
0.00112224
0.00111008
0.00109811
0.00108631
0.00107468
0.00106323
0.00105194
0.00104082
0.00102986
0.00101907
0.00100843
0.000997951
0.000987623
0.000977446
0.000967416
0.000957531
0.000947788
0.000938184
0.000928715
0.000919378
0.000910167
0.000901078
0.000892105
0.00088324
0.000874473
0.000865794
0.000857187
0.000848633
0.000840108
0.000831576
0.000822995
0.000814295
0.000805415
0.00079615
0.000786537
0.000776369
0.000756594
2.32596e-06
0.000118228
0.000256264
0.000389878
0.000486693
0.000548394
0.000586144
0.000609633
0.000627568
0.000647206
0.000673749
0.000709786
0.000756017
0.00081271
0.000880412
0.000971334
0.00107674
0.00117839
0.00127749
0.00137275
0.00146323
0.001549
0.00163003
0.00170629
0.00177807
0.00184572
0.00190959
0.00197001
0.0020273
0.00208181
0.00213385
0.0021837
0.00223162
0.00227781
0.00232243
0.0023656
0.00240741
0.00244792
0.00248715
0.00252512
0.00256181
0.00259721
0.00263128
0.00266401
0.00269534
0.00272523
0.00275365
0.00278055
0.0028059
0.00282967
0.00285182
0.00287234
0.00289121
0.00290841
0.00292395
0.00293781
0.00295001
0.00296055
0.00296945
0.00297671
0.00298237
0.00298645
0.00298887
0.00298977
0.00298931
0.00298734
0.002984
0.00297929
0.00297329
0.00296603
0.00295758
0.00294799
0.0029373
0.00292557
0.00291285
0.00289918
0.00288462
0.0028692
0.00285297
0.00283598
0.00281826
0.00279986
0.00278083
0.00276119
0.002741
0.00272029
0.0026991
0.00267747
0.00265543
0.00263303
0.0026103
0.00258727
0.00256397
0.00254044
0.0025167
0.00249279
0.00246874
0.00244456
0.0024203
0.00239598
0.00237162
0.00234725
0.00232288
0.00229855
0.00227426
0.00225005
0.00222592
0.00220189
0.00217797
0.00215419
0.00213056
0.00210708
0.00208376
0.00206063
0.00203769
0.00201494
0.0019924
0.00197008
0.00194797
0.00192609
0.00190443
0.00188302
0.00186184
0.00184091
0.00182022
0.00179978
0.00177959
0.00175965
0.00173996
0.00172053
0.00170135
0.00168242
0.00166374
0.0016453
0.00162711
0.00160917
0.00159147
0.00157402
0.0015568
0.00153983
0.0015231
0.0015066
0.00149034
0.0014743
0.0014585
0.00144292
0.00142757
0.00141243
0.00139751
0.0013828
0.0013683
0.001354
0.00133991
0.00132602
0.00131232
0.00129882
0.0012855
0.00127237
0.00125943
0.00124666
0.00123406
0.00122164
0.00120938
0.00119729
0.00118534
0.00117355
0.00116189
0.00115036
0.00113895
0.00112764
0.00111641
0.00110522
0.00109405
0.00108285
0.00107155
0.00106009
0.00104827
0.00103611
0.00102383
0.00100138
2.79457e-06
0.000126788
0.000269172
0.000407474
0.000526055
0.000607451
0.000663624
0.000705731
0.00074302
0.000782731
0.000829883
0.000887378
0.000956942
0.0010497
0.00115699
0.00126362
0.00136969
0.00147294
0.00157286
0.00166903
0.00176124
0.00184949
0.00193388
0.00201457
0.00209181
0.00216587
0.00223702
0.00230553
0.00237167
0.00243565
0.00249769
0.00255798
0.00261665
0.00267382
0.00272958
0.00278398
0.00283705
0.00288882
0.00293926
0.00298837
0.00303612
0.00308246
0.00312735
0.00317074
0.00321258
0.00325282
0.0032914
0.00332828
0.00336339
0.0033967
0.00342817
0.00345774
0.00348539
0.00351109
0.00353482
0.00355654
0.00357625
0.00359393
0.00360958
0.00362321
0.00363481
0.00364439
0.00365197
0.00365759
0.00366124
0.00366286
0.00366278
0.00366079
0.00365701
0.0036515
0.00364429
0.00363545
0.00362503
0.0036131
0.00359972
0.00358495
0.00356886
0.00355151
0.00353298
0.00351333
0.00349263
0.00347094
0.00344833
0.00342487
0.00340062
0.00337564
0.00334999
0.00332374
0.00329693
0.00326962
0.00324187
0.00321371
0.00318521
0.00315639
0.00312731
0.003098
0.0030685
0.00303885
0.00300908
0.00297923
0.00294933
0.00291941
0.0028895
0.00285962
0.00282979
0.00280005
0.00277041
0.0027409
0.00271152
0.0026823
0.00265326
0.0026244
0.00259575
0.00256732
0.00253912
0.00251115
0.00248343
0.00245597
0.00242878
0.00240186
0.00237522
0.00234886
0.00232279
0.00229701
0.00227153
0.00224635
0.00222147
0.00219689
0.00217262
0.00214865
0.00212498
0.00210162
0.00207856
0.0020558
0.00203333
0.00201116
0.00198928
0.0019677
0.00194641
0.00192541
0.00190469
0.00188426
0.00186411
0.00184424
0.00182464
0.00180531
0.00178625
0.00176745
0.00174891
0.00173063
0.00171259
0.00169481
0.00167727
0.00165996
0.0016429
0.00162606
0.00160945
0.00159307
0.0015769
0.00156095
0.00154522
0.00152968
0.00151435
0.00149921
0.00148426
0.0014695
0.0014549
0.00144046
0.00142617
0.00141201
0.00139795
0.00138398
0.00137004
0.0013561
0.00134208
0.00132792
0.00131344
0.00129871
0.00128366
0.00125943
2.93962e-06
0.000128669
0.000270498
0.000406985
0.000537588
0.000641165
0.000718468
0.00078006
0.000836121
0.000894366
0.000962802
0.00105542
0.00116559
0.00128712
0.00140263
0.00151383
0.00162156
0.00172602
0.00182713
0.00192485
0.00201918
0.00211023
0.00219814
0.0022831
0.00236532
0.00244503
0.00252246
0.00259781
0.00267128
0.00274304
0.00281322
0.00288195
0.00294932
0.00301539
0.0030802
0.00314377
0.0032061
0.00326717
0.00332697
0.00338543
0.00344253
0.00349819
0.00355237
0.003605
0.00365602
0.00370536
0.00375295
0.00379873
0.00384264
0.00388462
0.00392462
0.00396258
0.00399846
0.00403222
0.00406381
0.0040932
0.00412038
0.00414531
0.00416798
0.00418838
0.00420651
0.00422236
0.00423595
0.00424728
0.00425636
0.00426324
0.00426796
0.00427041
0.00427085
0.0042692
0.00426554
0.00425989
0.00425233
0.0042429
0.00423167
0.0042187
0.00420405
0.00418779
0.00417
0.00415073
0.00413007
0.00410807
0.00408483
0.0040604
0.00403486
0.00400828
0.00398073
0.00395229
0.00392302
0.00389299
0.00386226
0.0038309
0.00379897
0.00376652
0.00373363
0.00370033
0.00366669
0.00363275
0.00359857
0.0035642
0.00352967
0.00349504
0.00346034
0.0034256
0.00339087
0.00335617
0.00332155
0.00328701
0.0032526
0.00321833
0.00318423
0.00315032
0.00311662
0.00308314
0.0030499
0.00301693
0.00298422
0.00295179
0.00291966
0.00288783
0.00285631
0.00282511
0.00279424
0.00276369
0.00273348
0.00270361
0.00267408
0.0026449
0.00261606
0.00258757
0.00255943
0.00253164
0.00250419
0.00247708
0.00245032
0.0024239
0.00239782
0.00237207
0.00234667
0.00232159
0.00229685
0.00227244
0.00224835
0.00222458
0.00220112
0.00217799
0.00215516
0.00213263
0.00211041
0.00208848
0.00206684
0.00204549
0.00202443
0.00200364
0.00198313
0.00196289
0.00194292
0.0019232
0.00190374
0.00188454
0.00186558
0.00184687
0.00182839
0.00181014
0.00179211
0.0017743
0.00175669
0.00173927
0.00172203
0.00170495
0.00168801
0.00167117
0.0016544
0.00163765
0.00162084
0.00160392
0.00158673
0.00156934
0.0015514
0.00152526
2.75544e-06
0.000125162
0.000263805
0.00039534
0.000519875
0.000632154
0.000726092
0.000807581
0.000891503
0.000987433
0.00109725
0.00122237
0.00135886
0.00148628
0.00160649
0.00172141
0.00183202
0.00193868
0.0020417
0.00214145
0.00223814
0.00233198
0.00242316
0.00251191
0.00259841
0.00268288
0.00276551
0.00284647
0.0029259
0.00300395
0.00308072
0.00315628
0.0032307
0.003304
0.00337619
0.00344728
0.00351724
0.00358602
0.00365359
0.00371989
0.00378484
0.00384839
0.00391045
0.00397095
0.00402982
0.00408696
0.00414231
0.00419579
0.00424732
0.00429685
0.0043443
0.00438961
0.00443272
0.00447359
0.00451217
0.00454841
0.00458229
0.00461377
0.00464283
0.00466945
0.00469363
0.00471536
0.00473464
0.00475147
0.00476588
0.00477787
0.00478747
0.00479471
0.00479964
0.00480221
0.0048026
0.00480078
0.00479682
0.00479076
0.00478266
0.00477258
0.00476058
0.00474672
0.00473109
0.00471373
0.00469472
0.00467413
0.00465204
0.00462852
0.00460363
0.00457746
0.00455008
0.00452155
0.00449196
0.00446136
0.00442984
0.00439745
0.00436428
0.00433037
0.00429581
0.00426064
0.00422493
0.00418875
0.00415214
0.00411517
0.00407789
0.00404034
0.00400259
0.00396467
0.00392663
0.00388852
0.00385036
0.0038122
0.00377407
0.00373601
0.00369805
0.00366021
0.00362252
0.00358501
0.0035477
0.00351061
0.00347376
0.00343717
0.00340085
0.00336481
0.00332908
0.00329367
0.00325857
0.00322381
0.00318939
0.00315532
0.00312161
0.00308825
0.00305526
0.00302263
0.00299037
0.00295849
0.00292697
0.00289583
0.00286505
0.00283465
0.00280461
0.00277495
0.00274565
0.00271671
0.00268814
0.00265993
0.00263208
0.00260458
0.00257744
0.00255064
0.00252418
0.00249806
0.00247228
0.00244683
0.00242171
0.00239691
0.00237243
0.00234826
0.0023244
0.00230084
0.00227759
0.00225463
0.00223196
0.00220957
0.00218747
0.00216565
0.00214409
0.00212279
0.00210175
0.00208096
0.0020604
0.00204006
0.00201993
0.00199999
0.00198021
0.00196056
0.001941
0.00192148
0.00190194
0.00188229
0.00186241
0.00184236
0.00182162
0.00179329
2.33917e-06
0.00011787
0.000252637
0.000380652
0.000503529
0.000620034
0.000731026
0.000840509
0.000955912
0.00108228
0.00122077
0.00137083
0.00151303
0.00164491
0.00176907
0.0018874
0.00200102
0.00211056
0.00221642
0.00231879
0.00241808
0.00251467
0.00260886
0.00270092
0.00279106
0.00287948
0.00296639
0.00305192
0.00313621
0.00321938
0.00330151
0.00338264
0.00346282
0.00354207
0.00362036
0.00369768
0.00377399
0.00384923
0.00392334
0.00399624
0.00406786
0.0041381
0.00420688
0.00427412
0.00433971
0.00440357
0.00446561
0.00452574
0.00458388
0.00463995
0.00469387
0.00474558
0.00479501
0.00484211
0.00488681
0.00492907
0.00496886
0.00500613
0.00504087
0.00507304
0.00510263
0.00512964
0.00515406
0.0051759
0.00519516
0.00521187
0.00522604
0.00523769
0.00524687
0.00525359
0.00525791
0.00525985
0.00525951
0.0052569
0.00525208
0.00524512
0.00523607
0.00522499
0.00521195
0.00519702
0.00518025
0.00516174
0.00514153
0.00511972
0.00509636
0.00507153
0.00504531
0.00501776
0.00498897
0.00495899
0.00492791
0.00489579
0.0048627
0.0048287
0.00479387
0.00475827
0.00472197
0.00468502
0.00464749
0.00460943
0.00457092
0.00453199
0.00449272
0.00445313
0.0044133
0.00437326
0.00433306
0.00429273
0.00425233
0.00421189
0.00417145
0.00413104
0.0040907
0.00405044
0.00401031
0.00397033
0.00393053
0.00389092
0.00385153
0.00381238
0.00377348
0.00373486
0.00369652
0.00365849
0.00362077
0.00358337
0.00354631
0.00350959
0.00347323
0.00343721
0.00340156
0.00336628
0.00333136
0.00329682
0.00326265
0.00322886
0.00319544
0.0031624
0.00312974
0.00309746
0.00306555
0.00303402
0.00300286
0.00297207
0.00294165
0.0029116
0.00288191
0.00285258
0.0028236
0.00279498
0.00276671
0.00273879
0.00271121
0.00268396
0.00265705
0.00263047
0.00260421
0.00257828
0.00255266
0.00252735
0.00250236
0.00247766
0.00245325
0.00242914
0.00240531
0.00238175
0.00235845
0.0023354
0.00231258
0.00228997
0.00226755
0.00224528
0.00222312
0.00220103
0.00217892
0.00215673
0.00213434
0.00211177
0.00208847
0.00205782
1.92458e-06
0.000110214
0.000242406
0.000369702
0.000495436
0.000619939
0.000745126
0.000874874
0.00101263
0.00116035
0.00131818
0.00147981
0.00162744
0.00176376
0.00189175
0.00201341
0.00213001
0.00224235
0.00235099
0.0024563
0.00255858
0.00265804
0.00275511
0.00285015
0.00294345
0.00303524
0.00312571
0.00321504
0.00330335
0.00339075
0.0034773
0.00356305
0.00364802
0.00373222
0.00381562
0.00389818
0.00397985
0.00406055
0.00414021
0.00421874
0.00429605
0.00437204
0.0044466
0.00451964
0.00459104
0.00466072
0.00472856
0.00479447
0.00485836
0.00492014
0.00497973
0.00503704
0.00509201
0.00514458
0.00519468
0.00524225
0.00528727
0.00532968
0.00536945
0.00540657
0.005441
0.00547275
0.00550181
0.00552817
0.00555184
0.00557284
0.0055912
0.00560692
0.00562004
0.0056306
0.00563863
0.00564417
0.00564729
0.00564801
0.00564641
0.00564253
0.00563644
0.0056282
0.00561786
0.00560549
0.00559117
0.00557496
0.00555693
0.00553715
0.00551569
0.00549264
0.00546805
0.005442
0.00541457
0.00538582
0.00535582
0.00532465
0.00529238
0.00525906
0.00522478
0.00518959
0.00515356
0.00511676
0.00507925
0.00504108
0.00500233
0.00496304
0.00492327
0.00488308
0.00484252
0.00480164
0.00476048
0.0047191
0.00467753
0.00463582
0.004594
0.00455213
0.00451022
0.00446832
0.00442647
0.00438467
0.00434298
0.00430141
0.00426
0.00421875
0.0041777
0.00413687
0.00409627
0.00405592
0.00401583
0.00397603
0.00393653
0.00389733
0.00385844
0.00381989
0.00378166
0.00374378
0.00370625
0.00366907
0.00363225
0.00359579
0.0035597
0.00352397
0.00348861
0.00345362
0.00341901
0.00338476
0.00335089
0.00331739
0.00328427
0.00325151
0.00321912
0.00318709
0.00315543
0.00312413
0.00309319
0.00306261
0.00303238
0.0030025
0.00297296
0.00294377
0.00291491
0.0028864
0.00285821
0.00283036
0.00280282
0.00277561
0.00274871
0.00272211
0.00269582
0.00266981
0.00264409
0.00261863
0.00259343
0.00256846
0.00254369
0.00251909
0.00249462
0.00247023
0.00244585
0.00242141
0.00239679
0.002372
0.0023465
0.00231369
1.53437e-06
0.000102066
0.00023195
0.000358928
0.000487636
0.00061902
0.000755737
0.000899707
0.0010526
0.00121493
0.00138721
0.00155299
0.00170461
0.00184478
0.00197628
0.00210106
0.00222046
0.00233542
0.00244659
0.00255448
0.00265946
0.00276185
0.0028619
0.00295982
0.00305602
0.0031508
0.00324439
0.00333699
0.00342872
0.00351971
0.00361002
0.00369969
0.00378874
0.00387715
0.00396491
0.00405194
0.0041382
0.00422359
0.00430802
0.00439141
0.00447363
0.00455458
0.00463414
0.00471221
0.00478867
0.0048634
0.00493629
0.00500725
0.00507617
0.00514295
0.0052075
0.00526974
0.00532959
0.00538698
0.00544184
0.00549413
0.00554378
0.00559076
0.00563504
0.00567658
0.00571537
0.00575138
0.00578462
0.00581509
0.00584278
0.00586772
0.00588992
0.0059094
0.00592619
0.00594032
0.00595184
0.00596078
0.00596719
0.00597111
0.00597261
0.00597174
0.00596857
0.00596314
0.00595552
0.00594577
0.00593397
0.00592017
0.00590445
0.00588687
0.00586752
0.00584647
0.00582377
0.00579952
0.00577377
0.00574661
0.00571809
0.00568829
0.00565728
0.00562512
0.00559189
0.00555764
0.00552245
0.00548638
0.00544949
0.00541185
0.00537351
0.00533454
0.00529499
0.00525491
0.00521437
0.0051734
0.00513206
0.00509039
0.00504845
0.00500627
0.00496391
0.00492139
0.00487875
0.00483605
0.0047933