/*--------------------------------*- C++ -*----------------------------------*\
| =========                 |                                                 |
| \\      /  F ield         | OpenFOAM: The Open Source CFD Toolbox           |
|  \\    /   O peration     | Version:  v2012                                 |
|   \\  /    A nd           | Website:  www.openfoam.com                      |
|    \\/     M anipulation  |                                                 |
\*---------------------------------------------------------------------------*/
FoamFile
{
    version     2.0;
    format      ascii;
    class       volScalarField;
    location    "1300";
    object      nuTilda;
}
// * * * * * * * * * * * * * * * * * * * * * * * * * * * * * * * * * * * * * //

dimensions      [0 2 -1 0 0 0 0];


internalField   nonuniform List<scalar> 
12225
(
0.0122671
0.00158833
0.000666932
0.0004122
0.000298016
0.000234159
0.000195367
0.000157556
0.000177084
0.0002227
0.000230392
0.000221275
0.000203463
0.000178138
0.000172626
0.000158583
0.000147169
0.000136881
0.0323823
0.00744532
0.00330641
0.00204337
0.00146819
0.00114457
0.000939068
0.000785446
0.000691131
0.000627802
0.000570647
0.000520036
0.000476782
0.000437429
0.00040712
0.000374777
0.000350011
0.000324452
0.0490123
0.01515
0.00728196
0.00457856
0.00330642
0.00258052
0.00211335
0.00178199
0.0015469
0.00137269
0.0012317
0.00111557
0.00101869
0.000936508
0.000867164
0.000804839
0.000754185
0.000701713
0.063054
0.0237783
0.0122894
0.00788815
0.00573398
0.00448498
0.00367443
0.00310422
0.00268721
0.00237002
0.00211798
0.00191325
0.00174412
0.00160235
0.00148258
0.00137878
0.00129127
0.00120476
0.074932
0.0328517
0.0181452
0.0119262
0.00874549
0.00686413
0.00563088
0.00476131
0.0041187
0.00362574
0.00323518
0.00291878
0.00265804
0.0024401
0.00225603
0.0020984
0.00196343
0.00183989
0.0849536
0.0420208
0.0246655
0.0166359
0.0123325
0.00972588
0.00799541
0.00676741
0.00585404
0.00515005
0.00459192
0.00413984
0.00376744
0.00345637
0.00319354
0.0029691
0.00277616
0.00260661
0.0933822
0.0510219
0.0316642
0.0219415
0.016474
0.0130717
0.0107779
0.00913539
0.00790598
0.00695436
0.00619833
0.00558532
0.0050801
0.00465802
0.00430138
0.00399703
0.00373536
0.00350915
0.0993794
0.0583363
0.0378386
0.0268568
0.0204171
0.0163053
0.0134892
0.011453
0.00991905
0.00872671
0.00777697
0.00700569
0.00636943
0.00583763
0.00538816
0.00500469
0.00467516
0.00439183
0.104023
0.0645454
0.0433804
0.0314239
0.0241571
0.0194092
0.0161097
0.0137018
0.0118767
0.0104523
0.00931473
0.0083894
0.00762524
0.00698615
0.00644586
0.00598491
0.00558899
0.00524917
0.108368
0.0708939
0.0493757
0.0365496
0.0284517
0.0230231
0.0191863
0.0163548
0.0141927
0.0124969
0.0111382
0.0100305
0.00911456
0.00834784
0.00769937
0.00714607
0.00667098
0.00626328
0.112368
0.0772557
0.0557282
0.0421918
0.0332976
0.0271652
0.0227468
0.0194433
0.0168984
0.0148904
0.013275
0.0119546
0.0108606
0.00994396
0.00916816
0.00850607
0.00793759
0.0074494
0.115994
0.0834975
0.0623054
0.0482612
0.0386474
0.0318167
0.026789
0.0229739
0.0200047
0.0176452
0.0157379
0.0141737
0.012875
0.0117851
0.010862
0.0100738
0.0093969
0.00881485
0.119234
0.0894856
0.0689377
0.0546109
0.0443919
0.0369007
0.0312597
0.0269089
0.0234837
0.02074
0.0185097
0.0166735
0.015145
0.0138601
0.0127705
0.0118397
0.0110398
0.010351
0.122086
0.095084
0.075415
0.0610223
0.0503361
0.0422535
0.0360231
0.0311353
0.0272402
0.0240931
0.0215191
0.0193909
0.0176141
0.0161175
0.0148467
0.0137601
0.0128258
0.0120198
0.124546
0.100135
0.0814619
0.0671726
0.056158
0.047577
0.0408126
0.0354174
0.031066
0.0275197
0.0246013
0.0221778
0.0201482
0.018435
0.0169783
0.0157315
0.0146584
0.0137312
0.126578
0.104396
0.0866605
0.0725515
0.0613228
0.0523526
0.0451453
0.0393148
0.0345631
0.0306611
0.0274325
0.024741
0.0224806
0.020569
0.0189413
0.0175468
0.0163455
0.0153062
0.128011
0.107322
0.0902141
0.0762353
0.0648743
0.0556509
0.0481493
0.0420254
0.0370012
0.0328553
0.0294126
0.0265352
0.0241143
0.0220643
0.0203171
0.0188191
0.0175275
0.0164083
0.128006
0.107313
0.0902048
0.0762269
0.0648674
0.0556454
0.048145
0.0420221
0.0369988
0.0328537
0.0294117
0.0265349
0.0241147
0.0220651
0.0203184
0.0188205
0.0175286
0.0164082
0.126509
0.104255
0.0864922
0.0723807
0.0611613
0.052205
0.0450128
0.0391967
0.0344584
0.0305685
0.0273506
0.0246684
0.0224163
0.0205118
0.0188902
0.0175006
0.0163023
0.015263
0.124267
0.0995604
0.0807712
0.0664676
0.0554886
0.0469631
0.0402594
0.0349227
0.0306248
0.0271258
0.0242487
0.0218611
0.0198625
0.0181762
0.0167425
0.0155151
0.0144574
0.0135404
0.12136
0.0936399
0.0737261
0.0593348
0.0487592
0.0408248
0.0347467
0.0300003
0.0262308
0.0231928
0.0207127
0.018665
0.0169572
0.0155197
0.0142998
0.0132566
0.0123582
0.0115797
0.117686
0.0865903
0.0656967
0.0514791
0.0415374
0.0343608
0.0290183
0.0249322
0.0217348
0.0191848
0.0171184
0.0154211
0.0140105
0.0128262
0.0118228
0.0109656
0.0102279
0.00958885
0.11305
0.0784122
0.056921
0.0432687
0.0342296
0.0279652
0.0234365
0.0200435
0.0174263
0.0153598
0.0136966
0.012337
0.0112107
0.0102671
0.00946864
0.00878715
0.00820096
0.00769339
0.107169
0.0691009
0.0476372
0.035029
0.0271566
0.021922
0.0182437
0.0155401
0.0134818
0.0118708
0.0105819
0.0095323
0.00866514
0.00793987
0.00732683
0.00680388
0.00635418
0.00596495
0.0996761
0.0587036
0.0381279
0.0270699
0.0205782
0.0164329
0.0135949
0.0115438
0.00999935
0.00879953
0.00784422
0.00706853
0.0064288
0.00589439
0.0054429
0.0050579
0.00472682
0.00444039
0.0901097
0.0473665
0.0287363
0.0196847
0.0146976
0.0116311
0.00957851
0.00811521
0.00702352
0.00618082
0.00551236
0.00497026
0.00452344
0.00415042
0.00383507
0.00356629
0.003335
0.00313499
0.0779076
0.0353826
0.0198606
0.0131383
0.00966106
0.00759296
0.0062335
0.00527412
0.00456427
0.0040204
0.00359045
0.00324087
0.0029521
0.00271109
0.00250628
0.00233219
0.00218194
0.00205192
0.06238
0.0232554
0.0119461
0.00765493
0.00556338
0.00435256
0.00356723
0.0030162
0.00261337
0.00231042
0.00207212
0.00187484
0.00171025
0.00157303
0.00145374
0.00135338
0.00126595
0.00118924
0.0426105
0.0117794
0.00546931
0.00341388
0.00246076
0.00192014
0.0015728
0.00132962
0.00115856
0.00104155
0.000949974
0.000865454
0.000792705
0.000730671
0.00067273
0.000622786
0.000580623
0.000540936
0.0168348
0.0025599
0.00110031
0.000684193
0.00049518
0.00038916
0.000321437
0.000273105
0.000272235
0.000339096
0.000377294
0.000356366
0.000325268
0.000288895
0.000270214
0.000239468
0.000221057
0.000187454
3.70942e-06
1.38332e-05
2.56093e-05
3.82437e-05
4.60375e-05
4.98345e-05
5.02202e-05
4.7794e-05
4.45849e-05
3.9436e-05
3.40903e-05
2.93617e-05
2.67528e-05
2.73217e-05
2.96411e-05
3.13344e-05
3.11071e-05
2.80802e-05
2.2807e-05
1.91834e-05
1.96931e-05
2.60173e-05
3.89486e-05
6.51433e-05
8.76114e-05
0.000101032
0.000113665
0.000124633
0.000134561
0.000143029
0.000150585
0.000157177
0.000163014
0.000168147
0.000172662
0.000176674
0.00018025
0.000183459
0.000186347
0.000188951
0.000191294
0.000193395
0.000195268
0.000196926
0.000198383
0.000199647
0.000200729
0.000201633
0.000202358
0.000202899
0.000203143
0.000203375
0.000203419
0.000203301
0.000203023
0.000202608
0.000202051
0.000201357
0.000200528
0.000199566
0.000198473
0.000197251
0.000195903
0.000194432
0.000192842
0.000191134
0.00018931
0.000187373
0.000185327
0.000183175
0.000180919
0.000178563
0.00017611
0.000173562
0.000170922
0.000168193
0.000165378
0.000162477
0.000159494
0.000156428
0.00015328
0.000150049
0.000146731
0.000143323
0.000139821
0.000136222
0.000132518
0.000128705
0.000124771
0.000120703
0.000116485
0.000112102
0.000107554
0.000102895
9.83346e-05
9.4367e-05
9.15653e-05
8.98214e-05
8.85107e-05
8.73066e-05
8.61234e-05
8.49447e-05
8.37688e-05
8.25964e-05
8.14285e-05
8.02658e-05
7.911e-05
7.79651e-05
7.68526e-05
7.59011e-05
7.49669e-05
7.40391e-05
7.31193e-05
7.22077e-05
7.13048e-05
7.04108e-05
6.95262e-05
6.86512e-05
6.77863e-05
6.69314e-05
6.60869e-05
6.52529e-05
6.44299e-05
6.3618e-05
6.28174e-05
6.2028e-05
6.12509e-05
6.05137e-05
5.98364e-05
5.91678e-05
5.85043e-05
5.78549e-05
5.72237e-05
5.65966e-05
5.59746e-05
5.53606e-05
5.47557e-05
5.41605e-05
5.3575e-05
5.2999e-05
5.24326e-05
5.18754e-05
5.13275e-05
5.07885e-05
5.02585e-05
4.97373e-05
4.92248e-05
4.87209e-05
4.82256e-05
4.77386e-05
4.72601e-05
4.679e-05
4.63281e-05
4.58745e-05
4.54292e-05
4.49922e-05
4.45635e-05
4.41433e-05
4.37316e-05
4.33286e-05
4.29346e-05
4.25497e-05
4.21742e-05
4.18083e-05
4.14523e-05
4.11063e-05
4.07702e-05
4.04439e-05
4.01268e-05
3.98181e-05
3.95165e-05
3.92202e-05
3.89254e-05
3.8632e-05
3.8321e-05
3.80239e-05
3.75947e-05
3.72882e-05
3.6357e-05
3.48383e-05
5.88176e-06
3.99436e-05
9.09002e-05
0.000151923
0.000191205
0.000213575
0.000222531
0.000221118
0.000213153
0.000197497
0.000178398
0.000160498
0.000151696
0.000156435
0.000168615
0.00017614
0.000178046
0.000178829
0.00018379
0.000192711
0.000207735
0.00022492
0.000241163
0.000256467
0.000267368
0.000276832
0.000285412
0.000298233
0.000316685
0.000330309
0.000342755
0.000353462
0.000363216
0.000372145
0.000379917
0.000387019
0.000393641
0.0004
0.000406224
0.000412376
0.000418451
0.000424407
0.00043019
0.00043576
0.000441089
0.00044616
0.000450958
0.00045547
0.000459698
0.000463647
0.000467326
0.000470757
0.000473928
0.000476849
0.000479521
0.000481947
0.000484125
0.000486057
0.000487744
0.000489185
0.000490381
0.000491334
0.000492045
0.000492518
0.000492764
0.000492788
0.000492584
0.00049215
0.0004915
0.000490639
0.000489572
0.000488307
0.00048685
0.000485208
0.000483388
0.000481398
0.000479244
0.000476934
0.000474476
0.000471878
0.000469147
0.000466291
0.000463316
0.000460232
0.000457045
0.000453765
0.000450399
0.000446957
0.000443447
0.000439876
0.000436253
0.00043258
0.00042886
0.000425083
0.00042123
0.000417276
0.000413206
0.000409047
0.00040485
0.000400639
0.000396421
0.0003922
0.00038798
0.000383765
0.000379557
0.00037536
0.000371177
0.00036701
0.00036286
0.000358723
0.000354611
0.000350529
0.000346477
0.000342459
0.000338475
0.000334527
0.000330618
0.000326748
0.000322918
0.000319131
0.000315386
0.000311685
0.000308028
0.000304418
0.000300854
0.000297337
0.000293866
0.00029044
0.000287057
0.000283722
0.000280432
0.000277196
0.000274015
0.00027087
0.000267764
0.000264701
0.000261685
0.000258715
0.000255792
0.000252916
0.000250085
0.0002473
0.000244561
0.000241865
0.000239213
0.000236604
0.000234037
0.000231513
0.00022903
0.000226589
0.000224188
0.000221828
0.000219509
0.00021723
0.000214991
0.000212792
0.000210634
0.000208517
0.000206442
0.00020441
0.000202421
0.000200479
0.000198583
0.000196735
0.000194937
0.000193191
0.000191496
0.000189854
0.000188264
0.000186723
0.000185227
0.000183775
0.000182349
0.000180977
0.000179537
0.000178324
0.000176482
0.000175948
0.000173192
0.000171883
1.28754e-05
7.4431e-05
0.000173978
0.00025117
0.000302743
0.000332291
0.000342984
0.00034002
0.000327265
0.000308332
0.000289131
0.000277096
0.000275206
0.000281966
0.000292211
0.000302971
0.000315737
0.000332557
0.000353838
0.000378839
0.00040595
0.000433897
0.000472879
0.000518788
0.000564181
0.000608103
0.000651038
0.000694582
0.000733569
0.00076459
0.000789388
0.000809055
0.000824651
0.000837032
0.000846975
0.00085525
0.000862555
0.000869528
0.000876702
0.000884429
0.000892811
0.000901725
0.000910931
0.000920195
0.000929339
0.000938245
0.000946836
0.000955067
0.000962898
0.000970305
0.000977259
0.000983739
0.000989736
0.000995244
0.00100026
0.00100479
0.00100883
0.00101237
0.00101542
0.00101798
0.00102005
0.00102162
0.0010227
0.00102325
0.0010234
0.00102312
0.00102232
0.00102108
0.00101939
0.00101727
0.00101474
0.00101179
0.00100846
0.00100474
0.00100066
0.000996235
0.000991471
0.000986386
0.000980996
0.000975316
0.00096936
0.000963144
0.000956682
0.000949991
0.000943084
0.000935977
0.000928685
0.000921222
0.000913601
0.000905837
0.000897941
0.000889924
0.000881797
0.000873565
0.000865239
0.000856827
0.000848343
0.000839802
0.00083122
0.000822611
0.000813985
0.000805351
0.000796718
0.000788093
0.000779482
0.000770894
0.000762334
0.000753809
0.000745324
0.000736884
0.000728496
0.000720164
0.000711894
0.000703689
0.000695552
0.000687488
0.000679499
0.000671589
0.000663759
0.000656013
0.000648351
0.000640777
0.000633292
0.000625897
0.000618595
0.000611384
0.000604267
0.000597243
0.000590312
0.000583477
0.000576737
0.000570093
0.000563542
0.000557079
0.000550702
0.000544415
0.00053822
0.000532116
0.000526104
0.000520184
0.000514354
0.000508614
0.000502963
0.0004974
0.000491922
0.000486531
0.000481223
0.000475998
0.000470855
0.000465793
0.000460811
0.000455908
0.000451082
0.000446332
0.000441658
0.000437058
0.000432531
0.000428076
0.000423692
0.000419378
0.000415131
0.000410951
0.000406836
0.000402783
0.00039879
0.000394855
0.000390972
0.000387136
0.000383342
0.00037958
0.000375838
0.000372103
0.000368349
0.000364564
0.000360653
0.000356708
0.000352245
0.000348064
0.000341613
0.000330117
2.1827e-05
0.000106504
0.000220165
0.000312463
0.000374802
0.000411454
0.000426594
0.000426808
0.000416805
0.000403613
0.000395865
0.000395304
0.000404798
0.000422119
0.000444912
0.000472693
0.000506052
0.000545269
0.000589518
0.000653127
0.000727066
0.000806894
0.000890672
0.000960872
0.00102299
0.00107886
0.00112904
0.00117373
0.0012128
0.00124651
0.00127562
0.00130085
0.00132289
0.00134237
0.00135986
0.00137586
0.00139076
0.00140491
0.00141857
0.00143191
0.00144507
0.00145812
0.00147107
0.00148392
0.00149661
0.00150907
0.00152119
0.00153289
0.00154407
0.00155466
0.00156461
0.00157388
0.00158245
0.00159031
0.00159744
0.00160384
0.00160951
0.00161445
0.00161865
0.00162211
0.00162483
0.0016268
0.00162796
0.00162839
0.00162826
0.00162735
0.00162572
0.0016234
0.0016204
0.00161674
0.00161244
0.00160752
0.001602
0.0015959
0.00158924
0.00158205
0.00157434
0.00156614
0.00155748
0.00154837
0.00153884
0.00152891
0.00151861
0.00150796
0.00149697
0.00148568
0.00147411
0.00146227
0.00145019
0.0014379
0.0014254
0.00141272
0.00139987
0.00138688
0.00137374
0.0013605
0.00134715
0.00133372
0.00132024
0.00130671
0.00129315
0.00127958
0.00126602
0.00125246
0.00123893
0.00122543
0.00121198
0.00119858
0.00118525
0.00117199
0.00115881
0.00114571
0.00113271
0.00111982
0.00110702
0.00109434
0.00108178
0.00106934
0.00105702
0.00104483
0.00103278
0.00102085
0.00100907
0.000997425
0.000985921
0.000974559
0.000963341
0.000952268
0.00094134
0.000930559
0.000919925
0.000909436
0.000899091
0.000888885
0.000878817
0.000868889
0.000859102
0.000849455
0.000839951
0.000830586
0.00082136
0.000812273
0.000803322
0.000794506
0.000785823
0.000777271
0.000768848
0.000760554
0.000752385
0.000744341
0.000736419
0.000728619
0.000720937
0.000713372
0.000705922
0.000698586
0.000691362
0.000684247
0.000677239
0.000670337
0.000663538
0.000656839
0.000650238
0.00064373
0.000637313
0.000630981
0.000624727
0.000618545
0.000612425
0.000606354
0.000600316
0.000594291
0.000588247
0.000582151
0.000575929
0.000569556
0.000562752
0.000555781
0.000547358
0.000531179
2.6961e-05
0.000121965
0.000240947
0.000357446
0.000435172
0.000482042
0.000505336
0.000513693
0.000515317
0.000516536
0.000523753
0.000540249
0.000566607
0.000601851
0.000645231
0.000696795
0.000757351
0.000841137
0.000937117
0.00103279
0.00112151
0.00120563
0.00128468
0.0013571
0.00142362
0.00148482
0.0015411
0.00159278
0.00164023
0.00168387
0.0017242
0.00176168
0.00179674
0.00182977
0.00186106
0.00189086
0.00191938
0.00194674
0.00197305
0.00199836
0.00202271
0.0020461
0.00206853
0.00208999
0.00211045
0.00212987
0.00214824
0.00216551
0.00218166
0.00219668
0.00221054
0.00222327
0.00223486
0.00224533
0.00225469
0.00226298
0.00227019
0.00227635
0.00228148
0.00228558
0.00228867
0.00229072
0.00229163
0.00229172
0.00229084
0.00228896
0.00228613
0.00228235
0.00227766
0.00227208
0.00226563
0.00225834
0.00225024
0.00224136
0.00223173
0.00222137
0.00221033
0.00219862
0.00218629
0.00217336
0.00215986
0.00214583
0.00213129
0.00211628
0.00210083
0.00208496
0.00206872
0.00205212
0.0020352
0.00201798
0.0020005
0.00198277
0.00196483
0.00194669
0.00192839
0.00190993
0.00189135
0.00187267
0.00185392
0.00183511
0.00181627
0.00179741
0.00177856
0.00175972
0.00174092
0.00172218
0.00170349
0.00168488
0.00166637
0.00164795
0.00162964
0.00161146
0.0015934
0.00157549
0.00155772
0.0015401
0.00152265
0.00150536
0.00148825
0.00147131
0.00145455
0.00143798
0.00142159
0.0014054
0.0013894
0.00137359
0.00135798
0.00134257
0.00132735
0.00131234
0.00129753
0.00128291
0.00126849
0.00125427
0.00124023
0.00122639
0.00121274
0.00119928
0.00118602
0.00117294
0.00116006
0.00114736
0.00113485
0.00112252
0.00111037
0.0010984
0.00108661
0.00107499
0.00106354
0.00105226
0.00104115
0.0010302
0.00101941
0.00100878
0.00099831
0.00098799
0.00097782
0.000967798
0.000957921
0.000948186
0.00093859
0.00092913
0.000919801
0.000910599
0.000901519
0.000892554
0.000883698
0.000874941
0.000866271
0.000857674
0.00084913
0.000840614
0.000832093
0.000823523
0.000814834
0.000805966
0.000796714
0.000787114
0.000776962
0.000757218
3.08048e-05
0.000135309
0.000261399
0.000392191
0.00048819
0.000549576
0.00058718
0.000610591
0.000628473
0.000648057
0.000674535
0.000710494
0.000756641
0.000813251
0.000880873
0.000971713
0.00107705
0.00117865
0.00127771
0.00137294
0.00146339
0.00154915
0.00163017
0.00170641
0.00177818
0.00184583
0.00190969
0.0019701
0.00202739
0.00208189
0.00213393
0.00218377
0.00223169
0.00227788
0.00232249
0.00236567
0.00240748
0.00244798
0.00248721
0.00252517
0.00256186
0.00259726
0.00263134
0.00266406
0.00269539
0.00272528
0.0027537
0.0027806
0.00280595
0.00282972
0.00285187
0.00287238
0.00289125
0.00290845
0.00292399
0.00293785
0.00295005
0.00296059
0.00296949
0.00297675
0.00298241
0.00298649
0.00298891
0.00298981
0.00298935
0.00298738
0.00298404
0.00297933
0.00297333
0.00296607
0.00295762
0.00294803
0.00293734
0.00292561
0.00291289
0.00289922
0.00288466
0.00286924
0.00285301
0.00283602
0.00281831
0.00279991
0.00278088
0.00276124
0.00274105
0.00272034
0.00269915
0.00267752
0.00265549
0.00263308
0.00261035
0.00258732
0.00256403
0.0025405
0.00251676
0.00249285
0.0024688
0.00244462
0.00242036
0.00239604
0.00237168
0.00234731
0.00232295
0.00229861
0.00227433
0.00225012
0.00222599
0.00220196
0.00217805
0.00215427
0.00213063
0.00210716
0.00208385
0.00206072
0.00203777
0.00201503
0.00199249
0.00197017
0.00194806
0.00192618
0.00190453
0.00188312
0.00186195
0.00184101
0.00182033
0.00179989
0.0017797
0.00175977
0.00174008
0.00172065
0.00170147
0.00168254
0.00166387
0.00164544
0.00162725
0.00160931
0.00159161
0.00157416
0.00155695
0.00153998
0.00152325
0.00150676
0.0014905
0.00147447
0.00145867
0.00144309
0.00142774
0.00141261
0.00139769
0.00138298
0.00136849
0.0013542
0.00134011
0.00132622
0.00131253
0.00129903
0.00128572
0.00127259
0.00125965
0.00124689
0.0012343
0.00122188
0.00120963
0.00119753
0.0011856
0.00117381
0.00116216
0.00115063
0.00113923
0.00112792
0.00111669
0.00110551
0.00109435
0.00108316
0.00107187
0.0010604
0.00104859
0.00103645
0.00102417
0.00100174
3.23469e-05
0.000142478
0.000273862
0.000409597
0.000527339
0.000608417
0.000664434
0.000706448
0.000743667
0.000783314
0.000830402
0.000887832
0.000957332
0.00105002
0.00115726
0.00126385
0.00136988
0.00147311
0.001573
0.00166916
0.00176136
0.0018496
0.00193398
0.00201466
0.00209189
0.00216594
0.00223709
0.0023056
0.00237173
0.00243571
0.00249775
0.00255803
0.0026167
0.00267387
0.00272962
0.00278402
0.0028371
0.00288886
0.0029393
0.00298841
0.00303616
0.00308249
0.00312738
0.00317077
0.00321261
0.00325285
0.00329143
0.00332831
0.00336342
0.00339673
0.0034282
0.00345777
0.00348542
0.00351112
0.00353484
0.00355657
0.00357627
0.00359396
0.00360961
0.00362324
0.00363483
0.00364442
0.003652
0.00365762
0.00366127
0.00366289
0.0036628
0.00366082
0.00365704
0.00365152
0.00364432
0.00363548
0.00362506
0.00361313
0.00359975
0.00358498
0.00356889
0.00355154
0.00353301
0.00351336
0.00349266
0.00347097
0.00344836
0.0034249
0.00340065
0.00337567
0.00335003
0.00332377
0.00329696
0.00326966
0.0032419
0.00321375
0.00318524
0.00315643
0.00312734
0.00309803
0.00306853
0.00303889
0.00300912
0.00297927
0.00294937
0.00291945
0.00288954
0.00285966
0.00282984
0.0028001
0.00277046
0.00274094
0.00271157
0.00268235
0.00265331
0.00262446
0.00259581
0.00256737
0.00253917
0.00251121
0.00248349
0.00245603
0.00242884
0.00240192
0.00237528
0.00234892
0.00232286
0.00229708
0.0022716
0.00224642
0.00222154
0.00219697
0.0021727
0.00214873
0.00212506
0.0021017
0.00207864
0.00205588
0.00203342
0.00201125
0.00198938
0.00196779
0.0019465
0.0019255
0.00190479
0.00188436
0.00186422
0.00184434
0.00182475
0.00180542
0.00178636
0.00176757
0.00174903
0.00173075
0.00171272
0.00169493
0.00167739
0.00166009
0.00164303
0.0016262
0.00160959
0.00159321
0.00157705
0.0015611
0.00154536
0.00152984
0.00151451
0.00149937
0.00148443
0.00146966
0.00145507
0.00144064
0.00142635
0.00141219
0.00139814
0.00138416
0.00137023
0.00135629
0.00134228
0.00132812
0.00131365
0.00129893
0.00128388
0.00125966
3.2788e-05
0.000144069
0.000275146
0.000409113
0.000538818
0.000642032
0.000719159
0.000780647
0.000836632
0.000894812
0.000963188
0.00105574
0.00116585
0.00128733
0.00140281
0.00151398
0.0016217
0.00172614
0.00182723
0.00192494
0.00201927
0.00211031
0.00219821
0.00228317
0.00236538
0.00244509
0.00252251
0.00259786
0.00267133
0.00274309
0.00281327
0.002882
0.00294936
0.00301543
0.00308024
0.00314381
0.00320613
0.00326721
0.003327
0.00338546
0.00344256
0.00349822
0.0035524
0.00360503
0.00365605
0.00370538
0.00375297
0.00379875
0.00384266
0.00388465
0.00392464
0.0039626
0.00399848
0.00403224
0.00406383
0.00409323
0.0041204
0.00414533
0.004168
0.0041884
0.00420653
0.00422238
0.00423597
0.0042473
0.00425638
0.00426325
0.00426798
0.00427043
0.00427087
0.00426922
0.00426556
0.00425991
0.00425235
0.00424292
0.00423169
0.00421872
0.00420407
0.00418781
0.00417002
0.00415075
0.00413009
0.00410809
0.00408485
0.00406042
0.00403488
0.0040083
0.00398076
0.00395231
0.00392304
0.00389301
0.00386228
0.00383092
0.00379899
0.00376655
0.00373365
0.00370035
0.00366671
0.00363278
0.0035986
0.00356423
0.0035297
0.00349507
0.00346037
0.00342563
0.0033909
0.00335621
0.00332158
0.00328704
0.00325263
0.00321836
0.00318426
0.00315035
0.00311665
0.00308318
0.00304994
0.00301697
0.00298426
0.00295184
0.0029197
0.00288787
0.00285636
0.00282516
0.00279428
0.00276374
0.00273353
0.00270366
0.00267413
0.00264495
0.00261611
0.00258762
0.00255948
0.00253169
0.00250424
0.00247714
0.00245038
0.00242396
0.00239788
0.00237214
0.00234673
0.00232166
0.00229692
0.00227251
0.00224842
0.00222465
0.0022012
0.00217806
0.00215523
0.00213271
0.00211049
0.00208856
0.00206693
0.00204558
0.00202452
0.00200373
0.00198322
0.00196298
0.00194301
0.0019233
0.00190384
0.00188464
0.00186568
0.00184697
0.00182849
0.00181025
0.00179222
0.00177441
0.0017568
0.00173939
0.00172215
0.00170508
0.00168813
0.0016713
0.00165453
0.00163778
0.00162098
0.00160406
0.00158687
0.00156948
0.00155154
0.00152542
3.22253e-05
0.000141106
0.000268673
0.000397591
0.00052119
0.000633046
0.000726769
0.000808128
0.000891953
0.000987799
0.00109755
0.00122261
0.00135906
0.00148644
0.00160662
0.00172153
0.00183213
0.00193877
0.00204179
0.00214152
0.00223821
0.00233204
0.00242323
0.00251196
0.00259847
0.00268293
0.00276556
0.00284651
0.00292595
0.00300399
0.00308076
0.00315632
0.00323073
0.00330403
0.00337622
0.00344731
0.00351727
0.00358605
0.00365362
0.00371991
0.00378487
0.00384842
0.00391048
0.00397098
0.00402984
0.00408698
0.00414233
0.00419581
0.00424734
0.00429687
0.00434432
0.00438963
0.00443274
0.00447361
0.00451218
0.00454843
0.0045823
0.00461378
0.00464284
0.00466947
0.00469365
0.00471538
0.00473465
0.00475149
0.00476589
0.00477788
0.00478749
0.00479472
0.00479966
0.00480223
0.00480261
0.0048008
0.00479684
0.00479078
0.00478267
0.00477259
0.00476059
0.00474674
0.0047311
0.00471374
0.00469474
0.00467415
0.00465206
0.00462853
0.00460365
0.00457748
0.00455009
0.00452157
0.00449197
0.00446138
0.00442986
0.00439747
0.0043643
0.00433039
0.00429583
0.00426066
0.00422495
0.00418877
0.00415216
0.00411519
0.00407791
0.00404037
0.00400261
0.0039647
0.00392666
0.00388854
0.00385038
0.00381223
0.0037741
0.00373604
0.00369808
0.00366024
0.00362255
0.00358504
0.00354773
0.00351064
0.00347379
0.0034372
0.00340088
0.00336485
0.00332912
0.0032937
0.00325861
0.00322385
0.00318943
0.00315536
0.00312164
0.00308829
0.0030553
0.00302267
0.00299041
0.00295853
0.00292701
0.00289587
0.0028651
0.00283469
0.00280466
0.00277499
0.00274569
0.00271676
0.00268819
0.00265998
0.00263213
0.00260464
0.00257749
0.00255069
0.00252424
0.00249812
0.00247234
0.00244689
0.00242177
0.00239697
0.00237249
0.00234832
0.00232446
0.00230091
0.00227766
0.0022547
0.00223203
0.00220965
0.00218755
0.00216572
0.00214417
0.00212287
0.00210183
0.00208104
0.00206048
0.00204015
0.00202002
0.00200008
0.0019803
0.00196065
0.0019411
0.00192158
0.00190204
0.0018824
0.00186252
0.00184247
0.00182172
0.0017934
3.08511e-05
0.000135012
0.000257908
0.000383075
0.000504929
0.000620961
0.000731694
0.000841015
0.000956304
0.00108259
0.00122101
0.00137102
0.00151319
0.00164504
0.00176919
0.0018875
0.00200111
0.00211064
0.00221649
0.00231885
0.00241814
0.00251473
0.00260892
0.00270097
0.0027911
0.00287953
0.00296643
0.00305196
0.00313625
0.00321942
0.00330154
0.00338267
0.00346285
0.00354209
0.00362039
0.00369771
0.00377402
0.00384925
0.00392336
0.00399626
0.00406788
0.00413812
0.0042069
0.00427414
0.00433973
0.00440359
0.00446562
0.00452575
0.00458389
0.00463996
0.00469389
0.0047456
0.00479503
0.00484212
0.00488682
0.00492909
0.00496887
0.00500615
0.00504088
0.00507305
0.00510265
0.00512965
0.00515408
0.00517591
0.00519518
0.00521188
0.00522605
0.0052377
0.00524688
0.0052536
0.00525792
0.00525986
0.00525952
0.00525691
0.0052521
0.00524513
0.00523608
0.005225
0.00521196
0.00519703
0.00518027
0.00516175
0.00514155
0.00511973
0.00509637
0.00507154
0.00504532
0.00501778
0.00498898
0.00495901
0.00492793
0.00489581
0.00486271
0.00482872
0.00479389
0.00475829
0.00472198
0.00468503
0.0046475
0.00460945
0.00457093
0.00453201
0.00449273
0.00445315
0.00441332
0.00437328
0.00433307
0.00429275
0.00425235
0.00421192
0.00417147
0.00413106
0.00409072
0.00405046
0.00401034
0.00397036
0.00393055
0.00389094
0.00385155
0.0038124
0.00377351
0.00373489
0.00369655
0.00365852
0.0036208
0.0035834
0.00354634
0.00350962
0.00347325
0.00343724
0.00340159
0.00336631
0.0033314
0.00329685
0.00326269
0.00322889
0.00319548
0.00316244
0.00312978
0.00309749
0.00306559
0.00303405
0.0030029
0.00297211
0.00294169
0.00291164
0.00288195
0.00285262
0.00282365
0.00279503
0.00276676
0.00273884
0.00271126
0.00268401
0.0026571
0.00263052
0.00260427
0.00257833
0.00255272
0.00252741
0.00250241
0.00247772
0.00245331
0.0024292
0.00240537
0.00238181
0.00235851
0.00233546
0.00231265
0.00229004
0.00226762
0.00224535
0.0022232
0.0022011
0.00217899
0.00215681
0.00213442
0.00211185
0.00208855
0.0020579
2.93025e-05
0.000128713
0.000248088
0.000372266
0.000496882
0.000620867
0.000745769
0.000875341
0.00101298
0.00116061
0.00131839
0.00147997
0.00162758
0.00176388
0.00189185
0.0020135
0.00213009
0.00224242
0.00235105
0.00245636
0.00255864
0.00265809
0.00275516
0.0028502
0.00294349
0.00303528
0.00312575
0.00321508
0.00330338
0.00339078
0.00347733
0.00356308
0.00364805
0.00373225
0.00381565
0.00389821
0.00397987
0.00406057
0.00414023
0.00421876
0.00429607
0.00437206
0.00444662
0.00451966
0.00459106
0.00466073
0.00472857
0.00479448
0.00485837
0.00492015
0.00497974
0.00503706
0.00509203
0.00514459
0.00519469
0.00524227
0.00528728
0.00532969
0.00536946
0.00540658
0.00544102
0.00547276
0.00550182
0.00552818
0.00555185
0.00557286
0.00559121
0.00560693
0.00562005
0.00563061
0.00563864
0.00564418
0.0056473
0.00564802
0.00564642
0.00564254
0.00563645
0.00562821
0.00561787
0.00560551
0.00559118
0.00557497
0.00555694
0.00553716
0.00551571
0.00549265
0.00546806
0.00544201
0.00541458
0.00538583
0.00535584
0.00532467
0.00529239
0.00525908
0.00522479
0.0051896
0.00515358
0.00511677
0.00507926
0.0050411
0.00500234
0.00496305
0.00492329
0.0048831
0.00484254
0.00480166
0.0047605
0.00471911
0.00467755
0.00463583
0.00459402
0.00455214
0.00451024
0.00446834
0.00442648
0.00438469
0.004343
0.00430143
0.00426002
0.00421877
0.00417772
0.00413689
0.00409629
0.00405594
0.00401586
0.00397606
0.00393655
0.00389735
0.00385847
0.00381991
0.00378169
0.00374381
0.00370628
0.0036691
0.00363228
0.00359582
0.00355972
0.003524
0.00348864
0.00345365
0.00341904
0.00338479
0.00335092
0.00331743
0.0032843
0.00325154
0.00321915
0.00318713
0.00315547
0.00312417
0.00309323
0.00306265
0.00303242
0.00300253
0.002973
0.00294381
0.00291496
0.00288644
0.00285826
0.0028304
0.00280287
0.00277565
0.00274875
0.00272216
0.00269587
0.00266986
0.00264414
0.00261869
0.00259348
0.00256851
0.00254374
0.00251914
0.00249468
0.00247029
0.00244591
0.00242147
0.00239686
0.00237206
0.00234656
0.00231376
2.76142e-05
0.000122123
0.0002381
0.000361644
0.000489128
0.00061995
0.000756362
0.000900148
0.00105292
0.00121517
0.0013874
0.00155314
0.00170473
0.00184489
0.00197637
0.00210114
0.00222053
0.00233548
0.00244665
0.00255453
0.00265951
0.00276189
0.00286194
0.00295986
0.00305606
0.00315084
0.00324443
0.00333702
0.00342875
0.00351974
0.00361004
0.00369971
0.00378876
0.00387718
0.00396493
0.00405196
0.00413822
0.00422361
0.00430804
0.00439142
0.00447364
0.00455459
0.00463416
0.00471223
0.00478868
0.00486341
0.00493631
0.00500727
0.00507618
0.00514296
0.00520751
0.00526975
0.0053296
0.00538699
0.00544185
0.00549414
0.00554379
0.00559078
0.00563505
0.00567659
0.00571538
0.00575139
0.00578463
0.0058151
0.00584279
0.00586773
0.00588993
0.00590941
0.0059262
0.00594033
0.00595185
0.00596079
0.0059672
0.00597112
0.00597262
0.00597175
0.00596858
0.00596315
0.00595553
0.00594578
0.00593398
0.00592018
0.00590446
0.00588688
0.00586753
0.00584648
0.00582378
0.00579953
0.00577378
0.00574662
0.0057181
0.0056883
0.00565729
0.00562513
0.0055919
0.00555765
0.00552246
0.00548639
0.00544951
0.00541186
0.00537353
0.00533456
0.005295
0.00525493
0.00521438
0.00517341
0.00513207
0.00509041
0.00504846
0.00500629
0.00496392
0.0049214
0.00487877
0.00483606