/*--------------------------------*- C++ -*----------------------------------*\
  =========                 |
  \\      /  F ield         | OpenFOAM: The Open Source CFD Toolbox
   \\    /   O peration     | Website:  https://openfoam.org
    \\  /    A nd           | Version:  8
     \\/     M anipulation  |
\*---------------------------------------------------------------------------*/
FoamFile
{
    version     2.0;
    format      ascii;
    class       volScalarField;
    location    "1300";
    object      p;
}
// * * * * * * * * * * * * * * * * * * * * * * * * * * * * * * * * * * * * * //

dimensions      [0 2 -2 0 0 0 0];

internalField   nonuniform List<scalar> 
12225
(
514.676
55.5279
2.36356
0.281444
-1.89903
-3.37457
-3.81181
-4.02222
-4.23197
-4.36886
-4.41601
-4.42562
-4.42862
-4.45658
-4.50996
-4.5764
-4.72177
-4.94431
-122.179
0.238648
-2.71867
-0.765352
-2.21672
-3.52516
-3.95289
-4.13699
-4.28067
-4.38466
-4.45958
-4.5179
-4.56884
-4.60121
-4.62214
-4.64767
-4.71429
-4.80828
-200.646
-16.1486
-2.34668
-0.358574
-1.90106
-3.24504
-3.77244
-4.02268
-4.19537
-4.31963
-4.41231
-4.47952
-4.52814
-4.55337
-4.56842
-4.58396
-4.61583
-4.599
-110.617
-10.9743
-2.17739
-0.432282
-1.78799
-3.02906
-3.60155
-3.90873
-4.118
-4.2638
-4.36617
-4.43685
-4.48556
-4.51414
-4.53147
-4.53929
-4.53824
-4.46955
-61.5731
-8.14611
-3.62285
-1.21028
-2.0155
-2.99862
-3.5295
-3.84927
-4.07178
-4.22646
-4.3341
-4.40874
-4.4601
-4.49122
-4.50649
-4.50387
-4.47767
-4.38751
-45.7311
-8.78554
-5.25906
-2.20063
-2.43025
-3.1014
-3.53687
-3.83383
-4.04982
-4.20364
-4.31269
-4.38942
-4.44186
-4.47278
-4.48432
-4.47357
-4.43349
-4.33893
-35.7949
-9.2768
-6.38085
-3.12507
-2.92227
-3.29036
-3.60427
-3.85517
-4.05058
-4.19577
-4.30175
-4.37754
-4.42915
-4.45888
-4.4678
-4.4532
-4.40921
-4.32215
-27.7784
-8.90758
-6.97431
-3.80333
-3.36235
-3.49919
-3.70125
-3.90074
-4.0701
-4.20237
-4.30213
-4.37488
-4.42479
-4.45363
-4.46196
-4.44766
-4.40667
-4.33193
-21.6904
-8.52054
-7.13501
-4.3112
-3.72965
-3.7068
-3.81709
-3.96545
-4.10574
-4.22202
-4.31308
-4.38115
-4.4286
-4.45655
-4.46525
-4.45328
-4.41828
-4.35728
-16.6131
-8.14122
-7.08867
-4.75609
-4.08395
-3.93517
-3.96004
-4.0535
-4.15986
-4.25607
-4.33553
-4.39714
-4.44137
-4.46855
-4.47873
-4.47125
-4.44532
-4.40083
-12.6395
-7.68142
-6.9067
-5.10239
-4.40758
-4.17115
-4.12275
-4.1623
-4.2325
-4.30587
-4.37146
-4.42519
-4.46569
-4.4925
-4.5055
-4.50465
-4.49038
-4.46421
-9.69956
-7.14933
-6.6298
-5.32723
-4.67944
-4.39796
-4.29529
-4.28756
-4.32274
-4.3724
-4.42293
-4.46796
-4.50461
-4.53167
-4.54884
-4.55644
-4.55554
-4.54825
-7.66662
-6.60529
-6.30658
-5.43221
-4.88389
-4.5981
-4.46449
-4.42134
-4.42663
-4.45441
-4.4904
-4.527
-4.56031
-4.5885
-4.61101
-4.62822
-4.64129
-4.6522
-6.37154
-6.11363
-5.98631
-5.44096
-5.01655
-4.75837
-4.61694
-4.55328
-4.53728
-4.54787
-4.57195
-4.60179
-4.63305
-4.66348
-4.69225
-4.71949
-4.74608
-4.77343
-5.62329
-5.72297
-5.70962
-5.39147
-5.08655
-4.87364
-4.74243
-4.67288
-4.64588
-4.64609
-4.66274
-4.68884
-4.72012
-4.75414
-4.78979
-4.82682
-4.86563
-4.90697
-5.24399
-5.46079
-5.50871
-5.32816
-5.11564
-4.94858
-4.8363
-4.77131
-4.74263
-4.73978
-4.75445
-4.78073
-4.81467
-4.85382
-4.8968
-4.94299
-4.99229
-5.04484
-5.10275
-5.34488
-5.41756
-5.29956
-5.13553
-4.99641
-4.89876
-4.84086
-4.81575
-4.81556
-4.8334
-4.864
-4.90359
-4.94965
-5.00055
-5.05534
-5.11351
-5.17484
-5.14048
-5.40069
-5.47479
-5.34863
-5.17481
-5.02907
-4.92881
-4.87159
-4.84967
-4.85452
-4.87871
-4.91655
-4.96392
-5.01801
-5.07693
-5.13945
-5.20484
-5.27265
-5.39277
-5.65513
-5.69082
-5.47568
-5.22645
-5.03606
-4.91494
-4.85186
-4.83281
-4.84509
-4.87875
-4.92659
-4.98375
-5.04696
-5.11413
-5.18392
-5.25554
-5.32856
-6.00215
-6.13695
-6.04271
-5.63518
-5.24718
-4.9874
-4.84086
-4.77591
-4.7664
-4.79277
-4.84134
-4.90321
-4.97276
-5.0466
-5.12267
-5.19975
-5.27722
-5.35484
-7.24977
-6.88959
-6.49425
-5.76193
-5.18314
-4.85301
-4.69638
-4.64623
-4.66015
-4.71068
-4.78094
-4.86099
-4.94533
-5.0309
-5.11617
-5.20038
-5.28327
-5.36496
-9.64128
-7.96466
-6.98267
-5.77194
-4.9796
-4.61219
-4.48196
-4.47372
-4.52857
-4.61392
-4.71171
-4.81289
-4.91305
-5.01038
-5.1043
-5.1949
-5.28239
-5.36736
-13.9825
-9.39114
-7.40325
-5.56961
-4.59481
-4.26424
-4.21509
-4.27971
-4.39186
-4.51935
-4.64749
-4.77008
-4.88523
-4.99282
-5.09385
-5.18933
-5.28015
-5.36732
-20.89
-10.9541
-7.55427
-5.05732
-4.01593
-3.8359
-3.93001
-4.09414
-4.27224
-4.44308
-4.59968
-4.74103
-4.86824
-4.9833
-5.08889
-5.18727
-5.27974
-5.36772
-29.7367
-11.9495
-7.03361
-4.12621
-3.26413
-3.37805
-3.67112
-3.94687
-4.18916
-4.39717
-4.57578
-4.73019
-4.8649
-4.9838
-5.09114
-5.19038
-5.2827
-5.37006
-43.1066
-12.6141
-5.4729
-2.72905
-2.41335
-2.96353
-3.48435
-3.86244
-4.15366
-4.38592
-4.57767
-4.73786
-4.87464
-4.99273
-5.09911
-5.19759
-5.28855
-5.3746
-84.5995
-17.3736
-3.6642
-1.26555
-1.69613
-2.72193
-3.43628
-3.87002
-4.1735
-4.41057
-4.60648
-4.76784
-4.89987
-5.00975
-5.11162
-5.20678
-5.29251
-5.37706
-177.886
-26.8497
-3.68027
-0.77033
-1.53521
-2.84318
-3.61419
-4.01533
-4.27112
-4.46709
-4.65081
-4.81564
-4.95278
-5.05293
-5.1419
-5.22899
-5.30294
-5.3799
-154.791
-9.62739
-3.27251
-1.06841
-1.84322
-3.22099
-3.9138
-4.22511
-4.41755
-4.55899
-4.70196
-4.85381
-5.00574
-5.12074
-5.21569
-5.30439
-5.36928
-5.44094
428.057
66.6054
7.05584
1.5993
-0.915723
-2.85704
-3.65308
-3.99478
-4.31034
-4.57697
-4.7074
-4.75504
-4.80038
-4.90083
-5.01497
-5.11939
-5.24153
-5.34087
-8.52569
-8.51286
-8.50223
-8.5436
-8.63664
-8.74033
-8.82026
-8.86027
-8.86392
-8.84625
-8.81884
-8.79026
-8.7686
-8.75979
-8.7648
-8.77744
-8.78865
-8.79379
-8.79302
-8.79095
-8.79544
-8.82815
-8.91837
-9.08973
-9.34274
-9.66051
-10.0317
-10.4455
-10.8865
-11.3385
-11.7865
-12.2185
-12.6252
-13
-13.3386
-13.6386
-13.8989
-14.1197
-14.3014
-14.4453
-14.5524
-14.6243
-14.6621
-14.6675
-14.6415
-14.5856
-14.5014
-14.3912
-14.2563
-14.0944
-13.903
-13.6833
-13.4381
-13.1691
-12.8775
-12.5645
-12.231
-11.8781
-11.5068
-11.1181
-10.7132
-10.2931
-9.85905
-9.41212
-8.95351
-8.48441
-8.00602
-7.51954
-7.02616
-6.52707
-6.02344
-5.51639
-5.00705
-4.4965
-3.98578
-3.47589
-2.96778
-2.46238
-1.96054
-1.46307
-0.970721
-0.484202
-0.00415774
0.468821
0.934198
1.39149
1.84028
2.28018
2.71089
3.13214
3.54373
3.94548
4.33723
4.71893
5.09085
5.45298
5.80486
6.1461
6.4767
6.79687
7.10687
7.40689
7.69713
7.97776
8.24897
8.51096
8.76394
9.00813
9.24375
9.47101
9.69011
9.90133
10.1049
10.3011
10.4901
10.6721
10.8475
11.0165
11.1792
11.336
11.487
11.6325
11.7726
11.9077
12.0378
12.1633
12.2842
12.4008
12.5132
12.6217
12.7263
12.8274
12.9253
13.02
13.1115
13.1998
13.2851
13.3676
13.4474
13.5245
13.5992
13.6716
13.7416
13.8095
13.8753
13.939
14.0009
14.0609
14.119
14.1755
14.2302
14.2833
14.3348
14.3848
14.4333
14.4803
14.5259
14.5701
14.6129
14.6543
14.6944
14.7331
14.7705
14.8067
14.8416
14.8752
14.9076
14.9388
14.969
14.9981
15.0265
15.0542
15.0817
15.1093
15.138
15.1688
15.2042
15.2459
15.3038
15.3642
-8.58314
-8.6144
-8.68835
-8.78196
-8.88542
-8.97762
-9.03887
-9.06326
-9.0462
-8.98575
-8.89599
-8.79917
-8.71755
-8.66627
-8.64421
-8.64101
-8.65057
-8.67601
-8.71129
-8.73153
-8.75587
-8.83383
-8.99359
-9.23315
-9.54003
-9.91101
-10.3368
-10.7969
-11.2698
-11.7376
-12.1877
-12.6109
-13.0007
-13.3532
-13.6667
-13.9409
-14.1763
-14.3738
-14.5346
-14.6599
-14.7509
-14.8086
-14.834
-14.8281
-14.7916
-14.7252
-14.6294
-14.504
-14.3498
-14.1698
-13.9677
-13.7438
-13.4971
-13.2278
-12.9366
-12.6242
-12.2914
-11.9393
-11.5688
-11.1809
-10.7767
-10.3572
-9.92374
-9.47733
-9.01917
-8.55043
-8.07232
-7.58604
-7.09279
-6.59374
-6.09005
-5.58288
-5.07333
-4.56249
-4.05139
-3.54105
-3.03243
-2.52643
-2.02392
-1.52571
-1.03256
-0.545185
-0.0642254
0.409717
0.876099
1.33443
1.78426
2.22521
2.65691
3.07908
3.49145
3.89376
4.28582
4.6675
5.03888
5.40019
5.75162
6.0932
6.42477
6.74623
7.05761
7.35905
7.6507
7.93273
8.20531
8.46865
8.72294
8.96841
9.20529
9.43381
9.65419
9.86665
10.0714
10.2688
10.459
10.6422
10.8187
10.9888
11.1526
11.3104
11.4624
11.6089
11.75
11.8861
12.0173
12.1438
12.2658
12.3834
12.497
12.6065
12.7122
12.8141
12.9122
13.0069
13.0985
13.187
13.2726
13.3553
13.4354
13.5128
13.5878
13.6605
13.7308
13.799
13.8651
13.9292
13.9913
14.0516
14.11
14.1667
14.2217
14.2751
14.3269
14.3771
14.4258
14.473
14.5188
14.5632
14.6062
14.6478
14.6881
14.727
14.7646
14.8009
14.8359
14.8697
14.9022
14.9336
14.9639
14.9931
15.0216
15.0494
15.077
15.1048
15.1335
15.1642
15.199
15.2386
15.2923
15.3421
-8.71017
-8.792
-8.90996
-9.01578
-9.09868
-9.15252
-9.17314
-9.15933
-9.10975
-9.02666
-8.91913
-8.80374
-8.70398
-8.63944
-8.61069
-8.60586
-8.62488
-8.68159
-8.7852
-8.93225
-9.12259
-9.36334
-9.65737
-9.9965
-10.3686
-10.7643
-11.1737
-11.585
-11.9876
-12.3742
-12.7401
-13.0816
-13.396
-13.6816
-13.9374
-14.1628
-14.3578
-14.5223
-14.6566
-14.761
-14.8359
-14.8816
-14.8987
-14.8875
-14.8484
-14.7819
-14.6885
-14.5679
-14.4203
-14.2466
-14.0483
-13.8263
-13.5812
-13.3136
-13.0241
-12.7135
-12.3826
-12.0323
-11.6636
-11.2773
-10.8747
-10.4567
-10.0245
-9.57931
-9.12218
-8.65433
-8.17698
-7.6913
-7.1985
-6.69976
-6.19624
-5.6891
-5.17945
-4.66838
-4.15693
-3.64612
-3.13691
-2.63023
-2.12693
-1.62784
-1.13373
-0.645313
-0.163236
0.311892
0.779523
1.23916
1.69037
2.13276
2.56598
2.98976
3.40385
3.80805
4.20222
4.58626
4.96014
5.32388
5.67751
6.02104
6.35443
6.67769
6.99088
7.29414
7.58759
7.8714
8.14575
8.41083
8.66685
8.91402
9.15256
9.3827
9.60467
9.81869
10.025
10.2238
10.4155
10.6001
10.778
10.9494
11.1145
11.2736
11.4269
11.5746
11.7169
11.854
11.9861
12.1135
12.2362
12.3546
12.4688
12.579
12.6853
12.7879
12.8869
12.9827
13.0753
13.1648
13.2513
13.3349
13.4158
13.4941
13.5698
13.6431
13.7142
13.783
13.8496
13.9143
13.9769
14.0377
14.0967
14.1538
14.2093
14.2631
14.3152
14.3659
14.4149
14.4625
14.5086
14.5533
14.5966
14.6385
14.6791
14.7182
14.7561
14.7926
14.8278
14.8618
14.8946
14.9261
14.9565
14.986
15.0145
15.0425
15.07
15.0977
15.1262
15.1563
15.1898
15.2264
15.2738
15.3074
-8.74958
-8.84702
-8.94829
-9.03481
-9.09925
-9.13895
-9.15141
-9.134
-9.08674
-9.01463
-8.92889
-8.84634
-8.78514
-8.75816
-8.77028
-8.82358
-8.92196
-9.06907
-9.26551
-9.50628
-9.78254
-10.0871
-10.414
-10.7568
-11.1102
-11.469
-11.8277
-12.1814
-12.5253
-12.8553
-13.1682
-13.4613
-13.7324
-13.9799
-14.2025
-14.3993
-14.5697
-14.7133
-14.8299
-14.9194
-14.9819
-15.0175
-15.0261
-15.0081
-14.9634
-14.8923
-14.7952
-14.6723
-14.5241
-14.3512
-14.1543
-13.9339
-13.6904
-13.4244
-13.1366
-12.8277
-12.4985
-12.1498
-11.7825
-11.3977
-10.9964
-10.5795
-10.1484
-9.70402
-9.24759
-8.7803
-8.30333
-7.81789
-7.32516
-6.82633
-6.32258
-5.81504
-5.30486
-4.7931
-4.28085
-3.76909
-3.25882
-2.75096
-2.24637
-1.7459
-1.2503
-0.760305
-0.276572
0.200287
0.669719
1.13122
1.58435
2.02871
2.46395
2.8898
3.306
3.71237
4.10876
4.49508
4.87129
5.23735
5.59324
5.93893
6.27443
6.59977
6.91505
7.22037
7.51587
7.80171
8.07807
8.34513
8.6031
8.85218
9.0926
9.32458
9.54834
9.76412
9.97215
10.1727
10.366
10.5522
10.7317
10.9046
11.0712
11.2317
11.3863
11.5353
11.6789
11.8172
11.9505
12.0791
12.203
12.3225
12.4378
12.549
12.6563
12.7599
12.8601
12.9569
13.0505
13.1409
13.2283
13.3127
13.3944
13.4735
13.55
13.624
13.6957
13.7652
13.8325
13.8977
13.961
14.0223
14.0818
14.1394
14.1954
14.2496
14.3023
14.3533
14.4028
14.4508
14.4973
14.5423
14.5859
14.6282
14.669
14.7085
14.7466
14.7834
14.8188
14.853
14.886
14.9177
14.9482
14.9778
15.0064
15.0342
15.0617
15.089
15.1169
15.1458
15.1771
15.2096
15.249
15.2676
-8.53771
-8.62263
-8.72272
-8.81982
-8.89717
-8.9499
-8.97698
-8.97925
-8.96118
-8.93106
-8.90098
-8.88491
-8.89565
-8.94278
-9.03247
-9.16788
-9.3491
-9.57155
-9.82681
-10.1068
-10.4061
-10.7204
-11.0454
-11.3762
-11.7082
-12.0379
-12.3618
-12.6768
-12.9801
-13.2694
-13.5427
-13.7981
-14.0343
-14.2502
-14.4446
-14.6167
-14.7658
-14.8913
-14.9929
-15.07
-15.1225
-15.1501
-15.1527
-15.1301
-15.0824
-15.0095
-14.9115
-14.7885
-14.6409
-14.4691
-14.2734
-14.0543
-13.8122
-13.5477
-13.2614
-12.954
-12.6262
-12.2789
-11.9129
-11.5293
-11.1291
-10.7133
-10.2829
-9.83925
-9.38337
-8.91648
-8.43976
-7.95442
-7.46164
-6.96262
-6.45852
-5.9505
-5.43969
-4.92719
-4.41404
-3.90128
-3.38989
-2.88078
-2.37486
-1.87294
-1.3758
-0.884175
-0.398728
0.0799243
0.551222
1.01466
1.46979
1.91621
2.35358
2.78159
3.20001
3.60864
4.00732
4.39595
4.77447
5.14281
5.50096
5.84889
6.18662
6.51419
6.83169
7.13922
7.43692
7.72494
8.00345
8.27265
8.53272
8.78387
9.02633
9.26033
9.48608
9.7038
9.91373
10.1161
10.3112
10.4992
10.6804
10.855
11.0232
11.1853
11.3414
11.4919
11.637
11.7768
11.9115
12.0414
12.1667
12.2875
12.404
12.5164
12.6249
12.7297
12.8309
12.9287
13.0233
13.1146
13.2029
13.2883
13.3708
13.4507
13.528
13.6028
13.6752
13.7454
13.8134
13.8793
13.9432
14.0051
14.0652
14.1234
14.1799
14.2347
14.2878
14.3394
14.3893
14.4377
14.4846
14.5301
14.5741
14.6167
14.6579
14.6977
14.7361
14.7732
14.8089
14.8433
14.8764
14.9083
14.939
14.9686
14.9971
15.0249
15.052
15.0788
15.1057
15.133
15.1616
15.1894
15.221
15.2271
-8.11776
-8.20616
-8.32709
-8.44978
-8.55501
-8.63543
-8.69374
-8.73582
-8.7693
-8.80396
-8.85076
-8.92
-9.01971
-9.15471
-9.32719
-9.53618
-9.777
-10.0441
-10.332
-10.6352
-10.9482
-11.2661
-11.5851
-11.9016
-12.2129
-12.5168
-12.8115
-13.0952
-13.3667
-13.6244
-13.8673
-14.0942
-14.3041
-14.496
-14.6689
-14.822
-14.9546
-15.066
-15.1555
-15.2227
-15.267
-15.288
-15.2854
-15.2589
-15.2084
-15.1337
-15.0347
-14.9115
-14.7642
-14.593
-14.3983
-14.1803
-13.9395
-13.6764
-13.3915
-13.0855
-12.7591
-12.4132
-12.0485
-11.6662
-11.2671
-10.8523
-10.4228
-9.97985
-9.52457
-9.05813
-8.58172
-8.09652
-7.60374
-7.10456
-6.60016
-6.09169
-5.58029
-5.06706
-4.55305
-4.03931
-3.52681
-3.01649
-2.50923
-2.00588
-1.50722
-1.01398
-0.526823
-0.0463842
0.426777
0.892152
1.34928
1.79777
2.23726
2.66745
3.08809
3.49898
3.89996
4.2909
4.67172
5.04236
5.4028
5.75302
6.09303
6.42289
6.74267
7.05247
7.35243
7.64271
7.92347
8.19488
8.45715
8.71047
8.95506
9.19114
9.41894
9.63867
9.85059
10.0549
10.2519
10.4418
10.6248
10.8012
10.9711
11.1349
11.2928
11.4449
11.5915
11.7329
11.8691
12.0005
12.1271
12.2493
12.3672
12.4809
12.5907
12.6966
12.799
12.8979
12.9935
13.0859
13.1752
13.2615
13.345
13.4258
13.504
13.5796
13.6529
13.7239
13.7926
13.8593
13.9238
13.9865
14.0472
14.106
14.1631
14.2185
14.2722
14.3242
14.3747
14.4236
14.471
14.5169
14.5613
14.6043
14.6459
14.686
14.7248
14.7622
14.7982
14.8328
14.8662
14.8982
14.929
14.9586
14.9871
15.0146
15.0412
15.0673
15.0929
15.1183
15.1438
15.1668
15.1911
15.1865
-7.65275
-7.75143
-7.89348
-8.04227
-8.18021
-8.29885
-8.40174
-8.49824
-8.59773
-8.70914
-8.8401
-8.99548
-9.17804
-9.38823
-9.62434
-9.88426
-10.165
-10.462
-10.7698
-11.0834
-11.3986
-11.7119
-12.0205
-12.3224
-12.6159
-12.8999
-13.1733
-13.4351
-13.6845
-13.9207
-14.1427
-14.3498
-14.5412
-14.7159
-14.8732
-15.0122
-15.1323
-15.2327
-15.3127
-15.3716
-15.409
-15.4243
-15.4171
-15.3869
-15.3335
-15.2567
-15.1563
-15.0322
-14.8846
-14.7135
-14.519
-14.3016
-14.0616
-13.7993
-13.5154
-13.2106
-12.8854
-12.5406
-12.1772
-11.796
-11.3981
-10.9844
-10.556
-10.1139
-9.65951
-9.19381
-8.71801
-8.23332
-7.74092
-7.242
-6.73772
-6.22924
-5.7177
-5.20418
-4.68977
-4.17548
-3.6623
-3.15118
-2.643
-2.1386
-1.63878
-1.14426
-0.655729
-0.173807
0.300934
0.767979
1.22687
1.67719
2.11859
2.55077
2.97345
3.38644
3.78955
4.18266
4.56567
4.93852
5.30117
5.65361
5.99585
6.32795
6.64999
6.96205
7.26426
7.55678
7.83976
8.11339
8.37785
8.63335
8.88009
9.1183
9.34819
9.57
9.78396
9.9903
10.1893
10.3811
10.566
10.7442
10.916
11.0816
11.2412
11.395
11.5433
11.6862
11.824
11.9569
12.0851
12.2087
12.3279
12.443
12.5541
12.6613
12.7649
12.865
12.9618
13.0553
13.1456
13.233
13.3175
13.3993
13.4784
13.5549
13.6291
13.7009
13.7705
13.8379
13.9032
13.9666
14.028
14.0875
14.1453
14.2012
14.2555
14.3082
14.3592
14.4086
14.4565
14.5029
14.5478
14.5912
14.6332
14.6738
14.7129
14.7506
14.7869
14.8218
14.8554
14.8876
14.9184
14.948
14.9763
15.0035
15.0296
15.0547
15.079
15.1021
15.1243
15.1424
15.1602
15.1463
-7.2971
-7.39058
-7.54261
-7.70834
-7.87517
-8.03614
-8.19074
-8.34685
-8.51271
-8.69413
-8.89516
-9.11701
-9.35825
-9.61801
-9.89571
-10.1891
-10.4943
-10.807
-11.1231
-11.4388
-11.7513
-12.0582
-12.3579
-12.6488
-12.93
-13.2006
-13.4599
-13.7073
-13.9422
-14.164
-14.372
-14.5657
-14.7442
-14.907
-15.0531
-15.182
-15.2929
-15.385
-15.4577
-15.5103
-15.5421
-15.5526
-15.5413
-15.5078
-15.4517
-15.3726
-15.2705
-15.1451
-14.9965
-14.8247
-14.6298
-14.4122
-14.1722
-13.9101
-13.6265
-13.3221
-12.9974
-12.6532
-12.2905
-11.9101
-11.5129
-11.0999
-10.6723
-10.2311
-9.77752
-9.31261
-8.83757
-8.35361
-7.86189
-7.36358
-6.85986
-6.35187
-5.84073
-5.32752
-4.81332
-4.29915
-3.78597
-3.27474
-2.76634
-2.2616
-1.76132
-1.26623
-0.776999
-0.294265
0.181404
0.64949
1.10953
1.56111
2.00386
2.43749
2.86171
3.27631
3.6811
4.07596
4.46076
4.83545
5.19998
5.55434
5.89854
6.23263
6.55668
6.87078
7.17506
7.46966
7.75473
8.03045
8.297
8.55458
8.8034
9.04367
9.27562
9.49945
9.71542
9.92374
10.1247
10.3184
10.5052
10.6853
10.8589
11.0263
11.1876
11.3432
11.4931
11.6377
11.7771
11.9116
12.0412
12.1663
12.287
12.4035
12.516
12.6245
12.7294
12.8307
12.9287
13.0233
13.1148
13.2032
13.2888
13.3716
13.4517
13.5292
13.6043
13.677
13.7474
13.8156
13.8818
13.9459
14.008
14.0683
14.1267
14.1833
14.2383
14.2915
14.3431
14.3931
14.4415
14.4884
14.5338
14.5777
14.6201
14.6611
14.7006
14.7387
14.7753
14.8105
14.8442
14.8766
14.9075
14.937
14.9651
14.9919
15.0173
15.0414
15.0641
15.0849
15.1037
15.1171
15.1288
15.1069
-7.10679
-7.19289
-7.34701
-7.51937
-7.70276
-7.89506
-8.09285
-8.29812
-8.51542
-8.74719
-8.99374
-9.25502
-9.53096
-9.82119
-10.1238
-10.4356
-10.7528
-11.0723
-11.3907
-11.7057
-12.015
-12.317
-12.6103
-12.894
-13.1671
-13.4292
-13.6796
-13.9179
-14.1437
-14.3563
-14.5554
-14.7404
-14.9106
-15.0655
-15.2042
-15.3262
-15.4306
-15.5169
-15.5843
-15.632
-15.6596
-15.6663
-15.6517
-15.6152
-15.5566
-15.4753
-15.3713
-15.2444
-15.0944
-14.9215
-14.7258
-14.5074
-14.2668
-14.0043
-13.7205
-13.4159
-13.0911
-12.7471
-12.3845
-12.0043
-11.6074
-11.1949
-10.7678
-10.3272
-9.87415
-9.4099
-8.93557
-8.45233
-7.96134
-7.46379
-6.96082
-6.45356
-5.94314
-5.43062
-4.91707
-4.40349
-3.89086
-3.38009
-2.87208
-2.36765
-1.86758
-1.3726
-0.883389
-0.400563
0.075305
0.543698
1.00415
1.45625
1.89963
2.33398
2.75903
3.17456
3.58037
3.97634
4.36234
4.7383
5.10418
5.45995
5.80563
6.14125
6.4669
6.78265
7.08862
7.38494
7.67178
7.94929
8.21766
8.47707
8.72774
8.96986
9.20366
9.42935
9.64716
9.85733
10.0601
10.2556
10.4442
10.6261
10.8015
10.9706
11.1336
11.2908
11.4424
11.5886
11.7296
11.8655
11.9967
12.1233
12.2454
12.3633
12.4771
12.587
12.6932
12.7957
12.8949
12.9907
13.0833
13.1728
13.2595
13.3433
13.4244
13.5029
13.5789
13.6525
13.7238
13.7929
13.8598
13.9247
13.9876
14.0486
14.1078
14.1651
14.2207
14.2745
14.3267
14.3773
14.4263
14.4738
14.5197
14.564
14.6069
14.6483
14.6882
14.7267
14.7636
14.799
14.833
14.8655
14.8964
14.9258
14.9537
14.98
15.0047
15.0276
15.0486
15.067
15.0825
15.0914
15.0976
15.0686
-7.07891
-7.16574
-7.31344
-7.48222
-7.66896
-7.87352
-8.09274
-8.32465
-8.56947
-8.82782
-9.09919
-9.38275
-9.67823
-9.98449
-10.2988
-10.6183
-10.9399
-11.261
-11.5791
-11.8923
-12.1987
-12.4971
-12.7862
-13.0654
-13.3338
-13.591
-13.8364
-14.0697
-14.2904
-14.498
-14.6921
-14.8722
-15.0376
-15.1877
-15.322
-15.4397
-15.5401
-15.6225
-15.6863
-15.7307
-15.7551
-15.759
-15.7417
-15.7029
-15.642
-15.5587
-15.4529
-15.3243
-15.1729
-14.9987
-14.8018
-14.5824
-14.3409
-14.0777
-13.7932
-13.4881
-13.163
-12.8187
-12.4561
-12.0759
-11.6792
-11.2669
-10.8402
-10.4
-9.94761
-9.48403
-9.01044
-8.52803
-8.03793
-7.54131
-7.03931
-6.53305
-6.02364
-5.51215
-4.99961
-4.48703
-3.97536
-3.46553
-2.9584
-2.45479
-1.95548
-1.46119
-0.972589
-0.490286
-0.0148466
0.453219
0.913449
1.36544
1.80882
2.24328
2.66854
3.08438
3.49062
3.8871
4.27371
4.65036
5.01702
5.37366
5.72029
6.05695
6.3837
6.70063
7.00785
7.30548
7.59368
7.8726
8.14242
8.40333
8.65551
8.89918
9.13455
9.36184
9.58125
9.79303
9.99739
10.1946
10.3848
10.5682
10.7452
10.9159
11.0805
11.2393
11.3924
11.5401
11.6825
11.82
11.9526
12.0806
12.2041
12.3233
12.4384
12.5496
12.657
12.7608
12.8611
12.9581
13.0518
13.1424
13.2301
13.3149
13.397
13.4765
13.5535
13.628
13.7002
13.7701
13.8379
13.9036
13.9672
14.029
14.0888
14.1468
14.2031
14.2576
14.3104
14.3616
14.4112
14.4591
14.5056
14.5504
14.5938
14.6356
14.6759
14.7147
14.752
14.7877
14.8219
14.8545
14.8854
14.9147
14.9423
14.9681
14.9919
15.0136
15.0329
15.0489
15.0611
15.0658
15.0671
15.032
-7.18982
-7.26818
-7.39912
-7.55501
-7.73366
-7.93475
-8.15559
-8.39359
-8.64711
-8.91482
-9.19506
-9.4867
-9.78881
-10.0994
-10.4161
-10.7361
-11.0572
-11.3769
-11.6931
-12.004
-12.3081
-12.6041
-12.891
-13.168
-13.4343
-13.6895
-13.933
-14.1644
-14.3832
-14.5889
-14.7811
-14.9591
-15.1225
-15.2705
-15.4026
-15.5182
-15.6164
-15.6966
-15.7582
-15.8005
-15.8228
-15.8246
-15.8054
-15.7646
-15.7018
-15.6168
-15.5093
-15.3791
-15.2262
-15.0507
-14.8525
-14.632
-14.3896
-14.1255
-13.8403
-13.5347
-13.2092
-12.8647
-12.502
-12.1219
-11.7254
-11.3135
-10.8873
-10.4478
-9.99618
-9.53352
-9.06097
-8.57969
-8.09083
-7.59551
-7.09489
-6.59006
-6.08212
-5.57213
-5.0611
-4.55004
-4.03987
-3.53151
-3.02581
-2.52359
-2.02559
-1.53254
-1.04508
-0.563845
-0.089375
0.377819
0.83728
1.2886
1.73143
2.16544
2.59036
3.00598
3.41209
3.80856
4.19526
4.57211
4.93906
5.2961
5.64322
5.98046
6.30789
6.62557
6.93363
7.23218
7.52137
7.80134
8.07227
8.33433
8.58773
8.83265
9.06931
9.29792
9.51868
9.73183
9.93758
10.1362
10.3278
10.5127
10.6911
10.8632
11.0292
11.1894
11.3439
11.493
11.6368
11.7756
11.9096
12.0389
12.1637
12.2842
12.4005
12.513
12.6215
12.7265
12.8279
12.926
13.0208
13.1125
13.2012
13.287
13.3701
13.4505
13.5284
13.6038
13.6768
13.7476
13.8162
13.8827
13.9471
14.0095
14.0701
14.1288
14.1857
14.2409
14.2943
14.3461
14.3962
14.4448
14.4917
14.5371
14.581
14.6232
14.664
14.7031
14.7407
14.7767
14.8111
14.8438
14.8747
14.9039
14.9311
14.9563
14.9793
14.9998
15.0173
15.0309
15.04
15.0407
15.0375
14.9972
-7.36633
-7.4309
-7.54181
-7.68024
-7.84407
-8.03281
-8.24411
-8.47531
-8.72396
-8.98771
-9.26434
-9.55267
-9.8515
-10.1586
-10.4715
-10.7879
-11.1055
-11.422
-11.7355
-12.0442
-12.3467
-12.6417
-12.9281
-13.2049
-13.4714
-13.727
-13.9711
-14.2031
-14.4225
-14.6287
-14.8212
-14.9995
-15.1629
-15.3108
-15.4425
-15.5575
-15.655
-15.7343
-15.7948
-15.8359
-15.8569
-15.8573
-15.8366
-15.7942
-15.73
-15.6435
-15.5345
-15.4029
-15.2487
-15.0718
-14.8726
-14.6511
-14.4078
-14.143
-13.8573
-13.5513
-13.2257
-12.8812
-12.5186
-12.139
-11.7431
-11.332
-10.9068
-10.4684
-10.0181
-9.55686
-9.0859
-8.60632
-8.11927
-7.62587
-7.12724
-6.62446
-6.11861
-5.61073
-5.10183
-4.59289
-4.08484
-3.57857
-3.07492
-2.57468
-2.0786
-1.5874
-1.10171
-0.622142
-0.14924
0.316495
0.774612
1.22471
1.66642
2.09945
2.52352
2.93839
3.34389
3.73986
4.12619
4.50279
4.8696
5.22661
5.57381
5.91124
6.23896
6.55705
6.86559
7.16472
7.45456
7.73527
8.00701
8.26996
8.52429
8.77021
9.00791
9.23761
9.4595
9.67381
9.88075
10.0805
10.2734
10.4596
10.6392
10.8126
10.9799
11.1413
11.2972
11.4475
11.5926
11.7327
11.8679
11.9984
12.1244
12.2461
12.3637
12.4772
12.587
12.693
12.7955
12.8946
12.9905
13.0832
13.1729
13.2597
13.3437
13.425
13.5038
13.5801
13.654
13.7256
13.7949
13.8622
13.9274
13.9906
14.0518
14.1112
14.1688
14.2246
14.2786
14.331
14.3817
14.4308
14.4783
14.5242
14.5685
14.6113
14.6524
14.692
14.7299
14.7661
14.8007
14.8335
14.8644
14.8934
14.9204
14.945
14.9671
14.9863
15.002
15.0134
15.0195
15.0166
15.0093
14.9645
-7.54024
-7.59172
-7.68429
-7.80487
-7.9515
-8.12364
-8.31923
-8.53589
-8.77116
-9.02249
-9.28785
-9.56613
-9.85592
-10.155
-10.461
-10.7714
-11.0841
-11.3968
-11.7077
-12.0149
-12.3168
-12.6121
-12.8995
-13.178
-13.4466
-13.7046
-13.9513
-14.1858
-14.4078
-14.6164
-14.8111
-14.9912
-15.1562
-15.3054
-15.4381
-15.5536
-15.6514
-15.7307
-15.7909
-15.8314
-15.8517
-15.8512
-15.8295
-15.786
-15.7206
-15.6329
-15.5227
-15.39
-15.2347
-15.0569
-14.8568
-14.6347
-14.3908
-14.1258
-13.84
-13.5341
-13.2088
-12.8648
-12.5031
-12.1244
-11.7297
-11.32
-10.8964
-10.4599
-10.0116
-9.55253
-9.08389
-8.60677
-8.1223
-7.63158
-7.13571
-6.63575
-6.13278
-5.6278
-5.12181
-4.61577
-4.11059
-3.60716
-3.10629
-2.60876
-2.11532
-1.62665
-1.1434
-0.66615
-0.195448
0.268214
0.72439
1.17268
1.61273
2.04424
2.46692
2.88056
3.28497
3.67998
4.06549
4.4414
4.80767
5.16425
5.51117
5.84843
6.17611
6.49425
6.80298
7.10238
7.3926
7.67378
7.94607
8.20964
8.46468
8.71137
8.9499
9.18048
9.40332
9.61861
9.82657
10.0274
10.2214
10.4086
10.5894
10.7639
10.9324
11.095
11.252
11.4035
11.5498
11.6911
11.8274
11.9591
12.0863
12.2091
12.3278
12.4424
12.5533
12.6604
12.7639
12.8641
12.9609
13.0546
13.1453
13.233
13.3179
13.4001
13.4798
13.5569
13.6316
13.704
13.7742
13.8422
13.9081
13.972
14.034
14.0941
14.1523
14.2087
14.2634
14.3164
14.3677
14.4174
14.4654
14.5118
14.5566
14.5998
14.6414
14.6813
14.7196
14.7561
14.7909
14.8238
14.8547
14.8836
14.9102
14.9342
14.9555
14.9734
14.9875
14.9966
14.9999
14.9937
14.9827
14.9342
-7.66704
-7.70921
-7.7864
-7.89035
-8.01958
-8.17364
-8.35079
-8.54908
-8.76647
-9.00079
-9.25063
-9.51528
-9.7933
-10.0824
-10.3801
-10.6841
-10.9919
-11.3014
-11.6105
-11.9173
-12.22
-12.5171
-12.8071
-13.089
-13.3614
-13.6235
-13.8743
-14.1131
-14.339
-14.5513
-14.7494
-14.9326
-15.1002
-15.2515
-15.3859
-15.5028
-15.6014
-15.6813
-15.7417
-15.7821
-15.802
-15.8009
-15.7785
-15.7342
-15.6679
-15.5793
-15.4683
-15.3348
-15.1788
-15.0005
-14.8001
-14.5778
-14.334
-14.0692
-13.784
-13.4789
-13.1547
-12.812
-12.4519
-12.075
-11.6825
-11.2752
-10.8541
-10.4204
-9.97499
-9.5191
-9.05376
-8.58009
-8.09918
-7.61211
-7.11996
-6.62379
-6.12462
-5.62346
-5.12129
-4.61903
-4.11759
-3.61782
-3.12055
-2.62654
-2.1365
-1.65111
-1.171
-0.696766
-0.228931
0.232017
0.685637
1.13153
1.56936
1.99879
2.41958
2.83148
3.23431
3.62792
4.01218
4.387
4.75233
5.10812
5.45439
5.79116
6.11847
6.43638
6.74499
7.0444
7.33474
7.61614
7.88875
8.15274
8.40828
8.65555
8.89473
9.12603
9.34964
9.56576
9.77461
9.97638
10.1713
10.3595
10.5414
10.7169
10.8865
11.0502
11.2082
11.3609
11.5082
11.6506
11.788
11.9208
12.0491
12.173
12.2927
12.4085
12.5203
12.6285
12.733
12.8342
12.932
13.0266
13.1182
13.2069
13.2927
13.3758
13.4563
13.5342
13.6098
13.683
13.7539
13.8227
13.8893
13.954
14.0166
14.0774
14.1363
14.1933
14.2487
14.3023
14.3541
14.4044
14.4529
14.4999
14.5452
14.5888
14.6309
14.6712
14.7098
14.7466
14.7816
14.8146
14.8456
14.8743
14.9006
14.9241
14.9445
14.9613
14.9737
14.9807
14.9815
14.9723
14.958
14.9063
-7.7225
-7.76075
-7.82634
-7.91532
-8.02754
-8.16293
-8.32047
-8.49883
-8.69643
-8.91176
-9.14429
-9.39393
-9.65935
-9.93814
-10.2278
-10.5257
-10.8294
-11.1367
-11.4452
-11.7529
-12.0578
-12.3582
-12.6523
-12.9388
-13.2163
-13.4837
-13.7399
-13.9838
-14.2146
-14.4316
-14.6338
-14.8206
-14.9913
-15.1453
-15.2818
-15.4003
-15.5001
-15.5807
-15.6415
-15.682
-15.7018
-15.7005
-15.6776
-15.6328
-15.566
-15.477
-15.3656
-15.2319
-15.0759
-14.8977
-14.6977
-14.476
-14.2331
-13.9695
-13.6858
-13.3825
-13.0603
-12.7201
-12.3626
-11.9888
-11.5995
-11.1956
-10.7783
-10.3485
-9.90731
-9.45573
-8.99487
-8.52579
-8.04957
-7.56728
-7.07996
-6.58865
-6.09435
-5.59804
-5.10068
-4.60318
-4.10642
-3.61123
-3.11843
-2.62877
-2.14296
-1.66163
-1.18543
-0.714922
-0.250641
0.206937
0.657374
1.10028
1.5353
1.96213
2.3805
2.79018
3.19097
3.58273
3.96532
4.33866
4.70268
5.05734
5.40264
5.73859
6.06524
6.38264
6.69088
6.99005
7.28028
7.56169
7.83442
8.09863
8.35449
8.60217
8.84185
9.07372
9.29796
9.51479
9.7244
9.92698
10.1227
10.3119
10.4946
10.6712
10.8417
11.0064
11.1655
11.3192
11.4676
11.611
11.7495
11.8833
12.0126
12.1376
12.2584
12.3751
12.488
12.5971
12.7027
12.8048
12.9036
12.9992
13.0917
13.1812
13.2679
13.3519
13.4332
13.512
13.5884
13.6624
13.7341
13.8036
13.871
13.9363
13.9997
14.0611
14.1207
14.1784
14.2343
14.2885
14.341
14.3918
14.441
14.4884
14.5342
14.5784
14.6209
14.6616
14.7006
14.7377
14.773
14.8062
14.8371
14.8658
14.8917
14.9147
14.9343
14.95
14.9609
14.9661
14.9645
14.9525
14.9352
14.8809
-7.70809
-7.74278
-7.7996
-7.87475
-7.96975
-8.08545
-8.22185
-8.37858
-8.55487
-8.75001
-8.96445
-9.19868
-9.45149
-9.72043
-10.0028
-10.2958
-10.597
-10.9036
-11.2132
-11.5234
-11.8321
-12.1371
-12.4366
-12.7289
-13.0124
-13.2858
-13.5479
-13.7974
-14.0335
-14.2552
-14.4617
-14.6522
-14.8261
-14.9826
-15.1211
-15.2412
-15.3422
-15.4236
-15.4849
-15.5257
-15.5456
-15.5443
-15.5214
-15.4766
-15.4098
-15.321
-15.21
-15.0768
-14.9216
-14.7445
-14.5458
-14.3258
-14.0849
-13.8237
-13.5426
-13.2424
-12.9236
-12.5871
-12.2337
-11.8641
-11.4794
-11.0805
-10.6683
-10.2438
-9.80808
-9.36216
-8.90708
-8.4439
-7.97365
-7.49738
-7.01611
-6.53083
-6.04255
-5.55221
-5.06073
-4.56903
-4.07794
-3.5883
-3.10088
-2.61644
-2.13569
-1.65925
-1.18772
-0.721674
-0.261635
0.191918
0.638549
1.07787
1.50953
1.93322
2.34867
2.75565
3.15397
3.54346
3.92399
4.29548
4.65784
5.01103
5.35506
5.68991
6.01564
6.33228
6.63991
6.93863
7.22854
7.50977
7.78244
8.04671
8.30274
8.55069
8.79073
9.02304
9.24782
9.46524
9.67551
9.87882
10.0754
10.2653
10.4489
10.6264
10.7978
10.9635
11.1235
11.2782
11.4276
11.572
11.7116
11.8464
11.9767
12.1027
12.2245
12.3423
12.4561
12.5663
12.6728
12.7758
12.8756
12.9721
13.0655
13.156
13.2435
13.3284
13.4105
13.4902
13.5673
13.6421
13.7146
13.7848
13.853
13.919
13.9831
14.0452
14.1054
14.1638
14.2204
14.2752
14.3283
14.3797
14.4294
14.4774
14.5238
14.5684
14.6114
14.6526
14.692
14.7294
14.7649
14.7983
14.8294
14.8579
14.8836
14.9062
14.9251
14.9397
14.9493
14.9527
14.9489
14.9346
14.9145
14.8581
-7.64438
-7.67008
-7.71619
-7.77481
-7.84956
-7.94244
-8.05467
-8.18712
-8.34004
-8.51371
-8.7095
-8.92846
-9.16939
-9.42962
-9.70616
-9.99603
-10.2963
-10.604
-10.9163
-11.2305
-11.5441
-11.8548
-12.1604
-12.459
-12.7488
-13.0284
-13.2963
-13.5513
-13.7923
-14.0185
-14.2288
-14.4227
-14.5993
-14.7581
-14.8985
-15.02
-15.1221
-15.2043
-15.2663
-15.3077
-15.3281
-15.3272
-15.3049