/*--------------------------------*- C++ -*----------------------------------*\
  =========                 |
  \\      /  F ield         | OpenFOAM: The Open Source CFD Toolbox
   \\    /   O peration     | Website:  https://openfoam.org
    \\  /    A nd           | Version:  8
     \\/     M anipulation  |
\*---------------------------------------------------------------------------*/
FoamFile
{
    version     2.0;
    format      ascii;
    class       volVectorField;
    location    "1300";
    object      U;
}
// * * * * * * * * * * * * * * * * * * * * * * * * * * * * * * * * * * * * * //

dimensions      [0 1 -1 0 0 0 0];

internalField   nonuniform List<vector> 
12225
(
(9.2745 -4.73371 0)
(13.1094 -1.71343 0)
(12.4778 -0.395198 0)
(11.2771 -0.0422041 0)
(10.6314 0.0141385 0)
(10.2979 -9.39054e-05 0)
(10.0776 -0.0165232 0)
(9.91227 -0.00288818 0)
(9.77909 0.0348746 0)
(9.66231 0.0428927 0)
(9.55574 0.024883 0)
(9.45767 0.00214203 0)
(9.36675 -0.0227918 0)
(9.28211 -0.0302252 0)
(9.20232 -0.0217878 0)
(9.13253 -0.0212274 0)
(9.07015 -0.0210398 0)
(9.08962 -0.0276948 0)
(10.2592 0.0928019 0)
(10.7814 0.199339 0)
(10.9594 0.245656 0)
(10.7469 0.229144 0)
(10.5875 0.172969 0)
(10.4527 0.115535 0)
(10.33 0.0823315 0)
(10.2327 0.06473 0)
(10.155 0.0524766 0)
(10.0894 0.0472337 0)
(10.0323 0.0469927 0)
(9.98212 0.0489904 0)
(9.93785 0.0517978 0)
(9.89833 0.0519428 0)
(9.86151 0.0483253 0)
(9.82886 0.0438436 0)
(9.79429 0.0300809 0)
(9.76827 0.0102864 0)
(9.87768 -0.24504 0)
(9.74285 0.00579116 0)
(10.1971 0.125744 0)
(10.3245 0.179364 0)
(10.3564 0.161548 0)
(10.3311 0.120077 0)
(10.2777 0.0904942 0)
(10.2252 0.0746659 0)
(10.1812 0.0658753 0)
(10.1438 0.0600289 0)
(10.1103 0.0562085 0)
(10.0799 0.0536512 0)
(10.052 0.0511366 0)
(10.026 0.0487625 0)
(10.0023 0.0460758 0)
(9.98118 0.0417685 0)
(9.95915 0.0316716 0)
(9.93459 0.0135804 0)
(9.83416 -0.443933 0)
(9.57654 -0.163146 0)
(9.91603 0.0336708 0)
(10.0933 0.134225 0)
(10.1892 0.145473 0)
(10.2168 0.120739 0)
(10.205 0.0978954 0)
(10.1824 0.0839096 0)
(10.1599 0.0756297 0)
(10.1389 0.0697124 0)
(10.119 0.0651346 0)
(10.1001 0.0616377 0)
(10.0821 0.0586135 0)
(10.0648 0.0562296 0)
(10.0483 0.0538552 0)
(10.0325 0.0501456 0)
(10.0148 0.0424197 0)
(9.99178 0.0306158 0)
(9.87825 -0.387476 0)
(9.61653 -0.196147 0)
(9.81623 -0.01867 0)
(9.96136 0.0916132 0)
(10.0698 0.122197 0)
(10.1219 0.113628 0)
(10.1354 0.0992644 0)
(10.1332 0.0884212 0)
(10.1257 0.0809486 0)
(10.1162 0.0753967 0)
(10.1056 0.0711243 0)
(10.0946 0.0678821 0)
(10.0833 0.0652545 0)
(10.0718 0.063157 0)
(10.0601 0.0610452 0)
(10.0477 0.0581075 0)
(10.0328 0.0530825 0)
(10.0125 0.0469055 0)
(9.91439 -0.28804 0)
(9.68304 -0.185176 0)
(9.78717 -0.0532072 0)
(9.88917 0.0509996 0)
(9.98796 0.0936803 0)
(10.0476 0.0992042 0)
(10.0751 0.0938745 0)
(10.0861 0.0875183 0)
(10.0892 0.0821207 0)
(10.0879 0.0777647 0)
(10.0842 0.074351 0)
(10.0789 0.0717604 0)
(10.0726 0.0697422 0)
(10.0654 0.0681725 0)
(10.0572 0.0667265 0)
(10.0476 0.0650443 0)
(10.0354 0.0627846 0)
(10.0185 0.0611726 0)
(9.93763 -0.214041 0)
(9.74856 -0.167535 0)
(9.79244 -0.0752151 0)
(9.85608 0.0162208 0)
(9.93595 0.0644223 0)
(9.99281 0.0805955 0)
(10.0261 0.0835615 0)
(10.0447 0.0822437 0)
(10.0546 0.0797796 0)
(10.0593 0.0772877 0)
(10.0606 0.0751761 0)
(10.0596 0.0735594 0)
(10.057 0.0723897 0)
(10.053 0.0716358 0)
(10.0477 0.0711915 0)
(10.0407 0.0710169 0)
(10.0312 0.0712795 0)
(10.0182 0.0731538 0)
(9.95263 -0.167334 0)
(9.79947 -0.149676 0)
(9.81177 -0.0846411 0)
(9.84959 -0.00620997 0)
(9.9114 0.0419323 0)
(9.96107 0.0638974 0)
(9.99432 0.0725503 0)
(10.0156 0.0752865 0)
(10.0288 0.0755302 0)
(10.0367 0.0749038 0)
(10.041 0.0741481 0)
(10.0427 0.0735821 0)
(10.0425 0.0733236 0)
(10.0408 0.0734492 0)
(10.0375 0.0740065 0)
(10.0325 0.0751373 0)
(10.0254 0.0772059 0)
(10.0157 0.0812059 0)
(9.96406 -0.132089 0)
(9.84003 -0.131988 0)
(9.83337 -0.0876897 0)
(9.85306 -0.0213324 0)
(9.89927 0.024416 0)
(9.94102 0.0495134 0)
(9.97207 0.0621237 0)
(9.99385 0.0680771 0)
(10.0086 0.0706963 0)
(10.0184 0.0717949 0)
(10.0246 0.072318 0)
(10.0282 0.072754 0)
(10.0298 0.073361 0)
(10.0297 0.0743196 0)
(10.028 0.0757878 0)
(10.0248 0.0780086 0)
(10.0197 0.0814119 0)
(10.0129 0.086809 0)
(9.97418 -0.100205 0)
(9.87757 -0.11239 0)
(9.85857 -0.085366 0)
(9.86387 -0.0323325 0)
(9.89487 0.00892927 0)
(9.92743 0.0352244 0)
(9.95439 0.0507175 0)
(9.97502 0.0594973 0)
(9.99015 0.0644445 0)
(10.0009 0.0673598 0)
(10.0085 0.0692986 0)
(10.0135 0.0708784 0)
(10.0166 0.0724771 0)
(10.018 0.0743699 0)
(10.0179 0.0768026 0)
(10.0164 0.0800772 0)
(10.0136 0.0846189 0)
(10.0095 0.0910442 0)
(9.98253 -0.0727091 0)
(9.91035 -0.0921962 0)
(9.88507 -0.078244 0)
(9.88001 -0.0386072 0)
(9.89746 -0.00337353 0)
(9.92043 0.0221694 0)
(9.94196 0.0391849 0)
(9.95999 0.0500816 0)
(9.97425 0.0570568 0)
(9.98518 0.0617056 0)
(9.99339 0.0650802 0)
(9.99941 0.0678641 0)
(10.0037 0.0705171 0)
(10.0064 0.0733854 0)
(10.0078 0.0767707 0)
(10.0081 0.0809929 0)
(10.0073 0.0864255 0)
(10.0058 0.0935045 0)
(9.98894 -0.0502566 0)
(9.93733 -0.072378 0)
(9.91073 -0.0674478 0)
(9.89917 -0.0399824 0)
(9.90566 -0.0116492 0)
(9.91955 0.0114528 0)
(9.93496 0.0285313 0)
(9.94934 0.0405811 0)
(9.96169 0.0490253 0)
(9.97188 0.0551124 0)
(9.98009 0.0597806 0)
(9.98659 0.0637038 0)
(9.99163 0.0673723 0)
(9.99544 0.0711654 0)
(9.9982 0.0754044 0)
(10.0001 0.0803916 0)
(10.0013 0.0864273 0)
(10.0021 0.093795 0)
(9.99348 -0.0329085 0)
(9.9582 -0.0538108 0)
(9.93368 -0.0542832 0)
(9.91898 -0.0367868 0)
(9.91755 -0.0154527 0)
(9.92366 0.00399567 0)
(9.93301 0.0197764 0)
(9.94318 0.0318776 0)
(9.9529 0.0410117 0)
(9.96163 0.0480217 0)
(9.96922 0.0536485 0)
(9.9757 0.0584848 0)
(9.98118 0.0629936 0)
(9.98578 0.0675426 0)
(9.98965 0.0724356 0)
(9.99294 0.0779324 0)
(9.99587 0.0842551 0)
(9.9987 0.0915749 0)
(9.99643 -0.0202024 0)
(9.97327 -0.0372096 0)
(9.95261 -0.040045 0)
(9.93731 -0.02981 0)
(9.9309 -0.0148228 0)
(9.93102 0.000367457 0)
(9.93504 0.0137753 0)
(9.94104 0.0248439 0)
(9.94782 0.0337602 0)
(9.95465 0.0409924 0)
(9.96117 0.0470511 0)
(9.96724 0.0523962 0)
(9.97281 0.057413 0)
(9.9779 0.0624164 0)
(9.98261 0.0676607 0)
(9.98704 0.0733479 0)
(9.99135 0.0796289 0)
(9.99573 0.086597 0)
(9.99816 -0.0112875 0)
(9.9833 -0.0229302 0)
(9.96682 -0.0257621 0)
(9.95243 -0.020076 0)
(9.94344 -0.0102409 0)
(9.93952 0.000676034 0)
(9.9394 0.0110312 0)
(9.94183 0.0201452 0)
(9.94582 0.0279265 0)
(9.95069 0.0345733 0)
(9.95597 0.0403871 0)
(9.96139 0.0456777 0)
(9.96681 0.0507233 0)
(9.97216 0.0557558 0)
(9.97744 0.0609592 0)
(9.9827 0.0664701 0)
(9.98803 0.0723778 0)
(9.99354 0.078723 0)
(9.99906 -0.00508066 0)
(9.98922 -0.0107804 0)
(9.97612 -0.0119162 0)
(9.96309 -0.00848188 0)
(9.9531 -0.00243362 0)
(9.94685 0.00457986 0)
(9.94399 0.0115588 0)
(9.94384 0.0180221 0)
(9.9457 0.0238405 0)
(9.94896 0.0290824 0)
(9.95317 0.0339033 0)
(9.95799 0.0384799 0)
(9.96321 0.0429769 0)
(9.96868 0.0475316 0)
(9.97435 0.0522484 0)
(9.98019 0.0571968 0)
(9.98623 0.0624122 0)
(9.99249 0.0678971 0)
(9.99942 -0.000367025 0)
(9.99181 0.000152192 0)
(9.98042 0.00183308 0)
(9.96821 0.00459468 0)
(9.9579 0.00792131 0)
(9.95061 0.011403 0)
(9.94642 0.0148183 0)
(9.94498 0.0180903 0)
(9.94576 0.0212357 0)
(9.94825 0.0243208 0)
(9.95198 0.0274266 0)
(9.95661 0.0306303 0)
(9.96186 0.0339942 0)
(9.96757 0.0375624 0)
(9.97362 0.0413586 0)
(9.97993 0.0453875 0)
(9.98648 0.049635 0)
(9.99325 0.0540711 0)
(9.99935 0.004085 0)
(9.9911 0.0111737 0)
(9.97897 0.0161342 0)
(9.96616 0.0187378 0)
(9.95552 0.0196142 0)
(9.94819 0.019548 0)
(9.94419 0.0191613 0)
(9.94312 0.0188643 0)
(9.94438 0.0188974 0)
(9.94741 0.0193778 0)
(9.95174 0.0203463 0)
(9.95699 0.0217974 0)
(9.96287 0.0237006 0)
(9.96919 0.0260108 0)
(9.97583 0.0286764 0)
(9.9827 0.0316409 0)
(9.98974 0.0348461 0)
(9.99692 0.0382314 0)
(9.99882 0.00972994 0)
(9.98675 0.0240493 0)
(9.97122 0.0318475 0)
(9.95641 0.033295 0)
(9.94558 0.0307056 0)
(9.93942 0.0263518 0)
(9.93734 0.0217493 0)
(9.93845 0.0177406 0)
(9.94186 0.0146964 0)
(9.94687 0.0127124 0)
(9.95292 0.011733 0)
(9.95963 0.0116391 0)
(9.96674 0.0122916 0)
(9.97408 0.0135546 0)
(9.98155 0.0153028 0)
(9.98908 0.0174263 0)
(9.99665 0.0198282 0)
(10.0042 0.0224249 0)
(9.99757 0.0182101 0)
(9.97773 0.0404558 0)
(9.95664 0.0495784 0)
(9.93945 0.04748 0)
(9.92961 0.0394253 0)
(9.92659 0.0296487 0)
(9.92849 0.0204918 0)
(9.93357 0.0129681 0)
(9.94055 0.00734991 0)
(9.94856 0.00351902 0)
(9.95704 0.00122465 0)
(9.96568 0.000176948 0)
(9.97428 0.000112452 0)
(9.98276 0.000797503 0)
(9.99109 0.00204491 0)
(9.99925 0.00370173 0)
(10.0073 0.00564485 0)
(10.0151 0.00777778 0)
(9.99502 0.0318146 0)
(9.96177 0.0621341 0)
(9.93372 0.0695522 0)
(9.91534 0.0601161 0)
(9.90932 0.0439522 0)
(9.91249 0.0276615 0)
(9.92084 0.0139949 0)
(9.93162 0.00364001 0)
(9.94323 -0.00364174 0)
(9.9548 -0.00837357 0)
(9.96595 -0.0111295 0)
(9.97653 -0.0123912 0)
(9.98651 -0.012565 0)
(9.99595 -0.0119511 0)
(10.0049 -0.0107858 0)
(10.0135 -0.00924458 0)
(10.0217 -0.00745708 0)
(10.0296 -0.00552261 0)
(9.99018 0.0534619 0)
(9.93561 0.0901523 0)
(9.90098 0.0906284 0)
(9.88515 0.0687577 0)
(9.8878 0.0418198 0)
(9.90121 0.0186594 0)
(9.91856 0.00141784 0)
(9.93627 -0.0103962 0)
(9.95285 -0.0179413 0)
(9.96786 -0.0223936 0)
(9.9813 -0.0246484 0)
(9.99333 -0.0253873 0)
(10.0042 -0.0250884 0)
(10.0141 -0.0241087 0)
(10.0232 -0.022686 0)
(10.0318 -0.0209904 0)
(10.0399 -0.019145 0)
(10.0475 -0.0172228 0)
(9.9819 0.0862471 0)
(9.89548 0.124258 0)
(9.85817 0.109884 0)
(9.85209 0.0697744 0)
(9.87033 0.0303386 0)
(9.89842 0.00144932 0)
(9.92658 -0.0172043 0)
(9.95135 -0.0283211 0)
(9.9722 -0.0344208 0)
(9.9896 -0.0373307 0)
(10.0043 -0.0382064 0)
(10.0168 -0.0377975 0)
(10.0276 -0.03661 0)
(10.0372 -0.0349683 0)
(10.0459 -0.0330717 0)
(10.0539 -0.0310689 0)
(10.0613 -0.029051 0)
(10.0683 -0.0270601 0)
(9.96925 0.13399 0)
(9.83823 0.163089 0)
(9.80793 0.122591 0)
(9.82311 0.0588003 0)
(9.86512 0.0073086 0)
(9.91138 -0.0240262 0)
(9.95035 -0.0405907 0)
(9.98048 -0.048372 0)
(10.0034 -0.0512368 0)
(10.0212 -0.0515395 0)
(10.0354 -0.0504168 0)
(10.0469 -0.0485108 0)
(10.0565 -0.0462496 0)
(10.0649 -0.0438487 0)
(10.0723 -0.041411 0)
(10.079 -0.0390534 0)
(10.0852 -0.036865 0)
(10.0911 -0.0348085 0)
(9.94951 0.207141 0)
(9.76128 0.207022 0)
(9.75726 0.123478 0)
(9.81042 0.0320113 0)
(9.88382 -0.0278606 0)
(9.94874 -0.0559946 0)
(9.99526 -0.0660729 0)
(10.0266 -0.0678024 0)
(10.048 -0.0659743 0)
(10.063 -0.0631948 0)
(10.0743 -0.0598871 0)
(10.083 -0.0564936 0)
(10.09 -0.0531441 0)
(10.0959 -0.05012 0)
(10.1011 -0.0472753 0)
(10.1056 -0.0446415 0)
(10.1099 -0.0423613 0)
(10.114 -0.0402919 0)
(9.91094 0.322718 0)
(9.65923 0.254545 0)
(9.71887 0.107407 0)
(9.83329 -0.0119228 0)
(9.94173 -0.0726522 0)
(10.0199 -0.0901623 0)
(10.0662 -0.0893226 0)
(10.0917 -0.0831395 0)
(10.1058 -0.0760395 0)
(10.1141 -0.0696208 0)
(10.1198 -0.0644975 0)
(10.1236 -0.0600789 0)
(10.1262 -0.0563768 0)
(10.1281 -0.0532568 0)
(10.1299 -0.0503077 0)
(10.1313 -0.0475393 0)
(10.1327 -0.0454148 0)
(10.1344 -0.0437095 0)
(9.84404 0.43511 0)
(9.53798 0.261026 0)
(9.7269 0.0591351 0)
(9.92367 -0.0731152 0)
(10.0584 -0.121552 0)
(10.1344 -0.120191 0)
(10.1664 -0.105281 0)
(10.1758 -0.0906184 0)
(10.1759 -0.0784831 0)
(10.1726 -0.0703799 0)
(10.1686 -0.0644381 0)
(10.1647 -0.0597639 0)
(10.1605 -0.0556905 0)
(10.1569 -0.0526448 0)
(10.1537 -0.0498186 0)
(10.1504 -0.047067 0)
(10.1474 -0.0455498 0)
(10.1458 -0.0445229 0)
(9.83598 0.319666 0)
(9.55021 0.0912513 0)
(9.91739 -0.0687253 0)
(10.1507 -0.160112 0)
(10.2634 -0.172136 0)
(10.3032 -0.142727 0)
(10.2978 -0.112095 0)
(10.276 -0.0899559 0)
(10.2516 -0.0753886 0)
(10.2302 -0.0674589 0)
(10.2132 -0.0619466 0)
(10.1984 -0.0574659 0)
(10.1843 -0.0528838 0)
(10.1714 -0.0489136 0)
(10.1601 -0.044956 0)
(10.1492 -0.0416356 0)
(10.1401 -0.0411326 0)
(10.133 -0.0405929 0)
(10.2049 -0.0633775 0)
(10.4095 -0.191706 0)
(10.7164 -0.282558 0)
(10.6879 -0.282287 0)
(10.6191 -0.230103 0)
(10.5417 -0.163668 0)
(10.4545 -0.117044 0)
(10.3763 -0.0925014 0)
(10.3137 -0.0798688 0)
(10.2654 -0.0678693 0)
(10.2262 -0.0589188 0)
(10.1917 -0.0543241 0)
(10.1604 -0.0537151 0)
(10.1329 -0.0526847 0)
(10.1064 -0.0517451 0)
(10.0823 -0.0506229 0)
(10.065 -0.0449214 0)
(10.047 -0.0399317 0)
(9.41631 4.45107 0)
(12.7294 2.07612 0)
(12.5649 0.621213 0)
(11.569 0.127658 0)
(10.9309 0.00343498 0)
(10.5866 -0.00206732 0)
(10.3638 0.0123106 0)
(10.2022 0.0302358 0)
(10.0795 0.041206 0)
(9.97727 0.0358132 0)
(9.88482 0.0251218 0)
(9.79873 0.0219466 0)
(9.72289 0.0252793 0)
(9.65533 0.0212709 0)
(9.59834 0.0166202 0)
(9.55061 0.01578 0)
(9.49778 -0.00227276 0)
(9.44717 -0.027208 0)
(-0.0275198 0.0934364 0)
(0.137017 -0.183502 0)
(0.324982 -0.305889 0)
(0.525467 -0.315112 0)
(0.702942 -0.272068 0)
(0.83349 -0.211076 0)
(0.909809 -0.146337 -8.60217e-20)
(0.94039 -0.0824928 8.66458e-20)
(0.919517 -0.0201704 0)
(0.858833 0.0345396 9.18665e-20)
(0.771677 0.0739623 0)
(0.672415 0.0920071 0)
(0.578493 0.0877254 0)
(0.505692 0.0666645 -1.43208e-19)
(0.455741 0.0377111 0)
(0.412399 0.00997481 0)
(0.352869 -0.00897227 1.87935e-19)
(0.262713 -0.0086797 0)
(0.135173 0.0293027 0)
(-0.0448121 0.112944 0)
(-0.300521 0.186488 -1.64821e-19)
(-0.594219 0.235259 0)
(-0.915639 0.266818 -7.6241e-20)
(-1.25189 0.296035 0)
(-1.59132 0.323654 0)
(-1.93106 0.336463 -4.13233e-20)
(-2.26348 0.335615 0)
(-2.5806 0.326493 3.45412e-20)
(-2.87937 0.310355 0)
(-3.15639 0.289555 -3.13421e-20)
(-3.41074 0.266419 0)
(-3.64204 0.242539 0)
(-3.85101 0.218949 0)
(-4.03875 0.196355 0)
(-4.2067 0.175133 0)
(-4.35642 0.15549 2.82301e-20)
(-4.48948 0.137462 0)
(-4.6074 0.120977 -5.55716e-20)
(-4.71153 0.105908 0)
(-4.8031 0.0920964 5.4773e-20)
(-4.88316 0.0793788 0)
(-4.95261 0.0676038 0)
(-5.01221 0.0566433 -5.35509e-20)
(-5.06258 0.0464007 0)
(-5.10421 0.0368167 -5.26592e-20)
(-5.13753 0.0278742 5.21813e-20)
(-5.16293 0.0196174 0)
(-5.1808 0.0121942 5.11545e-20)
(-5.19141 0.00585253 5.06021e-20)
(-5.19493 0.000802698 0)
(-5.19262 -0.00315096 0)
(-5.1857 -0.00644931 0)
(-5.17431 -0.0093718 0)
(-5.15879 -0.0120825 0)
(-5.13929 -0.0146512 -4.61826e-20)
(-5.11595 -0.0170912 0)
(-5.08888 -0.0194142 4.43174e-20)
(-5.05818 -0.0216289 0)
(-5.02397 -0.0237376 0)
(-4.98633 -0.0257422 -4.11393e-20)
(-4.94538 -0.027643 0)
(-4.90121 -0.0294401 3.87637e-20)
(-4.85396 -0.0311333 0)
(-4.80371 -0.0327224 0)
(-4.7506 -0.0342075 0)
(-4.69474 -0.0355885 -3.33842e-20)
(-4.63625 -0.0368656 0)
(-4.57526 -0.0380401 0)
(-4.5119 -0.0391122 -2.87869e-20)
(-4.44629 -0.0400829 0)
(-4.37857 -0.0409536 -2.54456e-20)
(-4.30887 -0.0417257 0)
(-4.23732 -0.0424009 0)
(-4.16405 -0.0429811 0)
(-4.08919 -0.0434683 1.80683e-20)
(-4.01288 -0.0438647 0)
(-3.93524 -0.0441725 0)
(-3.85639 -0.044394 1.18863e-20)
(-3.77647 -0.0445318 9.69254e-21)
(-3.69559 -0.0445882 0)
(-3.61388 -0.0445664 5.09074e-21)
(-3.53144 -0.0444695 0)
(-3.4484 -0.0443017 3.65484e-22)
(-3.36486 -0.0440677 0)
(-3.28091 -0.0437741 -1.01243e-20)
(-3.19666 -0.0434297 0)
(-3.1122 -0.0430475 2.1367e-20)
(-3.0276 -0.0426466 0)
(-2.94294 -0.0422557 0)
(-2.85827 -0.0419177 0)
(-2.77363 -0.0416945 -4.65592e-20)
(-2.68905 -0.0416687 0)
(-2.60453 -0.0419303 6.08346e-20)
(-2.52005 -0.0425354 0)
(-2.43555 -0.0434253 -7.65046e-20)
(-2.3513 -0.044328 -8.48834e-20)
(-2.26753 -0.0447829 -9.35919e-20)
(-2.18451 -0.044575 0)
(-2.1024 -0.0439702 0)
(-2.02122 -0.0432718 0)
(-1.94098 -0.0425668 0)
(-1.86169 -0.0418666 0)
(-1.78338 -0.0411722 0)
(-1.70607 -0.0404852 0)
(-1.62978 -0.0398096 0)
(-1.55454 -0.0391509 1.92705e-19)
(-1.48036 -0.0385164 2.07026e-19)
(-1.40726 -0.0379114 0)
(-1.33525 -0.0373249 0)
(-1.26436 -0.0366997 0)
(-1.19463 -0.0360421 2.74295e-19)
(-1.12605 -0.035408 0)
(-1.05864 -0.0347926 0)
(-0.992391 -0.034197 0)
(-0.927308 -0.033623 0)
(-0.863389 -0.0330726 -3.90937e-19)
(-0.800635 -0.0325484 0)
(-0.739041 -0.0320534 0)
(-0.6786 -0.0315913 4.89119e-19)
(-0.619305 -0.0311634 -5.28819e-19)
(-0.561151 -0.0307734 0)
(-0.504128 -0.0304316 -6.22431e-19)
(-0.448224 -0.0301619 0)
(-0.393421 -0.0300088 7.41413e-19)
(-0.339697 -0.0299833 0)
(-0.287037 -0.030047 0)
(-0.235428 -0.0301867 0)
(-0.18484 -0.0304135 0)
(-0.135247 -0.0307429 0)
(-0.0866943 -0.0311936 -2.84661e-18)
(-0.039393 -0.0316478 -3.27731e-18)
(0.00671001 -0.0313486 0)
(0.0521253 -0.0298513 0)
(0.0968636 -0.028001 0)
(0.140783 -0.026283 2.68484e-18)
(0.183791 -0.0247501 0)
(0.225867 -0.0233766 0)
(0.267032 -0.022139 0)
(0.307321 -0.0210174 2.04e-18)
(0.346763 -0.0199946 -1.93372e-18)
(0.385386 -0.0190564 0)
(0.423217 -0.0181913 0)
(0.460281 -0.0173901 -1.68696e-18)
(0.496602 -0.0166454 -1.62229e-18)
(0.532203 -0.0159509 0)
(0.567107 -0.0153015 0)
(0.601337 -0.014693 1.46401e-18)
(0.634916 -0.0141216 -1.42052e-18)
(0.667866 -0.0135843 0)
(0.700209 -0.0130786 0)
(0.731968 -0.012602 -1.31023e-18)
(0.763166 -0.0121525 0)
(0.793826 -0.0117285 0)
(0.82397 -0.0113284 -1.22271e-18)
(0.853622 -0.0109507 0)
(0.882805 -0.0105942 -1.17362e-18)
(0.911543 -0.0102577 0)
(0.939859 -0.00994021 0)
(0.967775 -0.0096406 0)
(0.995314 -0.00935781 1.09161e-18)
(1.0225 -0.00909073 0)
(1.04935 -0.00883809 0)
(1.07588 -0.00859842 0)
(1.10211 -0.00836996 0)
(1.12805 -0.00815042 0)
(1.15369 -0.0079369 0)
(1.17904 -0.00772554 9.82791e-19)
(1.20408 -0.00751119 9.69868e-19)
(1.22875 -0.00728684 0)
(1.253 -0.00704298 0)
(1.27671 -0.00676607 0)
(1.29972 -0.00643755 -9.24513e-19)
(1.3218 -0.00602765 0)
(1.34253 -0.00549766 1.81391e-18)
(1.36147 -0.00476056 -1.80053e-18)
(1.37722 -0.0037249 -1.7918e-18)
(1.3898 -0.00195354 1.7901e-18)
(1.39022 0.00132809 -1.79548e-18)
(1.38753 0.00807558 1.8088e-18)
(1.30826 0.0198893 0)
(0.0963165 -0.268976 0)
(0.334071 -0.681264 0)
(0.514177 -0.706518 1.57364e-19)
(0.611817 -0.571344 0)
(0.662814 -0.408897 -1.11142e-19)
(0.683254 -0.253825 -1.08108e-19)
(0.677229 -0.112174 -5.62564e-20)
(0.646856 0.0155837 -5.62017e-20)
(0.603879 0.125402 0)
(0.544685 0.211924 -6.08103e-20)
(0.467876 0.267401 0)
(0.373392 0.283204 0)
(0.257592 0.256436 1.70498e-19)
(0.110264 0.211435 9.82884e-20)
(-0.0747597 0.20628 -1.84472e-19)
(-0.301025 0.271826 -1.43805e-19)
(-0.579001 0.383398 -5.71929e-20)
(-0.904928 0.513234 0)
(-1.25851 0.642598 0)
(-1.61662 0.756428 0)
(-1.97223 0.841986 -2.85766e-20)
(-2.31782 0.895556 0)
(-2.64772 0.919043 6.90664e-20)
(-2.95444 0.915465 0)
(-3.23395 0.88903 0)
(-3.48459 0.844865 1.98204e-20)
(-3.70497 0.788299 0)
(-3.89591 0.724865 -1.97626e-20)
(-4.0593 0.658791 -4.17994e-20)
(-4.19869 0.59279 2.01694e-20)
(-4.31699 0.528964 0)
(-4.41708 0.469096 0)
(-4.5017 0.414016 0)
(-4.57323 0.364077 -4.42607e-20)
(-4.63374 0.319238 -4.47671e-20)
(-4.68492 0.279228 -2.21907e-20)
(-4.72815 0.243636 0)
(-4.76454 0.21198 4.53092e-20)
(-4.79498 0.183763 0)
(-4.82019 0.158503 -4.58809e-20)
(-4.84075 0.135759 0)
(-4.85716 0.115138 0)
(-4.86983 0.0962985 4.60914e-20)
(-4.87916 0.07895 0)
(-4.88546 0.0628519 1.38175e-19)
(-4.88905 0.04781 -4.56119e-20)
(-4.89023 0.0336889 0)
(-4.88921 0.020458 -4.49427e-20)
(-4.88628 0.00823368 -4.4486e-20)
(-4.88169 -0.00282208 0)
(-4.87454 -0.0127651 0)
(-4.86372 -0.0218911 0)
(-4.84921 -0.0304435 0)
(-4.83092 -0.0385366 0)
(-4.80888 -0.0462402 4.022e-20)
(-4.78314 -0.0535912 7.91704e-20)
(-4.75378 -0.0606108 -3.84427e-20)
(-4.72089 -0.0673101 0)
(-4.68456 -0.073695 7.3492e-20)
(-4.64487 -0.0797681 -3.59697e-20)
(-4.60193 -0.0855301 0)
(-4.55584 -0.0909807 -3.32696e-20)
(-4.5067 -0.09612 0)
(-4.45462 -0.100949 0)
(-4.39972 -0.10547 -5.98974e-20)
(-4.34211 -0.109683 2.83881e-20)
(-4.28191 -0.113587 -5.47058e-20)
(-4.21925 -0.117187 5.1987e-20)
(-4.15424 -0.120485 2.42964e-20)
(-4.08701 -0.123486 0)
(-4.01769 -0.126195 2.13634e-20)
(-3.94641 -0.128618 0)
(-3.87329 -0.130762 0)
(-3.79847 -0.132634 0)
(-3.72207 -0.134242 1.56369e-20)
(-3.64421 -0.135594 0)
(-3.56503 -0.1367 2.3771e-20)
(-3.48465 -0.137571 -2.99807e-20)
(-3.40318 -0.138215 -7.94381e-21)
(-3.32076 -0.138644 0)
(-3.23748 -0.138869 -4.1431e-21)
(-3.15347 -0.138901 0)
(-3.06884 -0.138753 -2.95271e-22)
(-2.98368 -0.138436 0)
(-2.89811 -0.137963 8.11074e-21)
(-2.81221 -0.137346 -2.35634e-20)
(-2.72609 -0.136595 -1.69641e-20)
(-2.63983 -0.135722 0)
(-2.55353 -0.134735 0)
(-2.46728 -0.133639 0)
(-2.38117 -0.132433 3.61826e-20)
(-2.29531 -0.131109 0)
(-2.20985 -0.129639 -4.66544e-20)
(-2.12493 -0.127967 0)
(-2.04069 -0.126041 1.71877e-19)
(-1.9572 -0.123886 6.36311e-20)
(-1.87448 -0.121603 6.96626e-20)
(-1.79246 -0.119298 0)
(-1.71113 -0.11703 0)
(-1.63054 -0.114796 0)
(-1.55075 -0.112573 0)
(-1.47182 -0.110349 0)
(-1.39379 -0.108118 2.19492e-19)
(-1.31669 -0.105881 2.34985e-19)
(-1.24055 -0.103642 0)
(-1.16539 -0.101403 -1.34761e-19)
(-1.09125 -0.0991674 -1.43541e-19)
(-1.01815 -0.0969364 0)
(-0.94611 -0.0947123 -3.23038e-19)
(-0.875148 -0.0924995 0)
(-0.805258 -0.0903115 1.81325e-19)
(-0.736449 -0.0881541 0)
(-0.668732 -0.0860276 0)
(-0.602111 -0.0839343 -4.34454e-19)
(-0.536589 -0.0818756 0)
(-0.472167 -0.0798532 2.44834e-19)
(-0.408845 -0.07787 0)
(-0.346621 -0.0759317 0)
(-0.285489 -0.0740472 2.89772e-19)
(-0.225441 -0.0722145 3.09077e-19)
(-0.166469 -0.0704282 0)
(-0.108569 -0.0686913 -3.46371e-19)
(-0.0517443 -0.067004 0)
(0.00400696 -0.0653576 3.8264e-19)
(0.0587266 -0.0637454 7.66197e-19)
(0.112448 -0.0621785 0)
(0.165172 -0.0606718 0)
(0.216899 -0.0592297 0)
(0.267643 -0.0578499 0)
(0.317437 -0.0565348 7.09247e-19)
(0.366351 -0.0552731 2.09647e-18)
(0.414473 -0.0538947 0)
(0.461713 -0.0522495 0)
(0.507933 -0.0504755 0)
(0.553201 -0.0487287 -6.65637e-19)
(0.5976 -0.047061 0)
(0.641156 -0.0454808 0)
(0.683888 -0.0439856 1.28795e-18)
(0.725817 -0.042569 6.36957e-19)
(0.766963 -0.0412234 6.32433e-19)
(0.80735 -0.0399423 0)
(0.846997 -0.0387202 0)
(0.885926 -0.0375527 6.15888e-19)
(0.924159 -0.036436 -6.09652e-19)
(0.961718 -0.0353672 0)
(0.998623 -0.0343439 0)
(1.0349 -0.0333638 -5.96793e-19)
(1.07056 -0.0324252 1.7764e-18)
(1.10563 -0.0315264 0)
(1.14014 -0.030666 0)
(1.17409 -0.0298429 5.80323e-19)
(1.20753 -0.0290558 0)
(1.24046 -0.0283036 1.14494e-18)
(1.27291 -0.0275853 -5.68536e-19)
(1.3049 -0.0269 0)
(1.33646 -0.0262466 5.62422e-19)
(1.3676 -0.0256241 1.11756e-18)
(1.39835 -0.0250315 0)
(1.42872 -0.0244675 0)
(1.45875 -0.0239306 -5.49585e-19)
(1.48845 -0.023419 0)
(1.51783 -0.0229305 1.08646e-18)
(1.54691 -0.0224623 0)
(1.57571 -0.0220104 0)
(1.60424 -0.0215698 0)
(1.63249 -0.0211341 0)
(1.66045 -0.0206941 -5.29005e-19)
(1.68812 -0.0202379 -5.26236e-19)
(1.71545 -0.019749 0)
(1.74238 -0.0192047 0)
(1.76882 -0.0185735 0)
(1.79463 -0.0178098 5.1614e-19)
(1.81961 -0.0168465 0)
(1.84343 -0.0155804 -1.02486e-18)
(1.86567 -0.0138347 1.0226e-18)
(1.88541 -0.0113246 1.02222e-18)
(1.90221 -0.00730973 1.02331e-18)
(1.91241 -0.000519198 1.02847e-18)
(1.92472 0.0124243 1.02036e-18)
(1.90515 0.0361859 0)
(0.116441 -0.859707 0)
(0.269017 -1.05683 0)
(0.31611 -0.826008 -1.26333e-19)
(0.315417 -0.584236 -1.08172e-19)
(0.297987 -0.373771 1.00491e-19)
(0.266779 -0.188644 1.00673e-19)
(0.220597 -0.023185 -6.44885e-22)
(0.158702 0.124558 0)
(0.0809657 0.2551 0)
(-0.0138469 0.366018 0)
(-0.129293 0.451728 0)
(-0.273437 0.512789 0)
(-0.459196 0.566613 -2.67343e-19)
(-0.697055 0.641348 0)
(-0.983279 0.753903 6.62788e-20)
(-1.30201 0.89587 5.71776e-20)
(-1.6353 1.04398 0)
(-1.96623 1.17799 0)
(-2.27957 1.28538 0)
(-2.56346 1.35909 0)
(-2.81257 1.39483 3.49052e-20)
(-3.02651 1.39239 0)
(-3.20665 1.35643 -3.23478e-20)
(-3.35585 1.29419 0)
(-3.47855 1.21299 0)
(-3.57938 1.11922 0)
(-3.66313 1.01897 -6.85901e-20)
(-3.73417 0.917581 0)
(-3.79604 0.819175 3.31186e-20)
(-3.8515 0.72655 -7.07036e-20)
(-3.90248 0.641221 0)
(-3.95027 0.563924 0)
(-3.99562 0.494711 0)
(-4.03892 0.433195 3.65657e-20)
(-4.08026 0.37873 3.71531e-20)
(-4.11959 0.330541 0)
(-4.15679 0.287834 0)
(-4.19168 0.249847 -7.78032e-20)
(-4.22407 0.215886 -7.81961e-20)
(-4.25381 0.18534 7.84291e-20)
(-4.28076 0.157691 0)
(-4.30479 0.13251 0)
(-4.32582 0.109449 0)
(-4.34377 0.0882232 0)
(-4.35859 0.0685991 -7.70127e-20)
(-4.37022 0.0503768 -7.69146e-20)
(-4.37858 0.0333722 7.62717e-20)
(-4.38355 0.0173844 0)
(-4.38495 0.00215689 0)
(-4.38262 -0.0125966 0)
(-4.3765 -0.0270093 0)
(-4.36665 -0.0409944 -7.1108e-20)
(-4.35313 -0.0544602 0)
(-4.33597 -0.0673953 0)
(-4.31522 -0.0798041 -6.69963e-20)
(-4.29092 -0.0916952 -6.49706e-20)
(-4.26314 -0.103076 0)
(-4.23196 -0.113951 1.24573e-19)
(-4.19744 -0.124322 -6.00326e-20)
(-4.15968 -0.134188 5.8256e-20)
(-4.11876 -0.143549 0)
(-4.07478 -0.152402 0)
(-4.02784 -0.160745 0)
(-3.97804 -0.168577 0)
(-3.92548 -0.175901 4.84244e-20)
(-3.87029 -0.182719 9.37797e-20)
(-3.81258 -0.189031 4.4059e-20)
(-3.75246 -0.194838 -4.17869e-20)
(-3.69004 -0.200148 0)
(-3.62547 -0.204967 7.54284e-20)
(-3.55885 -0.209303 7.05453e-20)
(-3.49031 -0.213165 6.55459e-20)
(-3.41998 -0.216563 -6.04307e-20)
(-3.34798 -0.219509 0)
(-3.27444 -0.222015 -7.41047e-20)
(-3.19947 -0.224096 0)
(-3.12321 -0.225764 2.00972e-20)
(-3.04578 -0.227037 1.58742e-20)
(-2.96729 -0.227929 0)
(-2.88786 -0.228458 0)
(-2.8076 -0.228641 1.53655e-20)
(-2.72664 -0.228496 0)
(-2.64508 -0.22804 2.93113e-21)
(-2.56302 -0.227293 0)
(-2.48058 -0.226273 9.99175e-21)
(-2.39785 -0.225001 3.47112e-20)
(-2.31493 -0.223495 0)
(-2.23192 -0.221774 0)
(-2.14891 -0.219858 0)
(-2.066 -0.217764 4.45763e-20)
(-1.98329 -0.215506 0)
(-1.90087 -0.213096 5.93978e-20)
(-1.81884 -0.210537 0)
(-1.7373 -0.207812 0)
(-1.6563 -0.204895 -1.67041e-19)
(-1.57589 -0.201772 0)
(-1.49608 -0.198456 -9.9307e-20)
(-1.41688 -0.19499 0)
(-1.33832 -0.191432 -1.16586e-19)
(-1.26046 -0.18782 0)
(-1.18335 -0.184173 0)
(-1.10705 -0.180496 0)
(-1.0316 -0.176798 -4.62672e-19)
(-0.957032 -0.173084 -1.65037e-19)
(-0.883378 -0.169362 0)
(-0.810665 -0.165638 0)
(-0.738918 -0.161917 0)
(-0.66816 -0.158206 0)
(-0.598407 -0.154508 2.18832e-19)
(-0.52967 -0.150829 -4.58452e-19)
(-0.461957 -0.147179 -2.42665e-19)
(-0.395278 -0.143566 5.07643e-19)
(-0.329645 -0.139995 5.33441e-19)
(-0.265062 -0.136472 2.8137e-19)
(-0.201532 -0.133001 0)
(-0.139056 -0.12958 6.16207e-19)
(-0.0776347 -0.126213 0)
(-0.0172702 -0.122904 -6.73541e-19)
(0.0420439 -0.119653 -3.45156e-19)
(0.100321 -0.116462 0)
(0.157568 -0.113334 6.93118e-19)
(0.213789 -0.11027 3.48828e-19)
(0.268996 -0.107274 0)
(0.323199 -0.104332 3.48723e-19)
(0.376405 -0.101437 -1.05281e-18)
(0.428624 -0.0985953 0)
(0.47987 -0.0958186 0)
(0.530159 -0.0931094 0)
(0.579509 -0.0904685 0)
(0.627943 -0.0879003 -7.07749e-19)
(0.675494 -0.085412 -7.10242e-19)
(0.722185 -0.0830186 0)
(0.767984 -0.0807072 0)
(0.812874 -0.0784386 0)
(0.856909 -0.0762117 0)
(0.900131 -0.0740427 0)
(0.942557 -0.0719401 0)
(0.9842 -0.0699067 -7.14019e-19)
(1.02508 -0.0679421 -1.08874e-21)
(1.0652 -0.0660448 0)
(1.1046 -0.0642128 0)
(1.14329 -0.0624441 -7.13853e-19)
(1.18129 -0.0607368 0)
(1.21862 -0.0590893 7.14901e-19)
(1.2553 -0.0575002 7.1404e-19)
(1.29135 -0.0559681 0)
(1.32679 -0.0544918 0)
(1.36165 -0.0530702 -7.14573e-19)
(1.39594 -0.0517022 -1.42735e-18)
(1.42969 -0.050387 0)
(1.46291 -0.0491236 0)
(1.49562 -0.047911 0)
(1.52786 -0.0467483 -7.13264e-19)
(1.55963 -0.0456345 7.12882e-19)
(1.59097 -0.0445688 0)
(1.62188 -0.0435499 1.42289e-18)
(1.6524 -0.0425768 7.10423e-19)
(1.68255 -0.041648 -1.42083e-18)
(1.71234 -0.040762 0)
(1.7418 -0.0399168 0)
(1.77094 -0.0391096 -1.41702e-18)
(1.79978 -0.0383373 -7.08219e-19)
(1.82835 -0.0375955 0)
(1.85664 -0.0368785 0)
(1.88468 -0.0361786 0)
(1.91247 -0.0354859 0)
(1.93999 -0.0347867 -1.40687e-18)
(1.96725 -0.0340626 0)
(1.9942 -0.0332889 0)
(2.02081 -0.0324312 0)
(2.04699 -0.0314416 0)
(2.07264 -0.0302518 0)
(2.09757 -0.028761 0)
(2.12153 -0.0268177 -1.39752e-18)
(2.14418 -0.0241703 0)
(2.16485 -0.0204137 0)
(2.18331 -0.0147555 -2.81626e-18)
(2.19675 -0.00587818 1.41815e-18)
(2.21144 0.00887558 -1.41626e-18)
(2.20635 0.036254 1.41172e-18)
(0.0333212 -1.16607 0)
(0.0696831 -1.02976 3.59945e-19)
(0.03393 -0.7468 0)
(-0.010527 -0.506322 1.10881e-19)
(-0.0658621 -0.283603 0)
(-0.133727 -0.0740145 0)
(-0.216973 0.122839 -8.28092e-20)
(-0.317971 0.306221 0)
(-0.43885 0.47569 0)
(-0.582212 0.631803 0)
(-0.751915 0.777097 0)
(-0.953167 0.917672 0)
(-1.1886 1.06164 2.04201e-19)
(-1.45263 1.21241 9.24378e-20)
(-1.73077 1.36374 -8.36896e-20)
(-2.00467 1.50226 0)
(-2.25859 1.61416 0)
(-2.48248 1.69009 0)
(-2.67154 1.72633 0)
(-2.82437 1.72415 0)
(-2.94353 1.6874 6.01641e-20)
(-3.03455 1.62132 5.88473e-20)
(-3.10354 1.53276 -5.79944e-20)
(-3.15685 1.42939 5.76928e-20)
(-3.19984 1.31789 0)
(-3.23687 1.20368 0)
(-3.2714 1.09112 5.58458e-20)
(-3.30578 0.98349 0)
(-3.3413 0.882912 0)
(-3.37846 0.790427 5.87002e-20)
(-3.41727 0.706277 6.15182e-20)
(-3.45739 0.630234 6.22298e-20)
(-3.49827 0.56177 0)
(-3.53931 0.500187 0)
(-3.57989 0.444725 -6.404e-20)
(-3.61946 0.394628 0)
(-3.65751 0.349185 0)
(-3.69363 0.307753 6.43129e-20)
(-3.72748 0.269766 -6.6033e-20)
(-3.75878 0.234737 6.60435e-20)
(-3.7873 0.20225 0)
(-3.81287 0.171956 0)
(-3.83532 0.143557 1.3002e-19)
(-3.85453 0.116804 0)
(-3.8704 0.0914842 1.28631e-19)
(-3.88282 0.0674213 1.91044e-19)
(-3.89172 0.0444715 -1.89402e-19)
(-3.89704 0.0225145 1.25334e-19)
(-3.89872 0.00143336 0)
(-3.89678 -0.018888 0)
(-3.89124 -0.0385277 1.19877e-19)
(-3.88216 -0.0575046 5.84079e-20)
(-3.86958 -0.0758148 0)
(-3.85352 -0.093457 0)
(-3.83403 -0.110431 5.49016e-20)
(-3.81116 -0.126735 1.08254e-19)
(-3.78495 -0.142369 0)
(-3.75548 -0.157329 -1.01801e-19)
(-3.72281 -0.171612 9.99714e-20)
(-3.68702 -0.185214 -9.69995e-20)
(-3.64819 -0.198128 0)
(-3.60641 -0.210351 0)
(-3.56177 -0.221876 0)
(-3.51437 -0.232701 0)
(-3.46431 -0.24283 0)
(-3.4117 -0.252264 -7.59265e-20)
(-3.35665 -0.261002 0)
(-3.29927 -0.269048 0)
(-3.23967 -0.27641 0)
(-3.17798 -0.283096 -1.22629e-19)
(-3.11431 -0.289117 -5.6707e-20)
(-3.04877 -0.294485 -5.26058e-20)
(-2.9815 -0.299214 9.80466e-20)
(-2.91261 -0.30332 -4.53658e-20)
(-2.84221 -0.306819 3.98139e-20)
(-2.77045 -0.30973 0)
(-2.69742 -0.312073 -3.08913e-20)
(-2.62325 -0.313868 0)
(-2.54805 -0.315138 0)
(-2.47195 -0.315904 0)
(-2.39504 -0.31619 -2.54963e-20)
(-2.31745 -0.31602 8.48825e-21)
(-2.23927 -0.315418 4.77074e-21)
(-2.16062 -0.314409 -2.97567e-21)