/*--------------------------------*- C++ -*----------------------------------*\
  =========                 |
  \\      /  F ield         | OpenFOAM: The Open Source CFD Toolbox
   \\    /   O peration     | Website:  https://openfoam.org
    \\  /    A nd           | Version:  8
     \\/     M anipulation  |
\*---------------------------------------------------------------------------*/
FoamFile
{
    version     2.0;
    format      ascii;
    class       volVectorField;
    location    "1300";
    object      wallShearStress;
}
// * * * * * * * * * * * * * * * * * * * * * * * * * * * * * * * * * * * * * //

dimensions      [0 2 -2 0 0 0 0];

internalField   uniform (0 0 0);

boundaryField
{
    inlet
    {
        type            calculated;
        value           uniform (0 0 0);
    }
    outlet
    {
        type            calculated;
        value           uniform (0 0 0);
    }
    upperWall
    {
        type            calculated;
        value           nonuniform List<vector> 
223
(
(-0.582193 -0.392359 0)
(-0.977814 -0.219377 0)
(-0.939335 -0.0567746 0)
(-0.81071 -0.00585788 0)
(-0.734594 0.00331366 0)
(-0.695452 0.00231537 0)
(-0.67094 0.000424086 0)
(-0.653508 -0.00144908 0)
(-0.640533 -0.00256383 0)
(-0.629819 -0.00218244 0)
(-0.620063 -0.00131141 0)
(-0.610955 -0.00108354 0)
(-0.603068 -0.0014106 0)
(-0.596128 -0.00113889 0)
(-0.590229 -0.000828827 0)
(-0.585438 -0.000755758 0)
(-0.580234 0.000753799 0)
(-0.574816 0.00274892 0)
(-0.570788 0.00183735 0)
(-0.567966 0.00149063 4.23082e-22)
(-0.564783 0.00318185 0)
(-0.561363 0.00293714 0)
(-0.558327 0.00230461 0)
(-0.555557 0.0022221 4.46192e-22)
(-0.552844 0.00233306 0)
(-0.550125 0.00330489 0)
(-0.547033 0.00386678 0)
(-0.544027 0.00358818 -9.37976e-22)
(-0.541248 0.0030988 9.47626e-22)
(-0.538554 0.00299716 9.58533e-22)
(-0.535798 0.00267242 0)
(-0.53314 0.00233829 -9.79472e-22)
(-0.530509 0.0020542 0)
(-0.527889 0.00182855 1.00244e-21)
(-0.525259 0.00163864 1.01446e-21)
(-0.522619 0.00149378 -1.02698e-21)
(-0.519958 0.00137764 0)
(-0.51728 0.00128598 0)
(-0.51458 0.00121515 0)
(-0.511856 0.00116079 0)
(-0.509105 0.00111961 -1.0914e-21)
(-0.506322 0.00108891 0)
(-0.503507 0.00106667 0)
(-0.500656 0.0010515 1.13138e-21)
(-0.497767 0.00104227 0)
(-0.494835 0.00103791 1.15779e-21)
(-0.491859 0.00103759 -1.17075e-21)
(-0.488835 0.00104061 1.18348e-21)
(-0.485759 0.00104659 0)
(-0.48263 0.00105417 0)
(-0.479445 0.00106248 0)
(-0.476207 0.00107046 1.23093e-21)
(-0.472922 0.00107692 -1.24159e-21)
(-0.469601 0.00108213 0)
(-0.466258 0.00108708 0)
(-0.462909 0.00109218 0)
(-0.459565 0.00109667 0)
(-0.456231 0.00109933 0)
(-0.452907 0.00109938 0)
(-0.449589 0.00109691 0)
(-0.44627 0.00109261 0)
(-0.442938 0.00108741 1.29212e-21)
(-0.439584 0.0010826 -1.2919e-21)
(-0.436194 0.00107897 0)
(-0.432761 0.00107704 0)
(-0.429271 0.0010772 0)
(-0.425717 0.00107946 -1.27852e-21)
(-0.422089 0.00108364 0)
(-0.418381 0.00108949 0)
(-0.414588 0.00109663 0)
(-0.410705 0.00110471 0)
(-0.406728 0.00111325 0)
(-0.402656 0.00112165 -2.43465e-21)
(-0.398488 0.00112954 0)
(-0.394224 0.00113624 0)
(-0.389869 0.00114128 0)
(-0.385427 0.00114445 0)
(-0.380908 0.00114559 0)
(-0.376323 0.00114471 0)
(-0.371683 0.00114138 0)
(-0.367002 0.00113535 2.09556e-21)
(-0.362289 0.00112655 0)
(-0.357552 0.00111502 0)
(-0.352796 0.00110112 0)
(-0.348023 0.0010853 -1.83987e-21)
(-0.343232 0.00106812 0)
(-0.338424 0.00105028 -1.69043e-21)
(-0.333591 0.00103242 0)
(-0.328732 0.00101533 0)
(-0.323838 0.000999844 0)
(-0.319025 0.00099202 -1.3512e-21)
(-0.316385 0.00100113 0)
(-0.313661 0.00101503 1.1807e-21)
(-0.310856 0.0010297 1.09e-21)
(-0.307976 0.00104289 0)
(-0.305031 0.00105378 8.96282e-22)
(-0.302034 0.00106258 0)
(-0.298997 0.00106978 0)
(-0.295935 0.00107731 0)
(-0.292864 0.00108377 -4.54776e-22)
(-0.289794 0.00109509 0)
(-0.286743 0.00109987 -2.05293e-22)
(-0.283716 0.00110491 7.32461e-23)
(-0.280733 0.00111109 0)
(-0.277795 0.00112077 0)
(-0.274925 0.00112561 0)
(-0.272103 0.0010837 0)
(-0.269355 0.00102261 0)
(-0.266711 0.00100686 0)
(-0.264153 0.00141611 0)
(-0.261804 0.00156258 1.13691e-21)
(-0.259481 0.000996444 0)
(-0.257158 0.000568797 0)
(-0.254699 0.000609726 0)
(-0.252675 0.000815259 0)
(-0.250547 0.00130556 0)
(-0.248536 0.00112622 0)
(-0.246282 0.000368104 0)
(-0.244355 0.000315603 0)
(-0.242272 0.000470361 0)
(-0.240581 0.000777088 0)
(-0.238781 0.000835715 0)
(-0.236861 0.000904807 0)
(-0.235173 0.00086109 7.16047e-21)
(-0.233253 0.00106266 0)
(-0.231707 0.00155592 0)
(-0.230396 0.000889263 0)
(-0.228564 0.000119813 -8.85148e-21)
(-0.226828 7.85796e-05 0)
(-0.225259 0.000208658 0)
(-0.224084 0.000375344 -1.0072e-20)
(-0.222795 0.000397786 0)
(-0.221466 0.000430865 1.09152e-20)
(-0.220109 0.000482321 0)
(-0.218814 0.000429433 0)
(-0.217765 0.000537573 0)
(-0.216587 0.000632141 -1.2562e-20)
(-0.215349 0.000520049 0)
(-0.214093 0.000917394 1.33932e-20)
(-0.212955 0.000977327 0)
(-0.211816 0.000853017 0)
(-0.211043 0.00075002 0)
(-0.210256 0.000723057 0)
(-0.20929 0.000900351 0)
(-0.208571 0.000646704 0)
(-0.208043 0.000512315 0)
(-0.20726 0.000290045 0)
(-0.206422 6.93105e-05 0)
(-0.205242 0.000333979 0)
(-0.204557 0.000652326 0)
(-0.20391 0.000378931 1.83412e-20)
(-0.202836 0.000356009 -1.8876e-20)
(-0.202388 0.000472577 0)
(-0.202021 0.000363326 0)
(-0.201567 0.0003724 0)
(-0.200724 0.000194983 0)
(-0.199751 0.000273298 -2.09367e-20)
(-0.199408 -9.72057e-05 2.12067e-20)
(-0.198389 -0.000598994 -2.18706e-20)
(-0.197472 -0.000279856 0)
(-0.197142 -0.000116676 -2.25749e-20)
(-0.19659 -6.50359e-05 -4.60184e-20)
(-0.196349 4.13164e-05 0)
(-0.195789 0.000143094 -4.76288e-20)
(-0.195207 0.000185199 4.84386e-20)
(-0.19473 0.000199097 0)
(-0.194048 0.00021416 0)
(-0.193888 0.000184511 0)
(-0.193639 0.000203978 0)
(-0.19301 0.000198287 0)
(-0.192753 0.000285092 -5.32889e-20)
(-0.192045 0.000322158 0)
(-0.19175 0.000479532 -5.49628e-20)
(-0.191438 0.000643458 0)
(-0.19085 0.000700353 0)
(-0.190989 0.000740488 0)
(-0.190862 0.000600155 0)
(-0.190313 0.000116161 0)
(-0.188707 -0.000283328 6.14247e-20)
(-0.187805 -0.000123026 0)
(-0.187321 -1.04498e-05 0)
(-0.186986 0.000129553 -6.38153e-20)
(-0.185802 0.000206653 0)
(-0.185136 0.000228171 0)
(-0.183719 0.00028254 0)
(-0.182866 0.00029907 6.88495e-20)
(-0.181965 0.0003526 0)
(-0.180356 0.000404931 0)
(-0.178837 0.000384191 0)
(-0.177468 0.000467172 0)
(-0.174858 0.000620497 -7.74069e-20)
(-0.172432 0.000690934 0)
(-0.16956 0.000975707 0)
(-0.1661 0.00124222 0)
(-0.16186 0.00129261 8.78894e-20)
(-0.155437 0.00150919 0)
(-0.148664 0.00237444 0)
(-0.123806 0.0022956 -1.07582e-19)
(-0.141601 0.00671721 6.01853e-36)
(-0.169665 0.0132085 1.25442e-17)
(-0.187229 0.0170917 2.35103e-17)
(-0.193337 0.0188922 2.27456e-17)
(-0.196942 0.0196975 2.19818e-17)
(-0.200968 0.0203064 2.11608e-17)
(-0.20548 0.0210133 -2.02255e-17)
(-0.209706 0.0215231 -1.95219e-17)
(-0.213873 0.0218706 -6.01853e-36)
(-0.218089 0.0220151 -3.66581e-17)
(-0.22022 0.0221795 -1.80759e-17)
(-0.224686 0.0227201 5.83798e-34)
(-0.22751 0.0229041 0)
(-0.231052 0.0233637 -3.2279e-17)
(-0.235336 0.0239353 -3.06858e-17)
(-0.242335 0.0247788 -2.8466e-17)
(-0.249514 0.0254442 -2.40741e-35)
(-0.256857 0.0260675 4.94045e-17)
(-0.263907 0.0266472 2.26465e-17)
(-0.272749 0.0274461 1.20371e-35)
(-0.282654 0.028357 -3.48625e-17)
(-0.291213 0.0289992 -1.58066e-20)
(-0.300878 0.0295775 -3.00927e-36)
(-0.304433 0.0304163 1.34855e-17)
(-0.332559 0.0321492 -7.62914e-18)
)
;
    }
    lowerWall
    {
        type            calculated;
        value           nonuniform List<vector> 
250
(
(-0.653909 0.466638 0)
(-1.14095 0.204678 0)
(-1.03492 0.0379587 0)
(-0.869573 -0.000935979 0)
(-0.786941 -0.00419162 0)
(-0.746063 -0.00160782 0)
(-0.719878 0.000416171 0)
(-0.700645 -0.000651805 0)
(-0.685088 -0.00405594 0)
(-0.671318 -0.00471223 0)
(-0.658933 -0.00298823 0)
(-0.64772 -0.000864262 0)
(-0.637516 0.00142603 0)
(-0.628189 0.00210386 0)
(-0.61932 0.0013679 0)
(-0.611521 0.00135746 0)
(-0.60458 0.00169585 0)
(-0.605069 0.00194292 0)
(-0.00426037 -0.0228579 0)
(-0.0027588 -0.0176426 0)
(-0.000676827 -0.0144934 0)
(0.00194474 -0.0137781 9.02252e-20)
(0.0052692 -0.0151987 -7.8618e-20)
(0.00896206 -0.0208217 6.2849e-20)
(0.0127407 -0.0200877 -4.84733e-20)
(0.0256273 -0.0633162 0)
(-0.0840668 -0.144715 0)
(0.000872566 -0.0038405 0)
(-0.00766524 0.0095465 0)
(-0.00851607 0.0328212 0)
(-0.00254945 0.044855 0)
(0.00295329 0.0442611 1.82227e-20)
(0.00618262 0.036063 -1.89661e-20)
(0.0081871 0.0241611 0)
(0.00946039 0.0101607 -5.423e-20)
(0.00943157 -0.00404224 6.11447e-20)
(0.00793323 -0.0174222 0)
(0.00614116 -0.0291947 0)
(0.00438168 -0.0385621 0)
(0.00268719 -0.0451394 0)
(0.000986011 -0.0488793 0)
(-0.000885167 -0.0495145 0)
(-0.00282053 -0.046408 0)
(-0.004379 -0.0399025 0)
(-0.00492615 -0.0308267 0)
(0.00132861 -0.00151213 0)
(0.00133793 0.00652712 0)
(-0.00450917 0.00961845 0)
(-0.00959707 0.00975637 0)
(-0.013383 0.00829942 0)
(-0.0158892 0.00623512 0)
(-0.0172642 0.00409754 1.49577e-21)
(-0.0177828 0.00200603 -1.52738e-21)
(-0.0173313 -7.08924e-06 0)
(-0.0160537 -0.00168633 -1.65312e-21)
(-0.0141883 -0.00283762 0)
(-0.0120502 -0.00329649 0)
(-0.0100505 -0.00303589 -0)
(-0.00855294 -0.00228027 2.57037e-21)
(-0.00761631 -0.00142303 0)
(-0.00693805 -0.000815829 0)
(-0.00612057 -0.000623407 -3.37826e-21)
(-0.00499295 -0.00100044 0)
(-0.00340859 -0.00238586 0)
(-0.000488751 -0.00505748 0)
(0.00436055 -0.00740357 3.03321e-21)
(0.00994549 -0.00889511 0)
(0.0158465 -0.00984996 1.46918e-21)
(0.0218919 -0.0106169 0)
(0.0280977 -0.0112689 -0)
(0.0344081 -0.0115143 8.44717e-22)
(0.0405405 -0.0113547 0)
(0.0491484 -0.0116033 -7.54054e-22)
(0.0589384 -0.0117553 -0)
(0.0686327 -0.0115827 7.70717e-22)
(0.0780416 -0.0111689 0)
(0.0870145 -0.0105841 0)
(0.0954588 -0.00989007 0)
(0.103317 -0.0091366 -0)
(0.110563 -0.00836071 0)
(0.117196 -0.00758954 -8.11169e-22)
(0.123229 -0.00684043 -0)
(0.128686 -0.00612271 1.63311e-21)
(0.133591 -0.00544045 0)
(0.137973 -0.00479416 -1.63499e-21)
(0.141859 -0.00418202 -0)
(0.145271 -0.00360142 -0)
(0.148232 -0.00304957 1.62108e-21)
(0.150758 -0.0025241 0)
(0.152863 -0.00202404 1.60086e-21)
(0.154561 -0.00155029 -1.58755e-21)
(0.155863 -0.00110633 -0)
(0.156782 -0.000698891 -1.55494e-21)
(0.157328 -0.000337803 -1.5359e-21)
(0.157513 -3.98408e-05 -0)
(0.157408 0.000194711 0)
(0.157076 0.000391573 0)
(0.156522 0.000568214 0)
(0.155761 0.00073105 -0)
(0.1548 0.000884178 1.37584e-21)
(0.153648 0.0010283 0)
(0.152312 0.00116405 -1.30706e-21)
(0.150799 0.00129164 -0)
(0.149116 0.00141123 -0)
(0.147271 0.00152285 1.19061e-21)
(0.145272 0.00162644 0)
(0.143126 0.00172187 -1.10491e-21)
(0.140842 0.00180924 -0)
(0.138429 0.00188857 0)
(0.135895 0.00195977 -0)
(0.133249 0.00202304 9.16887e-22)
(0.130501 0.00207837 0)
(0.127659 0.0021259 -0)
(0.124733 0.00216582 7.63847e-22)
(0.121732 0.00219829 0)
(0.118665 0.00222347 6.57315e-22)
(0.115541 0.00224165 0)
(0.11237 0.00225309 0)
(0.10916 0.00225808 0)
(0.105919 0.00225683 -4.3624e-22)
(0.102656 0.00224969 -0)
(0.09938 0.00223706 0)
(0.0960972 0.00221915 -2.65639e-22)
(0.092816 0.00219631 -2.08189e-22)
(0.0895431 0.00216889 -0)
(0.0862856 0.00213726 -9.272e-23)
(0.0830495 0.00210174 -0)
(0.0798412 0.00206267 4.64747e-23)
(0.0766661 0.00202057 -0)
(0.073529 0.00197579 2.78891e-22)
(0.0704351 0.00192878 0)
(0.0673884 0.00188021 -5.1157e-22)
(0.0643926 0.00183082 -0)
(0.0614511 0.00178156 0)
(0.0585665 0.00173379 -0)
(0.0557405 0.00168919 9.78329e-22)
(0.0529747 0.00164989 0)
(0.0502694 0.00161805 -1.21377e-21)
(0.0476233 0.00159479 0)
(0.0457845 0.00160345 1.47552e-21)
(0.0442421 0.00162099 1.63402e-21)
(0.0427031 0.0016259 1.79894e-21)
(0.0411757 0.00161299 0)
(0.0396654 0.00158967 0)
(0.0381717 0.001564 0)
(0.0366935 0.00153819 0)
(0.0352306 0.00151247 0)
(0.0337835 0.00148685 0)
(0.0323527 0.00146139 0)
(0.0309385 0.00143617 0)
(0.0295416 0.00141135 -3.69167e-21)
(0.0281622 0.00138715 -3.96732e-21)
(0.0268005 0.00136372 0)
(0.0254567 0.00134074 0)
(0.0241312 0.00131667 0)
(0.0228255 0.0012918 -5.26722e-21)
(0.0215392 0.00126759 0)
(0.0202726 0.00124392 0)
(0.0190256 0.00122086 0)
(0.0177983 0.00119843 0)
(0.0165907 0.00117671 7.53574e-21)
(0.0154028 0.00115575 0)
(0.0142347 0.00113567 0)
(0.0130862 0.00111656 -9.45447e-21)
(0.0119571 0.00109844 1.0232e-20)
(0.0108476 0.00108144 0)
(0.00975743 0.00106582 1.20682e-20)
(0.00868663 0.00105223 0)
(0.0076348 0.00104184 -1.44064e-20)
(0.00660125 0.00103496 0)
(0.00558565 0.00103055 0)
(0.00458796 0.00102833 0)
(0.00360775 0.00102862 0)
(0.00264456 0.00103165 0)
(0.00169885 0.00103737 5.57053e-20)
(0.000772136 0.00104296 6.42138e-20)
(-0.000137628 0.00103027 0)
(-0.00103488 0.000987475 0)
(-0.00191667 0.000935092 0)
(-0.00278297 0.0008856 -5.28931e-20)
(-0.00363366 0.000840679 0)
(-0.00446855 0.000799928 0)
(-0.005288 0.000762863 0)
(-0.00609263 0.000728986 -4.04185e-20)
(-0.00688297 0.000697837 3.83683e-20)
(-0.00765951 0.00066904 0)
(-0.00842274 0.00064229 0)
(-0.00917311 0.000617341 3.36204e-20)
(-0.00991105 0.000593995 3.23799e-20)
(-0.010637 0.000572086 0)
(-0.0113514 0.000551479 0)
(-0.0120546 0.000532064 -2.93546e-20)
(-0.0127471 0.00051374 2.85268e-20)
(-0.0134293 0.000496425 0)
(-0.0141016 0.000480056 0)
(-0.0147645 0.000464567 2.64369e-20)
(-0.0154183 0.000449905 0)
(-0.0160637 0.000436026 0)
(-0.0167009 0.000422889 2.47914e-20)
(-0.0173304 0.000410455 0)
(-0.0179527 0.000398692 2.38753e-20)
(-0.0185684 0.000387567 0)
(-0.0191777 0.00037705 0)
(-0.0197813 0.000367109 0)
(-0.0203795 0.000357719 -2.23593e-20)
(-0.0209728 0.000348839 0)
(-0.0215616 0.000340419 0)
(-0.0221463 0.000332424 0)
(-0.0227272 0.000324796 0)
(-0.0233046 0.000317417 0)
(-0.0238782 0.000310208 0)
(-0.0244483 0.000303047 -2.0386e-20)
(-0.0250145 0.000295668 -2.01556e-20)
(-0.0255755 0.000287829 0)
(-0.0261304 0.000279165 0)
(-0.0266766 0.000269116 0)
(-0.0272107 0.000256984 1.93608e-20)
(-0.0277281 0.000241511 0)
(-0.0282199 0.000221274 -3.81354e-20)
(-0.0286768 0.000192241 3.7929e-20)
(-0.0290699 0.000152604 3.78199e-20)
(-0.029401 7.78584e-05 -3.78585e-20)
(-0.0294827 -3.93953e-05 3.80456e-20)
(-0.0295074 -0.000356554 -3.83978e-20)
(-0.0279728 -0.000616882 0)
(-0.0293455 -0.000516212 -2.43317e-18)
(-0.032769 -0.0013424 -2.26976e-18)
(-0.0364126 -0.00203335 0)
(-0.0395334 -0.00257605 -4.06085e-18)
(-0.0424834 -0.00301859 -7.75776e-18)
(-0.0455558 -0.00342169 -3.71955e-18)
(-0.0487786 -0.00381842 3.56808e-18)
(-0.0521164 -0.00430022 1.20371e-35)
(-0.0555937 -0.00476051 0)
(-0.059292 -0.00507828 3.14831e-18)
(-0.063237 -0.00539683 3.02889e-18)
(-0.0674256 -0.00582036 6.01853e-36)
(-0.0719166 -0.00627466 0)
(-0.0767377 -0.00671294 0)
(-0.0819332 -0.00719831 -1.59115e-34)
(-0.0875523 -0.00773922 6.44171e-36)
(-0.0936677 -0.00834091 1.2338e-34)
(-0.100336 -0.00900566 -4.15788e-18)
(-0.107697 -0.0097276 -3.81215e-18)
(-0.116759 -0.0106218 1.20371e-35)
(-0.127575 -0.0116258 6.13661e-18)
(-0.138428 -0.012733 1.0349e-17)
(-0.153652 -0.0139265 -6.01853e-36)
(-0.162852 -0.0152937 -5.09787e-18)
(-0.191966 -0.0169816 -6.01853e-36)
)
;
    }
    frontAndBack
    {
        type            empty;
    }
}


// ************************************************************************* //
