/*--------------------------------*- C++ -*----------------------------------*\
| =========                 |                                                 |
| \\      /  F ield         | OpenFOAM: The Open Source CFD Toolbox           |
|  \\    /   O peration     | Version:  v2012                                 |
|   \\  /    A nd           | Website:  www.openfoam.com                      |
|    \\/     M anipulation  |                                                 |
\*---------------------------------------------------------------------------*/
FoamFile
{
    version     2.0;
    format      ascii;
    class       volScalarField;
    location    "3100";
    object      nut;
}
// * * * * * * * * * * * * * * * * * * * * * * * * * * * * * * * * * * * * * //

dimensions      [0 2 -1 0 0 0 0];


internalField   nonuniform List<scalar> 
12225
(
0.0122671
0.00158819
0.000666128
0.000410104
0.00029404
0.000227808
0.000186418
0.000144348
0.000166375
0.000215716
0.00022384
0.000214196
0.00019517
0.000167533
0.000161398
0.000145524
0.000132311
0.000120111
0.0323823
0.00744532
0.00330638
0.00204329
0.00146802
0.00114429
0.000938661
0.000784867
0.000690386
0.000626897
0.000569551
0.000518717
0.000475215
0.000435568
0.000404975
0.000372249
0.000347116
0.000321087
0.0490123
0.01515
0.00728196
0.00457854
0.00330639
0.00258047
0.00211327
0.00178187
0.00154675
0.0013725
0.00123147
0.00111529
0.00101835
0.000936103
0.000866691
0.00080429
0.000753561
0.000700989
0.063054
0.0237783
0.0122894
0.00788815
0.00573397
0.00448497
0.0036744
0.00310419
0.00268716
0.00236996
0.0021179
0.00191315
0.00174401
0.00160222
0.00148242
0.0013786
0.00129106
0.00120451
0.074932
0.0328517
0.0181452
0.0119262
0.00874549
0.00686412
0.00563086
0.00476129
0.00411868
0.00362571
0.00323515
0.00291874
0.00265799
0.00244004
0.00225596
0.00209832
0.00196334
0.00183979
0.0849536
0.0420208
0.0246655
0.0166359
0.0123325
0.00972587
0.0079954
0.0067674
0.00585403
0.00515004
0.0045919
0.00413982
0.00376742
0.00345634
0.00319351
0.00296906
0.00277612
0.00260656
0.0933822
0.0510219
0.0316642
0.0219415
0.016474
0.0130717
0.0107779
0.00913539
0.00790598
0.00695436
0.00619832
0.00558531
0.00508009
0.00465801
0.00430136
0.00399701
0.00373534
0.00350912
0.0993794
0.0583363
0.0378386
0.0268568
0.0204171
0.0163053
0.0134892
0.011453
0.00991905
0.0087267
0.00777696
0.00700569
0.00636943
0.00583762
0.00538815
0.00500468
0.00467515
0.00439182
0.104023
0.0645454
0.0433804
0.0314239
0.0241571
0.0194092
0.0161097
0.0137018
0.0118767
0.0104523
0.00931473
0.00838939
0.00762524
0.00698615
0.00644586
0.0059849
0.00558898
0.00524915
0.108368
0.0708939
0.0493757
0.0365496
0.0284517
0.0230231
0.0191863
0.0163548
0.0141927
0.0124969
0.0111382
0.0100305
0.00911456
0.00834784
0.00769936
0.00714607
0.00667097
0.00626327
0.112368
0.0772557
0.0557282
0.0421918
0.0332976
0.0271652
0.0227468
0.0194433
0.0168984
0.0148904
0.013275
0.0119546
0.0108606
0.00994396
0.00916815
0.00850607
0.00793759
0.00744939
0.115994
0.0834975
0.0623054
0.0482611
0.0386474
0.0318167
0.026789
0.0229739
0.0200047
0.0176452
0.0157379
0.0141737
0.012875
0.0117851
0.010862
0.0100738
0.00939689
0.00881484
0.119234
0.0894856
0.0689377
0.0546109
0.0443919
0.0369007
0.0312597
0.0269089
0.0234837
0.02074
0.0185097
0.0166735
0.015145
0.0138601
0.0127705
0.0118397
0.0110398
0.010351
0.122086
0.095084
0.075415
0.0610223
0.0503361
0.0422535
0.0360231
0.0311353
0.0272402
0.0240931
0.0215191
0.0193909
0.0176141
0.0161175
0.0148467
0.0137601
0.0128258
0.0120197
0.124546
0.100135
0.0814619
0.0671726
0.056158
0.047577
0.0408126
0.0354174
0.031066
0.0275197
0.0246013
0.0221778
0.0201482
0.018435
0.0169783
0.0157315
0.0146584
0.0137312
0.126578
0.104396
0.0866605
0.0725515
0.0613228
0.0523526
0.0451453
0.0393148
0.0345631
0.0306611
0.0274325
0.024741
0.0224806
0.020569
0.0189413
0.0175468
0.0163455
0.0153062
0.128011
0.107322
0.0902141
0.0762353
0.0648743
0.0556509
0.0481493
0.0420254
0.0370012
0.0328553
0.0294126
0.0265352
0.0241143
0.0220643
0.0203171
0.0188191
0.0175275
0.0164083
0.128006
0.107313
0.0902048
0.0762269
0.0648674
0.0556454
0.048145
0.0420221
0.0369988
0.0328537
0.0294117
0.0265349
0.0241147
0.0220651
0.0203184
0.0188205
0.0175286
0.0164082
0.126509
0.104255
0.0864922
0.0723807
0.0611613
0.052205
0.0450128
0.0391967
0.0344584
0.0305685
0.0273506
0.0246684
0.0224163
0.0205118
0.0188902
0.0175006
0.0163023
0.015263
0.124267
0.0995604
0.0807712
0.0664676
0.0554886
0.0469631
0.0402594
0.0349227
0.0306248
0.0271258
0.0242487
0.0218611
0.0198625
0.0181762
0.0167425
0.0155151
0.0144574
0.0135404
0.12136
0.0936399
0.0737261
0.0593348
0.0487592
0.0408248
0.0347467
0.0300003
0.0262308
0.0231928
0.0207127
0.018665
0.0169572
0.0155197
0.0142998
0.0132566
0.0123582
0.0115797
0.117686
0.0865903
0.0656967
0.0514791
0.0415374
0.0343608
0.0290183
0.0249322
0.0217348
0.0191848
0.0171184
0.0154211
0.0140105
0.0128262
0.0118228
0.0109656
0.0102279
0.00958884
0.11305
0.0784122
0.056921
0.0432687
0.0342296
0.0279652
0.0234365
0.0200435
0.0174263
0.0153598
0.0136966
0.012337
0.0112107
0.0102671
0.00946864
0.00878715
0.00820095
0.00769338
0.107169
0.0691009
0.0476371
0.035029
0.0271566
0.021922
0.0182437
0.0155401
0.0134818
0.0118708
0.0105819
0.00953231
0.00866515
0.00793988
0.00732684
0.00680388
0.00635416
0.00596492
0.0996761
0.0587036
0.0381279
0.0270699
0.0205782
0.0164329
0.0135949
0.0115437
0.00999935
0.00879953
0.00784422
0.00706853
0.00642881
0.00589439
0.00544291
0.0050579
0.0047268
0.00444033
0.0901097
0.0473665
0.0287363
0.0196847
0.0146976
0.0116311
0.0095785
0.0081152
0.00702351
0.0061808
0.00551235
0.00497025
0.00452344
0.0041504
0.00383508
0.00356628
0.00333499
0.00313485
0.0779076
0.0353826
0.0198606
0.0131383
0.00966106
0.00759295
0.00623349
0.0052741
0.00456425
0.00402037
0.00359042
0.00324083
0.00295207
0.00271103
0.00250629
0.00233214
0.00218197
0.00205161
0.06238
0.0232554
0.0119461
0.00765493
0.00556337
0.00435254
0.0035672
0.00301615
0.00261331
0.00231035
0.00207203
0.00187474
0.00171012
0.00157289
0.00145365
0.00135327
0.00126581
0.00118864
0.0426105
0.0117794
0.0054693
0.00341385
0.0024607
0.00192004
0.00157266
0.00132942
0.0011583
0.00104123
0.000949574
0.000864979
0.000792151
0.000729929
0.000672063
0.000622932
0.000578101
0.000542036
0.0168348
0.00255985
0.00110002
0.000683429
0.000493725
0.000386811
0.000318009
0.000268388
0.000267505
0.000336046
0.000374836
0.000353478
0.000322268
0.000283599
0.000268773
0.000240609
0.000196179
0.00023717
5.28814e-10
1.01559e-07
1.14798e-06
5.16926e-06
9.86256e-06
1.28045e-05
1.31263e-05
1.11706e-05
8.84862e-06
5.76881e-06
3.39734e-06
1.93949e-06
1.35865e-06
1.47304e-06
2.01055e-06
2.47917e-06
2.41154e-06
1.63437e-06
7.31266e-07
3.70847e-07
4.11532e-07
1.22049e-06
5.51955e-06
2.84053e-05
5.71845e-05
7.50087e-05
9.13962e-05
0.000105191
0.00011733
0.000127444
0.000136302
0.000143915
0.000150576
0.000156377
0.000161439
0.000165908
0.000169869
0.000173408
0.000176581
0.000179432
0.00018199
0.000184277
0.000186312
0.000188111
0.000189687
0.000191055
0.000192223
0.000193198
0.000193979
0.000194562
0.000194824
0.000195074
0.000195122
0.000194994
0.000194694
0.000194247
0.000193647
0.000192899
0.000192004
0.000190965
0.000189782
0.00018846
0.000186999
0.000185402
0.000183672
0.000181811
0.00017982
0.000177701
0.000175458
0.000173091
0.000170604
0.000167998
0.000165275
0.000162437
0.000159484
0.000156419
0.000153241
0.00014995
0.000146547
0.000143029
0.000139395
0.000135641
0.000131761
0.000127748
0.000123595
0.00011929
0.000114823
0.000110177
0.000105335
0.000100272
9.4961e-05
8.93768e-05
8.35133e-05
7.74388e-05
7.14335e-05
6.61731e-05
6.24456e-05
6.01225e-05
5.83753e-05
5.67705e-05
5.51944e-05
5.36261e-05
5.2064e-05
5.05097e-05
4.89652e-05
4.74324e-05
4.5914e-05
4.44163e-05
4.2968e-05
4.17356e-05
4.05313e-05
3.93417e-05
3.81694e-05
3.7015e-05
3.58794e-05
3.47633e-05
3.36676e-05
3.2593e-05
3.15401e-05
3.05093e-05
2.9501e-05
2.85157e-05
2.75539e-05
2.66161e-05
2.57024e-05
2.48126e-05
2.3948e-05
2.31388e-05
2.24046e-05
2.16891e-05
2.09884e-05
2.03117e-05
1.96628e-05
1.90276e-05
1.84066e-05
1.78028e-05
1.7217e-05
1.66494e-05
1.60998e-05
1.55679e-05
1.50533e-05
1.45555e-05
1.40741e-05
1.36087e-05
1.31588e-05
1.27241e-05
1.23042e-05
1.18986e-05
1.15069e-05
1.11289e-05
1.07641e-05
1.04122e-05
1.00729e-05
9.74587e-06
9.43072e-06
9.12721e-06
8.83505e-06
8.55402e-06
8.28385e-06
8.02439e-06
7.77539e-06
7.53672e-06
7.30818e-06
7.08961e-06
6.88078e-06
6.68145e-06
6.4913e-06
6.30989e-06
6.13667e-06
5.97092e-06
5.81167e-06
5.65788e-06
5.50744e-06
5.36026e-06
5.20698e-06
5.06324e-06
4.86015e-06
4.7184e-06
4.30429e-06
3.68132e-06
3.34288e-09
6.03775e-06
6.15681e-05
0.000137857
0.000181895
0.000206007
0.000215529
0.00021403
0.000205554
0.000188726
0.000167817
0.000147712
0.000137595
0.000143067
0.000156904
0.000165309
0.000167416
0.000168286
0.000173767
0.000183537
0.000199767
0.000218069
0.000235171
0.000251143
0.000262458
0.000272243
0.00028109
0.000294271
0.000313162
0.000327066
0.00033974
0.000350625
0.000360527
0.000369582
0.000377456
0.000384648
0.000391347
0.000397778
0.00040407
0.000410285
0.000416421
0.000422432
0.000428268
0.000433887
0.00043926
0.000444373
0.000449208
0.000453754
0.000458013
0.000461991
0.000465696
0.00046915
0.000472342
0.000475282
0.000477972
0.000480413
0.000482605
0.000484549
0.000486246
0.000487695
0.000488899
0.000489856
0.000490571
0.000491047
0.000491295
0.000491319
0.000491114
0.000490676
0.000490022
0.000489155
0.000488082
0.000486809
0.000485343
0.00048369
0.000481858
0.000479853
0.000477684
0.000475358
0.000472883
0.000470265
0.000467514
0.000464636
0.00046164
0.000458533
0.000455324
0.00045202
0.000448629
0.000445162
0.000441624
0.000438025
0.000434372
0.000430668
0.000426915
0.000423104
0.000419216
0.000415224
0.000411113
0.000406912
0.000402671
0.000398414
0.000394149
0.00038988
0.00038561
0.000381342
0.000377081
0.000372829
0.00036859
0.000364365
0.000360154
0.000355955
0.00035178
0.000347632
0.000343514
0.000339426
0.000335372
0.000331352
0.000327368
0.000323422
0.000319514
0.000315647
0.000311821
0.000308036
0.000304294
0.000300596
0.000296944
0.000293336
0.000289772
0.000286251
0.000282772
0.000279338
0.000275947
0.000272608
0.000269322
0.000266071
0.000262856
0.000259683
0.000256554
0.00025347
0.000250431
0.000247436
0.000244486
0.00024158
0.000238716
0.000235895
0.000233116
0.000230378
0.00022768
0.000225023
0.000222405
0.000219827
0.000217287
0.000214787
0.000212325
0.000209902
0.000207518
0.000205172
0.000202866
0.0002006
0.000198374
0.000196191
0.000194051
0.000191955
0.000189907
0.000187907
0.000185957
0.00018406
0.000182215
0.000180424
0.000178685
0.000176998
0.000175357
0.000173762
0.000172191
0.000170678
0.000169086
0.000167743
0.000165699
0.000165107
0.000162036
0.000160573
7.63403e-08
3.98483e-05
0.000162908
0.000245623
0.000298887
0.000329079
0.000339965
0.000336948
0.000323952
0.000304608
0.000284908
0.000272511
0.000270561
0.000277536
0.000288077
0.000299117
0.000312181
0.000329348
0.000351002
0.000376364
0.000403795
0.00043201
0.000471304
0.00051748
0.000563077
0.000607154
0.000650211
0.000693857
0.000732917
0.000763989
0.000788822
0.000808515
0.000824129
0.000836524
0.000846478
0.000854762
0.000862075
0.000869056
0.000876239
0.000883974
0.000892366
0.000901289
0.000910505
0.000919777
0.00092893
0.000937843
0.000946443
0.00095468
0.000962518
0.00096993
0.000976889
0.000983374
0.000989375
0.000994887
0.000999909
0.00100444
0.00100848
0.00101202
0.00101508
0.00101764
0.00101971
0.00102128
0.00102236
0.0010229
0.00102306
0.00102277
0.00102198
0.00102073
0.00101904
0.00101692
0.00101438
0.00101144
0.0010081
0.00100438
0.0010003
0.000995868
0.000991099
0.00098601
0.000980615
0.000974929
0.000968968
0.000962746
0.000956279
0.000949581
0.000942669
0.000935556
0.000928257
0.000920788
0.00091316
0.000905389
0.000897485
0.00088946
0.000881324
0.000873084
0.000864748
0.000856327
0.000847833
0.000839281
0.000830689
0.000822069
0.000813431
0.000804786
0.000796141
0.000787503
0.00077888
0.000770278
0.000761705
0.000753165
0.000744666
0.000736211
0.000727808
0.000719461
0.000711174
0.000702952
0.000694799
0.000686717
0.00067871
0.000670782
0.000662933
0.000655168
0.000647487
0.000639892
0.000632386
0.000624971
0.000617647
0.000610415
0.000603275
0.000596228
0.000589275
0.000582416
0.000575651
0.000568982
0.000562406
0.000555917
0.000549514
0.0005432
0.000536978
0.000530846
0.000524807
0.000518858
0.000512999
0.00050723
0.000501549
0.000495955
0.000490447
0.000485023
0.000479683
0.000474426
0.000469249
0.000464153
0.000459136
0.000454197
0.000449335
0.000444549
0.000439838
0.0004352
0.000430635
0.000426141
0.000421718
0.000417363
0.000413076
0.000408855
0.000404699
0.000400604
0.000396569
0.000392589
0.000388662
0.000384781
0.000380941
0.000377131
0.000373341
0.000369557
0.00036575
0.000361911
0.000357943
0.000353938
0.000349405
0.000345156
0.000338595
0.000326886
6.16304e-07
8.21645e-05
0.000213024
0.000308841
0.000372271
0.000409348
0.000424632
0.000424847
0.000414749
0.000401423
0.000393592
0.000393026
0.000402627
0.000420123
0.000443114
0.000471099
0.000504661
0.000544071
0.000588494
0.000652316
0.000726423
0.000806382
0.000890252
0.00096051
0.00102267
0.00107857
0.00112878
0.00117349
0.00121257
0.0012463
0.00127541
0.00130065
0.00132269
0.00134218
0.00135968
0.00137567
0.00139058
0.00140474
0.00141839
0.00143174
0.00144491
0.00145796
0.00147091
0.00148377
0.00149646
0.00150892
0.00152104
0.00153274
0.00154393
0.00155452
0.00156447
0.00157374
0.00158231
0.00159017
0.0015973
0.00160371
0.00160938
0.00161431
0.00161851
0.00162197
0.00162469
0.00162667
0.00162782
0.00162826
0.00162813
0.00162721
0.00162558
0.00162326
0.00162026
0.0016166
0.0016123
0.00160738
0.00160186
0.00159575
0.00158909
0.00158189
0.00157419
0.00156599
0.00155732
0.00154821
0.00153868
0.00152875
0.00151844
0.00150778
0.0014968
0.0014855
0.00147393
0.00146209
0.00145001
0.00143771
0.00142521
0.00141252
0.00139967
0.00138667
0.00137354
0.00136028
0.00134693
0.0013335
0.00132001
0.00130648
0.00129292
0.00127934
0.00126577
0.00125221
0.00123868
0.00122517
0.00121172
0.00119831
0.00118498
0.00117171
0.00115852
0.00114542
0.00113241
0.00111951
0.00110671
0.00109402
0.00108145
0.001069
0.00105668
0.00104448
0.00103242
0.00102049
0.0010087
0.000997045
0.000985533
0.000974163
0.000962937
0.000951855
0.000940919
0.000930129
0.000919485
0.000908988
0.000898633
0.000888417
0.00087834
0.000868403
0.000858606
0.00084895
0.000839435
0.00083006
0.000820824
0.000811726
0.000802765
0.000793938
0.000785244
0.000776681
0.000768247
0.000759941
0.00075176
0.000743704
0.00073577
0.000727956
0.000720261
0.000712683
0.00070522
0.00069787
0.000690632
0.000683502
0.000676481
0.000669564
0.00066275
0.000656036
0.000649419
0.000642896
0.000636463
0.000630114
0.000623843
0.000617644
0.000611506
0.000605416
0.000599359
0.000593314
0.00058725
0.000581132
0.000574887
0.00056849
0.00056166
0.00055466
0.000546202
0.00052995
1.39974e-06
0.000101871
0.000234942
0.00035467
0.000433291
0.000480505
0.000503935
0.000512336
0.00051397
0.000515197
0.000522453
0.000539031
0.000565503
0.000600877
0.000644389
0.000696078
0.000756752
0.000840662
0.000936747
0.00103249
0.00112126
0.00120542
0.00128449
0.00135693
0.00142347
0.00148468
0.00154097
0.00159266
0.00164011
0.00168376
0.00172409
0.00176158
0.00179665
0.00182967
0.00186097
0.00189078
0.00191929
0.00194666
0.00197297
0.00199828
0.00202263
0.00204603
0.00206846
0.00208992
0.00211038
0.0021298
0.00214817
0.00216544
0.00218159
0.00219661
0.00221048
0.0022232
0.00223479
0.00224526
0.00225463
0.00226291
0.00227012
0.00227629
0.00228141
0.00228551
0.0022886
0.00229065
0.00229156
0.00229165
0.00229077
0.00228889
0.00228605
0.00228228
0.00227759
0.002272
0.00226555
0.00225826
0.00225016
0.00224128
0.00223164
0.00222129
0.00221024
0.00219853
0.0021862
0.00217326
0.00215977
0.00214573
0.00213119
0.00211618
0.00210072
0.00208486
0.00206861
0.00205201
0.00203509
0.00201787
0.00200038
0.00198266
0.00196471
0.00194657
0.00192826
0.00190981
0.00189123
0.00187255
0.00185379
0.00183498
0.00181613
0.00179727
0.00177842
0.00175958
0.00174078
0.00172203
0.00170334
0.00168473
0.00166621
0.00164779
0.00162948
0.00161129
0.00159323
0.00157531
0.00155754
0.00153993
0.00152247
0.00150518
0.00148806
0.00147112
0.00145436
0.00143778
0.00142139
0.00140519
0.00138919
0.00137338
0.00135776
0.00134235
0.00132713
0.00131211
0.00129729
0.00128267
0.00126825
0.00125402
0.00123998
0.00122614
0.00121249
0.00119902
0.00118576
0.00117268
0.00115979
0.00114709
0.00113457
0.00112224
0.00111009
0.00109811
0.00108632
0.00107469
0.00106324
0.00105196
0.00104084
0.00102988
0.00101909
0.00100846
0.000997976
0.000987651
0.000977475
0.000967448
0.000957565
0.000947824
0.000938222
0.000928755
0.00091942
0.000910211
0.000901124
0.000892152
0.000883288
0.000874523
0.000865844
0.000857238
0.000848684
0.000840159
0.000831627
0.000823047
0.000814347
0.000805466
0.000796202
0.000786589
0.000776422
0.000756648
2.32605e-06
0.00011823
0.000256267
0.00038988
0.000486694
0.000548394
0.000586143
0.000609632
0.000627569
0.000647211
0.000673758
0.000709798
0.000756034
0.000812732
0.00088044
0.000971366
0.00107678
0.00117843
0.00127752
0.00137278
0.00146326
0.00154904
0.00163006
0.00170632
0.0017781
0.00184575
0.00190962
0.00197003
0.00202733
0.00208183
0.00213387
0.00218372
0.00223164
0.00227783
0.00232245
0.00236562
0.00240744
0.00244794
0.00248717
0.00252514
0.00256183
0.00259723
0.0026313
0.00266403
0.00269536
0.00272525
0.00275367
0.00278057
0.00280592
0.00282969
0.00285184
0.00287236
0.00289122
0.00290842
0.00292396
0.00293782
0.00295002
0.00296056
0.00296945
0.00297671
0.00298237
0.00298645
0.00298887
0.00298977
0.0029893
0.00298733
0.00298399
0.00297928
0.00297328
0.00296602
0.00295757
0.00294797
0.00293728
0.00292555
0.00291283
0.00289916
0.00288459
0.00286917
0.00285295
0.00283595
0.00281824
0.00279984
0.0027808
0.00276117
0.00274097
0.00272026
0.00269907
0.00267744
0.0026554
0.002633
0.00261027
0.00258724
0.00256394
0.00254041
0.00251667
0.00249276
0.00246871
0.00244453
0.00242027
0.00239595
0.00237159
0.00234721
0.00232285
0.00229851
0.00227423
0.00225001
0.00222588
0.00220185
0.00217794
0.00215416
0.00213052
0.00210704
0.00208373
0.0020606
0.00203766
0.00201491
0.00199237
0.00197004
0.00194794
0.00192605
0.0019044
0.00188299
0.00186181
0.00184088
0.00182019
0.00179975
0.00177956
0.00175962
0.00173994
0.0017205
0.00170132
0.00168239
0.00166372
0.00164528
0.0016271
0.00160916
0.00159146
0.001574
0.00155679
0.00153982
0.00152309
0.0015066
0.00149034
0.00147431
0.00145851
0.00144293
0.00142758
0.00141244
0.00139753
0.00138282
0.00136832
0.00135403
0.00133994
0.00132605
0.00131236
0.00129886
0.00128554
0.00127242
0.00125947
0.00124671
0.00123412
0.0012217
0.00120944
0.00119735
0.00118541
0.00117361
0.00116196
0.00115043
0.00113902
0.00112771
0.00111647
0.00110529
0.00109412
0.00108292
0.00107162
0.00106015
0.00104834
0.00103618
0.0010239
0.00100145
2.79466e-06
0.000126789
0.000269173
0.000407476
0.000526057
0.000607452
0.000663625
0.000705734
0.000743025
0.00078274
0.000829896
0.000887397
0.000956967
0.00104973
0.00115702
0.00126366
0.00136973
0.00147298
0.00157289
0.00166906
0.00176127
0.00184952
0.00193391
0.0020146
0.00209184
0.00216589
0.00223704
0.00230556
0.00237169
0.00243568
0.00249772
0.002558
0.00261667
0.00267384
0.0027296
0.002784
0.00283708
0.00288884
0.00293929
0.0029884
0.00303614
0.00308248
0.00312737
0.00317076
0.00321261
0.00325285
0.00329143
0.0033283
0.00336342
0.00339673
0.00342819
0.00345776
0.00348541
0.00351111
0.00353483
0.00355656
0.00357626
0.00359395
0.0036096
0.00362322
0.00363482
0.0036444
0.00365197
0.00365759
0.00366124
0.00366286
0.00366277
0.00366078
0.00365701
0.00365149
0.00364428
0.00363544
0.00362502
0.00361308
0.0035997
0.00358493
0.00356884
0.00355149
0.00353296
0.00351331
0.0034926
0.00347091
0.0034483
0.00342484
0.00340059
0.00337561
0.00334996
0.00332371
0.0032969
0.00326959
0.00324183
0.00321368
0.00318517
0.00315635
0.00312727
0.00309796
0.00306846
0.00303881
0.00300904
0.00297919
0.00294929
0.00291937
0.00288946
0.00285958
0.00282976
0.00280002
0.00277038
0.00274086
0.00271148
0.00268226
0.00265322
0.00262437
0.00259572
0.00256728
0.00253908
0.00251111
0.0024834
0.00245594
0.00242874
0.00240182
0.00237518
0.00234882
0.00232275
0.00229698
0.0022715
0.00224632
0.00222144
0.00219686
0.00217259
0.00214862
0.00212496
0.0021016
0.00207854
0.00205578
0.00203331
0.00201115
0.00198927
0.00196769
0.0019464
0.0019254
0.00190469
0.00188427
0.00186412
0.00184425
0.00182465
0.00180533
0.00178627
0.00176748
0.00174894
0.00173066
0.00171263
0.00169485
0.00167731
0.00166001
0.00164295
0.00162612
0.00160951
0.00159313
0.00157697
0.00156102
0.00154529
0.00152976
0.00151443
0.00149929
0.00148435
0.00146958
0.00145498
0.00144055
0.00142626
0.0014121
0.00139804
0.00138406
0.00137013
0.00135618
0.00134216
0.001328
0.00131353
0.0012988
0.00128375
0.00125952
2.93968e-06
0.000128669
0.000270498
0.000406985
0.000537587
0.000641164
0.000718469
0.000780063
0.000836128
0.000894377
0.000962824
0.00105545
0.00116562
0.00128715
0.00140266
0.00151386
0.0016216
0.00172605
0.00182716
0.00192488
0.00201921
0.00211026
0.00219817
0.00228312
0.00236535
0.00244506
0.00252249
0.00259784
0.00267131
0.00274307
0.00281325
0.00288198
0.00294935
0.00301542
0.00308023
0.0031438
0.00320613
0.00326721
0.003327
0.00338546
0.00344256
0.00349823
0.00355241
0.00360504
0.00365605
0.00370539
0.00375298
0.00379876
0.00384267
0.00388465
0.00392465
0.00396261
0.00399849
0.00403224
0.00406383
0.00409323
0.0041204
0.00414533
0.004168
0.0041884
0.00420653
0.00422238
0.00423596
0.00424729
0.00425637
0.00426324
0.00426796
0.00427042
0.00427085
0.0042692
0.00426553
0.00425989
0.00425232
0.00424289
0.00423166
0.00421868
0.00420403
0.00418778
0.00416998
0.00415071
0.00413004
0.00410805
0.0040848
0.00406037
0.00403483
0.00400825
0.0039807
0.00395226
0.00392299
0.00389296
0.00386223
0.00383087
0.00379893
0.00376649
0.00373359
0.00370029
0.00366665
0.00363272
0.00359854
0.00356416
0.00352964
0.003495
0.0034603
0.00342557
0.00339084
0.00335614
0.00332151
0.00328697
0.00325256
0.00321829
0.00318419
0.00315028
0.00311658
0.0030831
0.00304987
0.00301689
0.00298418
0.00295176
0.00291963
0.0028878
0.00285628
0.00282508
0.0027942
0.00276366
0.00273345
0.00270358
0.00267405
0.00264487
0.00261603
0.00258755
0.00255941
0.00253161
0.00250417
0.00247707
0.00245031
0.00242389
0.00239781
0.00237207
0.00234667
0.0023216
0.00229686
0.00227245
0.00224836
0.0022246
0.00220115
0.00217801
0.00215519
0.00213267
0.00211045
0.00208852
0.00206689
0.00204555
0.00202449
0.00200371
0.0019832
0.00196296
0.00194299
0.00192328
0.00190383
0.00188463
0.00186567
0.00184696
0.00182848
0.00181024
0.00179221
0.0017744
0.00175679
0.00173938
0.00172214
0.00170506
0.00168811
0.00167127
0.0016545
0.00163775
0.00162094
0.00160402
0.00158683
0.00156944
0.00155149
0.00152536
2.75547e-06
0.000125162
0.000263805
0.000395339
0.000519872
0.000632149
0.000726087
0.00080758
0.000891514
0.000987451
0.00109728
0.00122241
0.0013589
0.00148631
0.00160652
0.00172144
0.00183205
0.00193871
0.00204173
0.00214148
0.00223817
0.00233201
0.00242319
0.00251194
0.00259844
0.00268291
0.00276554
0.00284649
0.00292593
0.00300398
0.00308075
0.00315631
0.00323073
0.00330403
0.00337623
0.00344731
0.00351727
0.00358606
0.00365363
0.00371993
0.00378488
0.00384843
0.00391049
0.00397099
0.00402985
0.004087
0.00414235
0.00419582
0.00424736
0.00429689
0.00434433
0.00438964
0.00443275
0.00447362
0.0045122
0.00454844
0.00458231
0.00461379
0.00464285
0.00466948
0.00469366
0.00471538
0.00473466
0.00475149
0.00476589
0.00477788
0.00478748
0.00479472
0.00479965
0.00480221
0.0048026
0.00480078
0.00479682
0.00479076
0.00478265
0.00477257
0.00476057
0.00474671
0.00473107
0.00471371
0.00469471
0.00467412
0.00465203
0.0046285
0.00460361
0.00457744
0.00455006
0.00452153
0.00449193
0.00446134
0.00442981
0.00439743
0.00436425
0.00433035
0.00429578
0.00426061
0.00422491
0.00418872
0.00415211
0.00411514
0.00407786
0.00404032
0.00400256
0.00396465
0.00392661
0.00388849
0.00385033
0.00381217
0.00377405
0.00373599
0.00369802
0.00366018
0.0036225
0.00358498
0.00354767
0.00351058
0.00347373
0.00343714
0.00340082
0.00336479
0.00332906
0.00329364
0.00325855
0.00322379
0.00318937
0.0031553
0.00312159
0.00308823
0.00305524
0.00302262
0.00299036
0.00295848
0.00292696
0.00289582
0.00286505
0.00283465
0.00280462
0.00277496
0.00274566
0.00271673
0.00268816
0.00265996
0.00263211
0.00260462
0.00257748
0.00255068
0.00252423
0.00249812
0.00247234
0.0024469
0.00242178
0.00239698
0.0023725
0.00234834
0.00232448
0.00230093
0.00227768
0.00225473
0.00223206
0.00220968
0.00218758
0.00216576
0.0021442
0.00212291
0.00210187
0.00208108
0.00206052
0.00204018
0.00202005
0.00200011
0.00198033
0.00196068
0.00194112
0.0019216
0.00190205
0.00188241
0.00186253
0.00184247
0.00182173
0.0017934
2.33919e-06
0.00011787
0.000252637
0.000380652
0.000503529
0.000620035
0.000731029
0.000840518
0.000955927
0.0010823
0.00122079
0.00137086
0.00151306
0.00164494
0.0017691
0.00188743
0.00200105
0.00211059
0.00221644
0.00231882
0.00241811
0.0025147
0.00260889
0.00270094
0.00279108
0.00287951
0.00296642
0.00305195
0.00313625
0.00321941
0.00330154
0.00338267
0.00346286
0.0035421
0.0036204
0.00369772
0.00377403
0.00384927
0.00392338
0.00399628
0.0040679
0.00413814
0.00420692
0.00427416
0.00433975
0.00440361
0.00446565
0.00452578
0.00458392
0.00463999
0.00469391
0.00474562
0.00479505
0.00484215
0.00488685
0.00492911
0.00496889
0.00500617
0.0050409
0.00507307
0.00510266
0.00512967
0.00515409
0.00517592
0.00519518
0.00521189
0.00522605
0.0052377
0.00524688
0.0052536
0.00525792
0.00525985
0.00525951
0.0052569
0.00525209
0.00524512
0.00523607
0.00522499
0.00521195
0.00519701
0.00518025
0.00516173
0.00514153
0.00511971
0.00509635
0.00507152
0.0050453
0.00501775
0.00498896
0.00495898
0.0049279
0.00489578
0.00486269
0.00482869
0.00479386
0.00475826
0.00472195
0.004685
0.00464747
0.00460942
0.0045709
0.00453198
0.0044927
0.00445312
0.00441329
0.00437325
0.00433304
0.00429272
0.00425232
0.00421188
0.00417144
0.00413103
0.00409068
0.00405043
0.0040103
0.00397032
0.00393051
0.00389091
0.00385152
0.00381236
0.00377347
0.00373485
0.00369651
0.00365848
0.00362076
0.00358337
0.00354631
0.00350959
0.00347322
0.00343721
0.00340156
0.00336628
0.00333137
0.00329683
0.00326267
0.00322888
0.00319547
0.00316243
0.00312977
0.00309749
0.00306559
0.00303406
0.0030029
0.00297212
0.00294171
0.00291166
0.00288197
0.00285265
0.00282368
0.00279507
0.0027668
0.00273888
0.00271131
0.00268407
0.00265716
0.00263058
0.00260433
0.0025784
0.00255278
0.00252748
0.00250248
0.00247779
0.00245339
0.00242927
0.00240544
0.00238188
0.00235858
0.00233553
0.00231271
0.0022901
0.00226768
0.00224541
0.00222325
0.00220115
0.00217904
0.00215685
0.00213446
0.00211189
0.00208859
0.00205793
1.92462e-06
0.000110214
0.000242407
0.000369703
0.000495439
0.000619944
0.000745134
0.000874887
0.00101265
0.00116037
0.00131821
0.00147984
0.00162747
0.00176379
0.00189178
0.00201344
0.00213003
0.00224238
0.00235101
0.00245632
0.00255861
0.00265807
0.00275514
0.00285018
0.00294348
0.00303527
0.00312574
0.00321507
0.00330338
0.00339078
0.00347733
0.00356308
0.00364806
0.00373226
0.00381566
0.00389822
0.00397989
0.00406059
0.00414025
0.00421879
0.0042961
0.00437208
0.00444665
0.00451968
0.00459109
0.00466076
0.0047286
0.00479452
0.00485841
0.00492018
0.00497977
0.00503709
0.00509206
0.00514462
0.00519472
0.00524229
0.00528731
0.00532971
0.00536949
0.0054066
0.00544104
0.00547278
0.00550183
0.00552819
0.00555187
0.00557287
0.00559122
0.00560694
0.00562006
0.00563062
0.00563864
0.00564419
0.0056473
0.00564802
0.00564642
0.00564254
0.00563645
0.0056282
0.00561786
0.0056055
0.00559117
0.00557496
0.00555693
0.00553715
0.00551569
0.00549264
0.00546805
0.005442
0.00541457
0.00538582
0.00535582
0.00532465
0.00529238
0.00525906
0.00522478
0.00518959
0.00515356
0.00511676
0.00507925
0.00504108
0.00500233
0.00496304
0.00492328
0.00488309
0.00484253
0.00480164
0.00476049
0.0047191
0.00467753
0.00463582
0.00459401
0.00455213
0.00451023
0.00446833
0.00442647
0.00438468
0.00434298
0.00430142
0.00426
0.00421875
0.0041777
0.00413687
0.00409627
0.00405592
0.00401584
0.00397604
0.00393654
0.00389734
0.00385846
0.0038199
0.00378168
0.0037438
0.00370627
0.0036691
0.00363228
0.00359582
0.00355973
0.00352401
0.00348865
0.00345367
0.00341906
0.00338482
0.00335096
0.00331746
0.00328434
0.00325159
0.0032192
0.00318718
0.00315553
0.00312423
0.0030933
0.00306272
0.00303249
0.00300261
0.00297308
0.00294389
0.00291504
0.00288653
0.00285835
0.00283049
0.00280296
0.00277575
0.00274885
0.00272225
0.00269596
0.00266996
0.00264423
0.00261877
0.00259357
0.00256859
0.00254382
0.00251922
0.00249475
0.00247036
0.00244598
0.00242153
0.00239691
0.00237212
0.00234662
0.00231381
1.53439e-06
0.000102067
0.000231952
0.00035893
0.00048764
0.000619026
0.000755747
0.000899721
0.00105262
0.00121495
0.00138724
0.00155302
0.00170463
0.00184481
0.0019763
0.00210108
0.00222048
0.00233544
0.00244661
0.0025545
0.00265949
0.00276187
0.00286193
0.00295985
0.00305605
0.00315083
0.00324442
0.00333702
0.00342875
0.00351974
0.00361005
0.00369972
0.00378877
0.00387719
0.00396495
0.00405198
0.00413824
0.00422363
0.00430807
0.00439145
0.00447367
0.00455463
0.00463419
0.00471226
0.00478871
0.00486345
0.00493634
0.0050073
0.00507622
0.005143
0.00520755
0.00526978
0.00532963
0.00538702
0.00544189
0.00549417
0.00554382
0.00559081
0.00563508
0.00567662
0.0057154
0.00575142
0.00578466
0.00581512
0.00584281
0.00586775
0.00588994
0.00590942
0.00592621
0.00594035
0.00595186
0.0059608
0.00596721
0.00597113
0.00597262
0.00597175
0.00596858
0.00596315
0.00595553
0.00594578
0.00593398
0.00592018
0.00590446
0.00588688
0.00586753
0.00584648
0.00582378
0.00579953
0.00577378
0.00574662
0.0057181
0.0056883
0.00565729
0.00562513
0.0055919
0.00555766
0.00552247
0.0054864
0.00544951
0.00541187
0.00537353
0.00533456
0.00529501
0.00525493
0.00521438
0.00517342
0.00513207
0.00509041
0.00504847
0.00500629
0.00496393
0.00492141
0.00487877