/*--------------------------------*- C++ -*----------------------------------*\
| =========                 |                                                 |
| \\      /  F ield         | OpenFOAM: The Open Source CFD Toolbox           |
|  \\    /   O peration     | Version:  v2012                                 |
|   \\  /    A nd           | Website:  www.openfoam.com                      |
|    \\/     M anipulation  |                                                 |
\*---------------------------------------------------------------------------*/
FoamFile
{
    version     2.0;
    format      ascii;
    class       volScalarField;
    location    "3100";
    object      nuTilda;
}
// * * * * * * * * * * * * * * * * * * * * * * * * * * * * * * * * * * * * * //

dimensions      [0 2 -1 0 0 0 0];


internalField   nonuniform List<scalar> 
12225
(
0.0122671
0.00158833
0.000666932
0.0004122
0.000298016
0.000234159
0.000195366
0.000157557
0.000177096
0.000222706
0.000230391
0.000221273
0.000203464
0.00017814
0.000172627
0.000158584
0.000147168
0.000136875
0.0323823
0.00744532
0.00330641
0.00204337
0.00146819
0.00114457
0.000939067
0.000785447
0.000691135
0.000627804
0.000570648
0.000520037
0.000476784
0.000437431
0.000407123
0.00037478
0.000350013
0.000324452
0.0490123
0.01515
0.00728196
0.00457856
0.00330642
0.00258052
0.00211335
0.00178199
0.0015469
0.00137269
0.0012317
0.00111558
0.0010187
0.000936511
0.000867167
0.000804843
0.00075419
0.000701715
0.063054
0.0237783
0.0122894
0.00788815
0.00573398
0.00448498
0.00367443
0.00310422
0.00268721
0.00237002
0.00211798
0.00191325
0.00174413
0.00160235
0.00148258
0.00137879
0.00129128
0.00120476
0.074932
0.0328517
0.0181452
0.0119262
0.00874549
0.00686413
0.00563087
0.00476131
0.0041187
0.00362573
0.00323518
0.00291878
0.00265804
0.0024401
0.00225603
0.0020984
0.00196343
0.0018399
0.0849536
0.0420208
0.0246655
0.0166359
0.0123325
0.00972588
0.00799541
0.00676741
0.00585404
0.00515005
0.00459191
0.00413984
0.00376744
0.00345637
0.00319355
0.0029691
0.00277616
0.00260661
0.0933822
0.0510219
0.0316642
0.0219415
0.016474
0.0130717
0.0107779
0.00913539
0.00790598
0.00695436
0.00619833
0.00558533
0.0050801
0.00465803
0.00430138
0.00399704
0.00373536
0.00350915
0.0993794
0.0583363
0.0378386
0.0268568
0.0204171
0.0163053
0.0134892
0.011453
0.00991905
0.00872671
0.00777697
0.0070057
0.00636944
0.00583763
0.00538817
0.00500469
0.00467517
0.00439183
0.104023
0.0645454
0.0433804
0.0314239
0.0241571
0.0194092
0.0161097
0.0137018
0.0118767
0.0104523
0.00931473
0.0083894
0.00762525
0.00698616
0.00644587
0.00598491
0.00558899
0.00524917
0.108368
0.0708939
0.0493757
0.0365496
0.0284517
0.0230231
0.0191863
0.0163548
0.0141927
0.0124969
0.0111382
0.0100306
0.00911457
0.00834784
0.00769937
0.00714607
0.00667098
0.00626328
0.112368
0.0772557
0.0557282
0.0421918
0.0332976
0.0271652
0.0227468
0.0194433
0.0168984
0.0148904
0.013275
0.0119546
0.0108606
0.00994396
0.00916816
0.00850607
0.00793759
0.0074494
0.115994
0.0834975
0.0623054
0.0482611
0.0386474
0.0318167
0.026789
0.0229739
0.0200047
0.0176453
0.0157379
0.0141737
0.012875
0.0117851
0.010862
0.0100738
0.0093969
0.00881485
0.119234
0.0894856
0.0689377
0.0546109
0.0443919
0.0369007
0.0312597
0.0269089
0.0234837
0.02074
0.0185097
0.0166735
0.015145
0.0138601
0.0127705
0.0118397
0.0110398
0.010351
0.122086
0.095084
0.075415
0.0610223
0.0503361
0.0422535
0.0360231
0.0311353
0.0272402
0.0240931
0.0215191
0.0193909
0.0176141
0.0161175
0.0148467
0.0137601
0.0128258
0.0120198
0.124546
0.100135
0.0814619
0.0671726
0.056158
0.047577
0.0408126
0.0354174
0.031066
0.0275197
0.0246013
0.0221778
0.0201482
0.018435
0.0169783
0.0157315
0.0146584
0.0137312
0.126578
0.104396
0.0866605
0.0725515
0.0613228
0.0523526
0.0451453
0.0393148
0.0345631
0.0306611
0.0274325
0.024741
0.0224806
0.020569
0.0189413
0.0175468
0.0163455
0.0153062
0.128011
0.107322
0.0902141
0.0762353
0.0648743
0.0556509
0.0481493
0.0420254
0.0370012
0.0328553
0.0294126
0.0265352
0.0241143
0.0220643
0.0203171
0.0188191
0.0175275
0.0164083
0.128006
0.107313
0.0902048
0.0762269
0.0648674
0.0556454
0.048145
0.0420221
0.0369988
0.0328537
0.0294117
0.0265349
0.0241147
0.0220651
0.0203184
0.0188205
0.0175286
0.0164082
0.126509
0.104255
0.0864922
0.0723807
0.0611613
0.052205
0.0450128
0.0391967
0.0344584
0.0305685
0.0273506
0.0246684
0.0224163
0.0205118
0.0188902
0.0175006
0.0163023
0.015263
0.124267
0.0995604
0.0807712
0.0664676
0.0554886
0.0469631
0.0402594
0.0349227
0.0306248
0.0271258
0.0242487
0.0218611
0.0198625
0.0181762
0.0167425
0.0155151
0.0144574
0.0135404
0.12136
0.0936399
0.0737261
0.0593348
0.0487592
0.0408248
0.0347467
0.0300003
0.0262308
0.0231928
0.0207127
0.018665
0.0169572
0.0155197
0.0142998
0.0132566
0.0123582
0.0115797
0.117686
0.0865903
0.0656967
0.0514791
0.0415374
0.0343608
0.0290183
0.0249322
0.0217348
0.0191848
0.0171184
0.0154211
0.0140105
0.0128262
0.0118228
0.0109656
0.0102279
0.00958885
0.11305
0.0784122
0.056921
0.0432687
0.0342296
0.0279652
0.0234365
0.0200435
0.0174263
0.0153598
0.0136967
0.012337
0.0112107
0.0102671
0.00946865
0.00878716
0.00820096
0.00769339
0.107169
0.0691009
0.0476372
0.035029
0.0271566
0.021922
0.0182437
0.0155401
0.0134818
0.0118708
0.0105819
0.00953231
0.00866515
0.00793988
0.00732685
0.00680389
0.00635417
0.00596493
0.0996761
0.0587036
0.0381279
0.0270699
0.0205782
0.0164329
0.0135949
0.0115437
0.00999935
0.00879953
0.00784423
0.00706854
0.00642881
0.0058944
0.00544292
0.00505791
0.00472681
0.00444035
0.0901097
0.0473665
0.0287363
0.0196847
0.0146976
0.0116311
0.0095785
0.00811521
0.00702351
0.00618081
0.00551236
0.00497026
0.00452346
0.00415042
0.00383511
0.0035663
0.00333502
0.00313488
0.0779076
0.0353826
0.0198606
0.0131383
0.00966106
0.00759296
0.0062335
0.00527412
0.00456427
0.0040204
0.00359045
0.00324086
0.00295211
0.00271108
0.00250635
0.0023322
0.00218204
0.00205169
0.06238
0.0232554
0.0119461
0.00765493
0.00556338
0.00435255
0.00356723
0.00301619
0.00261337
0.00231042
0.00207211
0.00187484
0.00171025
0.00157303
0.00145382
0.00135346
0.00126604
0.00118889
0.0426105
0.0117794
0.00546931
0.00341388
0.00246076
0.00192014
0.0015728
0.00132962
0.00115856
0.00104156
0.00094997
0.000865456
0.00079272
0.000730599
0.000672853
0.000623851
0.000579166
0.000543246
0.0168348
0.0025599
0.00110031
0.000684193
0.00049518
0.00038916
0.000321436
0.000273104
0.000272249
0.00033913
0.000377333
0.000356276
0.000325609
0.000287855
0.000273476
0.000246367
0.000204401
0.00024308
3.70924e-06
1.38332e-05
2.56098e-05
3.82444e-05
4.6038e-05
4.98344e-05
5.02196e-05
4.77933e-05
4.45844e-05
3.94355e-05
3.409e-05
2.9362e-05
2.67534e-05
2.73221e-05
2.96414e-05
3.13307e-05
3.11014e-05
2.80733e-05
2.28035e-05
1.91806e-05
1.96942e-05
2.60192e-05
3.89503e-05
6.51574e-05
8.76153e-05
0.000101037
0.000113669
0.000124637
0.000134564
0.000143032
0.000150588
0.000157179
0.000163016
0.000168149
0.000172664
0.000176676
0.000180251
0.00018346
0.000186348
0.000188952
0.000191295
0.000193396
0.000195268
0.000196927
0.000198383
0.000199648
0.000200729
0.000201633
0.000202358
0.000202899
0.000203142
0.000203374
0.000203419
0.0002033
0.000203022
0.000202606
0.00020205
0.000201356
0.000200527
0.000199564
0.000198471
0.000197249
0.000195901
0.00019443
0.000192839
0.000191131
0.000189307
0.00018737
0.000185324
0.000183172
0.000180916
0.00017856
0.000176106
0.000173557
0.000170917
0.000168186
0.000165369
0.000162465
0.000159478
0.000156408
0.000153256
0.000150019
0.000146698
0.000143289
0.000139789
0.000136192
0.000132493
0.000128683
0.000124752
0.000120687
0.000116472
0.000112091
0.000107544
0.000102887
9.83274e-05
9.43616e-05
9.15618e-05
8.98191e-05
8.85086e-05
8.73046e-05
8.61214e-05
8.49426e-05
8.37668e-05
8.25944e-05
8.14264e-05
8.02638e-05
7.9108e-05
7.79631e-05
7.68507e-05
7.58994e-05
7.49652e-05
7.40374e-05
7.31176e-05
7.2206e-05
7.13031e-05
7.04091e-05
6.95245e-05
6.86496e-05
6.77847e-05
6.69299e-05
6.60854e-05
6.52514e-05
6.44284e-05
6.36166e-05
6.28162e-05
6.20268e-05
6.12498e-05
6.05129e-05
5.98357e-05
5.91671e-05
5.85036e-05
5.7854e-05
5.72224e-05
5.65954e-05
5.59734e-05
5.53595e-05
5.47547e-05
5.41595e-05
5.35741e-05
5.29982e-05
5.24318e-05
5.18748e-05
5.1327e-05
5.07882e-05
5.02583e-05
4.97373e-05
4.9225e-05
4.87212e-05
4.82259e-05
4.77391e-05
4.72607e-05
4.67906e-05
4.63288e-05
4.58753e-05
4.54299e-05
4.4993e-05
4.45643e-05
4.41441e-05
4.37324e-05
4.33295e-05
4.29354e-05
4.25506e-05
4.21752e-05
4.18094e-05
4.14534e-05
4.11074e-05
4.07713e-05
4.0445e-05
4.01279e-05
3.98192e-05
3.95176e-05
3.92212e-05
3.89264e-05
3.86329e-05
3.83218e-05
3.80247e-05
3.75955e-05
3.7289e-05
3.6358e-05
3.48393e-05
5.88214e-06
3.99444e-05
9.09034e-05
0.000151927
0.000191208
0.000213575
0.00022253
0.000221116
0.000213151
0.000197495
0.000178397
0.000160499
0.000151701
0.000156441
0.000168617
0.000176136
0.000178034
0.00017882
0.000183786
0.000192715
0.000207741
0.000224927
0.000241171
0.000256472
0.000267373
0.000276836
0.000285416
0.000298241
0.000316691
0.000330314
0.000342759
0.000353467
0.00036322
0.000372148
0.00037992
0.000387022
0.000393644
0.000400003
0.000406227
0.000412379
0.000418455
0.00042441
0.000430193
0.000435763
0.000441092
0.000446163
0.000450961
0.000455473
0.000459701
0.00046365
0.000467329
0.000470759
0.00047393
0.000476851
0.000479524
0.000481949
0.000484127
0.000486059
0.000487746
0.000489186
0.000490382
0.000491335
0.000492045
0.000492518
0.000492764
0.000492788
0.000492584
0.000492149
0.000491499
0.000490638
0.000489571
0.000488306
0.000486848
0.000485205
0.000483385
0.000481393
0.000479238
0.000476927
0.000474467
0.000471867
0.000469135
0.000466277
0.000463302
0.000460217
0.000457031
0.000453751
0.000450387
0.000446946
0.000443437
0.000439867
0.000436244
0.000432573
0.000428853
0.000425076
0.000421224
0.00041727
0.000413199
0.00040904
0.000404843
0.000400631
0.000396414
0.000392193
0.000387973
0.000383757
0.000379549
0.000375352
0.000371169
0.000367003
0.000362852
0.000358715
0.000354604
0.000350521
0.00034647
0.000342451
0.000338467
0.00033452
0.00033061
0.00032674
0.000322911
0.000319123
0.000315378
0.000311677
0.000308021
0.00030441
0.000300847
0.00029733
0.000293859
0.000290433
0.000287051
0.000283716
0.000280425
0.000277189
0.000274007
0.000270863
0.000267757
0.000264695
0.000261678
0.000258709
0.000255787
0.000252911
0.000250081
0.000247297
0.000244557
0.000241862
0.000239211
0.000236603
0.000234037
0.000231513
0.000229031
0.00022659
0.000224189
0.000221829
0.00021951
0.000217231
0.000214992
0.000212793
0.000210635
0.000208519
0.000206444
0.000204412
0.000202424
0.000200481
0.000198586
0.000196739
0.000194941
0.000193195
0.000191501
0.00018986
0.000188269
0.000186728
0.000185232
0.000183781
0.000182355
0.000180983
0.000179543
0.000178329
0.000176488
0.000175954
0.000173199
0.000171889
1.28759e-05
7.44332e-05
0.00017398
0.000251171
0.000302742
0.000332289
0.000342981
0.000340016
0.00032726
0.000308327
0.000289127
0.000277095
0.000275207
0.000281967
0.000292209
0.000302966
0.000315731
0.000332553
0.000353837
0.000378842
0.000405955
0.000433903
0.0004729
0.000518807
0.000564199
0.00060812
0.000651055
0.000694598
0.000733582
0.000764601
0.000789396
0.000809061
0.000824655
0.000837034
0.000846976
0.000855252
0.000862556
0.000869529
0.000876704
0.000884431
0.000892815
0.000901729
0.000910936
0.0009202
0.000929344
0.00093825
0.000946842
0.000955072
0.000962903
0.00097031
0.000977263
0.000983744
0.00098974
0.000995248
0.00100027
0.00100479
0.00100883
0.00101237
0.00101542
0.00101798
0.00102005
0.00102162
0.0010227
0.00102325
0.0010234
0.00102311
0.00102232
0.00102108
0.00101939
0.00101727
0.00101473
0.00101179
0.00100845
0.00100474
0.00100066
0.000996228
0.000991463
0.000986378
0.000980987
0.000975306
0.000969349
0.000963132
0.00095667
0.000949978
0.000943071
0.000935964
0.000928672
0.000921209
0.000913589
0.000905825
0.000897929
0.000889912
0.000881784
0.000873553
0.000865226
0.000856814
0.00084833
0.000839789
0.000831206
0.000822597
0.000813971
0.000805338
0.000796704
0.000788079
0.000779468
0.00077088
0.00076232
0.000753795
0.00074531
0.00073687
0.000728482
0.00072015
0.00071188
0.000703674
0.000695538
0.000687474
0.000679485
0.000671574
0.000663745
0.000655998
0.000648337
0.000640763
0.000633278
0.000625883
0.000618581
0.000611371
0.000604254
0.00059723
0.0005903
0.000583465
0.000576725
0.000570081
0.000563531
0.000557068
0.000550692
0.000544405
0.00053821
0.000532107
0.000526097
0.000520177
0.000514349
0.00050861
0.00050296
0.000497397
0.000491921
0.00048653
0.000481224
0.000476
0.000470858
0.000465797
0.000460815
0.000455913
0.000451087
0.000446338
0.000441665
0.000437066
0.000432539
0.000428085
0.000423702
0.000419388
0.000415143
0.000410964
0.00040685
0.000402798
0.000398806
0.000394871
0.000390989
0.000387155
0.000383361
0.000379599
0.000375858
0.000372123
0.000368369
0.000364584
0.000360673
0.000356729
0.000352266
0.000348085
0.000341634
0.000330138
2.18274e-05
0.000106506
0.000220168
0.000312464
0.000374802
0.000411452
0.00042659
0.000426803
0.000416799
0.000403608
0.000395863
0.000395304
0.000404799
0.000422122
0.000444915
0.000472695
0.000506055
0.000545272
0.000589522
0.000653154
0.000727099
0.000806931
0.000890703
0.000960898
0.00102302
0.00107888
0.00112906
0.00117375
0.00121281
0.00124653
0.00127563
0.00130086
0.0013229
0.00134238
0.00135987
0.00137586
0.00139077
0.00140492
0.00141857
0.00143192
0.00144508
0.00145812
0.00147108
0.00148393
0.00149662
0.00150907
0.0015212
0.00153289
0.00154408
0.00155467
0.00156462
0.00157389
0.00158246
0.00159031
0.00159744
0.00160385
0.00160952
0.00161445
0.00161865
0.00162211
0.00162483
0.0016268
0.00162796
0.00162839
0.00162826
0.00162735
0.00162572
0.0016234
0.0016204
0.00161674
0.00161244
0.00160752
0.00160199
0.00159589
0.00158923
0.00158204
0.00157433
0.00156613
0.00155747
0.00154836
0.00153883
0.0015289
0.00151859
0.00150794
0.00149696
0.00148566
0.00147409
0.00146225
0.00145018
0.00143788
0.00142538
0.0014127
0.00139985
0.00138686
0.00137373
0.00136048
0.00134713
0.0013337
0.00132022
0.00130669
0.00129313
0.00127956
0.00126599
0.00125244
0.00123891
0.00122541
0.00121196
0.00119856
0.00118523
0.00117197
0.00115879
0.00114569
0.00113269
0.00111979
0.001107
0.00109432
0.00108176
0.00106932
0.001057
0.00104481
0.00103276
0.00102083
0.00100905
0.000997404
0.000985901
0.00097454
0.000963323
0.00095225
0.000941323
0.000930542
0.000919908
0.00090942
0.000899075
0.00088887
0.000878803
0.000868876
0.00085909
0.000849445
0.000839942
0.000830578
0.000821354
0.000812268
0.000803319
0.000794504
0.000785823
0.000777273
0.000768852
0.000760559
0.000752392
0.000744349
0.000736429
0.00072863
0.000720949
0.000713386
0.000705937
0.000698603
0.00069138
0.000684266
0.00067726
0.000670359
0.000663562
0.000656864
0.000650264
0.000643759
0.000637343
0.000631011
0.000624759
0.000618578
0.000612458
0.000606388
0.000600351
0.000594326
0.000588282
0.000582186
0.000575964
0.000569591
0.000562788
0.000555817
0.000547394
0.000531216
2.69615e-05
0.000121967
0.000240953
0.000357449
0.000435172
0.00048204
0.000505332
0.000513689
0.000515314
0.000516535
0.000523755
0.000540255
0.000566616
0.000601864
0.000645247
0.000696814
0.000757376
0.000841167
0.000937154
0.00103283
0.00112154
0.00120566
0.00128471
0.00135713
0.00142365
0.00148484
0.00154112
0.0015928
0.00164025
0.00168389
0.00172421
0.00176169
0.00179676
0.00182978
0.00186107
0.00189088
0.00191939
0.00194675
0.00197306
0.00199837
0.00202272
0.00204611
0.00206855
0.00209
0.00211046
0.00212988
0.00214825
0.00216552
0.00218167
0.00219668
0.00221055
0.00222328
0.00223486
0.00224533
0.0022547
0.00226298
0.00227019
0.00227635
0.00228148
0.00228558
0.00228867
0.00229072
0.00229163
0.00229172
0.00229084
0.00228896
0.00228612
0.00228235
0.00227765
0.00227207
0.00226562
0.00225833
0.00225023
0.00224135
0.00223171
0.00222136
0.00221031
0.00219861
0.00218627
0.00217334
0.00215984
0.00214581
0.00213127
0.00211626
0.00210081
0.00208494
0.00206869
0.00205209
0.00203517
0.00201796
0.00200047
0.00198275
0.0019648
0.00194667
0.00192836
0.00190991
0.00189133
0.00187265
0.00185389
0.00183508
0.00181624
0.00179738
0.00177853
0.00175969
0.0017409
0.00172215
0.00170346
0.00168486
0.00166634
0.00164792
0.00162961
0.00161143
0.00159337
0.00157546
0.00155769
0.00154008
0.00152262
0.00150534
0.00148822
0.00147128
0.00145452
0.00143795
0.00142157
0.00140537
0.00138937
0.00137357
0.00135796
0.00134254
0.00132733
0.00131232
0.00129751
0.00128289
0.00126847
0.00125425
0.00124022
0.00122638
0.00121273
0.00119927
0.00118601
0.00117294
0.00116005
0.00114736
0.00113485
0.00112252
0.00111038
0.00109841
0.00108662
0.001075
0.00106356
0.00105228
0.00104117
0.00103022
0.00101943
0.00100881
0.000998335
0.000988017
0.000977849
0.00096783
0.000957955
0.000948222
0.000938628
0.00092917
0.000919843
0.000910642
0.000901564
0.000892601
0.000883746
0.00087499
0.000866321
0.000857724
0.00084918
0.000840665
0.000832144
0.000823574
0.000814885
0.000806017
0.000796765
0.000787166
0.000777014
0.000757271
3.08051e-05
0.00013531
0.000261402
0.000392193
0.000488191
0.000549576
0.000587179
0.000610591
0.000628474
0.000648062
0.000674543
0.000710507
0.000756659
0.000813273
0.000880901
0.000971745
0.00107709
0.00117869
0.00127774
0.00137297
0.00146343
0.00154918
0.0016302
0.00170644
0.00177821
0.00184585
0.00190971
0.00197012
0.00202741
0.00208192
0.00213395
0.0021838
0.00223171
0.0022779
0.00232251
0.00236569
0.0024075
0.002448
0.00248723
0.00252519
0.00256188
0.00259728
0.00263136
0.00266408
0.0026954
0.0027253
0.00275372
0.00278062
0.00280597
0.00282973
0.00285188
0.0028724
0.00289126
0.00290846
0.002924
0.00293786
0.00295006
0.0029606
0.00296949
0.00297675
0.00298241
0.00298649
0.00298891
0.00298981
0.00298934
0.00298737
0.00298403
0.00297932
0.00297332
0.00296606
0.00295761
0.00294801
0.00293733
0.0029256
0.00291287
0.0028992
0.00288464
0.00286922
0.00285299
0.002836
0.00281828
0.00279988
0.00278085
0.00276121
0.00274102
0.00272031
0.00269912
0.00267749
0.00265546
0.00263305
0.00261032
0.00258729
0.00256399
0.00254046
0.00251673
0.00249282
0.00246876
0.00244459
0.00242033
0.00239601
0.00237165
0.00234728
0.00232291
0.00229858
0.0022743
0.00225008
0.00222595
0.00220193
0.00217802
0.00215424
0.0021306
0.00210712
0.00208381
0.00206068
0.00203774
0.002015
0.00199246
0.00197013
0.00194803
0.00192615
0.0019045
0.00188309
0.00186191
0.00184098
0.0018203
0.00179986
0.00177967
0.00175974
0.00174005
0.00172062
0.00170145
0.00168252
0.00166384
0.00164542
0.00162723
0.00160929
0.0015916
0.00157415
0.00155694
0.00153997
0.00152325
0.00150676
0.0014905
0.00147447
0.00145868
0.0014431
0.00142775
0.00141262
0.00139771
0.00138301
0.00136851
0.00135423
0.00134014
0.00132625
0.00131257
0.00129907
0.00128576
0.00127264
0.0012597
0.00124694
0.00123435
0.00122194
0.00120969
0.0011976
0.00118566
0.00117387
0.00116222
0.0011507
0.0011393
0.00112799
0.00111676
0.00110558
0.00109442
0.00108323
0.00107193
0.00106047
0.00104866
0.00103652
0.00102424
0.00100181
3.23472e-05
0.000142479
0.000273864
0.000409599
0.00052734
0.000608418
0.000664435
0.00070645
0.000743672
0.000783323
0.000830415
0.000887851
0.000957358
0.00105006
0.00115729
0.00126388
0.00136992
0.00147314
0.00157304
0.00166919
0.00176139
0.00184963
0.00193401
0.00201469
0.00209192
0.00216597
0.00223712
0.00230563
0.00237176
0.00243574
0.00249778
0.00255806
0.00261673
0.00267389
0.00272965
0.00278405
0.00283712
0.00288889
0.00293933
0.00298844
0.00303618
0.00308252
0.00312741
0.0031708
0.00321264
0.00325288
0.00329146
0.00332833
0.00336345
0.00339676
0.00342822
0.00345779
0.00348544
0.00351114
0.00353486
0.00355658
0.00357629
0.00359397
0.00360962
0.00362325
0.00363484
0.00364442
0.003652
0.00365762
0.00366127
0.00366289
0.0036628
0.00366081
0.00365704
0.00365152
0.00364431
0.00363546
0.00362504
0.00361311
0.00359973
0.00358496
0.00356886
0.00355152
0.00353299
0.00351334
0.00349263
0.00347094
0.00344833
0.00342487
0.00340062
0.00337564
0.00334999
0.00332374
0.00329693
0.00326962
0.00324187
0.00321371
0.00318521
0.00315639
0.00312731
0.003098
0.0030685
0.00303885
0.00300908
0.00297923
0.00294934
0.00291942
0.0028895
0.00285962
0.0028298
0.00280006
0.00277042
0.00274091
0.00271153
0.00268231
0.00265327
0.00262442
0.00259577
0.00256734
0.00253913
0.00251117
0.00248345
0.002456
0.0024288
0.00240188
0.00237524
0.00234889
0.00232282
0.00229705
0.00227157
0.00224639
0.00222151
0.00219694
0.00217267
0.0021487
0.00212504
0.00210168
0.00207862
0.00205586
0.0020334
0.00201123
0.00198936
0.00196779
0.0019465
0.0019255
0.00190479
0.00188437
0.00186422
0.00184435
0.00182476
0.00180544
0.00178638
0.00176759
0.00174906
0.00173078
0.00171275
0.00169497
0.00167744
0.00166014
0.00164308
0.00162625
0.00160965
0.00159327
0.00157711
0.00156117
0.00154544
0.00152991
0.00151458
0.00149945
0.00148451
0.00146975
0.00145515
0.00144072
0.00142643
0.00141228
0.00139822
0.00138425
0.00137032
0.00135638
0.00134236
0.0013282
0.00131374
0.00129901
0.00128397
0.00125974
3.27882e-05
0.00014407
0.000275146
0.000409113
0.000538817
0.000642031
0.00071916
0.00078065
0.000836639
0.000894823
0.000963209
0.00105577
0.00116589
0.00128737
0.00140284
0.00151402
0.00162173
0.00172617
0.00182727
0.00192497
0.0020193
0.00211034
0.00219824
0.00228319
0.00236541
0.00244512
0.00252254
0.00259789
0.00267136
0.00274311
0.0028133
0.00288203
0.00294939
0.00301546
0.00308027
0.00314384
0.00320617
0.00326724
0.00332703
0.00338549
0.00344259
0.00349825
0.00355243
0.00360506
0.00365608
0.00370541
0.003753
0.00379878
0.00384269
0.00388468
0.00392467
0.00396263
0.00399851
0.00403226
0.00406385
0.00409325
0.00412042
0.00414535
0.00416802
0.00418842
0.00420655
0.0042224
0.00423598
0.00424731
0.00425639
0.00426326
0.00426798
0.00427044
0.00427087
0.00426922
0.00426555
0.00425991
0.00425234
0.00424291
0.00423168
0.0042187
0.00420405
0.0041878
0.00417
0.00415073
0.00413006
0.00410807
0.00408482
0.00406039
0.00403485
0.00400827
0.00398073
0.00395228
0.00392301
0.00389298
0.00386225
0.00383089
0.00379896
0.00376651
0.00373362
0.00370032
0.00366668
0.00363274
0.00359857
0.00356419
0.00352967
0.00349503
0.00346033
0.0034256
0.00339087
0.00335617
0.00332154
0.00328701
0.00325259
0.00321833
0.00318423
0.00315032
0.00311662
0.00308314
0.00304991
0.00301693
0.00298422
0.0029518
0.00291967
0.00288784
0.00285632
0.00282512
0.00279425
0.0027637
0.0027335
0.00270363
0.0026741
0.00264492
0.00261609
0.0025876
0.00255946
0.00253167
0.00250423
0.00247713
0.00245037
0.00242395
0.00239787
0.00237214
0.00234673
0.00232166
0.00229693
0.00227252
0.00224843
0.00222467
0.00220122
0.00217809
0.00215527
0.00213275
0.00211053
0.00208861
0.00206698
0.00204563
0.00202458
0.0020038
0.00198329
0.00196306
0.00194309
0.00192338
0.00190393
0.00188473
0.00186578
0.00184707
0.00182859
0.00181035
0.00179232
0.00177451
0.00175691
0.00173949
0.00172226
0.00170518
0.00168824
0.0016714
0.00165463
0.00163788
0.00162108
0.00160416
0.00158697
0.00156958
0.00155164
0.00152551
3.22253e-05
0.000141106
0.000268673
0.00039759
0.000521186
0.00063304
0.000726764
0.000808128
0.000891963
0.000987817
0.00109757
0.00122265
0.00135909
0.00148647
0.00160666
0.00172156
0.00183216
0.0019388
0.00204181
0.00214155
0.00223824
0.00233207
0.00242325
0.00251199
0.00259849
0.00268296
0.00276558
0.00284654
0.00292598
0.00300402
0.00308079
0.00315635
0.00323076
0.00330406
0.00337626
0.00344735
0.0035173
0.00358609
0.00365366
0.00371995
0.00378491
0.00384845
0.00391051
0.00397101
0.00402987
0.00408702
0.00414237
0.00419585
0.00424738
0.00429691
0.00434435
0.00438966
0.00443277
0.00447364
0.00451221
0.00454846
0.00458233
0.00461381
0.00464287
0.00466949
0.00469367
0.0047154
0.00473467
0.0047515
0.00476591
0.0047779
0.0047875
0.00479473
0.00479966
0.00480223
0.00480262
0.0048008
0.00479684
0.00479077
0.00478267
0.00477259
0.00476058
0.00474673
0.00473109
0.00471373
0.00469472
0.00467413
0.00465204
0.00462852
0.00460363
0.00457746
0.00455007
0.00452155
0.00449195
0.00446136
0.00442983
0.00439745
0.00436427
0.00433037
0.0042958
0.00426063
0.00422493
0.00418874
0.00415214
0.00411516
0.00407788
0.00404034
0.00400259
0.00396467
0.00392663
0.00388851
0.00385036
0.0038122
0.00377407
0.00373601
0.00369805
0.00366021
0.00362252
0.00358501
0.0035477
0.00351061
0.00347376
0.00343717
0.00340085
0.00336482
0.00332909
0.00329367
0.00325858
0.00322382
0.00318941
0.00315534
0.00312162
0.00308827
0.00305528
0.00302265
0.0029904
0.00295852
0.00292701
0.00289587
0.0028651
0.0028347
0.00280466
0.002775
0.00274571
0.00271678
0.00268821
0.00266001
0.00263216
0.00260467
0.00257753
0.00255074
0.00252429
0.00249818
0.0024724
0.00244696
0.00242184
0.00239704
0.00237257
0.00234841
0.00232455
0.002301
0.00227775
0.0022548
0.00223213
0.00220976
0.00218766
0.00216583
0.00214428
0.00212299
0.00210195
0.00208116
0.0020606
0.00204027
0.00202014
0.0020002
0.00198042
0.00196077
0.00194121
0.0019217
0.00190215
0.00188251
0.00186263
0.00184258
0.00182183
0.00179351
3.08511e-05
0.000135012
0.000257908
0.000383075
0.000504929
0.000620961
0.000731696
0.000841023
0.000956318
0.00108261
0.00122103
0.00137105
0.00151322
0.00164507
0.00176922
0.00188753
0.00200114
0.00211067
0.00221652
0.00231888
0.00241817
0.00251475
0.00260894
0.00270099
0.00279113
0.00287956
0.00296646
0.00305199
0.00313628
0.00321945
0.00330157
0.00338271
0.00346289
0.00354213
0.00362042
0.00369775
0.00377405
0.00384929
0.0039234
0.0039963
0.00406792
0.00413816
0.00420695
0.00427418
0.00433977
0.00440363
0.00446567
0.0045258
0.00458394
0.00464001
0.00469393
0.00474564
0.00479507
0.00484216
0.00488686
0.00492912
0.00496891
0.00500618
0.00504091
0.00507308
0.00510267
0.00512968
0.0051541
0.00517593
0.0051952
0.0052119
0.00522606
0.00523772
0.00524689
0.00525361
0.00525793
0.00525987
0.00525953
0.00525692
0.0052521
0.00524513
0.00523608
0.005225
0.00521196
0.00519702
0.00518026
0.00516174
0.00514154
0.00511972
0.00509636
0.00507153
0.00504531
0.00501777
0.00498897
0.004959
0.00492791
0.00489579
0.0048627
0.00482871
0.00479388
0.00475828
0.00472197
0.00468502
0.00464749
0.00460944
0.00457092
0.004532
0.00449272
0.00445314
0.00441331
0.00437326
0.00433306
0.00429274
0.00425234
0.0042119
0.00417146
0.00413105
0.0040907
0.00405045
0.00401032
0.00397034
0.00393054
0.00389093
0.00385154
0.00381239
0.00377349
0.00373487
0.00369654
0.00365851
0.00362079
0.00358339
0.00354633
0.00350962
0.00347325
0.00343724
0.00340159
0.00336631
0.0033314
0.00329687
0.0032627
0.00322891
0.0031955
0.00316247
0.00312981
0.00309753
0.00306563
0.0030341
0.00300294
0.00297216
0.00294175
0.0029117
0.00288202
0.00285269
0.00282373
0.00279511
0.00276685
0.00273893
0.00271135
0.00268411
0.00265721
0.00263063
0.00260438
0.00257845
0.00255284
0.00252754
0.00250254
0.00247784
0.00245344
0.00242933
0.0024055
0.00238194
0.00235865
0.0023356
0.00231278
0.00229017
0.00226775
0.00224548
0.00222332
0.00220122
0.00217912
0.00215693
0.00213453
0.00211197
0.00208867
0.00205802
2.93026e-05
0.000128713
0.000248089
0.000372268
0.000496884
0.000620871
0.000745777
0.000875354
0.001013
0.00116064
0.00131842
0.00148
0.00162761
0.0017639
0.00189188
0.00201353
0.00213011
0.00224245
0.00235108
0.00245638
0.00255866
0.00265812
0.00275519
0.00285023
0.00294352
0.0030353
0.00312578
0.00321511
0.00330342
0.00339081
0.00347736
0.00356311
0.00364809
0.00373229
0.00381568
0.00389824
0.00397991
0.00406061
0.00414028
0.00421881
0.00429612
0.0043721
0.00444667
0.0045197
0.00459111
0.00466078
0.00472862
0.00479453
0.00485842
0.0049202
0.00497978
0.0050371
0.00509207
0.00514463
0.00519473
0.00524231
0.00528732
0.00532973
0.0053695
0.00540661
0.00544105
0.00547279
0.00550185
0.0055282
0.00555188
0.00557288
0.00559123
0.00560695
0.00562007
0.00563063
0.00563866
0.0056442
0.00564731
0.00564803
0.00564643
0.00564255
0.00563646
0.00562821
0.00561787
0.00560551
0.00559119
0.00557497
0.00555694
0.00553716
0.00551571
0.00549265
0.00546806
0.00544201
0.00541458
0.00538583
0.00535583
0.00532467
0.00529239
0.00525908
0.00522479
0.00518961
0.00515358
0.00511678
0.00507926
0.0050411
0.00500234
0.00496306
0.00492329
0.0048831
0.00484254
0.00480166
0.0047605
0.00471912
0.00467755
0.00463584
0.00459402
0.00455215
0.00451024
0.00446834
0.00442649
0.00438469
0.004343
0.00430143
0.00426002
0.00421877
0.00417772
0.00413689
0.00409629
0.00405594
0.00401586
0.00397606
0.00393656
0.00389736
0.00385848
0.00381993
0.00378171
0.00374383
0.0037063
0.00366913
0.00363231
0.00359585
0.00355976
0.00352404
0.00348868
0.0034537
0.00341909
0.00338485
0.00335099
0.00331749
0.00328437
0.00325162
0.00321924
0.00318722
0.00315556
0.00312427
0.00309333
0.00306276
0.00303253
0.00300265
0.00297312
0.00294393
0.00291509
0.00288657
0.00285839
0.00283054
0.00280301
0.00277579
0.00274889
0.0027223
0.00269601
0.00267001
0.00264428
0.00261883
0.00259362
0.00256865
0.00254388
0.00251928
0.00249481
0.00247042
0.00244604
0.00242159
0.00239698
0.00237218
0.00234668
0.00231388
2.76143e-05
0.000122124
0.000238102
0.000361646
0.000489132
0.000619956
0.000756372
0.000900162
0.00105294
0.0012152
0.00138742
0.00155317
0.00170476
0.00184491
0.00197639
0.00210116
0.00222055
0.0023355
0.00244667
0.00255456
0.00265954
0.00276192
0.00286197
0.00295989
0.00305609
0.00315086
0.00324446
0.00333705
0.00342878
0.00351977
0.00361008
0.00369975
0.0037888
0.00387722
0.00396497
0.004052
0.00413826
0.00422365
0.00430809
0.00439147
0.00447369
0.00455464
0.00463421
0.00471228
0.00478873
0.00486346
0.00493636
0.00500731
0.00507623
0.00514301
0.00520756
0.0052698
0.00532965
0.00538703
0.0054419
0.00549418
0.00554384
0.00559082
0.00563509
0.00567663
0.00571541
0.00575143
0.00578467
0.00581513
0.00584282
0.00586776
0.00588995
0.00590943
0.00592622
0.00594036
0.00595187
0.00596081
0.00596722
0.00597114
0.00597263
0.00597176
0.00596859
0.00596316
0.00595554
0.00594579
0.00593399
0.00592019
0.00590447
0.00588689
0.00586754
0.00584649
0.00582379
0.00579954
0.00577379
0.00574663
0.00571811
0.00568831
0.0056573
0.00562514
0.00559191
0.00555767
0.00552248
0.00548641
0.00544952
0.00541188
0.00537354
0.00533457
0.00529502
0.00525495
0.0052144
0.00517343
0.00513209
0.00509042
0.00504848
0.00500631
0.00496394
0.00492142
0.00487879
0.00483608
0.00479333
0.00475057
0.00470783