/*--------------------------------*- C++ -*----------------------------------*\
  =========                 |
  \\      /  F ield         | OpenFOAM: The Open Source CFD Toolbox
   \\    /   O peration     | Website:  https://openfoam.org
    \\  /    A nd           | Version:  8
     \\/     M anipulation  |
\*---------------------------------------------------------------------------*/
FoamFile
{
    version     2.0;
    format      ascii;
    class       volScalarField;
    location    "3100";
    object      nuTilda;
}
// * * * * * * * * * * * * * * * * * * * * * * * * * * * * * * * * * * * * * //

dimensions      [0 2 -1 0 0 0 0];

internalField   nonuniform List<scalar> 
12225
(
0.0122671
0.00158833
0.000666932
0.000412201
0.000298001
0.000234418
0.000192049
0.000186517
0.000141364
0.000110263
9.73199e-05
9.07189e-05
8.20027e-05
7.63417e-05
7.17067e-05
7.0172e-05
6.81326e-05
7.40045e-05
0.0323823
0.00744533
0.00330642
0.00204338
0.00146818
0.00114477
0.000936743
0.000800566
0.000680243
0.000578059
0.000507246
0.00045356
0.000411866
0.000380371
0.00035202
0.000329993
0.000313754
0.00029588
0.0490123
0.01515
0.00728196
0.00457856
0.00330642
0.00258059
0.00211241
0.00178924
0.00154196
0.00134781
0.00119795
0.00107898
0.000982389
0.000902873
0.000836437
0.000781445
0.000736159
0.000687884
0.063054
0.0237783
0.0122894
0.00788815
0.00573398
0.004485
0.00367415
0.00310736
0.00268476
0.00235811
0.00210119
0.00189468
0.00172542
0.00158464
0.0014663
0.00136623
0.00128167
0.00119814
0.074932
0.0328517
0.0181452
0.0119262
0.00874549
0.00686413
0.00563081
0.00476256
0.0041175
0.00362032
0.00322735
0.00290996
0.00264904
0.00243149
0.00224806
0.00209196
0.00195835
0.00183637
0.0849536
0.0420208
0.0246655
0.0166359
0.0123325
0.00972587
0.0079954
0.00676785
0.00585346
0.00514771
0.00458846
0.00413589
0.00376337
0.00345242
0.00318986
0.002966
0.00277364
0.00260477
0.0933822
0.0510219
0.0316642
0.0219415
0.016474
0.0130717
0.0107779
0.00913552
0.00790571
0.00695341
0.00619691
0.00558368
0.00507838
0.00465634
0.00429978
0.00399563
0.00373417
0.00350821
0.0993794
0.0583363
0.0378386
0.0268568
0.0204171
0.0163053
0.0134892
0.011453
0.00991891
0.00872629
0.00777635
0.00700498
0.00636867
0.00583686
0.00538741
0.00500399
0.00467453
0.00439128
0.104023
0.0645454
0.0433804
0.0314239
0.0241571
0.0194092
0.0161097
0.0137018
0.0118766
0.0104521
0.00931443
0.00838904
0.00762486
0.00698575
0.00644545
0.0059845
0.00558859
0.00524878
0.108368
0.0708939
0.0493756
0.0365496
0.0284517
0.0230231
0.0191863
0.0163547
0.0141926
0.0124968
0.011138
0.0100304
0.00911434
0.0083476
0.0076991
0.00714579
0.00667069
0.00626298
0.112368
0.0772557
0.0557282
0.0421918
0.0332976
0.0271652
0.0227467
0.0194432
0.0168984
0.0148903
0.0132749
0.0119544
0.0108605
0.00994379
0.00916797
0.00850586
0.00793736
0.00744915
0.115994
0.0834975
0.0623053
0.0482611
0.0386474
0.0318167
0.026789
0.0229739
0.0200046
0.0176452
0.0157378
0.0141736
0.0128749
0.011785
0.0108618
0.0100736
0.00939671
0.00881464
0.119234
0.0894856
0.0689377
0.0546109
0.0443919
0.0369007
0.0312597
0.0269088
0.0234836
0.02074
0.0185096
0.0166735
0.0151449
0.01386
0.0127704
0.0118396
0.0110397
0.0103508
0.122086
0.095084
0.075415
0.0610223
0.0503361
0.0422534
0.0360231
0.0311353
0.0272402
0.024093
0.021519
0.0193909
0.017614
0.0161174
0.0148466
0.01376
0.0128257
0.0120196
0.124546
0.100135
0.0814619
0.0671725
0.056158
0.047577
0.0408126
0.0354174
0.031066
0.0275196
0.0246012
0.0221777
0.0201481
0.0184349
0.0169782
0.0157314
0.0146583
0.0137311
0.126578
0.104396
0.0866605
0.0725515
0.0613228
0.0523526
0.0451453
0.0393148
0.0345631
0.0306611
0.0274325
0.0247409
0.0224806
0.020569
0.0189413
0.0175468
0.0163454
0.0153061
0.128011
0.107322
0.0902141
0.0762353
0.0648743
0.0556509
0.0481493
0.0420254
0.0370012
0.0328553
0.0294126
0.0265352
0.0241143
0.0220643
0.0203172
0.0188191
0.0175275
0.0164083
0.128006
0.107313
0.0902048
0.0762269
0.0648674
0.0556454
0.048145
0.0420222
0.0369988
0.0328537
0.0294117
0.0265349
0.0241147
0.0220652
0.0203185
0.0188206
0.0175287
0.0164083
0.126509
0.104255
0.0864922
0.0723807
0.0611613
0.052205
0.0450128
0.0391967
0.0344584
0.0305686
0.0273506
0.0246684
0.0224163
0.0205118
0.0188903
0.0175006
0.0163024
0.0152631
0.124267
0.0995604
0.0807712
0.0664676
0.0554886
0.0469631
0.0402594
0.0349228
0.0306248
0.0271258
0.0242488
0.0218611
0.0198626
0.0181762
0.0167426
0.0155152
0.0144575
0.0135405
0.12136
0.0936399
0.0737261
0.0593348
0.0487592
0.0408249
0.0347467
0.0300003
0.0262308
0.0231928
0.0207127
0.018665
0.0169572
0.0155198
0.0142999
0.0132567
0.0123583
0.0115798
0.117686
0.0865903
0.0656967
0.0514791
0.0415374
0.0343608
0.0290184
0.0249322
0.0217348
0.0191848
0.0171184
0.0154211
0.0140106
0.0128263
0.0118229
0.0109657
0.010228
0.00958895
0.11305
0.0784122
0.056921
0.0432687
0.0342296
0.0279652
0.0234365
0.0200435
0.0174263
0.0153597
0.0136966
0.0123369
0.0112106
0.0102671
0.00946867
0.0087872
0.00820103
0.00769347
0.107169
0.0691009
0.0476372
0.035029
0.0271566
0.021922
0.0182437
0.0155401
0.0134817
0.0118706
0.0105816
0.00953197
0.00866487
0.00793966
0.00732671
0.00680379
0.00635416
0.00596496
0.0996761
0.0587036
0.0381279
0.0270699
0.0205782
0.016433
0.0135949
0.0115438
0.00999923
0.00879908
0.00784341
0.00706756
0.00642791
0.00589358
0.00544232
0.00505735
0.0047265
0.00444013
0.0901097
0.0473665
0.0287363
0.0196847
0.0146976
0.0116312
0.00957853
0.00811528
0.00702332
0.00617995
0.00551058
0.00496794
0.00452117
0.00414811
0.00383339
0.00356443
0.00333378
0.00313394
0.0779076
0.0353826
0.0198606
0.0131383
0.00966107
0.00759298
0.00623353
0.00527431
0.00456401
0.00401885
0.00358701
0.00323608
0.00294735
0.00270569
0.00250275
0.00232753
0.00217874
0.00204926
0.06238
0.0232554
0.0119461
0.00765494
0.00556339
0.00435258
0.00356726
0.00301643
0.00261312
0.00230799
0.00206672
0.00186707
0.00170289
0.00156325
0.0014491
0.0013455
0.00126008
0.00118529
0.0426105
0.0117794
0.00546931
0.00341388
0.00246077
0.00192015
0.0015729
0.00132905
0.00115971
0.00103882
0.000944719
0.000857723
0.00078723
0.000718817
0.000673698
0.000622824
0.000574511
0.000542378
0.0168348
0.0025599
0.00110031
0.000684192
0.000495179
0.000389151
0.00032166
0.000270751
0.000280923
0.000338748
0.000385624
0.000370705
0.000353021
0.000289042
0.000353924
0.000325759
0.000243253
0.000290657
3.78127e-06
1.43225e-05
2.60298e-05
3.85382e-05
4.60115e-05
4.96625e-05
5.01553e-05
4.7813e-05
4.46226e-05
3.95538e-05
3.42193e-05
2.94482e-05
2.67709e-05
2.74486e-05
2.96324e-05
3.14818e-05
3.13387e-05
2.85144e-05
2.38715e-05
2.02113e-05
2.08249e-05
2.64248e-05
3.9344e-05
6.39101e-05
8.72025e-05
0.000100615
0.000113337
0.000124345
0.00013433
0.000142833
0.000150425
0.000157044
0.000162905
0.00016806
0.000172592
0.000176618
0.000180205
0.000183424
0.000186321
0.000188932
0.000191281
0.000193387
0.000195265
0.000196928
0.000198387
0.000199655
0.000200741
0.000201649
0.000202381
0.000202806
0.000203297
0.00020338
0.000203439
0.000203323
0.000203046
0.000202632
0.000202076
0.000201384
0.000200556
0.000199594
0.000198502
0.000197281
0.000195934
0.000194464
0.000192874
0.000191167
0.000189343
0.000187407
0.000185361
0.000183208
0.000180952
0.000178594
0.000176137
0.000173585
0.000170939
0.000168202
0.000165376
0.000162464
0.000159467
0.000156388
0.000153227
0.000149985
0.000146662
0.000143259
0.000139777
0.000136208
0.000132535
0.000128733
0.000124794
0.000120727
0.000116535
0.000112177
0.000107623
0.000102961
9.84067e-05
9.44198e-05
9.15963e-05
8.98396e-05
8.85248e-05
8.73202e-05
8.61368e-05
8.4958e-05
8.37821e-05
8.26097e-05
8.14417e-05
8.02791e-05
7.91231e-05
7.79781e-05
7.68651e-05
7.59103e-05
7.49764e-05
7.40485e-05
7.31286e-05
7.22169e-05
7.13139e-05
7.04199e-05
6.95351e-05
6.86601e-05
6.77951e-05
6.69402e-05
6.60956e-05
6.52616e-05
6.44385e-05
6.36267e-05
6.28261e-05
6.20367e-05
6.12595e-05
6.05201e-05
5.98429e-05
5.91743e-05
5.8511e-05
5.78609e-05
5.7229e-05
5.66023e-05
5.59804e-05
5.53665e-05
5.47617e-05
5.41665e-05
5.3581e-05
5.30051e-05
5.24387e-05
5.18816e-05
5.13337e-05
5.07948e-05
5.02649e-05
4.97437e-05
4.92313e-05
4.87275e-05
4.82322e-05
4.77454e-05
4.72669e-05
4.67967e-05
4.63348e-05
4.58812e-05
4.54359e-05
4.49988e-05
4.457e-05
4.41497e-05
4.3738e-05
4.33349e-05
4.29408e-05
4.25558e-05
4.21802e-05
4.18143e-05
4.14581e-05
4.11119e-05
4.07756e-05
4.0449e-05
4.01315e-05
3.98227e-05
3.95203e-05
3.92248e-05
3.8927e-05
3.86403e-05
3.83114e-05
3.80557e-05
3.75479e-05
3.7353e-05
3.63023e-05
3.4908e-05
5.89817e-06
4.05892e-05
9.2467e-05
0.000153708
0.000192552
0.000214556
0.000223347
0.00022192
0.000214076
0.000198517
0.000179501
0.000161547
0.00015248
0.000157007
0.000169321
0.000177335
0.000179532
0.000180676
0.000185631
0.00019434
0.000208078
0.000224512
0.000240377
0.000256186
0.000267067
0.000276646
0.000285195
0.000297693
0.000316341
0.000330004
0.000342517
0.000353263
0.000363042
0.000372014
0.000379811
0.000386935
0.000393571
0.00039994
0.000406173
0.000412333
0.000418415
0.000424377
0.000430166
0.000435742
0.000441077
0.000446152
0.000450955
0.000455471
0.000459702
0.000463647
0.000467346
0.000470764
0.00047394
0.000476862
0.000479536
0.000481963
0.000484142
0.000486075
0.000487763
0.000489205
0.000490401
0.000491355
0.000492066
0.00049254
0.000492787
0.000492812
0.000492609
0.000492174
0.000491525
0.000490664
0.000489598
0.000488333
0.000486876
0.000485233
0.000483411
0.000481419
0.000479262
0.00047695
0.000474488
0.000471886
0.000469152
0.000466292
0.000463317
0.000460233
0.000457051
0.000453778
0.00045042
0.000446983
0.000443472
0.000439901
0.000436283
0.000432618
0.000428896
0.000425118
0.00042127
0.000417317
0.000413248
0.000409091
0.000404894
0.000400683
0.000396465
0.000392244
0.000388024
0.000383808
0.0003796
0.000375403
0.00037122
0.000367053
0.000362902
0.000358765
0.000354653
0.000350571
0.000346519
0.0003425
0.000338516
0.000334568
0.000330658
0.000326787
0.000322957
0.00031917
0.000315424
0.000311723
0.000308066
0.000304455
0.000300891
0.000297374
0.000293903
0.000290477
0.000287094
0.000283759
0.000280469
0.000277232
0.000274049
0.000270906
0.0002678
0.000264738
0.000261721
0.000258752
0.000255829
0.000252953
0.000250123
0.000247339
0.000244599
0.000241903
0.000239252
0.000236643
0.000234077
0.000231553
0.00022907
0.000226629
0.000224229
0.000221869
0.000219549
0.00021727
0.000215031
0.000212832
0.000210674
0.000208557
0.000206482
0.000204449
0.000202461
0.000200517
0.00019862
0.000196772
0.000194973
0.000193225
0.000191529
0.000189884
0.00018829
0.000186746
0.000185245
0.000183791
0.000182355
0.000180991
0.000179507
0.000178384
0.000176288
0.000175965
0.000172986
0.000172123
1.28769e-05
7.40676e-05
0.000174306
0.000251875
0.000303656
0.000333362
0.000344211
0.000341393
0.000328795
0.000309925
0.000290644
0.000278291
0.000276102
0.000282578
0.000292642
0.000303195
0.000315665
0.000332281
0.000353515
0.000378315
0.000405389
0.000433478
0.000471401
0.000517516
0.000562965
0.000606965
0.000649943
0.000693514
0.000732777
0.000764014
0.000788985
0.000808782
0.000824476
0.000836929
0.000846922
0.000855229
0.00086255
0.000869529
0.000876702
0.000884425
0.000892805
0.00090172
0.000910929
0.000920197
0.000929346
0.000938258
0.000946854
0.000955089
0.000962925
0.000970334
0.000977295
0.000983776
0.000989776
0.000995287
0.00100031
0.00100484
0.00100888
0.00101242
0.00101547
0.00101804
0.0010201
0.00102168
0.00102276
0.00102331
0.00102346
0.00102318
0.00102239
0.00102114
0.00101946
0.00101734
0.0010148
0.00101186
0.00100853
0.00100481
0.00100074
0.000996308
0.000991545
0.000986461
0.000981071
0.00097539
0.000969434
0.000963219
0.000956758
0.000950067
0.000943162
0.000936058
0.000928769
0.000921309
0.00091369
0.000905927
0.000898032
0.000890018
0.000881892
0.000873661
0.000865336
0.000856925
0.000848441
0.0008399
0.000831319
0.00082271
0.000814084
0.00080545
0.000796817
0.000788191
0.00077958
0.000770992
0.000762431
0.000753906
0.00074542
0.00073698
0.000728591
0.000720258
0.000711987
0.000703781
0.000695644
0.000687579
0.00067959
0.000671678
0.000663848
0.000656101
0.000648439
0.000640864
0.000633378
0.000625983
0.00061868
0.00061147
0.000604352
0.000597328
0.000590398
0.000583562
0.000576822
0.000570177
0.000563627
0.000557163
0.000550787
0.000544501
0.000538306
0.000532202
0.000526191
0.000520271
0.000514442
0.000508702
0.000503051
0.000497488
0.000492011
0.000486619
0.000481312
0.000476087
0.000470945
0.000465883
0.000460901
0.000455998
0.000451172
0.000446422
0.000441748
0.000437147
0.00043262
0.000428165
0.000423781
0.000419465
0.000415218
0.000411038
0.000406921
0.000402868
0.000398874
0.000394937
0.000391052
0.000387214
0.000383417
0.000379653
0.000375908
0.00037217
0.000368413
0.00036462
0.000360718
0.00035674
0.00035232
0.000348018
0.00034156
0.000330407
2.17718e-05
0.000106435
0.00022024
0.000312836
0.000375514
0.000412496
0.000427922
0.000428309
0.00041839
0.00040512
0.000397052
0.000396225
0.000405352
0.000422394
0.000444954
0.000472506
0.000505658
0.000544776
0.00058906
0.000651114
0.000724817
0.000804482
0.000888645
0.000959241
0.00102163
0.00107771
0.0011281
0.00117299
0.00121223
0.00124611
0.00127534
0.00130066
0.00132278
0.00134231
0.00135984
0.00137586
0.00139078
0.00140494
0.0014186
0.00143195
0.00144511
0.00145816
0.00147112
0.00148397
0.00149666
0.00150912
0.00152125
0.00153295
0.00154414
0.00155474
0.00156469
0.00157396
0.00158253
0.00159039
0.00159753
0.00160394
0.00160961
0.00161455
0.00161875
0.00162221
0.00162493
0.00162691
0.00162806
0.0016285
0.00162837
0.00162746
0.00162584
0.00162352
0.00162052
0.00161686
0.00161257
0.00160765
0.00160213
0.00159603
0.00158937
0.00158218
0.00157448
0.00156628
0.00155762
0.00154851
0.00153898
0.00152906
0.00151876
0.0015081
0.00149712
0.00148583
0.00147426
0.00146243
0.00145035
0.00143806
0.00142556
0.00141288
0.00140003
0.00138704
0.00137391
0.00136066
0.00134732
0.00133389
0.0013204
0.00130687
0.00129332
0.00127975
0.00126618
0.00125263
0.00123909
0.0012256
0.00121215
0.00119875
0.00118541
0.00117215
0.00115897
0.00114587
0.00113287
0.00111997
0.00110718
0.0010945
0.00108194
0.00106949
0.00105717
0.00104498
0.00103293
0.001021
0.00100922
0.000997573
0.000986069
0.000974707
0.000963489
0.000952415
0.000941488
0.000930706
0.000920072
0.000909583
0.000899238
0.000889032
0.000878965
0.000869037
0.00085925
0.000849605
0.0008401
0.000830736
0.000821511
0.000812424
0.000803473
0.000794657
0.000785973
0.000777422
0.000768999
0.000760705
0.000752537
0.000744493
0.000736571
0.00072877
0.000721088
0.000713522
0.000706072
0.000698735
0.00069151
0.000684394
0.000677385
0.000670482
0.000663682
0.000656981
0.000650378
0.000643869
0.000637449
0.000631115
0.000624858
0.000618673
0.00061255
0.000606475
0.000600434
0.000594405
0.000588357
0.000582256
0.000576035
0.00056964
0.000562889
0.000555728
0.000547506
0.000531408
2.69713e-05
0.000122012
0.000241115
0.000357834
0.000435854
0.000483016
0.000506515
0.000514939
0.000516506
0.000517489
0.000524334
0.000540421
0.00056637
0.000601233
0.000644234
0.000695397
0.000755371
0.000838674
0.000934251
0.00103039
0.00111935
0.00120371
0.00128303
0.0013557
0.00142245
0.00148385
0.0015403
0.00159214
0.00163973
0.0016835
0.00172392
0.00176148
0.00179661
0.00182969
0.00186102
0.00189086
0.0019194
0.00194678
0.00197311
0.00199843
0.00202279
0.0020462
0.00206864
0.00209011
0.00211057
0.00213
0.00214837
0.00216564
0.0021818
0.00219682
0.00221069
0.00222342
0.00223501
0.00224548
0.00225485
0.00226313
0.00227035
0.00227651
0.00228164
0.00228574
0.00228884
0.00229089
0.00229181
0.0022919
0.00229102
0.00228914
0.00228631
0.00228254
0.00227785
0.00227227
0.00226582
0.00225854
0.00225044
0.00224156
0.00223193
0.00222158
0.00221054
0.00219883
0.0021865
0.00217357
0.00216008
0.00214605
0.00213151
0.00211651
0.00210105
0.00208519
0.00206895
0.00205235
0.00203543
0.00201822
0.00200074
0.00198301
0.00196507
0.00194694
0.00192863
0.00191018
0.0018916
0.00187292
0.00185417
0.00183536
0.00181651
0.00179766
0.0017788
0.00175997
0.00174117
0.00172242
0.00170374
0.00168513
0.00166661
0.00164819
0.00162988
0.00161169
0.00159364
0.00157572
0.00155795
0.00154034
0.00152288
0.00150559
0.00148848
0.00147154
0.00145478
0.0014382
0.00142182
0.00140562
0.00138962
0.00137381
0.0013582
0.00134279
0.00132758
0.00131256
0.00129775
0.00128313
0.00126871
0.00125449
0.00124045
0.00122661
0.00121296
0.00119951
0.00118624
0.00117317
0.00116028
0.00114759
0.00113507
0.00112275
0.0011106
0.00109863
0.00108684
0.00107522
0.00106377
0.00105249
0.00104137
0.00103042
0.00101964
0.001009
0.000998529
0.000988208
0.000978036
0.000968013
0.000958134
0.000948397
0.000938799
0.000929336
0.000920004
0.000910799
0.000901715
0.000892747
0.000883887
0.000875125
0.000866451
0.000857849
0.0008493
0.000840779
0.000832253
0.000823678
0.000814986
0.000806107
0.000796876
0.000787146
0.00077719
0.000757404
3.0798e-05
0.000135319
0.000261504
0.000392465
0.000488737
0.000550341
0.000588059
0.000611446
0.000629152
0.000648425
0.000674505
0.000710042
0.000755778
0.000811991
0.00087909
0.000969513
0.00107458
0.00117625
0.00127543
0.0013709
0.00146158
0.00154756
0.00162879
0.00170524
0.00177719
0.001845
0.00190901
0.00196955
0.00202696
0.00208156
0.00213368
0.00218361
0.00223159
0.00227783
0.00232249
0.0023657
0.00240755
0.00244809
0.00248734
0.00252533
0.00256204
0.00259745
0.00263154
0.00266428
0.00269562
0.00272552
0.00275394
0.00278085
0.00280621
0.00282998
0.00285213
0.00287265
0.00289152
0.00290872
0.00292426
0.00293812
0.00295032
0.00296086
0.00296976
0.00297702
0.00298268
0.00298676
0.00298918
0.00299008
0.00298962
0.00298765
0.00298431
0.0029796
0.0029736
0.00296635
0.0029579
0.00294831
0.00293762
0.0029259
0.00291318
0.00289951
0.00288495
0.00286954
0.00285331
0.00283632
0.00281861
0.00280022
0.00278119
0.00276156
0.00274137
0.00272066
0.00269947
0.00267784
0.00265581
0.00263341
0.00261068
0.00258766
0.00256436
0.00254083
0.0025171
0.00249319
0.00246914
0.00244497
0.0024207
0.00239638
0.00237202
0.00234765
0.00232329
0.00229895
0.00227467
0.00225045
0.00222632
0.00220229
0.00217838
0.0021546
0.00213096
0.00210748
0.00208417
0.00206104
0.0020381
0.00201535
0.00199281
0.00197048
0.00194838
0.00192649
0.00190484
0.00188343
0.00186225
0.00184132
0.00182063
0.0018002
0.00178001
0.00176007
0.00174039
0.00172095
0.00170178
0.00168285
0.00166417
0.00164574
0.00162756
0.00160962
0.00159192
0.00157447
0.00155726
0.00154029
0.00152356
0.00150707
0.00149081
0.00147478
0.00145898
0.0014434
0.00142805
0.00141291
0.00139799
0.00138329
0.00136879
0.0013545
0.00134041
0.00132652
0.00131283
0.00129932
0.00128601
0.00127288
0.00125994
0.00124717
0.00123458
0.00122216
0.0012099
0.0011978
0.00118586
0.00117407
0.00116241
0.00115088
0.00113947
0.00112815
0.00111692
0.00110574
0.00109457
0.00108337
0.00107207
0.0010606
0.00104879
0.00103658
0.00102441
0.00100194
3.23481e-05
0.000142501
0.000273968
0.000409848
0.000527785
0.000609003
0.000665054
0.000706971
0.00074396
0.00078327
0.000829951
0.000886951
0.000955897
0.00104816
0.00115511
0.00126167
0.00136775
0.00147109
0.00157114
0.00166748
0.00175987
0.00184829
0.00193285
0.0020137
0.00209108
0.00216527
0.00223655
0.00230517
0.0023714
0.00243547
0.0024976
0.00255795
0.00261668
0.00267391
0.00272971
0.00278416
0.00283727
0.00288907
0.00293955
0.00298868
0.00303645
0.00308281
0.00312772
0.00317113
0.00321298
0.00325323
0.00329182
0.00332871
0.00336383
0.00339715
0.00342861
0.00345819
0.00348585
0.00351155
0.00353527
0.00355699
0.0035767
0.00359438
0.00361004
0.00362366
0.00363526
0.00364484
0.00365242
0.00365803
0.00366169
0.0036633
0.00366322
0.00366123
0.00365746
0.00365194
0.00364473
0.00363589
0.00362547
0.00361354
0.00360016
0.00358539
0.0035693
0.00355196
0.00353343
0.00351378
0.00349308
0.00347139
0.00344879
0.00342533
0.00340108
0.0033761
0.00335046
0.00332421
0.0032974
0.0032701
0.00324234
0.00321419
0.00318568
0.00315687
0.00312779
0.00309848
0.00306898
0.00303933
0.00300957
0.00297972
0.00294982
0.0029199
0.00288998
0.0028601
0.00283028
0.00280054
0.0027709
0.00274138
0.002712
0.00268278
0.00265374
0.00262488
0.00259623
0.0025678
0.00253959
0.00251162
0.00248391
0.00245645
0.00242925
0.00240233
0.00237569
0.00234933
0.00232326
0.00229748
0.002272
0.00224682
0.00222194
0.00219737
0.00217309
0.00214913
0.00212546
0.0021021
0.00207904
0.00205628
0.00203382
0.00201165
0.00198978
0.0019682
0.00194691
0.00192591
0.00190519
0.00188476
0.00186461
0.00184474
0.00182515
0.00180582
0.00178676
0.00176796
0.00174942
0.00173114
0.00171311
0.00169532
0.00167778
0.00166048
0.00164341
0.00162657
0.00160997
0.00159358
0.00157742
0.00156146
0.00154572
0.00153019
0.00151485
0.00149971
0.00148476
0.00146999
0.00145539
0.00144095
0.00142665
0.00141249
0.00139843
0.00138445
0.00137051
0.00135656
0.00134254
0.00132837
0.0013139
0.00129915
0.00128414
0.0012599
3.27958e-05
0.000144126
0.000275312
0.000409432
0.000539337
0.000642645
0.000719734
0.000781084
0.000836814
0.000894609
0.000962156
0.00105406
0.00116364
0.00128532
0.00140087
0.00151212
0.00161993
0.00172449
0.00182574
0.0019236
0.00201809
0.00210928
0.00219733
0.00228242
0.00236477
0.0024446
0.00252214
0.00259759
0.00267115
0.00274299
0.00281325
0.00288205
0.00294947
0.0030156
0.00308046
0.00314407
0.00320644
0.00326756
0.00332738
0.00338587
0.003443
0.00349869
0.00355289
0.00360554
0.00365657
0.00370592
0.00375352
0.00379931
0.00384323
0.00388522
0.00392523
0.00396319
0.00399908
0.00403283
0.00406443
0.00409382
0.004121
0.00414593
0.0041686
0.004189
0.00420713
0.00422298
0.00423656
0.00424789
0.00425698
0.00426385
0.00426857
0.00427102
0.00427146
0.00426981
0.00426614
0.0042605
0.00425293
0.0042435
0.00423227
0.0042193
0.00420465
0.0041884
0.0041706
0.00415133
0.00413067
0.00410868
0.00408543
0.004061
0.00403546
0.00400888
0.00398134
0.0039529
0.00392363
0.0038936
0.00386287
0.00383151
0.00379958
0.00376713
0.00373423
0.00370094
0.00366729
0.00363336
0.00359918
0.0035648
0.00353028
0.00349564
0.00346094
0.0034262
0.00339147
0.00335677
0.00332214
0.0032876
0.00325318
0.00321891
0.00318481
0.0031509
0.00311719
0.00308371
0.00305048
0.0030175
0.00298479
0.00295236
0.00292023
0.00288839
0.00285687
0.00282567
0.00279479
0.00276425
0.00273404
0.00270417
0.00267464
0.00264546
0.00261662
0.00258813
0.00255999
0.0025322
0.00250475
0.00247764
0.00245088
0.00242446
0.00239838
0.00237264
0.00234724
0.00232216
0.00229742
0.00227301
0.00224892
0.00222515
0.0022017
0.00217856
0.00215573
0.0021332
0.00211098
0.00208905
0.00206741
0.00204606
0.002025
0.00200421
0.00198369
0.00196345
0.00194347
0.00192376
0.0019043
0.00188509
0.00186613
0.00184741
0.00182892
0.00181067
0.00179263
0.00177481
0.0017572
0.00173978
0.00172253
0.00170544
0.00168849
0.00167165
0.00165487
0.00163811
0.0016213
0.00160437
0.00158718
0.00156978
0.00155185
0.00152571
3.22377e-05
0.000141196
0.000268904
0.000398016
0.000521852
0.000633963
0.000727737
0.000808815
0.000891786
0.000987053
0.00109623
0.00122088
0.00135724
0.00148474
0.00160502
0.00172002
0.00183073
0.00193749
0.00204063
0.0021405
0.00223732
0.00233129
0.0024226
0.00251146
0.00259807
0.00268265
0.00276537
0.00284642
0.00292594
0.00300406
0.0030809
0.00315653
0.003231
0.00330435
0.0033766
0.00344773
0.00351773
0.00358655
0.00365416
0.00372048
0.00378547
0.00384904
0.00391112
0.00397164
0.00403052
0.00408768
0.00414304
0.00419654
0.00424808
0.00429762
0.00434507
0.00439039
0.00443351
0.00447438
0.00451296
0.0045492
0.00458308
0.00461456
0.00464362
0.00467025
0.00469443
0.00471616
0.00473543
0.00475226
0.00476667
0.00477866
0.00478826
0.0047955
0.00480043
0.00480299
0.00480338
0.00480157
0.0047976
0.00479154
0.00478344
0.00477335
0.00476135
0.0047475
0.00473186
0.0047145
0.00469549
0.00467491
0.00465282
0.00462929
0.00460441
0.00457823
0.00455085
0.00452232
0.00449272
0.00446213
0.00443061
0.00439822
0.00436504
0.00433114
0.00429657
0.0042614
0.00422569
0.0041895
0.00415289
0.00411592
0.00407863
0.00404109
0.00400333
0.00396541
0.00392737
0.00388925
0.00385109
0.00381292
0.00377479
0.00373673
0.00369876
0.00366092
0.00362323
0.00358571
0.00354839
0.0035113
0.00347445
0.00343785
0.00340152
0.00336549
0.00332976
0.00329434
0.00325924
0.00322448
0.00319006
0.00315599
0.00312227
0.00308891
0.00305592
0.00302329
0.00299103
0.00295915
0.00292763
0.00289649
0.00286571
0.00283531
0.00280527
0.00277561
0.00274631
0.00271737
0.0026888
0.00266059
0.00263274
0.00260524
0.00257809
0.00255129
0.00252483
0.00249871
0.00247293
0.00244748
0.00242235
0.00239755
0.00237306
0.00234889
0.00232503
0.00230147
0.00227821
0.00225524
0.00223257
0.00221018
0.00218807
0.00216624
0.00214467
0.00212337
0.00210232
0.00208152
0.00206095
0.00204061
0.00202047
0.00200052
0.00198073
0.00196107
0.0019415
0.00192198
0.00190243
0.00188277
0.00186289
0.00184283
0.00182209
0.00179376
3.08683e-05
0.000135111
0.000258111
0.000383393
0.000505344
0.000621408
0.000732044
0.000840998
0.000955819
0.00108164
0.0012197
0.00136943
0.00151171
0.00164368
0.00176793
0.00188635
0.00200006
0.0021097
0.00221566
0.00231814
0.00241754
0.00251424
0.00260854
0.0027007
0.00279094
0.00287946
0.00296645
0.00305206
0.00313644
0.00321968
0.00330187
0.00338306
0.0034633
0.0035426
0.00362094
0.0036983
0.00377465
0.00384993
0.00392407
0.003997
0.00406865
0.00413891
0.00420772
0.00427497
0.00434058
0.00440446
0.00446651
0.00452665
0.0045848
0.00464088
0.00469482
0.00474653
0.00479597
0.00484307
0.00488777
0.00493004
0.00496983
0.0050071
0.00504184
0.00507401
0.0051036
0.00513061
0.00515503
0.00517687
0.00519613
0.00521283
0.005227
0.00523865
0.00524783
0.00525455
0.00525887
0.0052608
0.00526046
0.00525785
0.00525304
0.00524607
0.00523702
0.00522594
0.0052129
0.00519796
0.0051812
0.00516268
0.00514248
0.00512066
0.0050973
0.00507247
0.00504625
0.0050187
0.00498991
0.00495993
0.00492885
0.00489672
0.00486363
0.00482963
0.0047948
0.0047592
0.00472289
0.00468593
0.0046484
0.00461034
0.00457182
0.00453289
0.00449361
0.00445402
0.00441419
0.00437414
0.00433393
0.0042936
0.0042532
0.00421275
0.0041723
0.00413189
0.00409154
0.00405128
0.00401114
0.00397116
0.00393135
0.00389173
0.00385234
0.00381318
0.00377428
0.00373565
0.00369731
0.00365928
0.00362155
0.00358415
0.00354709
0.00351037
0.003474
0.00343798
0.00340233
0.00336704
0.00333213
0.00329759
0.00326342
0.00322962
0.0031962
0.00316316
0.0031305
0.00309821
0.0030663
0.00303477
0.0030036
0.00297281
0.00294239
0.00291234
0.00288264
0.00285331
0.00282434
0.00279571
0.00276744
0.00273951
0.00271192
0.00268467
0.00265776
0.00263117
0.00260491
0.00257896
0.00255334
0.00252803
0.00250302
0.00247831
0.0024539
0.00242978
0.00240594
0.00238237
0.00235906
0.002336
0.00231317
0.00229055
0.00226812
0.00224584
0.00222367
0.00220157
0.00217945
0.00215725
0.00213486
0.00211228
0.00208898
0.00205832
2.93176e-05
0.000128792
0.000248239
0.000372471
0.000497094
0.00062101
0.000745655
0.000874975
0.00101223
0.00115948
0.00131686
0.00147862
0.0016264
0.00176284
0.00189093
0.00201268
0.00212937
0.0022418
0.00235053
0.00245594
0.00255832
0.00265788
0.00275505
0.00285018
0.00294357
0.00303544
0.00312599
0.0032154
0.00330378
0.00339124
0.00347785
0.00356366
0.00364869
0.00373294
0.00381638
0.00389898
0.00398069
0.00406143
0.00414112
0.00421968
0.00429702
0.00437303
0.00444761
0.00452067
0.00459209
0.00466178
0.00472963
0.00479556
0.00485946
0.00492125
0.00498084
0.00503816
0.00509314
0.00514571
0.00519581
0.00524339
0.00528841
0.00533082
0.00537059
0.00540771
0.00544215
0.00547389
0.00550295
0.0055293
0.00555298
0.00557398
0.00559233
0.00560805
0.00562117
0.00563173
0.00563976
0.0056453
0.00564841
0.00564914
0.00564753
0.00564365
0.00563756
0.00562931
0.00561898
0.00560661
0.00559229
0.00557607
0.00555804
0.00553826
0.0055168
0.00549374
0.00546915
0.0054431
0.00541567
0.00538692
0.00535692
0.00532575
0.00529347
0.00526015
0.00522587
0.00519067
0.00515464
0.00511783
0.00508032
0.00504215
0.00500339
0.00496409
0.00492432
0.00488413
0.00484356
0.00480267
0.00476151
0.00472011
0.00467854
0.00463682
0.004595
0.00455312
0.0045112
0.0044693
0.00442743
0.00438563
0.00434393
0.00430236
0.00426093
0.00421968
0.00417863
0.00413779
0.00409718
0.00405683
0.00401674
0.00397693
0.00393742
0.00389822
0.00385933
0.00382077
0.00378254
0.00374466
0.00370713
0.00366994
0.00363312
0.00359666
0.00356056
0.00352483
0.00348947
0.00345447
0.00341986
0.00338561
0.00335174
0.00331823
0.0032851
0.00325234
0.00321995
0.00318792
0.00315625
0.00312495
0.003094
0.00306341
0.00303317
0.00300328
0.00297374
0.00294454
0.00291568
0.00288716
0.00285896
0.0028311
0.00280355
0.00277633
0.00274942
0.00272281
0.00269651
0.00267049
0.00264476
0.00261929
0.00259408
0.00256909
0.00254431
0.0025197
0.00249523
0.00247083
0.00244644
0.00242199
0.00239737
0.00237257
0.00234706
0.00231425
2.76235e-05
0.000122193
0.000238216
0.000361768
0.000489212
0.000619921
0.000756151
0.000899683
0.00105219
0.00121417
0.00138614
0.00155209
0.00170385
0.00184415
0.00197575
0.00210062
0.00222012
0.00233516
0.00244643
0.0025544
0.00265948
0.00276195
0.00286209
0.00296009
0.00305638
0.00315123
0.0032449
0.00333756
0.00342936
0.00352041
0.00361078
0.0037005
0.0037896
0.00387806
0.00396586
0.00405293
0.00413922
0.00422465
0.00430911
0.00439252
0.00447477
0.00455574
0.00463533
0.00471341
0.00478989
0.00486463
0.00493754
0.00500851
0.00507744
0.00514422
0.00520878
0.00527103
0.00533088
0.00538827
0.00544314
0.00549543
0.00554509
0.00559207
0.00563635
0.00567789
0.00571667
0.00575269
0.00578593
0.00581639
0.00584408
0.00586902
0.00589122
0.00591069
0.00592749
0.00594162
0.00595313
0.00596207
0.00596848
0.0059724
0.00597389
0.00597302
0.00596985
0.00596442
0.0059568
0.00594705
0.00593524
0.00592144
0.00590572
0.00588814
0.00586879
0.00584773
0.00582504
0.00580078
0.00577503
0.00574786
0.00571934
0.00568954
0.00565852
0.00562636
0.00559312
0.00555888
0.00552368
0.00548761
0.00545071
0.00541307
0.00537472
0.00533574
0.00529619
0.0052561
0.00521555
0.00517457
0.00513322
0.00509155
0.0050496
0.00500742
0.00496504
0.00492251
0.00487987
0.00483716
0.0047944
0.00475163
0.00470888
0.00466619
0.00462357
0.00458107
0.00453869
0.00449646
0.00445441
0.00441256
0.00437092
0.00432951
0.00428834
0.00424744
0.00420681
0.00416646
0.00412641