/*--------------------------------*- C++ -*----------------------------------*\
| =========                 |                                                 |
| \\      /  F ield         | OpenFOAM: The Open Source CFD Toolbox           |
|  \\    /   O peration     | Version:  v2012                                 |
|   \\  /    A nd           | Website:  www.openfoam.com                      |
|    \\/     M anipulation  |                                                 |
\*---------------------------------------------------------------------------*/
FoamFile
{
    version     2.0;
    format      ascii;
    class       volScalarField;
    location    "3100";
    object      p;
}
// * * * * * * * * * * * * * * * * * * * * * * * * * * * * * * * * * * * * * //

dimensions      [0 2 -2 0 0 0 0];


internalField   nonuniform List<scalar> 
12225
(
514.683
55.5348
2.37077
0.289152
-1.89077
-3.36638
-3.80728
-4.00982
-4.2177
-4.36734
-4.40989
-4.41061
-4.41145
-4.44105
-4.4948
-4.56856
-4.72397
-4.93833
-122.172
0.245514
-2.7115
-0.757693
-2.20854
-3.5169
-3.94338
-4.12919
-4.26725
-4.35854
-4.43014
-4.49101
-4.54705
-4.58654
-4.61721
-4.6495
-4.72532
-4.84836
-200.639
-16.1419
-2.3396
-0.350997
-1.89297
-3.23665
-3.76196
-4.01611
-4.18773
-4.30403
-4.3977
-4.46744
-4.51807
-4.54661
-4.56733
-4.58663
-4.62506
-4.62186
-110.61
-10.9676
-2.1704
-0.424822
-1.78003
-3.02063
-3.59153
-3.90299
-4.11586
-4.26063
-4.36426
-4.43468
-4.4823
-4.51128
-4.53106
-4.54114
-4.54332
-4.47787
-61.5666
-8.13951
-3.61596
-1.20295
-2.00769
-2.99029
-3.52033
-3.84422
-4.07148
-4.22737
-4.33579
-4.40956
-4.4595
-4.49033
-4.50682
-4.50559
-4.48054
-4.39057
-45.7247
-8.77904
-5.25229
-2.19347
-2.42266
-3.09336
-3.52866
-3.8292
-4.04927
-4.20466
-4.31458
-4.39093
-4.44249
-4.47312
-4.48526
-4.47515
-4.43511
-4.33974
-35.7886
-9.27039
-6.3742
-3.11809
-2.91493
-3.28271
-3.59689
-3.85073
-4.0494
-4.19618
-4.3032
-4.37905
-4.43018
-4.45967
-4.46878
-4.45427
-4.40975
-4.32136
-27.7722
-8.90131
-6.96785
-3.79663
-3.35537
-3.49207
-3.6946
-3.89645
-4.06836
-4.20211
-4.30292
-4.37595
-4.42566
-4.45434
-4.4627
-4.44823
-4.40652
-4.33045
-21.6843
-8.5144
-7.12876
-4.30478
-3.72308
-3.70025
-3.81111
-3.96129
-4.10351
-4.22105
-4.31311
-4.38161
-4.4291
-4.45701
-4.46567
-4.45344
-4.41773
-4.35549
-16.6072
-8.13523
-7.08263
-4.74998
-4.0778
-3.92916
-3.95463
-4.04944
-4.15721
-4.25447
-4.33481
-4.39693
-4.44134
-4.46855
-4.47865
-4.47086
-4.44426
-4.39876
-12.6336
-7.67557
-6.90085
-5.09655
-4.40179
-4.16558
-4.11773
-4.15829
-4.22953
-4.30374
-4.37008
-4.4243
-4.46503
-4.49189
-4.50479
-4.50363
-4.48881
-4.46179
-9.69382
-7.14362
-6.62413
-5.32163
-4.67395
-4.39272
-4.29053
-4.28354
-4.31949
-4.36982
-4.42094
-4.46639
-4.50329
-4.5304
-4.54746
-4.55478
-4.55341
-4.54549
-7.66101
-6.5997
-6.30106
-5.42679
-4.87862
-4.59308
-4.45987
-4.41725
-4.4231
-4.4514
-4.48784
-4.5248
-4.55829
-4.58654
-4.60895
-4.62593
-4.63863
-4.64905
-6.36601
-6.10815
-5.9809
-5.43566
-5.01141
-4.75347
-4.61235
-4.54908
-4.53348
-4.54445
-4.56887
-4.59896
-4.63038
-4.66085
-4.68955
-4.71658
-4.7429
-4.76987
-5.61784
-5.71756
-5.70428
-5.38625
-5.08148
-4.86877
-4.7378
-4.66852
-4.6418
-4.64228
-4.65915
-4.68543
-4.71681
-4.75086
-4.78643
-4.82332
-4.86189
-4.90295
-5.23857
-5.45541
-5.50341
-5.32297
-5.11057
-4.94367
-4.83158
-4.76678
-4.73828
-4.73559
-4.75039
-4.77677
-4.81076
-4.84989
-4.8928
-4.93886
-4.98797
-5.04031
-5.09735
-5.33951
-5.41226
-5.29435
-5.13044
-4.99144
-4.89391
-4.83613
-4.81113
-4.81102
-4.82892
-4.85954
-4.89912
-4.94513
-4.99594
-5.05062
-5.10864
-5.1698
-5.13499
-5.39526
-5.46942
-5.34339
-5.16965
-5.02405
-4.92387
-4.86676
-4.84488
-4.84977
-4.87395
-4.91177
-4.95906
-5.01307
-5.07186
-5.13427
-5.19949
-5.26717
-5.38712
-5.64954
-5.68534
-5.47031
-5.22125
-5.03101
-4.91005
-4.84707
-4.8281
-4.84038
-4.87399
-4.92174
-4.97876
-5.04181
-5.10883
-5.17845
-5.24992
-5.32278
-5.99624
-6.13116
-6.03703
-5.62969
-5.24191
-4.98239
-4.83611
-4.77136
-4.76197
-4.78837
-4.83688
-4.89857
-4.96789
-5.04147
-5.11726
-5.19411
-5.27137
-5.34884
-7.24363
-6.88357
-6.48835
-5.75625
-5.1778
-4.84809
-4.69183
-4.64203
-4.65617
-4.70683
-4.77702
-4.85682
-4.94079
-5.02591
-5.11076
-5.19459
-5.2772
-5.3587
-9.63492
-7.95842
-6.97655
-5.76607
-4.97418
-4.60732
-4.47768
-4.46986
-4.52518
-4.61078
-4.70857
-4.80942
-4.90898
-5.00565
-5.09892
-5.18895
-5.27605
-5.36077
-13.9759
-9.38473
-7.39692
-5.56356
-4.58929
-4.25944
-4.21094
-4.27624
-4.38894
-4.51702
-4.64526
-4.76746
-4.88172
-4.98837
-5.08845
-5.18315
-5.27348
-5.36034
-20.8834
-10.9475
-7.54778
-5.0511
-4.01029
-3.83105
-3.92603
-4.0908
-4.26987
-4.44149
-4.59832
-4.73913
-4.86526
-4.97909
-5.08345
-5.1807
-5.2727
-5.36046
-29.73
-11.9429
-7.02698
-4.11985
-3.25835
-3.37314
-3.66703
-3.94367
-4.18681
-4.39603
-4.57496
-4.72893
-4.8621
-4.97966
-5.08549
-5.18313
-5.27527
-5.36274
-43.1
-12.6074
-5.46618
-2.72256
-2.40742
-2.95842
-3.48019
-3.85874
-4.15054
-4.38483
-4.57708
-4.73681
-4.87118
-4.9881
-5.09276
-5.18928
-5.28094
-5.36769
-84.5929
-17.3669
-3.65743
-1.25896
-1.69003
-2.71661
-3.43182
-3.8655
-4.16842
-4.40481
-4.60147
-4.76362
-4.89402
-5.00447
-5.1023
-5.1952
-5.2874
-5.37342
-177.879
-26.843
-3.67347
-0.763693
-1.52901
-2.83764
-3.60959
-4.00961
-4.26119
-4.45643
-4.64152
-4.80994
-4.94296
-5.04832
-5.13024
-5.20916
-5.29965
-5.38347
-154.784
-9.62074
-3.26574
-1.06178
-1.83699
-3.21534
-3.90887
-4.21839
-4.40689
-4.54586
-4.68929
-4.84644
-4.99337
-5.12055
-5.20818
-5.27455
-5.35811
-5.44418
428.064
66.612
7.06257
1.60589
-0.90951
-2.85137
-3.64702
-3.98839
-4.30522
-4.57455
-4.69935
-4.73546
-4.78849
-4.88058
-5.01511
-5.14936
-5.23642
-5.31481
-8.50484
-8.49204
-8.48197
-8.52389
-8.61679
-8.71976
-8.79869
-8.8376
-8.84034
-8.82216
-8.79455
-8.76601
-8.74455
-8.736
-8.74107
-8.75339
-8.76412
-8.76888
-8.77047
-8.77562
-8.787
-8.81972
-8.90993
-9.0837
-9.33853
-9.65771
-10.03
-10.4443
-10.8854
-11.337
-11.7841
-12.215
-12.6205
-12.994
-13.3313
-13.63
-13.8892
-14.1088
-14.2895
-14.4324
-14.5387
-14.6098
-14.6471
-14.6518
-14.6253
-14.5689
-14.4844
-14.3739
-14.2386
-14.0764
-13.8847
-13.6648
-13.4194
-13.1501
-12.8584
-12.5452
-12.2116
-11.8585
-11.4871
-11.0984
-10.6934
-10.2732
-9.83906
-9.39207
-8.93341
-8.46428
-7.98586
-7.49937
-7.00599
-6.50691
-6.00329
-5.49627
-4.98696
-4.47645
-3.96578
-3.45595
-2.94792
-2.4426
-1.94084
-1.44346
-0.951219
-0.464808
0.0151221
0.48798
0.95323
1.41039
1.85904
2.2988
2.72936
3.15046
3.5619
3.96349
4.35508
4.73663
5.10839
5.47036
5.82207
6.16314
6.49356
6.81356
7.12338
7.42324
7.71331
7.99377
8.26482
8.52665
8.77947
9.02351
9.25897
9.48607
9.70502
9.91608
10.1195
10.3155
10.5044
10.6863
10.8616
11.0304
11.193
11.3496
11.5005
11.6458
11.7858
11.9207
12.0507
12.176
12.2968
12.4133
12.5256
12.6339
12.7383
12.8393
12.9372
13.0317
13.123
13.2112
13.2964
13.3787
13.4584
13.5354
13.61
13.6822
13.7521
13.8198
13.8855
13.9491
14.0108
14.0707
14.1287
14.185
14.2396
14.2926
14.344
14.3938
14.4422
14.4891
14.5345
14.5785
14.6212
14.6625
14.7024
14.741
14.7783
14.8144
14.8491
14.8826
14.9149
14.946
14.9761
15.0052
15.0334
15.0611
15.0885
15.1161
15.1448
15.1756
15.211
15.2526
15.3106
15.371
-8.56272
-8.59408
-8.66824
-8.76169
-8.8646
-8.95604
-9.01642
-9.03992
-9.02189
-8.9605
-8.87027
-8.77363
-8.69277
-8.64245
-8.62097
-8.61805
-8.62805
-8.65483
-8.6942
-8.71582
-8.73771
-8.81732
-8.98268
-9.22617
-9.53573
-9.90881
-10.3357
-10.7961
-11.2686
-11.7356
-12.1846
-12.6064
-12.9948
-13.346
-13.6582
-13.9312
-14.1655
-14.362
-14.5219
-14.6464
-14.7366
-14.7936
-14.8185
-14.812
-14.7751
-14.7083
-14.612
-14.4864
-14.3318
-14.1516
-13.9493
-13.7252
-13.4783
-13.2088
-12.9174
-12.6049
-12.272
-11.9197
-11.5491
-11.1611
-10.7568
-10.3373
-9.90376
-9.4573
-8.99909
-8.53032
-8.05218
-7.56589
-7.07263
-6.57358
-6.06991
-5.56277
-5.05325
-4.54245
-4.0314
-3.52112
-3.01257
-2.50665
-2.00422
-1.50611
-1.01306
-0.525795
-0.0449515
0.428869
0.895122
1.35332
1.80301
2.24381
2.67537
3.09739
3.5096
3.91175
4.30364
4.68516
5.05638
5.41753
5.7688
6.11022
6.44162
6.76291
7.07413
7.3754
7.66689
7.94875
8.22117
8.48434
8.73848
8.98379
9.2205
9.44887
9.66909
9.88141
10.0861
10.2833
10.4733
10.6564
10.8328
11.0027
11.1663
11.324
11.4759
11.6222
11.7632
11.8991
12.0302
12.1566
12.2784
12.3959
12.5093
12.6187
12.7243
12.826
12.924
13.0186
13.11
13.1984
13.2838
13.3664
13.4464
13.5237
13.5986
13.6711
13.7413
13.8094
13.8753
13.9392
14.0012
14.0614
14.1197
14.1762
14.2311
14.2844
14.336
14.3861
14.4347
14.4818
14.5274
14.5717
14.6145
14.656
14.6961
14.7349
14.7724
14.8085
14.8434
14.8771
14.9095
14.9408
14.971
15.0002
15.0286
15.0563
15.0838
15.1116
15.1403
15.1709
15.2057
15.2453
15.299
15.3489
-8.69006
-8.77167
-8.88942
-8.9948
-9.07704
-9.13015
-9.15004
-9.13544
-9.08504
-9.00123
-8.89327
-8.77801
-8.67911
-8.61578
-8.58799
-8.58395
-8.60436
-8.66409
-8.77246
-8.92266
-9.11317
-9.35467
-9.65043
-9.9909
-10.364
-10.7603
-11.1699
-11.5809
-11.9828
-12.3686
-12.7336
-13.0741
-13.3875
-13.6722
-13.9271
-14.1516
-14.3457
-14.5095
-14.6431
-14.7468
-14.8211
-14.8663
-14.8829
-14.8712
-14.8318
-14.7649
-14.6711
-14.5502
-14.4023
-14.2284
-14.0298
-13.8077
-13.5624
-13.2946
-13.005
-12.6942
-12.3632
-12.0128
-11.6439
-11.2576
-10.8549
-10.4368
-10.0046
-9.55929
-9.10212
-8.63424
-8.15685
-7.67116
-7.17836
-6.67962
-6.17612
-5.669
-5.15939
-4.64835
-4.13696
-3.62621
-3.11707
-2.61046
-2.10725
-1.60826
-1.11425
-0.625933
-0.143971
0.331035
0.798539
1.25805
1.70911
2.15136
2.58444
3.00806
3.422
3.82605
4.22005
4.60393
4.97765
5.34123
5.6947
6.03806
6.37128
6.69437
7.0074
7.31049
7.60377
7.88742
8.1616
8.42653
8.68238
8.92939
9.16778
9.39776
9.61958
9.83344
10.0396
10.2383
10.4298
10.6143
10.792
10.9633
11.1283
11.2872
11.4404
11.5879
11.7301
11.8671
11.999
12.1262
12.2489
12.3671
12.4812
12.5912
12.6974
12.7998
12.8988
12.9944
13.0869
13.1762
13.2626
13.3461
13.4268
13.5049
13.5805
13.6537
13.7246
13.7933
13.8598
13.9243
13.9869
14.0475
14.1063
14.1634
14.2187
14.2723
14.3244
14.3749
14.4238
14.4713
14.5173
14.5618
14.605
14.6467
14.6871
14.7262
14.7639
14.8003
14.8354
14.8693
14.9019
14.9333
14.9637
14.993
15.0215
15.0493
15.0769
15.1045
15.133
15.1631
15.1965
15.2332
15.2806
15.3141
-8.72792
-8.82496
-8.92597
-9.01224
-9.07632
-9.11557
-9.12751
-9.10956
-9.06181
-8.9894
-8.90376
-8.82183
-8.76176
-8.7362
-8.7498
-8.80468
-8.90485
-9.05418
-9.2533
-9.49648
-9.77424
-10.0797
-10.407
-10.7502
-11.1038
-11.4626
-11.8212
-12.1745
-12.5179
-12.8473
-13.1596
-13.452
-13.7223
-13.9691
-14.1909
-14.387
-14.5568
-14.6997
-14.8157
-14.9047
-14.9667
-15.0018
-15.01
-14.9916
-14.9465
-14.8751
-14.7777
-14.6545
-14.506
-14.3329
-14.1358
-13.9152
-13.6715
-13.4054
-13.1175
-12.8084
-12.479
-12.1302
-11.7629
-11.378
-10.9765
-10.5597
-10.1284
-9.68402
-9.22754
-8.76022
-8.28323
-7.79777
-7.30503
-6.80621
-6.30247
-5.79496
-5.2848
-4.77309
-4.26088
-3.74919
-3.23899
-2.7312
-2.2267
-1.72631
-1.23082
-0.74093
-0.257311
0.219427
0.688732
1.1501
1.60309
2.04731
2.48241
2.9081
3.32415
3.73036
4.1266
4.51276
4.88881
5.25471
5.61043
5.95595
6.29129
6.61646
6.93157
7.23672
7.53205
7.81773
8.09392
8.36082
8.61863
8.86756
9.10782
9.33964
9.56325
9.77887
9.98675
10.1871
10.3803
10.5664
10.7457
10.9185
11.0849
11.2453
11.3998
11.5486
11.692
11.8303
11.9635
12.0918
12.2156
12.335
12.4502
12.5612
12.6684
12.7719
12.8719
12.9686
13.062
13.1523
13.2395
13.3239
13.4054
13.4843
13.5607
13.6346
13.7062
13.7755
13.8427
13.9078
13.9709
14.0321
14.0914
14.149
14.2048
14.2589
14.3114
14.3623
14.4117
14.4595
14.5059
14.5508
14.5943
14.6364
14.6771
14.7164
14.7544
14.791
14.8264
14.8605
14.8933
14.9249
14.9554
14.9848
15.0133
15.0411
15.0685
15.0958
15.1236
15.1525
15.1838
15.2163
15.2557
15.2743
-8.51431
-8.59914
-8.69924
-8.79626
-8.87343
-8.92589
-8.95268
-8.95474
-8.93662
-8.90676
-8.87733
-8.86232
-8.87446
-8.92323
-9.0147
-9.15192
-9.33486
-9.55887
-9.81544
-10.0965
-10.3966
-10.7116
-11.037
-11.3679
-11.7
-12.0296
-12.3533
-12.6679
-12.9708
-13.2596
-13.5323
-13.7872
-14.0228
-14.2381
-14.4319
-14.6034
-14.752
-14.8771
-14.9781
-15.0548
-15.1069
-15.1341
-15.1363
-15.1134
-15.0653
-14.9921
-14.8939
-14.7706
-14.6228
-14.4508
-14.2549
-14.0356
-13.7933
-13.5287
-13.2422
-12.9346
-12.6067
-12.2593
-11.8933
-11.5096
-11.1093
-10.6934
-10.263
-9.81926
-9.36333
-8.89641
-8.41967
-7.93431
-7.44153
-6.94251
-6.43842
-5.93043
-5.41965
-4.90718
-4.39409
-3.88139
-3.37006
-2.86103
-2.35519
-1.85336
-1.35632
-0.864804
-0.379471
0.0990608
0.570233
1.03354
1.48853
1.93481
2.37203
2.7999
3.21817
3.62664
4.02516
4.41364
4.79199
5.16017
5.51815
5.86591
6.20348
6.53088
6.84821
7.15557
7.45311
7.74096
8.01931
8.28834
8.54825
8.79924
9.04155
9.2754
9.50099
9.71855
9.92834
10.1306
10.3255
10.5134
10.6944
10.8688
11.0369
11.1989
11.3549
11.5053
11.6502
11.7898
11.9244
12.0542
12.1793
12.3
12.4164
12.5286
12.637
12.7416
12.8427
12.9404
13.0348
13.126
13.2142
13.2994
13.3818
13.4616
13.5387
13.6134
13.6857
13.7558
13.8236
13.8894
13.9532
14.015
14.0749
14.133
14.1893
14.244
14.297
14.3484
14.3982
14.4465
14.4933
14.5386
14.5824
14.6249
14.6659
14.7056
14.7439
14.7808
14.8164
14.8507
14.8838
14.9155
14.9461
14.9756
15.0041
15.0318
15.0588
15.0856
15.1124
15.1397
15.1683
15.1961
15.2277
15.2338
-8.09363
-8.18214
-8.30324
-8.42603
-8.53124
-8.6116
-8.66994
-8.71221
-8.74612
-8.78153
-8.8294
-8.89997
-9.00119
-9.13778
-9.31184
-9.52228
-9.76437
-10.0325
-10.3214
-10.6252
-10.9385
-11.2567
-11.5757
-11.8922
-12.2033
-12.507
-12.8013
-13.0848
-13.3558
-13.6131
-13.8556
-14.0821
-14.2915
-14.4829
-14.6553
-14.808
-14.9402
-15.0512
-15.1403
-15.2071
-15.251
-15.2717
-15.2687
-15.242
-15.1912
-15.1162
-15.0169
-14.8935
-14.746
-14.5746
-14.3797
-14.1616
-13.9206
-13.6573
-13.3723
-13.0661
-12.7396
-12.3936
-12.0289
-11.6464
-11.2473
-10.8324
-10.4029
-9.95987
-9.50454
-9.03807
-8.56163
-8.07642
-7.58364
-7.08446
-6.58007
-6.07163
-5.56026
-5.04706
-4.53311
-4.01942
-3.50699
-2.99674
-2.48957
-1.98631
-1.48775
-0.994609
-0.507571
-0.027251
0.445785
0.911028
1.36802
1.81637
2.25571
2.68575
3.10624
3.51698
3.9178
4.30858
4.68924
5.05972
5.42
5.77005
6.10989
6.43958
6.75919
7.06883
7.36862
7.65873
7.93933
8.21058
8.47268
8.72585
8.97028
9.2062
9.43384
9.65343
9.86519
10.0694
10.2662
10.456
10.6388
10.815
10.9849
11.1485
11.3063
11.4582
11.6047
11.7459
11.882
12.0132
12.1398
12.2618
12.3795
12.4931
12.6028
12.7086
12.8108
12.9096
13.0051
13.0973
13.1865
13.2727
13.356
13.4367
13.5147
13.5902
13.6634
13.7342
13.8028
13.8693
13.9338
13.9963
14.0569
14.1156
14.1725
14.2278
14.2813
14.3332
14.3836
14.4323
14.4796
14.5253
14.5696
14.6125
14.6539
14.6939
14.7326
14.7698
14.8057
14.8403
14.8735
14.9054
14.9361
14.9656
14.994
15.0214
15.048
15.074
15.0997
15.125
15.1505
15.1734
15.1977
15.1932
-7.62948
-7.72826
-7.8705
-8.01947
-8.15756
-8.27639
-8.37964
-8.4767
-8.57701
-8.68947
-8.82165
-8.97833
-9.16219
-9.37363
-9.6109
-9.87183
-10.1534
-10.451
-10.7593
-11.0732
-11.3885
-11.7017
-12.0102
-12.3119
-12.6052
-12.889
-13.162
-13.4235
-13.6726
-13.9083
-14.13
-14.3367
-14.5277
-14.702
-14.8589
-14.9976
-15.1173
-15.2173
-15.297
-15.3556
-15.3927
-15.4077
-15.4002
-15.3697
-15.3161
-15.239
-15.1384
-15.0141
-14.8663
-14.695
-14.5004
-14.2828
-14.0426
-13.7802
-13.4962
-13.1912
-12.8659
-12.5211
-12.1576
-11.7763
-11.3783
-10.9645
-10.536
-10.094
-9.63948
-9.17374
-8.69793
-8.21322
-7.72082
-7.2219
-6.71764
-6.20918
-5.69767
-5.18419
-4.66983
-4.1556
-3.64249
-3.13144
-2.62334
-2.11904
-1.61931
-1.1249
-0.636478
-0.154676
0.31994
0.786855
1.24561
1.69579
2.13705
2.56907
2.9916
3.40443
3.80739
4.20034
4.58319
4.95588
5.31837
5.67064
6.01271
6.34465
6.66651
6.9784
7.28045
7.5728
7.85562
8.12909
8.39338
8.64872
8.89531
9.13336
9.3631
9.58476
9.79856
10.0048
10.2036
10.3952
10.58
10.7581
10.9297
11.0952
11.2546
11.4083
11.5565
11.6993
11.8369
11.9697
12.0977
12.2212
12.3403
12.4552
12.5662
12.6733
12.7768
12.8767
12.9733
13.0667
13.1569
13.2442
13.3285
13.4101
13.4891
13.5656
13.6396
13.7113
13.7807
13.848
13.9132
13.9764
14.0377
14.0971
14.1547
14.2105
14.2647
14.3172
14.3681
14.4174
14.4651
14.5114
14.5561
14.5994
14.6413
14.6817
14.7207
14.7582
14.7944
14.8292
14.8627
14.8948
14.9255
14.955
14.9833
15.0104
15.0364
15.0615
15.0857
15.1088
15.131
15.1491
15.1668
15.1529
-7.27606
-7.36941
-7.52163
-7.68759
-7.85469
-8.01608
-8.17128
-8.32818
-8.49496
-8.6774
-8.8795
-9.10237
-9.34454
-9.60517
-9.88366
-10.1776
-10.4834
-10.7964
-11.1126
-11.4283
-11.7407
-12.0475
-12.347
-12.6376
-12.9185
-13.1888
-13.4478
-13.6949
-13.9294
-14.1509
-14.3586
-14.5519
-14.7301
-14.8925
-15.0383
-15.1669
-15.2775
-15.3693
-15.4417
-15.4939
-15.5255
-15.5357
-15.5242
-15.4904
-15.4341
-15.3548
-15.2524
-15.1269
-14.9781
-14.8061
-14.6111
-14.3934
-14.1532
-13.891
-13.6073
-13.3027
-12.9779
-12.6337
-12.2708
-11.8903
-11.493
-11.08
-10.6524
-10.2111
-9.75748
-9.29253
-8.81748
-8.3335
-7.84178
-7.34348
-6.83977
-6.3318
-5.82069
-5.30753
-4.79338
-4.27926
-3.76615
-3.255
-2.74668
-2.24203
-1.74185
-1.24686
-0.757746
-0.275131
0.200412
0.668367
1.12827
1.5797
2.02232
2.45579
2.87986
3.29431
3.69895
4.09364
4.47829
4.85281
5.21718
5.57137
5.9154
6.24932
6.5732
6.88714
7.19125
7.48568
7.77059
8.04614
8.31253
8.56996
8.81862
9.05873
9.29052
9.51421
9.73002
9.9382
10.139
10.3326
10.5192
10.6992
10.8727
11.0399
11.2011
11.3565
11.5063
11.6507
11.79
11.9243
12.0539
12.1788
12.2994
12.4157
12.5281
12.6365
12.7412
12.8424
12.9402
13.0347
13.1261
13.2144
13.2998
13.3824
13.4624
13.5398
13.6148
13.6873
13.7576
13.8257
13.8917
13.9557
14.0177
14.0779
14.1361
14.1926
14.2474
14.3005
14.352
14.4018
14.4501
14.4969
14.5421
14.5859
14.6282
14.669
14.7084
14.7463
14.7828
14.8179
14.8515
14.8838
14.9146
14.944
14.972
14.9987
15.0241
15.0481
15.0708
15.0916
15.1104
15.1238
15.1354
15.1135
-7.08823
-7.17438
-7.32872
-7.50132
-7.68502
-7.87775
-8.07614
-8.28217
-8.50031
-8.73289
-8.9802
-9.24222
-9.51885
-9.80966
-10.1127
-10.4248
-10.7423
-11.0617
-11.3802
-11.695
-12.0042
-12.3059
-12.599
-12.8823
-13.1551
-13.4168
-13.6669
-13.9049
-14.1303
-14.3426
-14.5414
-14.7261
-14.896
-15.0505
-15.1889
-15.3106
-15.4148
-15.5008
-15.5679
-15.6154
-15.6427
-15.6492
-15.6344
-15.5977
-15.5388
-15.4574
-15.3532
-15.226
-15.0759
-14.9029
-14.707
-14.4885
-14.2478
-13.9851
-13.7012
-13.3964
-13.0716
-12.7274
-12.3648
-11.9845
-11.5876
-11.175
-10.7478
-10.3071
-9.85409
-9.38981
-8.91546
-8.43221
-7.94122
-7.44367
-6.94072
-6.43349
-5.92309
-5.41062
-4.89712
-4.38359
-3.87103
-3.36034
-2.85241
-2.34807
-1.8481
-1.35323
-0.864131
-0.381425
0.0943173
0.562579
1.0229
1.47485
1.91809
2.35229
2.77719
3.19256
3.59822
3.99403
4.37987
4.75566
5.12137
5.47698
5.82249
6.15794
6.48342
6.799
7.1048
7.40097
7.68764
7.96499
8.23319
8.49245
8.74295
8.98492
9.21856
9.4441
9.66176
9.87178
10.0744
10.2698
10.4582
10.64
10.8152
10.9841
11.1471
11.3041
11.4556
11.6016
11.7425
11.8783
12.0094
12.1358
12.2578
12.3755
12.4892
12.599
12.705
12.8074
12.9064
13.0021
13.0946
13.184
13.2705
13.3542
13.4351
13.5135
13.5894
13.6629
13.734
13.803
13.8698
13.9346
13.9974
14.0582
14.1172
14.1744
14.2298
14.2836
14.3356
14.3861
14.4349
14.4822
14.528
14.5722
14.615
14.6562
14.696
14.7343
14.7711
14.8064
14.8403
14.8726
14.9035
14.9328
14.9606
14.9868
15.0115
15.0343
15.0553
15.0737
15.0891
15.098
15.1042
15.0752
-7.06303
-7.15007
-7.29789
-7.46685
-7.65387
-7.85878
-8.07844
-8.31087
-8.55629
-8.81525
-9.08718
-9.37125
-9.66718
-9.97379
-10.2883
-10.6079
-10.9295
-11.2505
-11.5685
-11.8815
-12.1877
-12.4857
-12.7745
-13.0533
-13.3214
-13.5782
-13.8233
-14.0563
-14.2766
-14.4839
-14.6777
-14.8575
-15.0226
-15.1725
-15.3064
-15.4238
-15.524
-15.6062
-15.6697
-15.7139
-15.7381
-15.7417
-15.7243
-15.6852
-15.6241
-15.5407
-15.4347
-15.3059
-15.1543
-14.98
-14.7829
-14.5634
-14.3218
-14.0584
-13.7738
-13.4686
-13.1435
-12.7991
-12.4363
-12.0561
-11.6593
-11.247
-10.8202
-10.38
-9.92753
-9.46392
-8.99032
-8.50789
-8.01779
-7.52118
-7.01919
-6.51296
-6.00359
-5.49213
-4.97965
-4.46712
-3.95553
-3.44577
-2.93872
-2.43521
-1.936
-1.44182
-0.953328
-0.471146
0.00416772
0.472101
0.932195
1.38404
1.82727
2.26158
2.6867
3.10239
3.50847
3.90478
4.29123
4.66772
5.03421
5.39068
5.73715
6.07364
6.40022
6.71698
7.02403
7.3215
7.60953
7.88829
8.15795
8.41869
8.67072
8.91424
9.14946
9.37659
9.59585
9.80748
10.0117
10.2087
10.3988
10.5821
10.7589
10.9295
11.094
11.2526
11.4056
11.5531
11.6955
11.8328
11.9653
12.0931
12.2165
12.3356
12.4506
12.5616
12.6689
12.7725
12.8727
12.9695
13.0631
13.1536
13.2412
13.3259
13.4078
13.4872
13.564
13.6384
13.7104
13.7802
13.8479
13.9134
13.977
14.0386
14.0983
14.1561
14.2122
14.2666
14.3193
14.3703
14.4198
14.4676
14.5139
14.5586
14.6018
14.6435
14.6837
14.7223
14.7595
14.7951
14.8291
14.8616
14.8925
14.9217
14.9492
14.9749
14.9987
15.0203
15.0395
15.0555
15.0677
15.0723
15.0736
15.0385
-7.17645
-7.25483
-7.38578
-7.54178
-7.72061
-7.92197
-8.14312
-8.38149
-8.63541
-8.90353
-9.18412
-9.47607
-9.77843
-10.0892
-10.4059
-10.726
-11.0469
-11.3664
-11.6824
-11.9931
-12.2969
-12.5925
-12.8791
-13.1557
-13.4217
-13.6766
-13.9197
-14.1508
-14.3692
-14.5746
-14.7665
-14.9442
-15.1073
-15.255
-15.3869
-15.5021
-15.6001
-15.6801
-15.7415
-15.7835
-15.8056
-15.8072
-15.7878
-15.7468
-15.6838
-15.5987
-15.491
-15.3606
-15.2076
-15.0319
-14.8336
-14.613
-14.3704
-14.1062
-13.8209
-13.5152
-13.1896
-12.845
-12.4822
-12.102
-11.7055
-11.2935
-10.8673
-10.4277
-9.97608
-9.51339
-9.04082
-8.55953
-8.07067
-7.57537
-7.07476
-6.56995
-6.06205
-5.5521
-5.04113
-4.53013
-4.02003
-3.51175
-3.00613
-2.504
-2.00611
-1.51316
-1.02582
-0.544704
-0.0703614
0.3967
0.856024
1.3072
1.74988
2.18374
2.60852
3.02398
3.42994
3.82624
4.21278
4.58946
4.95625
5.31311
5.66007
5.99714
6.3244
6.64192
6.94981
7.2482
7.53721
7.81702
8.08779
8.3497
8.60294
8.84771
9.08421
9.31267
9.53328
9.74628
9.95189
10.1503
10.3418
10.5266
10.7048
10.8768
11.0427
11.2027
11.3571
11.506
11.6497
11.7884
11.9222
12.0514
12.1761
12.2964
12.4127
12.5249
12.6334
12.7382
12.8395
12.9374
13.0321
13.1237
13.2122
13.2979
13.3809
13.4612
13.5389
13.6142
13.6871
13.7577
13.8262
13.8925
13.9568
14.0192
14.0796
14.1381
14.1949
14.2499
14.3032
14.3549
14.4048
14.4532
14.5
14.5453
14.589
14.6311
14.6717
14.7107
14.7482
14.784
14.8183
14.8509
14.8817
14.9108
14.938
14.9632
14.9861
15.0065
15.0239
15.0375
15.0466
15.0472
15.044
15.0037
-7.35447
-7.41902
-7.52991
-7.66842
-7.83238
-8.02131
-8.23284
-8.46429
-8.71319
-8.97718
-9.25402
-9.54254
-9.84147
-10.1486
-10.4615
-10.7778
-11.0952
-11.4115
-11.7248
-12.0332
-12.3354
-12.63
-12.916
-13.1925
-13.4587
-13.7139
-13.9577
-14.1893
-14.4083
-14.6142
-14.8064
-14.9844
-15.1475
-15.2951
-15.4266
-15.5413
-15.6385
-15.7176
-15.7779
-15.8188
-15.8396
-15.8398
-15.8189
-15.7764
-15.7119
-15.6252
-15.5161
-15.3843
-15.23
-15.053
-14.8536
-14.632
-14.3885
-14.1237
-13.8379
-13.5318
-13.206
-12.8614
-12.4988
-12.1191
-11.7231
-11.312
-10.8867
-10.4483
-9.99794
-9.5367
-9.06572
-8.58614
-8.0991
-7.60571
-7.10709
-6.60434
-6.09853
-5.59069
-5.08185
-4.57297
-4.065
-3.5588
-3.05524
-2.55509
-2.05912
-1.56803
-1.08245
-0.603006
-0.130232
0.33537
0.793349
1.2433
1.68487
2.11775
2.54166
2.95638
3.36173
3.75754
4.1437
4.52013
4.88677
5.24361
5.59065
5.92792
6.25547
6.57338
6.88176
7.18073
7.47041
7.75095
8.02253
8.28532
8.5395
8.78526
9.02281
9.25235
9.4741
9.68826
9.89506
10.0947
10.2874
10.4734
10.653
10.8262
10.9934
11.1547
11.3104
11.4606
11.6056
11.7455
11.8805
12.0109
12.1368
12.2584
12.3758
12.4892
12.5988
12.7047
12.8071
12.9061
13.0018
13.0944
13.184
13.2706
13.3545
13.4357
13.5143
13.5905
13.6642
13.7357
13.805
13.8721
13.9371
14.0002
14.0613
14.1206
14.178
14.2336
14.2875
14.3398
14.3903
14.4393
14.4866
14.5324
14.5765
14.6191
14.6601
14.6995
14.7373
14.7734
14.8079
14.8406
14.8715
14.9004
14.9272
14.9518
14.9739
14.993
15.0087
15.0199
15.026
15.0231
15.0158
14.971
-7.52905
-7.58052
-7.6731
-7.79374
-7.94048
-8.11276
-8.3085
-8.52533
-8.76076
-9.01222
-9.27771
-9.55609
-9.84593
-10.145
-10.4509
-10.7613
-11.0738
-11.3863
-11.6969
-12.0038
-12.3054
-12.6004
-12.8874
-13.1656
-13.4339
-13.6915
-13.9378
-14.172
-14.3936
-14.6019
-14.7962
-14.9761
-15.1408
-15.2897
-15.4221
-15.5374
-15.6349
-15.714
-15.774
-15.8143
-15.8344
-15.8337
-15.8117
-15.7681
-15.7025
-15.6146
-15.5042
-15.3714
-15.2159
-15.038
-14.8378
-14.6155
-14.3715
-14.1064
-13.8205
-13.5145
-13.1891
-12.845
-12.4832
-12.1044
-11.7097
-11.3
-10.8763
-10.4398
-9.99141
-9.53234
-9.06369
-8.58658
-8.10211
-7.6114
-7.11555
-6.61562
-6.11269
-5.60776
-5.10183
-4.59585
-4.09074
-3.58739
-3.08661
-2.58918
-2.09584
-1.60729
-1.12415
-0.647022
-0.176449
0.287079
0.743117
1.19127
1.63117
2.06252
2.48506
2.89854
3.30278
3.69764
4.08298
4.45873
4.82483
5.18125
5.528
5.86509
6.1926
6.51058
6.81914
7.11838
7.40843
7.68945
7.96158
8.225
8.47988
8.72641
8.9648
9.19523
9.41791
9.63306
9.84088
10.0416
10.2354
10.4225
10.6032
10.7776
10.9459
11.1084
11.2652
11.4166
11.5628
11.7039
11.8401
11.9716
12.0987
12.2214
12.3399
12.4545
12.5651
12.6721
12.7755
12.8755
12.9723
13.0658
13.1563
13.2439
13.3287
13.4108
13.4903
13.5673
13.6419
13.7142
13.7842
13.8521
13.9179
13.9817
14.0435
14.1034
14.1615
14.2178
14.2723
14.3252
14.3763
14.4258
14.4737
14.5199
14.5646
14.6076
14.649
14.6888
14.727
14.7634
14.798
14.8308
14.8617
14.8905
14.917
14.941
14.9622
14.9801
14.9941
15.0031
15.0064
15.0002
14.9892
14.9406
-7.65592
-7.69812
-7.77531
-7.8793
-8.00861
-8.16278
-8.34005
-8.53845
-8.75596
-8.99037
-9.2403
-9.50503
-9.7831
-10.0722
-10.3699
-10.6737
-10.9814
-11.2907
-11.5996
-11.9061
-12.2085
-12.5053
-12.795
-13.0765
-13.3486
-13.6104
-13.8609
-14.0993
-14.3248
-14.5368
-14.7346
-14.9175
-15.0848
-15.2358
-15.37
-15.4866
-15.585
-15.6645
-15.7247
-15.7649
-15.7846
-15.7833
-15.7607
-15.7162
-15.6497
-15.5609
-15.4498
-15.3161
-15.16
-14.9816
-14.781
-14.5586
-14.3147
-14.0498
-13.7644
-13.4592
-13.1349
-12.7922
-12.432
-12.0551
-11.6624
-11.2551
-10.834
-10.4002
-9.95481
-9.49889
-9.03355
-8.55987
-8.07897
-7.59191
-7.09979
-6.60365
-6.10453
-5.60342
-5.1013
-4.59911
-4.09774
-3.59806
-3.10089
-2.60697
-2.11703
-1.63175
-1.15177
-0.677653
-0.209947
0.250866
0.704347
1.1501
1.58778
2.01706
2.43769
2.84944
3.25211
3.64556
4.02965
4.40431
4.76947
5.1251
5.47121
5.8078
6.13494
6.45269
6.76114
7.06039
7.35056
7.6318
7.90426
8.16809
8.42347
8.67058
8.90962
9.14077
9.36423
9.58021
9.78891
9.99054
10.1853
10.3734
10.5551
10.7305
10.8999
11.0635
11.2214
11.3739
11.5212
11.6634
11.8007
11.9334
12.0615
12.1853
12.3049
12.4205
12.5322
12.6402
12.7446
12.8456
12.9433
13.0378
13.1293
13.2178
13.3035
13.3865
13.4669
13.5447
13.6201
13.6932
13.764
13.8326
13.8991
13.9636
14.0261
14.0868
14.1455
14.2024
14.2576
14.311
14.3627
14.4128
14.4612
14.508
14.5531
14.5966
14.6385
14.6787
14.7171
14.7539
14.7887
14.8217
14.8525
14.8812
14.9074
14.9308
14.9512
14.9679
14.9803
14.9873
14.988
14.9787
14.9644
14.9127
-7.71112
-7.7493
-7.81485
-7.90386
-8.01614
-8.15163
-8.30928
-8.48773
-8.68544
-8.90086
-9.1335
-9.38325
-9.64873
-9.92756
-10.2172
-10.515
-10.8187
-11.1258
-11.4342
-11.7416
-12.0463
-12.3463
-12.6402
-12.9264
-13.2036
-13.4706
-13.7264
-13.97
-14.2005
-14.4171
-14.619
-14.8055
-14.976
-15.1296
-15.2659
-15.3841
-15.4836
-15.564
-15.6245
-15.6649
-15.6844
-15.6829
-15.6598
-15.6148
-15.5478
-15.4586
-15.3471
-15.2132
-15.057
-14.8787
-14.6785
-14.4567
-14.2137
-13.95
-13.6662
-13.3628
-13.0406
-12.7002
-12.3427
-11.9688
-11.5794
-11.1755
-10.7582
-10.3283
-9.8871
-9.43551
-8.97463
-8.50555
-8.02935
-7.54707
-7.05978
-6.56851
-6.07425
-5.578
-5.08071
-4.58328
-4.08659
-3.59149
-3.09878
-2.60922
-2.12351
-1.6423
-1.16621
-0.69583
-0.231678
0.225764
0.676062
1.11882
1.5537
1.98037
2.39859
2.80811
3.20875
3.60035
3.98278
4.35595
4.7198
5.0743
5.41943
5.75522
6.0817
6.39894
6.70701
7.00603
7.29609
7.57734
7.84991
8.11397
8.36967
8.6172
8.85673
9.08845
9.31256
9.52924
9.7387
9.94115
10.1368
10.3258
10.5084
10.6848
10.8552
11.0198
11.1787
11.3323
11.4806
11.6238
11.7622
11.8959
12.0251
12.1499
12.2706
12.3872
12.4999
12.6089
12.7143
12.8163
12.9149
13.0104
13.1028
13.1922
13.2788
13.3626
13.4438
13.5225
13.5987
13.6726
13.7441
13.8135
13.8808
13.946
14.0092
14.0705
14.1299
14.1875
14.2433
14.2973
14.3496
14.4002
14.4492
14.4965
14.5421
14.5861
14.6285
14.6691
14.7079
14.7449
14.78
14.8131
14.844
14.8726
14.8985
14.9214
14.941
14.9566
14.9675
14.9726
14.9709
14.959
14.9416
14.8873
-7.69653
-7.7306
-7.78728
-7.86249
-7.95758
-8.07337
-8.20986
-8.36671
-8.54311
-8.73838
-8.95296
-9.18735
-9.4403
-9.70933
-9.99172
-10.2848
-10.5859
-10.8924
-11.2019
-11.512
-11.8205
-12.1252
-12.4245
-12.7165
-12.9997
-13.2728
-13.5345
-13.7838
-14.0195
-14.2409
-14.4471
-14.6373
-14.8108
-14.967
-15.1053
-15.225
-15.3257
-15.4069
-15.468
-15.5086
-15.5283
-15.5267
-15.5035
-15.4586
-15.3916
-15.3026
-15.1914
-15.058
-14.9027
-14.7254
-14.5266
-14.3065
-14.0655
-13.8041
-13.523
-13.2226
-12.9038
-12.5672
-12.2137
-11.8441
-11.4593
-11.0603
-10.6481
-10.2236
-9.78785
-9.34192
-8.88684
-8.42366
-7.95343
-7.47718
-6.99593
-6.5107
-6.02246
-5.53218
-5.04077
-4.54913
-4.05813
-3.56857
-3.08125
-2.59691
-2.11626
-1.63994
-1.16853
-0.702611
-0.242702
0.210716
0.657207
1.09638
1.52789
1.95143
2.36673
2.77356
3.17172
3.56105
3.94142
4.31274
4.67494
5.02797
5.37183
5.70652
6.03208
6.34856
6.65603
6.95459
7.24434
7.52541
7.79793
8.06204
8.31792
8.56571
8.80561
9.03778
9.26241
9.47969
9.68982
9.89299
10.0894
10.2792
10.4627
10.64
10.8113
10.9768
11.1368
11.2913
11.4406
11.5849
11.7243
11.859
11.9892
12.1151
12.2367
12.3543
12.4681
12.578
12.6844
12.7874
12.887
12.9833
13.0766
13.1669
13.2544
13.3391
13.4211
13.5006
13.5777
13.6523
13.7247
13.7948
13.8628
13.9287
13.9926
14.0546
14.1147
14.1729
14.2293
14.284
14.3369
14.3881
14.4376
14.4855
14.5317
14.5762
14.6189
14.66
14.6992
14.7366
14.772
14.8052
14.8362
14.8647
14.8904
14.9129
14.9317
14.9463
14.9558
14.9591
14.9554
14.941
14.9209
14.8644
-7.63196
-7.65706
-7.70315
-7.76176
-7.83649
-7.9294
-8.0417
-8.17427
-8.32732
-8.50115
-8.69716
-8.91635
-9.1575
-9.4179
-9.69458
-9.98455
-10.2848
-10.5925
-10.9048
-11.2189
-11.5324
-11.8429
-12.1483
-12.4466
-12.7362
-13.0155