/*--------------------------------*- C++ -*----------------------------------*\
| =========                 |                                                 |
| \\      /  F ield         | OpenFOAM: The Open Source CFD Toolbox           |
|  \\    /   O peration     | Version:  v2012                                 |
|   \\  /    A nd           | Website:  www.openfoam.com                      |
|    \\/     M anipulation  |                                                 |
\*---------------------------------------------------------------------------*/
FoamFile
{
    version     2.0;
    format      ascii;
    class       surfaceScalarField;
    location    "3100";
    object      phi;
}
// * * * * * * * * * * * * * * * * * * * * * * * * * * * * * * * * * * * * * //

dimensions      [0 3 -1 0 0 0 0];
oriented        oriented;


internalField   nonuniform List<scalar> 
24170
(
3.92539e-06
-7.91497e-07
3.76462e-06
1.60756e-07
3.63337e-06
1.31208e-07
3.4332e-06
2.00138e-07
3.28009e-06
1.53078e-07
3.18943e-06
9.06258e-08
3.12907e-06
6.02386e-08
3.08117e-06
4.75927e-08
3.04127e-06
3.94447e-08
3.00438e-06
3.63307e-08
2.96978e-06
3.40667e-08
2.93778e-06
3.15132e-08
2.90849e-06
2.88941e-08
2.88198e-06
2.62082e-08
2.85823e-06
2.35398e-08
2.83865e-06
1.95091e-08
2.83058e-06
8.15164e-09
-9.29717e-09
2.83998e-06
3.58444e-06
-9.19498e-07
3.80423e-06
-5.90412e-08
3.7428e-06
1.9262e-07
3.69054e-06
2.52363e-07
3.63725e-06
2.06335e-07
3.58984e-06
1.3798e-07
3.55258e-06
9.73748e-08
3.52379e-06
7.61583e-08
3.5004e-06
6.25106e-08
3.48092e-06
5.5362e-08
3.46384e-06
5.06563e-08
3.44834e-06
4.65328e-08
3.43405e-06
4.27715e-08
3.42058e-06
3.93196e-08
3.40796e-06
3.58814e-08
3.39617e-06
3.11201e-08
3.38448e-06
1.97696e-08
3.9543e-09
3.37094e-06
3.68518e-06
-7.92482e-07
3.83638e-06
-2.10251e-07
3.91492e-06
1.14075e-07
3.94499e-06
2.22287e-07
3.94406e-06
2.07261e-07
3.92722e-06
1.5482e-07
3.9078e-06
1.16793e-07
3.89027e-06
9.37345e-08
3.87466e-06
7.82154e-08
3.86142e-06
6.87293e-08
3.84986e-06
6.23317e-08
3.83926e-06
5.721e-08
3.8293e-06
5.27684e-08
3.81987e-06
4.87209e-08
3.81115e-06
4.45423e-08
3.80303e-06
3.91457e-08
3.79316e-06
2.95306e-08
1.76835e-08
3.77914e-06
4.05359e-06
-6.41511e-07
4.11459e-06
-2.71265e-07
4.20798e-06
2.06775e-08
4.26634e-06
1.63915e-07
4.29068e-06
1.82903e-07
4.29272e-06
1.52747e-07
4.28601e-06
1.23482e-07
4.27704e-06
1.02732e-07
4.2676e-06
8.77415e-08
4.25883e-06
7.76123e-08
4.25083e-06
7.04287e-08
4.24331e-06
6.47811e-08
4.2361e-06
5.99795e-08
4.22913e-06
5.5647e-08
4.22234e-06
5.12343e-08
4.21536e-06
4.60101e-08
4.20612e-06
3.86151e-08
3.04603e-08
4.19306e-06
4.50491e-06
-5.09116e-07
4.51536e-06
-2.81713e-07
4.58528e-06
-4.92464e-08
4.64664e-06
1.02552e-07
4.68257e-06
1.46978e-07
4.6968e-06
1.38512e-07
4.69972e-06
1.20597e-07
4.69774e-06
1.04782e-07
4.69352e-06
9.20835e-08
4.6886e-06
8.26749e-08
4.68358e-06
7.55969e-08
4.67853e-06
6.99542e-08
4.67341e-06
6.51795e-08
4.66816e-06
6.09226e-08
4.66262e-06
5.67468e-08
4.65631e-06
5.22611e-08
4.64778e-06
4.70386e-08
4.2208e-08
4.63586e-06
5.00014e-06
-3.94666e-07
4.98614e-06
-2.67713e-07
5.03068e-06
-9.37964e-08
5.08505e-06
4.81748e-08
5.12452e-06
1.07491e-07
5.14606e-06
1.16953e-07
5.15605e-06
1.10613e-07
5.15976e-06
1.01105e-07
5.16001e-06
9.19134e-08
5.15853e-06
8.42615e-08
5.15617e-06
7.80602e-08
5.15326e-06
7.29473e-08
5.14989e-06
6.85945e-08
5.14604e-06
6.47689e-08
5.14154e-06
6.12085e-08
5.13594e-06
5.77912e-08
5.12833e-06
5.45587e-08
5.24246e-08
5.11793e-06
5.54382e-06
-2.97478e-07
5.51664e-06
-2.40536e-07
5.54055e-06
-1.177e-07
5.58387e-06
4.85114e-09
5.62165e-06
6.97135e-08
5.64657e-06
9.20426e-08
5.66123e-06
9.59756e-08
5.6693e-06
9.3076e-08
5.67327e-06
8.80106e-08
5.6748e-06
8.28114e-08
5.67484e-06
7.81007e-08
5.67386e-06
7.39914e-08
5.67207e-06
7.04301e-08
5.66951e-06
6.73481e-08
5.66603e-06
6.46684e-08
5.66134e-06
6.24457e-08
5.65491e-06
6.0915e-08
6.08385e-08
5.64644e-06
4.34788e-06
-2.39245e-07
4.32251e-06
-2.15173e-07
4.33078e-06
-1.25971e-07
4.35419e-06
-1.85637e-08
4.3784e-06
4.54944e-08
4.39647e-06
7.39605e-08
4.40846e-06
8.39869e-08
4.41604e-06
8.55122e-08
4.42063e-06
8.34538e-08
4.42326e-06
8.0227e-08
4.42457e-06
7.6835e-08
4.42493e-06
7.36664e-08
4.42454e-06
7.08512e-08
4.42345e-06
6.84446e-08
4.42162e-06
6.64859e-08
4.41892e-06
6.51186e-08
4.41518e-06
6.46409e-08
6.56157e-08
4.41033e-06
5.08622e-06
-1.85603e-07
5.05777e-06
-1.86728e-07
5.0584e-06
-1.26598e-07
5.07686e-06
-3.70312e-08
5.09918e-06
2.31787e-08
5.11774e-06
5.54002e-08
5.13129e-06
7.04479e-08
5.14065e-06
7.61668e-08
5.14691e-06
7.72223e-08
5.15097e-06
7.61943e-08
5.15347e-06
7.43619e-08
5.15481e-06
7.23494e-08
5.15521e-06
7.04633e-08
5.15477e-06
6.88808e-08
5.1535e-06
6.77464e-08
5.15134e-06
6.7263e-08
5.14822e-06
6.77177e-08
6.95719e-08
5.14425e-06
5.94839e-06
-1.38198e-07
5.91832e-06
-1.5666e-07
5.91161e-06
-1.19889e-07
5.924e-06
-4.94307e-08
5.94286e-06
4.31496e-09
5.9606e-06
3.76633e-08
5.97484e-06
5.62076e-08
5.98552e-06
6.54952e-08
5.99325e-06
6.95126e-08
5.9987e-06
7.07518e-08
6.00245e-06
7.06268e-08
6.00488e-06
6.99316e-08
6.00623e-06
6.91154e-08
6.00664e-06
6.84737e-08
6.00616e-06
6.82231e-08
6.00482e-06
6.8595e-08
6.00267e-06
6.98614e-08
7.22999e-08
5.99991e-06
6.95439e-06
-9.83183e-08
6.92402e-06
-1.2629e-07
6.91113e-06
-1.07009e-07
6.9168e-06
-5.51043e-08
6.93088e-06
-9.76248e-09
6.94637e-06
2.21702e-08
6.96019e-06
4.23912e-08
6.97145e-06
5.42415e-08
6.98022e-06
6.07537e-08
6.98688e-06
6.41e-08
6.99183e-06
6.56775e-08
6.99541e-06
6.63536e-08
6.99784e-06
6.66853e-08
6.99929e-06
6.70267e-08
6.99985e-06
6.76577e-08
6.99965e-06
6.88095e-08
6.9988e-06
7.0688e-08
7.34994e-08
6.99759e-06
8.12719e-06
-6.64935e-08
8.09793e-06
-9.70334e-08
8.08056e-06
-8.96365e-08
8.07955e-06
-5.41018e-08
8.08794e-06
-1.81489e-08
8.09987e-06
1.0241e-08
8.11202e-06
3.02448e-08
8.1229e-06
4.33657e-08
8.13206e-06
5.15939e-08
8.13954e-06
5.66297e-08
8.14551e-06
5.97009e-08
8.15021e-06
6.16646e-08
8.1538e-06
6.30834e-08
8.15647e-06
6.43688e-08
8.15833e-06
6.57944e-08
8.15955e-06
6.75848e-08
8.16035e-06
6.9903e-08
7.28489e-08
8.16097e-06
9.49368e-06
-4.24457e-08
9.4668e-06
-7.01565e-08
9.44683e-06
-6.96712e-08
9.43991e-06
-4.71799e-08
9.44229e-06
-2.05358e-08
9.44967e-06
2.86503e-09
9.45898e-06
2.09438e-08
9.46843e-06
3.3913e-08
9.47719e-06
4.28423e-08
9.48493e-06
4.88895e-08
9.49161e-06
5.30298e-08
9.49728e-06
5.59891e-08
9.50206e-06
5.83107e-08
9.50606e-06
6.03598e-08
9.50944e-06
6.24172e-08
9.51236e-06
6.4657e-08
9.51505e-06
6.72142e-08
7.01271e-08
9.51776e-06
1.10854e-05
-2.51668e-08
1.10618e-05
-4.65176e-08
1.1041e-05
-4.88402e-08
1.10294e-05
-3.56036e-08
1.10261e-05
-1.72413e-08
1.10284e-05
5.09361e-10
1.1034e-05
1.53519e-08
1.10411e-05
2.68168e-08
1.10487e-05
3.53042e-08
1.10561e-05
4.14951e-08
1.1063e-05
4.60578e-08
1.10695e-05
4.9554e-08
1.10754e-05
5.24087e-08
1.10808e-05
5.49418e-08
1.10858e-05
5.73682e-08
1.10907e-05
5.98405e-08
1.10954e-05
6.24317e-08
6.51763e-08
1.11004e-05
1.29396e-05
-1.31267e-08
1.29194e-05
-2.6294e-08
1.28988e-05
-2.82856e-08
1.28839e-05
-2.074e-08
1.28758e-05
-9.06896e-09
1.28732e-05
3.04933e-09
1.28748e-05
1.38185e-08
1.2879e-05
2.26384e-08
1.28847e-05
2.95643e-08
1.28913e-05
3.49321e-08
1.28982e-05
3.91402e-08
1.29052e-05
4.25524e-08
1.29121e-05
4.54607e-08
1.2919e-05
4.80838e-08
1.29258e-05
5.05708e-08
1.29326e-05
5.30153e-08
1.29395e-05
5.54608e-08
5.79107e-08
1.29468e-05
1.50998e-05
-4.49091e-09
1.50822e-05
-8.69204e-09
1.50621e-05
-8.14669e-09
1.50448e-05
-3.51034e-09
1.50327e-05
3.03875e-09
1.50259e-05
9.84447e-09
1.50237e-05
1.6044e-08
1.5025e-05
2.13196e-08
1.50289e-05
2.56817e-08
1.50346e-05
2.92845e-08
1.50414e-05
3.23256e-08
1.50489e-05
3.49852e-08
1.5057e-05
3.74075e-08
1.50654e-05
3.96947e-08
1.5074e-05
4.19099e-08
1.5083e-05
4.40838e-08
1.50922e-05
4.62194e-08
4.82977e-08
1.51018e-05
1.76171e-05
2.88539e-09
1.75999e-05
8.50514e-09
1.75787e-05
1.2994e-08
1.7559e-05
1.62287e-08
1.75436e-05
1.84017e-08
1.75336e-05
1.98707e-08
1.75287e-05
2.09406e-08
1.75282e-05
2.18622e-08
1.75311e-05
2.27816e-08
1.75366e-05
2.38048e-08
1.75439e-05
2.49698e-08
1.75526e-05
2.62971e-08
1.75622e-05
2.77706e-08
1.75726e-05
2.93701e-08
1.75834e-05
3.10559e-08
1.75947e-05
3.27911e-08
1.76064e-05
3.45266e-08
3.62202e-08
1.76185e-05
1.78181e-05
1.09936e-08
1.77994e-05
2.71881e-08
1.77768e-05
3.55889e-08
1.7756e-05
3.70056e-08
1.77402e-05
3.42644e-08
1.77302e-05
2.98653e-08
1.77257e-05
2.54071e-08
1.77259e-05
2.16627e-08
1.77298e-05
1.89447e-08
1.77363e-05
1.72448e-08
1.77449e-05
1.64583e-08
1.77547e-05
1.64046e-08
1.77656e-05
1.6924e-08
1.77771e-05
1.7851e-08
1.77891e-05
1.90627e-08
1.78015e-05
2.04368e-08
1.78141e-05
2.18939e-08
2.33471e-08
1.7827e-05
1.58702e-05
2.2127e-08
1.58478e-05
4.95551e-08
1.58233e-05
6.00936e-08
1.58032e-05
5.71866e-08
1.57899e-05
4.75495e-08
1.57834e-05
3.63043e-08
1.57827e-05
2.61202e-08
1.57863e-05
1.80595e-08
1.5793e-05
1.22621e-08
1.58018e-05
8.49423e-09
1.58119e-05
6.35738e-09
1.58229e-05
5.46855e-09
1.58343e-05
5.48219e-09
1.5846e-05
6.12777e-09
1.58579e-05
7.18207e-09
1.58699e-05
8.48692e-09
1.58818e-05
9.90811e-09
1.13626e-08
1.58938e-05
1.41313e-05
3.95337e-08
1.41021e-05
7.86808e-08
1.40745e-05
8.77495e-08
1.40557e-05
7.5989e-08
1.40469e-05
5.63582e-08
1.40462e-05
3.69847e-08
1.40512e-05
2.1148e-08
1.40597e-05
9.521e-09
1.40703e-05
1.68986e-09
1.40819e-05
-3.1264e-09
1.4094e-05
-5.6986e-09
1.41062e-05
-6.67772e-09
1.41182e-05
-6.55836e-09
1.41301e-05
-5.7271e-09
1.41417e-05
-4.44718e-09
1.41531e-05
-2.9245e-09
1.41643e-05
-1.28777e-09
3.57314e-10
1.41753e-05
1.25772e-05
6.73513e-08
1.25392e-05
1.16715e-07
1.25091e-05
1.17853e-07
1.24942e-05
9.08439e-08
1.24928e-05
5.7764e-08
1.25002e-05
2.96321e-08
1.25122e-05
9.09679e-09
1.25263e-05
-4.54763e-09
1.25409e-05
-1.28625e-08
1.25552e-05
-1.73779e-08
1.25688e-05
-1.93195e-08
1.25817e-05
-1.95654e-08
1.25939e-05
-1.87527e-08
1.26055e-05
-1.72818e-08
1.26165e-05
-1.54676e-08
1.26271e-05
-1.3481e-08
1.26372e-05
-1.14653e-08
-9.48751e-09
1.26471e-05
1.11862e-05
1.10913e-07
1.11384e-05
1.6455e-07
1.11088e-05
1.47487e-07
1.11022e-05
9.74412e-08
1.11117e-05
4.82662e-08
1.1129e-05
1.23687e-08
1.11486e-05
-1.05041e-08
1.11678e-05
-2.37332e-08
1.11855e-05
-3.05187e-08
1.12013e-05
-3.32449e-08
1.12156e-05
-3.3511e-08
1.12283e-05
-3.23347e-08
1.124e-05
-3.03427e-08
1.12506e-05
-2.79421e-08
1.12606e-05
-2.53695e-08
1.12699e-05
-2.28128e-08
1.12787e-05
-2.03278e-08
-1.79751e-08
1.12872e-05
9.93908e-06
1.7645e-07
9.88248e-06
2.21147e-07
9.85874e-06
1.71234e-07
9.86595e-06
9.02338e-08
9.88964e-06
2.4594e-08
9.91762e-06
-1.56022e-08
9.94395e-06
-3.6795e-08
9.96669e-06
-4.64322e-08
9.98575e-06
-4.95114e-08
1.00016e-05
-4.91393e-08
1.00151e-05
-4.69602e-08
1.00267e-05
-4.39223e-08
1.00369e-05
-4.04849e-08
1.0046e-05
-3.70076e-08
1.00543e-05
-3.36548e-08
1.0062e-05
-3.05112e-08
1.00693e-05
-2.75974e-08
-2.49013e-08
1.00762e-05
8.81963e-06
2.69915e-07
8.75785e-06
2.82933e-07
8.74788e-06
1.812e-07
8.77483e-06
6.32839e-08
8.81461e-06
-1.51817e-08
8.85217e-06
-5.31254e-08
8.8827e-06
-6.72726e-08
8.90631e-06
-6.99644e-08
8.92434e-06
-6.75659e-08
8.93839e-06
-6.31217e-08
8.94964e-06
-5.81561e-08
8.95902e-06
-5.3098e-08
8.96698e-06
-4.8386e-08
8.97396e-06
-4.39296e-08
8.98022e-06
-3.9874e-08
8.98599e-06
-3.62591e-08
8.99142e-06
-3.30416e-08
-3.01231e-08
8.9966e-06
7.81391e-06
3.96675e-07
7.7539e-06
3.42935e-07
7.76868e-06
1.66418e-07
7.82055e-06
1.14202e-08
7.87571e-06
-7.0331e-08
7.91917e-06
-9.65699e-08
7.94974e-06
-9.78258e-08
7.97063e-06
-9.07763e-08
7.98501e-06
-8.17408e-08
7.99521e-06
-7.32419e-08
8.00297e-06
-6.5739e-08
8.00907e-06
-5.92193e-08
8.0142e-06
-5.33448e-08
8.01855e-06
-4.82012e-08
8.02238e-06
-4.36352e-08
8.02589e-06
-3.98143e-08
8.02927e-06
-3.64915e-08
-3.34497e-08
8.03258e-06
6.90424e-06
5.66768e-07
6.86137e-06
3.85802e-07
6.91717e-06
1.10612e-07
6.99676e-06
-6.81775e-08
7.06257e-06
-1.36148e-07
7.10536e-06
-1.39364e-07
7.13034e-06
-1.22676e-07
7.14451e-06
-1.04907e-07
7.15244e-06
-8.96539e-08
7.15707e-06
-7.77283e-08
7.16009e-06
-6.86432e-08
7.16229e-06
-6.11534e-08
7.16392e-06
-5.49306e-08
7.16525e-06
-4.95349e-08
7.16627e-06
-4.47038e-08
7.16725e-06
-4.08521e-08
7.16838e-06
-3.7626e-08
-3.47832e-08
7.16956e-06
6.07162e-06
7.97663e-07
6.08525e-06
3.7216e-07
6.19865e-06
-2.79213e-09
6.29991e-06
-1.69439e-07
6.3653e-06
-2.01541e-07
6.3976e-06
-1.71644e-07
6.41008e-06
-1.35267e-07
6.41333e-06
-1.07857e-07
6.41231e-06
-8.86925e-08
6.40988e-06
-7.52758e-08
6.40735e-06
-6.60634e-08
6.40484e-06
-5.87123e-08
6.40235e-06
-5.26205e-08
6.40013e-06
-4.72181e-08
6.3979e-06
-4.25059e-08
6.39603e-06
-3.90311e-08
6.39448e-06
-3.61778e-08
-3.3532e-08
6.39333e-06
5.35805e-06
1.05451e-06
5.50649e-06
2.23712e-07
5.64777e-06
-1.44089e-07
5.73566e-06
-2.57336e-07
5.7765e-06
-2.42398e-07
5.7833e-06
-1.78552e-07
5.77505e-06
-1.26873e-07
5.76264e-06
-9.55302e-08
5.75013e-06
-7.63692e-08
5.73922e-06
-6.463e-08
5.73032e-06
-5.7336e-08
5.72234e-06
-5.1029e-08
5.71478e-06
-4.53046e-08
5.70782e-06
-4.04375e-08
5.70152e-06
-3.62554e-08
5.69622e-06
-3.3769e-08
5.69143e-06
-3.12892e-08
-2.91102e-08
5.68702e-06
5.04576e-06
1.01105e-06
5.36491e-06
-9.5459e-08
5.35252e-06
-1.3174e-07
5.33288e-06
-2.37717e-07
5.29605e-06
-2.05631e-07
5.25015e-06
-1.32737e-07
5.20834e-06
-8.50733e-08
5.17427e-06
-6.16069e-08
5.14685e-06
-4.93173e-08
5.12476e-06
-4.29516e-08
5.10678e-06
-3.9726e-08
5.0909e-06
-3.56604e-08
5.07606e-06
-3.09829e-08
5.06245e-06
-2.70827e-08
5.05043e-06
-2.43341e-08
5.04055e-06
-2.38902e-08
5.03105e-06
-2.17181e-08
-2.04661e-08
5.0225e-06
5.4676e-06
5.37214e-06
5.2404e-06
5.00267e-06
4.79703e-06
4.66429e-06
4.5792e-06
4.51754e-06
4.46814e-06
4.42513e-06
4.38531e-06
4.34953e-06
4.31848e-06
4.29137e-06
4.26703e-06
4.24316e-06
4.22147e-06
4.20103e-06
2.47798e-08
-2.47967e-08
2.38644e-07
-2.13854e-07
4.89969e-07
-2.51361e-07
7.09266e-07
-2.19303e-07
8.7595e-07
-1.66715e-07
9.86061e-07
-1.10116e-07
1.0406e-06
-5.45691e-08
1.04188e-06
-1.27841e-09
9.95254e-07
4.66001e-08
9.11077e-07
8.41991e-08
8.04657e-07
1.06408e-07
6.95403e-07
1.09315e-07
6.02966e-07
9.24966e-08
5.36839e-07
6.60554e-08
4.85345e-07
5.15944e-08
4.24051e-07
6.0961e-08
3.3631e-07
8.78564e-08
2.07927e-07
1.28292e-07
3.15871e-08
1.76503e-07
-2.13848e-07
2.45754e-07
-5.18797e-07
3.05026e-07
-8.60054e-07
3.41404e-07
-1.22358e-06
3.6351e-07
-1.60013e-06
3.76567e-07
-1.98091e-06
3.80736e-07
-2.35582e-06
3.74895e-07
-2.71691e-06
3.61059e-07
-3.05897e-06
3.42046e-07
-3.37823e-06
3.19244e-07
-3.67238e-06
2.94135e-07
-3.94059e-06
2.68205e-07
-4.18321e-06
2.42612e-07
-4.40127e-06
2.18055e-07
-4.59625e-06
1.94982e-07
-4.76987e-06
1.73614e-07
-4.9239e-06
1.5403e-07
-5.06009e-06
1.36189e-07
-5.18006e-06
1.19972e-07
-5.28528e-06
1.05219e-07
-5.37703e-06
9.1749e-08
-5.45641e-06
7.93809e-08
-5.52435e-06
6.79436e-08
-5.58163e-06
5.72819e-08
-5.62889e-06
4.72631e-08
-5.66667e-06
3.77788e-08
-5.69541e-06
2.87426e-08
-5.7155e-06
2.00834e-08
-5.72727e-06
1.17726e-08
-5.73121e-06
3.94581e-09
-5.72819e-06
-3.02551e-09
-5.71928e-06
-8.9023e-09
-5.70528e-06
-1.40086e-08
-5.68655e-06
-1.87292e-08
-5.66335e-06
-2.31921e-08
-5.63587e-06
-2.74856e-08
-5.60423e-06
-3.1637e-08
-5.56857e-06
-3.5661e-08
-5.52901e-06
-3.95641e-08
-5.48566e-06
-4.33474e-08
-5.43865e-06
-4.70096e-08
-5.3881e-06
-5.05483e-08
-5.33414e-06
-5.39598e-08
-5.2769e-06
-5.72407e-08
-5.21651e-06
-6.03878e-08
-5.15311e-06
-6.33986e-08
-5.08684e-06
-6.62699e-08
-5.01784e-06
-6.89982e-08
-4.94626e-06
-7.15813e-08
-4.87224e-06
-7.40176e-08
-4.79594e-06
-7.63056e-08
-4.71749e-06
-7.84449e-08
-4.63706e-06
-8.04348e-08
-4.55478e-06
-8.22758e-08
-4.47081e-06
-8.39685e-08
-4.3853e-06
-8.55141e-08
-4.29838e-06
-8.69143e-08
-4.21021e-06
-8.81711e-08
-4.12093e-06
-8.92873e-08
-4.03066e-06
-9.02658e-08
-3.93955e-06
-9.11102e-08
-3.84772e-06
-9.18245e-08
-3.75531e-06
-9.24128e-08
-3.66243e-06
-9.28804e-08
-3.5692e-06
-9.32324e-08
-3.47572e-06
-9.34752e-08
-3.3821e-06
-9.36156e-08
-3.28844e-06
-9.36626e-08
-3.19481e-06
-9.36262e-08
-3.10129e-06
-9.35197e-08
-3.00794e-06
-9.33591e-08
-2.91477e-06
-9.31652e-08
-2.82181e-06
-9.29633e-08
-2.72904e-06
-9.27714e-08
-2.63647e-06
-9.25679e-08
-2.5442e-06
-9.22664e-08
-2.45244e-06
-9.17655e-08
-2.36145e-06
-9.0981e-08
-2.27152e-06
-8.9933e-08
-2.18274e-06
-8.87796e-08
-2.09511e-06
-8.76253e-08
-2.00864e-06
-8.64695e-08
-1.92334e-06
-8.5296e-08
-1.83925e-06
-8.4098e-08
-1.75637e-06
-8.28743e-08
-1.67474e-06
-8.16279e-08
-1.59438e-06
-8.03621e-08
-1.5153e-06
-7.90812e-08
-1.43751e-06
-7.77873e-08
-1.36103e-06
-7.64789e-08
-1.28589e-06
-7.51341e-08
-1.21213e-06
-7.37666e-08
-1.13972e-06
-7.24035e-08
-1.06868e-06
-7.10399e-08
-9.99006e-07
-6.96763e-08
-9.30691e-07
-6.83147e-08
-8.63735e-07
-6.69556e-08
-7.98132e-07
-6.56022e-08
-7.33876e-07
-6.42563e-08
-6.70955e-07
-6.29207e-08
-6.09361e-07
-6.15937e-08
-5.49085e-07
-6.02773e-08
-4.90112e-07
-5.8973e-08
-4.32425e-07
-5.76881e-08
-3.75999e-07
-5.64269e-08
-3.20815e-07
-5.51861e-08
-2.66855e-07
-5.39618e-08
-2.14098e-07
-5.27589e-08
-1.62526e-07
-5.15752e-08
-1.1213e-07
-5.03994e-08
-6.29024e-08
-4.92315e-08
-1.49735e-08
-4.79338e-08
3.18109e-08
-4.67887e-08
7.77542e-08
-4.59472e-08
1.22731e-07
-4.49795e-08
1.66647e-07
-4.39179e-08
2.09497e-07
-4.28527e-08
2.51299e-07
-4.18055e-08
2.92084e-07
-4.0788e-08
3.31883e-07
-3.98026e-08
3.70727e-07
-3.88476e-08
4.08644e-07
-3.79215e-08
4.45661e-07
-3.70226e-08
4.81804e-07
-3.615e-08
5.17099e-07
-3.53029e-08
5.51571e-07
-3.44809e-08
5.85248e-07
-3.36833e-08
6.18155e-07
-3.2909e-08
6.50317e-07
-3.21583e-08
6.81754e-07
-3.14308e-08
7.12492e-07
-3.07274e-08
7.42551e-07
-3.00477e-08
7.71957e-07
-2.93925e-08
8.00732e-07
-2.87608e-08
8.289e-07
-2.81535e-08
8.56483e-07
-2.75695e-08
8.83504e-07
-2.70101e-08
9.09988e-07
-2.64738e-08
9.35957e-07
-2.59618e-08
9.61435e-07
-2.54722e-08
9.86443e-07
-2.50057e-08
1.011e-06
-2.45598e-08
1.03513e-06
-2.4134e-08
1.05885e-06
-2.37243e-08
1.08217e-06
-2.33277e-08
1.1051e-06
-2.29378e-08
1.12764e-06
-2.2547e-08
1.14977e-06
-2.21435e-08
1.17147e-06
-2.17116e-08
1.19269e-06
-2.12293e-08
1.21334e-06
-2.06648e-08
1.2333e-06
-1.99746e-08
1.25238e-06
-1.90937e-08
1.2703e-06
-1.7926e-08
1.28661e-06
-1.63253e-08
1.30062e-06
-1.40196e-08
1.3112e-06
-1.05902e-08
1.31572e-06
-4.52821e-09
1.30881e-06
6.89944e-09
1.27919e-06
2.96066e-08
7.24373e-08
1.20675e-06
2.537e-07
-2.78506e-07
4.88929e-07
-4.49082e-07
6.38093e-07
-4.00539e-07
7.22268e-07
-3.03481e-07
7.61235e-07
-2.05696e-07
7.66608e-07
-1.15492e-07
7.45113e-07
-3.3088e-08
7.02439e-07
4.13939e-08
6.41554e-07
1.07475e-07
5.62414e-07
1.63344e-07
4.64228e-07
2.04592e-07
3.45302e-07
2.28242e-07
1.99388e-07
2.38435e-07
1.46977e-08
2.50682e-07
-2.19162e-07
2.85455e-07
-5.06442e-07
3.48164e-07
-8.45116e-07
4.26531e-07
-1.22399e-06
5.0718e-07
-1.62913e-06
5.81687e-07
-2.02948e-06
6.46155e-07
-2.41731e-06
6.92883e-07
-2.79219e-06
7.16314e-07
-3.14704e-06
7.18361e-07
-3.47377e-06
7.03297e-07
-3.76754e-06
6.74494e-07
-4.02754e-06
6.34894e-07
-4.25434e-06
5.87845e-07
-4.44931e-06
5.37005e-07
-4.6154e-06
4.85326e-07
-4.75612e-06
4.34848e-07
-4.87483e-06
3.8691e-07
-4.97468e-06
3.42465e-07
-5.05855e-06
3.01917e-07
-5.12891e-06
2.65345e-07
-5.18788e-06
2.32582e-07
-5.23717e-06
2.03324e-07
-5.27819e-06
1.77202e-07
-5.31204e-06
1.53826e-07
-5.33963e-06
1.32814e-07
-5.3617e-06
1.13818e-07
-5.37885e-06
9.65289e-08
-5.39159e-06
8.06823e-08
-5.40036e-06
6.60579e-08
-5.40557e-06
5.24754e-08
-5.40758e-06
3.97892e-08
-5.40672e-06
2.78854e-08
-5.40333e-06
1.66873e-08
-5.39772e-06
6.16085e-09
-5.39003e-06
-3.73814e-09
-5.37985e-06
-1.32034e-08
-5.36629e-06
-2.24689e-08
-5.34873e-06
-3.15623e-08
-5.32704e-06
-4.04224e-08
-5.30119e-06
-4.90418e-08
-5.27125e-06
-5.74279e-08
-5.23729e-06
-6.55871e-08
-5.19943e-06
-7.35221e-08
-5.15777e-06
-8.12321e-08
-5.1124e-06
-8.8714e-08
-5.06345e-06
-9.59619e-08
-5.01103e-06
-1.02969e-07
-4.95526e-06
-1.09727e-07
-4.89627e-06
-1.1623e-07
-4.83419e-06
-1.22468e-07
-4.76915e-06
-1.28439e-07
-4.70128e-06
-1.34135e-07
-4.63073e-06
-1.39549e-07
-4.55764e-06
-1.44676e-07
-4.48214e-06
-1.49513e-07
-4.40439e-06
-1.54058e-07
-4.32453e-06
-1.58308e-07
-4.2427e-06
-1.62264e-07
-4.15904e-06
-1.65926e-07
-4.07372e-06
-1.69295e-07
-3.98686e-06
-1.72374e-07
-3.89861e-06
-1.75165e-07
-3.8091e-06
-1.77673e-07
-3.71849e-06
-1.79904e-07
-3.62689e-06
-1.81862e-07
-3.53444e-06
-1.83556e-07
-3.44128e-06
-1.84992e-07
-3.34751e-06
-1.86179e-07
-3.25326e-06
-1.87126e-07
-3.15865e-06
-1.87843e-07
-3.06379e-06
-1.88341e-07
-2.96877e-06
-1.8863e-07
-2.87371e-06
-1.88724e-07
-2.7787e-06
-1.88636e-07
-2.68384e-06
-1.88377e-07
-2.58924e-06
-1.87962e-07
-2.49501e-06
-1.87401e-07
-2.40127e-06
-1.86702e-07
-2.30818e-06
-1.8586e-07
-2.2159e-06
-1.84846e-07
-2.12455e-06
-1.83615e-07
-2.03418e-06
-1.8214e-07
-1.94474e-06
-1.80416e-07
-1.85619e-06
-1.78486e-07
-1.76854e-06
-1.76427e-07
-1.68187e-06
-1.74291e-07
-1.59625e-06
-1.72092e-07
-1.51171e-06
-1.69831e-07
-1.4283e-06
-1.67509e-07
-1.34604e-06
-1.6513e-07
-1.26497e-06
-1.62699e-07
-1.18511e-06
-1.60223e-07
-1.10649e-06
-1.57705e-07
-1.02912e-06
-1.5515e-07
-9.5304e-07
-1.5256e-07
-8.78239e-07
-1.49935e-07
-8.04718e-07
-1.47288e-07
-7.32489e-07
-1.44632e-07
-6.61556e-07
-1.41972e-07
-5.91922e-07
-1.3931e-07
-5.23585e-07
-1.36651e-07
-4.56544e-07
-1.33996e-07
-3.90796e-07
-1.3135e-07
-3.26335e-07
-1.28717e-07
-2.63151e-07
-1.26105e-07
-2.01234e-07
-1.23511e-07
-1.40574e-07
-1.20937e-07
-8.11609e-08
-1.18387e-07
-2.29876e-08
-1.15862e-07
3.39605e-08
-1.13376e-07
8.97115e-08
-1.10938e-07
1.44282e-07
-1.08533e-07
1.97681e-07
-1.06159e-07
2.49925e-07
-1.03821e-07
3.01042e-07
-1.01517e-07
3.5106e-07
-9.92506e-08
4.00144e-07
-9.70201e-08
4.48254e-07
-9.48994e-08
4.95171e-07
-9.28658e-08
5.40979e-07
-9.07879e-08
5.85748e-07
-8.86879e-08
6.29511e-07
-8.66162e-08
6.72296e-07
-8.45915e-08
7.14128e-07
-8.26203e-08
7.55028e-07
-8.07045e-08
7.95022e-07
-7.88423e-08
8.34131e-07
-7.70326e-08
8.7238e-07
-7.52734e-08
9.09791e-07
-7.35641e-08
9.46389e-07
-7.19031e-08
9.82195e-07
-7.02906e-08
1.01724e-06
-6.87243e-08
1.05153e-06
-6.7205e-08
1.08511e-06
-6.57308e-08
1.11799e-06
-6.43038e-08
1.15019e-06
-6.29226e-08
1.18174e-06
-6.15892e-08
1.21266e-06
-6.03018e-08
1.24298e-06
-5.9062e-08
1.2727e-06
-5.78682e-08
1.30186e-06
-5.67214e-08
1.33048e-06
-5.56208e-08
1.35858e-06
-5.45662e-08
1.38618e-06
-5.35571e-08
1.4133e-06
-5.25921e-08
1.43997e-06
-5.16701e-08
1.46619e-06
-5.07877e-08
1.492e-06
-4.99424e-08
1.5174e-06
-4.9127e-08
1.54239e-06
-4.83358e-08
1.567e-06
-4.75554e-08
1.59122e-06
-4.67728e-08
1.61503e-06
-4.59642e-08
1.6384e-06
-4.51025e-08
1.6613e-06
-4.41439e-08
1.68366e-06
-4.30331e-08
1.70536e-06
-4.1686e-08
1.72623e-06
-3.99865e-08
1.74605e-06
-3.77558e-08
1.76444e-06
-3.4726e-08
1.78085e-06
-3.04353e-08
1.79438e-06
-2.41284e-08
1.80406e-06
-1.42262e-08
1.80889e-06
2.06501e-09
1.80697e-06
3.15207e-08
8.81657e-08
1.79124e-06
2.45031e-07
-5.23541e-07
3.40226e-07
-5.44278e-07
3.55989e-07
-4.16311e-07
3.44629e-07
-2.92119e-07
3.16593e-07
-1.77668e-07
2.7214e-07
-7.10377e-08
2.10534e-07
2.85072e-08
1.30759e-07
1.2117e-07
3.17073e-08
2.06518e-07
-8.88065e-08
2.83855e-07
-2.36621e-07
3.52402e-07
-4.22386e-07
4.13994e-07
-6.59457e-07
4.75504e-07
-9.54322e-07
5.45521e-07
-1.29619e-06
6.27313e-07
-1.66314e-06
7.15106e-07
-2.03457e-06
7.97962e-07
-2.39399e-06
8.66611e-07
-2.72808e-06
9.15801e-07
-3.02544e-06
9.43544e-07
-3.28171e-06
9.49157e-07
-3.49886e-06
9.33484e-07
-3.68037e-06
8.99866e-07
-3.83e-06
8.52933e-07
-3.95243e-06
7.96916e-07
-4.05302e-06
7.35484e-07
-4.13708e-06
6.719e-07
-4.20896e-06
6.08886e-07
-4.27208e-06
5.48442e-07
-4.32903e-06
4.91793e-07
-4.38165e-06
4.39533e-07
-4.43107e-06
3.91885e-07
-4.47791e-06
3.48756e-07
-4.52243e-06
3.09865e-07
-4.56467e-06
2.74818e-07
-4.60452e-06
2.43178e-07
-4.64183e-06
2.14507e-07
-4.67639e-06
1.8839e-07
-4.70803e-06
1.64452e-07
-4.73658e-06
1.42367e-07
-4.7619e-06
1.21851e-07
-4.78389e-06
1.0267e-07
-4.80246e-06
8.46267e-08
-4.81754e-06
6.75568e-08
-4.82907e-06
5.13217e-08
-4.83698e-06
3.5803e-08
-4.8412e-06
2.08995e-08
-4.84155e-06
6.51784e-09
-4.83784e-06
-7.44862e-09
-4.82993e-06
-2.11137e-08
-4.81787e-06
-3.45353e-08
-4.80173e-06
-4.77004e-08
-4.78156e-06
-6.05874e-08
-4.75742e-06
-7.31874e-08
-4.72935e-06
-8.54939e-08
-4.69744e-06
-9.75008e-08
-4.66176e-06
-1.09201e-07
-4.6224e-06
-1.20587e-07
-4.57947e-06
-1.31646e-07
-4.53306e-06
-1.42369e-07
-4.48329e-06
-1.52742e-07
-4.43026e-06
-1.62752e-07
-4.37411e-06
-1.72387e-07
-4.31494e-06
-1.81634e-07
-4.25289e-06
-1.90487e-07
-4.18809e-06
-1.98935e-07
-4.12067e-06
-2.06967e-07
-4.05077e-06
-2.14576e-07
-3.97853e-06
-2.21757e-07
-3.90408e-06
-2.28506e-07
-3.82757e-06
-2.34819e-07
-3.74914e-06
-2.40697e-07
-3.66892e-06
-2.46138e-07
-3.58707e-06
-2.51146e-07
-3.50372e-06
-2.55723e-07
-3.41902e-06
-2.59874e-07
-3.33308e-06
-2.63604e-07
-3.24607e-06
-2.66922e-07
-3.15809e-06
-2.69835e-07
-3.06929e-06
-2.72354e-07
-2.9798e-06
-2.74488e-07
-2.88973e-06
-2.76249e-07
-2.7992e-06
-2.7765e-07
-2.70834e-06
-2.78705e-07
-2.61725e-06
-2.79427e-07
-2.52605e-06
-2.7983e-07
-2.43485e-06
-2.79931e-07
-2.34374e-06
-2.79743e-07
-2.25283e-06
-2.79281e-07
-2.16224e-06
-2.78559e-07
-2.07205e-06
-2.77587e-07
-1.98238e-06
-2.76373e-07
-1.89333e-06
-2.74913e-07
-1.80498e-06
-2.73196e-07
-1.71738e-06
-2.71207e-07
-1.63058e-06
-2.68943e-07
-1.54457e-06
-2.6642e-07
-1.45938e-06
-2.63676e-07
-1.37505e-06
-2.60755e-07
-1.29165e-06
-2.57693e-07
-1.20923e-06
-2.54509e-07
-1.12785e-06
-2.51216e-07
-1.04753e-06
-2.47823e-07
-9.68324e-07
-2.4434e-07
-8.90247e-07
-2.40776e-07
-8.1333e-07
-2.3714e-07
-7.37596e-07
-2.33439e-07
-6.63063e-07
-2.29682e-07
-5.89747e-07
-2.25876e-07
-5.17652e-07
-2.22029e-07
-4.46787e-07
-2.18152e-07
-3.77163e-07
-2.14256e-07
-3.08785e-07
-2.10349e-07
-2.41655e-07
-2.0644e-07
-1.75774e-07
-2.02532e-07
-1.11139e-07
-1.98631e-07
-4.77465e-08
-1.94742e-07
1.44095e-08
-1.90873e-07
7.53335e-08
-1.87028e-07
1.35034e-07
-1.83211e-07
1.93523e-07
-1.79426e-07
2.50813e-07
-1.75677e-07
3.0692e-07
-1.71969e-07
3.61855e-07
-1.68311e-07
4.15623e-07
-1.64707e-07
4.68242e-07
-1.61153e-07
5.19732e-07
-1.57649e-07
5.7011e-07
-1.54199e-07
6.194e-07
-1.50808e-07
6.67631e-07
-1.47482e-07
7.14845e-07
-1.44236e-07
7.61024e-07
-1.41079e-07
8.06132e-07
-1.37976e-07
8.50224e-07
-1.3488e-07
8.93341e-07
-1.31806e-07
9.35505e-07
-1.28781e-07
9.76737e-07
-1.25823e-07
1.01705e-06
-1.22937e-07
1.05647e-06
-1.20126e-07
1.09502e-06
-1.17389e-07
1.13271e-06
-1.14726e-07
1.16957e-06
-1.12135e-07
1.20561e-06
-1.09615e-07
1.24087e-06
-1.07167e-07
1.27537e-06
-1.04788e-07
1.30912e-06
-1.02478e-07
1.34215e-06
-1.00236e-07
1.37448e-06
-9.80619e-08
1.40614e-06
-9.59564e-08
1.43714e-06
-9.39194e-08
1.4675e-06
-9.19516e-08
1.49725e-06
-9.00524e-08
1.52642e-06
-8.82223e-08
1.55502e-06
-8.64607e-08
1.58307e-06
-8.47677e-08
1.61059e-06
-8.31427e-08
1.63761e-06
-8.15852e-08
1.66415e-06
-8.00944e-08
1.69023e-06
-7.86682e-08
1.71587e-06
-7.73049e-08
1.74108e-06
-7.59998e-08
1.76589e-06
-7.47485e-08
1.7903e-06
-7.35418e-08
1.81433e-06
-7.23703e-08
1.83799e-06
-7.12164e-08
1.86127e-06
-7.00606e-08
1.88418e-06
-6.88706e-08
1.90668e-06
-6.76073e-08
1.92874e-06
-6.6211e-08
1.95031e-06
-6.46033e-08
1.97129e-06
-6.2669e-08
1.99155e-06
-6.02469e-08
2.01088e-06
-5.70944e-08
2.029e-06
-5.28498e-08
2.04549e-06
-4.69201e-08
2.05972e-06
-3.83673e-08
2.07093e-06
-2.54362e-08
2.07824e-06
-5.25445e-09
2.08212e-06
2.76461e-08
8.56459e-08
2.08464e-06
9.23579e-08
-6.15901e-07
6.09328e-08
-5.12849e-07
1.19105e-08
-3.67293e-07
-4.57299e-08
-2.34474e-07
-1.15788e-07
-1.07615e-07
-2.01727e-07
1.49043e-08
-3.06563e-07
1.33338e-07
-4.32708e-07
2.47315e-07
-5.82766e-07
3.56572e-07
-7.60137e-07
4.61221e-07
-9.69581e-07
5.61846e-07
-1.21534e-06
6.5974e-07
-1.4959e-06
7.56068e-07
-1.80021e-06
8.49814e-07
-2.10944e-06
9.36541e-07
-2.40417e-06
1.00984e-06
-2.67024e-06
1.06403e-06
-2.89961e-06
1.09599e-06
-3.08913e-06
1.10533e-06
-3.23939e-06
1.09382e-06
-3.3547e-06
1.06447e-06
-3.44185e-06
1.02064e-06
-3.5081e-06
9.66119e-07
-3.5599e-06
9.0474e-07
-3.60268e-06
8.39692e-07
-3.64079e-06
7.73594e-07
-3.67743e-06
7.08536e-07
-3.71458e-06
6.46043e-07
-3.75324e-06
5.87097e-07
-3.79365e-06
5.32204e-07
-3.83563e-06
4.81508e-07
-3.87867e-06
4.34925e-07
-3.92213e-06
3.92219e-07
-3.96533e-06
3.53068e-07
-4.00762e-06
3.17111e-07
-4.04842e-06
2.83978e-07
-4.08723e-06
2.53314e-07
-4.12363e-06
2.24788e-07
-4.15728e-06
1.98103e-07
-4.18791e-06
1.72996e-07
-4.21529e-06
1.49238e-07
-4.23926e-06
1.26635e-07
-4.25965e-06
1.05021e-07
-4.27635e-06
8.42555e-08
-4.28925e-06
6.422e-08
-4.29826e-06
4.48134e-08
-4.30331e-06
2.59501e-08
-4.30434e-06
7.55367e-09
-4.30134e-06
-1.04492e-08
-4.29434e-06
-2.81191e-08
-4.28339e-06
-4.54831e-08
-4.26855e-06
-6.25376e-08
-4.24987e-06
-7.92698e-08
-4.22739e-06
-9.5667e-08
-4.20117e-06
-1.11715e-07
-4.17127e-06
-1.27401e-07
-4.13776e-06
-1.42707e-07
-4.10073e-06
-1.57617e-07
-4.06026e-06
-1.72113e-07
-4.01646e-06
-1.86178e-07
-3.9694e-06
-1.99793e-07
-3.91922e-06
-2.12939e-07
-3.86601e-06
-2.25596e-07
-3.80989e-06
-2.37749e-07
-3.75099e-06
-2.49387e-07
-3.68943e-06
-2.60495e-07
-3.62534e-06
-2.71059e-07
-3.55885e-06
-2.8107e-07
-3.49009e-06
-2.9052e-07
-3.41919e-06
-2.99403e-07
-3.34629e-06
-3.07716e-07
-3.27153e-06
-3.15456e-07
-3.19505e-06
-3.22623e-07
-3.11697e-06
-3.2922e-07
-3.03745e-06
-3.35251e-07
-2.9566e-06
-3.40721e-07
-2.87456e-06
-3.45638e-07
-2.79147e-06
-3.50011e-07
-2.70746e-06
-3.53851e-07
-2.62264e-06
-3.5717e-07
-2.53715e-06
-3.5998e-07
-2.4511e-06
-3.62298e-07
-2.36461e-06
-3.64138e-07
-2.2778e-06
-3.65517e-07
-2.19077e-06
-3.66452e-07
-2.10364e-06
-3.66961e-07
-2.01651e-06
-3.67062e-07
-1.92948e-06
-3.66773e-07
-1.84265e-06
-3.6611e-07
-1.75612e-06
-3.6509e-07
-1.66999e-06
-3.63726e-07
-1.58433e-06
-3.6203e-07
-1.49923e-06
-3.60008e-07
-1.41477e-06
-3.57662e-07
-1.33098e-06
-3.54994e-07
-1.24791e-06
-3.52014e-07
-1.16558e-06
-3.48741e-07
-1.08405e-06
-3.45209e-07
-1.00335e-06
-3.41451e-07
-9.23548e-07
-3.37498e-07
-8.44684e-07
-3.33373e-07
-7.66805e-07
-3.29095e-07
-6.89949e-07
-3.24679e-07
-6.14149e-07
-3.2014e-07
-5.39434e-07
-3.15491e-07
-4.65829e-07
-3.10744e-07
-3.93357e-07
-3.05911e-07