/*--------------------------------*- C++ -*----------------------------------*\
  =========                 |
  \\      /  F ield         | OpenFOAM: The Open Source CFD Toolbox
   \\    /   O peration     | Website:  https://openfoam.org
    \\  /    A nd           | Version:  8
     \\/     M anipulation  |
\*---------------------------------------------------------------------------*/
FoamFile
{
    version     2.0;
    format      ascii;
    class       surfaceScalarField;
    location    "3100";
    object      phi;
}
// * * * * * * * * * * * * * * * * * * * * * * * * * * * * * * * * * * * * * //

dimensions      [0 3 -1 0 0 0 0];

internalField   nonuniform List<scalar> 
24170
(
3.92539e-06
-7.91498e-07
3.76465e-06
1.6075e-07
3.63345e-06
1.31209e-07
3.43331e-06
2.00144e-07
3.28028e-06
1.53027e-07
3.18901e-06
9.11905e-08
3.13091e-06
5.81103e-08
3.08609e-06
4.58912e-08
3.04612e-06
4.23235e-08
3.01059e-06
3.81627e-08
2.97876e-06
3.38024e-08
2.94904e-06
3.07703e-08
2.92187e-06
2.73778e-08
2.89642e-06
2.52e-08
2.87227e-06
2.36052e-08
2.85193e-06
1.94838e-08
2.84097e-06
9.85678e-09
-6.37679e-09
2.84668e-06
3.58445e-06
-9.19499e-07
3.80424e-06
-5.90413e-08
3.74282e-06
1.92629e-07
3.6906e-06
2.52374e-07
3.63729e-06
2.06333e-07
3.59023e-06
1.3828e-07
3.55289e-06
9.55996e-08
3.52309e-06
7.56597e-08
3.49853e-06
6.65697e-08
3.47732e-06
5.92153e-08
3.45871e-06
5.25294e-08
3.44253e-06
4.72647e-08
3.42795e-06
4.2338e-08
3.41466e-06
3.87865e-08
3.40269e-06
3.57304e-08
3.39122e-06
3.10524e-08
3.38036e-06
2.0842e-08
4.78092e-09
3.36944e-06
3.68518e-06
-7.92482e-07
3.83639e-06
-2.10251e-07
3.91494e-06
1.14082e-07
3.94502e-06
2.22293e-07
3.94408e-06
2.07264e-07
3.92749e-06
1.54897e-07
3.90755e-06
1.15615e-07
3.88932e-06
9.36445e-08
3.874e-06
8.11966e-08
3.86056e-06
7.1916e-08
3.84834e-06
6.42562e-08
3.83728e-06
5.81355e-08
3.82691e-06
5.27794e-08
3.8174e-06
4.84754e-08
3.80891e-06
4.4434e-08
3.80097e-06
3.9254e-08
3.79195e-06
3.02078e-08
1.77977e-08
3.77944e-06
4.05359e-06
-6.4151e-07
4.1146e-06
-2.71259e-07
4.20799e-06
2.06915e-08
4.26635e-06
1.63932e-07
4.29069e-06
1.82926e-07
4.29287e-06
1.52749e-07
4.28571e-06
1.22819e-07
4.27631e-06
1.02843e-07
4.26727e-06
8.96864e-08
4.25873e-06
7.98178e-08
4.25056e-06
7.19499e-08
4.24283e-06
6.56351e-08
4.23534e-06
6.02467e-08
4.22824e-06
5.56936e-08
4.22149e-06
5.1353e-08
4.21464e-06
4.63461e-08
4.20599e-06
3.91847e-08
3.06604e-08
4.19351e-06
4.50491e-06
-5.09114e-07
4.51536e-06
-2.81708e-07
4.58529e-06
-4.92342e-08
4.64665e-06
1.02566e-07
4.68258e-06
1.46992e-07
4.69688e-06
1.38473e-07
4.69946e-06
1.20237e-07
4.69723e-06
1.04926e-07
4.69331e-06
9.32553e-08
4.68868e-06
8.40576e-08
4.68366e-06
7.66423e-08
4.67851e-06
7.06085e-08
4.67321e-06
6.5495e-08
4.66783e-06
6.11064e-08
4.66227e-06
5.70058e-08
4.65606e-06
5.27042e-08
4.64786e-06
4.7592e-08
4.26062e-08
4.63612e-06
5.00014e-06
-3.94663e-07
4.98614e-06
-2.67704e-07
5.03069e-06
-9.3779e-08
5.08506e-06
4.81979e-08
5.12454e-06
1.07517e-07
5.14608e-06
1.1694e-07
5.15584e-06
1.10489e-07
5.1594e-06
1.01285e-07
5.15985e-06
9.26081e-08
5.15859e-06
8.5084e-08
5.15629e-06
7.87434e-08
5.15333e-06
7.34432e-08
5.14984e-06
6.89344e-08
5.14589e-06
6.50644e-08
5.14136e-06
6.15876e-08
5.13584e-06
5.83105e-08
5.12839e-06
5.51497e-08
5.30525e-08
5.11808e-06
5.54382e-06
-2.97475e-07
5.51664e-06
-2.40529e-07
5.54055e-06
-1.17686e-07
5.58388e-06
4.87027e-09
5.62166e-06
6.97343e-08
5.64656e-06
9.20461e-08
5.66107e-06
9.59685e-08
5.66906e-06
9.32473e-08
5.67315e-06
8.84246e-08
5.67481e-06
8.33015e-08
5.67491e-06
7.85523e-08
5.6739e-06
7.43762e-08
5.67204e-06
7.07664e-08
5.6694e-06
6.76967e-08
5.66591e-06
6.51006e-08
5.66127e-06
6.29892e-08
5.65494e-06
6.15483e-08
6.15335e-08
5.6465e-06
4.34788e-06
-2.39242e-07
4.32251e-06
-2.15162e-07
4.33078e-06
-1.25951e-07
4.35419e-06
-1.85364e-08
4.3784e-06
4.55259e-08
4.39646e-06
7.39849e-08
4.40841e-06
8.40228e-08
4.41597e-06
8.56738e-08
4.42059e-06
8.37679e-08
4.42325e-06
8.0598e-08
4.42456e-06
7.7197e-08
4.4249e-06
7.40033e-08
4.42446e-06
7.11807e-08
4.42334e-06
6.8811e-08
4.42151e-06
6.69378e-08
4.41885e-06
6.5672e-08
4.41514e-06
6.527e-08
6.63502e-08
4.41035e-06
5.08621e-06
-1.85599e-07
5.05777e-06
-1.86718e-07
5.0584e-06
-1.26578e-07
5.07686e-06
-3.70024e-08
5.09918e-06
2.3214e-08
5.11773e-06
5.54362e-08
5.13124e-06
7.05071e-08
5.14059e-06
7.63169e-08
5.14686e-06
7.74758e-08
5.15094e-06
7.64975e-08
5.15344e-06
7.46766e-08
5.15477e-06
7.26668e-08
5.15514e-06
7.07974e-08
5.15468e-06
6.92649e-08
5.15341e-06
6.82109e-08
5.15128e-06
6.78142e-08
5.14821e-06
6.83515e-08
7.02732e-08
5.14429e-06
5.94839e-06
-1.38193e-07
5.91832e-06
-1.56649e-07
5.91161e-06
-1.19866e-07
5.924e-06
-4.93968e-08
5.94286e-06
4.35862e-09
5.96058e-06
3.77168e-08
5.97479e-06
5.62912e-08
5.98546e-06
6.56466e-08
5.9932e-06
6.97359e-08
5.99867e-06
7.10176e-08
6.00242e-06
7.09158e-08
6.00484e-06
7.02401e-08
6.00618e-06
6.94584e-08
6.00657e-06
6.88677e-08
6.0061e-06
6.86883e-08
6.00478e-06
6.91361e-08
6.00267e-06
7.04622e-08
7.29762e-08
5.99997e-06
6.95439e-06
-9.8313e-08
6.92401e-06
-1.26278e-07
6.91113e-06
-1.06984e-07
6.9168e-06
-5.50657e-08
6.93087e-06
-9.71044e-09
6.94635e-06
2.22394e-08
6.96015e-06
4.24929e-08
6.9714e-06
5.43964e-08
6.98017e-06
6.09617e-08
6.98684e-06
6.43479e-08
6.9918e-06
6.59555e-08
6.99537e-06
6.66649e-08
6.9978e-06
6.70308e-08
6.99924e-06
6.74243e-08
6.99982e-06
6.81135e-08
6.99963e-06
6.93246e-08
6.99883e-06
7.12677e-08
7.41294e-08
6.99768e-06
8.12719e-06
-6.64877e-08
8.09793e-06
-9.7021e-08
8.08056e-06
-8.96089e-08
8.07955e-06
-5.40587e-08
8.08793e-06
-1.80893e-08
8.09985e-06
1.03229e-08
8.11198e-06
3.0359e-08
8.12285e-06
4.35223e-08
8.13202e-06
5.17956e-08
8.1395e-06
5.6868e-08
8.14548e-06
5.99757e-08
8.15018e-06
6.19702e-08
8.15378e-06
6.34315e-08
8.15644e-06
6.47572e-08
8.15832e-06
6.62336e-08
8.15958e-06
6.80743e-08
8.1604e-06
7.0441e-08
7.3439e-08
8.16109e-06
9.49368e-06
-4.24387e-08
9.4668e-06
-7.01428e-08
9.44683e-06
-6.96403e-08
9.43991e-06
-4.71318e-08
9.44229e-06
-2.04679e-08
9.44965e-06
2.95554e-09
9.45895e-06
2.10646e-08
9.4684e-06
3.40707e-08
9.47716e-06
4.30365e-08
9.48491e-06
4.91209e-08
9.49159e-06
5.32938e-08
9.49727e-06
5.62917e-08
9.50205e-06
5.86465e-08
9.50607e-06
6.07383e-08
9.50947e-06
6.28343e-08
9.51243e-06
6.51202e-08
9.51515e-06
6.77145e-08
7.06705e-08
9.51792e-06
1.10854e-05
-2.5159e-08
1.10618e-05
-4.65026e-08
1.1041e-05
-4.88067e-08
1.10294e-05
-3.55516e-08
1.10261e-05
-1.71697e-08
1.10284e-05
6.05018e-10
1.1034e-05
1.54748e-08
1.10411e-05
2.6971e-08
1.10487e-05
3.5492e-08
1.10561e-05
4.17159e-08
1.1063e-05
4.63135e-08
1.10695e-05
4.9843e-08
1.10754e-05
5.27348e-08
1.10808e-05
5.5303e-08
1.10859e-05
5.77677e-08
1.10908e-05
6.02728e-08
1.10956e-05
6.28987e-08
6.56687e-08
1.11006e-05
1.29396e-05
-1.31186e-08
1.29194e-05
-2.62787e-08
1.28988e-05
-2.8252e-08
1.28839e-05
-2.06876e-08
1.28758e-05
-8.99575e-09
1.28732e-05
3.14493e-09
1.28748e-05
1.39401e-08
1.28789e-05
2.27886e-08
1.28847e-05
2.97447e-08
1.28913e-05
3.51434e-08
1.28982e-05
3.93836e-08
1.29052e-05
4.28284e-08
1.29122e-05
4.57699e-08
1.29191e-05
4.84251e-08
1.29259e-05
5.09431e-08
1.29327e-05
5.34155e-08
1.29398e-05
5.58854e-08
5.83557e-08
1.29471e-05
1.50998e-05
-4.48307e-09
1.50822e-05
-8.6761e-09
1.50621e-05
-8.11364e-09
1.50448e-05
-3.45831e-09
1.50327e-05
3.10954e-09
1.50259e-05
9.93855e-09
1.50237e-05
1.61617e-08
1.5025e-05
2.14642e-08
1.50289e-05
2.58532e-08
1.50346e-05
2.94847e-08
1.50414e-05
3.25546e-08
1.5049e-05
3.52432e-08
1.50571e-05
3.76939e-08
1.50655e-05
4.00079e-08
1.50742e-05
4.22479e-08
1.50832e-05
4.4443e-08
1.50925e-05
4.6596e-08
4.86885e-08
1.51021e-05
1.76171e-05
2.89313e-09
1.75999e-05
8.52292e-09
1.75787e-05
1.30294e-08
1.7559e-05
1.62775e-08
1.75436e-05
1.8472e-08
1.75336e-05
1.99571e-08
1.75287e-05
2.10515e-08
1.75282e-05
2.19929e-08
1.75311e-05
2.29389e-08
1.75366e-05
2.39849e-08
1.7544e-05
2.51769e-08
1.75527e-05
2.65278e-08
1.75624e-05
2.80262e-08
1.75727e-05
2.96469e-08
1.75836e-05
3.1353e-08
1.7595e-05
3.31036e-08
1.76067e-05
3.48526e-08
3.65555e-08
1.76188e-05
1.78181e-05
1.10003e-08
1.77994e-05
2.72123e-08
1.77768e-05
3.56237e-08
1.7756e-05
3.70578e-08
1.77402e-05
3.43252e-08
1.77302e-05
2.99451e-08
1.77257e-05
2.54985e-08
1.7726e-05
2.17762e-08
1.77298e-05
1.90732e-08
1.77364e-05
1.73984e-08
1.7745e-05
1.66314e-08
1.77549e-05
1.66028e-08
1.77658e-05
1.71418e-08
1.77773e-05
1.80905e-08
1.77894e-05
1.93167e-08
1.78018e-05
2.07065e-08
1.78144e-05
2.21705e-08
2.36328e-08
1.78274e-05
1.58702e-05
2.21334e-08
1.58478e-05
4.95811e-08
1.58233e-05
6.01317e-08
1.58032e-05
5.72337e-08
1.57899e-05
4.76092e-08
1.57834e-05
3.63698e-08
1.57827e-05
2.61953e-08
1.57864e-05
1.8144e-08
1.57931e-05
1.23625e-08
1.58019e-05
8.60988e-09
1.5812e-05
6.49507e-09
1.5823e-05
5.62848e-09
1.58345e-05
5.66617e-09
1.58462e-05
6.3323e-09
1.58581e-05
7.40551e-09
1.58701e-05
8.72204e-09
1.58821e-05
1.01532e-08
1.16098e-08
1.58942e-05
1.41313e-05
3.95386e-08
1.41021e-05
7.87066e-08
1.40745e-05
8.77873e-08
1.40557e-05
7.60375e-08
1.40469e-05
5.6412e-08
1.40462e-05
3.70378e-08
1.40512e-05
2.12079e-08
1.40597e-05
9.57939e-09
1.40704e-05
1.75954e-09
1.4082e-05
-3.05152e-09
1.40941e-05
-5.60589e-09
1.41063e-05
-6.56035e-09
1.41184e-05
-6.41179e-09
1.41303e-05
-5.55179e-09
1.41419e-05
-4.25045e-09
1.41534e-05
-2.70921e-09
1.41646e-05
-1.06553e-09
5.83421e-10
1.41756e-05
1.25772e-05
6.73555e-08
1.25392e-05
1.16739e-07
1.25091e-05
1.17888e-07
1.24942e-05
9.08902e-08
1.24928e-05
5.78126e-08
1.25002e-05
2.96812e-08
1.25122e-05
9.1286e-09
1.25264e-05
-4.49941e-09
1.25409e-05
-1.28387e-08
1.25552e-05
-1.73504e-08
1.25689e-05
-1.92847e-08
1.25819e-05
-1.94975e-08
1.25941e-05
-1.86483e-08
1.26057e-05
-1.71435e-08
1.26167e-05
-1.52903e-08
1.26273e-05
-1.32827e-08
1.26375e-05
-1.12495e-08
-9.27396e-09
1.26473e-05
1.11862e-05
1.10916e-07
1.11384e-05
1.6457e-07
1.11088e-05
1.4752e-07
1.11022e-05
9.7484e-08
1.11117e-05
4.83119e-08
1.11289e-05
1.24e-08
1.11486e-05
-1.04634e-08
1.11678e-05
-2.37302e-08
1.11855e-05
-3.0511e-08
1.12014e-05
-3.32933e-08
1.12157e-05
-3.35553e-08
1.12285e-05
-3.23567e-08
1.12402e-05
-3.02952e-08
1.12509e-05
-2.78385e-08
1.12608e-05
-2.52238e-08
1.12701e-05
-2.26143e-08
1.1279e-05
-2.01128e-08
-1.77511e-08
1.12875e-05
9.93908e-06
1.76452e-07
9.88248e-06
2.21163e-07
9.85873e-06
1.71262e-07
9.86593e-06
9.02751e-08
9.8896e-06
2.46381e-08
9.91759e-06
-1.55568e-08
9.94391e-06
-3.67968e-08
9.96668e-06
-4.64124e-08
9.98571e-06
-4.96146e-08
1.00017e-05
-4.92916e-08
1.00153e-05
-4.71295e-08
1.00269e-05
-4.39975e-08
1.00371e-05
-4.05283e-08
1.00463e-05
-3.69832e-08
1.00546e-05
-3.35402e-08
1.00623e-05
-3.03182e-08
1.00696e-05
-2.73586e-08
-2.46626e-08
1.00764e-05
8.81963e-06
2.69916e-07
8.75785e-06
2.82944e-07
8.74788e-06
1.81226e-07
8.77481e-06
6.33227e-08
8.81458e-06
-1.51294e-08
8.85212e-06
-5.30925e-08
8.88268e-06
-6.72308e-08
8.90623e-06
-7.00291e-08
8.92427e-06
-6.76224e-08
8.93843e-06
-6.33785e-08
8.94985e-06
-5.84098e-08
8.95927e-06
-5.33442e-08
8.96727e-06
-4.84775e-08
8.97429e-06
-4.3977e-08
8.98055e-06
-3.98164e-08
8.98629e-06
-3.60593e-08
8.99168e-06
-3.27848e-08
-2.98471e-08
8.99685e-06
7.81391e-06
3.96675e-07
7.75391e-06
3.42943e-07
7.76868e-06
1.6644e-07
7.82053e-06
1.14611e-08
7.87567e-06
-7.02742e-08
7.91912e-06
-9.64915e-08
7.94967e-06
-9.78367e-08
7.97057e-06
-9.0653e-08
7.98484e-06
-8.15954e-08
7.99525e-06
-7.35626e-08
8.00317e-06
-6.61259e-08
8.00939e-06
-5.9429e-08
8.0145e-06
-5.33382e-08
8.01892e-06
-4.8212e-08
8.02279e-06
-4.36675e-08
8.02626e-06
-3.96047e-08
8.0296e-06
-3.62069e-08
-3.3201e-08
8.0329e-06
6.90424e-06
5.66768e-07
6.86137e-06
3.85804e-07
6.91716e-06
1.10634e-07
6.99674e-06
-6.81329e-08
7.06253e-06
-1.36071e-07
7.10529e-06
-1.39268e-07
7.13032e-06
-1.2255e-07
7.14447e-06
-1.04621e-07
7.15207e-06
-8.8999e-08
7.15709e-06
-7.58188e-08
7.16038e-06
-6.66919e-08
7.16271e-06
-5.95591e-08
7.16421e-06
-5.41522e-08
7.16558e-06
-4.94556e-08
7.16675e-06
-4.49737e-08
7.16771e-06
-4.08466e-08
7.1688e-06
-3.7639e-08
-3.51285e-08
7.17004e-06
6.07162e-06
7.97662e-07
6.08526e-06
3.72164e-07
6.19865e-06
-2.77328e-09
6.29989e-06
-1.69397e-07
6.36526e-06
-2.01462e-07
6.39754e-06
-1.71503e-07
6.41011e-06
-1.35218e-07
6.41342e-06
-1.0695e-07
6.41239e-06
-8.58108e-08
6.40989e-06
-7.40386e-08
6.40749e-06
-6.45258e-08
6.40488e-06
-5.75996e-08
6.40237e-06
-5.13288e-08
6.40035e-06
-4.70122e-08
6.3984e-06
-4.30816e-08
6.39641e-06
-3.91724e-08
6.39475e-06
-3.6921e-08
-3.4732e-08
6.39408e-06
5.35805e-06
1.05451e-06
5.50649e-06
2.23716e-07
5.64777e-06
-1.44085e-07
5.73564e-06
-2.57314e-07
5.77646e-06
-2.42346e-07
5.78324e-06
-1.78423e-07
5.77527e-06
-1.26643e-07
5.76327e-06
-9.4007e-08
5.74975e-06
-7.56676e-08
5.73931e-06
-6.39916e-08
5.73029e-06
-5.65623e-08
5.72235e-06
-4.99798e-08
5.71442e-06
-4.46743e-08
5.70782e-06
-4.05658e-08
5.70185e-06
-3.69858e-08
5.69607e-06
-3.35172e-08
5.69145e-06
-3.16796e-08
-3.13866e-08
5.68767e-06
5.04576e-06
1.01105e-06
5.36491e-06
-9.545e-08
5.35251e-06
-1.31767e-07
5.33285e-06
-2.37745e-07
5.296e-06
-2.05651e-07
5.25016e-06
-1.32588e-07
5.20891e-06
-8.47342e-08
5.17485e-06
-6.08245e-08
5.14636e-06
-4.98268e-08
5.12485e-06
-4.29234e-08
5.10673e-06
-3.93774e-08
5.09051e-06
-3.57034e-08
5.07531e-06
-3.14405e-08
5.06199e-06
-2.76024e-08
5.04966e-06
-2.44277e-08
5.0389e-06
-2.20366e-08
5.02966e-06
-2.20883e-08
-2.33819e-08
5.02214e-06
5.4676e-06
5.37215e-06
5.24037e-06
5.0026e-06
4.79694e-06
4.66444e-06
4.57967e-06
4.51835e-06
4.46848e-06
4.42538e-06
4.38566e-06
4.34948e-06
4.31793e-06
4.29038e-06
4.26609e-06
4.2442e-06
4.2223e-06
4.19948e-06
2.3131e-08
-2.31316e-08
2.37207e-07
-2.1408e-07
4.89331e-07
-2.52093e-07
7.09595e-07
-2.20243e-07
8.77309e-07
-1.67694e-07
9.88436e-07
-1.11118e-07
1.0441e-06
-5.56503e-08
1.04652e-06
-2.42054e-09
1.00102e-06
4.55134e-08
9.17737e-07
8.32675e-08
8.11938e-07
1.05809e-07
7.0275e-07
1.09173e-07
6.09969e-07
9.27771e-08
5.43684e-07
6.62954e-08
4.9254e-07
5.11616e-08
4.33359e-07
5.98831e-08
3.47047e-07
8.61714e-08
2.2194e-07
1.25877e-07
4.3626e-08
1.77894e-07
-2.0185e-07
2.44842e-07
-5.04393e-07
3.02286e-07
-8.45387e-07
3.40742e-07
-1.20973e-06
3.64349e-07
-1.58713e-06
3.77407e-07
-1.96872e-06
3.81641e-07
-2.34455e-06
3.7585e-07
-2.70659e-06
3.62056e-07
-3.04966e-06
3.43086e-07
-3.36995e-06
3.20303e-07
-3.66512e-06
2.95175e-07
-3.9343e-06
2.69191e-07
-4.17783e-06
2.43524e-07
-4.39671e-06
2.18883e-07
-4.59243e-06
1.95722e-07
-4.76669e-06
1.74267e-07
-4.92129e-06
1.54601e-07
-5.05798e-06
1.36684e-07
-5.17838e-06
1.204e-07
-5.28397e-06
1.05588e-07
-5.37603e-06
9.20674e-08
-5.45569e-06
7.96561e-08
-5.52387e-06
6.81818e-08
-5.58136e-06
5.74892e-08
-5.62881e-06
4.74444e-08
-5.66674e-06
3.79384e-08
-5.69563e-06
2.88838e-08
-5.71584e-06
2.02093e-08
-5.72772e-06
1.18851e-08
-5.73176e-06
4.03924e-09
-5.72882e-06
-2.94025e-09
-5.71999e-06
-8.83864e-09
-5.70602e-06
-1.39652e-08
-5.68734e-06
-1.86816e-08
-5.66419e-06
-2.3149e-08
-5.63675e-06
-2.74455e-08
-5.60515e-06
-3.15992e-08
-5.56952e-06
-3.5625e-08
-5.52999e-06
-3.95297e-08
-5.48668e-06
-4.33142e-08
-5.4397e-06
-4.69776e-08
-5.38918e-06
-5.05172e-08
-5.33526e-06
-5.39297e-08
-5.27804e-06
-5.72115e-08
-5.21769e-06
-6.03594e-08
-5.15431e-06
-6.33709e-08
-5.08807e-06
-6.6243e-08
-5.0191e-06
-6.89721e-08
-4.94754e-06
-7.1556e-08
-4.87355e-06
-7.3993e-08
-4.79727e-06
-7.6282e-08
-4.71885e-06
-7.84221e-08
-4.63844e-06
-8.0413e-08
-4.55618e-06
-8.22549e-08
-4.47223e-06
-8.39486e-08
-4.38674e-06
-8.54951e-08
-4.29984e-06
-8.68962e-08
-4.21169e-06
-8.81539e-08
-4.12242e-06
-8.92709e-08
-4.03217e-06
-9.02501e-08
-3.94107e-06
-9.10951e-08
-3.84926e-06
-9.18098e-08
-3.75687e-06
-9.23985e-08
-3.664e-06
-9.28661e-08
-3.57078e-06
-9.32181e-08
-3.47732e-06
-9.34612e-08
-3.38372e-06
-9.36029e-08
-3.29007e-06
-9.36519e-08
-3.19645e-06
-9.36177e-08
-3.10294e-06
-9.35116e-08
-3.00959e-06
-9.33497e-08
-2.91643e-06
-9.31553e-08
-2.82348e-06
-9.29541e-08
-2.73072e-06
-9.27614e-08
-2.63816e-06
-9.25569e-08
-2.54591e-06
-9.22575e-08
-2.45415e-06
-9.17611e-08
-2.36316e-06
-9.09817e-08
-2.27323e-06
-8.99372e-08
-2.18444e-06
-8.87839e-08
-2.09681e-06
-8.76292e-08
-2.01034e-06
-8.64732e-08
-1.92504e-06
-8.52998e-08
-1.84094e-06
-8.41018e-08
-1.75806e-06
-8.28784e-08
-1.67643e-06
-8.16319e-08
-1.59606e-06
-8.03661e-08
-1.51698e-06
-7.90849e-08
-1.43919e-06
-7.7791e-08
-1.3627e-06
-7.64823e-08
-1.28757e-06
-7.5138e-08
-1.2138e-06
-7.37703e-08
-1.14139e-06
-7.24068e-08
-1.07035e-06
-7.10426e-08
-1.00067e-06
-6.96788e-08
-9.32349e-07
-6.83165e-08
-8.65391e-07
-6.69572e-08
-7.99787e-07
-6.56031e-08
-7.3553e-07
-6.42569e-08
-6.72608e-07
-6.29205e-08
-6.11014e-07
-6.15933e-08
-5.50737e-07
-6.0276e-08
-4.91765e-07
-5.89714e-08
-4.34078e-07
-5.76856e-08
-3.77653e-07
-5.6424e-08
-3.22469e-07
-5.51826e-08
-2.6851e-07
-5.39579e-08
-2.15755e-07
-5.27541e-08
-1.64183e-07
-5.15701e-08
-1.13788e-07
-5.03942e-08
-6.45606e-08
-4.92264e-08
-1.66233e-08
-4.79364e-08
3.01564e-08
-4.67788e-08
7.60857e-08
-4.59284e-08
1.21058e-07
-4.49712e-08
1.6497e-07
-4.39112e-08
2.07818e-07
-4.28473e-08
2.4962e-07
-4.18007e-08
2.90404e-07
-4.07839e-08
3.30203e-07
-3.97991e-08
3.69049e-07
-3.88445e-08
4.06968e-07
-3.79184e-08
4.43988e-07
-3.70194e-08
4.80136e-07
-3.61466e-08
5.15435e-07
-3.52991e-08
5.49912e-07
-3.44765e-08
5.8359e-07
-3.36784e-08
6.16494e-07
-3.29047e-08
6.48648e-07
-3.21552e-08
6.80076e-07
-3.14298e-08
7.10802e-07
-3.07284e-08
7.4085e-07
-3.00511e-08
7.70245e-07
-2.93976e-08
7.99011e-07
-2.87683e-08
8.27171e-07
-2.81629e-08
8.5475e-07
-2.75816e-08
8.81772e-07
-2.70244e-08
9.0826e-07
-2.6491e-08
9.34239e-07
-2.59812e-08
9.59731e-07
-2.54946e-08
9.84759e-07
-2.50303e-08
1.00934e-06
-2.4587e-08
1.03351e-06
-2.41628e-08
1.05726e-06
-2.3755e-08
1.08062e-06
-2.33594e-08
1.10358e-06
-2.29704e-08
1.12616e-06
-2.25798e-08
1.14834e-06
-2.21763e-08
1.17008e-06
-2.1744e-08
1.19134e-06
-2.12608e-08
1.21203e-06
-2.06958e-08
1.23203e-06
-2.00046e-08
1.25115e-06
-1.91234e-08
1.26911e-06
-1.7955e-08
1.28546e-06
-1.63549e-08
1.29951e-06
-1.4048e-08
1.31013e-06
-1.0624e-08
1.31469e-06
-4.55926e-09
1.30784e-06
6.85648e-09
1.2783e-06
2.95378e-08
7.23307e-08
1.20596e-06
2.54185e-07
-2.77339e-07
4.90084e-07
-4.49977e-07
6.39667e-07
-4.01673e-07
7.24298e-07
-3.04873e-07
7.63811e-07
-2.07198e-07
7.69755e-07
-1.17067e-07
7.48822e-07
-3.47113e-08
7.06637e-07
3.97554e-08
6.46275e-07
1.0588e-07
5.67645e-07
1.61887e-07
4.70029e-07
2.03431e-07
3.51757e-07
2.27434e-07
2.06791e-07
2.37749e-07
2.3589e-08
2.49513e-07
-2.08634e-07
2.83392e-07
-4.94283e-07
3.45625e-07
-8.3225e-07
4.24227e-07
-1.21211e-06
5.05755e-07
-1.61593e-06
5.81672e-07
-2.01737e-06
6.46228e-07
-2.4074e-06
6.92258e-07
-2.78287e-06
7.16204e-07
-3.13781e-06
7.1929e-07
-3.46523e-06
7.04833e-07
-3.75999e-06
6.76404e-07
-4.02113e-06
6.36997e-07
-4.24907e-06
5.89998e-07
-4.44508e-06
5.39102e-07
-4.61207e-06
4.87298e-07
-4.75355e-06
4.3666e-07
-4.87289e-06
3.88536e-07
-4.97327e-06
3.439e-07
-5.05755e-06
3.03167e-07
-5.12825e-06
2.66423e-07
-5.18749e-06
2.33505e-07
-5.237e-06
2.04111e-07
-5.27818e-06
1.77871e-07
-5.31218e-06
1.54394e-07
-5.33989e-06
1.33297e-07
-5.36205e-06
1.1423e-07
-5.37928e-06
9.68813e-08
-5.39208e-06
8.09849e-08
-5.40091e-06
6.63189e-08
-5.40617e-06
5.27016e-08
-5.40821e-06
3.99862e-08
-5.40739e-06
2.80577e-08
-5.40402e-06
1.68385e-08
-5.39843e-06
6.2936e-09
-5.39077e-06
-3.62092e-09
-5.38061e-06
-1.30948e-08
-5.36708e-06
-2.23683e-08
-5.34958e-06
-3.14704e-08
-5.32793e-06
-4.03355e-08
-5.30211e-06
-4.89599e-08
-5.27221e-06
-5.73505e-08
-5.2383e-06
-6.55135e-08
-5.20047e-06
-7.34517e-08
-5.15884e-06
-8.11645e-08
-5.1135e-06
-8.86487e-08
-5.06458e-06
-9.58987e-08
-5.01219e-06
-1.02908e-07
-4.95645e-06
-1.09668e-07
-4.89749e-06
-1.16172e-07
-4.83544e-06
-1.22412e-07
-4.77043e-06
-1.28384e-07
-4.70259e-06
-1.34082e-07
-4.63206e-06
-1.39497e-07
-4.559e-06
-1.44625e-07
-4.48352e-06
-1.49464e-07
-4.4058e-06
-1.5401e-07
-4.32596e-06
-1.58262e-07
-4.24415e-06
-1.6222e-07
-4.16052e-06
-1.65884e-07
-4.07522e-06
-1.69254e-07
-3.98838e-06
-1.72334e-07
-3.90015e-06
-1.75127e-07
-3.81066e-06
-1.77637e-07
-3.72006e-06
-1.7987e-07
-3.62849e-06
-1.8183e-07
-3.53606e-06
-1.83525e-07
-3.4429e-06
-1.84962e-07
-3.34915e-06
-1.86151e-07
-3.25492e-06
-1.87099e-07
-3.16032e-06
-1.87818e-07
-3.06546e-06
-1.88317e-07
-2.97046e-06
-1.88609e-07
-2.8754e-06
-1.88706e-07
-2.7804e-06
-1.88619e-07
-2.68555e-06
-1.88362e-07
-2.59096e-06
-1.87947e-07
-2.49672e-06
-1.87388e-07
-2.40299e-06
-1.86691e-07
-2.3099e-06
-1.8585e-07
-2.21762e-06
-1.84837e-07
-2.12627e-06
-1.8361e-07
-2.03589e-06
-1.82138e-07
-1.94645e-06
-1.80418e-07
-1.8579e-06
-1.7849e-07
-1.77025e-06
-1.76432e-07
-1.68358e-06
-1.74297e-07
-1.59796e-06
-1.72099e-07
-1.51342e-06
-1.69838e-07
-1.43001e-06
-1.67516e-07
-1.34775e-06
-1.65138e-07
-1.26667e-06
-1.62707e-07
-1.18681e-06
-1.6023e-07
-1.10818e-06
-1.57713e-07
-1.03081e-06
-1.55158e-07
-9.54728e-07
-1.52567e-07
-8.79924e-07
-1.49942e-07
-8.064e-07
-1.47294e-07
-7.34168e-07
-1.44638e-07
-6.63234e-07
-1.41977e-07
-5.93598e-07
-1.39315e-07
-5.25259e-07
-1.36654e-07
-4.58217e-07
-1.33999e-07
-3.92468e-07
-1.31352e-07
-3.28007e-07
-1.28718e-07
-2.64822e-07
-1.26104e-07
-2.02905e-07
-1.2351e-07
-1.42246e-07
-1.20935e-07
-8.28333e-08
-1.18383e-07
-2.46608e-08
-1.15858e-07
3.22857e-08
-1.1337e-07
8.80341e-08
-1.1093e-07
1.42602e-07
-1.08525e-07
1.95999e-07
-1.06151e-07
2.4824e-07
-1.03812e-07
2.99354e-07
-1.01508e-07
3.49369e-07
-9.92407e-08
3.98443e-07
-9.70101e-08
4.4655e-07
-9.48854e-08
4.93473e-07
-9.28511e-08
5.3928e-07
-9.0778e-08
5.84049e-07
-8.86798e-08
6.27811e-07
-8.66092e-08
6.70596e-07
-8.45854e-08
7.12427e-07
-8.26152e-08
7.53328e-07
-8.07e-08
7.93323e-07
-7.88386e-08
8.32434e-07
-7.70292e-08
8.70685e-07
-7.52703e-08
9.081e-07
-7.35608e-08
9.44701e-07
-7.18998e-08
9.80511e-07
-7.02866e-08
1.01555e-06
-6.8721e-08
1.04985e-06
-6.72026e-08
1.08343e-06
-6.57313e-08
1.1163e-06
-6.43068e-08
1.1485e-06
-6.29292e-08
1.18005e-06
-6.15983e-08
1.21096e-06
-6.03143e-08
1.24127e-06
-5.9077e-08
1.27099e-06
-5.78866e-08
1.30015e-06
-5.67429e-08
1.32877e-06
-5.56457e-08
1.35687e-06
-5.45946e-08
1.38448e-06
-5.3589e-08
1.41161e-06
-5.26277e-08
1.43829e-06
-5.17088e-08
1.46453e-06
-5.08298e-08
1.49035e-06
-4.99867e-08
1.51577e-06
-4.9174e-08
1.54079e-06
-4.83838e-08
1.56543e-06
-4.76049e-08
1.58967e-06
-4.68221e-08
1.6135e-06
-4.6014e-08
1.63691e-06
-4.51511e-08
1.65984e-06
-4.41924e-08
1.68222e-06
-4.30803e-08
1.70395e-06
-4.17331e-08
1.72486e-06
-4.00328e-08
1.74471e-06
-3.78028e-08
1.76312e-06
-3.47736e-08
1.77956e-06
-3.04845e-08
1.79312e-06
-2.4183e-08
1.80283e-06
-1.42753e-08
1.8077e-06
1.99628e-09
1.80581e-06
3.14237e-08
8.80327e-08
1.7901e-06
2.46007e-07
-5.23367e-07
3.42318e-07
-5.46293e-07
3.58604e-07
-4.17958e-07
3.47558e-07
-2.93818e-07
3.19854e-07
-1.7949e-07
2.7577e-07
-7.29818e-08
2.14591e-07
2.64689e-08
1.35269e-07
1.19072e-07
3.67409e-08
2.04408e-07
-8.31557e-08
2.81779e-07
-2.30126e-07
3.50402e-07
-4.1469e-07
4.11998e-07
-6.50259e-07
4.73315e-07
-9.43751e-07
5.4301e-07
-1.28501e-06
6.24643e-07
-1.65211e-06
7.12726e-07
-2.02421e-06
7.9633e-07
-2.38446e-06
8.65996e-07
-2.71897e-06
9.16164e-07
-3.01719e-06
9.44434e-07
-3.27526e-06
9.5032e-07
-3.49414e-06
9.35101e-07
-3.67685e-06
9.01998e-07
-3.82741e-06
8.55395e-07
-3.95054e-06
7.99545e-07
-4.05167e-06
7.38129e-07
-4.13613e-06
6.7445e-07
-4.20829e-06
6.11267e-07
-4.2716e-06
5.50612e-07
-4.32868e-06
4.93738e-07
-4.3814e-06
4.41253e-07
-4.43089e-06
3.93389e-07
-4.47778e-06
3.50064e-07
-4.52236e-06
3.10996e-07
-4.56465e-06
2.75794e-07
-4.60456e-06
2.4402e-07
-4.64192e-06
2.15233e-07
-4.67654e-06
1.89017e-07
-4.70824e-06
1.64996e-07
-4.73685e-06
1.42838e-07
-4.76223e-06
1.22262e-07
-4.78427e-06
1.0303e-07
-4.8029e-06
8.49424e-08
-4.81803e-06
6.78353e-08
-4.82961e-06
5.15687e-08
-4.83758e-06
3.60233e-08
-4.84184e-06
2.10973e-08
-4.84224e-06
6.69694e-09
-4.83858e-06
-7.28451e-09
-4.83071e-06
-2.09613e-08
-4.81869e-06
-3.43932e-08
-4.80259e-06
-4.75677e-08
-4.78246e-06
-6.04625e-08
-4.75836e-06
-7.30693e-08
-4.73033e-06
-8.53815e-08
-4.69845e-06
-9.73935e-08
-4.6628e-06
-1.09098e-07
-4.62348e-06
-1.20487e-07
-4.58057e-06
-1.3155e-07
-4.5342e-06
-1.42276e-07
-4.48445e-06
-1.52652e-07
-4.43146e-06
-1.62665e-07
-4.37533e-06
-1.72301e-07
-4.31619e-06
-1.81551e-07
-4.25417e-06
-1.90406e-07
-4.18939e-06
-1.98857e-07
-4.122e-06
-2.06891e-07
-4.05212e-06
-2.14502e-07
-3.9799e-06
-2.21684e-07
-3.90548e-06
-2.28435e-07
-3.82899e-06
-2.34751e-07
-3.75058e-06
-2.40631e-07
-3.67039e-06
-2.46075e-07
-3.58856e-06
-2.51085e-07
-3.50523e-06
-2.55664e-07
-3.42054e-06
-2.59818e-07
-3.33462e-06
-2.63551e-07
-3.24762e-06
-2.66871e-07
-3.15966e-06
-2.69787e-07
-3.07088e-06
-2.72308e-07
-2.9814e-06
-2.74445e-07
-2.89134e-06
-2.76209e-07
-2.80083e-06
-2.77613e-07
-2.70998e-06
-2.7867e-07
-2.6189e-06
-2.79395e-07
-2.52771e-06
-2.79801e-07
-2.43651e-06
-2.79905e-07
-2.34541e-06
-2.7972e-07
-2.25451e-06
-2.79261e-07
-2.16391e-06
-2.78542e-07
-2.07373e-06
-2.77572e-07
-1.98406e-06
-2.7636e-07
-1.89501e-06
-2.74903e-07
-1.80666e-06
-2.73189e-07
-1.71906e-06
-2.71203e-07
-1.63226e-06
-2.68942e-07
-1.54626e-06
-2.66423e-07
-1.46106e-06
-2.63681e-07
-1.37674e-06
-2.60762e-07
-1.29333e-06
-2.57701e-07
-1.21091e-06
-2.54519e-07
-1.12952e-06
-2.51226e-07
-1.04921e-06
-2.47834e-07
-9.69993e-07
-2.44351e-07
-8.91913e-07
-2.40787e-07
-8.14993e-07
-2.37151e-07
-7.39255e-07
-2.33451e-07
-6.64719e-07
-2.29694e-07
-5.91399e-07
-2.25887e-07
-5.19301e-07
-2.2204e-07
-4.48434e-07
-2.18162e-07
-3.78807e-07
-2.14265e-07
-3.10427e-07
-2.10357e-07
-2.43295e-07
-2.06446e-07
-1.77412e-07
-2.02538e-07
-1.12776e-07
-1.98635e-07
-4.93824e-08
-1.94745e-07
1.27743e-08
-1.90875e-07
7.36985e-08
-1.87028e-07
1.33398e-07
-1.8321e-07
1.91887e-07
-1.79423e-07
2.49176e-07
-1.75673e-07
3.05282e-07
-1.71963e-07
3.60216e-07
-1.68304e-07
4.13984e-07
-1.64698e-07
4.66602e-07
-1.61143e-07
5.1809e-07
-1.57638e-07
5.68467e-07
-1.54188e-07
6.17755e-07
-1.50796e-07
6.65984e-07
-1.4747e-07
7.13196e-07
-1.44222e-07
7.59375e-07
-1.41064e-07
8.04485e-07
-1.37962e-07
8.48577e-07
-1.34869e-07
8.91693e-07
-1.31796e-07
9.33857e-07
-1.28773e-07
9.75088e-07
-1.25816e-07
1.0154e-06
-1.22932e-07
1.05483e-06
-1.20121e-07
1.09337e-06
-1.17385e-07
1.13107e-06
-1.14722e-07
1.16793e-06
-1.12131e-07
1.20398e-06
-1.09612e-07
1.23924e-06
-1.07163e-07
1.27374e-06
-1.04784e-07
1.30749e-06
-1.02474e-07
1.34052e-06
-1.00234e-07
1.37285e-06
-9.80633e-08
1.40451e-06
-9.59613e-08
1.43551e-06
-9.39281e-08
1.46587e-06
-9.19638e-08
1.49562e-06
-9.00683e-08
1.52479e-06
-8.82416e-08
1.55338e-06
-8.64838e-08
1.58143e-06
-8.47946e-08
1.60896e-06
-8.31738e-08
1.63599e-06
-8.16208e-08
1.66253e-06
-8.01344e-08
1.68862e-06
-7.87129e-08
1.71426e-06
-7.73537e-08
1.73948e-06
-7.6053e-08
1.7643e-06
-7.4805e-08
1.78873e-06
-7.36019e-08
1.81278e-06
-7.24324e-08
1.83645e-06
-7.12808e-08
1.85975e-06
-7.01255e-08
1.88268e-06
-6.89366e-08
1.9052e-06
-6.76726e-08
1.92728e-06
-6.62764e-08
1.94887e-06
-6.46677e-08
1.96987e-06
-6.27335e-08
1.99014e-06
-6.0311e-08
2.0095e-06
-5.71596e-08
2.02764e-06
-5.29159e-08
2.04414e-06
-4.69893e-08
2.0584e-06
-3.84401e-08
2.06963e-06
-2.55085e-08
2.07698e-06
-5.35056e-09
2.08088e-06
2.75222e-08
8.54939e-08
2.08342e-06
9.373e-08
-6.17109e-07
6.2383e-08
-5.1496e-07
1.38975e-08
-3.69465e-07
-4.31958e-08
-2.36719e-07
-1.12695e-07
-1.09986e-07
-1.98069e-07
1.23956e-08
-3.02302e-07
1.30703e-07
-4.27811e-07
2.4458e-07
-5.7717e-07
3.53766e-07
-7.53764e-07
4.58373e-07
-9.62351e-07
5.58985e-07
-1.20725e-06
6.56893e-07
-1.48724e-06
7.53302e-07
-1.79152e-06
8.47294e-07
-2.10141e-06
9.34521e-07
-2.39726e-06
1.00857e-06
-2.6646e-06
1.06366e-06
-2.89515e-06
1.09653e-06
-3.08564e-06
1.10665e-06
-3.2369e-06
1.09569e-06
-3.35327e-06
1.0667e-06
-3.44131e-06
1.02314e-06
-3.50812e-06
9.68818e-07
-3.56024e-06
9.07515e-07
-3.60314e-06
8.42446e-07
-3.64125e-06
7.76245e-07
-3.67783e-06
7.11025e-07
-3.71489e-06
6.48334e-07
-3.75345e-06
5.89174e-07
-3.79378e-06
5.34067e-07
-3.83569e-06
4.83166e-07
-3.8787e-06
4.36391e-07
-3.92214e-06
3.93512e-07
-3.96535e-06
3.54205e-07
-4.00767e-06
3.1811e-07
-4.0485e-06
2.84856e-07
-4.08736e-06
2.54085e-07
-4.12381e-06
2.25467e-07
-4.15751e-06
1.98701e-07
-4.1882e-06
1.73524e-07
-4.21564e-06
1.49706e-07
-4.23966e-06
1.27051e-07
-4.26011e-06
1.05391e-07
-4.27686e-06
8.45874e-08
-4.28981e-06
6.45185e-08
-4.29887e-06
4.50834e-08
-4.30397e-06
2.61957e-08
-4.30505e-06
7.77864e-09
-4.3021e-06
-1.02415e-08
-4.29513e-06
-2.79258e-08
-4.28422e-06
-4.53022e-08
-4.26942e-06
-6.23677e-08
-4.25078e-06
-7.91093e-08
-4.22833e-06
-9.55147e-08
-4.20214e-06
-1.1157e-07
-4.17228e-06
-1.27261e-07
-4.1388e-06
-1.42573e-07
-4.1018e-06
-1.57488e-07
-4.06136e-06
-1.71988e-07
-4.01758e-06
-1.86057e-07
-3.97056e-06
-1.99675e-07
-3.9204e-06
-2.12824e-07
-3.86722e-06
-2.25484e-07
-3.81113e-06
-2.3764e-07
-3.75226e-06
-2.4928e-07
-3.69072e-06
-2.60391e-07
-3.62665e-06
-2.70958e-07
-3.56018e-06
-2.80972e-07
-3.49144e-06
-2.90425e-07
-3.42057e-06
-2.99311e-07
-3.34769e-06
-3.07626e-07
-3.27295e-06
-3.15369e-07
-3.19649e-06
-3.2254e-07
-3.11843e-06
-3.2914e-07
-3.03892e-06
-3.35175e-07
-2.95809e-06
-3.40648e-07
-2.87608e-06
-3.45569e-07
-2.793e-06
-3.49945e-07
-2.709e-06
-3.53789e-07
-2.6242e-06
-3.57111e-07
-2.53872e-06
-3.59925e-07
-2.45268e-06
-3.62247e-07
-2.36621e-06
-3.64091e-07
-2.2794e-06
-3.65473e-07
-2.19239e-06
-3.66412e-07
-2.10526e-06
-3.66925e-07
-2.01814e-06
-3.6703e-07
-1.93111e-06
-3.66744e-07
-1.84429e-06
-3.66085e-07
-1.75776e-06
-3.65069e-07
-1.67163e-06
-3.63709e-07
-1.58597e-06
-3.62016e-07
-1.50088e-06
-3.59998e-07
-1.41641e-06
-3.57655e-07
-1.33262e-06
-3.54991e-07
-1.24955e-06
-3.52014e-07
-1.16723e-06
-3.48745e-07
-1.08569e-06
-3.45215e-07
-1.005e-06
-3.4146e-07
-9.2519e-07
-3.37509e-07
-8.46323e-07
-3.33385e-07
-7.68441e-07
-3.29108e-07
-6.91582e-07
-3.24693e-07
-6.15779e-07
-3.20155e-07
-5.4106e-07
-3.15506e-07
-4.67452e-07
-3.1076e-07
-3.94976e-07
-3.05927e-07
-3.2365e-07
-3.0102e-07
-2.53487e-07
-2.9605e-07
-1.84498e-07
-2.91029e-07
-1.16693e-07
-2.85968e-07
-5.00786e-08
-2.80879e-07
1.53387e-08
-2.75775e-07
7.95546e-08
-2.70662e-07
1.42567e-07
-2.65551e-07
2.0438e-07