/*--------------------------------*- C++ -*----------------------------------*\
  =========                 |
  \\      /  F ield         | OpenFOAM: The Open Source CFD Toolbox
   \\    /   O peration     | Website:  https://openfoam.org
    \\  /    A nd           | Version:  8
     \\/     M anipulation  |
\*---------------------------------------------------------------------------*/
FoamFile
{
    version     2.0;
    format      ascii;
    class       volScalarField;
    location    "3300";
    object      nut;
}
// * * * * * * * * * * * * * * * * * * * * * * * * * * * * * * * * * * * * * //

dimensions      [0 2 -1 0 0 0 0];

internalField   nonuniform List<scalar> 
12225
(
0.0122671
0.00158819
0.000666129
0.000410105
0.000294025
0.00022806
0.000183261
0.000170806
0.000132697
0.000106844
9.46737e-05
8.80089e-05
7.89863e-05
7.22335e-05
6.7733e-05
6.45091e-05
6.12123e-05
6.46354e-05
0.0323823
0.00744532
0.00330638
0.00204329
0.00146801
0.0011445
0.000936338
0.000799976
0.000679511
0.000577235
0.000506287
0.000452433
0.000410541
0.000378808
0.000350184
0.000327771
0.000311176
0.000292829
0.0490123
0.01515
0.00728196
0.00457854
0.00330639
0.00258054
0.00211233
0.00178913
0.00154181
0.00134762
0.00119772
0.0010787
0.00098206
0.000902485
0.000835984
0.000780917
0.000735557
0.000687189
0.063054
0.0237783
0.0122894
0.00788814
0.00573397
0.00448498
0.00367413
0.00310733
0.00268471
0.00235805
0.00210111
0.00189458
0.00172531
0.00158451
0.00146614
0.00136606
0.00128147
0.00119792
0.074932
0.0328517
0.0181452
0.0119262
0.00874548
0.00686412
0.0056308
0.00476254
0.00411748
0.0036203
0.00322732
0.00290993
0.002649
0.00243144
0.002248
0.00209189
0.00195828
0.00183629
0.0849536
0.0420208
0.0246655
0.0166359
0.0123325
0.00972587
0.00799539
0.00676785
0.00585345
0.0051477
0.00458845
0.00413588
0.00376335
0.00345241
0.00318984
0.00296598
0.00277362
0.00260474
0.0933822
0.0510219
0.0316642
0.0219415
0.016474
0.0130717
0.0107779
0.00913552
0.00790571
0.0069534
0.0061969
0.00558368
0.00507838
0.00465633
0.00429977
0.00399562
0.00373416
0.00350821
0.0993794
0.0583363
0.0378386
0.0268568
0.0204171
0.0163053
0.0134892
0.011453
0.00991891
0.00872629
0.00777636
0.00700498
0.00636867
0.00583686
0.00538742
0.005004
0.00467454
0.00439129
0.104023
0.0645454
0.0433804
0.0314239
0.0241571
0.0194092
0.0161097
0.0137018
0.0118766
0.0104521
0.00931444
0.00838905
0.00762486
0.00698576
0.00644546
0.00598451
0.0055886
0.00524879
0.108368
0.0708939
0.0493756
0.0365496
0.0284517
0.0230231
0.0191863
0.0163547
0.0141926
0.0124968
0.011138
0.0100304
0.00911435
0.00834761
0.00769911
0.00714581
0.0066707
0.006263
0.112368
0.0772557
0.0557282
0.0421918
0.0332976
0.0271652
0.0227468
0.0194432
0.0168984
0.0148903
0.0132749
0.0119544
0.0108605
0.0099438
0.00916798
0.00850587
0.00793738
0.00744917
0.115994
0.0834975
0.0623053
0.0482611
0.0386474
0.0318167
0.026789
0.0229739
0.0200046
0.0176452
0.0157379
0.0141736
0.0128749
0.011785
0.0108618
0.0100736
0.00939672
0.00881466
0.119234
0.0894856
0.0689377
0.0546109
0.0443919
0.0369007
0.0312597
0.0269088
0.0234836
0.02074
0.0185096
0.0166735
0.0151449
0.01386
0.0127704
0.0118396
0.0110397
0.0103508
0.122086
0.095084
0.075415
0.0610223
0.0503361
0.0422534
0.0360231
0.0311353
0.0272402
0.024093
0.021519
0.0193909
0.017614
0.0161174
0.0148466
0.0137601
0.0128257
0.0120196
0.124546
0.100135
0.0814619
0.0671725
0.056158
0.047577
0.0408126
0.0354174
0.031066
0.0275196
0.0246012
0.0221777
0.0201481
0.0184349
0.0169782
0.0157314
0.0146583
0.0137312
0.126578
0.104396
0.0866605
0.0725515
0.0613228
0.0523526
0.0451453
0.0393148
0.0345631
0.0306611
0.0274325
0.0247409
0.0224806
0.020569
0.0189413
0.0175468
0.0163454
0.0153061
0.128011
0.107322
0.0902141
0.0762353
0.0648743
0.0556509
0.0481493
0.0420254
0.0370012
0.0328553
0.0294126
0.0265352
0.0241143
0.0220643
0.0203172
0.0188191
0.0175275
0.0164083
0.128006
0.107313
0.0902048
0.0762269
0.0648674
0.0556454
0.048145
0.0420222
0.0369988
0.0328537
0.0294117
0.0265349
0.0241147
0.0220652
0.0203185
0.0188206
0.0175287
0.0164083
0.126509
0.104255
0.0864922
0.0723807
0.0611613
0.052205
0.0450128
0.0391967
0.0344584
0.0305686
0.0273506
0.0246684
0.0224163
0.0205118
0.0188903
0.0175006
0.0163024
0.0152631
0.124267
0.0995604
0.0807712
0.0664676
0.0554886
0.0469631
0.0402594
0.0349228
0.0306248
0.0271258
0.0242488
0.0218611
0.0198626
0.0181762
0.0167426
0.0155152
0.0144575
0.0135405
0.12136
0.0936399
0.0737261
0.0593348
0.0487592
0.0408249
0.0347467
0.0300003
0.0262308
0.0231928
0.0207127
0.018665
0.0169572
0.0155198
0.0142999
0.0132567
0.0123583
0.0115798
0.117686
0.0865903
0.0656967
0.0514791
0.0415374
0.0343608
0.0290184
0.0249322
0.0217348
0.0191848
0.0171184
0.0154211
0.0140106
0.0128263
0.0118229
0.0109656
0.010228
0.00958894
0.11305
0.0784122
0.056921
0.0432687
0.0342296
0.0279652
0.0234365
0.0200435
0.0174263
0.0153597
0.0136966
0.0123369
0.0112106
0.010267
0.00946865
0.00878719
0.00820101
0.00769346
0.107169
0.0691009
0.0476372
0.035029
0.0271566
0.021922
0.0182437
0.0155401
0.0134817
0.0118706
0.0105815
0.00953197
0.00866486
0.00793966
0.00732667
0.00680379
0.00635412
0.00596493
0.0996761
0.0587036
0.0381279
0.0270699
0.0205782
0.0164329
0.0135949
0.0115438
0.00999922
0.00879908
0.0078434
0.00706755
0.00642788
0.0058936
0.00544221
0.00505741
0.00472642
0.00444007
0.0901097
0.0473665
0.0287363
0.0196847
0.0146976
0.0116312
0.00957853
0.00811528
0.00702331
0.00617994
0.00551056
0.00496794
0.00452108
0.00414826
0.003833
0.00356473
0.00333369
0.00313374
0.0779076
0.0353826
0.0198606
0.0131383
0.00966107
0.00759298
0.00623352
0.00527429
0.00456399
0.00401883
0.00358696
0.00323614
0.00294703
0.00270631
0.00250143
0.00232839
0.00217887
0.00204866
0.06238
0.0232554
0.0119461
0.00765493
0.00556337
0.00435256
0.00356724
0.00301639
0.00261307
0.00230794
0.00206655
0.00186724
0.00170189
0.00156504
0.0014455
0.00134646
0.00126127
0.00118411
0.0426105
0.0117794
0.0054693
0.00341385
0.00246071
0.00192005
0.00157275
0.00132885
0.00115942
0.00103848
0.000944011
0.000857677
0.000784366
0.000722052
0.00066595
0.000612584
0.00057891
0.000542548
0.0168348
0.00255985
0.00110002
0.000683428
0.000493724
0.000386804
0.000318219
0.000266309
0.000272607
0.000321976
0.000354625
0.000336927
0.000303278
0.000261405
0.000244018
0.000192657
0.000237632
0.000225029
3.99295e-09
5.91092e-07
2.00063e-06
6.28862e-06
1.08016e-05
1.35308e-05
1.32563e-05
1.17919e-05
9.06417e-06
5.94833e-06
3.52436e-06
2.02524e-06
1.41003e-06
1.50299e-06
2.06697e-06
2.56601e-06
2.4545e-06
2.06915e-06
2.54215e-06
8.67508e-06
9.02434e-06
5.55283e-06
6.74753e-06
2.64947e-05
5.67451e-05
7.44168e-05
9.09719e-05
0.00010482
0.000117041
0.000127202
0.000136106
0.000143753
0.000150444
0.000156271
0.000161353
0.000165839
0.000169814
0.000173364
0.000176546
0.000179405
0.00018197
0.000184263
0.000186303
0.000188107
0.000189687
0.000191058
0.00019223
0.00019321
0.000193999
0.000194471
0.000194969
0.000195078
0.000195139
0.000195014
0.000194716
0.00019427
0.000193671
0.000192924
0.000192031
0.000190992
0.000189811
0.00018849
0.00018703
0.000185434
0.000183706
0.000181846
0.000179857
0.000177739
0.000175497
0.000173133
0.000170648
0.000168044
0.000165324
0.000162489
0.00015954
0.000156478
0.000153303
0.000150015
0.000146613
0.000143095
0.000139459
0.0001357
0.000131816
0.000127799
0.000123643
0.000119339
0.000114874
0.000110234
0.0001054
0.000100346
9.50448e-05
8.94694e-05
8.36131e-05
7.75424e-05
7.15319e-05
6.62498e-05
6.24906e-05
6.01488e-05
5.83962e-05
5.67904e-05
5.52142e-05
5.36458e-05
5.20837e-05
5.05294e-05
4.89848e-05
4.74519e-05
4.59334e-05
4.44355e-05
4.29863e-05
4.17493e-05
4.05453e-05
3.93555e-05
3.8183e-05
3.70284e-05
3.58926e-05
3.47763e-05
3.36804e-05
3.26056e-05
3.15525e-05
3.05215e-05
2.9513e-05
2.85275e-05
2.75655e-05
2.66275e-05
2.57136e-05
2.48236e-05
2.39587e-05
2.31465e-05
2.24123e-05
2.16967e-05
2.09961e-05
2.03187e-05
1.96695e-05
1.90345e-05
1.84135e-05
1.78096e-05
1.72237e-05
1.6656e-05
1.61064e-05
1.55744e-05
1.50596e-05
1.45617e-05
1.40801e-05
1.36145e-05
1.31645e-05
1.27296e-05
1.23095e-05
1.19037e-05
1.1512e-05
1.11338e-05
1.07689e-05
1.04169e-05
1.00775e-05
9.75025e-06
9.43496e-06
9.13131e-06
8.83902e-06
8.55784e-06
8.28755e-06
8.02793e-06
7.7788e-06
7.53997e-06
7.31128e-06
7.09254e-06
6.88354e-06
6.68404e-06
6.49371e-06
6.31211e-06
6.13872e-06
5.97276e-06
5.81346e-06
5.6592e-06
5.50957e-06
5.35959e-06
5.21385e-06
5.04782e-06
4.89386e-06
4.6475e-06
4.48933e-06
3.59426e-06
1.68141e-07
6.14151e-06
6.38778e-05
0.000139679
0.000183234
0.000207
0.000216375
0.000214884
0.00020654
0.000189839
0.000169048
0.000148913
0.000138498
0.00014371
0.000157678
0.000166601
0.000169019
0.000170202
0.000175603
0.000185304
0.000200057
0.000217496
0.000234329
0.000250835
0.000262135
0.000272039
0.000280855
0.000293699
0.000312796
0.000326743
0.000339486
0.000350411
0.00036034
0.000369439
0.00037734
0.000384553
0.000391267
0.000397709
0.000404009
0.000410232
0.000416375
0.000422393
0.000428235
0.000433859
0.000439239
0.000444356
0.000449196
0.000453746
0.000458008
0.000461982
0.000465707
0.000469149
0.000472346
0.000475288
0.000477979
0.000480421
0.000482614
0.000484559
0.000486257
0.000487708
0.000488912
0.000489871
0.000490587
0.000491063
0.000491312
0.000491337
0.000491133
0.000490696
0.000490043
0.000489177
0.000488105
0.000486834
0.000485368
0.000483717
0.000481886
0.000479883
0.000477715
0.00047539
0.000472915
0.000470298
0.000467546
0.000464669
0.000461672
0.000458565
0.000455355
0.000452052
0.000448662
0.000445196
0.00044166
0.000438062
0.00043441
0.000430708
0.000426956
0.000423146
0.000419259
0.00041527
0.000411161
0.000406961
0.00040272
0.000398463
0.000394199
0.000389929
0.000385659
0.000381392
0.000377131
0.000372879
0.000368639
0.000364414
0.000360204
0.000356005
0.000351829
0.000347681
0.000343562
0.000339475
0.00033542
0.000331399
0.000327415
0.000323469
0.000319561
0.000315694
0.000311867
0.000308082
0.00030434
0.000300642
0.000296989
0.000293381
0.000289817
0.000286296
0.000282816
0.000279382
0.000275991
0.000272652
0.000269365
0.000266115
0.000262901
0.000259728
0.000256599
0.000253514
0.000250475
0.000247481
0.000244531
0.000241624
0.00023876
0.000235939
0.000233159
0.000230421
0.000227723
0.000225066
0.000222448
0.000219869
0.00021733
0.00021483
0.000212368
0.000209945
0.00020756
0.000205214
0.000202908
0.000200641
0.000198415
0.000196231
0.000194091
0.000191995
0.000189945
0.000187944
0.000185992
0.000184093
0.000182246
0.000180452
0.00017871
0.000177019
0.000175373
0.000173774
0.000172196
0.000170682
0.000169071
0.000167749
0.000165617
0.000164901
0.000162095
0.000160721
7.68513e-07
4.45373e-05
0.000164281
0.000246517
0.000299852
0.000330176
0.000341216
0.00033835
0.00032552
0.000306247
0.000286472
0.000273748
0.000271486
0.000278164
0.000288519
0.000299348
0.00031211
0.000329062
0.000350661
0.000375822
0.000403212
0.000431568
0.000469776
0.000516164
0.000561819
0.000605976
0.000649079
0.000692752
0.000732094
0.000763386
0.000788395
0.000808221
0.000823937
0.000836406
0.000846411
0.000854727
0.000862057
0.000869044
0.000876224
0.000883956
0.000892344
0.000901268
0.000910486
0.000919762
0.00092892
0.000937839
0.000946443
0.000954685
0.000962527
0.000969942
0.000976908
0.000983394
0.000989398
0.000994913
0.000999938
0.00100447
0.00100851
0.00101206
0.00101512
0.00101768
0.00101975
0.00102132
0.00102241
0.00102295
0.00102311
0.00102282
0.00102203
0.00102079
0.0010191
0.00101698
0.00101445
0.0010115
0.00100817
0.00100445
0.00100037
0.00099594
0.000991174
0.000986087
0.000980693
0.000975009
0.00096905
0.000962829
0.000956364
0.000949668
0.000942757
0.000935646
0.000928349
0.000920881
0.000913256
0.000905486
0.000897584
0.000889561
0.000881426
0.000873187
0.000864853
0.000856433
0.00084794
0.000839389
0.000830797
0.000822177
0.00081354
0.000804895
0.00079625
0.000787612
0.000778989
0.000770387
0.000761814
0.000753274
0.000744774
0.000736319
0.000727915
0.000719567
0.00071128
0.000703058
0.000694904
0.000686821
0.000678814
0.000670885
0.000663036
0.00065527
0.000647588
0.000639993
0.000632487
0.000625071
0.000617746
0.000610514
0.000603373
0.000596326
0.000589373
0.000582513
0.000575748
0.000569079
0.000562502
0.000556013
0.000549611
0.000543297
0.000537074
0.000530943
0.000524903
0.000518954
0.000513095
0.000507325
0.000501643
0.000496048
0.000490539
0.000485115
0.000479774
0.000474516
0.000469339
0.000464243
0.000459225
0.000454285
0.000449423
0.000444636
0.000439923
0.000435285
0.000430718
0.000426224
0.000421799
0.000417443
0.000413154
0.000408931
0.000404773
0.000400676
0.000396638
0.000392656
0.000388726
0.000384843
0.000380999
0.000377187
0.000373394
0.000369605
0.000365797
0.00036195
0.000357991
0.00035395
0.000349468
0.000345075
0.000338585
0.000327127
5.06981e-07
8.12841e-05
0.000212964
0.000309198
0.000372983
0.000410398
0.000425975
0.000426367
0.000416358
0.000402954
0.000394796
0.000393958
0.000403182
0.000420391
0.000443145
0.000470899
0.000504251
0.00054356
0.000588017
0.000650243
0.000724105
0.000803895
0.00088816
0.000958823
0.00102126
0.00107738
0.0011278
0.0011727
0.00121197
0.00124585
0.0012751
0.00130043
0.00132255
0.00134209
0.00135963
0.00137565
0.00139058
0.00140474
0.0014184
0.00143176
0.00144492
0.00145797
0.00147093
0.00148379
0.00149648
0.00150894
0.00152108
0.00153278
0.00154397
0.00155457
0.00156452
0.0015738
0.00158237
0.00159023
0.00159737
0.00160378
0.00160945
0.00161439
0.00161859
0.00162205
0.00162478
0.00162675
0.00162791
0.00162835
0.00162822
0.00162731
0.00162569
0.00162337
0.00162037
0.00161671
0.00161241
0.0016075
0.00160198
0.00159588
0.00158922
0.00158202
0.00157432
0.00156612
0.00155746
0.00154835
0.00153882
0.00152889
0.00151859
0.00150794
0.00149695
0.00148566
0.00147409
0.00146225
0.00145017
0.00143787
0.00142538
0.00141269
0.00139984
0.00138685
0.00137371
0.00136046
0.00134711
0.00133368
0.00132019
0.00130666
0.0012931
0.00127953
0.00126595
0.00125239
0.00123886
0.00122536
0.0012119
0.0011985
0.00118516
0.00117189
0.0011587
0.0011456
0.00113259
0.00111969
0.00110689
0.0010942
0.00108163
0.00106918
0.00105685
0.00104466
0.00103259
0.00102066
0.00100887
0.000997213
0.0009857
0.00097433
0.000963104
0.000952021
0.000941084
0.000930294
0.00091965
0.000909151
0.000898796
0.00088858
0.000878503
0.000868565
0.000858768
0.000849111
0.000839596
0.00083022
0.000820984
0.000811885
0.000802922
0.000794094
0.000785398
0.000776834
0.000768399
0.000760091
0.00075191
0.000743852
0.000735916
0.000728101
0.000720404
0.000712824
0.000705359
0.000698007
0.000690766
0.000683634
0.000676609
0.00066969
0.000662873
0.000656156
0.000649536
0.000643009
0.000636572
0.000630219
0.000623945
0.000617741
0.000611599
0.000605506
0.000599445
0.000593395
0.000587327
0.000581204
0.000574961
0.000568542
0.000561765
0.000554573
0.000546332
0.000530142
1.49321e-06
0.000102053
0.000235116
0.000355052
0.000433969
0.00048148
0.00050512
0.000513591
0.000515166
0.000516152
0.00052303
0.000539189
0.000565243
0.000600226
0.00064335
0.000694631
0.000754712
0.000838128
0.000933797
0.00103002
0.00111903
0.00120342
0.00128277
0.00135547
0.00142224
0.00148365
0.00154012
0.00159197
0.00163957
0.00168334
0.00172377
0.00176134
0.00179647
0.00182955
0.00186089
0.00189073
0.00191928
0.00194666
0.00197299
0.00199832
0.00202268
0.00204608
0.00206853
0.00209
0.00211046
0.00212989
0.00214826
0.00216554
0.0021817
0.00219672
0.00221059
0.00222332
0.00223491
0.00224538
0.00225475
0.00226304
0.00227025
0.00227642
0.00228155
0.00228565
0.00228875
0.0022908
0.00229171
0.0022918
0.00229092
0.00228905
0.00228622
0.00228245
0.00227776
0.00227218
0.00226573
0.00225845
0.00225035
0.00224147
0.00223184
0.00222149
0.00221045
0.00219874
0.00218641
0.00217348
0.00215999
0.00214596
0.00213142
0.00211641
0.00210096
0.0020851
0.00206885
0.00205226
0.00203534
0.00201812
0.00200064
0.00198291
0.00196497
0.00194683
0.00192853
0.00191007
0.00189149
0.00187281
0.00185406
0.00183525
0.0018164
0.00179754
0.00177868
0.00175985
0.00174105
0.0017223
0.00170361
0.001685
0.00166647
0.00164805
0.00162974
0.00161155
0.00159349
0.00157558
0.0015578
0.00154018
0.00152273
0.00150543
0.00148831
0.00147137
0.00145461
0.00143803
0.00142164
0.00140544
0.00138943
0.00137362
0.00135801
0.00134259
0.00132737
0.00131236
0.00129754
0.00128292
0.00126849
0.00125426
0.00124022
0.00122638
0.00121272
0.00119926
0.00118599
0.00117291
0.00116002
0.00114732
0.0011348
0.00112247
0.00111031
0.00109834
0.00108654
0.00107491
0.00106346
0.00105217
0.00104105
0.00103009
0.0010193
0.00100866
0.000998176
0.000987847
0.000977668
0.000967636
0.000957749
0.000948004
0.000938397
0.000928925
0.000919585
0.000910371
0.000901278
0.000892301
0.000883432
0.000874661
0.000865977
0.000857365
0.000848806
0.000840276
0.00083174
0.000823154
0.000814451
0.00080556
0.000796317
0.000786573
0.000776605
0.000756785
2.27136e-06
0.000118197
0.000256361
0.000390142
0.000487232
0.000549152
0.000587017
0.000610482
0.00062824
0.000647563
0.000673704
0.000709313
0.000755127
0.000811419
0.000878591
0.000969091
0.00107422
0.00117594
0.00127516
0.00137067
0.00146137
0.00154737
0.00162861
0.00170507
0.00177704
0.00184486
0.00190887
0.00196942
0.00202684
0.00208145
0.00213357
0.0021835
0.00223148
0.00227773
0.00232239
0.00236561
0.00240746
0.00244799
0.00248725
0.00252524
0.00256195
0.00259736
0.00263146
0.00266419
0.00269553
0.00272544
0.00275386
0.00278077
0.00280613
0.0028299
0.00285205
0.00287257
0.00289144
0.00290865
0.00292418
0.00293805
0.00295025
0.00296079
0.00296968
0.00297695
0.0029826
0.00298668
0.00298911
0.00299001
0.00298955
0.00298758
0.00298424
0.00297954
0.00297353
0.00296628
0.00295783
0.00294824
0.00293756
0.00292583
0.00291311
0.00289945
0.00288489
0.00286947
0.00285325
0.00283626
0.00281855
0.00280016
0.00278112
0.00276149
0.0027413
0.0027206
0.00269941
0.00267778
0.00265575
0.00263335
0.00261062
0.00258759
0.0025643
0.00254077
0.00251703
0.00249312
0.00246907
0.0024449
0.00242064
0.00239631
0.00237195
0.00234758
0.00232321
0.00229888
0.0022746
0.00225038
0.00222625
0.00220222
0.0021783
0.00215452
0.00213088
0.0021074
0.00208409
0.00206095
0.00203801
0.00201526
0.00199272
0.00197039
0.00194828
0.0019264
0.00190475
0.00188333
0.00186215
0.00184122
0.00182053
0.00180009
0.0017799
0.00175996
0.00174027
0.00172084
0.00170165
0.00168272
0.00166404
0.00164561
0.00162742
0.00160948
0.00159178
0.00157433
0.00155712
0.00154014
0.00152341
0.00150691
0.00149065
0.00147462
0.00145882
0.00144324
0.00142788
0.00141274
0.00139782
0.00138311
0.00136861
0.00135431
0.00134022
0.00132632
0.00131263
0.00129912
0.0012858
0.00127267
0.00125972
0.00124695
0.00123435
0.00122192
0.00120966
0.00119756
0.00118561
0.00117381
0.00116215
0.00115061
0.0011392
0.00112788
0.00111664
0.00110545
0.00109427
0.00108307
0.00107176
0.00106029
0.00104847
0.00103625
0.00102407
0.00100159
2.80516e-06
0.000126815
0.000269271
0.000407715
0.00052649
0.000608026
0.000664232
0.00070624
0.000743297
0.000782667
0.000829406
0.000886466
0.000955469
0.00104779
0.00115479
0.0012614
0.00136751
0.00147087
0.00157095
0.00166731
0.0017597
0.00184814
0.00193271
0.00201357
0.00209096
0.00216515
0.00223643
0.00230506
0.0023713
0.00243537
0.0024975
0.00255786
0.00261659
0.00267382
0.00272963
0.00278407
0.00283719
0.00288899
0.00293947
0.0029886
0.00303637
0.00308273
0.00312764
0.00317105
0.00321291
0.00325316
0.00329175
0.00332864
0.00336376
0.00339708
0.00342854
0.00345812
0.00348578
0.00351148
0.0035352
0.00355692
0.00357663
0.00359432
0.00360997
0.00362359
0.00363519
0.00364478
0.00365235
0.00365797
0.00366162
0.00366324
0.00366316
0.00366117
0.0036574
0.00365188
0.00364467
0.00363583
0.00362542
0.00361349
0.00360011
0.00358534
0.00356925
0.00355191
0.00353338
0.00351373
0.00349303
0.00347134
0.00344874
0.00342528
0.00340103
0.00337606
0.00335041
0.00332416
0.00329735
0.00327005
0.0032423
0.00321414
0.00318564
0.00315682
0.00312774
0.00309843
0.00306893
0.00303928
0.00300952
0.00297967
0.00294977
0.00291985
0.00288994
0.00286005
0.00283023
0.00280049
0.00277085
0.00274133
0.00271195
0.00268273
0.00265368
0.00262483
0.00259618
0.00256774
0.00253953
0.00251157
0.00248385
0.00245639
0.00242919
0.00240227
0.00237562
0.00234927
0.00232319
0.00229742
0.00227194
0.00224675
0.00222187
0.0021973
0.00217302
0.00214905
0.00212539
0.00210203
0.00207896
0.0020562
0.00203374
0.00201157
0.00198969
0.00196811
0.00194682
0.00192582
0.0019051
0.00188467
0.00186452
0.00184465
0.00182505
0.00180572
0.00178666
0.00176786
0.00174932
0.00173103
0.001713
0.00169521
0.00167766
0.00166036
0.00164329
0.00162645
0.00160984
0.00159345
0.00157728
0.00156132
0.00154558
0.00153004
0.0015147
0.00149956
0.0014846
0.00146983
0.00145522
0.00144078
0.00142648
0.00141231
0.00139825
0.00138426
0.00137032
0.00135637
0.00134234
0.00132817
0.0013137
0.00129894
0.00128393
0.00125968
2.94204e-06
0.000128729
0.00027066
0.000407296
0.000538095
0.000641763
0.000719027
0.000780479
0.000836281
0.000894135
0.000961734
0.00105369
0.00116332
0.00128506
0.00140064
0.00151191
0.00161974
0.00172432
0.00182558
0.00192345
0.00201795
0.00210915
0.00219721
0.00228231
0.00236466
0.00244449
0.00252203
0.00259749
0.00267105
0.00274289
0.00281316
0.00288196
0.00294939
0.00301552
0.00308038
0.00314399
0.00320636
0.00326748
0.0033273
0.0033858
0.00344292
0.00349861
0.00355281
0.00360546
0.0036565
0.00370585
0.00375345
0.00379924
0.00384316
0.00388515
0.00392516
0.00396313
0.00399901
0.00403277
0.00406436
0.00409376
0.00412094
0.00414587
0.00416854
0.00418894
0.00420707
0.00422292
0.0042365
0.00424783
0.00425692
0.00426379
0.00426851
0.00427097
0.0042714
0.00426976
0.00426609
0.00426045
0.00425288
0.00424346
0.00423222
0.00421925
0.00420461
0.00418835
0.00417055
0.00415129
0.00413062
0.00410863
0.00408539
0.00406096
0.00403542
0.00400884
0.0039813
0.00395286
0.00392359
0.00389356
0.00386283
0.00383147
0.00379954
0.00376709
0.0037342
0.0037009
0.00366726
0.00363332
0.00359914
0.00356477
0.00353024
0.00349561
0.0034609
0.00342616
0.00339143
0.00335673
0.0033221
0.00328756
0.00325315
0.00321888
0.00318477
0.00315086
0.00311715
0.00308367
0.00305044
0.00301746
0.00298475
0.00295232
0.00292018
0.00288835
0.00285683
0.00282563
0.00279475
0.0027642
0.00273399
0.00270412
0.00267459
0.00264541
0.00261657
0.00258808
0.00255994
0.00253214
0.0025047
0.00247759
0.00245083
0.00242441
0.00239833
0.00237259
0.00234718
0.0023221
0.00229736
0.00227295
0.00224886
0.00222509
0.00220163
0.00217849
0.00215566
0.00213313
0.00211091
0.00208898
0.00206734
0.00204599
0.00202492
0.00200413
0.00198361
0.00196337
0.00194339
0.00192367
0.0019042
0.00188499
0.00186603
0.0018473
0.00182882
0.00181056
0.00179252
0.0017747
0.00175708
0.00173966
0.00172241
0.00170532
0.00168837
0.00167152
0.00165474
0.00163798
0.00162117
0.00160424
0.00158704
0.00156964
0.0015517
0.00152556
2.759e-06
0.000125263
0.000264035
0.000395758
0.000520528
0.00063306
0.000727047
0.00080825
0.000891307
0.000986649
0.00109589
0.00122059
0.00135699
0.00148452
0.00160482
0.00171985
0.00183056
0.00193734
0.00204049
0.00214037
0.00223719
0.00233117
0.00242248
0.00251135
0.00259797
0.00268255
0.00276527
0.00284632
0.00292585
0.00300398
0.00308081
0.00315644
0.00323092
0.00330427
0.00337652
0.00344766
0.00351765
0.00358648
0.00365408
0.00372041
0.0037854
0.00384897
0.00391105
0.00397157
0.00403045
0.00408761
0.00414298
0.00419647
0.00424801
0.00429755
0.004345
0.00439032
0.00443344
0.00447431
0.00451289
0.00454914
0.00458302
0.0046145
0.00464356
0.00467019
0.00469437
0.0047161
0.00473537
0.00475221
0.00476661
0.0047786
0.00478821
0.00479544
0.00480037
0.00480294
0.00480333
0.00480152
0.00479755
0.00479149
0.00478339
0.00477331
0.00476131
0.00474746
0.00473182
0.00471446
0.00469545
0.00467487
0.00465278
0.00462925
0.00460437
0.0045782
0.00455081
0.00452229
0.00449269
0.0044621
0.00443057
0.00439819
0.00436501
0.00433111
0.00429654
0.00426137
0.00422566
0.00418947
0.00415286
0.00411589
0.00407861
0.00404106
0.0040033
0.00396538
0.00392734
0.00388922
0.00385106
0.00381289
0.00377476
0.0037367
0.00369873
0.00366089
0.0036232
0.00358568
0.00354837
0.00351127
0.00347442
0.00343782
0.00340149
0.00336546
0.00332973
0.00329431
0.00325921
0.00322445
0.00319003
0.00315595
0.00312224
0.00308888
0.00305588
0.00302325
0.002991
0.00295911
0.00292759
0.00289645
0.00286567
0.00283527
0.00280523
0.00277557
0.00274627
0.00271733
0.00268876
0.00266055
0.00263269
0.00260519
0.00257805
0.00255124
0.00252479
0.00249867
0.00247288
0.00244743
0.0024223
0.0023975
0.00237301
0.00234883
0.00232497
0.00230141
0.00227815
0.00225518
0.0022325
0.00221011
0.002188
0.00216616
0.0021446
0.00212329
0.00210224
0.00208144
0.00206087
0.00204052
0.00202038
0.00200043
0.00198063
0.00196098
0.00194141
0.00192188
0.00190233
0.00188267
0.00186279
0.00184272
0.00182198
0.00179365
2.34401e-06
0.000117983
0.000252839
0.000380961
0.000503931
0.000620464
0.000731354
0.000840463
0.00095539
0.00108129
0.00121941
0.00136918
0.0015115
0.00164349
0.00176776
0.00188619
0.00199991
0.00210956
0.00221553
0.00231801
0.00241742
0.00251413
0.00260844
0.0027006
0.00279084
0.00287936
0.00296636
0.00305197
0.00313635
0.00321959
0.00330178
0.00338298
0.00346322
0.00354252
0.00362086
0.00369823
0.00377458
0.00384985
0.003924
0.00399693
0.00406857
0.00413884
0.00420765
0.0042749
0.00434051
0.00440439
0.00446644
0.00452658
0.00458474
0.00464082
0.00469475
0.00474647
0.0047959
0.004843
0.00488771
0.00492998
0.00496976
0.00500704
0.00504177
0.00507395
0.00510354
0.00513055
0.00515497
0.00517681
0.00519607
0.00521278
0.00522695
0.0052386
0.00524778
0.0052545
0.00525882
0.00526076
0.00526042
0.00525781
0.00525299
0.00524603
0.00523698
0.0052259
0.00521286
0.00519793
0.00518116
0.00516265
0.00514244
0.00512062
0.00509727
0.00507244
0.00504622
0.00501867
0.00498988
0.0049599
0.00492882
0.00489669
0.0048636
0.0048296
0.00479477
0.00475917
0.00472286
0.00468591
0.00464837
0.00461032
0.0045718
0.00453287
0.00449359
0.004454
0.00441416
0.00437411
0.00433391
0.00429358
0.00425317
0.00421273
0.00417228
0.00413186
0.00409151
0.00405125
0.00401112
0.00397113
0.00393132
0.00389171
0.00385231
0.00381316
0.00377426
0.00373563
0.00369729
0.00365925
0.00362153
0.00358413
0.00354706
0.00351034
0.00347397
0.00343796
0.0034023
0.00336702
0.0033321
0.00329756
0.00326339
0.00322959
0.00319617
0.00316313
0.00313047
0.00309818
0.00306627
0.00303474
0.00300357
0.00297278
0.00294236
0.00291231
0.00288261
0.00285328
0.0028243
0.00279568
0.0027674
0.00273947
0.00271188
0.00268463
0.00265771
0.00263112
0.00260486
0.00257891
0.00255329
0.00252797
0.00250296
0.00247825
0.00245384
0.00242972
0.00240587
0.0023823
0.00235899
0.00233593
0.0023131
0.00229048
0.00226804
0.00224576
0.0022236
0.00220149
0.00217937
0.00215717
0.00213477
0.0021122
0.0020889
0.00205823
1.92657e-06
0.000110301
0.000242553
0.000369894
0.000495632
0.00062006
0.000744982
0.000874471
0.00101184
0.00115916
0.00131659
0.00147839
0.0016262
0.00176266
0.00189076
0.00201253
0.00212922
0.00224167
0.00235041
0.00245582
0.00255821
0.00265777
0.00275494
0.00285008
0.00294347
0.00303534
0.0031259
0.00321531
0.00330369
0.00339115
0.00347777
0.00356358
0.00364861
0.00373286
0.0038163
0.00389891
0.00398061
0.00406135
0.00414104
0.00421961
0.00429694
0.00437295
0.00444754
0.00452059
0.00459202
0.00466171
0.00472956
0.00479549
0.00485939
0.00492118
0.00498077
0.00503809
0.00509307
0.00514564
0.00519574
0.00524332
0.00528834
0.00533075
0.00537053
0.00540765
0.00544209
0.00547383
0.00550289
0.00552925
0.00555292
0.00557393
0.00559228
0.005608
0.00562112
0.00563168
0.00563971
0.00564525
0.00564837
0.00564909
0.00564749
0.00564361
0.00563752
0.00562928
0.00561894
0.00560657
0.00559225
0.00557604
0.00555801
0.00553823
0.00551677
0.00549371
0.00546912
0.00544307
0.00541564
0.00538689
0.00535689
0.00532572
0.00529344
0.00526013
0.00522584
0.00519065
0.00515462
0.00511781
0.00508029
0.00504212
0.00500336
0.00496407
0.0049243
0.0048841
0.00484354
0.00480265
0.00476149
0.00472009
0.00467852
0.0046368
0.00459498
0.0045531
0.00451118
0.00446928
0.00442741
0.00438561
0.00434391
0.00430234
0.00426091
0.00421966
0.00417861
0.00413777
0.00409716
0.0040568
0.00401672
0.00397691
0.0039374
0.0038982
0.00385931
0.00382075
0.00378252
0.00374464
0.0037071
0.00366992
0.0036331
0.00359663
0.00356053
0.0035248
0.00348944
0.00345445
0.00341983
0.00338559
0.00335171
0.00331821
0.00328508
0.00325231
0.00321992
0.00318789
0.00315622
0.00312492
0.00309397
0.00306338
0.00303314
0.00300325
0.00297371
0.0029445
0.00291564
0.00288711
0.00285892
0.00283105
0.00280351
0.00277628
0.00274937
0.00272276
0.00269645
0.00267044
0.0026447
0.00261923
0.00259402
0.00256903
0.00254425
0.00251964
0.00249516
0.00247076
0.00244637
0.00242192
0.0023973
0.0023725
0.00234699
0.00231418
1.54318e-06
0.00010216
0.000232062
0.000359039
0.000487701
0.000618965
0.000755492
0.0008992
0.00105182
0.00121388
0.0013859
0.00155187
0.00170367
0.00184398
0.0019756
0.00210048
0.00221998
0.00233503
0.00244631
0.00255429
0.00265936
0.00276184
0.00286199
0.00295999
0.00305628
0.00315114
0.00324481
0.00333747
0.00342927
0.00352032
0.00361069
0.00370042
0.00378952
0.00387798
0.00396578
0.00405285
0.00413914
0.00422457
0.00430904
0.00439245
0.00447469
0.00455567
0.00463525
0.00471334
0.00478981
0.00486456
0.00493747
0.00500844
0.00507736
0.00514415
0.00520871
0.00527096
0.00533081
0.00538821
0.00544308
0.00549536
0.00554502
0.00559201
0.00563628
0.00567783
0.00571661
0.00575263
0.00578587
0.00581633
0.00584403
0.00586896
0.00589116
0.00591064
0.00592743
0.00594157
0.00595309
0.00596202
0.00596843
0.00597236
0.00597385
0.00597298
0.00596981
0.00596438
0.00595676
0.00594701
0.00593521
0.00592141
0.00590568
0.00588811
0.00586876
0.0058477
0.00582501
0.00580075
0.005775
0.00574783
0.00571931
0.00568951
0.0056585
0.00562634
0.0055931
0.00555885
0.00552366
0.00548758
0.00545069
0.00541304
0.0053747
0.00533572
0.00529617
0.00525608
0.00521553
0.00517455
0.0051332
0.00509153
0.00504958
0.0050074
0.00496502
0.0049225
0.00487985
0.00483714
0.00479438
0.00475161
0.00470886
0.00466617
0.00462356
0.00458105
0.00453867
0.00449644
0.0044544
0.00441254
0.0043709
0.00432949
0.00428832
0.00424742
0.00420679
0.00416644