/*--------------------------------*- C++ -*----------------------------------*\
  =========                 |
  \\      /  F ield         | OpenFOAM: The Open Source CFD Toolbox
   \\    /   O peration     | Website:  https://openfoam.org
    \\  /    A nd           | Version:  8
     \\/     M anipulation  |
\*---------------------------------------------------------------------------*/
FoamFile
{
    version     2.0;
    format      ascii;
    class       volScalarField;
    location    "3300";
    object      nuTilda;
}
// * * * * * * * * * * * * * * * * * * * * * * * * * * * * * * * * * * * * * //

dimensions      [0 2 -1 0 0 0 0];

internalField   nonuniform List<scalar> 
12225
(
0.0122671
0.00158833
0.000666932
0.000412201
0.000298001
0.000234418
0.000192049
0.000186518
0.000141364
0.000110263
9.73201e-05
9.07192e-05
8.20034e-05
7.63423e-05
7.17077e-05
7.01737e-05
6.81337e-05
7.40042e-05
0.0323823
0.00744533
0.00330642
0.00204338
0.00146818
0.00114477
0.000936743
0.000800567
0.000680243
0.00057806
0.000507247
0.000453561
0.000411868
0.000380373
0.000352022
0.000329997
0.000313758
0.000295891
0.0490123
0.01515
0.00728196
0.00457856
0.00330642
0.00258059
0.00211241
0.00178924
0.00154196
0.00134781
0.00119795
0.00107898
0.000982392
0.000902877
0.000836443
0.000781453
0.000736169
0.000687903
0.063054
0.0237783
0.0122894
0.00788815
0.00573398
0.004485
0.00367415
0.00310736
0.00268476
0.00235811
0.00210119
0.00189468
0.00172543
0.00158465
0.0014663
0.00136624
0.00128169
0.00119816
0.074932
0.0328517
0.0181452
0.0119262
0.00874549
0.00686413
0.00563081
0.00476256
0.0041175
0.00362033
0.00322735
0.00290997
0.00264905
0.0024315
0.00224807
0.00209197
0.00195837
0.00183639
0.0849536
0.0420208
0.0246655
0.0166359
0.0123325
0.00972587
0.0079954
0.00676786
0.00585347
0.00514771
0.00458846
0.0041359
0.00376338
0.00345244
0.00318988
0.00296602
0.00277367
0.00260479
0.0933822
0.0510219
0.0316642
0.0219415
0.016474
0.0130717
0.0107779
0.00913552
0.00790571
0.00695341
0.00619691
0.00558369
0.00507839
0.00465635
0.00429979
0.00399565
0.00373419
0.00350824
0.0993794
0.0583363
0.0378386
0.0268568
0.0204171
0.0163053
0.0134892
0.011453
0.00991892
0.0087263
0.00777636
0.00700499
0.00636868
0.00583687
0.00538743
0.00500401
0.00467456
0.00439131
0.104023
0.0645454
0.0433804
0.0314239
0.0241571
0.0194092
0.0161097
0.0137018
0.0118766
0.0104521
0.00931444
0.00838905
0.00762487
0.00698576
0.00644547
0.00598452
0.00558862
0.00524881
0.108368
0.0708939
0.0493756
0.0365496
0.0284517
0.0230231
0.0191863
0.0163548
0.0141926
0.0124968
0.011138
0.0100304
0.00911435
0.00834761
0.00769912
0.00714581
0.00667071
0.00626301
0.112368
0.0772557
0.0557282
0.0421918
0.0332976
0.0271652
0.0227468
0.0194432
0.0168984
0.0148903
0.0132749
0.0119545
0.0108605
0.0099438
0.00916798
0.00850588
0.00793738
0.00744918
0.115994
0.0834975
0.0623053
0.0482611
0.0386474
0.0318167
0.026789
0.0229739
0.0200046
0.0176452
0.0157379
0.0141736
0.0128749
0.011785
0.0108618
0.0100736
0.00939673
0.00881466
0.119234
0.0894856
0.0689377
0.0546109
0.0443919
0.0369007
0.0312597
0.0269088
0.0234836
0.02074
0.0185097
0.0166735
0.0151449
0.01386
0.0127704
0.0118396
0.0110397
0.0103508
0.122086
0.095084
0.075415
0.0610223
0.0503361
0.0422534
0.0360231
0.0311353
0.0272402
0.024093
0.021519
0.0193909
0.017614
0.0161174
0.0148466
0.0137601
0.0128257
0.0120196
0.124546
0.100135
0.0814619
0.0671725
0.056158
0.047577
0.0408126
0.0354174
0.031066
0.0275196
0.0246012
0.0221777
0.0201481
0.0184349
0.0169782
0.0157314
0.0146583
0.0137312
0.126578
0.104396
0.0866605
0.0725515
0.0613228
0.0523526
0.0451453
0.0393148
0.0345631
0.0306611
0.0274325
0.0247409
0.0224806
0.020569
0.0189413
0.0175468
0.0163454
0.0153061
0.128011
0.107322
0.0902141
0.0762353
0.0648743
0.0556509
0.0481493
0.0420254
0.0370012
0.0328553
0.0294126
0.0265352
0.0241143
0.0220643
0.0203172
0.0188191
0.0175275
0.0164083
0.128006
0.107313
0.0902048
0.0762269
0.0648674
0.0556454
0.048145
0.0420222
0.0369988
0.0328537
0.0294117
0.0265349
0.0241147
0.0220652
0.0203185
0.0188206
0.0175287
0.0164083
0.126509
0.104255
0.0864922
0.0723807
0.0611613
0.052205
0.0450128
0.0391967
0.0344584
0.0305686
0.0273506
0.0246684
0.0224163
0.0205118
0.0188903
0.0175006
0.0163024
0.0152631
0.124267
0.0995604
0.0807712
0.0664676
0.0554886
0.0469631
0.0402594
0.0349228
0.0306248
0.0271258
0.0242488
0.0218611
0.0198626
0.0181762
0.0167426
0.0155152
0.0144575
0.0135405
0.12136
0.0936399
0.0737261
0.0593348
0.0487592
0.0408249
0.0347467
0.0300003
0.0262308
0.0231928
0.0207127
0.018665
0.0169572
0.0155198
0.0142999
0.0132567
0.0123583
0.0115798
0.117686
0.0865903
0.0656967
0.0514791
0.0415374
0.0343608
0.0290184
0.0249322
0.0217348
0.0191848
0.0171184
0.0154211
0.0140106
0.0128263
0.0118229
0.0109657
0.010228
0.00958894
0.11305
0.0784122
0.056921
0.0432687
0.0342296
0.0279652
0.0234365
0.0200435
0.0174263
0.0153597
0.0136966
0.0123369
0.0112106
0.010267
0.00946865
0.00878719
0.00820101
0.00769346
0.107169
0.0691009
0.0476372
0.035029
0.0271566
0.021922
0.0182437
0.0155401
0.0134817
0.0118706
0.0105816
0.00953197
0.00866486
0.00793966
0.00732668
0.0068038
0.00635413
0.00596494
0.0996761
0.0587036
0.0381279
0.0270699
0.0205782
0.0164329
0.0135949
0.0115438
0.00999922
0.00879908
0.00784341
0.00706756
0.00642789
0.00589361
0.00544222
0.00505743
0.00472643
0.00444009
0.0901097
0.0473665
0.0287363
0.0196847
0.0146976
0.0116312
0.00957853
0.00811528
0.00702332
0.00617995
0.00551057
0.00496796
0.00452109
0.00414828
0.00383302
0.00356476
0.00333372
0.00313378
0.0779076
0.0353826
0.0198606
0.0131383
0.00966107
0.00759298
0.00623353
0.00527431
0.00456401
0.00401885
0.00358699
0.00323617
0.00294707
0.00270636
0.00250149
0.00232846
0.00217894
0.00204875
0.06238
0.0232554
0.0119461
0.00765494
0.00556339
0.00435258
0.00356726
0.00301643
0.00261312
0.00230801
0.00206664
0.00186735
0.00170202
0.0015652
0.00144567
0.00134666
0.0012615
0.00118437
0.0426105
0.0117794
0.00546931
0.00341388
0.00246077
0.00192015
0.0015729
0.00132905
0.0011597
0.00103886
0.000944538
0.000858339
0.000785162
0.000723007
0.000666991
0.000613847
0.000580347
0.000544001
0.0168348
0.0025599
0.00110031
0.000684192
0.000495179
0.000389152
0.00032166
0.000270755
0.000280892
0.000338897
0.000385059
0.000372655
0.000346536
0.000309214
0.00029357
0.000235659
0.000300135
0.00028378
3.78125e-06
1.4322e-05
2.60289e-05
3.8537e-05
4.60103e-05
4.96615e-05
5.01539e-05
4.78132e-05
4.4623e-05
3.95546e-05
3.42203e-05
2.94492e-05
2.67713e-05
2.74483e-05
2.9632e-05
3.14819e-05
3.1339e-05
2.85154e-05
2.38745e-05
2.02112e-05
2.08224e-05
2.64209e-05
3.9339e-05
6.38927e-05
8.71967e-05
0.000100608
0.000113331
0.000124339
0.000134325
0.000142828
0.00015042
0.000157039
0.0001629
0.000168055
0.000172587
0.000176613
0.0001802
0.000183419
0.000186316
0.000188927
0.000191277
0.000193383
0.00019526
0.000196923
0.000198383
0.000199651
0.000200736
0.000201645
0.000202377
0.000202801
0.000203292
0.000203375
0.000203435
0.000203319
0.000203041
0.000202628
0.000202072
0.000201379
0.000200551
0.00019959
0.000198497
0.000197277
0.00019593
0.00019446
0.00019287
0.000191163
0.000189341
0.000187405
0.00018536
0.00018321
0.000180956
0.000178602
0.000176152
0.000173607
0.00017097
0.000168244
0.000165431
0.000162532
0.000159548
0.00015648
0.000153326
0.000150088
0.000146763
0.000143349
0.000139845
0.000136245
0.000132544
0.000128736
0.000124809
0.000120749
0.000116539
0.000112164
0.000107622
0.000102966
9.84019e-05
9.44193e-05
9.15955e-05
8.98388e-05
8.85244e-05
8.73196e-05
8.61363e-05
8.49575e-05
8.37816e-05
8.26093e-05
8.14413e-05
8.02787e-05
7.91228e-05
7.79777e-05
7.68647e-05
7.591e-05
7.49761e-05
7.40482e-05
7.31283e-05
7.22167e-05
7.13136e-05
7.04196e-05
6.95349e-05
6.86599e-05
6.77949e-05
6.694e-05
6.60954e-05
6.52614e-05
6.44383e-05
6.36265e-05
6.2826e-05
6.20366e-05
6.12594e-05
6.052e-05
5.98428e-05
5.91742e-05
5.85109e-05
5.78608e-05
5.72289e-05
5.66023e-05
5.59803e-05
5.53665e-05
5.47617e-05
5.41665e-05
5.35811e-05
5.30052e-05
5.24388e-05
5.18817e-05
5.13338e-05
5.0795e-05
5.0265e-05
4.97439e-05
4.92315e-05
4.87277e-05
4.82324e-05
4.77455e-05
4.72671e-05
4.67969e-05
4.6335e-05
4.58814e-05
4.5436e-05
4.49989e-05
4.45701e-05
4.41498e-05
4.3738e-05
4.3335e-05
4.29409e-05
4.25559e-05
4.21803e-05
4.18143e-05
4.14581e-05
4.11119e-05
4.07756e-05
4.0449e-05
4.01316e-05
3.98228e-05
3.95205e-05
3.92249e-05
3.89272e-05
3.86406e-05
3.83117e-05
3.8056e-05
3.75483e-05
3.73535e-05
3.63028e-05
3.49086e-05
5.89779e-06
4.05872e-05
9.24625e-05
0.000153701
0.000192546
0.00021455
0.000223343
0.000221917
0.000214074
0.000198518
0.000179503
0.00016155
0.00015248
0.000157004
0.000169317
0.000177333
0.00017953
0.000180672
0.000185625
0.000194333
0.000208068
0.000224503
0.000240367
0.000256179
0.000267059
0.000276638
0.000285188
0.000297684
0.000316333
0.000329997
0.00034251
0.000353256
0.000363036
0.000372007
0.000379805
0.000386929
0.000393565
0.000399934
0.000406167
0.000412327
0.000418409
0.000424371
0.000430161
0.000435736
0.000441071
0.000446146
0.000450949
0.000455465
0.000459696
0.000463641
0.00046734
0.000470758
0.000473934
0.000476857
0.00047953
0.000481957
0.000484136
0.000486069
0.000487757
0.000489199
0.000490396
0.000491349
0.00049206
0.000492534
0.000492781
0.000492806
0.000492603
0.000492169
0.00049152
0.00049066
0.000489594
0.00048833
0.000486874
0.000485232
0.000483413
0.000481422
0.000479268
0.000476958
0.000474499
0.0004719
0.000469167
0.000466309
0.000463333
0.000460248
0.000457062
0.000453783
0.00045042
0.00044698
0.000443472
0.000439904
0.000436283
0.000432612
0.000428893
0.000425117
0.000421267
0.000417315
0.000413246
0.000409088
0.000404892
0.00040068
0.000396463
0.000392242
0.000388022
0.000383806
0.000379598
0.000375401
0.000371218
0.000367051
0.000362901
0.000358764
0.000354652
0.000350569
0.000346518
0.000342499
0.000338515
0.000334567
0.000330657
0.000326786
0.000322957
0.000319169
0.000315424
0.000311722
0.000308065
0.000304455
0.000300891
0.000297374
0.000293902
0.000290476
0.000287094
0.000283759
0.000280469
0.000277232
0.000274049
0.000270906
0.0002678
0.000264738
0.000261721
0.000258752
0.000255829
0.000252954
0.000250124
0.000247339
0.0002446
0.000241904
0.000239253
0.000236644
0.000234078
0.000231554
0.000229071
0.00022663
0.00022423
0.00022187
0.00021955
0.000217271
0.000215032
0.000212833
0.000210675
0.000208558
0.000206482
0.00020445
0.000202461
0.000200518
0.000198621
0.000196773
0.000194974
0.000193226
0.000191529
0.000189885
0.000188291
0.000186747
0.000185247
0.000183793
0.000182357
0.000180993
0.00017951
0.000178386
0.000176291
0.000175968
0.000172989
0.000172127
1.28761e-05
7.40634e-05
0.000174298
0.000251867
0.000303649
0.000333357
0.000344209
0.000341392
0.000328797
0.000309928
0.000290648
0.000278294
0.000276102
0.000282575
0.000292639
0.000303191
0.000315659
0.000332273
0.000353505
0.000378304
0.000405378
0.000433467
0.000471381
0.000517497
0.000562946
0.000606946
0.000649925
0.000693496
0.00073276
0.000763998
0.00078897
0.000808768
0.000824463
0.000836916
0.000846909
0.000855216
0.000862538
0.000869517
0.00087669
0.000884413
0.000892793
0.000901707
0.000910917
0.000920185
0.000929334
0.000938245
0.000946842
0.000955077
0.000962913
0.000970322
0.000977282
0.000983763
0.000989763
0.000995275
0.0010003
0.00100483
0.00100886
0.00101241
0.00101546
0.00101802
0.00102009
0.00102167
0.00102275
0.00102329
0.00102345
0.00102317
0.00102238
0.00102113
0.00101945
0.00101733
0.00101479
0.00101185
0.00100852
0.00100481
0.00100073
0.000996301
0.000991538
0.000986454
0.000981065
0.000975385
0.00096943
0.000963215
0.000956754
0.000950064
0.000943159
0.000936054
0.000928764
0.000921303
0.000913684
0.000905922
0.000898028
0.000890012
0.000881886
0.000873656
0.000865331
0.00085692
0.000848437
0.000839896
0.000831315
0.000822706
0.00081408
0.000805447
0.000796813
0.000788188
0.000779577
0.000770989
0.000762429
0.000753903
0.000745418
0.000736977
0.000728589
0.000720256
0.000711985
0.00070378
0.000695643
0.000687578
0.000679588
0.000671677
0.000663847
0.0006561
0.000648438
0.000640863
0.000633378
0.000625983
0.00061868
0.000611469
0.000604352
0.000597328
0.000590398
0.000583562
0.000576822
0.000570178
0.000563627
0.000557164
0.000550788
0.000544502
0.000538306
0.000532203
0.000526192
0.000520272
0.000514443
0.000508704
0.000503053
0.00049749
0.000492013
0.000486622
0.000481314
0.00047609
0.000470948
0.000465886
0.000460904
0.000456
0.000451174
0.000446424
0.00044175
0.00043715
0.000432622
0.000428167
0.000423782
0.000419467
0.00041522
0.000411039
0.000406923
0.000402869
0.000398875
0.000394938
0.000391053
0.000387215
0.000383419
0.000379654
0.00037591
0.000372171
0.000368415
0.000364622
0.00036072
0.000356742
0.000352323
0.000348021
0.000341563
0.000330412
2.17707e-05
0.00010643
0.000220232
0.000312827
0.000375506
0.000412491
0.00042792
0.000428309
0.000418392
0.000405123
0.000397054
0.000396225
0.000405349
0.000422388
0.000444946
0.000472496
0.000505646
0.000544763
0.000589046
0.000651086
0.000724786
0.000804448
0.000888613
0.000959212
0.0010216
0.00107769
0.00112808
0.00117296
0.00121221
0.00124608
0.00127532
0.00130064
0.00132276
0.00134229
0.00135982
0.00137584
0.00139076
0.00140492
0.00141858
0.00143193
0.00144509
0.00145814
0.0014711
0.00148395
0.00149664
0.0015091
0.00152123
0.00153293
0.00154412
0.00155472
0.00156467
0.00157394
0.00158252
0.00159038
0.00159751
0.00160392
0.00160959
0.00161453
0.00161873
0.00162219
0.00162491
0.00162689
0.00162805
0.00162848
0.00162836
0.00162745
0.00162582
0.0016235
0.0016205
0.00161685
0.00161255
0.00160763
0.00160211
0.00159602
0.00158936
0.00158217
0.00157446
0.00156627
0.00155761
0.0015485
0.00153897
0.00152905
0.00151875
0.00150809
0.00149711
0.00148582
0.00147425
0.00146242
0.00145034
0.00143805
0.00142555
0.00141287
0.00140003
0.00138703
0.0013739
0.00136066
0.00134731
0.00133388
0.0013204
0.00130687
0.00129331
0.00127975
0.00126618
0.00125262
0.00123909
0.00122559
0.00121214
0.00119875
0.00118541
0.00117215
0.00115897
0.00114587
0.00113287
0.00111997
0.00110718
0.0010945
0.00108193
0.00106949
0.00105717
0.00104498
0.00103293
0.001021
0.00100922
0.000997573
0.000986068
0.000974707
0.000963489
0.000952416
0.000941488
0.000930707
0.000920072
0.000909584
0.000899239
0.000889033
0.000878966
0.000869039
0.000859252
0.000849607
0.000840102
0.000830738
0.000821514
0.000812427
0.000803476
0.00079466
0.000785977
0.000777426
0.000769004
0.000760709
0.000752541
0.000744497
0.000736575
0.000728774
0.000721092
0.000713526
0.000706076
0.000698739
0.000691513
0.000684397
0.000677389
0.000670485
0.000663684
0.000656984
0.000650381
0.000643871
0.000637451
0.000631116
0.00062486
0.000618675
0.000612552
0.000606477
0.000600436
0.000594407
0.00058836
0.000582258
0.000576037
0.000569643
0.000562892
0.000555731
0.000547511
0.000531414
2.697e-05
0.000122007
0.000241106
0.000357824
0.000435845
0.000483009
0.000506511
0.000514937
0.000516504
0.000517486
0.000524328
0.000540411
0.000566356
0.000601215
0.000644212
0.000695371
0.000755339
0.000838636
0.000934207
0.00103035
0.00111932
0.00120367
0.00128299
0.00135567
0.00142241
0.00148381
0.00154027
0.00159211
0.00163971
0.00168347
0.00172389
0.00176145
0.00179659
0.00182966
0.00186099
0.00189083
0.00191937
0.00194676
0.00197308
0.00199841
0.00202277
0.00204617
0.00206861
0.00209008
0.00211054
0.00212997
0.00214834
0.00216561
0.00218177
0.00219679
0.00221066
0.00222339
0.00223498
0.00224545
0.00225482
0.00226311
0.00227032
0.00227649
0.00228161
0.00228572
0.00228882
0.00229086
0.00229178
0.00229187
0.00229099
0.00228912
0.00228628
0.00228251
0.00227783
0.00227225
0.0022658
0.00225852
0.00225042
0.00224154
0.00223191
0.00222156
0.00221052
0.00219882
0.00218649
0.00217356
0.00216006
0.00214603
0.0021315
0.00211649
0.00210104
0.00208518
0.00206894
0.00205234
0.00203542
0.00201821
0.00200073
0.001983
0.00196506
0.00194693
0.00192862
0.00191017
0.00189159
0.00187291
0.00185416
0.00183535
0.00181651
0.00179765
0.0017788
0.00175996
0.00174116
0.00172242
0.00170373
0.00168512
0.0016666
0.00164818
0.00162988
0.00161169
0.00159364
0.00157572
0.00155795
0.00154033
0.00152288
0.00150559
0.00148848
0.00147154
0.00145478
0.0014382
0.00142182
0.00140562
0.00138962
0.00137381
0.0013582
0.00134279
0.00132758
0.00131256
0.00129775
0.00128313
0.00126872
0.00125449
0.00124046
0.00122662
0.00121297
0.00119951
0.00118625
0.00117317
0.00116029
0.00114759
0.00113508
0.00112275
0.0011106
0.00109863
0.00108684
0.00107522
0.00106377
0.00105249
0.00104138
0.00103043
0.00101964
0.00100901
0.000998535
0.000988213
0.000978042
0.000968018
0.000958139
0.000948401
0.000938803
0.00092934
0.000920008
0.000910802
0.000901718
0.00089275
0.00088389
0.000875128
0.000866453
0.000857851
0.000849302
0.000840782
0.000832256
0.000823681
0.000814989
0.00080611
0.00079688
0.00078715
0.000777194
0.00075741
3.07967e-05
0.000135313
0.000261495
0.000392453
0.000488726
0.000550331
0.00058805
0.000611438
0.000629143
0.000648413
0.00067449
0.000710022
0.000755753
0.000811961
0.000879054
0.000969472
0.00107453
0.0011762
0.00127538
0.00137086
0.00146154
0.00154752
0.00162875
0.0017052
0.00177715
0.00184496
0.00190897
0.00196952
0.00202692
0.00208153
0.00213365
0.00218357
0.00223155
0.00227779
0.00232246
0.00236567
0.00240752
0.00244805
0.00248731
0.00252529
0.002562
0.00259742
0.00263151
0.00266424
0.00269558
0.00272548
0.00275391
0.00278082
0.00280617
0.00282994
0.0028521
0.00287262
0.00289148
0.00290869
0.00292422
0.00293809
0.00295029
0.00296083
0.00296972
0.00297699
0.00298264
0.00298672
0.00298915
0.00299005
0.00298959
0.00298762
0.00298428
0.00297958
0.00297357
0.00296632
0.00295788
0.00294828
0.0029376
0.00292588
0.00291316
0.00289949
0.00288493
0.00286952
0.00285329
0.00283631
0.00281859
0.0028002
0.00278117
0.00276154
0.00274135
0.00272064
0.00269946
0.00267783
0.0026558
0.0026334
0.00261067
0.00258764
0.00256435
0.00254082
0.00251709
0.00249318
0.00246913
0.00244496
0.0024207
0.00239638
0.00237202
0.00234764
0.00232328
0.00229895
0.00227466
0.00225045
0.00222632
0.00220229
0.00217838
0.0021546
0.00213096
0.00210748
0.00208417
0.00206104
0.00203809
0.00201535
0.00199281
0.00197048
0.00194838
0.00192649
0.00190484
0.00188343
0.00186225
0.00184132
0.00182064
0.0018002
0.00178001
0.00176007
0.00174039
0.00172096
0.00170178
0.00168285
0.00166417
0.00164574
0.00162756
0.00160962
0.00159192
0.00157447
0.00155726
0.00154029
0.00152356
0.00150707
0.00149081
0.00147478
0.00145898
0.00144341
0.00142806
0.00141292
0.001398
0.0013833
0.0013688
0.00135451
0.00134042
0.00132653
0.00131283
0.00129933
0.00128602
0.00127289
0.00125994
0.00124718
0.00123458
0.00122216
0.0012099
0.00119781
0.00118586
0.00117407
0.00116241
0.00115088
0.00113947
0.00112816
0.00111692
0.00110574
0.00109457
0.00108337
0.00107207
0.0010606
0.0010488
0.00103659
0.00102441
0.00100195
3.23467e-05
0.000142495
0.000273958
0.000409835
0.000527771
0.000608989
0.00066504
0.000706956
0.000743944
0.00078325
0.000829926
0.000886921
0.00095586
0.00104812
0.00115506
0.00126162
0.0013677
0.00147104
0.00157109
0.00166743
0.00175982
0.00184824
0.0019328
0.00201365
0.00209104
0.00216523
0.0022365
0.00230513
0.00237136
0.00243543
0.00249756
0.00255791
0.00261664
0.00267387
0.00272968
0.00278412
0.00283723
0.00288903
0.00293951
0.00298864
0.00303641
0.00308277
0.00312768
0.00317109
0.00321294
0.00325319
0.00329179
0.00332867
0.00336379
0.00339711
0.00342857
0.00345815
0.00348581
0.00351151
0.00353523
0.00355695
0.00357666
0.00359435
0.00361
0.00362362
0.00363522
0.0036448
0.00365238
0.003658
0.00366165
0.00366327
0.00366319
0.0036612
0.00365742
0.00365191
0.0036447
0.00363586
0.00362545
0.00361352
0.00360013
0.00358537
0.00356928
0.00355194
0.00353341
0.00351376
0.00349306
0.00347137
0.00344877
0.00342531
0.00340106
0.00337609
0.00335044
0.00332419
0.00329739
0.00327008
0.00324233
0.00321418
0.00318567
0.00315686
0.00312778
0.00309847
0.00306897
0.00303932
0.00300956
0.00297971
0.00294981
0.00291989
0.00288998
0.0028601
0.00283028
0.00280053
0.00277089
0.00274138
0.002712
0.00268278
0.00265373
0.00262488
0.00259623
0.0025678
0.00253959
0.00251162
0.00248391
0.00245645
0.00242925
0.00240233
0.00237569
0.00234933
0.00232326
0.00229748
0.00227201
0.00224683
0.00222195
0.00219737
0.0021731
0.00214913
0.00212547
0.00210211
0.00207905
0.00205629
0.00203382
0.00201166
0.00198978
0.0019682
0.00194691
0.00192591
0.0019052
0.00188477
0.00186462
0.00184475
0.00182516
0.00180583
0.00178677
0.00176797
0.00174943
0.00173115
0.00171312
0.00169533
0.00167779
0.00166049
0.00164342
0.00162658
0.00160997
0.00159359
0.00157742
0.00156147
0.00154573
0.00153019
0.00151486
0.00149972
0.00148477
0.00146999
0.00145539
0.00144095
0.00142666
0.00141249
0.00139843
0.00138445
0.00137051
0.00135656
0.00134254
0.00132837
0.0013139
0.00129915
0.00128415
0.0012599
3.27945e-05
0.00014412
0.000275303
0.00040942
0.000539323
0.000642629
0.000719717
0.000781065
0.000836792
0.000894582
0.00096212
0.00105402
0.00116359
0.00128527
0.00140082
0.00151207
0.00161988
0.00172444
0.00182568
0.00192355
0.00201803
0.00210923
0.00219728
0.00228238
0.00236472
0.00244455
0.00252209
0.00259754
0.0026711
0.00274294
0.0028132
0.002882
0.00294943
0.00301555
0.00308041
0.00314403
0.0032064
0.00326751
0.00332733
0.00338583
0.00344295
0.00349864
0.00355284
0.00360549
0.00365652
0.00370587
0.00375348
0.00379927
0.00384319
0.00388518
0.00392518
0.00396315
0.00399903
0.00403279
0.00406438
0.00409378
0.00412096
0.00414589
0.00416856
0.00418896
0.00420709
0.00422294
0.00423652
0.00424785
0.00425694
0.00426381
0.00426853
0.00427099
0.00427142
0.00426978
0.00426611
0.00426047
0.0042529
0.00424348
0.00423224
0.00421927
0.00420463
0.00418837
0.00417058
0.00415131
0.00413065
0.00410865
0.00408541
0.00406098
0.00403544
0.00400887
0.00398132
0.00395288
0.00392361
0.00389358
0.00386285
0.00383149
0.00379956
0.00376712
0.00373422
0.00370093
0.00366728
0.00363335
0.00359917
0.0035648
0.00353027
0.00349563
0.00346093
0.00342619
0.00339146
0.00335676
0.00332213
0.0032876
0.00325318
0.00321891
0.00318481
0.0031509
0.00311719
0.00308371
0.00305048
0.0030175
0.00298479
0.00295236
0.00292023
0.00288839
0.00285687
0.00282567
0.0027948
0.00276425
0.00273404
0.00270417
0.00267464
0.00264546
0.00261662
0.00258813
0.00255999
0.0025322
0.00250475
0.00247765
0.00245089
0.00242447
0.00239839
0.00237265
0.00234724
0.00232217
0.00229743
0.00227302
0.00224893
0.00222516
0.00220171
0.00217857
0.00215574
0.00213321
0.00211099
0.00208906
0.00206742
0.00204607
0.00202501
0.00200422
0.0019837
0.00196346
0.00194348
0.00192376
0.0019043
0.00188509
0.00186613
0.00184741
0.00182892
0.00181067
0.00179264
0.00177482
0.0017572
0.00173978
0.00172253
0.00170544
0.00168849
0.00167165
0.00165487
0.00163811
0.0016213
0.00160437
0.00158718
0.00156978
0.00155185
0.00152571
3.22364e-05
0.000141191
0.000268896
0.000398004
0.000521839
0.00063395
0.000727722
0.000808797
0.000891756
0.000987016
0.00109619
0.00122083
0.00135719
0.00148468
0.00160496
0.00171997
0.00183067
0.00193743
0.00204057
0.00214044
0.00223727
0.00233123
0.00242254
0.0025114
0.00259802
0.0026826
0.00276532
0.00284637
0.00292589
0.00300401
0.00308085
0.00315648
0.00323095
0.00330431
0.00337655
0.00344769
0.00351768
0.00358651
0.00365411
0.00372044
0.00378542
0.00384899
0.00391108
0.0039716
0.00403047
0.00408763
0.004143
0.00419649
0.00424803
0.00429757
0.00434502
0.00439034
0.00443346
0.00447433
0.00451291
0.00454916
0.00458303
0.00461452
0.00464358
0.0046702
0.00469438
0.00471611
0.00473539
0.00475222
0.00476663
0.00477862
0.00478822
0.00479546
0.00480039
0.00480296
0.00480335
0.00480153
0.00479757
0.00479151
0.00478341
0.00477333
0.00476133
0.00474747
0.00473183
0.00471448
0.00469547
0.00467488
0.00465279
0.00462927
0.00460439
0.00457821
0.00455083
0.0045223
0.00449271
0.00446211
0.00443059
0.00439821
0.00436503
0.00433112
0.00429656
0.00426139
0.00422568
0.00418949
0.00415289
0.00411591
0.00407863
0.00404108
0.00400333
0.0039654
0.00392736
0.00388924
0.00385108
0.00381292
0.00377479
0.00373673
0.00369876
0.00366091
0.00362322
0.00358571
0.00354839
0.0035113
0.00347444
0.00343785
0.00340153
0.00336549
0.00332976
0.00329434
0.00325924
0.00322448
0.00319006
0.00315599
0.00312227
0.00308891
0.00305592
0.00302329
0.00299104
0.00295915
0.00292763
0.00289649
0.00286572
0.00283531
0.00280528
0.00277561
0.00274631
0.00271738
0.00268881
0.0026606
0.00263275
0.00260525
0.0025781
0.0025513
0.00252484
0.00249872
0.00247294
0.00244749
0.00242236
0.00239756
0.00237307
0.0023489
0.00232504
0.00230147
0.00227821
0.00225525
0.00223257
0.00221018
0.00218807
0.00216624
0.00214467
0.00212337
0.00210232
0.00208152
0.00206095
0.0020406
0.00202047
0.00200051
0.00198073
0.00196107
0.0019415
0.00192198
0.00190243
0.00188277
0.00186289
0.00184283
0.00182208
0.00179376
3.08671e-05
0.000135106
0.000258102
0.000383381
0.000505328
0.000621389
0.000732022
0.000840969
0.000955782
0.00108159
0.00121965
0.00136937
0.00151165
0.00164362
0.00176787
0.00188629
0.002
0.00210964
0.0022156
0.00231808
0.00241748
0.00251419
0.00260849
0.00270064
0.00279088
0.00287941
0.0029664
0.00305201
0.00313638
0.00321962
0.00330181
0.00338301
0.00346325
0.00354254
0.00362089
0.00369825
0.0037746
0.00384988
0.00392402
0.00399695
0.00406859
0.00413886
0.00420767
0.00427492
0.00434053
0.00440441
0.00446646
0.0045266
0.00458475
0.00464083
0.00469476
0.00474648
0.00479592
0.00484302
0.00488772
0.00492999
0.00496978
0.00500705
0.00504179
0.00507396
0.00510355
0.00513056
0.00515499
0.00517682
0.00519609
0.00521279
0.00522696
0.00523861
0.00524779
0.00525451
0.00525883
0.00526077
0.00526043
0.00525782
0.00525301
0.00524604
0.00523699
0.00522591
0.00521287
0.00519794
0.00518118
0.00516266
0.00514246
0.00512064
0.00509728
0.00507245
0.00504623
0.00501869
0.00498989
0.00495991
0.00492883
0.00489671
0.00486361
0.00482962
0.00479479
0.00475918
0.00472287
0.00468592
0.00464839
0.00461033
0.00457181
0.00453289
0.0044936
0.00445402
0.00441418
0.00437413
0.00433393
0.0042936
0.00425319
0.00421275
0.0041723
0.00413189
0.00409153
0.00405128
0.00401114
0.00397116
0.00393134
0.00389173
0.00385234
0.00381318
0.00377428
0.00373565
0.00369732
0.00365928
0.00362155
0.00358416
0.00354709
0.00351037
0.003474
0.00343799
0.00340233
0.00336705
0.00333213
0.00329759
0.00326342
0.00322963
0.00319621
0.00316317
0.00313051
0.00309822
0.00306631
0.00303478
0.00300361
0.00297282
0.0029424
0.00291235
0.00288266
0.00285332
0.00282435
0.00279572
0.00276745
0.00273952
0.00271193
0.00268468
0.00265776
0.00263117
0.00260491
0.00257897
0.00255334
0.00252803
0.00250302
0.00247831
0.0024539
0.00242978
0.00240593
0.00238236
0.00235905
0.00233599
0.00231316
0.00229055
0.00226811
0.00224584
0.00222367
0.00220156
0.00217945
0.00215725
0.00213485
0.00211228
0.00208898
0.00205832
2.93164e-05
0.000128786
0.000248229
0.000372457
0.000497076
0.000620987
0.000745626
0.000874939
0.00101218
0.00115943
0.00131679
0.00147855
0.00162634
0.00176277
0.00189086
0.00201262
0.0021293
0.00224174
0.00235047
0.00245588
0.00255826
0.00265782
0.00275499
0.00285012
0.00294351
0.00303538
0.00312594
0.00321534
0.00330372
0.00339118
0.0034778
0.00356361
0.00364864
0.00373288
0.00381633
0.00389893
0.00398063
0.00406137
0.00414107
0.00421963
0.00429696
0.00437297
0.00444756
0.00452061
0.00459203
0.00466172
0.00472958
0.0047955
0.0048594
0.00492119
0.00498079
0.00503811
0.00509309
0.00514566
0.00519576
0.00524334
0.00528835
0.00533077
0.00537054
0.00540766
0.0054421
0.00547385
0.0055029
0.00552926
0.00555293
0.00557394
0.00559229
0.00560801
0.00562113
0.00563169
0.00563972
0.00564527
0.00564838
0.0056491
0.0056475
0.00564362
0.00563753
0.00562929
0.00561895
0.00560658
0.00559226
0.00557605
0.00555802
0.00553824
0.00551678
0.00549372
0.00546913
0.00544309
0.00541565
0.0053869
0.0053569
0.00532573
0.00529346
0.00526014
0.00522585
0.00519066
0.00515463
0.00511782
0.00508031
0.00504214
0.00500338
0.00496408
0.00492431
0.00488412
0.00484355
0.00480266
0.0047615
0.00472011
0.00467853
0.00463682
0.004595
0.00455311
0.0045112
0.0044693
0.00442743
0.00438563
0.00434393
0.00430236
0.00426093
0.00421968
0.00417863
0.00413779
0.00409718
0.00405683
0.00401674
0.00397693
0.00393742
0.00389822
0.00385933
0.00382077
0.00378255
0.00374466
0.00370713
0.00366995
0.00363312
0.00359666
0.00356056
0.00352483
0.00348947
0.00345448
0.00341986
0.00338562
0.00335174
0.00331824
0.00328511
0.00325235
0.00321995
0.00318793
0.00315626
0.00312496
0.00309401
0.00306342
0.00303318
0.00300329
0.00297375
0.00294455
0.00291568
0.00288716
0.00285896
0.00283109
0.00280355
0.00277633
0.00274941
0.00272281
0.0026965
0.00267049
0.00264475
0.00261929
0.00259407
0.00256908
0.0025443
0.0025197
0.00249522
0.00247082
0.00244643
0.00242198
0.00239736
0.00237256
0.00234705
0.00231424
2.76216e-05
0.000122187
0.000238206
0.000361753
0.000489192
0.000619895
0.000756118
0.000899642
0.00105214
0.00121412
0.00138608
0.00155202
0.00170379
0.00184409
0.00197569
0.00210056
0.00222005
0.0023351
0.00244637
0.00255434
0.00265942
0.00276189
0.00286203
0.00296003
0.00305632
0.00315117
0.00324484
0.0033375
0.00342931
0.00352035
0.00361072
0.00370044
0.00378954
0.00387801
0.0039658
0.00405288
0.00413917
0.00422459
0.00430906
0.00439247
0.00447471
0.00455569
0.00463527
0.00471336
0.00478983
0.00486457
0.00493748
0.00500845
0.00507738
0.00514417
0.00520872
0.00527097
0.00533083
0.00538822
0.00544309
0.00549538
0.00554503
0.00559202
0.0056363
0.00567784
0.00571662
0.00575264
0.00578588
0.00581634
0.00584404
0.00586898
0.00589117
0.00591065
0.00592744
0.00594158
0.0059531
0.00596203
0.00596844
0.00597237
0.00597386
0.00597299
0.00596982
0.00596439
0.00595677
0.00594702
0.00593522
0.00592142
0.00590569
0.00588812
0.00586877
0.00584771
0.00582502
0.00580076
0.00577501
0.00574784
0.00571932
0.00568952
0.00565851
0.00562635
0.00559311
0.00555886
0.00552367
0.00548759
0.0054507
0.00541306
0.00537471
0.00533574
0.00529618
0.0052561
0.00521554
0.00517457
0.00513322
0.00509155
0.0050496
0.00500741
0.00496504
0.00492251
0.00487987
0.00483715
0.00479439
0.00475163
0.00470888
0.00466619
0.00462357
0.00458106
0.00453869
0.00449646
0.00445441
0.00441256
0.00437092
0.00432951
0.00428834
0.00424744
0.00420681
0.00416646