/*--------------------------------*- C++ -*----------------------------------*\
  =========                 |
  \\      /  F ield         | OpenFOAM: The Open Source CFD Toolbox
   \\    /   O peration     | Website:  https://openfoam.org
    \\  /    A nd           | Version:  8
     \\/     M anipulation  |
\*---------------------------------------------------------------------------*/
FoamFile
{
    version     2.0;
    format      ascii;
    class       volVectorField;
    location    "1400";
    object      U;
}
// * * * * * * * * * * * * * * * * * * * * * * * * * * * * * * * * * * * * * //

dimensions      [0 1 -1 0 0 0 0];

internalField   nonuniform List<vector> 
12225
(
(9.2745 -4.73371 0)
(13.1094 -1.71343 0)
(12.4778 -0.395198 0)
(11.2771 -0.0422042 0)
(10.6314 0.0141383 0)
(10.2979 -9.42402e-05 0)
(10.0776 -0.0165238 0)
(9.91229 -0.00288883 0)
(9.77912 0.0348744 0)
(9.66235 0.0428922 0)
(9.5558 0.0248815 0)
(9.45774 0.00213895 0)
(9.36685 -0.0227986 0)
(9.28224 -0.0302356 0)
(9.2025 -0.0217975 0)
(9.13278 -0.0212557 0)
(9.07064 -0.0210613 0)
(9.08987 -0.0278966 0)
(10.2592 0.0928019 0)
(10.7814 0.199339 0)
(10.9594 0.245656 0)
(10.7469 0.229143 0)
(10.5875 0.172968 0)
(10.4527 0.115534 0)
(10.33 0.0823303 0)
(10.2327 0.0647283 0)
(10.155 0.0524744 0)
(10.0894 0.0472303 0)
(10.0324 0.0469874 0)
(9.98217 0.0489821 0)
(9.93791 0.0517854 0)
(9.89841 0.0519233 0)
(9.86162 0.0482944 0)
(9.82899 0.0437826 0)
(9.79451 0.0299981 0)
(9.76855 0.0100266 0)
(9.87768 -0.24504 0)
(9.74285 0.00579103 0)
(10.1971 0.125743 0)
(10.3245 0.179364 0)
(10.3564 0.161547 0)
(10.3311 0.120076 0)
(10.2777 0.0904921 0)
(10.2252 0.0746631 0)
(10.1813 0.0658714 0)
(10.1438 0.0600231 0)
(10.1103 0.0561999 0)
(10.08 0.0536384 0)
(10.052 0.0511179 0)
(10.0261 0.0487342 0)
(10.0024 0.046033 0)
(9.98132 0.0416926 0)
(9.95934 0.0315461 0)
(9.93479 0.01331 0)
(9.83416 -0.443933 0)
(9.57654 -0.163146 0)
(9.91603 0.0336703 0)
(10.0933 0.134224 0)
(10.1892 0.145472 0)
(10.2168 0.120736 0)
(10.205 0.0978923 0)
(10.1825 0.0839053 0)
(10.1599 0.0756237 0)
(10.1389 0.0697037 0)
(10.1191 0.0651222 0)
(10.1002 0.06162 0)
(10.0822 0.0585881 0)
(10.0649 0.0561923 0)
(10.0484 0.0537995 0)
(10.0327 0.0500548 0)
(10.0149 0.0422762 0)
(9.99192 0.0303671 0)
(9.87825 -0.387476 0)
(9.61653 -0.196147 0)
(9.81623 -0.0186707 0)
(9.96136 0.091612 0)
(10.0698 0.122195 0)
(10.1219 0.113625 0)
(10.1354 0.0992602 0)
(10.1332 0.0884153 0)
(10.1257 0.0809404 0)
(10.1162 0.0753852 0)
(10.1056 0.0711082 0)
(10.0946 0.0678595 0)
(10.0833 0.0652228 0)
(10.0719 0.0631115 0)
(10.0602 0.0609791 0)
(10.0478 0.0580071 0)
(10.033 0.0529339 0)
(10.0125 0.0466822 0)
(9.91439 -0.28804 0)
(9.68304 -0.185176 0)
(9.78717 -0.0532082 0)
(9.88917 0.0509979 0)
(9.98796 0.0936777 0)
(10.0476 0.0992004 0)
(10.0751 0.0938692 0)
(10.0861 0.0875108 0)
(10.0892 0.0821103 0)
(10.0879 0.0777504 0)
(10.0842 0.0743313 0)
(10.079 0.0717333 0)
(10.0726 0.0697048 0)
(10.0654 0.0681204 0)
(10.0572 0.0666531 0)
(10.0477 0.0649396 0)
(10.0354 0.0626387 0)
(10.0186 0.060973 0)
(9.93763 -0.214041 0)
(9.74856 -0.167536 0)
(9.79244 -0.0752163 0)
(9.85609 0.0162188 0)
(9.93595 0.0644191 0)
(9.99282 0.0805909 0)
(10.0261 0.083555 0)
(10.0447 0.0822347 0)
(10.0546 0.0797671 0)
(10.0593 0.0772707 0)
(10.0606 0.0751532 0)
(10.0596 0.0735283 0)
(10.0571 0.0723477 0)
(10.0531 0.0715788 0)
(10.0477 0.071114 0)
(10.0407 0.0709119 0)
(10.0312 0.0711407 0)
(10.0183 0.0729763 0)
(9.95263 -0.167334 0)
(9.79947 -0.149677 0)
(9.81177 -0.0846424 0)
(9.84959 -0.00621228 0)
(9.91141 0.0419287 0)
(9.96107 0.0638922 0)
(9.99432 0.0725429 0)
(10.0156 0.0752762 0)
(10.0289 0.0755162 0)
(10.0367 0.0748849 0)
(10.041 0.0741228 0)
(10.0427 0.0735484 0)
(10.0426 0.0732787 0)
(10.0408 0.0733896 0)
(10.0375 0.0739279 0)
(10.0325 0.0750344 0)
(10.0254 0.077075 0)
(10.0157 0.0810452 0)
(9.96406 -0.132089 0)
(9.84003 -0.131989 0)
(9.83337 -0.0876912 0)
(9.85306 -0.021335 0)
(9.89927 0.024412 0)
(9.94103 0.0495076 0)
(9.97207 0.0621155 0)
(9.99386 0.0680659 0)
(10.0087 0.070681 0)
(10.0184 0.0717745 0)
(10.0246 0.0722908 0)
(10.0282 0.0727183 0)
(10.0298 0.0733142 0)
(10.0297 0.0742588 0)
(10.028 0.0757094 0)
(10.0248 0.0779091 0)
(10.0197 0.0812891 0)
(10.0129 0.0866629 0)
(9.97418 -0.100205 0)
(9.87757 -0.11239 0)
(9.85857 -0.0853677 0)
(9.86387 -0.0323354 0)
(9.89487 0.00892487 0)
(9.92743 0.035218 0)
(9.9544 0.0507085 0)
(9.97503 0.0594851 0)
(9.99015 0.064428 0)
(10.001 0.0673379 0)
(10.0085 0.0692699 0)
(10.0135 0.0708411 0)
(10.0166 0.0724291 0)
(10.018 0.0743088 0)
(10.018 0.0767258 0)
(10.0165 0.0799823 0)
(10.0136 0.0845051 0)
(10.0095 0.0909123 0)
(9.98253 -0.0727093 0)
(9.91035 -0.092197 0)
(9.88507 -0.0782458 0)
(9.88002 -0.0386103 0)
(9.89746 -0.00337832 0)
(9.92043 0.0221625 0)
(9.94196 0.0391752 0)
(9.96 0.0500685 0)
(9.97426 0.0570393 0)
(9.98519 0.0616826 0)
(9.9934 0.0650504 0)
(9.99943 0.067826 0)
(10.0037 0.0704689 0)
(10.0064 0.0733252 0)
(10.0078 0.0766968 0)
(10.0081 0.0809039 0)
(10.0073 0.0863214 0)
(10.0058 0.0933864 0)
(9.98894 -0.0502568 0)
(9.93733 -0.072379 0)
(9.91073 -0.0674498 0)
(9.89917 -0.0399857 0)
(9.90566 -0.0116544 0)
(9.91955 0.0114454 0)
(9.93497 0.0285211 0)
(9.94934 0.0405673 0)
(9.9617 0.049007 0)
(9.97189 0.0550887 0)
(9.9801 0.0597503 0)
(9.98659 0.0636656 0)
(9.99164 0.0673248 0)
(9.99545 0.0711073 0)
(9.9982 0.0753345 0)
(10.0001 0.0803095 0)
(10.0013 0.0863332 0)
(10.0021 0.0936901 0)
(9.99348 -0.0329088 0)
(9.9582 -0.0538119 0)
(9.93368 -0.0542853 0)
(9.91898 -0.0367903 0)
(9.91755 -0.0154582 0)
(9.92366 0.00398786 0)
(9.93301 0.0197656 0)
(9.94318 0.0318633 0)
(9.9529 0.0409929 0)
(9.96163 0.0479976 0)
(9.96922 0.0536182 0)
(9.9757 0.0584473 0)
(9.98118 0.0629478 0)
(9.98578 0.0674877 0)
(9.98964 0.0723709 0)
(9.99293 0.0778579 0)
(9.99585 0.0841712 0)
(9.99867 0.0914827 0)
(9.99643 -0.0202027 0)
(9.97327 -0.0372107 0)
(9.95261 -0.0400472 0)
(9.93731 -0.0298138 0)
(9.9309 -0.0148284 0)
(9.93102 0.00035942 0)
(9.93504 0.0137643 0)
(9.94105 0.0248294 0)
(9.94782 0.0337413 0)
(9.95465 0.0409687 0)
(9.96117 0.0470215 0)
(9.96724 0.0523602 0)
(9.9728 0.0573698 0)
(9.9779 0.0623656 0)
(9.9826 0.0676019 0)
(9.98703 0.0732814 0)
(9.99133 0.0795551 0)
(9.9957 0.0865168 0)
(9.99816 -0.0112878 0)
(9.9833 -0.0229314 0)
(9.96682 -0.0257645 0)
(9.95243 -0.0200798 0)
(9.94344 -0.0102466 0)
(9.93953 0.000668006 0)
(9.9394 0.0110203 0)
(9.94183 0.0201309 0)
(9.94582 0.0279083 0)
(9.95069 0.0345504 0)
(9.95597 0.0403591 0)
(9.96139 0.0456441 0)
(9.9668 0.0506837 0)
(9.97215 0.0557098 0)
(9.97742 0.0609069 0)
(9.98268 0.0664118 0)
(9.988 0.0723138 0)
(9.9935 0.0786541 0)
(9.99906 -0.005081 0)
(9.98922 -0.0107816 0)
(9.97612 -0.0119185 0)
(9.96309 -0.00848555 0)
(9.9531 -0.00243909 0)
(9.94685 0.00457219 0)
(9.94399 0.0115485 0)
(9.94384 0.0180087 0)
(9.94569 0.0238234 0)
(9.94896 0.0290613 0)
(9.95317 0.0338777 0)
(9.95799 0.0384495 0)
(9.9632 0.0429415 0)
(9.96867 0.0474912 0)
(9.97433 0.0522029 0)
(9.98017 0.0571466 0)
(9.9862 0.0623577 0)
(9.99246 0.0678388 0)
(9.99942 -0.000367332 0)
(9.9918 0.000151183 0)
(9.98042 0.00183106 0)
(9.96821 0.00459137 0)
(9.9579 0.00791642 0)
(9.95061 0.0113961 0)
(9.94642 0.0148091 0)
(9.94498 0.0180783 0)
(9.94576 0.0212207 0)
(9.94824 0.0243022 0)
(9.95197 0.0274043 0)
(9.9566 0.0306039 0)
(9.96185 0.0339637 0)
(9.96756 0.0375277 0)
(9.9736 0.0413198 0)
(9.97991 0.045345 0)
(9.98646 0.0495891 0)
(9.99322 0.0540225 0)
(9.99935 0.00408475 0)
(9.9911 0.0111729 0)
(9.97897 0.0161325 0)
(9.96616 0.0187351 0)
(9.95552 0.0196102 0)
(9.94819 0.0195424 0)
(9.94419 0.0191538 0)
(9.94311 0.0188546 0)
(9.94437 0.018885 0)
(9.94741 0.0193626 0)
(9.95173 0.0203276 0)
(9.95698 0.0217753 0)
(9.96285 0.0236746 0)
(9.96918 0.025981 0)
(9.97581 0.0286431 0)
(9.98267 0.0316043 0)
(9.98971 0.034807 0)
(9.99689 0.0381903 0)
(9.99882 0.00972974 0)
(9.98675 0.0240488 0)
(9.97122 0.0318462 0)
(9.95641 0.0332929 0)
(9.94558 0.0307026 0)
(9.93942 0.0263477 0)
(9.93734 0.0217438 0)
(9.93845 0.0177334 0)
(9.94186 0.0146872 0)
(9.94686 0.0127008 0)
(9.95291 0.0117183 0)
(9.95962 0.0116209 0)
(9.96672 0.0122694 0)
(9.97406 0.0135281 0)
(9.98153 0.0152724 0)
(9.98906 0.0173927 0)
(9.99662 0.0197923 0)
(10.0042 0.022388 0)
(9.99757 0.01821 0)
(9.97773 0.0404554 0)
(9.95664 0.0495774 0)
(9.93945 0.0474784 0)
(9.92961 0.0394232 0)
(9.92658 0.029646 0)
(9.92848 0.0204885 0)
(9.93356 0.0129637 0)
(9.94054 0.0073442 0)
(9.94855 0.00351102 0)
(9.95703 0.0012138 0)
(9.96566 0.00016223 0)
(9.97426 9.26759e-05 0)
(9.98274 0.000771883 0)
(9.99107 0.00201367 0)
(9.99923 0.00366658 0)
(10.0072 0.00560778 0)
(10.0151 0.00774115 0)
(9.99502 0.0318145 0)
(9.96177 0.0621338 0)
(9.93372 0.0695515 0)
(9.91534 0.060115 0)
(9.90932 0.0439508 0)
(9.91249 0.0276602 0)
(9.92084 0.0139936 0)
(9.93162 0.00363877 0)
(9.94322 -0.0036437 0)
(9.95479 -0.00837707 0)
(9.96593 -0.0111358 0)
(9.97651 -0.0124027 0)
(9.98649 -0.0125829 0)
(9.99592 -0.0119788 0)
(10.0049 -0.0108234 0)
(10.0134 -0.0092885 0)
(10.0217 -0.00750105 0)
(10.0296 -0.00556375 0)
(9.99018 0.0534618 0)
(9.93561 0.090152 0)
(9.90098 0.0906277 0)
(9.88515 0.0687568 0)
(9.8878 0.041819 0)
(9.90121 0.0186591 0)
(9.91856 0.00141869 0)
(9.93626 -0.0103941 0)
(9.95284 -0.0179383 0)
(9.96785 -0.022391 0)
(9.98128 -0.0246492 0)
(9.9933 -0.0253925 0)
(10.0042 -0.0251038 0)
(10.0141 -0.0241408 0)
(10.0232 -0.0227395 0)
(10.0318 -0.0210545 0)
(10.0398 -0.0192048 0)
(10.0475 -0.0172721 0)
(9.9819 0.086247 0)
(9.89548 0.124257 0)
(9.85817 0.109883 0)
(9.85209 0.0697737 0)
(9.87033 0.0303381 0)
(9.89842 0.00144985 0)
(9.92658 -0.0172018 0)
(9.95134 -0.0283154 0)
(9.9722 -0.034412 0)
(9.98959 -0.0373205 0)
(10.0042 -0.0381974 0)
(10.0167 -0.0377957 0)
(10.0276 -0.0366175 0)
(10.0372 -0.035006 0)
(10.0458 -0.0331599 0)
(10.0538 -0.0311771 0)
(10.0613 -0.0291405 0)
(10.0683 -0.027121 0)
(9.96925 0.133989 0)
(9.83823 0.163089 0)
(9.80793 0.12259 0)
(9.82311 0.0587995 0)
(9.86513 0.00730816 0)
(9.91139 -0.0240254 0)
(9.95035 -0.0405869 0)
(9.98049 -0.0483638 0)
(10.0034 -0.0512222 0)
(10.0212 -0.0515203 0)
(10.0353 -0.0503964 0)
(10.0468 -0.048498 0)
(10.0565 -0.0462442 0)
(10.0648 -0.0438905 0)
(10.0721 -0.0415671 0)
(10.0789 -0.0392557 0)
(10.0852 -0.0369965 0)
(10.0911 -0.0348767 0)
(9.94951 0.20714 0)
(9.76128 0.207022 0)
(9.75726 0.123477 0)
(9.81042 0.0320105 0)
(9.88382 -0.0278612 0)
(9.94874 -0.0559939 0)
(9.99527 -0.0660693 0)
(10.0266 -0.0677927 0)
(10.048 -0.0659547 0)
(10.063 -0.0631661 0)
(10.0742 -0.0598536 0)
(10.083 -0.0564704 0)
(10.0899 -0.0531242 0)
(10.0957 -0.0501579 0)
(10.1008 -0.0475009 0)
(10.1056 -0.0449602 0)
(10.11 -0.0425413 0)
(10.1141 -0.040358 0)
(9.91094 0.322718 0)
(9.65923 0.254544 0)
(9.71887 0.107406 0)
(9.83329 -0.0119237 0)
(9.94173 -0.072653 0)
(10.0199 -0.0901621 0)
(10.0662 -0.0893197 0)
(10.0918 -0.0831307 0)
(10.1058 -0.0760151 0)
(10.1141 -0.0695876 0)
(10.1197 -0.0644401 0)
(10.1236 -0.0600794 0)
(10.1261 -0.0563474 0)
(10.1278 -0.0531379 0)
(10.1295 -0.0506192 0)
(10.1312 -0.0482468 0)
(10.1329 -0.045623 0)
(10.1344 -0.0434487 0)
(9.84404 0.43511 0)
(9.53798 0.261026 0)
(9.7269 0.0591344 0)
(9.92367 -0.0731162 0)
(10.0584 -0.121553 0)
(10.1345 -0.120192 0)
(10.1665 -0.105279 0)
(10.1758 -0.0906103 0)
(10.1759 -0.0784596 0)
(10.1726 -0.07034 0)
(10.1686 -0.0643883 0)
(10.1647 -0.0597888 0)
(10.1605 -0.0555259 0)
(10.1563 -0.0521933 0)
(10.1529 -0.0503035 0)
(10.1506 -0.0482796 0)
(10.1483 -0.0456659 0)
(10.1458 -0.0435811 0)
(9.83598 0.319666 0)
(9.55021 0.0912511 0)
(9.91739 -0.0687258 0)
(10.1507 -0.160113 0)
(10.2634 -0.172137 0)
(10.3032 -0.142728 0)
(10.2978 -0.112095 0)
(10.276 -0.0899491 0)
(10.2517 -0.075367 0)
(10.2302 -0.0674389 0)
(10.2132 -0.0618896 0)
(10.1985 -0.0574955 0)
(10.1843 -0.0523624 0)
(10.1702 -0.0482292 0)
(10.1593 -0.0467287 0)
(10.1503 -0.0438953 0)
(10.1413 -0.0397067 0)
(10.133 -0.0384961 0)
(10.2049 -0.0633775 0)
(10.4095 -0.191706 0)
(10.7164 -0.282558 0)
(10.6879 -0.282287 0)
(10.6191 -0.230103 0)
(10.5417 -0.163669 0)
(10.4545 -0.117042 0)
(10.3763 -0.092494 0)
(10.3136 -0.0798636 0)
(10.2654 -0.0678463 0)
(10.2261 -0.0589596 0)
(10.1924 -0.0539185 0)
(10.1596 -0.0537337 0)
(10.1304 -0.0529343 0)
(10.1086 -0.0475707 0)
(10.0852 -0.0455589 0)
(10.0627 -0.048101 0)
(10.046 -0.0463403 0)
(9.41631 4.45107 0)
(12.7294 2.07612 0)
(12.5649 0.621213 0)
(11.569 0.127658 0)
(10.9309 0.00343469 0)
(10.5866 -0.00206741 0)
(10.3638 0.0123132 0)
(10.2021 0.0302318 0)
(10.0796 0.0412472 0)
(9.97714 0.0356959 0)
(9.8854 0.0255651 0)
(9.79808 0.0207512 0)
(9.72376 0.0274175 0)
(9.66282 0.0263623 0)
(9.59982 0.00118726 0)
(9.54286 -0.00582461 0)
(9.49535 0.00963119 0)
(9.44726 0.000982378 0)
(-0.0276593 0.0935879 0)
(0.136926 -0.183503 0)
(0.324898 -0.305988 0)
(0.525446 -0.315261 0)
(0.703038 -0.272233 0)
(0.833716 -0.211241 0)
(0.910161 -0.146489 -8.59919e-20)
(0.940841 -0.0826241 8.66071e-20)
(0.920073 -0.0202788 0)
(0.859449 0.0344765 9.18177e-20)
(0.772293 0.0739708 0)
(0.672964 0.0920988 0)
(0.578904 0.0878764 0)
(0.505953 0.066822 -1.43162e-19)
(0.455962 0.0378025 0)
(0.412753 0.00991262 0)
(0.353504 -0.0092971 1.87803e-19)
(0.263664 -0.00941724 0)
(0.136393 0.0281273 0)
(-0.0425731 0.11219 0)
(-0.298826 0.186216 -1.65605e-19)
(-0.592448 0.235183 0)
(-0.913771 0.266858 -7.63615e-20)
(-1.25018 0.295934 0)
(-1.58967 0.323617 0)
(-1.92948 0.336504 -4.13442e-20)
(-2.26203 0.335682 0)
(-2.57926 0.326592 3.45492e-20)
(-2.87817 0.310471 0)
(-3.15532 0.289678 -3.1345e-20)
(-3.40979 0.26654 0)
(-3.64121 0.242654 0)
(-3.85029 0.219054 0)
(-4.03813 0.196449 0)
(-4.20616 0.175217 0)
(-4.35596 0.155563 2.82297e-20)
(-4.48908 0.137525 0)
(-4.60705 0.121031 -5.55706e-20)
(-4.71123 0.105954 0)
(-4.80284 0.0921354 5.47718e-20)
(-4.88293 0.0794118 0)
(-4.95241 0.0676316 0)
(-5.01204 0.0566668 -5.35498e-20)
(-5.06242 0.0464205 0)
(-5.10408 0.0368333 -5.2658e-20)
(-5.13741 0.027888 5.21802e-20)
(-5.16283 0.0196288 0)
(-5.1807 0.0122032 5.11534e-20)
(-5.19132 0.00585913 5.0601e-20)
(-5.19486 0.00080715 0)
(-5.19254 -0.00314798 0)
(-5.18563 -0.00644701 0)
(-5.17424 -0.00937002 0)
(-5.15872 -0.0120813 0)
(-5.13922 -0.0146502 -4.61815e-20)
(-5.11588 -0.0170905 0)
(-5.08881 -0.0194137 4.43162e-20)
(-5.05812 -0.0216286 0)
(-5.0239 -0.0237374 0)
(-4.98627 -0.0257421 -4.11381e-20)
(-4.94531 -0.0276431 0)
(-4.90115 -0.0294403 3.87623e-20)
(-4.85389 -0.0311335 0)
(-4.80365 -0.0327227 0)
(-4.75053 -0.0342079 0)
(-4.69467 -0.0355888 -3.33826e-20)
(-4.63618 -0.036866 0)
(-4.57519 -0.0380403 0)
(-4.51183 -0.0391124 -2.87851e-20)
(-4.44623 -0.040083 0)
(-4.37851 -0.0409535 -2.54436e-20)
(-4.3088 -0.0417254 0)
(-4.23725 -0.0424005 0)
(-4.16398 -0.0429805 0)
(-4.08913 -0.0434676 1.80659e-20)
(-4.01281 -0.043864 0)
(-3.93517 -0.0441721 0)
(-3.85632 -0.0443942 1.18837e-20)
(-3.7764 -0.0445327 9.68975e-21)
(-3.69552 -0.04459 0)
(-3.61381 -0.044569 5.0877e-21)
(-3.53138 -0.0444727 0)
(-3.44833 -0.0443049 3.58846e-22)
(-3.36479 -0.0440706 0)
(-3.28084 -0.0437763 -1.01315e-20)
(-3.19659 -0.0434314 0)
(-3.11213 -0.0430489 2.13747e-20)
(-3.02753 -0.0426479 0)
(-2.94287 -0.0422571 0)
(-2.8582 -0.0419192 0)
(-2.77357 -0.0416962 -4.65682e-20)
(-2.68899 -0.0416706 0)
(-2.60447 -0.0419324 6.08443e-20)
(-2.51998 -0.0425377 0)
(-2.43549 -0.0434277 -7.65152e-20)
(-2.35124 -0.0443302 -8.48944e-20)
(-2.26747 -0.0447847 -9.36033e-20)
(-2.18445 -0.0445764 0)
(-2.10234 -0.0439714 0)
(-2.02116 -0.0432731 0)
(-1.94092 -0.0425682 0)
(-1.86164 -0.041868 0)
(-1.78332 -0.0411736 0)
(-1.70601 -0.0404866 0)
(-1.62972 -0.039811 0)
(-1.55448 -0.0391524 1.92721e-19)
(-1.48031 -0.0385179 2.07043e-19)
(-1.40721 -0.037913 0)
(-1.3352 -0.0373265 0)
(-1.26431 -0.0367013 0)
(-1.19458 -0.0360437 2.74316e-19)
(-1.126 -0.0354097 0)
(-1.05859 -0.0347943 0)
(-0.99234 -0.0341988 0)
(-0.927256 -0.0336248 0)
(-0.863338 -0.0330745 -3.90966e-19)
(-0.800583 -0.0325503 0)
(-0.738988 -0.0320554 0)
(-0.678546 -0.0315934 4.89156e-19)
(-0.619251 -0.0311656 -5.2886e-19)
(-0.561096 -0.0307756 0)
(-0.504072 -0.030434 -6.22483e-19)
(-0.448168 -0.0301645 0)
(-0.393363 -0.0300117 7.4148e-19)
(-0.339638 -0.0299864 0)
(-0.286977 -0.0300503 0)
(-0.235366 -0.0301902 0)
(-0.184776 -0.0304173 0)
(-0.135181 -0.030747 0)
(-0.0866267 -0.0311981 -2.84702e-18)
(-0.0393237 -0.0316522 -3.27784e-18)
(0.00678109 -0.0313514 0)
(0.0521982 -0.0298524 0)
(0.0969375 -0.0280019 0)
(0.140858 -0.0262839 2.6845e-18)
(0.183866 -0.024751 0)
(0.225942 -0.0233775 0)
(0.267109 -0.0221399 0)
(0.307398 -0.0210182 2.0398e-18)
(0.34684 -0.0199954 -1.93354e-18)
(0.385464 -0.0190571 0)
(0.423295 -0.0181919 0)
(0.460359 -0.0173907 -1.68681e-18)
(0.49668 -0.0166459 -1.62216e-18)
(0.532281 -0.0159513 0)
(0.567185 -0.0153018 0)
(0.601416 -0.0146931 1.4639e-18)
(0.634995 -0.0141216 -1.42042e-18)
(0.667944 -0.0135842 0)
(0.700288 -0.0130783 0)
(0.732047 -0.0126016 -1.31014e-18)
(0.763244 -0.012152 0)
(0.793903 -0.0117279 0)
(0.824047 -0.0113276 -1.22263e-18)
(0.853699 -0.0109499 0)
(0.882883 -0.0105933 -1.17354e-18)
(0.91162 -0.0102569 0)
(0.939936 -0.00993936 0)
(0.967853 -0.00963977 0)
(0.995392 -0.009357 1.09155e-18)
(1.02258 -0.00908996 0)
(1.04943 -0.00883734 0)
(1.07596 -0.00859773 0)
(1.10219 -0.00836929 0)
(1.12813 -0.00814981 0)
(1.15377 -0.00793633 0)
(1.17913 -0.00772501 9.82747e-19)
(1.20416 -0.00751068 9.69827e-19)
(1.22883 -0.00728636 0)
(1.25308 -0.0070425 0)
(1.27679 -0.00676559 0)
(1.2998 -0.00643705 -9.24482e-19)
(1.32188 -0.00602712 0)
(1.34261 -0.00549708 1.81386e-18)
(1.36155 -0.00475992 -1.80049e-18)
(1.37729 -0.0037242 -1.79176e-18)
(1.38988 -0.00195268 1.79006e-18)
(1.3903 0.00132915 -1.79544e-18)
(1.3876 0.00807695 1.80876e-18)
(1.30833 0.0198903 0)
(0.0962998 -0.268595 0)
(0.334155 -0.681194 0)
(0.514386 -0.706758 1.57337e-19)
(0.612138 -0.571704 0)
(0.663232 -0.409276 -1.1111e-19)
(0.683761 -0.25419 -1.08068e-19)
(0.677818 -0.112511 -5.62318e-20)
(0.647529 0.0152887 -5.61756e-20)
(0.604611 0.125174 0)
(0.545491 0.211793 -6.07727e-20)
(0.468763 0.267408 0)
(0.374384 0.283381 0)
(0.258748 0.25672 1.70387e-19)
(0.111657 0.211523 9.82436e-20)
(-0.0731368 0.205859 -1.84768e-19)
(-0.299187 0.271059 -1.44232e-19)
(-0.577047 0.382568 -5.73474e-20)
(-0.903027 0.512491 0)
(-1.25673 0.642019 0)
(-1.61494 0.756075 0)
(-1.97066 0.841874 -2.8601e-20)
(-2.3162 0.895616 0)
(-2.64621 0.919206 6.90875e-20)
(-2.95309 0.915713 0)
(-3.23274 0.889336 0)
(-3.48355 0.845214 1.98201e-20)
(-3.70409 0.788663 0)
(-3.89518 0.725225 -1.9761e-20)
(-4.0587 0.659135 -4.17965e-20)
(-4.19819 0.593111 2.0167e-20)
(-4.31657 0.529254 0)
(-4.41674 0.469353 0)
(-4.50141 0.41424 0)
(-4.57299 0.36427 -4.42572e-20)
(-4.63354 0.319402 -4.47638e-20)
(-4.68475 0.279367 -2.21889e-20)
(-4.728 0.243753 0)
(-4.7644 0.212078 4.53063e-20)
(-4.79486 0.183845 0)
(-4.82007 0.158571 -4.58786e-20)
(-4.84064 0.135816 0)
(-4.85706 0.115186 0)
(-4.86974 0.0963383 4.60897e-20)
(-4.87906 0.0789832 0)
(-4.88537 0.0628798 1.38171e-19)
(-4.88897 0.0478333 -4.56105e-20)
(-4.89014 0.0337084 0)
(-4.88913 0.0204741 -4.49415e-20)
(-4.8862 0.00824664 -4.4485e-20)
(-4.88161 -0.00281198 0)
(-4.87447 -0.0127572 0)
(-4.86364 -0.0218849 0)
(-4.84914 -0.0304386 0)
(-4.83085 -0.0385328 0)
(-4.80881 -0.0462373 4.0219e-20)
(-4.78307 -0.053589 7.91684e-20)
(-4.75372 -0.0606092 -3.84417e-20)
(-4.72083 -0.0673091 0)
(-4.68449 -0.0736945 7.34899e-20)
(-4.64481 -0.079768 -3.59686e-20)
(-4.60187 -0.0855303 0)
(-4.55577 -0.0909813 -3.32684e-20)
(-4.50663 -0.0961208 0)
(-4.45456 -0.10095 0)
(-4.39966 -0.105471 -5.98948e-20)
(-4.34205 -0.109684 2.83867e-20)
(-4.28185 -0.113589 -5.47029e-20)
(-4.21918 -0.117188 5.19839e-20)
(-4.15417 -0.120486 2.42948e-20)
(-4.08694 -0.123487 0)
(-4.01762 -0.126197 2.13617e-20)
(-3.94634 -0.12862 0)
(-3.87322 -0.130764 0)
(-3.7984 -0.132636 0)
(-3.72199 -0.134243 1.56349e-20)
(-3.64414 -0.135596 0)
(-3.56496 -0.136702 2.37666e-20)
(-3.48458 -0.137572 -2.99739e-20)
(-3.40311 -0.138216 -7.94146e-21)
(-3.32068 -0.138645 0)
(-3.23741 -0.13887 -4.14057e-21)
(-3.1534 -0.138902 0)
(-3.06876 -0.138754 -2.8984e-22)
(-2.98361 -0.138437 0)
(-2.89803 -0.137964 8.11654e-21)
(-2.81214 -0.137347 -2.35753e-20)
(-2.72602 -0.136596 -1.69703e-20)
(-2.63976 -0.135723 0)
(-2.55346 -0.134736 0)
(-2.46721 -0.13364 0)
(-2.3811 -0.132434 3.61895e-20)
(-2.29525 -0.13111 0)
(-2.20979 -0.12964 -4.66617e-20)
(-2.12487 -0.127968 0)
(-2.04062 -0.126042 1.719e-19)
(-1.95714 -0.123887 6.36392e-20)
(-1.87441 -0.121604 6.9671e-20)
(-1.7924 -0.119299 0)
(-1.71107 -0.117031 0)
(-1.63048 -0.114797 0)
(-1.55069 -0.112575 0)
(-1.47176 -0.11035 0)
(-1.39373 -0.10812 2.19512e-19)
(-1.31663 -0.105883 2.35005e-19)
(-1.24049 -0.103644 0)
(-1.16534 -0.101405 -1.34772e-19)
(-1.0912 -0.0991693 -1.43552e-19)
(-1.01809 -0.0969384 0)
(-0.946055 -0.0947144 -3.23062e-19)
(-0.875094 -0.0925017 0)
(-0.805204 -0.0903138 1.81337e-19)
(-0.736395 -0.0881565 0)
(-0.668677 -0.0860301 0)
(-0.602057 -0.0839369 -4.34482e-19)
(-0.536535 -0.0818783 0)
(-0.472112 -0.079856 2.4485e-19)
(-0.408789 -0.0778729 0)
(-0.346565 -0.0759348 0)
(-0.285432 -0.0740504 2.89789e-19)
(-0.225383 -0.0722178 3.09095e-19)
(-0.166411 -0.0704316 0)
(-0.108509 -0.0686948 -3.46392e-19)
(-0.0516839 -0.0670075 0)
(0.00406829 -0.0653612 3.82648e-19)
(0.0587889 -0.0637491 7.66182e-19)
(0.112511 -0.0621824 0)
(0.165236 -0.0606757 0)
(0.216964 -0.0592337 0)
(0.267709 -0.057854 0)
(0.317505 -0.056539 7.09232e-19)
(0.36642 -0.0552773 2.09642e-18)
(0.414543 -0.0538985 0)
(0.461785 -0.0522526 0)
(0.508006 -0.0504783 0)
(0.553275 -0.0487314 -6.6562e-19)
(0.597675 -0.0470636 0)
(0.641232 -0.0454833 0)
(0.683965 -0.043988 1.28792e-18)
(0.725895 -0.0425712 6.3694e-19)
(0.767043 -0.0412255 6.32416e-19)
(0.80743 -0.0399442 0)
(0.847077 -0.0387219 0)
(0.886007 -0.0375541 6.15872e-19)
(0.924241 -0.0364373 -6.09635e-19)
(0.9618 -0.0353682 0)
(0.998705 -0.0343447 0)
(1.03498 -0.0333643 -5.96777e-19)
(1.07064 -0.0324255 1.77635e-18)
(1.10571 -0.0315265 0)
(1.14022 -0.030666 0)
(1.17418 -0.0298427 5.80307e-19)
(1.20761 -0.0290555 0)
(1.24054 -0.0283032 1.1449e-18)
(1.27299 -0.0275849 -5.68521e-19)
(1.30499 -0.0268995 0)
(1.33654 -0.0262461 5.62408e-19)
(1.36768 -0.0256237 1.11753e-18)
(1.39843 -0.0250311 0)
(1.42881 -0.0244671 0)
(1.45884 -0.0239302 -5.49574e-19)
(1.48853 -0.0234186 0)
(1.51791 -0.0229301 1.08644e-18)
(1.547 -0.0224618 0)
(1.5758 -0.0220099 0)
(1.60432 -0.0215694 0)
(1.63257 -0.0211335 0)
(1.66054 -0.0206935 -5.29001e-19)
(1.6882 -0.0202372 -5.26234e-19)
(1.71553 -0.0197482 0)
(1.74246 -0.0192039 0)
(1.7689 -0.0185726 0)
(1.79472 -0.0178087 5.16141e-19)
(1.8197 -0.0168452 0)
(1.84351 -0.015579 -1.02487e-18)
(1.86575 -0.0138331 1.02261e-18)
(1.88548 -0.011323 1.02222e-18)
(1.90228 -0.00730778 1.02332e-18)
(1.91249 -0.000516919 1.02848e-18)
(1.92479 0.012427 1.02037e-18)
(1.90522 0.0361887 0)
(0.116529 -0.859639 0)
(0.269261 -1.05727 0)
(0.316476 -0.826591 -1.2629e-19)
(0.315855 -0.584808 -1.08133e-19)
(0.298487 -0.374312 1.00447e-19)
(0.267344 -0.189154 1.0062e-19)
(0.221235 -0.0236596 -6.46881e-22)
(0.159416 0.124124 0)
(0.0817645 0.254718 0)
(-0.0129477 0.365704 0)
(-0.128258 0.45149 0)
(-0.272219 0.512563 0)
(-0.45775 0.56627 -2.67648e-19)
(-0.695411 0.6408 0)
(-0.981554 0.753204 6.63552e-20)
(-1.30032 0.895178 5.7235e-20)
(-1.63373 1.04342 0)
(-1.96484 1.17761 0)
(-2.27837 1.28517 0)
(-2.56244 1.35904 0)
(-2.81168 1.39497 3.49133e-20)
(-3.02575 1.3927 0)
(-3.20604 1.35686 -3.235e-20)
(-3.35535 1.2947 0)
(-3.47815 1.21354 0)
(-3.57905 1.11978 0)
(-3.66286 1.01952 -6.85856e-20)
(-3.73395 0.918094 0)
(-3.79584 0.819641 3.31143e-20)
(-3.85132 0.726964 -7.06972e-20)
(-3.90231 0.641582 0)
(-3.9501 0.564235 0)
(-3.99547 0.494975 0)
(-4.03877 0.433419 3.65621e-20)
(-4.08011 0.378918 3.71498e-20)
(-4.11945 0.330698 0)
(-4.15665 0.287965 0)
(-4.19154 0.249956 -7.77991e-20)
(-4.22394 0.215977 -7.81924e-20)
(-4.25369 0.185416 7.84258e-20)
(-4.28064 0.157755 0)
(-4.30468 0.132563 0)
(-4.32572 0.109493 0)
(-4.34367 0.0882603 0)
(-4.3585 0.0686301 -7.70104e-20)
(-4.37013 0.0504027 -7.69126e-20)
(-4.3785 0.0333938 7.62697e-20)
(-4.38347 0.0174024 0)
(-4.38487 0.00217208 0)
(-4.38254 -0.0125837 0)
(-4.37642 -0.0269983 0)
(-4.36657 -0.0409853 -7.11064e-20)
(-4.35306 -0.0544528 0)
(-4.3359 -0.0673894 0)
(-4.31515 -0.0797995 -6.69946e-20)
(-4.29085 -0.0916918 -6.49689e-20)
(-4.26308 -0.103074 0)
(-4.23189 -0.113949 1.24569e-19)
(-4.19737 -0.124321 -6.00308e-20)
(-4.15961 -0.134188 5.82541e-20)
(-4.11869 -0.14355 0)
(-4.07471 -0.152403 0)
(-4.02777 -0.160746 0)
(-3.97797 -0.168579 0)
(-3.92542 -0.175903 4.84221e-20)
(-3.87023 -0.182722 9.37751e-20)
(-3.81251 -0.189033 4.40566e-20)
(-3.75239 -0.19484 -4.17844e-20)
(-3.68998 -0.20015 0)
(-3.6254 -0.204969 7.5423e-20)
(-3.55878 -0.209305 7.05398e-20)
(-3.49024 -0.213167 6.55401e-20)
(-3.41991 -0.216565 -6.04247e-20)
(-3.34791 -0.219511 0)
(-3.27436 -0.222018 -7.4095e-20)
(-3.1994 -0.224098 0)
(-3.12314 -0.225767 2.00938e-20)
(-3.0457 -0.227039 1.58706e-20)
(-2.96721 -0.227931 0)
(-2.88778 -0.22846 0)
(-2.80753 -0.228643 1.53577e-20)
(-2.72657 -0.228497 0)
(-2.64501 -0.228042 2.92288e-21)
(-2.56295 -0.227295 0)
(-2.48051 -0.226275 1.00005e-20)
(-2.39778 -0.225003 3.47292e-20)
(-2.31486 -0.223496 0)
(-2.23185 -0.221776 0)
(-2.14884 -0.21986 0)
(-2.06593 -0.217765 4.45862e-20)
(-1.98322 -0.215508 0)
(-1.9008 -0.213098 5.94082e-20)
(-1.81878 -0.210538 0)
(-1.73723 -0.207813 0)
(-1.65623 -0.204897 -1.67064e-19)
(-1.57582 -0.201774 0)
(-1.49602 -0.198458 -9.93188e-20)
(-1.41682 -0.194992 0)
(-1.33826 -0.191434 -1.16598e-19)
(-1.2604 -0.187822 0)
(-1.18329 -0.184174 0)
(-1.10699 -0.180498 0)
(-1.03154 -0.1768 -4.62712e-19)
(-0.956974 -0.173086 -1.6505e-19)
(-0.883321 -0.169364 0)
(-0.810608 -0.16564 0)
(-0.738862 -0.16192 0)
(-0.668104 -0.158209 0)
(-0.598352 -0.154511 2.18846e-19)
(-0.529615 -0.150833 -4.58482e-19)
(-0.461902 -0.147182 -2.4268e-19)
(-0.395224 -0.143569 5.07674e-19)
(-0.329591 -0.139998 5.33472e-19)
(-0.265008 -0.136476 2.81386e-19)
(-0.201477 -0.133004 0)
(-0.139001 -0.129584 6.1624e-19)
(-0.0775789 -0.126217 0)
(-0.0172139 -0.122908 -6.73563e-19)
(0.0421007 -0.119657 -3.4516e-19)
(0.100379 -0.116466 0)
(0.157626 -0.113338 6.93125e-19)
(0.213848 -0.110275 3.48831e-19)
(0.269056 -0.107278 0)
(0.32326 -0.104337 3.48725e-19)
(0.376467 -0.101442 -1.05282e-18)
(0.428688 -0.0986002 0)
(0.479935 -0.0958236 0)
(0.530225 -0.0931144 0)
(0.579576 -0.0904735 0)
(0.628011 -0.0879054 -7.07748e-19)
(0.675563 -0.085417 -7.1024e-19)
(0.722256 -0.0830235 0)
(0.768056 -0.0807119 0)
(0.812947 -0.0784431 0)
(0.856983 -0.076216 0)
(0.900207 -0.0740468 0)
(0.942634 -0.071944 0)
(0.984278 -0.0699103 -7.14013e-19)
(1.02515 -0.0679455 -1.08889e-21)
(1.06528 -0.066048 0)
(1.10468 -0.0642157 0)
(1.14337 -0.0624467 -7.13845e-19)
(1.18137 -0.0607391 0)
(1.2187 -0.0590913 7.14893e-19)
(1.25538 -0.0575018 7.14031e-19)
(1.29143 -0.0559694 0)
(1.32688 -0.0544927 0)
(1.36173 -0.0530709 -7.14563e-19)
(1.39602 -0.0517027 -1.42733e-18)
(1.42977 -0.0503873 0)
(1.46299 -0.0491236 0)
(1.49571 -0.0479108 0)
(1.52794 -0.046748 -7.13255e-19)
(1.55972 -0.0456342 7.12874e-19)
(1.59105 -0.0445684 0)
(1.62197 -0.0435495 1.42287e-18)
(1.65249 -0.0425763 7.10417e-19)
(1.68264 -0.0416476 -1.42082e-18)
(1.71243 -0.0407616 0)
(1.74188 -0.0399162 0)
(1.77102 -0.0391091 -1.41701e-18)
(1.79987 -0.0383367 -7.0822e-19)
(1.82843 -0.0375948 0)
(1.85673 -0.0368777 0)
(1.88477 -0.0361777 0)
(1.91255 -0.0354849 0)
(1.94008 -0.0347855 -1.40689e-18)
(1.96733 -0.0340613 0)
(1.99429 -0.0332874 0)
(2.02089 -0.0324295 0)
(2.04707 -0.0314397 0)
(2.07271 -0.0302497 0)
(2.09764 -0.0287587 0)
(2.1216 -0.0268152 -1.39755e-18)
(2.14425 -0.0241676 0)
(2.16492 -0.0204107 0)
(2.18337 -0.0147522 -2.81632e-18)
(2.19681 -0.00587464 1.41818e-18)
(2.2115 0.0088796 -1.41629e-18)
(2.2064 0.0362583 1.41175e-18)
(0.0334422 -1.16644 0)
(0.0699293 -1.03048 3.59803e-19)
(0.0342469 -0.747487 0)
(-0.0101485 -0.506995 1.10865e-19)
(-0.0654097 -0.284273 0)
(-0.133193 -0.0746788 0)
(-0.21635 0.122187 -8.28419e-20)
(-0.317254 0.305589 0)
(-0.438031 0.475081 0)
(-0.581282 0.631214 0)
(-0.750863 0.77651 0)
(-0.951992 0.917064 0)
(-1.18733 1.061 2.04335e-19)
(-1.45134 1.21179 9.24928e-20)
(-1.72956 1.36318 -8.37312e-20)
(-2.0036 1.50185 0)
(-2.25769 1.61391 0)
(-2.48175 1.69002 0)
(-2.67098 1.72641 0)
(-2.82397 1.72438 0)
(-2.94326 1.68777 6.01699e-20)
(-3.03439 1.62182 5.88507e-20)
(-3.10345 1.53335 -5.79952e-20)
(-3.15679 1.43001 5.76912e-20)
(-3.19979 1.31851 0)
(-3.23682 1.20428 0)
(-3.27134 1.09168 5.58396e-20)
(-3.30571 0.983999 0)
(-3.34121 0.883365 0)
(-3.37836 0.790825 5.86938e-20)
(-3.41715 0.706623 6.15133e-20)
(-3.45726 0.630533 6.22251e-20)
(-3.49814 0.562026 0)
(-3.53918 0.500406 0)
(-3.57976 0.444913 -6.40361e-20)
(-3.61932 0.394788 0)
(-3.65738 0.349322 0)
(-3.6935 0.307869 6.43094e-20)
(-3.72736 0.269866 -6.60305e-20)
(-3.75866 0.234822 6.60412e-20)
(-3.78719 0.202323 0)
(-3.81276 0.172018 0)
(-3.83522 0.143611 1.30016e-19)
(-3.85444 0.116849 0)
(-3.87031 0.0915228 1.28628e-19)
(-3.88273 0.0674542 1.91039e-19)
(-3.89164 0.0444995 -1.89397e-19)
(-3.89696 0.0225382 1.25331e-19)
(-3.89865 0.00145342 0)
(-3.8967 -0.0188711 0)
(-3.89117 -0.0385135 1.19875e-19)
(-3.88209 -0.0574929 5.84065e-20)
(-3.86951 -0.0758052 0)
(-3.85345 -0.0934493 0)
(-3.83397 -0.110425 5.49002e-20)
(-3.81109 -0.126731 1.08251e-19)
(-3.78489 -0.142366 0)
(-3.75542 -0.157327 -1.01798e-19)
(-3.72275 -0.171612 9.99684e-20)
(-3.68696 -0.185214 -9.69964e-20)
(-3.64813 -0.198129 0)
(-3.60634 -0.210352 0)
(-3.5617 -0.221878 0)
(-3.5143 -0.232703 0)
(-3.46425 -0.242833 0)
(-3.41164 -0.252267 -7.59226e-20)
(-3.35659 -0.261005 0)
(-3.2992 -0.269052 0)
(-3.23961 -0.276413 0)
(-3.17791 -0.2831 -1.2262e-19)
(-3.11424 -0.289121 -5.67025e-20)
(-3.0487 -0.294489 -5.26011e-20)
(-2.98143 -0.299218 9.80369e-20)
(-2.91253 -0.303323 -4.53608e-20)
(-2.84214 -0.306822 3.98087e-20)
(-2.77037 -0.309733 0)
(-2.69734 -0.312076 -3.08857e-20)
(-2.62317 -0.313871 0)
(-2.54798 -0.31514 0)
(-2.47187 -0.315907 0)
(-2.39497 -0.316193 -2.5484e-20)
(-2.31738 -0.316023 8.48195e-21)
(-2.2392 -0.31542 4.76432e-21)
(-2.16055 -0.314411 -2.98892e-21)
(-2.08152 -0.313018 -2.10179e-20)