/*--------------------------------*- C++ -*----------------------------------*\
  =========                 |
  \\      /  F ield         | OpenFOAM: The Open Source CFD Toolbox
   \\    /   O peration     | Website:  https://openfoam.org
    \\  /    A nd           | Version:  8
     \\/     M anipulation  |
\*---------------------------------------------------------------------------*/
FoamFile
{
    version     2.0;
    format      ascii;
    class       volVectorField;
    location    "3500";
    object      U;
}
// * * * * * * * * * * * * * * * * * * * * * * * * * * * * * * * * * * * * * //

dimensions      [0 1 -1 0 0 0 0];

internalField   nonuniform List<vector> 
12225
(
(9.2745 -4.73371 0)
(13.1094 -1.71343 0)
(12.4778 -0.395197 0)
(11.2771 -0.0422039 0)
(10.6314 0.0141386 0)
(10.2979 -9.37298e-05 0)
(10.0776 -0.0165231 0)
(9.91228 -0.00288792 0)
(9.7791 0.0348752 0)
(9.66232 0.0428935 0)
(9.55575 0.0248839 0)
(9.45768 0.00214282 0)
(9.36677 -0.0227917 0)
(9.28214 -0.0302258 0)
(9.20236 -0.0217879 0)
(9.13258 -0.0212312 0)
(9.07026 -0.0210418 0)
(9.08961 -0.0277425 0)
(10.2592 0.0928019 0)
(10.7814 0.199339 0)
(10.9594 0.245656 0)
(10.7469 0.229144 0)
(10.5875 0.172969 0)
(10.4527 0.115535 0)
(10.33 0.0823317 0)
(10.2327 0.0647303 0)
(10.155 0.0524771 0)
(10.0894 0.0472343 0)
(10.0324 0.0469932 0)
(9.98213 0.0489903 0)
(9.93786 0.051797 0)
(9.89835 0.0519407 0)
(9.86153 0.0483212 0)
(9.82889 0.0438334 0)
(9.79434 0.0300675 0)
(9.76832 0.0102271 0)
(9.87768 -0.24504 0)
(9.74285 0.00579127 0)
(10.1971 0.125744 0)
(10.3245 0.179364 0)
(10.3564 0.161548 0)
(10.3311 0.120077 0)
(10.2777 0.0904943 0)
(10.2252 0.0746661 0)
(10.1812 0.0658756 0)
(10.1438 0.0600292 0)
(10.1103 0.0562086 0)
(10.0799 0.0536506 0)
(10.052 0.0511351 0)
(10.026 0.0487593 0)
(10.0023 0.04607 0)
(9.98121 0.0417562 0)
(9.9592 0.0316499 0)
(9.93463 0.0135269 0)
(9.83416 -0.443933 0)
(9.57654 -0.163146 0)
(9.91603 0.0336709 0)
(10.0933 0.134225 0)
(10.1892 0.145473 0)
(10.2168 0.120739 0)
(10.205 0.0978954 0)
(10.1824 0.0839096 0)
(10.1599 0.0756297 0)
(10.1389 0.0697122 0)
(10.119 0.065134 0)
(10.1002 0.0616364 0)
(10.0821 0.0586109 0)
(10.0648 0.056225 0)
(10.0483 0.0538472 0)
(10.0326 0.0501308 0)
(10.0148 0.0423947 0)
(9.99181 0.0305685 0)
(9.87825 -0.387476 0)
(9.61653 -0.196147 0)
(9.81623 -0.0186698 0)
(9.96136 0.0916134 0)
(10.0698 0.122197 0)
(10.1219 0.113628 0)
(10.1354 0.0992643 0)
(10.1332 0.088421 0)
(10.1257 0.0809482 0)
(10.1162 0.075396 0)
(10.1056 0.071123 0)
(10.0946 0.0678799 0)
(10.0833 0.0652508 0)
(10.0718 0.0631509 0)
(10.0601 0.0610354 0)
(10.0478 0.058091 0)
(10.0329 0.0530564 0)
(10.0125 0.0468641 0)
(9.91439 -0.28804 0)
(9.68304 -0.185176 0)
(9.78717 -0.0532071 0)
(9.88917 0.0509997 0)
(9.98796 0.0936803 0)
(10.0476 0.0992041 0)
(10.0751 0.0938742 0)
(10.0861 0.0875178 0)
(10.0892 0.0821199 0)
(10.0879 0.0777635 0)
(10.0842 0.0743491 0)
(10.0789 0.0717574 0)
(10.0726 0.0697375 0)
(10.0654 0.0681652 0)
(10.0572 0.0667153 0)
(10.0476 0.065027 0)
(10.0354 0.0627592 0)
(10.0185 0.0611363 0)
(9.93763 -0.214041 0)
(9.74856 -0.167535 0)
(9.79244 -0.075215 0)
(9.85608 0.0162209 0)
(9.93595 0.0644222 0)
(9.99281 0.0805953 0)
(10.0261 0.0835611 0)
(10.0447 0.082243 0)
(10.0546 0.0797785 0)
(10.0593 0.077286 0)
(10.0606 0.0751736 0)
(10.0596 0.0735556 0)
(10.057 0.0723841 0)
(10.0531 0.0716276 0)
(10.0477 0.0711794 0)
(10.0407 0.0709996 0)
(10.0312 0.0712555 0)
(10.0183 0.0731221 0)
(9.95263 -0.167334 0)
(9.79947 -0.149676 0)
(9.81177 -0.0846409 0)
(9.84959 -0.00620994 0)
(9.91141 0.0419322 0)
(9.96107 0.0638971 0)
(9.99432 0.0725497 0)
(10.0156 0.0752856 0)
(10.0289 0.0755288 0)
(10.0367 0.0749017 0)
(10.041 0.0741451 0)
(10.0427 0.0735778 0)
(10.0426 0.0733174 0)
(10.0408 0.0734405 0)
(10.0375 0.0739943 0)
(10.0325 0.0751205 0)
(10.0254 0.0771836 0)
(10.0157 0.0811778 0)
(9.96406 -0.132089 0)
(9.84003 -0.131988 0)
(9.83337 -0.0876896 0)
(9.85306 -0.0213324 0)
(9.89927 0.0244158 0)
(9.94102 0.049513 0)
(9.97207 0.062123 0)
(9.99385 0.0680761 0)
(10.0086 0.0706947 0)
(10.0184 0.0717926 0)
(10.0246 0.0723146 0)
(10.0282 0.0727493 0)
(10.0298 0.0733544 0)
(10.0297 0.0743106 0)
(10.028 0.0757756 0)
(10.0248 0.0779925 0)
(10.0197 0.0813912 0)
(10.0129 0.0867839 0)
(9.97418 -0.100205 0)
(9.87757 -0.112389 0)
(9.85857 -0.0853659 0)
(9.86387 -0.0323326 0)
(9.89487 0.00892906 0)
(9.92743 0.0352239 0)
(9.95439 0.0507167 0)
(9.97502 0.0594961 0)
(9.99015 0.0644427 0)
(10.0009 0.0673572 0)
(10.0085 0.0692949 0)
(10.0135 0.0708734 0)
(10.0166 0.0724703 0)
(10.018 0.0743608 0)
(10.0179 0.0767907 0)
(10.0165 0.0800619 0)
(10.0136 0.0846 0)
(10.0095 0.091022 0)
(9.98253 -0.072709 0)
(9.91035 -0.092196 0)
(9.88507 -0.0782439 0)
(9.88001 -0.0386072 0)
(9.89746 -0.00337379 0)
(9.92043 0.0221689 0)
(9.94196 0.039184 0)
(9.95999 0.0500802 0)
(9.97425 0.0570548 0)
(9.98518 0.0617028 0)
(9.99339 0.0650763 0)
(9.99942 0.067859 0)
(10.0037 0.0705103 0)
(10.0064 0.0733764 0)
(10.0078 0.0767593 0)
(10.0081 0.0809787 0)
(10.0073 0.0864085 0)
(10.0058 0.093485 0)
(9.98894 -0.0502565 0)
(9.93733 -0.0723779 0)
(9.91073 -0.0674478 0)
(9.89917 -0.0399824 0)
(9.90566 -0.0116496 0)
(9.91955 0.0114522 0)
(9.93497 0.0285303 0)
(9.94934 0.0405796 0)
(9.9617 0.0490231 0)
(9.97188 0.0551094 0)
(9.98009 0.0597766 0)
(9.98659 0.0636985 0)
(9.99164 0.0673655 0)
(9.99544 0.0711568 0)
(9.9982 0.0753936 0)
(10.0001 0.0803786 0)
(10.0013 0.0864122 0)
(10.0021 0.0937779 0)
(9.99348 -0.0329084 0)
(9.9582 -0.0538107 0)
(9.93368 -0.0542831 0)
(9.91898 -0.0367869 0)
(9.91755 -0.0154531 0)
(9.92366 0.00399494 0)
(9.93301 0.0197752 0)
(9.94318 0.0318759 0)
(9.9529 0.0410093 0)
(9.96163 0.0480185 0)
(9.96922 0.0536443 0)
(9.9757 0.0584795 0)
(9.98118 0.0629869 0)
(9.98578 0.0675344 0)
(9.98965 0.0724256 0)
(9.99294 0.0779207 0)
(9.99587 0.0842418 0)
(9.99869 0.0915602 0)
(9.99643 -0.0202023 0)
(9.97327 -0.0372095 0)
(9.95261 -0.040045 0)
(9.93731 -0.0298102 0)
(9.9309 -0.0148232 0)
(9.93102 0.000366617 0)
(9.93504 0.013774 0)
(9.94105 0.024842 0)
(9.94782 0.0337576 0)
(9.95465 0.0409891 0)
(9.96117 0.0470468 0)
(9.96724 0.0523909 0)
(9.97281 0.0574064 0)
(9.9779 0.0624086 0)
(9.98261 0.0676516 0)
(9.98704 0.0733375 0)
(9.99135 0.0796173 0)
(9.99573 0.0865843 0)
(9.99816 -0.0112874 0)
(9.9833 -0.0229302 0)
(9.96682 -0.0257622 0)
(9.95243 -0.0200762 0)
(9.94344 -0.0102414 0)
(9.93953 0.000675073 0)
(9.9394 0.0110297 0)
(9.94183 0.0201432 0)
(9.94582 0.0279238 0)
(9.95069 0.0345698 0)
(9.95597 0.0403827 0)
(9.96139 0.0456725 0)
(9.96681 0.0507171 0)
(9.97216 0.0557485 0)
(9.97744 0.0609509 0)
(9.9827 0.0664609 0)
(9.98803 0.0723677 0)
(9.99353 0.0787122 0)
(9.99906 -0.00508061 0)
(9.98922 -0.0107804 0)
(9.97612 -0.0119163 0)
(9.96309 -0.0084822 0)
(9.9531 -0.00243427 0)
(9.94686 0.00457879 0)
(9.94399 0.0115572 0)
(9.94384 0.0180199 0)
(9.9457 0.0238376 0)
(9.94896 0.0290788 0)
(9.95317 0.0338989 0)
(9.95799 0.0384747 0)
(9.96321 0.0429709 0)
(9.96868 0.0475249 0)
(9.97435 0.0522408 0)
(9.98019 0.0571886 0)
(9.98623 0.0624034 0)
(9.99249 0.0678879 0)
(9.99942 -0.000366979 0)
(9.99181 0.000152129 0)
(9.98042 0.00183292 0)
(9.96821 0.0045943 0)
(9.9579 0.00792061 0)
(9.95061 0.0114018 0)
(9.94642 0.0148166 0)
(9.94498 0.018088 0)
(9.94576 0.0212328 0)
(9.94825 0.0243171 0)
(9.95198 0.0274222 0)
(9.95661 0.0306252 0)
(9.96186 0.0339884 0)
(9.96757 0.0375559 0)
(9.97361 0.0413514 0)
(9.97993 0.0453799 0)
(9.98648 0.0496269 0)
(9.99325 0.054063 0)
(9.99935 0.00408505 0)
(9.9911 0.0111736 0)
(9.97897 0.016134 0)
(9.96616 0.0187374 0)
(9.95552 0.0196135 0)
(9.94819 0.0195468 0)
(9.94419 0.0191596 0)
(9.94311 0.018862 0)
(9.94438 0.0188943 0)
(9.94741 0.0193739 0)
(9.95174 0.0203416 0)
(9.95698 0.021792 0)
(9.96287 0.0236944 0)
(9.96919 0.0260038 0)
(9.97583 0.0286689 0)
(9.98269 0.0316328 0)
(9.98973 0.0348379 0)
(9.99691 0.0382233 0)
(9.99882 0.00972998 0)
(9.98675 0.0240493 0)
(9.97122 0.0318474 0)
(9.95641 0.0332947 0)
(9.94558 0.030705 0)
(9.93942 0.0263507 0)
(9.93734 0.0217476 0)
(9.93845 0.0177382 0)
(9.94186 0.0146932 0)
(9.94687 0.0127084 0)
(9.95292 0.0117279 0)
(9.95963 0.0116331 0)
(9.96674 0.0122845 0)
(9.97408 0.0135465 0)
(9.98155 0.0152937 0)
(9.98908 0.0174166 0)
(9.99664 0.0198183 0)
(10.0042 0.0224156 0)
(9.99757 0.0182102 0)
(9.97773 0.0404558 0)
(9.95664 0.0495784 0)
(9.93945 0.0474797 0)
(9.92961 0.0394248 0)
(9.92659 0.0296477 0)
(9.92848 0.0204903 0)
(9.93357 0.0129659 0)
(9.94055 0.00734686 0)
(9.94856 0.00351487 0)
(9.95704 0.00121934 0)
(9.96567 0.000170272 0)
(9.97428 0.000104157 0)
(9.98276 0.000787598 0)
(9.99109 0.00203319 0)
(9.99925 0.0036889 0)
(10.0073 0.00563148 0)
(10.0151 0.0077654 0)
(9.99502 0.0318146 0)
(9.96177 0.0621342 0)
(9.93372 0.0695522 0)
(9.91534 0.060116 0)
(9.90932 0.0439518 0)
(9.91249 0.0276608 0)
(9.92084 0.0139937 0)
(9.93162 0.00363817 0)
(9.94322 -0.00364454 0)
(9.95479 -0.00837746 0)
(9.96594 -0.0111348 0)
(9.97652 -0.0123983 0)
(9.98651 -0.0125742 0)
(9.99595 -0.0119633 0)
(10.0049 -0.0108004 0)
(10.0135 -0.009262 0)
(10.0217 -0.00747514 0)
(10.0296 -0.00553984 0)
(9.99018 0.0534619 0)
(9.93561 0.0901523 0)
(9.90098 0.0906284 0)
(9.88515 0.0687576 0)
(9.8878 0.0418195 0)
(9.90121 0.0186588 0)
(9.91856 0.00141693 0)
(9.93626 -0.0103977 0)
(9.95285 -0.0179435 0)
(9.96786 -0.0223969 0)
(9.98129 -0.0246532 0)
(9.99332 -0.0253941 0)
(10.0042 -0.0250979 0)
(10.0141 -0.0241223 0)
(10.0232 -0.0227043 0)
(10.0318 -0.0210127 0)
(10.0399 -0.019169 0)
(10.0475 -0.0172456 0)
(9.9819 0.0862472 0)
(9.89548 0.124258 0)
(9.85817 0.109884 0)
(9.85209 0.0697744 0)
(9.87033 0.0303384 0)
(9.89842 0.00144892 0)
(9.92658 -0.017205 0)
(9.95134 -0.028322 0)
(9.9722 -0.0344223 0)
(9.9896 -0.037333 0)
(10.0043 -0.0382102 0)
(10.0168 -0.0378024 0)
(10.0276 -0.0366186 0)
(10.0372 -0.0349825 0)
(10.0459 -0.0330942 0)
(10.0539 -0.0310986 0)
(10.0613 -0.0290835 0)
(10.0683 -0.0270884 0)
(9.96925 0.13399 0)
(9.83823 0.163089 0)
(9.80793 0.122591 0)
(9.82311 0.0588003 0)
(9.86512 0.00730846 0)
(9.91138 -0.0240265 0)
(9.95035 -0.040591 0)
(9.98048 -0.0483725 0)
(10.0034 -0.0512376 0)
(10.0212 -0.0515406 0)
(10.0353 -0.0504187 0)
(10.0469 -0.0485135 0)
(10.0565 -0.0462541 0)
(10.0649 -0.0438631 0)
(10.0722 -0.0414402 0)
(10.0789 -0.0390947 0)
(10.0852 -0.0369068 0)
(10.0911 -0.0348401 0)
(9.94951 0.207141 0)
(9.76128 0.207022 0)
(9.75726 0.123478 0)
(9.81042 0.0320113 0)
(9.88382 -0.0278607 0)
(9.94874 -0.0559947 0)
(9.99526 -0.0660731 0)
(10.0266 -0.0678025 0)
(10.048 -0.0659744 0)
(10.063 -0.0631943 0)
(10.0743 -0.0598879 0)
(10.083 -0.0564909 0)
(10.09 -0.0531451 0)
(10.0959 -0.0501328 0)
(10.101 -0.0472996 0)
(10.1056 -0.0446907 0)
(10.1099 -0.0424093 0)
(10.1141 -0.0403225 0)
(9.91094 0.322718 0)
(9.65923 0.254545 0)
(9.71887 0.107407 0)
(9.83329 -0.0119228 0)
(9.94173 -0.0726523 0)
(10.0199 -0.0901623 0)
(10.0662 -0.0893225 0)
(10.0917 -0.0831393 0)
(10.1058 -0.0760388 0)
(10.1141 -0.0696194 0)
(10.1198 -0.0644955 0)
(10.1236 -0.0600713 0)
(10.1262 -0.0563679 0)
(10.1281 -0.0532433 0)
(10.1298 -0.0502674 0)
(10.1313 -0.047521 0)
(10.1327 -0.0454762 0)
(10.1344 -0.0437643 0)
(9.84404 0.43511 0)
(9.53798 0.261026 0)
(9.7269 0.0591351 0)
(9.92367 -0.0731152 0)
(10.0584 -0.121552 0)
(10.1344 -0.120191 0)
(10.1664 -0.10528 0)
(10.1758 -0.090618 0)
(10.1759 -0.0784822 0)
(10.1726 -0.0703763 0)
(10.1686 -0.0644368 0)
(10.1647 -0.0597462 0)
(10.1605 -0.0556572 0)
(10.1569 -0.0525264 0)
(10.1537 -0.0496169 0)
(10.1503 -0.0470404 0)
(10.1474 -0.0456853 0)
(10.1459 -0.0445989 0)
(9.83598 0.319666 0)
(9.55021 0.0912513 0)
(9.91739 -0.0687253 0)
(10.1507 -0.160112 0)
(10.2634 -0.172136 0)
(10.3032 -0.142727 0)
(10.2978 -0.112095 0)
(10.276 -0.0899556 0)
(10.2516 -0.0753868 0)
(10.2302 -0.0674555 0)
(10.2133 -0.0619477 0)
(10.1984 -0.0574306 0)
(10.1843 -0.0528249 0)
(10.1715 -0.0488604 0)
(10.16 -0.0447552 0)
(10.1489 -0.0416442 0)
(10.1402 -0.0415884 0)
(10.1334 -0.0408167 0)
(10.2049 -0.0633775 0)
(10.4095 -0.191706 0)
(10.7164 -0.282558 0)
(10.6879 -0.282287 0)
(10.6191 -0.230103 0)
(10.5417 -0.163668 0)
(10.4545 -0.117043 0)
(10.3763 -0.0925008 0)
(10.3136 -0.0798651 0)
(10.2654 -0.0678725 0)
(10.2262 -0.0589161 0)
(10.1917 -0.0543432 0)
(10.1604 -0.0537986 0)
(10.1328 -0.0528244 0)
(10.1062 -0.0521461 0)
(10.0824 -0.0502686 0)
(10.0655 -0.0436621 0)
(10.048 -0.0397601 0)
(9.41631 4.45107 0)
(12.7294 2.07612 0)
(12.5649 0.621213 0)
(11.569 0.127657 0)
(10.9309 0.00343482 0)
(10.5866 -0.00206725 0)
(10.3638 0.0123112 0)
(10.2022 0.0302342 0)
(10.0795 0.0412055 0)
(9.97729 0.0358183 0)
(9.88479 0.0251024 0)
(9.79875 0.022236 0)
(9.72286 0.025556 0)
(9.65542 0.0224071 0)
(9.59907 0.0206743 0)
(9.55135 0.0163074 0)
(9.49737 -0.00758138 0)
(9.44492 -0.027127 0)
(-0.0275254 0.0934424 0)
(0.137009 -0.183505 0)
(0.324974 -0.305895 0)
(0.525461 -0.315119 0)
(0.70294 -0.272076 0)
(0.833493 -0.211085 0)
(0.909817 -0.146346 -8.60174e-20)
(0.940403 -0.0825022 8.6641e-20)
(0.919538 -0.0201804 0)
(0.85886 0.0345303 9.18609e-20)
(0.771707 0.0739552 0)
(0.672446 0.0920036 0)
(0.578521 0.0877255 0)
(0.505715 0.066667 -1.43197e-19)
(0.455759 0.0377147 0)
(0.412418 0.00997828 0)
(0.352894 -0.00897094 1.87919e-19)
(0.262747 -0.00868542 0)
(0.135216 0.0292819 0)
(-0.044747 0.112917 0)
(-0.30044 0.18647 -1.6484e-19)
(-0.594129 0.235247 0)
(-0.915541 0.266809 -7.62449e-20)
(-1.25179 0.296022 0)
(-1.59122 0.323645 0)
(-1.93096 0.33646 -4.13233e-20)
(-2.26338 0.335614 0)
(-2.5805 0.326494 3.45407e-20)
(-2.87928 0.310358 0)
(-3.1563 0.289559 -3.13414e-20)
(-3.41066 0.266423 0)
(-3.64196 0.242543 0)
(-3.85094 0.218953 0)
(-4.03868 0.196358 0)
(-4.20664 0.175136 0)
(-4.35636 0.155493 2.82294e-20)
(-4.48943 0.137465 0)
(-4.60734 0.12098 -5.55703e-20)
(-4.71148 0.105911 0)
(-4.80305 0.0920988 5.47716e-20)
(-4.88311 0.0793811 0)
(-4.95257 0.067606 0)
(-5.01217 0.0566454 -5.35497e-20)
(-5.06254 0.0464029 0)
(-5.10418 0.0368189 -5.2658e-20)
(-5.1375 0.0278763 5.21802e-20)
(-5.1629 0.0196195 0)
(-5.18077 0.0121961 5.11533e-20)
(-5.19138 0.005854 5.06009e-20)
(-5.19491 0.000803769 0)
(-5.19259 -0.00315013 0)
(-5.18568 -0.00644849 0)
(-5.1743 -0.00937099 0)
(-5.15878 -0.0120818 0)
(-5.13928 -0.0146504 -4.61816e-20)
(-5.11594 -0.0170906 0)
(-5.08887 -0.0194135 4.43165e-20)
(-5.05818 -0.0216283 0)
(-5.02396 -0.0237371 0)
(-4.98633 -0.0257419 -4.11386e-20)
(-4.94538 -0.0276429 0)
(-4.90122 -0.0294403 3.8763e-20)
(-4.85396 -0.0311338 0)
(-4.80372 -0.0327234 0)
(-4.75061 -0.034209 0)
(-4.69475 -0.0355906 -3.33837e-20)
(-4.63627 -0.0368684 0)
(-4.57528 -0.0380436 0)
(-4.51192 -0.0391166 -2.87865e-20)
(-4.44632 -0.0400882 0)
(-4.3786 -0.0409597 -2.54453e-20)
(-4.3089 -0.0417324 0)
(-4.23735 -0.0424079 0)
(-4.16409 -0.0429878 0)
(-4.08923 -0.0434742 1.80681e-20)
(-4.01292 -0.043869 0)
(-3.93528 -0.0441745 0)
(-3.85644 -0.0443933 1.18864e-20)
(-3.77652 -0.0445281 9.6927e-21)
(-3.69564 -0.0445818 0)
(-3.61393 -0.0445577 5.09122e-21)
(-3.5315 -0.0444593 0)
(-3.44846 -0.0442909 3.671e-22)
(-3.36492 -0.0440573 0)
(-3.28097 -0.043765 -1.01221e-20)
(-3.19673 -0.0434224 0)
(-3.11226 -0.0430423 2.13643e-20)
(-3.02767 -0.0426433 0)
(-2.94301 -0.0422537 0)
(-2.85834 -0.0419163 0)
(-2.7737 -0.0416935 -4.65555e-20)
(-2.68912 -0.0416678 0)
(-2.60461 -0.0419291 6.083e-20)
(-2.52013 -0.0425338 0)
(-2.43563 -0.0434234 -7.64991e-20)
(-2.35139 -0.0443264 -8.48773e-20)
(-2.26762 -0.0447819 -9.35853e-20)
(-2.1846 -0.0445746 0)
(-2.10248 -0.0439699 0)
(-2.02131 -0.0432715 0)
(-1.94107 -0.0425665 0)
(-1.86178 -0.0418662 0)
(-1.78347 -0.0411716 0)
(-1.70615 -0.0404845 0)
(-1.62987 -0.0398087 0)
(-1.55463 -0.0391499 1.92691e-19)
(-1.48045 -0.0385152 2.0701e-19)
(-1.40735 -0.0379099 0)
(-1.33534 -0.0373232 0)
(-1.26445 -0.0366978 0)
(-1.19472 -0.03604 2.74272e-19)
(-1.12615 -0.0354057 0)
(-1.05874 -0.0347899 0)
(-0.992487 -0.0341941 0)
(-0.927404 -0.0336198 0)
(-0.863486 -0.0330691 -3.90897e-19)
(-0.800733 -0.0325445 0)
(-0.739139 -0.0320492 0)
(-0.678698 -0.0315867 4.89062e-19)
(-0.619404 -0.0311585 -5.28754e-19)
(-0.561249 -0.030768 0)
(-0.504227 -0.0304259 -6.22347e-19)
(-0.448323 -0.0301559 0)
(-0.39352 -0.0300025 7.41301e-19)
(-0.339795 -0.0299767 0)
(-0.287135 -0.0300402 0)
(-0.235525 -0.0301798 0)
(-0.184935 -0.0304065 0)
(-0.135342 -0.0307358 0)
(-0.0867875 -0.0311866 -2.84593e-18)
(-0.0394833 -0.0316409 -3.27644e-18)
(0.0066222 -0.031344 0)
(0.0520386 -0.029849 0)
(0.0967783 -0.0279991 0)
(0.1407 -0.0262813 2.68534e-18)
(0.18371 -0.0247486 0)
(0.225789 -0.0233754 0)
(0.266958 -0.022138 0)
(0.30725 -0.0210167 2.04021e-18)
(0.346696 -0.0199942 -1.9339e-18)
(0.385324 -0.0190563 0)
(0.423161 -0.0181915 0)
(0.46023 -0.0173907 -1.68705e-18)
(0.496556 -0.0166463 -1.62236e-18)
(0.532162 -0.0159521 0)
(0.567071 -0.0153031 0)
(0.601305 -0.0146949 1.46404e-18)
(0.634888 -0.0141238 -1.42054e-18)
(0.667842 -0.0135869 0)
(0.700189 -0.0130813 0)
(0.731952 -0.0126048 -1.31023e-18)
(0.763154 -0.0121554 0)
(0.793818 -0.0117314 0)
(0.823967 -0.0113312 -1.2227e-18)
(0.853623 -0.0109534 0)
(0.882811 -0.0105968 -1.17361e-18)
(0.911553 -0.0102602 0)
(0.939872 -0.00994262 0)
(0.967793 -0.00964291 0)
(0.995336 -0.00936003 1.0916e-18)
(1.02252 -0.00909286 0)
(1.04938 -0.00884014 0)
(1.07591 -0.00860041 0)
(1.10215 -0.00837189 0)
(1.12809 -0.00815229 0)
(1.15374 -0.00793873 0)
(1.17909 -0.00772731 9.82774e-19)
(1.20412 -0.00751291 9.69851e-19)
(1.2288 -0.0072885 0)
(1.25304 -0.00704459 0)
(1.27676 -0.00676763 0)
(1.29977 -0.00643904 -9.24496e-19)
(1.32185 -0.0060291 0)
(1.34259 -0.00549905 1.81388e-18)
(1.36153 -0.0047619 -1.8005e-18)
(1.37727 -0.00372616 -1.79177e-18)
(1.38986 -0.00195475 1.79007e-18)
(1.39028 0.00132698 -1.79545e-18)
(1.38758 0.00807491 1.80877e-18)
(1.30831 0.0198888 0)
(0.0963147 -0.268959 0)
(0.33407 -0.68126 0)
(0.514179 -0.706527 1.57358e-19)
(0.611823 -0.571359 0)
(0.662824 -0.408914 -1.11137e-19)
(0.683268 -0.253844 -1.08102e-19)
(0.677246 -0.112194 -5.62534e-20)
(0.646878 0.0155632 -5.61985e-20)
(0.603905 0.125383 0)
(0.544715 0.211907 -6.08063e-20)
(0.467909 0.26739 0)
(0.37343 0.283201 0)
(0.257636 0.256441 1.70483e-19)
(0.110315 0.211439 9.82788e-20)
(-0.0746984 0.206266 -1.84467e-19)
(-0.300951 0.271795 -1.43809e-19)
(-0.578911 0.38336 -5.71941e-20)
(-0.904827 0.513193 0)
(-1.25841 0.642558 0)
(-1.61651 0.756394 0)
(-1.97213 0.841962 -2.85764e-20)
(-2.31772 0.89554 0)
(-2.64762 0.919034 6.90651e-20)
(-2.95435 0.915464 0)
(-3.23386 0.889034 0)
(-3.48451 0.844874 1.98197e-20)
(-3.70489 0.788311 0)
(-3.89585 0.724878 -1.97619e-20)
(-4.05925 0.658804 -4.1798e-20)
(-4.19864 0.592803 2.01687e-20)
(-4.31694 0.528977 0)
(-4.41704 0.469108 0)
(-4.50166 0.414027 0)
(-4.57319 0.364086 -4.42593e-20)
(-4.63371 0.319246 -4.47657e-20)
(-4.68489 0.279235 -2.21901e-20)
(-4.72812 0.243642 0)
(-4.76451 0.211986 4.53079e-20)
(-4.79495 0.183767 0)
(-4.82016 0.158507 -4.58796e-20)
(-4.84072 0.135763 0)
(-4.85713 0.115142 0)
(-4.86981 0.0963019 4.60902e-20)
(-4.87913 0.0789532 0)
(-4.88543 0.0628551 1.38172e-19)
(-4.88903 0.0478133 -4.56107e-20)
(-4.89021 0.0336922 0)
(-4.88919 0.0204614 -4.49416e-20)
(-4.88626 0.00823702 -4.4485e-20)
(-4.88168 -0.00281883 0)
(-4.87453 -0.0127618 0)
(-4.8637 -0.0218878 0)
(-4.8492 -0.0304401 0)
(-4.83091 -0.0385331 0)
(-4.80887 -0.0462366 4.02192e-20)
(-4.78313 -0.0535874 7.91688e-20)
(-4.75378 -0.0606068 -3.84419e-20)
(-4.72089 -0.067306 0)
(-4.68456 -0.0736908 7.34907e-20)
(-4.64488 -0.0797638 -3.5969e-20)
(-4.60194 -0.0855257 0)
(-4.55585 -0.0909763 -3.32691e-20)
(-4.50671 -0.0961155 0)
(-4.45464 -0.100945 0)
(-4.39974 -0.105466 -5.98966e-20)
(-4.34214 -0.109678 2.83877e-20)
(-4.28194 -0.113582 -5.47051e-20)
(-4.21927 -0.117182 5.19864e-20)
(-4.15427 -0.12048 2.42962e-20)
(-4.08704 -0.123481 0)
(-4.01773 -0.12619 2.13633e-20)
(-3.94645 -0.128613 0)
(-3.87333 -0.130757 0)
(-3.79851 -0.132629 0)
(-3.72212 -0.134236 1.5637e-20)
(-3.64427 -0.135589 0)
(-3.56509 -0.136696 2.37712e-20)
(-3.48471 -0.137566 -2.99811e-20)
(-3.40324 -0.138211 -7.94408e-21)
(-3.32082 -0.13864 0)
(-3.23754 -0.138866 -4.14354e-21)
(-3.15354 -0.138899 0)
(-3.0689 -0.138751 -2.96503e-22)
(-2.98375 -0.138435 0)
(-2.89818 -0.137962 8.10917e-21)
(-2.81228 -0.137345 -2.35603e-20)
(-2.72616 -0.136594 -1.69622e-20)
(-2.63991 -0.135721 0)
(-2.55361 -0.134734 0)
(-2.46736 -0.133637 0)
(-2.38125 -0.132431 3.618e-20)
(-2.29539 -0.131108 0)
(-2.20993 -0.129638 -4.66513e-20)
(-2.12501 -0.127967 0)
(-2.04077 -0.126041 1.71866e-19)
(-1.95728 -0.123886 6.36272e-20)
(-1.87456 -0.121603 6.96584e-20)
(-1.79254 -0.119298 0)
(-1.71122 -0.11703 0)
(-1.63062 -0.114796 0)
(-1.55084 -0.112573 0)
(-1.47191 -0.110349 0)
(-1.39388 -0.108118 2.19479e-19)
(-1.31678 -0.105881 2.34971e-19)
(-1.24064 -0.103642 0)
(-1.16548 -0.101403 -1.34753e-19)
(-1.09134 -0.0991668 -1.43532e-19)
(-1.01824 -0.0969356 0)
(-0.9462 -0.0947113 -3.23018e-19)
(-0.875239 -0.0924983 0)
(-0.805349 -0.0903101 1.81313e-19)
(-0.73654 -0.0881524 0)
(-0.668824 -0.0860256 0)
(-0.602203 -0.083932 -4.34424e-19)
(-0.536682 -0.0818731 0)
(-0.47226 -0.0798504 2.44817e-19)
(-0.408937 -0.0778669 0)
(-0.346713 -0.0759283 0)
(-0.285582 -0.0740435 2.89749e-19)
(-0.225533 -0.0722106 3.09052e-19)
(-0.166562 -0.070424 0)
(-0.108661 -0.0686869 -3.46342e-19)
(-0.0518357 -0.0669993 0)
(0.00391626 -0.0653527 3.82632e-19)
(0.0586367 -0.0637403 7.66231e-19)
(0.112359 -0.0621732 0)
(0.165084 -0.0606664 0)
(0.216813 -0.0592242 0)
(0.267558 -0.0578444 0)
(0.317355 -0.0565293 7.09269e-19)
(0.366272 -0.0552679 2.09653e-18)
(0.414396 -0.0538904 0)
(0.461639 -0.0522462 0)
(0.507863 -0.050473 0)
(0.553134 -0.0487269 -6.65648e-19)
(0.597536 -0.0470598 0)
(0.641096 -0.0454803 0)
(0.683833 -0.0439857 1.28796e-18)
(0.725766 -0.0425696 6.36962e-19)
(0.766917 -0.0412246 6.32436e-19)
(0.807308 -0.039944 0)
(0.846961 -0.0387224 0)
(0.885895 -0.0375554 6.15888e-19)
(0.924134 -0.0364392 -6.0965e-19)
(0.961698 -0.0353709 0)
(0.998608 -0.0343481 0)
(1.03489 -0.0333684 -5.96788e-19)
(1.07055 -0.0324302 1.77638e-18)
(1.10563 -0.0315318 0)
(1.14014 -0.0306717 0)
(1.1741 -0.0298487 5.80318e-19)
(1.20754 -0.0290616 0)
(1.24047 -0.0283093 1.14492e-18)
(1.27293 -0.027591 -5.68531e-19)
(1.30492 -0.0269055 0)
(1.33648 -0.0262519 5.62417e-19)
(1.36763 -0.0256293 1.11755e-18)
(1.39838 -0.0250365 0)
(1.42876 -0.0244723 0)
(1.45879 -0.0239353 -5.49582e-19)
(1.48849 -0.0234235 0)
(1.51787 -0.0229349 1.08645e-18)
(1.54696 -0.0224664 0)
(1.57576 -0.0220143 0)
(1.60429 -0.0215736 0)
(1.63254 -0.0211377 0)
(1.66051 -0.0206975 -5.29004e-19)
(1.68818 -0.0202411 -5.26236e-19)
(1.71551 -0.0197519 0)
(1.74244 -0.0192075 0)
(1.76888 -0.0185761 0)
(1.7947 -0.0178122 5.1614e-19)
(1.81968 -0.0168487 0)
(1.84349 -0.0155824 -1.02486e-18)
(1.86573 -0.0138366 1.0226e-18)
(1.88547 -0.0113264 1.02222e-18)
(1.90227 -0.00731132 1.02331e-18)
(1.91247 -0.000520568 1.02848e-18)
(1.92478 0.0124235 1.02037e-18)
(1.90521 0.0361857 0)
(0.116444 -0.859695 0)
(0.269024 -1.05684 0)
(0.316122 -0.826029 -1.26328e-19)
(0.315433 -0.58426 -1.08166e-19)
(0.298006 -0.373797 1.00486e-19)
(0.266802 -0.188672 1.00666e-19)
(0.220624 -0.0232133 -6.45023e-22)
(0.158733 0.124529 0)
(0.0810012 0.255072 0)
(-0.0138063 0.365992 0)
(-0.129246 0.451706 0)
(-0.273381 0.51277 0)
(-0.459127 0.566591 -2.6734e-19)
(-0.696973 0.641315 0)
(-0.983186 0.75386 6.62787e-20)
(-1.30191 0.895822 5.71774e-20)
(-1.6352 1.04393 0)
(-1.96613 1.17795 0)
(-2.27948 1.28534 0)
(-2.56337 1.35906 0)
(-2.8125 1.39482 3.49043e-20)
(-3.02644 1.39239 0)
(-3.2066 1.35644 -3.23468e-20)
(-3.3558 1.2942 0)
(-3.47851 1.213 0)
(-3.57934 1.11924 0)
(-3.6631 1.01899 -6.85878e-20)
(-3.73414 0.917602 0)
(-3.79601 0.819194 3.31174e-20)
(-3.85147 0.726568 -7.07012e-20)
(-3.90245 0.641237 0)
(-3.95024 0.563938 0)
(-3.9956 0.494723 0)
(-4.03889 0.433206 3.65645e-20)
(-4.08023 0.378739 3.71519e-20)
(-4.11957 0.330549 0)
(-4.15676 0.287841 0)
(-4.19165 0.249853 -7.78009e-20)
(-4.22405 0.215891 -7.81939e-20)
(-4.25379 0.185345 7.84269e-20)
(-4.28073 0.157695 0)
(-4.30477 0.132514 0)
(-4.3258 0.109453 0)
(-4.34375 0.0882271 0)
(-4.35857 0.0686029 -7.70107e-20)
(-4.3702 0.0503807 -7.69127e-20)
(-4.37857 0.0333761 7.62698e-20)
(-4.38354 0.0173884 0)
(-4.38493 0.00216119 0)
(-4.3826 -0.012592 0)
(-4.37648 -0.0270043 0)
(-4.36664 -0.0409891 -7.11065e-20)
(-4.35312 -0.0544546 0)
(-4.33597 -0.0673895 0)
(-4.31521 -0.079798 -6.69949e-20)
(-4.29092 -0.0916889 -6.49693e-20)
(-4.26314 -0.10307 0)
(-4.23196 -0.113944 1.2457e-19)
(-4.19745 -0.124315 -6.00315e-20)
(-4.15969 -0.134181 5.8255e-20)
(-4.11877 -0.143542 0)
(-4.07479 -0.152395 0)
(-4.02785 -0.160737 0)
(-3.97805 -0.16857 0)
(-3.9255 -0.175894 4.84238e-20)
(-3.87032 -0.182712 9.37785e-20)
(-3.81261 -0.189023 4.40586e-20)
(-3.75249 -0.194831 -4.17865e-20)
(-3.69008 -0.200141 0)
(-3.6255 -0.20496 7.54279e-20)
(-3.55889 -0.209296 7.0545e-20)
(-3.49035 -0.213158 6.55457e-20)
(-3.42002 -0.216556 -6.04307e-20)
(-3.34803 -0.219503 0)
(-3.27449 -0.222009 -7.41051e-20)
(-3.19953 -0.22409 0)
(-3.12327 -0.225759 2.00974e-20)
(-3.04584 -0.227032 1.58745e-20)
(-2.96735 -0.227924 0)
(-2.88792 -0.228453 0)
(-2.80767 -0.228636 1.53666e-20)
(-2.72671 -0.228491 0)
(-2.64515 -0.228036 2.93262e-21)
(-2.56309 -0.227289 0)
(-2.48065 -0.22627 9.98978e-21)
(-2.39792 -0.224998 3.47067e-20)
(-2.315 -0.223492 0)
(-2.23199 -0.221772 0)
(-2.14899 -0.219856 0)
(-2.06608 -0.217761 4.45731e-20)
(-1.98337 -0.215504 0)
(-1.90095 -0.213095 5.9394e-20)
(-1.81892 -0.210535 0)
(-1.73738 -0.207811 0)
(-1.65638 -0.204894 -1.67032e-19)
(-1.57597 -0.201772 0)
(-1.49616 -0.198456 -9.93016e-20)
(-1.41696 -0.19499 0)
(-1.33841 -0.191432 -1.1658e-19)
(-1.26054 -0.187821 0)
(-1.18344 -0.184173 0)
(-1.10714 -0.180496 0)
(-1.03169 -0.176798 -4.62649e-19)
(-0.957118 -0.173084 -1.65029e-19)
(-0.883464 -0.169362 0)
(-0.810751 -0.165637 0)
(-0.739005 -0.161917 0)
(-0.668246 -0.158205 0)
(-0.598494 -0.154507 2.1882e-19)
(-0.529757 -0.150828 -4.58429e-19)
(-0.462044 -0.147177 -2.42652e-19)
(-0.395366 -0.143564 5.07617e-19)
(-0.329732 -0.139992 5.33413e-19)
(-0.26515 -0.13647 2.81355e-19)
(-0.201619 -0.132998 0)
(-0.139143 -0.129576 6.16173e-19)
(-0.0777216 -0.126209 0)
(-0.0173568 -0.1229 -6.73524e-19)
(0.0419576 -0.119648 -3.45157e-19)
(0.100235 -0.116457 0)
(0.157482 -0.113329 6.93121e-19)
(0.213705 -0.110265 3.4883e-19)
(0.268913 -0.107268 0)
(0.323117 -0.104327 3.48724e-19)
(0.376325 -0.101431 -1.05281e-18)
(0.428546 -0.09859 0)
(0.479794 -0.0958136 0)
(0.530085 -0.0931046 0)
(0.579438 -0.090464 0)
(0.627874 -0.0878962 -7.07748e-19)
(0.675428 -0.0854084 -7.1024e-19)
(0.722122 -0.0830153 0)
(0.767925 -0.0807045 0)
(0.812819 -0.0784368 0)
(0.856857 -0.0762108 0)
(0.900084 -0.0740426 0)
(0.942514 -0.0719409 0)
(0.984161 -0.0699082 -7.14013e-19)
(1.02504 -0.0679444 -1.0888e-21)
(1.06517 -0.0660478 0)
(1.10458 -0.0642165 0)
(1.14327 -0.0624484 -7.13845e-19)
(1.18127 -0.0607418 0)
(1.21861 -0.059095 7.14893e-19)
(1.25529 -0.0575064 7.14031e-19)
(1.29135 -0.0559749 0)
(1.3268 -0.0544991 0)
(1.36166 -0.053078 -7.14565e-19)
(1.39595 -0.0517105 -1.42733e-18)
(1.4297 -0.0503955 0)
(1.46293 -0.0491321 0)
(1.49565 -0.0479195 0)
(1.52789 -0.0467567 -7.13259e-19)
(1.55967 -0.0456428 7.12878e-19)
(1.591 -0.0445768 0)
(1.62192 -0.0435577 1.42288e-18)
(1.65245 -0.0425843 7.10422e-19)
(1.68259 -0.0416553 -1.42083e-18)
(1.71239 -0.0407691 0)
(1.74185 -0.0399235 0)
(1.77099 -0.0391161 -1.41702e-18)
(1.79984 -0.0383435 -7.08223e-19)
(1.8284 -0.0376014 0)
(1.8567 -0.036884 0)
(1.88474 -0.0361839 0)
(1.91253 -0.0354908 0)
(1.94005 -0.0347913 -1.40689e-18)
(1.96731 -0.0340669 0)
(1.99427 -0.0332928 0)
(2.02088 -0.0324348 0)
(2.04706 -0.0314449 0)
(2.0727 -0.0302548 0)
(2.09763 -0.0287637 0)
(2.12159 -0.0268201 -1.39754e-18)
(2.14424 -0.0241725 0)
(2.16491 -0.0204157 0)
(2.18337 -0.0147571 -2.81631e-18)
(2.1968 -0.00587949 1.41818e-18)
(2.2115 0.0088749 -1.4163e-18)
(2.2064 0.036254 1.41175e-18)
(0.0333287 -1.16607 0)
(0.0696952 -1.02978 3.59928e-19)
(0.0339469 -0.746827 0)
(-0.0105063 -0.506352 1.10877e-19)
(-0.0658372 -0.283636 0)
(-0.133698 -0.0740499 0)
(-0.216938 0.122801 -8.28075e-20)
(-0.317931 0.306182 0)
(-0.438803 0.47565 0)
(-0.582159 0.631762 0)
(-0.751854 0.777055 0)
(-0.953098 0.917628 0)
(-1.18852 1.06159 2.04197e-19)
(-1.45254 1.21236 9.24362e-20)
(-1.73069 1.36369 -8.36879e-20)
(-2.00459 1.50222 0)
(-2.25851 1.61412 0)
(-2.48241 1.69007 0)
(-2.67149 1.72632 0)
(-2.82433 1.72414 0)
(-2.94349 1.6874 6.01622e-20)
(-3.03452 1.62133 5.88455e-20)
(-3.10352 1.53278 -5.79924e-20)
(-3.15683 1.42941 5.76908e-20)
(-3.19982 1.31791 0)
(-3.23685 1.2037 0)
(-3.27138 1.09114 5.58437e-20)
(-3.30577 0.983511 0)
(-3.34128 0.882931 0)
(-3.37844 0.790444 5.86981e-20)
(-3.41725 0.706291 6.15161e-20)
(-3.45736 0.630247 6.22278e-20)
(-3.49825 0.561781 0)
(-3.53929 0.500196 0)
(-3.57987 0.444733 -6.4038e-20)
(-3.61943 0.394635 0)
(-3.65748 0.349191 0)
(-3.69361 0.307758 6.4311e-20)
(-3.72746 0.269771 -6.60311e-20)
(-3.75876 0.234742 6.60417e-20)
(-3.78728 0.202255 0)
(-3.81285 0.171961 0)
(-3.8353 0.143562 1.30016e-19)
(-3.85451 0.116809 0)
(-3.87038 0.0914892 1.28628e-19)
(-3.8828 0.0674265 1.91039e-19)
(-3.89171 0.044477 -1.89398e-19)
(-3.89702 0.0225204 1.25331e-19)
(-3.89871 0.00143953 0)
(-3.89676 -0.0188815 0)
(-3.89123 -0.0385207 1.19875e-19)
(-3.88215 -0.0574973 5.84066e-20)
(-3.86957 -0.075807 0)
(-3.85352 -0.0934489 0)
(-3.83403 -0.110422 5.49006e-20)
(-3.81116 -0.126726 1.08252e-19)
(-3.78495 -0.14236 0)
(-3.75548 -0.15732 -1.01799e-19)
(-3.72282 -0.171603 9.99696e-20)
(-3.68703 -0.185204 -9.69979e-20)
(-3.6482 -0.198118 0)
(-3.60642 -0.210341 0)
(-3.56179 -0.221866 0)
(-3.51439 -0.23269 0)
(-3.46433 -0.24282 0)
(-3.41173 -0.252254 -7.59256e-20)
(-3.35668 -0.260992 0)
(-3.2993 -0.269038 0)
(-3.23971 -0.2764 0)
(-3.17802 -0.283086 -1.22628e-19)
(-3.11434 -0.289108 -5.67068e-20)
(-3.04881 -0.294476 -5.26057e-20)
(-2.98154 -0.299205 9.80466e-20)
(-2.91265 -0.303311 -4.53659e-20)
(-2.84226 -0.306811 3.98141e-20)
(-2.7705 -0.309722 0)
(-2.69747 -0.312065 -3.08917e-20)
(-2.6233 -0.313861 0)
(-2.54811 -0.315131 0)
(-2.47201 -0.315897 0)
(-2.3951 -0.316184 -2.54981e-20)
(-2.31751 -0.316014 8.48927e-21)
(-2.23934 -0.315413 4.77192e-21)
(-2.16069 -0.314403 -2.973e-21)