/*--------------------------------*- C++ -*----------------------------------*\
  =========                 |
  \\      /  F ield         | OpenFOAM: The Open Source CFD Toolbox
   \\    /   O peration     | Website:  https://openfoam.org
    \\  /    A nd           | Version:  8
     \\/     M anipulation  |
\*---------------------------------------------------------------------------*/
FoamFile
{
    version     2.0;
    format      ascii;
    class       volVectorField;
    location    "3500";
    object      wallShearStress;
}
// * * * * * * * * * * * * * * * * * * * * * * * * * * * * * * * * * * * * * //

dimensions      [0 2 -2 0 0 0 0];

internalField   uniform (0 0 0);

boundaryField
{
    inlet
    {
        type            calculated;
        value           uniform (0 0 0);
    }
    outlet
    {
        type            calculated;
        value           uniform (0 0 0);
    }
    upperWall
    {
        type            calculated;
        value           nonuniform List<vector> 
223
(
(-0.582193 -0.392359 0)
(-0.977814 -0.219377 0)
(-0.939336 -0.0567747 0)
(-0.81071 -0.00585779 0)
(-0.734594 0.00331372 0)
(-0.695452 0.00231545 0)
(-0.670941 0.000424224 0)
(-0.653507 -0.00144879 0)
(-0.640532 -0.0025625 0)
(-0.629821 -0.00218351 0)
(-0.620058 -0.00130529 0)
(-0.610993 -0.00107837 0)
(-0.603033 -0.00138849 0)
(-0.596184 -0.00127384 0)
(-0.590434 -0.00106049 0)
(-0.585075 -0.000334629 0)
(-0.579787 0.00168715 0)
(-0.575194 0.0014147 0)
(-0.571309 0.00162533 0)
(-0.567715 0.00312827 4.27692e-22)
(-0.564342 0.00251105 0)
(-0.561641 0.00175055 0)
(-0.558902 0.0030362 0)
(-0.555755 0.00321355 4.48291e-22)
(-0.552843 0.00331363 0)
(-0.54995 0.00393376 0)
(-0.546937 0.0037672 0)
(-0.544106 0.00348253 -9.38049e-22)
(-0.541328 0.00298072 9.45963e-22)
(-0.538633 0.00256629 9.56403e-22)
(-0.535953 0.00245935 0)
(-0.533231 0.00218854 -9.78394e-22)
(-0.530575 0.00194054 0)
(-0.527935 0.00174267 1.00139e-21)
(-0.525292 0.0015738 1.01347e-21)
(-0.52264 0.00144504 -1.02603e-21)
(-0.519969 0.00134109 0)
(-0.517284 0.00125817 0)
(-0.514579 0.0011939 0)
(-0.51185 0.0011446 0)
(-0.509095 0.00110714 -1.09084e-21)
(-0.506311 0.00107923 0)
(-0.503494 0.00105929 0)
(-0.500642 0.00104581 1.13102e-21)
(-0.497753 0.00103784 0)
(-0.494822 0.00103444 1.15752e-21)
(-0.491847 0.00103485 -1.17051e-21)
(-0.488824 0.00103853 1.18326e-21)
(-0.485748 0.00104491 0)
(-0.482619 0.00105281 0)
(-0.479436 0.00106135 0)
(-0.476199 0.00106959 1.23076e-21)
(-0.472914 0.00107627 -1.24142e-21)
(-0.469594 0.00108157 0)
(-0.466252 0.00108668 0)
(-0.462904 0.00109188 0)
(-0.459561 0.00109639 0)
(-0.456227 0.00109916 0)
(-0.452904 0.00109926 0)
(-0.449586 0.00109684 0)
(-0.446267 0.00109257 0)
(-0.442936 0.00108745 1.29191e-21)
(-0.439581 0.00108262 -1.29168e-21)
(-0.436194 0.00107896 0)
(-0.43276 0.00107719 0)
(-0.429269 0.00107732 0)
(-0.425715 0.00107953 -1.27831e-21)
(-0.422088 0.00108376 0)
(-0.41838 0.00108961 0)
(-0.414587 0.00109675 0)
(-0.410704 0.00110483 0)
(-0.406727 0.00111336 0)
(-0.402655 0.00112175 -2.43423e-21)
(-0.398487 0.00112963 0)
(-0.394223 0.00113632 0)
(-0.389868 0.00114136 0)
(-0.385426 0.00114451 0)
(-0.380907 0.00114564 0)
(-0.376322 0.00114476 0)
(-0.371682 0.00114142 0)
(-0.367001 0.00113538 2.09517e-21)
(-0.362288 0.00112661 0)
(-0.357551 0.00111508 0)
(-0.352794 0.00110109 0)
(-0.348022 0.00108527 -1.8395e-21)
(-0.343231 0.00106815 0)
(-0.338422 0.00105027 -1.69007e-21)
(-0.333591 0.00103237 0)
(-0.328731 0.00101532 0)
(-0.323837 0.000999831 0)
(-0.319025 0.000992006 -1.35085e-21)
(-0.316384 0.00100112 0)
(-0.31366 0.00101504 1.18036e-21)
(-0.310855 0.00102969 1.08967e-21)
(-0.307975 0.00104286 0)
(-0.30503 0.00105378 8.95956e-22)
(-0.302033 0.00106257 0)
(-0.298997 0.00106975 0)
(-0.295935 0.00107758 0)
(-0.292862 0.00108337 -4.54478e-22)
(-0.289792 0.00109687 0)
(-0.286741 0.00109661 -2.05007e-22)
(-0.283712 0.00110462 7.30154e-23)
(-0.280729 0.00111705 0)
(-0.277789 0.00111747 0)
(-0.274918 0.00109989 0)
(-0.272084 0.00107876 0)
(-0.26938 0.00107553 0)
(-0.266731 0.0012688 0)
(-0.264201 0.00129279 0)
(-0.261688 0.000870848 1.14979e-21)
(-0.259084 0.000605582 0)
(-0.256846 0.000664198 0)
(-0.254619 0.000829375 0)
(-0.252477 0.0010909 0)
(-0.250366 0.000974952 0)
(-0.24814 0.000611572 0)
(-0.246138 0.000614418 0)
(-0.243994 0.000707292 0)
(-0.242268 0.000703466 0)
(-0.24042 0.00073847 0)
(-0.238578 0.000747362 0)
(-0.237066 0.000671578 0)
(-0.235274 0.000609781 7.19751e-21)
(-0.23343 0.000633518 0)
(-0.2319 0.000647867 0)
(-0.230469 0.000604012 0)
(-0.228775 0.000805093 -8.80921e-21)
(-0.227085 0.000856185 0)
(-0.225596 0.00067924 0)
(-0.224196 0.00110641 -1.00193e-20)
(-0.222795 0.00136812 0)
(-0.221742 0.00112088 1.08056e-20)
(-0.220542 0.00111159 0)
(-0.219621 0.000972337 0)
(-0.218715 0.000835608 0)
(-0.21738 0.000496022 -1.25144e-20)
(-0.216299 0.000448066 0)
(-0.21516 0.000696153 1.33467e-20)
(-0.214191 0.000681597 0)
(-0.212837 0.000153678 0)
(-0.211171 -0.000450685 0)
(-0.20962 -0.000266874 0)
(-0.208699 -5.06448e-05 0)
(-0.207778 6.71398e-05 0)
(-0.206992 0.00013274 0)
(-0.206052 0.000200132 0)
(-0.205082 0.000224622 0)
(-0.204356 0.000258609 0)
(-0.203628 0.000222475 0)
(-0.203202 0.000231864 1.84056e-20)
(-0.20236 0.000315343 -1.89033e-20)
(-0.20172 0.000287309 0)
(-0.201016 0.000290874 0)
(-0.200388 0.000286072 0)
(-0.199907 0.000288639 0)
(-0.198924 0.000300315 -2.09945e-20)
(-0.198489 0.00026558 2.12973e-20)
(-0.198058 0.000266152 -2.17314e-20)
(-0.197453 0.000316854 0)
(-0.196851 0.000261975 -2.25783e-20)
(-0.196596 0.000206726 -4.58177e-20)
(-0.196093 0.000256084 0)
(-0.195807 0.000365797 -4.7468e-20)
(-0.19504 0.000376321 4.85339e-20)
(-0.1947 0.000344131 0)
(-0.194536 0.000702693 0)
(-0.194084 0.000839471 0)
(-0.194047 0.000719486 0)
(-0.193415 0.000616464 0)
(-0.193281 0.000325918 -5.30852e-20)
(-0.192601 0.000341185 0)
(-0.192533 0.000397059 -5.47974e-20)
(-0.192448 0.000174715 0)
(-0.191971 0.000307735 0)
(-0.191158 0.000421252 0)
(-0.190861 0.000255519 0)
(-0.19048 0.000306516 0)
(-0.190066 0.000236059 6.03108e-20)
(-0.189182 0.000227809 0)
(-0.188619 -9.03893e-05 0)
(-0.187169 -0.000334337 -6.44139e-20)
(-0.185975 5.01057e-05 0)
(-0.185092 0.000420173 0)
(-0.184387 0.000575466 0)
(-0.183994 0.000547171 6.82956e-20)
(-0.182614 0.000479384 0)
(-0.181593 0.000470515 0)
(-0.180406 0.000558736 0)
(-0.178884 0.000511587 0)
(-0.17681 0.000499986 -7.65997e-20)
(-0.174337 0.00061891 0)
(-0.171113 0.000434674 0)
(-0.166554 0.000455996 0)
(-0.162011 0.0010844 8.83579e-20)
(-0.155193 0.00148127 0)
(-0.149087 0.0023138 0)
(-0.123944 0.00225276 -1.0775e-19)
(-0.141609 0.00668823 0)
(-0.169695 0.0132122 1.25347e-17)
(-0.186971 0.0170635 2.35822e-17)
(-0.193495 0.0188563 2.27063e-17)
(-0.196925 0.0196774 2.19989e-17)
(-0.201022 0.0203141 2.11641e-17)
(-0.205481 0.0210134 -2.02556e-17)
(-0.209701 0.021523 -1.95317e-17)
(-0.213876 0.0218716 -6.01853e-36)
(-0.218098 0.0220169 -3.66658e-17)
(-0.22023 0.022181 -1.80785e-17)
(-0.224694 0.0227205 6.74075e-34)
(-0.227515 0.0229039 0)
(-0.231054 0.0233631 -3.2281e-17)
(-0.235338 0.0239348 -3.06874e-17)
(-0.242335 0.0247782 -2.84674e-17)
(-0.249513 0.0254437 -2.40741e-35)
(-0.256855 0.0260671 4.94063e-17)
(-0.263905 0.0266468 2.26472e-17)
(-0.272748 0.0274457 0)
(-0.282653 0.0283567 -3.48632e-17)
(-0.291212 0.0289988 -1.58056e-20)
(-0.300878 0.0295773 0)
(-0.304433 0.0304163 1.34857e-17)
(-0.33256 0.0321492 -7.62917e-18)
)
;
    }
    lowerWall
    {
        type            calculated;
        value           nonuniform List<vector> 
250
(
(-0.653909 0.466638 0)
(-1.14095 0.204678 0)
(-1.03492 0.0379587 0)
(-0.869573 -0.000935968 0)
(-0.786941 -0.0041916 0)
(-0.746063 -0.0016078 0)
(-0.719878 0.00041619 0)
(-0.700645 -0.000651782 0)
(-0.685088 -0.00405593 0)
(-0.671318 -0.00471221 0)
(-0.658932 -0.00298823 0)
(-0.64772 -0.000864262 0)
(-0.637516 0.00142603 0)
(-0.628189 0.00210386 0)
(-0.61932 0.0013679 0)
(-0.611521 0.00135747 0)
(-0.60458 0.00169578 0)
(-0.605068 0.00194314 0)
(-0.00426048 -0.0228578 0)
(-0.00275889 -0.0176423 0)
(-0.000676904 -0.0144929 0)
(0.0019447 -0.0137774 9.02199e-20)
(0.00526918 -0.0151979 -7.86134e-20)
(0.008962 -0.0208209 6.28449e-20)
(0.0127405 -0.0200861 -4.84699e-20)
(0.0256281 -0.0633153 0)
(-0.0840646 -0.144715 0)
(0.000872504 -0.00384052 0)
(-0.0076654 0.00954703 0)
(-0.00851606 0.0328218 0)
(-0.00254931 0.0448554 0)
(0.00295345 0.0442615 1.82209e-20)
(0.00618282 0.0360629 -1.89644e-20)
(0.00818734 0.0241607 0)
(0.00946062 0.0101601 -5.42251e-20)
(0.00943174 -0.00404297 6.11383e-20)
(0.0079333 -0.0174231 0)
(0.00614121 -0.0291956 0)
(0.00438171 -0.0385633 0)
(0.00268716 -0.0451405 0)
(0.000985976 -0.0488801 0)
(-0.000885182 -0.0495152 0)
(-0.0028206 -0.0464088 0)
(-0.0043791 -0.0399029 0)
(-0.00492625 -0.0308269 0)
(0.00132869 -0.00151211 0)
(0.00133797 0.00652736 0)
(-0.00450929 0.00961873 0)
(-0.00959728 0.00975656 0)
(-0.0133832 0.00829955 0)
(-0.0158894 0.00623522 0)
(-0.0172644 0.00409761 1.49562e-21)
(-0.017783 0.0020061 -1.52722e-21)
(-0.0173315 -7.03135e-06 0)
(-0.016054 -0.00168629 -1.65296e-21)
(-0.0141885 -0.00283758 0)
(-0.0120504 -0.00329647 0)
(-0.0100507 -0.0030359 -0)
(-0.00855309 -0.00228029 2.57011e-21)
(-0.00761641 -0.00142307 0)
(-0.0069381 -0.000815874 0)
(-0.00612056 -0.000623449 -3.37798e-21)
(-0.00499292 -0.0010005 0)
(-0.00340848 -0.00238603 0)
(-0.00048848 -0.00505772 0)
(0.00436099 -0.00740376 3.03282e-21)
(0.00994599 -0.00889522 0)
(0.015847 -0.00985003 1.46903e-21)
(0.0218925 -0.010617 0)
(0.0280983 -0.011269 -0)
(0.0344087 -0.0115143 8.44647e-22)
(0.0405411 -0.0113546 0)
(0.0491491 -0.0116033 -7.54004e-22)
(0.0589393 -0.0117553 -0)
(0.0686335 -0.0115827 7.70668e-22)
(0.0780425 -0.011169 0)
(0.0870154 -0.0105841 0)
(0.0954597 -0.00989005 0)
(0.103317 -0.00913657 -0)
(0.110564 -0.00836066 0)
(0.117197 -0.00758952 -8.11125e-22)
(0.12323 -0.00684034 -0)
(0.128686 -0.00612261 1.63303e-21)
(0.133591 -0.00544046 0)
(0.137974 -0.00479414 -1.6349e-21)
(0.141859 -0.004182 -0)
(0.145272 -0.00360139 -0)
(0.148232 -0.00304955 1.621e-21)
(0.150758 -0.00252408 0)
(0.152864 -0.00202409 1.60078e-21)
(0.154562 -0.00155035 -1.58747e-21)
(0.155864 -0.00110624 -0)
(0.156782 -0.000698798 -1.55485e-21)
(0.157328 -0.000337854 -1.53582e-21)
(0.157514 -3.98213e-05 -0)
(0.157409 0.000194803 0)
(0.157077 0.000391593 0)
(0.156523 0.000568235 0)
(0.155762 0.000731075 -0)
(0.154801 0.000884199 1.37576e-21)
(0.153649 0.00102833 0)
(0.152313 0.00116407 -1.30698e-21)
(0.150799 0.00129167 -0)
(0.149117 0.00141126 -0)
(0.147272 0.00152289 1.19053e-21)
(0.145272 0.00162643 0)
(0.143127 0.00172193 -1.10483e-21)
(0.140843 0.00180936 -0)
(0.13843 0.00188865 0)
(0.135896 0.00195986 -0)
(0.13325 0.00202314 9.16808e-22)
(0.130502 0.00207849 0)
(0.12766 0.00212604 -0)
(0.124734 0.00216598 7.63767e-22)
(0.121732 0.00219846 0)
(0.118666 0.00222366 6.57234e-22)
(0.115542 0.00224185 0)
(0.112371 0.0022533 0)
(0.10916 0.00225827 0)
(0.105919 0.00225699 -4.36157e-22)
(0.102657 0.0022498 -0)
(0.0993804 0.0022371 0)
(0.0960976 0.00221911 -2.6556e-22)
(0.0928163 0.00219621 -2.0811e-22)
(0.0895435 0.00216877 -0)
(0.086286 0.00213713 -9.2644e-23)
(0.0830501 0.00210173 -0)
(0.0798416 0.00206278 4.66246e-23)
(0.0766664 0.00202063 -0)
(0.0735293 0.00197571 2.79034e-22)
(0.0704353 0.00192848 0)
(0.0673888 0.00187984 -5.11705e-22)
(0.0643932 0.00183066 -0)
(0.0614516 0.00178175 0)
(0.0585668 0.00173407 -0)
(0.0557408 0.0016892 9.7846e-22)
(0.0529751 0.00164976 0)
(0.0502698 0.0016181 -1.21391e-21)
(0.0476237 0.00159486 0)
(0.0457849 0.00160343 1.47565e-21)
(0.0442425 0.00162102 1.63416e-21)
(0.0427034 0.00162594 1.79907e-21)
(0.0411761 0.00161306 0)
(0.0396656 0.00158974 0)
(0.0381719 0.00156403 0)
(0.0366937 0.0015382 0)
(0.035231 0.00151251 0)
(0.0337837 0.00148691 0)
(0.0323529 0.00146142 0)
(0.0309387 0.00143619 0)
(0.0295418 0.00141138 -3.69181e-21)
(0.0281624 0.00138718 -3.96743e-21)
(0.0268007 0.00136374 0)
(0.0254569 0.00134075 0)
(0.0241314 0.00131669 0)
(0.0228257 0.00129181 -5.26734e-21)
(0.0215394 0.0012676 0)
(0.0202728 0.00124394 0)
(0.0190257 0.00122088 0)
(0.0177984 0.00119844 0)
(0.0165907 0.00117671 7.53587e-21)
(0.0154029 0.00115575 0)
(0.0142347 0.00113567 0)
(0.0130861 0.00111655 -9.45463e-21)
(0.0119571 0.00109844 1.02321e-20)
(0.0108475 0.00108143 0)
(0.00975732 0.0010658 1.20684e-20)
(0.00868649 0.00105221 0)
(0.00763462 0.00104183 -1.44067e-20)
(0.00660104 0.00103495 0)
(0.0055854 0.00103054 0)
(0.00458765 0.00102833 0)
(0.0036074 0.00102861 0)
(0.00264417 0.00103165 0)
(0.00169841 0.00103737 5.57074e-20)
(0.000771634 0.00104296 6.42166e-20)
(-0.000138189 0.00103026 0)
(-0.00103548 0.00098744 0)
(-0.00191729 0.000935054 0)
(-0.00278362 0.000885561 -5.28921e-20)
(-0.00363431 0.000840642 0)
(-0.00446922 0.000799898 0)
(-0.00528871 0.000762835 0)
(-0.00609336 0.000728959 -4.04173e-20)
(-0.00688372 0.000697812 3.83671e-20)
(-0.00766028 0.000669018 0)
(-0.00842353 0.000642275 0)
(-0.00917394 0.000617329 3.3619e-20)
(-0.00991191 0.000593983 3.23788e-20)
(-0.0106379 0.000572074 0)
(-0.0113523 0.000551472 0)
(-0.0120555 0.000532055 -2.93534e-20)
(-0.012748 0.000513732 2.85256e-20)
(-0.0134302 0.000496419 0)
(-0.0141026 0.00048005 0)
(-0.0147655 0.000464561 2.64357e-20)
(-0.0154193 0.000449898 0)
(-0.0160646 0.000436021 0)
(-0.0167019 0.000422885 2.47902e-20)
(-0.0173314 0.000410452 0)
(-0.0179538 0.000398688 2.38743e-20)
(-0.0185694 0.000387563 0)
(-0.0191787 0.000377049 0)
(-0.0197823 0.000367113 0)
(-0.0203805 0.00035772 -2.23585e-20)
(-0.0209738 0.00034884 0)
(-0.0215627 0.000340422 0)
(-0.0221473 0.000332429 0)
(-0.0227282 0.000324801 0)
(-0.0233056 0.000317441 0)
(-0.0238794 0.000310234 0)
(-0.0244495 0.000303038 -2.03854e-20)
(-0.0250155 0.000295661 -2.01551e-20)
(-0.0255766 0.00028784 0)
(-0.0261314 0.000279177 0)
(-0.0266776 0.000269146 0)
(-0.027212 0.000257014 1.93604e-20)
(-0.0277294 0.000241525 0)
(-0.0282211 0.000221288 -3.81348e-20)
(-0.028678 0.000192256 3.79286e-20)
(-0.0290712 0.000152634 3.78195e-20)
(-0.0294025 7.78864e-05 -3.7858e-20)
(-0.0294842 -3.94025e-05 3.80452e-20)
(-0.0295087 -0.000356574 -3.83974e-20)
(-0.0279741 -0.000616896 0)
(-0.0293468 -0.000516235 -2.43315e-18)
(-0.0327706 -0.00134248 -2.26974e-18)
(-0.0364141 -0.00203347 -3.00927e-36)
(-0.039535 -0.00257617 -4.06082e-18)
(-0.042485 -0.00301867 -7.75773e-18)
(-0.0455576 -0.00342191 -3.71953e-18)
(-0.048782 -0.00381831 3.5682e-18)
(-0.0521124 -0.0043066 -3.61112e-35)
(-0.0556024 -0.00472229 0)
(-0.0593147 -0.00503086 3.15015e-18)
(-0.0632255 -0.00544276 3.03422e-18)
(-0.0674317 -0.00584798 0)
(-0.0719219 -0.00623511 0)
(-0.076736 -0.00669195 0)
(-0.0819245 -0.00719874 -1.81167e-34)
(-0.0875417 -0.00774687 -5.97621e-35)
(-0.093659 -0.0083498 2.0463e-34)
(-0.100329 -0.00901393 -4.15818e-18)
(-0.107692 -0.00973471 -3.81222e-18)
(-0.116753 -0.0106272 1.20371e-35)
(-0.127571 -0.0116301 6.13669e-18)
(-0.138425 -0.0127364 1.03491e-17)
(-0.15365 -0.0139293 1.20371e-35)
(-0.16285 -0.0152959 -5.09785e-18)
(-0.191964 -0.0169834 -6.01853e-36)
)
;
    }
    frontAndBack
    {
        type            empty;
    }
}


// ************************************************************************* //
