/*--------------------------------*- C++ -*----------------------------------*\
  =========                 |
  \\      /  F ield         | OpenFOAM: The Open Source CFD Toolbox
   \\    /   O peration     | Website:  https://openfoam.org
    \\  /    A nd           | Version:  8
     \\/     M anipulation  |
\*---------------------------------------------------------------------------*/
FoamFile
{
    version     2.0;
    format      ascii;
    class       volScalarField;
    location    "500";
    object      p;
}
// * * * * * * * * * * * * * * * * * * * * * * * * * * * * * * * * * * * * * //

dimensions      [0 2 -2 0 0 0 0];

internalField   nonuniform List<scalar> 
12225
(
2.22223
-2.21205
-4.18323
-4.69884
-4.94688
-5.1589
-5.30873
-5.40807
-5.48535
-5.55464
-5.6179
-5.6749
-5.72644
-5.77314
-5.81599
-5.84752
-5.8879
-5.82504
-4.86744
-5.53817
-5.56103
-5.29236
-5.21654
-5.28224
-5.36565
-5.43436
-5.4968
-5.55762
-5.6152
-5.66812
-5.71679
-5.76152
-5.8032
-5.83697
-5.87666
-5.89706
-5.59665
-4.9026
-4.91001
-4.96497
-5.06002
-5.19479
-5.3123
-5.40034
-5.47347
-5.54003
-5.60098
-5.65643
-5.70737
-5.75423
-5.79835
-5.83666
-5.88215
-5.91865
-5.06849
-4.56979
-4.81592
-5.00832
-5.11047
-5.22162
-5.32561
-5.40792
-5.47757
-5.54178
-5.60142
-5.65636
-5.70727
-5.75455
-5.79956
-5.84117
-5.88752
-5.93236
-4.88221
-4.68788
-4.91857
-5.07264
-5.14463
-5.235
-5.33032
-5.40996
-5.47819
-5.54126
-5.6002
-5.65479
-5.70567
-5.75338
-5.79923
-5.84325
-5.89026
-5.93938
-4.91009
-4.83203
-4.97589
-5.09334
-5.16227
-5.24668
-5.3366
-5.41392
-5.48089
-5.54286
-5.60097
-5.6551
-5.70587
-5.75393
-5.80042
-5.84591
-5.89331
-5.94325
-4.95574
-4.91212
-5.00526
-5.10953
-5.18292
-5.2625
-5.34579
-5.41981
-5.48517
-5.54586
-5.60298
-5.65655
-5.70709
-5.7553
-5.80213
-5.84828
-5.89549
-5.94447
-4.98596
-4.95937
-5.03334
-5.12876
-5.20184
-5.27658
-5.35431
-5.42536
-5.48924
-5.54878
-5.605
-5.658
-5.70825
-5.7564
-5.80322
-5.84938
-5.89601
-5.94354
-5.01196
-4.9993
-5.06139
-5.14696
-5.21786
-5.28867
-5.36195
-5.43045
-5.49295
-5.55145
-5.60684
-5.6593
-5.70923
-5.7572
-5.80385
-5.84975
-5.89563
-5.9417
-5.04236
-5.04098
-5.09235
-5.16708
-5.23478
-5.30171
-5.37051
-5.43616
-5.49702
-5.55429
-5.60871
-5.66049
-5.70996
-5.75756
-5.80382
-5.84917
-5.89403
-5.93842
-5.07661
-5.0823
-5.12507
-5.18957
-5.25305
-5.31593
-5.38018
-5.44262
-5.50149
-5.55727
-5.61051
-5.66142
-5.7102
-5.75721
-5.80281
-5.84729
-5.89088
-5.93346
-5.11348
-5.12275
-5.15904
-5.21442
-5.27278
-5.33136
-5.39106
-5.44998
-5.50648
-5.56047
-5.61228
-5.66203
-5.70986
-5.75598
-5.80062
-5.84395
-5.88606
-5.92678
-5.15165
-5.16218
-5.19348
-5.24099
-5.29373
-5.34782
-5.40309
-5.4583
-5.51207
-5.56397
-5.61405
-5.66235
-5.70892
-5.75384
-5.79724
-5.83916
-5.87964
-5.91849
-5.1896
-5.20002
-5.22726
-5.2682
-5.31534
-5.36488
-5.41588
-5.46736
-5.51818
-5.56772
-5.61581
-5.66239
-5.7074
-5.75084
-5.79274
-5.83307
-5.87183
-5.90885
-5.22546
-5.23512
-5.25896
-5.29455
-5.33655
-5.3817
-5.42869
-5.47658
-5.52439
-5.57142
-5.61736
-5.66201
-5.70526
-5.74702
-5.78724
-5.82589
-5.86291
-5.89819
-5.25695
-5.26568
-5.2867
-5.31806
-5.35571
-5.39693
-5.44035
-5.48498
-5.52993
-5.57449
-5.61824
-5.66091
-5.70231
-5.74232
-5.78084
-5.8178
-5.85316
-5.88683
-5.28113
-5.289
-5.30783
-5.33605
-5.37039
-5.40851
-5.44907
-5.49105
-5.53359
-5.57598
-5.61775
-5.65858
-5.69825
-5.73659
-5.7735
-5.80891
-5.84277
-5.87502
-5.29317
-5.30042
-5.31784
-5.34425
-5.37679
-5.41324
-5.45219
-5.49262
-5.53368
-5.57467
-5.6151
-5.65461
-5.693
-5.73008
-5.76576
-5.79997
-5.83268
-5.86385
-5.29206
-5.29884
-5.31549
-5.3414
-5.37384
-5.41025
-5.44906
-5.48927
-5.53003
-5.57063
-5.61056
-5.6495
-5.68725
-5.72366
-5.75863
-5.79211
-5.8241
-5.85458
-5.28161
-5.2877
-5.30364
-5.33009
-5.36393
-5.40167
-5.44151
-5.48259
-5.52402
-5.56503
-5.60514
-5.64409
-5.68171
-5.71789
-5.75255
-5.78568
-5.81728
-5.84738
-5.26537
-5.26967
-5.28443
-5.31264
-5.34935
-5.38936
-5.43111
-5.47396
-5.51681
-5.55878
-5.59951
-5.63884
-5.67667
-5.71289
-5.74749
-5.78048
-5.8119
-5.84178
-5.24671
-5.24614
-5.25863
-5.2908
-5.33201
-5.37483
-5.41912
-5.46447
-5.50924
-5.55249
-5.59409
-5.63402
-5.67221
-5.70862
-5.74328
-5.77625
-5.80758
-5.83734
-5.22956
-5.21806
-5.22627
-5.26547
-5.31279
-5.35899
-5.4066
-5.45502
-5.50188
-5.54646
-5.58902
-5.62962
-5.66823
-5.70486
-5.73962
-5.7726
-5.8039
-5.8336
-5.21673
-5.18628
-5.19081
-5.23928
-5.29145
-5.34126
-5.39372
-5.44593
-5.49484
-5.54067
-5.58418
-5.62545
-5.66445
-5.7013
-5.73617
-5.76921
-5.80051
-5.83018
-5.20533
-5.13791
-5.15664
-5.22092
-5.27146
-5.32214
-5.38021
-5.43669
-5.48765
-5.53476
-5.57931
-5.62133
-5.66077
-5.69787
-5.7329
-5.76603
-5.7974
-5.82715
-5.21087
-5.02506
-5.09445
-5.20351
-5.25632
-5.30681
-5.3691
-5.4286
-5.48095
-5.52913
-5.57466
-5.6174
-5.65731
-5.69472
-5.72995
-5.76323
-5.7947
-5.82453
-5.38199
-4.88661
-4.96303
-5.13078
-5.21665
-5.28732
-5.36029
-5.42378
-5.47769
-5.52696
-5.57326
-5.61643
-5.65657
-5.69414
-5.7295
-5.76288
-5.79449
-5.82454
-5.89142
-5.1411
-5.00309
-5.05002
-5.12834
-5.22936
-5.32456
-5.39971
-5.46111
-5.51587
-5.56584
-5.61122
-5.65266
-5.69099
-5.72675
-5.76034
-5.79218
-5.82264
-5.48988
-5.87076
-5.77804
-5.49257
-5.36136
-5.36964
-5.41477
-5.45811
-5.50077
-5.54518
-5.58915
-5.6307
-5.66957
-5.70606
-5.74037
-5.7726
-5.80313
-5.83435
1.05654
-2.37249
-4.18763
-4.7263
-4.9655
-5.16374
-5.30508
-5.39506
-5.46114
-5.51825
-5.56952
-5.61547
-5.65724
-5.69582
-5.73171
-5.76486
-5.79477
-5.81971
-6.72224
-6.72226
-6.7226
-6.72334
-6.72429
-6.72538
-6.72663
-6.72806
-6.72972
-6.73167
-6.73396
-6.73666
-6.73981
-6.7435
-6.74774
-6.75263
-6.75819
-6.76449
-6.77157
-6.77945
-6.78817
-6.79773
-6.80815
-6.81937
-6.83143
-6.84419
-6.85772
-6.87193
-6.88688
-6.90244
-6.91895
-6.93773
-6.95889
-6.98098
-7.00358
-7.0284
-7.0561
-7.08552
-7.1135
-7.14001
-7.16841
-7.19703
-7.22194
-7.24773
-7.27694
-7.30673
-7.33739
-7.36857
-7.40012
-7.4319
-7.46379
-7.49566
-7.52741
-7.55893
-7.59013
-7.62089
-7.6511
-7.68067
-7.70946
-7.73737
-7.76427
-7.79002
-7.81448
-7.83752
-7.85899
-7.87872
-7.89655
-7.91232
-7.92585
-7.93696
-7.94546
-7.95117
-7.95389
-7.95342
-7.94956
-7.94211
-7.93087
-7.91562
-7.89617
-7.87232
-7.84386
-7.81058
-7.77231
-7.72883
-7.67997
-7.62554
-7.56538
-7.49931
-7.42719
-7.34885
-7.26416
-7.17298
-7.07521
-6.97076
-6.85965
-6.74197
-6.61767
-6.48623
-6.34736
-6.20124
-6.04799
-5.88764
-5.72025
-5.54583
-5.36443
-5.17613
-4.981
-4.77914
-4.57065
-4.35567
-4.13434
-3.90681
-3.67326
-3.43389
-3.18889
-2.93848
-2.6829
-2.42239
-2.15721
-1.88762
-1.6139
-1.33634
-1.05524
-0.77091
-0.483652
-0.193787
0.0983608
0.392473
0.688234
0.985318
1.28337
1.58204
1.88102
2.18002
2.47873
2.7768
3.07393
3.36982
3.66417
3.95671
4.24714
4.53522
4.82068
5.10329
5.38281
5.65902
5.93173
6.20074
6.46589
6.727
6.98393
7.23653
7.48468
7.72827
7.96721
8.20139
8.43076
8.65524
8.87479
9.08937
9.29894
9.50351
9.70313
9.89787
10.0875
10.2718
10.4508
10.6246
10.7932
10.9566
11.1148
11.268
11.416
11.5591
11.6974
11.8313
11.9621
12.091
12.2296
12.3746
-6.72126
-6.7215
-6.72196
-6.72264
-6.72332
-6.72392
-6.72452
-6.72527
-6.72629
-6.72767
-6.72943
-6.73164
-6.73431
-6.73749
-6.74121
-6.74552
-6.75044
-6.75602
-6.76228
-6.76926
-6.77697
-6.7854
-6.79457
-6.8044
-6.81493
-6.82604
-6.83781
-6.85022
-6.8635
-6.87807
-6.89491
-6.9134
-6.93219
-6.95183
-6.97385
-6.99734
-7.02001
-7.04146
-7.06545
-7.09278
-7.1216
-7.15102
-7.18578
-7.22175
-7.25367
-7.28525
-7.31681
-7.34843
-7.38014
-7.41191
-7.44369
-7.47541
-7.50697
-7.5383
-7.5693
-7.59987
-7.62992
-7.65934
-7.68802
-7.71584
-7.74268
-7.7684
-7.79289
-7.81598
-7.83755
-7.85742
-7.87544
-7.89143
-7.90524
-7.91668
-7.92555
-7.93168
-7.93488
-7.93493
-7.93165
-7.92484
-7.91428
-7.89977
-7.88112
-7.85811
-7.83055
-7.79823
-7.76097
-7.71856
-7.67083
-7.61759
-7.55868
-7.49392
-7.42317
-7.34628
-7.2631
-7.1735
-7.07736
-6.97456
-6.86496
-6.7484
-6.62467
-6.49392
-6.35635
-6.21182
-6.06026
-5.90165
-5.73601
-5.56335
-5.38373
-5.19721
-5.00385
-4.80376
-4.59703
-4.38379
-4.16418
-3.93836
-3.70649
-3.46877
-3.22539
-2.97657
-2.72253
-2.46351
-2.19978
-1.93159
-1.65922
-1.38295
-1.10308
-0.819915
-0.53376
-0.244931
0.0462501
0.339465
0.6344
0.930734
1.22812
1.52618
1.82463
2.12319
2.42152
2.7193
3.01621
3.31196
3.60625
3.89879
4.18931
4.47754
4.76323
5.04613
5.326
5.60264
5.87584
6.14539
6.41113
6.6729
6.93053
7.18389
7.43284
7.67728
7.91709
8.1522
8.38253
8.60801
8.82858
9.04423
9.25494
9.4607
9.66136
9.8566
10.0464
10.231
10.4103
10.5844
10.7534
10.9172
11.0759
11.2295
11.3781
11.5218
11.6609
11.7959
11.9283
12.059
12.2004
12.3403
-6.71775
-6.7186
-6.71979
-6.72086
-6.72157
-6.72201
-6.72239
-6.72289
-6.72365
-6.72477
-6.72629
-6.72827
-6.73073
-6.7337
-6.73721
-6.7413
-6.74598
-6.7513
-6.75728
-6.76393
-6.77128
-6.77932
-6.78809
-6.79756
-6.8078
-6.81882
-6.83077
-6.8438
-6.85817
-6.87409
-6.89171
-6.91071
-6.93056
-6.95148
-6.9739
-6.99741
-7.02103
-7.04467
-7.06951
-7.09602
-7.12313
-7.15054
-7.1795
-7.2097
-7.23987
-7.27044
-7.30128
-7.3323
-7.36343
-7.39462
-7.42581
-7.45694
-7.48792
-7.51869
-7.54915
-7.57921
-7.60878
-7.63776
-7.66603
-7.69349
-7.72001
-7.74546
-7.76972
-7.79264
-7.81407
-7.83387
-7.85187
-7.8679
-7.8818
-7.89339
-7.90248
-7.90888
-7.91241
-7.91287
-7.91006
-7.90377
-7.89381
-7.87998
-7.86206
-7.83986
-7.81317
-7.78181
-7.74556
-7.70424
-7.65766
-7.60564
-7.54801
-7.4846
-7.41526
-7.33983
-7.25817
-7.17015
-7.07563
-6.97453
-6.86672
-6.75205
-6.63034
-6.50163
-6.36601
-6.22345
-6.07389
-5.91732
-5.75375
-5.5832
-5.40569
-5.2213
-5.03008
-4.83213
-4.62755
-4.41645
-4.19898
-3.97528
-3.74552
-3.50988
-3.26856
-3.02176
-2.76972
-2.51266
-2.25084
-1.98451
-1.71396
-1.43945
-1.16128
-0.87976
-0.595182
-0.307865
-0.0181256
0.273718
0.567355
0.862465
1.1587
1.4557
1.75318
2.05083
2.34834
2.64537
2.94163
3.2368
3.53059
3.82272
4.11291
4.40089
4.6864
4.96919
5.24904
5.52572
5.79902
6.06875
6.33472
6.59678
6.85476
7.10851
7.35791
7.60283
7.84318
8.07886
8.30978
8.53588
8.75708
8.97334
9.18459
9.39082
9.59201
9.78812
9.97914
10.165
10.3456
10.521
10.6913
10.8563
11.0162
11.1711
11.3209
11.466
11.6066
11.7433
11.8779
12.0104
12.154
12.2821
-6.7119
-6.71348
-6.71581
-6.71778
-6.71904
-6.71987
-6.72053
-6.72122
-6.72208
-6.72323
-6.72474
-6.72668
-6.72908
-6.73199
-6.73543
-6.73943
-6.74401
-6.74921
-6.75504
-6.76152
-6.76868
-6.77653
-6.78511
-6.79444
-6.80459
-6.81564
-6.82773
-6.84101
-6.85565
-6.87178
-6.88936
-6.9082
-6.92802
-6.94881
-6.97064
-6.99339
-7.01683
-7.04094
-7.06598
-7.09217
-7.1192
-7.14685
-7.17513
-7.204
-7.23332
-7.26309
-7.2932
-7.32355
-7.35408
-7.38471
-7.41536
-7.44599
-7.47649
-7.50681
-7.53686
-7.56654
-7.59576
-7.62443
-7.65243
-7.67965
-7.70598
-7.73129
-7.75544
-7.77829
-7.79971
-7.81954
-7.83761
-7.85376
-7.86783
-7.87963
-7.88899
-7.8957
-7.89959
-7.90046
-7.89811
-7.89233
-7.88293
-7.8697
-7.85243
-7.83094
-7.80501
-7.77444
-7.73904
-7.69861
-7.65297
-7.60194
-7.54533
-7.48299
-7.41475
-7.34046
-7.25997
-7.17313
-7.07983
-6.97995
-6.87337
-6.75999
-6.63971
-6.51251
-6.3784
-6.23736
-6.08934
-5.93433
-5.77234
-5.60338
-5.42748
-5.24471
-5.05511
-4.85879
-4.65583
-4.44636
-4.2305
-4.00841
-3.78025
-3.54619
-3.30642
-3.06116
-2.81063
-2.55505
-2.29468
-2.02977
-1.76058
-1.48741
-1.21054
-0.930256
-0.646874
-0.360702
-0.0720583
0.218745
0.511404
0.805583
1.10093
1.39711
1.69386
1.99084
2.28771
2.58418
2.87994
3.17467
3.46809
3.7599
4.04984
4.33762
4.62299
4.90571
5.18553
5.46224
5.73563
6.00549
6.27164
6.53392
6.79217
7.04622
7.29597
7.54127
7.78202
8.01812
8.24948
8.47604
8.69774
8.91452
9.12632
9.33311
9.53487
9.73166
9.92345
10.1101
10.2916
10.4679
10.6389
10.8049
10.9656
11.1213
11.2721
11.4181
11.5597
11.6973
11.8329
11.9652
12.107
12.2215
-6.70502
-6.70739
-6.71112
-6.71423
-6.7163
-6.71774
-6.7189
-6.72
-6.72119
-6.72261
-6.72435
-6.72648
-6.72906
-6.73212
-6.73569
-6.73982
-6.74453
-6.74985
-6.75579
-6.7624
-6.76969
-6.77769
-6.78645
-6.79601
-6.80644
-6.81782
-6.83026
-6.84389
-6.85879
-6.87505
-6.89263
-6.91144
-6.93129
-6.95212
-6.97385
-6.99643
-7.01977
-7.04387
-7.06877
-7.09454
-7.12111
-7.14839
-7.1763
-7.20471
-7.23355
-7.26277
-7.29231
-7.32212
-7.35213
-7.38227
-7.41247
-7.44266
-7.47277
-7.50272
-7.53242
-7.56179
-7.59074
-7.61917
-7.64696
-7.67402
-7.70021
-7.72541
-7.7495
-7.77233
-7.79376
-7.81363
-7.83179
-7.84806
-7.86228
-7.87427
-7.88385
-7.89083
-7.89502
-7.89621
-7.89422
-7.88885
-7.87988
-7.86711
-7.85034
-7.82937
-7.804
-7.77402
-7.73924
-7.69946
-7.6545
-7.60416
-7.54829
-7.4867
-7.41924
-7.34575
-7.26608
-7.18009
-7.08766
-6.98866
-6.883
-6.77056
-6.65129
-6.52514
-6.39208
-6.25208
-6.10512
-5.95118
-5.79026
-5.62238
-5.44757
-5.26589
-5.07739
-4.88216
-4.6803
-4.47192
-4.25715
-4.03614
-3.80904
-3.57604
-3.33732
-3.09308
-2.84356
-2.58897
-2.32956
-2.0656
-1.79733
-1.52505
-1.24903
-0.969573
-0.686984
-0.401572
-0.113654
0.176467
0.468482
0.76204
1.0568
1.35246
1.64873
1.94527
2.24175
2.53786
2.8333
3.12776
3.42095
3.71259
4.00238
4.29006
4.57538
4.85808
5.13793
5.41471
5.68819
5.9582
6.22453
6.48702
6.7455
6.99983
7.24987
7.49549
7.73658
7.97306
8.20483
8.43181
8.65395
8.87118
9.08344
9.29069
9.49289
9.69006
9.88221
10.0693
10.2511
10.4278
10.5993
10.7657
10.9269
11.0831
11.2343
11.3807
11.5228
11.6607
11.796
11.9269
12.0652
12.1672
-6.69852
-6.70164
-6.70672
-6.711
-6.71394
-6.71608
-6.71785
-6.71947
-6.72113
-6.72297
-6.72509
-6.72758
-6.73049
-6.73388
-6.73777
-6.74222
-6.74725
-6.75288
-6.75917
-6.76611
-6.77378
-6.78218
-6.79137
-6.80139
-6.81231
-6.82419
-6.83712
-6.85117
-6.8664
-6.88285
-6.90049
-6.91928
-6.9391
-6.95989
-6.98156
-7.00405
-7.02731
-7.05131
-7.07605
-7.10151
-7.12767
-7.15447
-7.18186
-7.20977
-7.23812
-7.26686
-7.29594
-7.32529
-7.35487
-7.38461
-7.41443
-7.44428
-7.47407
-7.50373
-7.53318
-7.56233
-7.59109
-7.61935
-7.64701
-7.67397
-7.7001
-7.72527
-7.74935
-7.77221
-7.7937
-7.81366
-7.83193
-7.84834
-7.86274
-7.87492
-7.88472
-7.89195
-7.8964
-7.89789
-7.89621
-7.89116
-7.88254
-7.87015
-7.85377
-7.83321
-7.80825
-7.77871
-7.74438
-7.70507
-7.66059
-7.61076
-7.5554
-7.49434
-7.42742
-7.35448
-7.27537
-7.18996
-7.09811
-6.99973
-6.89469
-6.78292
-6.66432
-6.53887
-6.40651
-6.26721
-6.12095
-5.96771
-5.80751
-5.64034
-5.46625
-5.28529
-5.09751
-4.90301
-4.70187
-4.49421
-4.28016
-4.05986
-3.83348
-3.60118
-3.36315
-3.1196
-2.87075
-2.61683
-2.35807
-2.09473
-1.82709
-1.5554
-1.27997
-1.00108
-0.719029
-0.434139
-0.146719
0.142935
0.434494
0.727608
1.02195
1.31725
1.61318
1.90941
2.2056
2.50145
2.79666
3.09092
3.38394
3.67543
3.96511
4.25272
4.53798
4.82066
5.10051
5.37732
5.65087
5.92097
6.18742
6.45004
6.70869
6.9632
7.21344
7.4593
7.70065
7.9374
8.16946
8.39674
8.61918
8.83672
9.04929
9.25685
9.45934
9.65677
9.84915
10.0364
10.2185
10.3955
10.5673
10.7339
10.8954
11.0519
11.2033
11.35
11.4921
11.6298
11.7644
11.8932
12.028
12.119
-6.69348
-6.69732
-6.70352
-6.70883
-6.71259
-6.71545
-6.71785
-6.72004
-6.72223
-6.72456
-6.72714
-6.73007
-6.73341
-6.73722
-6.74154
-6.74641
-6.75188
-6.75795
-6.76469
-6.77211
-6.78025
-6.78915
-6.79886
-6.80941
-6.82086
-6.83326
-6.84665
-6.8611
-6.87662
-6.89325
-6.91095
-6.9297
-6.94944
-6.9701
-6.99163
-7.01396
-7.03707
-7.0609
-7.08544
-7.11066
-7.13653
-7.16299
-7.19001
-7.21754
-7.24551
-7.27389
-7.30261
-7.33163
-7.36089
-7.39032
-7.41987
-7.44947
-7.47904
-7.50851
-7.5378
-7.56682
-7.59547
-7.62366
-7.65128
-7.67822
-7.70436
-7.72957
-7.75371
-7.77665
-7.79825
-7.81833
-7.83676
-7.85334
-7.86792
-7.88031
-7.89033
-7.89778
-7.90248
-7.90422
-7.90281
-7.89803
-7.8897
-7.87759
-7.86151
-7.84124
-7.81659
-7.78736
-7.75334
-7.71435
-7.67019
-7.62068
-7.56565
-7.50492
-7.43834
-7.36574
-7.28698
-7.20192
-7.11044
-7.01242
-6.90777
-6.7964
-6.67822
-6.55319
-6.42125
-6.28238
-6.13654
-5.98373
-5.82396
-5.65723
-5.48357
-5.30305
-5.11572
-4.92166
-4.72097
-4.51376
-4.30015
-4.0803
-3.85436
-3.62251
-3.38493
-3.14182
-2.89341
-2.63991
-2.38158
-2.11867
-1.85143
-1.58015
-1.30511
-1.0266
-0.744926
-0.460399
-0.173323
0.115998
0.407218
0.700003
0.99405
1.28907
1.58475
1.88073
2.1767
2.47234
2.76736
3.06145
3.35431
3.64567
3.93523
4.22273
4.50792
4.79055
5.07037
5.34716
5.62072
5.89083
6.15732
6.42001
6.67873
6.93335
7.18371
7.4297
7.6712
7.90811
8.14034
8.3678
8.59043
8.80817
9.02094
9.22869
9.43139
9.629
9.82155
10.009
10.1913
10.3685
10.5404
10.7073
10.869
11.0256
11.1771
11.3238
11.4658
11.6031
11.7366
11.8631
11.9947
12.0761
-6.69068
-6.69508
-6.70213
-6.70824
-6.71272
-6.71623
-6.71922
-6.72198
-6.72469
-6.72752
-6.73058
-6.73398
-6.73778
-6.74205
-6.74683
-6.75216
-6.75809
-6.76464
-6.77185
-6.77976
-6.78841
-6.79781
-6.80803
-6.81908
-6.83101
-6.84386
-6.85765
-6.87243
-6.8882
-6.90497
-6.92273
-6.94146
-6.96111
-6.98165
-7.00303
-7.0252
-7.04813
-7.07178
-7.09612
-7.12111
-7.14673
-7.17294
-7.19969
-7.22694
-7.25465
-7.28277
-7.31125
-7.34005
-7.36909
-7.39834
-7.42773
-7.45718
-7.48664
-7.51602
-7.54525
-7.57422
-7.60286
-7.63107
-7.65872
-7.68572
-7.71193
-7.73724
-7.7615
-7.78458
-7.80632
-7.82657
-7.84517
-7.86194
-7.87671
-7.88931
-7.89953
-7.9072
-7.91211
-7.91407
-7.91287
-7.90831
-7.90018
-7.88828
-7.8724
-7.85234
-7.82788
-7.79884
-7.76501
-7.72619
-7.68221
-7.63287
-7.578
-7.51744
-7.45102
-7.37858
-7.29998
-7.21508
-7.12377
-7.02593
-6.92146
-6.81027
-6.69229
-6.56745
-6.43572
-6.29705
-6.15142
-5.99881
-5.83925
-5.67273
-5.49929
-5.31899
-5.13189
-4.93806
-4.7376
-4.53063
-4.31727
-4.09767
-3.87198
-3.64038
-3.40305
-3.16021
-2.91205
-2.65882
-2.40075
-2.1381
-1.87112
-1.6001
-1.32532
-1.04706
-0.76564
-0.48136
-0.19452
0.0945541
0.385522
0.678067
0.971891
1.2667
1.56218
1.85797
2.15374
2.44921
2.74405
3.03798
3.3307
3.62192
3.91136
4.19875
4.48384
4.76637
5.04612
5.32285
5.59636
5.86645
6.13293
6.39562
6.65436
6.909
7.15941
7.40545
7.64702
7.88401
8.11632
8.34389
8.56663
8.78447
8.99736
9.20524
9.40807
9.60581
9.79848
9.98605
10.1685
10.3458
10.5179
10.6848
10.8466
11.0033
11.1549
11.3015
11.4431
11.5797
11.7121
11.8362
11.9649
12.038
-6.69051
-6.69528
-6.70287
-6.70954
-6.71458
-6.71863
-6.72215
-6.7254
-6.72859
-6.73188
-6.73539
-6.73923
-6.74347
-6.74816
-6.75337
-6.75913
-6.76549
-6.77248
-6.78014
-6.7885
-6.79759
-6.80744
-6.81809
-6.82956
-6.84188
-6.85508
-6.86919
-6.88421
-6.90016
-6.91705
-6.93485
-6.95356
-6.97314
-6.99357
-7.01481
-7.03684
-7.0596
-7.08309
-7.10725
-7.13207
-7.15751
-7.18353
-7.2101
-7.23717
-7.26472
-7.29268
-7.32103
-7.34969
-7.37864
-7.4078
-7.43712
-7.46654
-7.49598
-7.52536
-7.55461
-7.58364
-7.61235
-7.64063
-7.66839
-7.69551
-7.72186
-7.74731
-7.77174
-7.79498
-7.8169
-7.83734
-7.85612
-7.87309
-7.88805
-7.90083
-7.91124
-7.91909
-7.92417
-7.92629
-7.92525
-7.92084
-7.91284
-7.90107
-7.8853
-7.86533
-7.84096
-7.81199
-7.77822
-7.73946
-7.69552
-7.64621
-7.59136
-7.53081
-7.4644
-7.39196
-7.31336
-7.22846
-7.13715
-7.03931
-6.93485
-6.82367
-6.70571
-6.58089
-6.44918
-6.31053
-6.16493
-6.01237
-5.85284
-5.68636
-5.51298
-5.33273
-5.14569
-4.95193
-4.75156
-4.54467
-4.33141
-4.1119
-3.88633
-3.65484
-3.41764
-3.17492
-2.9269
-2.67381
-2.41589
-2.15339
-1.88658
-1.61572
-1.3411
-1.06302
-0.78177
-0.497659
-0.210994
0.0778889
0.368663
0.661023
0.954665
1.2493
1.54461
1.84022
2.13582
2.43112
2.7258
3.01957
3.31213
3.6032
3.89249
4.17975
4.46471
4.74713
5.02677
5.30341
5.57684
5.84685
6.11327
6.3759
6.63461
6.88922
7.1396
7.38564
7.62721
7.86422
8.09656
8.32416
8.54694
8.76484
8.97779
9.18574
9.38864
9.58647
9.77921
9.96686
10.1494
10.3267
10.4989
10.6659
10.8278
10.9844
11.136
11.2823
11.4235
11.5593
11.6903
11.8121
11.9382
12.0043
-6.69303
-6.69799
-6.70582
-6.71281
-6.71823
-6.72269
-6.72662
-6.73027
-6.73386
-6.73753
-6.74143
-6.74563
-6.75023
-6.7553
-6.76087
-6.767
-6.77372
-6.78107
-6.78908
-6.79779
-6.80722
-6.81741
-6.82838
-6.84014
-6.85274
-6.86618
-6.88049
-6.89567
-6.91173
-6.92868
-6.94649
-6.96517
-6.98469
-7.00504
-7.02618
-7.04808
-7.07073
-7.09409
-7.11813
-7.14283
-7.16815
-7.19407
-7.22054
-7.24754
-7.27501
-7.30292
-7.33122
-7.35987
-7.3888
-7.41798
-7.44733
-7.4768
-7.50631
-7.53578
-7.56514
-7.59428
-7.62312
-7.65155
-7.67947
-7.70675
-7.73327
-7.75891
-7.78351
-7.80695
-7.82905
-7.84967
-7.86863
-7.88576
-7.90089
-7.91382
-7.92437
-7.93235
-7.93754
-7.93976
-7.9388
-7.93445
-7.9265
-7.91475
-7.89899
-7.87902
-7.85462
-7.82561
-7.79178
-7.75294
-7.70891
-7.6595
-7.60454
-7.54386
-7.47732
-7.40475
-7.32601
-7.24097
-7.14951
-7.05154
-6.94694
-6.83563
-6.71754
-6.59261
-6.46078
-6.32203
-6.17632
-6.02366
-5.86404
-5.69749
-5.52403
-5.34372
-5.15663
-4.96283
-4.76243
-4.55553
-4.34225
-4.12276
-3.89719
-3.66574
-3.42857
-3.1859
-2.93795
-2.68493
-2.42709
-2.16468
-1.89797
-1.62722
-1.35272
-1.07476
-0.793645
-0.509668
-0.223155
0.0655634
0.356174
0.648368
0.94184
1.23631
1.53144
1.82687
2.1223
2.41741
2.71191
3.0055
3.29788
3.58878
3.8779
4.16499
4.4498
4.73206
5.01156
5.28806
5.56135
5.83124
6.09754
6.36008
6.61868
6.87321
7.12353
7.3695
7.61102
7.84799
8.0803
8.30789
8.53066
8.74856
8.96152
9.16949
9.37242
9.57029
9.76307
9.95076
10.1333
10.3107
10.4829
10.65
10.8118
10.9684
11.1197
11.2658
11.4065
11.5414
11.6709
11.7905
11.9142
11.9744
-6.69808
-6.70305
-6.71087
-6.71795
-6.72358
-6.72829
-6.7325
-6.73645
-6.74032
-6.74428
-6.74846
-6.75294
-6.75781
-6.76314
-6.76897
-6.77534
-6.78231
-6.78989
-6.79814
-6.80707
-6.81671
-6.82709
-6.83824
-6.85018
-6.86293
-6.8765
-6.89092
-6.90618
-6.92229
-6.93925
-6.95706
-6.97571
-6.99518
-7.01546
-7.03653
-7.05836
-7.08094
-7.10423
-7.12821
-7.15286
-7.17814
-7.20403
-7.23048
-7.25748
-7.28497
-7.31291
-7.34126
-7.36997
-7.39899
-7.42826
-7.45773
-7.48732
-7.51697
-7.5466
-7.57611
-7.60542
-7.63444
-7.66305
-7.69115
-7.71861
-7.74532
-7.77113
-7.79591
-7.81951
-7.84178
-7.86254
-7.88164
-7.89889
-7.91412
-7.92715
-7.93777
-7.94579
-7.95102
-7.95324
-7.95227
-7.94788
-7.93987
-7.92804
-7.91218
-7.89208
-7.86754
-7.83836
-7.80435
-7.76531
-7.72106
-7.67143
-7.61623
-7.55531
-7.48852
-7.41569
-7.33669
-7.25139
-7.15969
-7.06146
-6.95662
-6.84507
-6.72675
-6.60159
-6.46955
-6.33059
-6.18469
-6.03184
-5.87204
-5.70532
-5.53172
-5.35128
-5.16406
-4.97016
-4.76966
-4.56268
-4.34934
-4.1298
-3.9042
-3.67273
-3.43556
-3.1929
-2.94497
-2.692
-2.43421
-2.17187
-1.90524
-1.63459
-1.3602
-1.08236
-0.801372
-0.517539
-0.231188
0.0573601
0.347799
0.639809
0.933091
1.22737
1.5223
1.81753
2.11275
2.40765
2.70194
2.99531
3.28748
3.57816
3.86707
4.15395
4.43855
4.72061
4.99991
5.27622
5.54933
5.81905
6.08518
6.34756
6.60602
6.86041
7.1106
7.35646
7.59788
7.83475
8.06699
8.29451
8.51722
8.73508
8.948
9.15595
9.35888
9.55675
9.74955
9.93724
10.1198
10.2972
10.4694
10.6365
10.7982
10.9547
11.1058
11.2515
11.3916
11.5255
11.6537
11.7712
11.8926
11.9479
-6.70535
-6.7102
-6.71778
-6.72476
-6.73041
-6.73523
-6.73958
-6.74369
-6.74773
-6.75186
-6.75619
-6.76082
-6.76583
-6.77129
-6.77723
-6.78372
-6.79078
-6.79846
-6.80679
-6.81579
-6.82552
-6.83597
-6.84719
-6.85919
-6.87199
-6.8856
-6.90004
-6.91531
-6.93143
-6.94838
-6.96616
-6.98478
-7.00421
-7.02445
-7.04547
-7.06727
-7.08982
-7.1131
-7.13708
-7.16175
-7.18706
-7.21299
-7.2395
-7.26655
-7.29411
-7.32214
-7.35061
-7.37946
-7.40863
-7.43807
-7.46771
-7.49749
-7.52732
-7.55713
-7.58683
-7.61632
-7.64551
-7.6743
-7.70256
-7.73019
-7.75705
-7.783
-7.80791
-7.83162
-7.85398
-7.87482
-7.89397
-7.91126
-7.9265
-7.93951
-7.9501
-7.95806
-7.96321
-7.96533
-7.96422
-7.95968
-7.95149
-7.93946
-7.92337
-7.90302
-7.87822
-7.84876
-7.81444
-7.77509
-7.73052
-7.68054
-7.625
-7.56373
-7.49659
-7.4234
-7.34405
-7.25841
-7.16636
-7.06781
-6.96264
-6.85078
-6.73215
-6.6067
-6.47438
-6.33516
-6.189
-6.03592
-5.8759
-5.70898
-5.53519
-5.35458
-5.16722
-4.97318
-4.77256
-4.56549
-4.35207
-4.13247
-3.90683
-3.67534
-3.43817
-3.19553
-2.94764
-2.69472
-2.43701
-2.17476
-1.90823
-1.6377
-1.36345
-1.08576
-0.804934
-0.521283
-0.235128
0.0532233
0.343456
0.635241
0.928293
1.22234
1.51703
1.812
2.10695
2.40159
2.69561
2.98871
3.28061
3.57101
3.85966
4.14627
4.4306
4.7124
4.99144
5.2675
5.54037
5.80986
6.07576
6.33793
6.59618
6.85038
7.1004
7.34609
7.58736
7.82409
8.0562
8.2836
8.50622
8.72399
8.93685
9.14475
9.34764
9.54549
9.73827
9.92595
10.1085
10.2859
10.4581
10.6251
10.7867
10.943
11.0939
11.2391
11.3786
11.5115
11.6383
11.7538
11.8731
11.9245
-6.71447
-6.71908
-6.72627
-6.73297
-6.7385
-6.74327
-6.74761
-6.75173
-6.75579
-6.75993
-6.76427
-6.76889
-6.77389
-6.7793
-6.78521
-6.79165
-6.79867
-6.8063
-6.81459
-6.82355
-6.83323
-6.84365
-6.85482
-6.86678
-6.87954
-6.89312
-6.90752
-6.92275
-6.93882
-6.95573
-6.97348
-6.99206
-7.01147
-7.03169
-7.05271
-7.07452
-7.09709
-7.1204
-7.14443
-7.16914
-7.19451
-7.22051
-7.24711
-7.27428
-7.30197
-7.33016
-7.3588
-7.38783
-7.41719
-7.44683
-7.47666
-7.50662
-7.53663
-7.5666
-7.59645
-7.62609
-7.65541
-7.68431
-7.71268
-7.74039
-7.76731
-7.79331
-7.81824
-7.84196
-7.86429
-7.88508
-7.90417
-7.92136
-7.93649
-7.94935
-7.95977
-7.96754
-7.97247
-7.97435
-7.97297
-7.96814
-7.95965
-7.94728
-7.93085
-7.91013
-7.88495
-7.85509
-7.82037
-7.7806
-7.73561
-7.6852
-7.62923
-7.56754
-7.49996
-7.42636
-7.3466
-7.26055
-7.16812
-7.06918
-6.96365
-6.85144
-6.73248
-6.60671
-6.47409
-6.33458
-6.18817
-6.03484
-5.87461
-5.70749
-5.53352
-5.35276
-5.16526
-4.97111
-4.7704
-4.56326
-4.3498
-4.13017
-3.90454
-3.67306
-3.43593
-3.19336
-2.94555
-2.69273
-2.43514
-2.17303
-1.90666
-1.63631
-1.36224
-1.08477
-0.804172
-0.520774
-0.234874
0.0532205
0.343171
0.634655
0.927421
1.22118
1.51553
1.81017
2.10479
2.39909
2.69276
2.98552
3.27707
3.56713
3.85542
4.1417
4.42569
4.70716
4.98588
5.26162
5.53419
5.80337
6.06899
6.33088
6.58887
6.84283
7.0926
7.33808
7.57914
7.81569
8.04763
8.27487
8.49736
8.71501
8.92776
9.13558
9.3384
9.5362
9.72894
9.91659
10.0991
10.2765
10.4486
10.6155
10.7771
10.9332
11.0838
11.2285
11.3673
11.4992
11.6246
11.7383
11.8556
11.9039
-6.72505
-6.72936
-6.73604
-6.74233
-6.74759
-6.75215
-6.75631
-6.76026
-6.76415
-6.76812
-6.77228
-6.77672
-6.78152
-6.78675
-6.79247
-6.79873
-6.80557
-6.81303
-6.82114
-6.82995
-6.83948
-6.84976
-6.86081
-6.87265
-6.8853
-6.89878
-6.91309
-6.92824
-6.94425
-6.9611
-6.97882
-6.99738
-7.01677
-7.03699
-7.05801
-7.07983
-7.10242
-7.12576
-7.14984
-7.17461
-7.20007
-7.22618
-7.25291
-7.28023
-7.30809
-7.33644
-7.36524
-7.39444
-7.42396
-7.45375
-7.48372
-7.5138
-7.5439
-7.57395
-7.60385
-7.63351
-7.66284
-7.69173
-7.72006
-7.74771
-7.77454
-7.80043
-7.82522
-7.84877
-7.87092
-7.8915
-7.91034
-7.92728
-7.94212
-7.95468
-7.96477
-7.97219
-7.97675
-7.97825
-7.97647
-7.97122
-7.9623
-7.94949
-7.9326
-7.91142
-7.88577
-7.85543
-7.82023
-7.77998
-7.7345
-7.68362
-7.62718
-7.56501
-7.49698
-7.42294
-7.34275
-7.2563
-7.16346
-7.06415
-6.95826
-6.84571
-6.72643
-6.60037
-6.46748
-6.32772
-6.18108
-6.02756
-5.86714
-5.69987
-5.52577
-5.3449
-5.15732
-4.96312
-4.76238
-4.55523
-4.3418
-4.12222
-3.89665
-3.66527
-3.42827
-3.18583
-2.93819
-2.68556
-2.42818
-2.1663
-1.90019
-1.6301
-1.35633
-1.07916
-0.798904
-0.515847
-0.230283
0.0574522
0.347015
0.638105
0.930504
1.22386
1.51779
1.81199
2.10618
2.40005
2.69329
2.98561
3.27672
3.56635
3.85422
4.14006
4.42364
4.7047
4.98301
5.25837
5.53055
5.79936
6.06463
6.32618
6.58385
6.83749
7.08698
7.33218
7.57299
7.8093
8.04102
8.26808
8.49038
8.70788
8.92051
9.12821
9.33095
9.52867
9.72136
9.90896
10.0914
10.2688
10.4409
10.6077
10.7691
10.925
11.0753
11.2195
11.3576
11.4886
11.6126
11.7246
11.8399
11.886
-6.73679
-6.74075
-6.74687
-6.75265
-6.75747
-6.76164
-6.76542
-6.76899
-6.77251
-6.7761
-6.77988
-6.78396
-6.78841
-6.79329
-6.79868
-6.80461
-6.81115
-6.81832
-6.82616
-6.83472
-6.84401
-6.85406
-6.86491
-6.87657
-6.88906
-6.90239
-6.91657
-6.93161
-6.94751
-6.96427
-6.9819
-7.00039
-7.01974
-7.03992
-7.06092
-7.08273
-7.10532
-7.12868
-7.15281
-7.17767
-7.20322
-7.22944
-7.25628
-7.28369
-7.31164
-7.34007
-7.36893
-7.39816
-7.42771
-7.4575
-7.48745
-7.51748
-7.5475
-7.57743
-7.60719
-7.63669
-7.66582
-7.6945
-7.72258
-7.74996
-7.77651
-7.80208
-7.82653
-7.84972
-7.87148
-7.89166
-7.91009
-7.92659
-7.94098
-7.95309
-7.96271
-7.96965
-7.97372
-7.97472
-7.97243
-7.96667
-7.95723
-7.9439
-7.92649
-7.90479
-7.87861
-7.84775
-7.81204
-7.77127
-7.72529
-7.67392
-7.617
-7.55438
-7.48592
-7.41146
-7.33087
-7.24403
-7.15084
-7.05119
-6.94499
-6.83216
-6.71263
-6.58634
-6.45325
-6.31332
-6.16654
-6.01289
-5.85239
-5.68505
-5.51092
-5.33005
-5.14249
-4.94834
-4.74769
-4.54065
-4.32735
-4.10793
-3.88256
-3.65139
-3.41463
-3.17246
-2.92511
-2.67279
-2.41574
-2.15422
-1.88848
-1.61879
-1.34544
-1.06872
-0.788916
-0.506305
-0.221207
0.0660323
0.355077
0.645674
0.937594
1.23042
1.52379
1.81745
2.1111
2.40442
2.69712
2.9889
3.27947
3.56856
3.8559
4.14123
4.42429
4.70485
4.98268
5.25755
5.52927
5.79765
6.06248
6.32362
6.5809
6.83418
7.08331
7.32819
7.56869
7.80472
8.03619
8.26301
8.48511
8.70242
8.91489
9.12247
9.3251
9.52274
9.71535
9.9029
10.0853
10.2626
10.4347
10.6014
10.7627
10.9184
11.0683
11.2121
11.3494
11.4794
11.6022
11.7127
11.826
11.8706
-6.74951
-6.75317
-6.75873
-6.7639
-6.76813
-6.77169
-6.77484
-6.77779
-6.78068
-6.78366
-6.78685
-6.79036
-6.79426
-6.79864
-6.80354
-6.80902
-6.81512
-6.8219
-6.82937
-6.83758
-6.84654
-6.8563
-6.86686
-6.87825
-6.89049
-6.90359
-6.91756
-6.93241
-6.94813
-6.96473
-6.9822
-7.00055
-7.01976
-7.03984
-7.06076
-7.08251
-7.10506
-7.1284
-7.15249
-7.1773
-7.20281
-7.22896
-7.25571
-7.28303
-7.31085
-7.33913
-7.36781
-7.39684
-7.42616
-7.4557
-7.48539
-7.51514
-7.54484
-7.57442
-7.60379
-7.63287
-7.66157
-7.68978
-7.71739
-7.74427
-7.77029
-7.79533
-7.81923
-7.84185
-7.86305
-7.88266
-7.90051
-7.91643
-7.93024
-7.94176
-7.95081
-7.95718
-7.96067
-7.9611
-7.95826
-7.95194
-7.94195
-7.92808
-7.91013
-7.8879
-7.86121
-7.82985
-7.79365
-7.75241
-7.70597
-7.65417
-7.59685
-7.53384
-7.46502
-7.39021
-7.3093
-7.22218
-7.12873
-7.02885
-6.92245
-6.80945
-6.68978
-6.56338
-6.43021
-6.29023
-6.14344
-5.98981
-5.82936
-5.6621
-5.48808
-5.30734
-5.11995
-4.926
-4.72558
-4.5188
-4.30579
-4.0867
-3.86166
-3.63087
-3.39451
-3.15276
-2.90586
-2.65402
-2.39746
-2.13646
-1.87125
-1.60213
-1.32936
-1.05323
-0.774003
-0.491994
-0.207527
0.0790601
0.367444
0.657434
0.948726