/*--------------------------------*- C++ -*----------------------------------*\
  =========                 |
  \\      /  F ield         | OpenFOAM: The Open Source CFD Toolbox
   \\    /   O peration     | Website:  https://openfoam.org
    \\  /    A nd           | Version:  8
     \\/     M anipulation  |
\*---------------------------------------------------------------------------*/
FoamFile
{
    version     2.0;
    format      ascii;
    class       volScalarField;
    location    "2500";
    object      nuTilda;
}
// * * * * * * * * * * * * * * * * * * * * * * * * * * * * * * * * * * * * * //

dimensions      [0 2 -1 0 0 0 0];

internalField   nonuniform List<scalar> 
12225
(
0.0122671
0.00158833
0.000666932
0.000412201
0.000298001
0.000234419
0.000192049
0.000186517
0.000141369
0.000110265
9.73203e-05
9.07194e-05
8.2004e-05
7.63425e-05
7.17079e-05
7.01742e-05
6.8134e-05
7.40042e-05
0.0323823
0.00744533
0.00330642
0.00204338
0.00146818
0.00114477
0.000936743
0.000800566
0.000680248
0.000578064
0.000507248
0.000453562
0.000411868
0.000380374
0.000352023
0.000329998
0.000313759
0.000295894
0.0490123
0.01515
0.00728196
0.00457856
0.00330642
0.00258059
0.00211241
0.00178924
0.00154196
0.00134781
0.00119795
0.00107898
0.000982393
0.000902879
0.000836444
0.000781455
0.000736172
0.000687908
0.063054
0.0237783
0.0122894
0.00788815
0.00573398
0.004485
0.00367415
0.00310736
0.00268477
0.00235812
0.00210119
0.00189468
0.00172543
0.00158465
0.00146631
0.00136625
0.00128169
0.00119817
0.074932
0.0328517
0.0181452
0.0119262
0.00874549
0.00686413
0.00563081
0.00476256
0.0041175
0.00362033
0.00322735
0.00290997
0.00264905
0.0024315
0.00224808
0.00209198
0.00195837
0.0018364
0.0849536
0.0420208
0.0246655
0.0166359
0.0123325
0.00972587
0.0079954
0.00676786
0.00585347
0.00514771
0.00458846
0.0041359
0.00376338
0.00345244
0.00318988
0.00296602
0.00277367
0.0026048
0.0933822
0.0510219
0.0316642
0.0219415
0.016474
0.0130717
0.0107779
0.00913552
0.00790571
0.00695341
0.00619691
0.00558369
0.00507839
0.00465635
0.0042998
0.00399565
0.00373419
0.00350825
0.0993794
0.0583363
0.0378386
0.0268568
0.0204171
0.0163053
0.0134892
0.011453
0.00991892
0.0087263
0.00777636
0.00700499
0.00636868
0.00583687
0.00538743
0.00500401
0.00467456
0.00439131
0.104023
0.0645454
0.0433804
0.0314239
0.0241571
0.0194092
0.0161097
0.0137018
0.0118766
0.0104521
0.00931444
0.00838905
0.00762487
0.00698577
0.00644547
0.00598452
0.00558862
0.00524881
0.108368
0.0708939
0.0493756
0.0365496
0.0284517
0.0230231
0.0191863
0.0163548
0.0141926
0.0124968
0.011138
0.0100304
0.00911436
0.00834762
0.00769912
0.00714582
0.00667071
0.00626301
0.112368
0.0772557
0.0557282
0.0421918
0.0332976
0.0271652
0.0227468
0.0194432
0.0168984
0.0148904
0.0132749
0.0119545
0.0108605
0.0099438
0.00916798
0.00850588
0.00793739
0.00744918
0.115994
0.0834975
0.0623053
0.0482611
0.0386474
0.0318167
0.026789
0.0229739
0.0200046
0.0176452
0.0157379
0.0141736
0.0128749
0.011785
0.0108618
0.0100736
0.00939673
0.00881466
0.119234
0.0894856
0.0689377
0.0546109
0.0443919
0.0369007
0.0312597
0.0269088
0.0234836
0.02074
0.0185097
0.0166735
0.0151449
0.01386
0.0127704
0.0118396
0.0110397
0.0103508
0.122086
0.095084
0.075415
0.0610223
0.0503361
0.0422535
0.0360231
0.0311353
0.0272402
0.024093
0.021519
0.0193909
0.017614
0.0161174
0.0148466
0.0137601
0.0128257
0.0120196
0.124546
0.100135
0.0814619
0.0671725
0.056158
0.047577
0.0408126
0.0354174
0.031066
0.0275196
0.0246012
0.0221777
0.0201481
0.0184349
0.0169782
0.0157314
0.0146583
0.0137312
0.126578
0.104396
0.0866605
0.0725515
0.0613228
0.0523526
0.0451453
0.0393148
0.0345631
0.0306611
0.0274325
0.0247409
0.0224806
0.020569
0.0189413
0.0175468
0.0163454
0.0153061
0.128011
0.107322
0.0902141
0.0762353
0.0648743
0.0556509
0.0481493
0.0420254
0.0370012
0.0328553
0.0294126
0.0265352
0.0241143
0.0220643
0.0203172
0.0188191
0.0175275
0.0164083
0.128006
0.107313
0.0902048
0.0762269
0.0648674
0.0556454
0.048145
0.0420222
0.0369988
0.0328537
0.0294117
0.0265349
0.0241147
0.0220652
0.0203185
0.0188206
0.0175287
0.0164083
0.126509
0.104255
0.0864922
0.0723807
0.0611613
0.052205
0.0450128
0.0391967
0.0344584
0.0305686
0.0273506
0.0246684
0.0224163
0.0205118
0.0188903
0.0175006
0.0163024
0.0152631
0.124267
0.0995604
0.0807712
0.0664676
0.0554886
0.0469631
0.0402594
0.0349228
0.0306248
0.0271258
0.0242488
0.0218611
0.0198626
0.0181762
0.0167426
0.0155152
0.0144575
0.0135405
0.12136
0.0936399
0.0737261
0.0593348
0.0487592
0.0408249
0.0347467
0.0300003
0.0262308
0.0231928
0.0207127
0.018665
0.0169572
0.0155198
0.0142999
0.0132567
0.0123583
0.0115798
0.117686
0.0865903
0.0656967
0.0514791
0.0415374
0.0343608
0.0290184
0.0249322
0.0217348
0.0191848
0.0171184
0.0154211
0.0140106
0.0128263
0.0118229
0.0109656
0.010228
0.00958894
0.11305
0.0784122
0.056921
0.0432687
0.0342296
0.0279652
0.0234365
0.0200435
0.0174263
0.0153597
0.0136966
0.0123369
0.0112106
0.010267
0.00946865
0.00878718
0.00820101
0.00769346
0.107169
0.0691009
0.0476372
0.035029
0.0271566
0.021922
0.0182437
0.0155401
0.0134817
0.0118706
0.0105816
0.00953197
0.00866487
0.00793965
0.0073267
0.00680377
0.00635411
0.00596494
0.0996761
0.0587036
0.0381279
0.0270699
0.0205782
0.016433
0.0135949
0.0115438
0.00999923
0.00879908
0.00784342
0.00706755
0.00642793
0.00589354
0.00544234
0.00505737
0.00472637
0.00444012
0.0901097
0.0473665
0.0287363
0.0196847
0.0146976
0.0116312
0.00957853
0.00811528
0.00702332
0.00617995
0.00551059
0.00496791
0.00452124
0.00414797
0.0038335
0.00356468
0.00333344
0.00313392
0.0779076
0.0353826
0.0198606
0.0131383
0.00966107
0.00759298
0.00623353
0.00527431
0.00456401
0.00401884
0.00358703
0.00323602
0.00294755
0.00270531
0.00250294
0.0023286
0.00217797
0.00204903
0.06238
0.0232554
0.0119461
0.00765494
0.00556339
0.00435258
0.00356726
0.00301643
0.00261313
0.00230799
0.00206674
0.001867
0.00170321
0.00156266
0.00144887
0.00134779
0.00125929
0.00118387
0.0426105
0.0117794
0.00546931
0.00341388
0.00246077
0.00192015
0.0015729
0.00132905
0.0011597
0.00103885
0.000944569
0.000858162
0.000786195
0.000721437
0.000667019
0.000616943
0.000577983
0.00053315
0.0168348
0.0025599
0.00110031
0.000684192
0.000495179
0.000389151
0.00032166
0.000270752
0.0002809
0.000338968
0.000384516
0.000373911
0.000344025
0.000314309
0.000286173
0.00025257
0.000249783
0.000182359
3.78126e-06
1.43211e-05
2.60273e-05
3.85349e-05
4.60086e-05
4.9661e-05
5.01514e-05
4.78177e-05
4.46278e-05
3.95604e-05
3.42265e-05
2.94553e-05
2.67746e-05
2.74489e-05
2.96323e-05
3.14845e-05
3.13425e-05
2.85218e-05
2.38885e-05
2.02125e-05
2.08161e-05
2.64109e-05
3.93277e-05
6.38534e-05
8.7186e-05
0.000100595
0.000113321
0.00012433
0.000134319
0.000142823
0.000150416
0.000157036
0.000162899
0.000168055
0.000172587
0.000176614
0.000180202
0.000183421
0.000186318
0.00018893
0.000191279
0.000193386
0.000195264
0.000196926
0.000198386
0.000199654
0.00020074
0.000201649
0.000202381
0.000202805
0.000203296
0.000203379
0.000203439
0.000203323
0.000203045
0.000202631
0.000202075
0.000201383
0.000200554
0.000199593
0.0001985
0.000197279
0.000195932
0.000194462
0.000192872
0.000191165
0.000189341
0.000187405
0.000185359
0.000183207
0.000180951
0.000178594
0.000176139
0.000173589
0.000170946
0.000168213
0.000165392
0.000162486
0.000159496
0.000156424
0.00015327
0.000150033
0.000146711
0.000143302
0.000139803
0.000136211
0.000132518
0.000128717
0.000124795
0.000120739
0.000116531
0.000112156
0.000107614
0.000102959
9.83955e-05
9.44144e-05
9.15929e-05
8.98374e-05
8.85233e-05
8.73185e-05
8.61352e-05
8.49564e-05
8.37805e-05
8.26081e-05
8.14401e-05
8.02774e-05
7.91215e-05
7.79765e-05
7.68635e-05
7.5909e-05
7.4975e-05
7.40471e-05
7.31272e-05
7.22156e-05
7.13126e-05
7.04185e-05
6.95338e-05
6.86588e-05
6.77938e-05
6.69389e-05
6.60943e-05
6.52603e-05
6.44372e-05
6.36254e-05
6.28248e-05
6.20355e-05
6.12583e-05
6.0519e-05
5.98418e-05
5.91732e-05
5.85099e-05
5.78598e-05
5.7228e-05
5.66013e-05
5.59794e-05
5.53655e-05
5.47607e-05
5.41656e-05
5.35801e-05
5.30043e-05
5.24379e-05
5.18808e-05
5.13329e-05
5.07941e-05
5.02642e-05
4.97431e-05
4.92307e-05
4.87269e-05
4.82316e-05
4.77448e-05
4.72664e-05
4.67963e-05
4.63344e-05
4.58808e-05
4.54355e-05
4.49985e-05
4.45698e-05
4.41495e-05
4.37378e-05
4.33348e-05
4.29408e-05
4.25558e-05
4.21803e-05
4.18143e-05
4.14582e-05
4.1112e-05
4.07757e-05
4.04492e-05
4.01318e-05
3.9823e-05
3.95207e-05
3.92251e-05
3.89274e-05
3.86408e-05
3.83119e-05
3.80562e-05
3.75484e-05
3.73536e-05
3.63029e-05
3.49086e-05
5.89703e-06
4.05833e-05
9.24535e-05
0.000153688
0.000192534
0.000214543
0.000223342
0.00022192
0.000214085
0.000198535
0.000179524
0.000161569
0.000152489
0.000157003
0.000169315
0.000177337
0.000179533
0.000180672
0.000185616
0.00019432
0.00020805
0.000224484
0.000240349
0.00025617
0.000267053
0.000276635
0.000285184
0.000297667
0.000316324
0.00032999
0.000342506
0.000353253
0.000363035
0.000372008
0.000379806
0.000386931
0.000393568
0.000399938
0.000406171
0.000412331
0.000418413
0.000424376
0.000430166
0.000435742
0.000441076
0.000446153
0.000450955
0.000455471
0.000459703
0.000463648
0.000467348
0.000470766
0.000473942
0.000476864
0.000479538
0.000481965
0.000484144
0.000486078
0.000487765
0.000489207
0.000490404
0.000491357
0.000492068
0.000492542
0.000492789
0.000492813
0.00049261
0.000492175
0.000491526
0.000490665
0.000489599
0.000488334
0.000486877
0.000485234
0.000483413
0.000481421
0.000479265
0.000476953
0.000474493
0.000471893
0.000469159
0.000466301
0.000463326
0.000460241
0.000457056
0.000453778
0.000450416
0.000446977
0.00044347
0.000439903
0.000436282
0.000432611
0.000428892
0.000425116
0.000421265
0.000417313
0.000413244
0.000409086
0.000404889
0.000400678
0.00039646
0.000392239
0.000388019
0.000383803
0.000379595
0.000375398
0.000371215
0.000367048
0.000362897
0.00035876
0.000354648
0.000350565
0.000346513
0.000342494
0.00033851
0.000334562
0.000330652
0.000326781
0.000322952
0.000319164
0.000315419
0.000311717
0.00030806
0.00030445
0.000300886
0.000297368
0.000293897
0.000290471
0.000287089
0.000283754
0.000280463
0.000277226
0.000274044
0.000270901
0.000267795
0.000264733
0.000261716
0.000258747
0.000255825
0.000252949
0.000250119
0.000247335
0.000244595
0.0002419
0.000239248
0.00023664
0.000234074
0.00023155
0.000229068
0.000226627
0.000224226
0.000221867
0.000219547
0.000217268
0.000215029
0.000212831
0.000210673
0.000208556
0.000206481
0.000204449
0.000202461
0.000200517
0.000198621
0.000196773
0.000194974
0.000193226
0.00019153
0.000189886
0.000188292
0.000186748
0.000185247
0.000183793
0.000182357
0.000180994
0.00017951
0.000178387
0.000176291
0.000175968
0.000172989
0.000172126
1.28745e-05
7.40553e-05
0.000174284
0.000251857
0.000303645
0.00033336
0.00034422
0.000341411
0.000328823
0.000309959
0.000290678
0.000278315
0.000276115
0.000282581
0.000292642
0.000303192
0.000315655
0.000332263
0.00035349
0.000378287
0.000405362
0.000433453
0.000471329
0.000517452
0.000562905
0.000606908
0.000649891
0.000693464
0.00073274
0.000763987
0.000788966
0.00080877
0.000824469
0.000836926
0.000846921
0.000855229
0.000862551
0.00086953
0.000876703
0.000884425
0.000892805
0.000901719
0.000910928
0.000920197
0.000929347
0.000938258
0.000946855
0.00095509
0.000962927
0.000970336
0.000977297
0.000983778
0.000989779
0.00099529
0.00100031
0.00100484
0.00100888
0.00101242
0.00101548
0.00101804
0.00102011
0.00102168
0.00102276
0.00102331
0.00102346
0.00102318
0.00102239
0.00102114
0.00101946
0.00101734
0.0010148
0.00101186
0.00100853
0.00100481
0.00100073
0.000996306
0.000991543
0.000986458
0.000981068
0.000975387
0.000969432
0.000963215
0.000956755
0.000950064
0.000943158
0.000936053
0.000928763
0.000921301
0.000913683
0.00090592
0.000898025
0.00089001
0.000881883
0.000873652
0.000865326
0.000856915
0.000848432
0.000839891
0.000831309
0.000822699
0.000814074
0.00080544
0.000796806
0.00078818
0.00077957
0.000770981
0.000762421
0.000753895
0.000745409
0.000736969
0.00072858
0.000720247
0.000711976
0.00070377
0.000695633
0.000687568
0.000679578
0.000671667
0.000663837
0.00065609
0.000648428
0.000640853
0.000633367
0.000625972
0.000618669
0.000611459
0.000604341
0.000597317
0.000590386
0.000583551
0.000576811
0.000570167
0.000563616
0.000557153
0.000550777
0.000544491
0.000538296
0.000532193
0.000526182
0.000520262
0.000514433
0.000508694
0.000503043
0.00049748
0.000492004
0.000486613
0.000481306
0.000476082
0.00047094
0.000465878
0.000460897
0.000455994
0.000451168
0.000446419
0.000441745
0.000437145
0.000432619
0.000428164
0.00042378
0.000419465
0.000415218
0.000411038
0.000406922
0.000402869
0.000398875
0.000394938
0.000391054
0.000387217
0.00038342
0.000379656
0.000375912
0.000372174
0.000368417
0.000364625
0.000360722
0.000356745
0.000352325
0.000348023
0.000341565
0.000330413
2.17687e-05
0.000106422
0.000220222
0.000312818
0.000375503
0.000412496
0.000427935
0.000428331
0.000418418
0.000405149
0.000397072
0.000396236
0.000405351
0.000422384
0.000444937
0.000472483
0.000505629
0.000544745
0.000589028
0.000651009
0.0007247
0.000804356
0.000888535
0.000959149
0.00102155
0.00107765
0.00112804
0.00117294
0.0012122
0.00124608
0.00127532
0.00130065
0.00132276
0.0013423
0.00135984
0.00137586
0.00139078
0.00140494
0.0014186
0.00143195
0.00144511
0.00145816
0.00147112
0.00148397
0.00149666
0.00150912
0.00152125
0.00153295
0.00154414
0.00155474
0.00156469
0.00157396
0.00158254
0.0015904
0.00159753
0.00160394
0.00160961
0.00161455
0.00161875
0.00162221
0.00162493
0.00162691
0.00162807
0.0016285
0.00162838
0.00162746
0.00162584
0.00162352
0.00162052
0.00161686
0.00161257
0.00160765
0.00160213
0.00159603
0.00158937
0.00158218
0.00157447
0.00156627
0.00155761
0.0015485
0.00153897
0.00152905
0.00151875
0.00150809
0.00149711
0.00148582
0.00147425
0.00146241
0.00145034
0.00143804
0.00142555
0.00141287
0.00140002
0.00138702
0.00137389
0.00136065
0.0013473
0.00133387
0.00132039
0.00130686
0.0012933
0.00127973
0.00126617
0.00125261
0.00123908
0.00122558
0.00121213
0.00119873
0.0011854
0.00117213
0.00115895
0.00114586
0.00113286
0.00111996
0.00110716
0.00109448
0.00108192
0.00106947
0.00105716
0.00104497
0.00103291
0.00102099
0.0010092
0.000997555
0.000986051
0.000974689
0.000963471
0.000952398
0.00094147
0.000930689
0.000920054
0.000909566
0.000899221
0.000889015
0.000878948
0.000869021
0.000859235
0.00084959
0.000840086
0.000830722
0.000821497
0.000812411
0.00080346
0.000794645
0.000785963
0.000777412
0.00076899
0.000760697
0.000752529
0.000744486
0.000736565
0.000728764
0.000721083
0.000713518
0.000706069
0.000698733
0.000691508
0.000684393
0.000677385
0.000670482
0.000663682
0.000656982
0.00065038
0.000643871
0.000637452
0.000631118
0.000624862
0.000618677
0.000612554
0.00060648
0.00060044
0.000594411
0.000588364
0.000582262
0.000576042
0.000569647
0.000562897
0.000555736
0.000547514
0.000531417
2.69678e-05
0.000121999
0.000241093
0.000357812
0.000435838
0.00048301
0.000506518
0.000514946
0.000516512
0.000517487
0.000524319
0.00054039
0.000566322
0.000601168
0.000644153
0.000695299
0.000755247
0.000838527
0.000934083
0.00103025
0.00111922
0.00120358
0.00128292
0.0013556
0.00142236
0.00148377
0.00154023
0.00159209
0.00163968
0.00168345
0.00172388
0.00176145
0.00179658
0.00182966
0.001861
0.00189084
0.00191938
0.00194677
0.0019731
0.00199842
0.00202278
0.00204619
0.00206863
0.0020901
0.00211057
0.00213
0.00214837
0.00216564
0.0021818
0.00219682
0.00221069
0.00222342
0.00223501
0.00224548
0.00225485
0.00226314
0.00227035
0.00227652
0.00228164
0.00228575
0.00228884
0.00229089
0.00229181
0.0022919
0.00229102
0.00228914
0.00228631
0.00228253
0.00227785
0.00227226
0.00226582
0.00225853
0.00225043
0.00224155
0.00223192
0.00222157
0.00221052
0.00219882
0.00218649
0.00217356
0.00216007
0.00214603
0.0021315
0.00211649
0.00210104
0.00208518
0.00206893
0.00205234
0.00203542
0.0020182
0.00200072
0.00198299
0.00196505
0.00194692
0.00192861
0.00191016
0.00189158
0.0018729
0.00185415
0.00183534
0.00181649
0.00179764
0.00177878
0.00175995
0.00174115
0.0017224
0.00170371
0.0016851
0.00166658
0.00164817
0.00162986
0.00161167
0.00159361
0.0015757
0.00155793
0.00154031
0.00152286
0.00150557
0.00148845
0.00147151
0.00145475
0.00143818
0.00142179
0.0014056
0.00138959
0.00137379
0.00135818
0.00134277
0.00132755
0.00131254
0.00129772
0.00128311
0.00126869
0.00125447
0.00124043
0.00122659
0.00121294
0.00119949
0.00118622
0.00117315
0.00116027
0.00114757
0.00113506
0.00112273
0.00111058
0.00109862
0.00108682
0.0010752
0.00106376
0.00105248
0.00104137
0.00103042
0.00101963
0.001009
0.000998525
0.000988204
0.000978034
0.000968011
0.000958133
0.000948397
0.0009388
0.000929338
0.000920007
0.000910802
0.000901719
0.000892752
0.000883892
0.000875131
0.000866457
0.000857856
0.000849308
0.000840788
0.000832262
0.000823687
0.000814996
0.000806117
0.000796887
0.000787157
0.000777201
0.000757415
3.07949e-05
0.000135306
0.000261482
0.000392438
0.000488713
0.000550321
0.000588041
0.000611427
0.000629125
0.000648384
0.000674447
0.000709965
0.000755681
0.000811875
0.000878949
0.000969351
0.0010744
0.00117608
0.00127526
0.00137075
0.00146144
0.00154743
0.00162867
0.00170513
0.00177709
0.00184491
0.00190893
0.00196948
0.00202689
0.0020815
0.00213363
0.00218356
0.00223154
0.00227779
0.00232246
0.00236567
0.00240752
0.00244806
0.00248732
0.00252531
0.00256202
0.00259743
0.00263153
0.00266426
0.0026956
0.00272551
0.00275393
0.00278084
0.0028062
0.00282997
0.00285213
0.00287265
0.00289152
0.00290872
0.00292426
0.00293812
0.00295032
0.00296086
0.00296975
0.00297702
0.00298267
0.00298675
0.00298918
0.00299008
0.00298961
0.00298764
0.0029843
0.0029796
0.00297359
0.00296634
0.00295789
0.0029483
0.00293761
0.00292589
0.00291316
0.0028995
0.00288494
0.00286952
0.0028533
0.00283631
0.00281859
0.0028002
0.00278117
0.00276154
0.00274135
0.00272064
0.00269945
0.00267782
0.00265579
0.00263339
0.00261066
0.00258763
0.00256434
0.00254081
0.00251707
0.00249316
0.00246911
0.00244494
0.00242068
0.00239635
0.002372
0.00234762
0.00232326
0.00229893
0.00227464
0.00225043
0.00222629
0.00220226
0.00217835
0.00215457
0.00213093
0.00210745
0.00208414
0.00206101
0.00203807
0.00201532
0.00199278
0.00197045
0.00194835
0.00192646
0.00190481
0.0018834
0.00186222
0.00184129
0.0018206
0.00180017
0.00177998
0.00176004
0.00174036
0.00172092
0.00170175
0.00168282
0.00166414
0.00164571
0.00162753
0.00160959
0.00159189
0.00157444
0.00155723
0.00154026
0.00152354
0.00150704
0.00149078
0.00147476
0.00145896
0.00144338
0.00142803
0.0014129
0.00139798
0.00138328
0.00136878
0.00135449
0.0013404
0.00132651
0.00131282
0.00129932
0.00128601
0.00127288
0.00125994
0.00124717
0.00123458
0.00122216
0.0012099
0.00119781
0.00118587
0.00117407
0.00116242
0.00115089
0.00113948
0.00112816
0.00111693
0.00110575
0.00109458
0.00108338
0.00107208
0.00106061
0.00104881
0.0010366
0.00102442
0.00100196
3.2345e-05
0.000142488
0.000273947
0.000409821
0.000527755
0.000608971
0.000665018
0.000706927
0.000743903
0.000783195
0.000829854
0.000886832
0.000955749
0.00104799
0.00115492
0.00126148
0.00136756
0.00147091
0.00157097
0.00166732
0.00175971
0.00184815
0.00193272
0.00201358
0.00209097
0.00216517
0.00223645
0.00230508
0.00237132
0.0024354
0.00249753
0.00255789
0.00261662
0.00267385
0.00272966
0.00278411
0.00283723
0.00288903
0.00293951
0.00298865
0.00303642
0.00308278
0.00312769
0.0031711
0.00321296
0.00325321
0.00329181
0.00332869
0.00336381
0.00339713
0.0034286
0.00345818
0.00348583
0.00351154
0.00353526
0.00355698
0.00357669
0.00359438
0.00361003
0.00362365
0.00363525
0.00364483
0.00365241
0.00365802
0.00366168
0.00366329
0.00366321
0.00366122
0.00365744
0.00365192
0.00364471
0.00363587
0.00362545
0.00361352
0.00360014
0.00358537
0.00356928
0.00355194
0.00353341
0.00351376
0.00349305
0.00347137
0.00344876
0.0034253
0.00340105
0.00337608
0.00335043
0.00332418
0.00329737
0.00327007
0.00324231
0.00321416
0.00318565
0.00315684
0.00312776
0.00309845
0.00306895
0.0030393
0.00300953
0.00297968
0.00294978
0.00291986
0.00288995
0.00286007
0.00283025
0.0028005
0.00277086
0.00274134
0.00271197
0.00268275
0.0026537
0.00262485
0.0025962
0.00256776
0.00253956
0.00251159
0.00248387
0.00245641
0.00242922
0.00240229
0.00237565
0.00234929
0.00232322
0.00229745
0.00227197
0.00224679
0.00222191
0.00219733
0.00217306
0.00214909
0.00212543
0.00210207
0.00207901
0.00205625
0.00203378
0.00201162
0.00198974
0.00196816
0.00194688
0.00192588
0.00190517
0.00188474
0.00186459
0.00184472
0.00182513
0.0018058
0.00178674
0.00176795
0.00174941
0.00173113
0.0017131
0.00169531
0.00167777
0.00166047
0.0016434
0.00162657
0.00160996
0.00159358
0.00157742
0.00156147
0.00154573
0.00153019
0.00151486
0.00149972
0.00148477
0.00147
0.0014554
0.00144096
0.00142667
0.0014125
0.00139844
0.00138446
0.00137052
0.00135657
0.00134255
0.00132839
0.00131392
0.00129916
0.00128416
0.00125992
3.27932e-05
0.000144115
0.000275296
0.000409412
0.000539316
0.000642617
0.000719695
0.000781031
0.000836743
0.000894514
0.000962015
0.00105388
0.00116343
0.00128512
0.00140067
0.00151192
0.00161974
0.00172431
0.00182556
0.00192343
0.00201793
0.00210913
0.00219719
0.00228229
0.00236465
0.00244449
0.00252203
0.00259749
0.00267106
0.0027429
0.00281316
0.00288197
0.0029494
0.00301553
0.00308039
0.00314401
0.00320639
0.0032675
0.00332733
0.00338583
0.00344295
0.00349864
0.00355285
0.0036055
0.00365653
0.00370589
0.00375349
0.00379928
0.00384321
0.0038852
0.0039252
0.00396317
0.00399905
0.00403281
0.00406441
0.00409381
0.00412098
0.00414591
0.00416859
0.00418899
0.00420711
0.00422296
0.00423654
0.00424787
0.00425696
0.00426383
0.00426855
0.004271
0.00427143
0.00426979
0.00426612
0.00426047
0.00425291
0.00424348
0.00423225
0.00421927
0.00420462
0.00418837
0.00417057
0.0041513
0.00413064
0.00410864
0.0040854
0.00406097
0.00403543
0.00400885
0.0039813
0.00395286
0.00392359
0.00389356
0.00386283
0.00383147
0.00379954
0.00376709
0.00373419
0.0037009
0.00366725
0.00363332
0.00359914
0.00356476
0.00353024
0.0034956
0.0034609
0.00342616
0.00339143
0.00335673
0.0033221
0.00328756
0.00325314
0.00321887
0.00318477
0.00315086
0.00311715
0.00308367
0.00305044
0.00301746
0.00298475
0.00295232
0.00292018
0.00288835
0.00285683
0.00282563
0.00279475
0.00276421
0.002734
0.00270412
0.0026746
0.00264541
0.00261658
0.00258809
0.00255995
0.00253215
0.00250471
0.0024776
0.00245084
0.00242443
0.00239835
0.00237261
0.0023472
0.00232213
0.00229739
0.00227298
0.00224889
0.00222512
0.00220167
0.00217853
0.00215571
0.00213318
0.00211096
0.00208903
0.0020674
0.00204605
0.00202499
0.0020042
0.00198369
0.00196345
0.00194347
0.00192375
0.0019043
0.00188509
0.00186613
0.00184741
0.00182893
0.00181067
0.00179264
0.00177482
0.00175721
0.00173979
0.00172254
0.00170546
0.00168851
0.00167166
0.00165488
0.00163813
0.00162132
0.00160439
0.0015872
0.0015698
0.00155187
0.00152573
3.22355e-05
0.000141189
0.000268893
0.000398005
0.000521845
0.000633961
0.000727727
0.00080878
0.000891689
0.000986916
0.00109606
0.00122068
0.00135703
0.00148452
0.00160481
0.00171982
0.00183053
0.00193729
0.00204044
0.00214032
0.00223715
0.00233113
0.00242245
0.00251131
0.00259794
0.00268252
0.00276525
0.00284631
0.00292583
0.00300396
0.00308081
0.00315644
0.00323092
0.00330428
0.00337653
0.00344766
0.00351766
0.00358649
0.0036541
0.00372043
0.00378541
0.00384899
0.00391107
0.0039716
0.00403048
0.00408764
0.004143
0.0041965
0.00424805
0.00429758
0.00434504
0.00439035
0.00443347
0.00447435
0.00451293
0.00454917
0.00458305
0.00461453
0.0046436
0.00467022
0.0046944
0.00471613
0.0047354
0.00475224
0.00476664
0.00477863
0.00478823
0.00479547
0.0048004
0.00480296
0.00480335
0.00480153
0.00479757
0.00479151
0.0047834
0.00477332
0.00476132
0.00474746
0.00473182
0.00471446
0.00469545
0.00467487
0.00465278
0.00462925
0.00460436
0.00457819
0.00455081
0.00452228
0.00449268
0.00446209
0.00443056
0.00439818
0.004365
0.00433109
0.00429652
0.00426136
0.00422565
0.00418946
0.00415285
0.00411588
0.00407859
0.00404105
0.00400329
0.00396537
0.00392732
0.0038892
0.00385104
0.00381288
0.00377475
0.00373668
0.00369871
0.00366087
0.00362318
0.00358566
0.00354835
0.00351125
0.0034744
0.0034378
0.00340148
0.00336544
0.00332971
0.00329429
0.00325919
0.00322443
0.00319001
0.00315594
0.00312222
0.00308886
0.00305587
0.00302324
0.00299099
0.0029591
0.00292758
0.00289644
0.00286567
0.00283526
0.00280523
0.00277556
0.00274627
0.00271733
0.00268876
0.00266055
0.0026327
0.00260521
0.00257806
0.00255126
0.00252481
0.00249869
0.00247291
0.00244746
0.00242234
0.00239754
0.00237305
0.00234888
0.00232502
0.00230146
0.0022782
0.00225524
0.00223257
0.00221018
0.00218807
0.00216624
0.00214468
0.00212338
0.00210233
0.00208153
0.00206096
0.00204062
0.00202048
0.00200053
0.00198074
0.00196109
0.00194152
0.001922
0.00190245
0.00188279
0.00186291
0.00184285
0.00182211
0.00179378
3.08664e-05
0.000135103
0.000258097
0.000383375
0.000505319
0.000621373
0.000731991
0.000840911
0.000955691
0.00108147
0.0012195
0.00136921
0.00151149
0.00164346
0.00176771
0.00188614
0.00199986
0.0021095
0.00221547
0.00231796
0.00241737
0.00251408
0.00260839
0.00270055
0.0027908
0.00287933
0.00296632
0.00305194
0.00313632
0.00321957
0.00330176
0.00338297
0.00346321
0.00354251
0.00362085
0.00369822
0.00377458
0.00384986
0.003924
0.00399694
0.00406858
0.00413885
0.00420766
0.00427492
0.00434053
0.00440441
0.00446646
0.00452661
0.00458476
0.00464084
0.00469477
0.00474649
0.00479593
0.00484303
0.00488773
0.00493
0.00496979
0.00500707
0.0050418
0.00507397
0.00510356
0.00513057
0.00515499
0.00517683
0.00519609
0.0052128
0.00522696
0.00523861
0.00524779
0.00525451
0.00525883
0.00526076
0.00526042
0.00525781
0.005253
0.00524603
0.00523698
0.0052259
0.00521286
0.00519792
0.00518116
0.00516264
0.00514243
0.00512061
0.00509725
0.00507243
0.0050462
0.00501866
0.00498986
0.00495988
0.0049288
0.00489668
0.00486358
0.00482958
0.00479475
0.00475915
0.00472284
0.00468589
0.00464835
0.00461029
0.00457177
0.00453285
0.00449356
0.00445398
0.00441414
0.00437409
0.00433388
0.00429356
0.00425315
0.0042127
0.00417226
0.00413184
0.00409149
0.00405123
0.00401109
0.00397111
0.0039313
0.00389168
0.00385229
0.00381313
0.00377423
0.0037356
0.00369726
0.00365923
0.0036215
0.0035841
0.00354704
0.00351032
0.00347395
0.00343793
0.00340228
0.003367
0.00333208
0.00329754
0.00326337
0.00322957
0.00319616
0.00316312
0.00313046
0.00309817
0.00306626
0.00303473
0.00300357
0.00297278
0.00294236
0.00291231
0.00288262
0.00285329
0.00282431
0.00279569
0.00276742
0.00273949
0.00271191
0.00268466
0.00265775
0.00263116
0.0026049
0.00257896
0.00255334
0.00252803
0.00250302
0.00247831
0.0024539
0.00242978
0.00240594
0.00238238
0.00235907
0.00233601
0.00231318
0.00229056
0.00226813
0.00224586
0.00222369
0.00220158
0.00217947
0.00215727
0.00213488
0.0021123
0.002089
0.00205834
2.93153e-05
0.000128782
0.000248221
0.000372443
0.000497053
0.00062095
0.000745565
0.000874856
0.00101207
0.00115929
0.00131663
0.00147839
0.00162618
0.00176262
0.00189071
0.00201247
0.00212916
0.0022416
0.00235034
0.00245575
0.00255815
0.00265771
0.00275489
0.00285003
0.00294342
0.0030353
0.00312586
0.00321527
0.00330366
0.00339112
0.00347774
0.00356356
0.00364859
0.00373284
0.00381629
0.0038989
0.0039806
0.00406135
0.00414104
0.00421961
0.00429695
0.00437296
0.00444755
0.0045206
0.00459203
0.00466172
0.00472957
0.0047955
0.0048594
0.00492119
0.00498079
0.00503811
0.00509309
0.00514566
0.00519576
0.00524334
0.00528836
0.00533077
0.00537055
0.00540766
0.0054421
0.00547385
0.0055029
0.00552926
0.00555293
0.00557393
0.00559228
0.00560801
0.00562113
0.00563168
0.00563971
0.00564525
0.00564836
0.00564909
0.00564748
0.0056436
0.00563751
0.00562926
0.00561892
0.00560656
0.00559224
0.00557602
0.00555799
0.00553821
0.00551675
0.00549369
0.0054691
0.00544305
0.00541562
0.00538687
0.00535687
0.0053257
0.00529342
0.0052601
0.00522582
0.00519062
0.00515459
0.00511779
0.00508027
0.0050421
0.00500334
0.00496404
0.00492427
0.00488408
0.00484351
0.00480262
0.00476146
0.00472007
0.00467849
0.00463677
0.00459495
0.00455307
0.00451115
0.00446925
0.00442738
0.00438558
0.00434388
0.00430231
0.00426088
0.00421963
0.00417858
0.00413773
0.00409713
0.00405677
0.00401669
0.00397688
0.00393737
0.00389817
0.00385928
0.00382072
0.00378249
0.00374461
0.00370707
0.00366989
0.00363307
0.00359661
0.00356051
0.00352478
0.00348942
0.00345443
0.00341981
0.00338557
0.0033517
0.0033182
0.00328507
0.00325231
0.00321992
0.00318789
0.00315623
0.00312493
0.00309398
0.00306339
0.00303316
0.00300327
0.00297373
0.00294453
0.00291567
0.00288715
0.00285896
0.00283109
0.00280355
0.00277633
0.00274942
0.00272282
0.00269651
0.0026705
0.00264477
0.0026193
0.00259409
0.00256911
0.00254433
0.00251972
0.00249524
0.00247084
0.00244646
0.00242201
0.00239739
0.00237259
0.00234708
0.00231427
2.76208e-05
0.000122182
0.000238195
0.000361733
0.000489159
0.000619846
0.000756048
0.000899548
0.00105202
0.00121398
0.00138592
0.00155186
0.00170363
0.00184394
0.00197554
0.00210041
0.00221991
0.00233496
0.00244623
0.00255422
0.0026593
0.00276178
0.00286193
0.00295994
0.00305622
0.00315109
0.00324476
0.00333743
0.00342924
0.00352029
0.00361066
0.00370039
0.00378949
0.00387796
0.00396576
0.00405284
0.00413913
0.00422456
0.00430903
0.00439244
0.00447469
0.00455567
0.00463525
0.00471334
0.00478982
0.00486456
0.00493747
0.00500844
0.00507737
0.00514416
0.00520872
0.00527097
0.00533082
0.00538822
0.00544309
0.00549537
0.00554503
0.00559202
0.00563629
0.00567783
0.00571662
0.00575263
0.00578587
0.00581634
0.00584403
0.00586896
0.00589116
0.00591064
0.00592743
0.00594156
0.00595308
0.00596201
0.00596842
0.00597234
0.00597383
0.00597296
0.0059698
0.00596437
0.00595674
0.00594699
0.00593518
0.00592138
0.00590566
0.00588809
0.00586873
0.00584768
0.00582498
0.00580073
0.00577498
0.00574781
0.00571929
0.00568948
0.00565847
0.00562631
0.00559307
0.00555882
0.00552363
0.00548755
0.00545066
0.00541301
0.00537467
0.00533569
0.00529614
0.00525605
0.0052155
0.00517452
0.00513317
0.0050915
0.00504955
0.00500737
0.00496499
0.00492246
0.00487982
0.00483711
0.00479435
0.00475158
0.00470883
0.00466614
0.00462352
0.00458101
0.00453864
0.00449641
0.00445436
0.00441251
0.00437087
0.00432945
0.00428829
0.00424738
0.00420675