/*--------------------------------*- C++ -*----------------------------------*\
  =========                 |
  \\      /  F ield         | OpenFOAM: The Open Source CFD Toolbox
   \\    /   O peration     | Website:  https://openfoam.org
    \\  /    A nd           | Version:  8
     \\/     M anipulation  |
\*---------------------------------------------------------------------------*/
FoamFile
{
    version     2.0;
    format      ascii;
    class       volVectorField;
    location    "2500";
    object      wallShearStress;
}
// * * * * * * * * * * * * * * * * * * * * * * * * * * * * * * * * * * * * * //

dimensions      [0 2 -2 0 0 0 0];

internalField   uniform (0 0 0);

boundaryField
{
    inlet
    {
        type            calculated;
        value           uniform (0 0 0);
    }
    outlet
    {
        type            calculated;
        value           uniform (0 0 0);
    }
    upperWall
    {
        type            calculated;
        value           nonuniform List<vector> 
223
(
(-0.582193 -0.392359 0)
(-0.977814 -0.219377 0)
(-0.939336 -0.0567747 0)
(-0.81071 -0.00585779 0)
(-0.734594 0.00331369 0)
(-0.695452 0.00231539 0)
(-0.67094 0.000424344 0)
(-0.6535 -0.00144893 0)
(-0.64054 -0.00256691 0)
(-0.6298 -0.00217406 0)
(-0.620127 -0.00134605 0)
(-0.610874 -0.000984863 0)
(-0.603115 -0.00163051 0)
(-0.597036 -0.00155334 0)
(-0.590592 0.000496049 0)
(-0.584419 0.0010037 0)
(-0.579577 -0.000223261 0)
(-0.574911 0.000544682 0)
(-0.570533 0.00129202 0)
(-0.567028 0.000681762 4.21494e-22)
(-0.564066 0.000542101 0)
(-0.561157 0.000730031 0)
(-0.558458 0.000990598 0)
(-0.555924 0.00209016 4.50152e-22)
(-0.553068 0.00379942 0)
(-0.549787 0.00481048 0)
(-0.54663 0.00452025 0)
(-0.543765 0.00405432 -9.4213e-22)
(-0.540983 0.00391826 9.52729e-22)
(-0.538195 0.0033942 9.62104e-22)
(-0.535555 0.00292946 0)
(-0.532951 0.00256413 -9.83549e-22)
(-0.53035 0.00223427 0)
(-0.527768 0.00197423 1.00652e-21)
(-0.525172 0.00176258 1.01841e-21)
(-0.522553 0.0016055 -1.03084e-21)
(-0.519904 0.00147782 0)
(-0.517236 0.00137516 0)
(-0.514545 0.00129505 0)
(-0.511828 0.00123266 0)
(-0.509082 0.00118414 -1.09427e-21)
(-0.506304 0.00114678 0)
(-0.503493 0.00111852 0)
(-0.500645 0.00109778 1.13348e-21)
(-0.497758 0.00108334 0)
(-0.494828 0.00107417 1.15932e-21)
(-0.491853 0.00106943 -1.17201e-21)
(-0.48883 0.00106837 1.1845e-21)
(-0.485755 0.00107085 0)
(-0.482625 0.00107507 0)
(-0.479441 0.00108028 0)
(-0.476203 0.00108583 1.2313e-21)
(-0.472918 0.00109019 -1.24187e-21)
(-0.469597 0.00109357 0)
(-0.466253 0.00109698 0)
(-0.462904 0.00110081 0)
(-0.459559 0.00110427 0)
(-0.456225 0.0011061 0)
(-0.452901 0.00110549 0)
(-0.449582 0.00110244 0)
(-0.446263 0.00109764 0)
(-0.442931 0.0010922 1.29212e-21)
(-0.439576 0.00108711 -1.29189e-21)
(-0.436187 0.00108316 0)
(-0.432752 0.00108109 0)
(-0.429262 0.00108105 0)
(-0.425707 0.00108305 -1.2785e-21)
(-0.422079 0.00108699 0)
(-0.418371 0.0010927 0)
(-0.414577 0.00109971 0)
(-0.410693 0.00110755 0)
(-0.406716 0.00111586 0)
(-0.402644 0.0011241 -2.43457e-21)
(-0.398476 0.00113182 0)
(-0.394212 0.00113833 0)
(-0.389856 0.00114316 0)
(-0.385414 0.00114616 0)
(-0.380895 0.00114713 0)
(-0.376309 0.00114605 0)
(-0.371669 0.00114261 0)
(-0.366988 0.00113643 2.09543e-21)
(-0.362275 0.00112749 0)
(-0.357537 0.00111584 0)
(-0.352781 0.00110175 0)
(-0.348008 0.00108583 -1.83974e-21)
(-0.343218 0.00106864 0)
(-0.338409 0.00105072 -1.6903e-21)
(-0.333577 0.00103275 0)
(-0.328718 0.00101561 0)
(-0.323823 0.00100009 0)
(-0.319017 0.000992289 -1.3511e-21)
(-0.316376 0.00100138 0)
(-0.313651 0.0010152 1.18061e-21)
(-0.310846 0.00102986 1.08991e-21)
(-0.307966 0.00104304 0)
(-0.305021 0.00105398 8.96204e-22)
(-0.302024 0.00106258 0)
(-0.298987 0.00107027 0)
(-0.295926 0.00107641 0)
(-0.292853 0.00108668 -4.54734e-22)
(-0.289784 0.00109063 0)
(-0.286727 0.00110278 -2.05324e-22)
(-0.283705 0.00110575 7.33293e-23)
(-0.280716 0.00111167 0)
(-0.277784 0.00111905 0)
(-0.274906 0.00110996 0)
(-0.272098 0.00110734 0)
(-0.269364 0.00107689 0)
(-0.266704 0.00115421 0)
(-0.264169 0.0010978 0)
(-0.261756 0.00142868 1.14135e-21)
(-0.259571 0.00169823 0)
(-0.257437 0.00147413 0)
(-0.255331 0.000918794 0)
(-0.252971 0.000454627 0)
(-0.250727 0.000694802 0)
(-0.248527 0.000620634 0)
(-0.246368 0.000990875 0)
(-0.244629 0.00127069 0)
(-0.242971 0.000707565 0)
(-0.240993 0.000798 0)
(-0.239432 0.000832172 0)
(-0.237595 0.000805998 0)
(-0.236087 0.00108245 7.12372e-21)
(-0.234469 0.00106555 0)
(-0.232928 0.000480252 0)
(-0.231019 -0.000188614 0)
(-0.229086 -2.33633e-05 -8.87171e-21)
(-0.227584 0.00018667 0)
(-0.225974 0.00025641 0)
(-0.224518 0.000382428 -1.00744e-20)
(-0.223058 0.000444667 0)
(-0.221529 0.000399738 1.09172e-20)
(-0.22023 0.000420458 0)
(-0.219094 0.000440297 0)
(-0.217882 0.000453387 0)
(-0.216445 0.000483019 -1.25994e-20)
(-0.215302 0.000515269 0)
(-0.214058 0.000436573 1.34268e-20)
(-0.212977 0.000332411 0)
(-0.21203 0.000510348 0)
(-0.210832 0.000586914 0)
(-0.209664 0.000647016 0)
(-0.208482 0.000769187 0)
(-0.207425 0.000661989 0)
(-0.206675 0.000696693 0)
(-0.205704 0.000987956 0)
(-0.205422 0.00104763 0)
(-0.204879 0.000831927 0)
(-0.2045 0.000412494 0)
(-0.2038 0.000317019 1.83996e-20)
(-0.203251 0.000566177 -1.87425e-20)
(-0.202648 0.00047282 0)
(-0.201837 0.000310955 0)
(-0.201231 0.000304364 0)
(-0.201013 0.00033494 0)
(-0.200468 0.000110971 -2.07812e-20)
(-0.199529 0.000186927 2.13283e-20)
(-0.199051 0.000302172 -2.16138e-20)
(-0.198198 0.000319489 0)
(-0.19798 0.000336399 -2.23821e-20)
(-0.197848 7.40053e-05 -4.55011e-20)
(-0.196992 0.000183224 0)
(-0.196698 0.000207835 -4.72575e-20)
(-0.19605 0.000164899 4.8245e-20)
(-0.195664 0.000194391 0)
(-0.19476 0.00022533 0)
(-0.194601 0.000410518 0)
(-0.194444 0.000318259 0)
(-0.194202 0.000108009 0)
(-0.193726 0.000156536 -5.32176e-20)
(-0.193392 0.000257743 0)
(-0.193208 0.000101245 -5.4637e-20)
(-0.192359 0.000161209 0)
(-0.19235 0.000300774 0)
(-0.191576 0.000286052 0)
(-0.190761 0.00026747 0)
(-0.190442 0.00020176 0)
(-0.190122 9.23731e-05 6.02895e-20)
(-0.189365 0.000219936 0)
(-0.188748 0.000391253 0)
(-0.187677 0.000281096 -6.38593e-20)
(-0.187101 0.0002767 0)
(-0.186686 0.000280418 0)
(-0.185622 0.000229639 0)
(-0.184211 0.000337716 6.87518e-20)
(-0.183218 0.000367629 0)
(-0.182178 0.000438959 0)
(-0.180232 0.000522643 0)
(-0.1789 0.000117266 0)
(-0.176019 -8.02453e-05 -7.75173e-20)
(-0.172919 0.00021613 0)
(-0.170177 0.000461378 0)
(-0.166028 0.000735871 0)
(-0.161409 0.00108052 8.85273e-20)
(-0.15453 0.00156207 0)
(-0.147892 0.00251128 0)
(-0.123505 0.00238717 -1.07422e-19)
(-0.141432 0.00676082 6.01853e-36)
(-0.169511 0.0132493 1.2546e-17)
(-0.187088 0.0171225 2.35081e-17)
(-0.19327 0.0189038 2.27617e-17)
(-0.196774 0.019678 2.20127e-17)
(-0.200993 0.0203205 2.11408e-17)
(-0.205474 0.0210296 -2.02461e-17)
(-0.20973 0.0215344 -1.95274e-17)
(-0.213907 0.0218803 0)
(-0.218104 0.0220198 -3.66593e-17)
(-0.220219 0.0221796 -1.8076e-17)
(-0.224673 0.0227189 3.6713e-34)
(-0.227478 0.0229016 0)
(-0.231061 0.0233596 -3.22697e-17)
(-0.235452 0.0239472 -3.06541e-17)
(-0.242434 0.0247956 -2.84631e-17)
(-0.249612 0.0254554 -2.40741e-35)
(-0.256921 0.0260719 4.94035e-17)
(-0.263943 0.0266489 2.26472e-17)
(-0.272764 0.0274472 1.20371e-35)
(-0.282654 0.0283565 -3.48647e-17)
(-0.291221 0.0290008 -1.58405e-20)
(-0.300802 0.0295563 0)
(-0.305373 0.0305112 1.34067e-17)
(-0.332959 0.0321992 -7.62521e-18)
)
;
    }
    lowerWall
    {
        type            calculated;
        value           nonuniform List<vector> 
250
(
(-0.653909 0.466638 0)
(-1.14095 0.204678 0)
(-1.03492 0.0379587 0)
(-0.869573 -0.000935938 0)
(-0.786941 -0.00419156 0)
(-0.746064 -0.00160774 0)
(-0.719879 0.000416347 0)
(-0.700647 -0.000651139 0)
(-0.685092 -0.00405547 0)
(-0.671322 -0.0047124 0)
(-0.658939 -0.00298836 0)
(-0.647728 -0.000864185 0)
(-0.637527 0.00142669 0)
(-0.628203 0.00210503 0)
(-0.61934 0.00136906 0)
(-0.611548 0.0013609 0)
(-0.60463 0.00169791 0)
(-0.605098 0.00196396 0)
(-0.004234 -0.0228259 0)
(-0.00276197 -0.0176294 0)
(-0.000684876 -0.0144713 0)
(0.00193895 -0.0137762 9.03759e-20)
(0.00525809 -0.0151908 -7.872e-20)
(0.00893665 -0.0208162 6.29316e-20)
(0.0126982 -0.0200041 -4.85333e-20)
(0.025668 -0.0632626 0)
(-0.0839097 -0.144685 0)
(0.000874133 -0.00384033 0)
(-0.00766353 0.00954158 0)
(-0.00851631 0.0328153 0)
(-0.00255137 0.0448519 0)
(0.00295141 0.0442626 1.82229e-20)
(0.00618083 0.0360674 -1.89651e-20)
(0.00818506 0.0241689 0)
(0.00945821 0.0101714 -5.42141e-20)
(0.00943041 -0.00402951 6.11478e-20)
(0.00793304 -0.0174077 0)
(0.0061412 -0.029179 0)
(0.00438171 -0.0385462 0)
(0.00268715 -0.0451231 0)
(0.000986233 -0.0488623 0)
(-0.000885888 -0.0494981 0)
(-0.00281803 -0.046383 0)
(-0.00439684 -0.039898 0)
(-0.00490936 -0.030738 0)
(0.00132877 -0.0015126 0)
(0.0013386 0.0065262 0)
(-0.00450769 0.00961775 0)
(-0.00959531 0.00975619 0)
(-0.0133814 0.00829977 0)
(-0.015888 0.00623594 0)
(-0.0172635 0.00409864 1.49571e-21)
(-0.0177827 0.00200743 -1.52724e-21)
(-0.017332 -5.38739e-06 0)
(-0.0160553 -0.00168468 -1.65291e-21)
(-0.0141906 -0.00283634 0)
(-0.012053 -0.00329592 0)
(-0.0100531 -0.0030361 -0)
(-0.00855496 -0.00228094 2.56981e-21)
(-0.00761786 -0.00142367 0)
(-0.0069396 -0.000816098 0)
(-0.00612245 -0.00062314 -3.37725e-21)
(-0.00499511 -0.000999156 0)
(-0.00341174 -0.00238242 0)
(-0.000494654 -0.00505342 0)
(0.00435307 -0.00740106 3.0353e-21)
(0.00993769 -0.0088936 0)
(0.0158386 -0.0098491 1.46968e-21)
(0.021884 -0.0106158 0)
(0.0280895 -0.0112684 -0)
(0.0344002 -0.0115145 8.44816e-22)
(0.0405332 -0.0113553 0)
(0.0491367 -0.0116032 -7.54029e-22)
(0.0589271 -0.0117556 -0)
(0.0686219 -0.0115835 7.70689e-22)
(0.0780317 -0.0111699 0)
(0.0870055 -0.0105852 0)
(0.0954507 -0.00989123 0)
(0.103309 -0.00913779 -0)
(0.110557 -0.00836181 0)
(0.117191 -0.00759062 -8.11144e-22)
(0.123225 -0.00684139 -0)
(0.128682 -0.00612345 1.63307e-21)
(0.133588 -0.00544111 0)
(0.13797 -0.00479474 -1.63494e-21)
(0.141856 -0.00418261 -0)
(0.14527 -0.00360188 -0)
(0.14823 -0.00304983 1.62104e-21)
(0.150756 -0.00252445 0)
(0.152863 -0.00202434 1.60083e-21)
(0.154561 -0.0015504 -1.58751e-21)
(0.155862 -0.0011064 -0)
(0.156781 -0.000698927 -1.5549e-21)
(0.157327 -0.000337883 -1.53587e-21)
(0.157513 -3.98259e-05 -0)
(0.157408 0.000194814 0)
(0.157076 0.00039162 0)
(0.156522 0.000568274 0)
(0.15576 0.000731121 -0)
(0.1548 0.000884326 1.3758e-21)
(0.153648 0.00102846 0)
(0.152311 0.00116415 -1.30702e-21)
(0.150798 0.00129181 -0)
(0.149115 0.00141141 -0)
(0.14727 0.00152304 1.19056e-21)
(0.14527 0.00162658 0)
(0.143124 0.00172209 -1.10486e-21)
(0.14084 0.00180946 -0)
(0.138427 0.00188875 0)
(0.135893 0.00196008 -0)
(0.133247 0.0020233 9.16828e-22)
(0.130498 0.00207865 0)
(0.127656 0.00212619 -0)
(0.12473 0.00216613 7.63781e-22)
(0.121728 0.0021986 0)
(0.118661 0.00222373 6.57244e-22)
(0.115538 0.00224197 0)
(0.112366 0.00225345 0)
(0.109155 0.00225836 0)
(0.105915 0.00225706 -4.36155e-22)
(0.102652 0.00224986 -0)
(0.0993753 0.00223712 0)
(0.0960925 0.00221918 -2.65553e-22)
(0.0928111 0.00219626 -2.08102e-22)
(0.0895382 0.00216875 -0)
(0.0862808 0.00213709 -9.26337e-23)
(0.0830447 0.00210161 -0)
(0.0798362 0.00206254 4.66471e-23)
(0.0766612 0.00202042 -0)
(0.0735241 0.00197566 2.79066e-22)
(0.0704302 0.00192869 0)
(0.0673835 0.00188015 -5.11744e-22)
(0.0643878 0.00183074 -0)
(0.0614464 0.0017815 0)
(0.0585618 0.00173374 -0)
(0.0557359 0.00168915 9.78505e-22)
(0.0529702 0.00164987 0)
(0.0502649 0.00161804 -1.21394e-21)
(0.047619 0.00159479 0)
(0.0457819 0.00160352 1.47575e-21)
(0.0442395 0.00162104 1.63426e-21)
(0.0427004 0.00162592 1.79918e-21)
(0.0411731 0.00161298 0)
(0.0396628 0.00158965 0)
(0.0381691 0.00156397 0)
(0.0366909 0.00153816 0)
(0.035228 0.00151245 0)
(0.0337809 0.00148682 0)
(0.03235 0.00146136 0)
(0.0309359 0.00143613 0)
(0.029539 0.00141129 -3.69205e-21)
(0.0281597 0.00138712 -3.96773e-21)
(0.0267979 0.00136368 0)
(0.0254542 0.00134067 0)
(0.0241287 0.00131666 0)
(0.0228228 0.00129176 -5.26779e-21)
(0.0215367 0.00126752 0)
(0.0202701 0.00124388 0)
(0.0190231 0.00122082 0)
(0.0177958 0.00119839 0)
(0.0165882 0.00117667 7.5367e-21)
(0.0154003 0.00115572 0)
(0.0142321 0.00113563 0)
(0.0130836 0.00111652 -9.45584e-21)
(0.0119546 0.00109842 1.02335e-20)
(0.010845 0.00108141 0)
(0.00975486 0.0010658 1.20703e-20)
(0.00868405 0.00105222 0)
(0.0076322 0.00104185 -1.44093e-20)
(0.00659865 0.00103497 0)
(0.00558303 0.00103058 0)
(0.00458534 0.00102837 0)
(0.0036051 0.00102868 0)
(0.0026419 0.00103172 0)
(0.0016962 0.00103745 5.5725e-20)
(0.000769495 0.00104304 6.42397e-20)
(-0.000140271 0.00103028 0)
(-0.00103754 0.000987401 0)
(-0.00191934 0.000935019 0)
(-0.00278564 0.00088554 -5.28773e-20)
(-0.00363633 0.000840632 0)
(-0.00447123 0.000799891 0)
(-0.00529068 0.000762832 0)
(-0.00609528 0.000728963 -4.04094e-20)
(-0.00688562 0.000697823 3.83602e-20)
(-0.00766217 0.000669032 0)
(-0.0084254 0.000642285 0)
(-0.00917577 0.000617336 3.36142e-20)
(-0.0099137 0.000593986 3.23744e-20)
(-0.0106396 0.000572077 0)
(-0.011354 0.000551471 0)
(-0.0120571 0.000532055 -2.93502e-20)
(-0.0127496 0.000513732 2.85228e-20)
(-0.0134317 0.000496425 0)
(-0.014104 0.000480057 0)
(-0.0147668 0.000464571 2.64337e-20)
(-0.0154206 0.000449915 0)
(-0.0160659 0.000436038 0)
(-0.016703 0.000422903 2.47888e-20)
(-0.0173325 0.000410469 0)
(-0.0179548 0.000398706 2.3873e-20)
(-0.0185704 0.000387584 0)
(-0.0191797 0.000377068 0)
(-0.0197833 0.00036713 0)
(-0.0203814 0.000357731 -2.23575e-20)
(-0.0209747 0.000348854 0)
(-0.0215635 0.000340445 0)
(-0.0221482 0.000332452 0)
(-0.0227291 0.000324823 0)
(-0.0233064 0.000317446 0)
(-0.02388 0.000310238 0)
(-0.0244502 0.00030306 -2.03849e-20)
(-0.0250161 0.000295699 -2.01546e-20)
(-0.0255774 0.00028786 0)
(-0.026132 0.000279178 0)
(-0.0266782 0.000269163 0)
(-0.0272126 0.00025703 1.93601e-20)
(-0.02773 0.000241538 0)
(-0.0282218 0.000221299 -3.81344e-20)
(-0.0286787 0.000192248 3.79281e-20)
(-0.0290716 0.000152625 3.78191e-20)
(-0.0294029 7.78917e-05 -3.78578e-20)
(-0.0294846 -3.93999e-05 3.8045e-20)
(-0.0295091 -0.000356588 -3.83972e-20)
(-0.0279743 -0.000616895 0)
(-0.029347 -0.00051622 -2.43315e-18)
(-0.0327706 -0.00134244 -2.26976e-18)
(-0.0364141 -0.00203342 -3.00927e-36)
(-0.039535 -0.00257611 -4.06087e-18)
(-0.042485 -0.00301866 -7.75782e-18)
(-0.0455574 -0.00342186 -3.71955e-18)
(-0.0487816 -0.0038184 3.56826e-18)
(-0.052112 -0.00430648 -3.61112e-35)
(-0.0556007 -0.00472358 3.00927e-36)
(-0.0593129 -0.00502558 3.15129e-18)
(-0.0632384 -0.00544832 3.03054e-18)
(-0.0674401 -0.00588041 0)
(-0.071933 -0.00626855 0)
(-0.0767523 -0.00670716 0)
(-0.0819437 -0.00719714 -5.32734e-35)
(-0.0875601 -0.00773826 7.68303e-35)
(-0.093674 -0.00833957 9.0278e-35)
(-0.100341 -0.0090041 -4.15808e-18)
(-0.107701 -0.00972586 -3.81236e-18)
(-0.116763 -0.0106201 1.20371e-35)
(-0.127578 -0.0116242 6.13702e-18)
(-0.13843 -0.0127315 1.03497e-17)
(-0.153654 -0.0139251 1.20371e-35)
(-0.162853 -0.0152923 -5.09845e-18)
(-0.191967 -0.0169804 -4.21297e-35)
)
;
    }
    frontAndBack
    {
        type            empty;
    }
}


// ************************************************************************* //
