/*--------------------------------*- C++ -*----------------------------------*\
  =========                 |
  \\      /  F ield         | OpenFOAM: The Open Source CFD Toolbox
   \\    /   O peration     | Website:  https://openfoam.org
    \\  /    A nd           | Version:  8
     \\/     M anipulation  |
\*---------------------------------------------------------------------------*/
FoamFile
{
    version     2.0;
    format      ascii;
    class       volScalarField;
    location    "1900";
    object      k;
}
// * * * * * * * * * * * * * * * * * * * * * * * * * * * * * * * * * * * * * //

dimensions      [0 2 -2 0 0 0 0];

internalField   nonuniform List<scalar> 
12225
(
1.92775
1.95461
1.929
1.81618
1.74603
2.42318
2.1278
1.9883
1.66107
1.57435
1.69624
1.46701
1.40722
1.96361
2.34152
2.22304
2.63714
2.70049
0.653829
0.674362
0.702321
0.680813
0.67591
0.706884
0.714473
0.740682
0.753568
0.780513
0.788109
0.789867
0.793371
0.823423
0.867388
0.876054
0.907442
0.917635
0.563977
0.564527
0.558822
0.539006
0.500903
0.475183
0.452619
0.444384
0.433553
0.429405
0.427816
0.426767
0.429183
0.434943
0.441794
0.443445
0.451043
0.457503
0.552176
0.548499
0.542642
0.532595
0.509469
0.492345
0.472313
0.462148
0.448001
0.442888
0.433189
0.430182
0.427746
0.431291
0.440724
0.435434
0.439387
0.441124
0.549556
0.545695
0.54155
0.535271
0.523277
0.51304
0.501317
0.49161
0.481142
0.477069
0.472616
0.469554
0.4711
0.472979
0.474068
0.472544
0.471145
0.46885
0.548728
0.545179
0.541979
0.537317
0.530379
0.523847
0.517031
0.511093
0.505776
0.502642
0.499866
0.497638
0.496086
0.494632
0.493165
0.491226
0.489304
0.486954
0.548412
0.54512
0.542114
0.53841
0.533796
0.529246
0.524744
0.520663
0.517004
0.514105
0.511563
0.50929
0.507255
0.505298
0.503397
0.501388
0.499469
0.497392
0.54832
0.545053
0.542045
0.538778
0.535109
0.531469
0.527924
0.524629
0.521604
0.518927
0.516504
0.514246
0.512162
0.510141
0.508219
0.506284
0.504445
0.502554
0.548292
0.545012
0.541968
0.538906
0.535712
0.532562
0.529514
0.526629
0.523938
0.521428
0.519115
0.516908
0.514857
0.51287
0.510983
0.509139
0.507372
0.50561
0.548286
0.544983
0.541893
0.538916
0.53597
0.533104
0.53035
0.527721
0.525236
0.522873
0.520655
0.518533
0.516531
0.514604
0.512777
0.511005
0.509317
0.50766
0.548284
0.544968
0.541846
0.53888
0.53603
0.533296
0.530685
0.528193
0.525825
0.523565
0.521421
0.51937
0.517423
0.515556
0.513781
0.512072
0.510444
0.508862
0.548283
0.544959
0.541818
0.538843
0.536014
0.533321
0.530759
0.528321
0.526001
0.52379
0.521686
0.519677
0.517764
0.515936
0.514194
0.512526
0.510933
0.509404
0.54828
0.544953
0.541802
0.538816
0.535984
0.533295
0.530741
0.528312
0.526002
0.523804
0.52171
0.519716
0.517815
0.516002
0.514272
0.512621
0.511044
0.509537
0.548279
0.544948
0.541791
0.538798
0.535959
0.533265
0.530705
0.528273
0.52596
0.523758
0.521663
0.519667
0.517766
0.515952
0.514224
0.512573
0.510999
0.509495
0.548278
0.544944
0.541783
0.538785
0.535942
0.533241
0.530677
0.528239
0.52592
0.523713
0.521612
0.519612
0.517705
0.515888
0.514154
0.5125
0.510921
0.509415
0.548278
0.544942
0.541778
0.538777
0.535929
0.533225
0.530656
0.528214
0.525891
0.52368
0.521574
0.519569
0.517658
0.515836
0.514098
0.512441
0.510858
0.509348
0.548277
0.54494
0.541775
0.538772
0.535922
0.533216
0.530644
0.528199
0.525872
0.523658
0.52155
0.519542
0.517627
0.515802
0.514061
0.512401
0.510816
0.509303
0.548277
0.54494
0.541775
0.538771
0.53592
0.533212
0.530639
0.528193
0.525865
0.52365
0.52154
0.519531
0.517615
0.515789
0.514046
0.512385
0.510798
0.509284
0.548277
0.544941
0.541776
0.538773
0.535922
0.533215
0.530642
0.528197
0.525869
0.523654
0.521545
0.519535
0.51762
0.515793
0.514051
0.512389
0.510803
0.509288
0.548278
0.544943
0.541779
0.538778
0.535929
0.533224
0.530653
0.528208
0.525883
0.523669
0.521561
0.519552
0.517637
0.515811
0.514069
0.512407
0.510819
0.509304
0.548278
0.544945
0.541784
0.538787
0.53594
0.533238
0.53067
0.528229
0.525906
0.523693
0.521584
0.519572
0.517653
0.515822
0.514074
0.512404
0.510808
0.509283
0.54828
0.54495
0.541793
0.538799
0.535958
0.533259
0.530694
0.528253
0.525926
0.523704
0.521578
0.519546
0.517599
0.515736
0.513953
0.512247
0.510611
0.509046
0.548281
0.544957
0.541807
0.538823
0.535981
0.533279
0.530702
0.528242
0.52588
0.523605
0.521406
0.519285
0.517236
0.515267
0.513372
0.511556
0.509805
0.508132
0.548284
0.544974
0.541841
0.53886
0.535993
0.533244
0.530599
0.528049
0.525559
0.523119
0.52071
0.51835
0.516041
0.513814
0.511659
0.509601
0.507609
0.505716
0.548303
0.545034
0.541925
0.538928
0.535926
0.533003
0.530155
0.527376
0.524579
0.521754
0.518879
0.516012
0.513173
0.510436
0.507789
0.505294
0.502887
0.500636
0.548449
0.545248
0.542198
0.539095
0.535736
0.532421
0.52913
0.525861
0.522421
0.518841
0.515051
0.511219
0.507378
0.503706
0.500184
0.496976
0.493932
0.491171
0.549226
0.546162
0.54328
0.53999
0.53591
0.531861
0.527722
0.523529
0.518842
0.513808
0.508242
0.50265
0.496959
0.491646
0.486649
0.482509
0.47875
0.475572
0.553204
0.550986
0.548973
0.546605
0.541663
0.536684
0.531257
0.525576
0.51903
0.512191
0.504362
0.497152
0.489551
0.483081
0.477071
0.474223
0.471391
0.470336
0.580233
0.582328
0.598152
0.610551
0.620956
0.62816
0.632843
0.636126
0.640396
0.644245
0.648928
0.654843
0.661804
0.668173
0.677145
0.686735
0.698763
0.70927
1.02242
1.25399
1.43364
1.53551
1.58805
1.59294
1.58528
1.56553
1.53665
1.50558
1.47456
1.44468
1.41679
1.39108
1.36775
1.34682
1.32808
1.31156
1.93601e-08
4.76193e-07
2.42604e-06
9.54475e-06
3.18154e-05
9.59664e-05
0.000251326
0.000499682
0.000809143
0.00113535
0.00142797
0.00165611
0.0018089
0.00186886
0.0018461
0.00177406
0.00163557
0.00140211
0.00119874
0.00102231
0.000853713
0.000688988
0.000528696
0.000379782
0.000246804
0.000143838
7.58206e-05
3.79144e-05
1.92128e-05
1.04721e-05
6.40421e-06
4.95366e-06
5.98171e-06
1.29242e-05
2.94265e-05
0.000171204
0.000387037
0.000822985
0.00119979
0.00125903
0.00115005
0.00092026
0.000779381
0.000786493
0.000875903
0.00120182
0.00166443
0.00354443
0.00846742
0.0270439
0.0620792
0.0944777
0.102412
0.0835606
0.0975445
0.108614
0.136322
0.136931
0.152432
0.169039
0.138758
0.161326
0.169266
0.17859
0.188257
0.196578
0.205605
0.213749
0.222207
0.230177
0.238251
0.246042
0.253849
0.26147
0.269072
0.276535
0.283964
0.291277
0.298548
0.305712
0.312828
0.31984
0.326798
0.33365
0.340441
0.347123
0.353735
0.360233
0.366643
0.37293
0.379103
0.385148
0.391061
0.396822
0.402425
0.407851
0.413098
0.41816
0.423048
0.4278
0.432486
0.436996
0.441357
0.445573
0.449624
0.453527
0.457255
0.460826
0.464212
0.467435
0.470464
0.473322
0.47598
0.478461
0.480736
0.482829
0.484714
0.486412
0.487902
0.489201
0.490296
0.4912
0.491907
0.492428
0.492769
0.492935
0.492926
0.492685
0.492469
0.491522
0.49093
0.489606
0.488559
0.487305
0.485951
0.484392
0.482549
0.480589
0.478446
0.476175
0.473793
0.471294
0.468704
0.465995
0.463203
0.460305
0.45734
0.454273
0.451183
0.447939
0.444736
0.44137
0.43808
0.434621
0.431246
0.427757
0.424317
0.420863
0.417421
0.413996
0.410592
0.40721
0.403854
0.400525
0.397228
0.393967
0.39075
0.387583
0.38447
0.381415
0.378414
0.375463
0.372544
0.369624
0.366656
0.363557
0.360212
0.356273
0.351108
0.334358
8.36974e-08
2.36796e-06
1.59597e-05
6.89487e-05
0.000261101
0.000750488
0.00177213
0.00322766
0.004916
0.00664969
0.00823245
0.00953634
0.0104913
0.0111137
0.011385
0.0113482
0.0111585
0.0108092
0.0102029
0.00936738
0.00830513
0.00707221
0.00571678
0.00435008
0.00301423
0.00199219
0.00126114
0.000778345
0.000471141
0.00028836
0.000185417
0.000138429
0.000113377
0.000192335
0.00027281
0.00176955
0.00390234
0.00771974
0.0108634
0.0124069
0.0123095
0.0118786
0.0120555
0.0138257
0.0181042
0.0244619
0.0363185
0.0564605
0.0831403
0.109683
0.134842
0.153805
0.16795
0.178582
0.19381
0.209692
0.227997
0.246013
0.266266
0.284613
0.303948
0.325651
0.346063
0.365987
0.386031
0.405413
0.424751
0.443659
0.462451
0.480966
0.49936
0.517575
0.535688
0.553677
0.571584
0.589397
0.607139
0.624799
0.642392
0.659902
0.677343
0.694695
0.71197
0.729146
0.746233
0.763207
0.780077
0.796819
0.813432
0.829892
0.846191
0.862322
0.878266
0.893997
0.909489
0.924711
0.939633
0.954216
0.968424
0.982212
0.99556
1.00868
1.02151
1.03407
1.04633
1.05829
1.06993
1.08125
1.09222
1.10283
1.11308
1.12294
1.13241
1.14148
1.15013
1.15835
1.16614
1.17348
1.18036
1.18679
1.19274
1.19822
1.20322
1.20773
1.21176
1.21531
1.21837
1.22096
1.22309
1.22471
1.22577
1.22622
1.22643
1.22618
1.22569
1.2249
1.22391
1.22244
1.22054
1.21823
1.21556
1.21254
1.20918
1.20548
1.20146
1.19712
1.19249
1.18758
1.18237
1.17692
1.1712
1.16528
1.15911
1.15277
1.14619
1.13948
1.13263
1.12565
1.11858
1.11142
1.10419
1.0969
1.08955
1.08215
1.0747
1.06722
1.05972
1.05221
1.04471
1.03723
1.02975
1.02229
1.0148
1.00724
0.999539
0.991589
0.983159
0.97393
0.961948
0.933907
2.07018e-07
6.13864e-06
4.68726e-05
0.000217958
0.000830165
0.00205377
0.00420163
0.00668074
0.00915749
0.0113996
0.0132688
0.0147077
0.0157155
0.0163217
0.0165717
0.0165339
0.0163423
0.0159748
0.0154254
0.0147392
0.01391
0.0129301
0.0117793
0.0104607
0.0089904
0.00731377
0.00558295
0.00403678
0.00270409
0.00179778
0.00123554
0.000938463
0.000699957
0.00111123
0.00193766
0.00744363
0.015827
0.024381
0.0305301
0.0339624
0.0354699
0.0388405
0.0481675
0.0649832
0.0831308
0.102262
0.12381
0.145571
0.166537
0.188591
0.209963
0.231286
0.25299
0.27893
0.307881
0.337739
0.367831
0.397464
0.427333
0.456727
0.485924
0.514487
0.542306
0.569434
0.596035
0.622047
0.647617
0.672777
0.697612
0.722159
0.746477
0.770593
0.794545
0.818348
0.842024
0.865579
0.889024
0.912357
0.935582
0.958692
0.981687
1.00456
1.0273
1.0499
1.07235
1.09464
1.11677
1.13872
1.16048
1.18202
1.20334
1.22443
1.24528
1.26587
1.28619
1.30621
1.32592
1.34532
1.3644
1.38315
1.40158
1.41967
1.43739
1.45474
1.47169
1.48821
1.50431
1.51995
1.53513
1.54981
1.564
1.57766
1.59079
1.60337
1.61538
1.62681
1.63766
1.64789
1.65751
1.66651
1.67487
1.68258
1.68965
1.69607
1.70182
1.70691
1.71134
1.7151
1.7182
1.72063
1.72239
1.72338
1.72383
1.72394
1.7234
1.72223
1.72051
1.71819
1.71529
1.71184
1.70788
1.70342
1.69847
1.69307
1.68721
1.68092
1.67421
1.66711
1.65959
1.65175
1.64353
1.63503
1.62617
1.61707
1.60765
1.59802
1.58816
1.57812
1.56792
1.55758
1.54712
1.53655
1.52588
1.51512
1.50428
1.49337
1.48242
1.47145
1.46046
1.44949
1.43853
1.42759
1.41665
1.40567
1.39461
1.38338
1.3718
1.35966
1.34502
1.31902
8.15906e-07
2.45199e-05
0.000193238
0.000786775
0.00235449
0.00550298
0.00925412
0.0128917
0.0160449
0.0185378
0.0203352
0.0214771
0.0220772
0.0221868
0.0220535
0.021691
0.0211112
0.0204146
0.0196325
0.0187807
0.0178602
0.0168669
0.0157826
0.0145846
0.013256
0.0117717
0.0101517
0.00846426
0.00687261
0.00532783
0.00418095
0.00312663
0.00331603
0.00535468
0.0131809
0.0289531
0.0435103
0.054979
0.0638882
0.0726189
0.0837714
0.0981191
0.114317
0.130308
0.146956
0.165253
0.186443
0.208826
0.233624
0.260449
0.288997
0.319417
0.351569
0.385529
0.420289
0.455327
0.490299
0.525006
0.559344
0.593143
0.626386
0.65893
0.690848
0.722163
0.752949
0.78326
0.813177
0.84275
0.87204
0.901092
0.929947
0.958634
0.987179
1.0156
1.0439
1.0721
1.10019
1.12817
1.15603
1.18378
1.21139
1.23887
1.26619
1.29335
1.32034
1.34714
1.37374
1.40012
1.42628
1.45218
1.47783
1.50321
1.52831
1.55312
1.57763
1.6018
1.62565
1.64914
1.67227
1.69501
1.71736
1.73928
1.76075
1.78176
1.80227
1.82227
1.84173
1.86064
1.87897
1.89671
1.91384
1.93032
1.94616
1.96132
1.9758
1.98957
2.00262
2.01494
2.02651
2.03731
2.04735
2.05661
2.06508
2.07275
2.07963
2.0857
2.09097
2.09542
2.09907
2.10191
2.10395
2.10509
2.10556
2.10554
2.10463
2.10298
2.10061
2.09753
2.09376
2.08933
2.08426
2.07859
2.07232
2.06548
2.05809
2.05017
2.04174
2.03282
2.02341
2.01359
2.00332
1.99267
1.98162
1.97024
1.95849
1.94645
1.93413
1.92157
1.9088
1.89583
1.8827
1.86943
1.85603
1.8425
1.82887
1.81515
1.80135
1.78752
1.77367
1.75982
1.746
1.7322
1.71844
1.70469
1.69094
1.67716
1.66322
1.64899
1.63281
1.60884
2.78249e-06
8.34501e-05
0.00062015
0.00240907
0.00656237
0.0121696
0.0173631
0.0215084
0.0244446
0.026279
0.0272292
0.0274952
0.0273455
0.0268995
0.0261819
0.0253385
0.024422
0.0234704
0.022505
0.0215344
0.0205538
0.0195536
0.0185147
0.0174137
0.0162234
0.0149167
0.0134934
0.0120033
0.0105521
0.00902032
0.00767289
0.00821732
0.0128569
0.0265751
0.0479965
0.0680821
0.0845625
0.0975027
0.108678
0.119913
0.131976
0.145088
0.15924
0.175691
0.195402
0.218038
0.243676
0.271893
0.30249
0.334918
0.368884
0.404107
0.440287
0.477175
0.514373
0.551678
0.588908
0.62595
0.662709
0.699102
0.735083
0.770604
0.805687
0.840352
0.874643
0.908601
0.942275
0.975707
1.00894
1.04201
1.07494
1.10776
1.14049
1.17313
1.20568
1.23816
1.27055
1.30284
1.33503
1.3671
1.39904
1.43083
1.46246
1.49392
1.52518
1.55623
1.58705
1.61763
1.64795
1.67799
1.70774
1.73718
1.76631
1.79511
1.82355
1.85162
1.8793
1.90657
1.93341
1.95979
1.98569
2.01108
2.03594
2.06026
2.08399
2.10712
2.12962
2.15147
2.17265
2.19313
2.21289
2.23191
2.25017
2.26765
2.28432
2.30017
2.31519
2.32935
2.34264
2.35505
2.36656
2.37717
2.38687
2.39564
2.40348
2.41039
2.41637
2.42141
2.42551
2.42868
2.43092
2.43213
2.43257
2.4323
2.43106
2.42895
2.42599
2.42221
2.41764
2.4123
2.40621
2.39942
2.39193
2.38377
2.37498
2.36556
2.35554
2.34495
2.33381
2.32215
2.31
2.29739
2.28432
2.27084
2.25695
2.2427
2.22813
2.21325
2.19811
2.18274
2.16717
2.15142
2.13551
2.11945
2.10325
2.08694
2.07054
2.05409
2.03761
2.02113
2.00468
1.98828
1.97194
1.95567
1.93948
1.92339
1.90732
1.89121
1.87366
1.85043
8.92989e-06
0.000261314
0.00186146
0.00658016
0.0147266
0.0218387
0.0268838
0.0299867
0.0316041
0.0322059
0.0321303
0.031681
0.0308341
0.0298048
0.028678
0.0275187
0.0263699
0.0252582
0.0241947
0.0231782
0.0221977
0.0212368
0.0202694
0.0192648
0.018189
0.0169791
0.0155757
0.0139473
0.012399
0.012475
0.0151415
0.0247749
0.0445063
0.0695304
0.0927466
0.111356
0.124951
0.135101
0.144194
0.153958
0.165263
0.179759
0.197686
0.21899
0.243882
0.271832
0.302336
0.334783
0.368752
0.4039
0.439993
0.476836
0.51427
0.552165
0.590375
0.628804
0.66735
0.705928
0.744459
0.782869
0.821111
0.859149
0.896975
0.934591
0.972012
1.00926
1.04637
1.08336
1.12026
1.15709
1.19388
1.23063
1.26735
1.30405
1.34072
1.37735
1.41393
1.45044
1.48686
1.52317
1.55937
1.59541
1.63129
1.66698
1.70246
1.73772
1.77272
1.80746
1.84191
1.87605
1.90985
1.94332
1.97642
2.00915
2.04147
2.07337
2.10481
2.13577
2.16623
2.19616
2.22553
2.25431
2.28249
2.31003
2.3369
2.36308
2.38855
2.41326
2.43721
2.46036
2.48269
2.50417
2.52478
2.54451
2.56331
2.58118
2.5981
2.61405
2.629
2.64296
2.6559
2.6678
2.67868
2.6885
2.69727
2.70498
2.71164
2.71723
2.72175
2.72522
2.72763
2.72888
2.72926
2.72875
2.72717
2.7246
2.72107
2.71661
2.71124
2.705
2.69793
2.69003
2.68135
2.67191
2.66173
2.65085
2.63929
2.62707
2.61423
2.6008
2.5868
2.57228
2.55725
2.54173
2.52576
2.50936
2.49259
2.47547
2.45805
2.44035
2.42242
2.40427
2.38593
2.36741
2.34874
2.32993
2.31101
2.29203
2.27301
2.254
2.23502
2.21611
2.19729
2.17859
2.16005
2.14171
2.12355
2.10553
2.08647
2.06299
2.88195e-05
0.000787411
0.00505429
0.0153711
0.0250733
0.0312515
0.0346397
0.0362307
0.0366762
0.0364279
0.0356677
0.0345127
0.0331577
0.0317113
0.0302553
0.0288486
0.0275266
0.0263065
0.025188
0.0241598
0.0232018
0.0222846
0.0213731
0.020421
0.0194872
0.0186545
0.0181415
0.018478
0.0209474
0.02776
0.0421718
0.0649913
0.0898928
0.112877
0.131018
0.143611
0.152445
0.160084
0.168614
0.180354
0.195744
0.214914
0.23785
0.264159
0.293366
0.324715
0.357643
0.391751
0.426808
0.46266
0.499209
0.536382
0.574127
0.612398
0.65114
0.690299
0.729803
0.769575
0.809551
0.849666
0.889869
0.930119
0.97039
1.01067
1.05095
1.09124
1.13155
1.1719
1.21229
1.25275
1.29327
1.33386
1.37451
1.41522
1.45597
1.49674
1.53751
1.57825
1.61893
1.65952
1.7
1.74034
1.78051
1.82049
1.86025
1.89976
1.939
1.97795
2.01658
2.05486
2.09278
2.13031
2.16743
2.20413
2.24036
2.27611
2.31135
2.34603
2.38014
2.41365
2.44652
2.47872
2.51024
2.54103
2.57107
2.60032
2.62876
2.65636
2.68309
2.70892
2.73382
2.75777
2.78074
2.80271
2.82365
2.84353
2.86235
2.88007
2.89669
2.91217
2.92652
2.93972
2.95175
2.9626
2.97228
2.98077
2.98808
2.9942
2.99912
3.00287
3.00542
3.0067
3.007
3.00623
3.0043
3.00125
2.99713
2.99197
2.9858
2.97865
2.97056
2.96155
2.95167
2.94093
2.92936
2.91701
2.90389
2.89004
2.87549
2.86027
2.84443
2.82799
2.81098
2.79343
2.77537
2.75684
2.73788
2.71853
2.69884
2.67883
2.65854
2.63802
2.61727
2.59632
2.57519
2.5539
2.5325
2.51101
2.48949
2.46797
2.44649
2.42509
2.40382
2.3827
2.36181
2.34121
2.32092
2.30089
2.28011
2.2557
8.71777e-05
0.00217556
0.0119918
0.0258005
0.0342176
0.0386424
0.0407056
0.0412976
0.0409752
0.0399911
0.0385245
0.0368081
0.0349823
0.0331588
0.031418
0.0298135
0.0283704
0.0270932
0.02597
0.0249796
0.0240936
0.0232768
0.0224485
0.021678
0.0211457
0.0214255
0.0235803
0.0295097
0.0417659
0.0607598
0.0834265
0.106107
0.12666
0.143006
0.154503
0.162581
0.169984
0.179235
0.191737
0.208092
0.228326
0.252142
0.279082
0.308493
0.339739
0.37226
0.405739
0.440013
0.47501
0.510698
0.547066
0.584114
0.621845
0.660254
0.699318
0.738994
0.779233
0.819981
0.861179
0.902768
0.944697
0.98692
1.0294
1.07212
1.11506
1.15821
1.20158
1.24515
1.28893
1.33293
1.37713
1.42153
1.46611
1.51085
1.55572
1.60069
1.64571
1.69076
1.73578
1.78074
1.8256
1.87033
1.91489
1.95925
2.00338
2.04725
2.09082
2.13407
2.17697
2.21948
2.26159
2.30327
2.34449
2.38523
2.42545
2.46513
2.50423
2.54271
2.58054
2.61769
2.65412
2.68981
2.72472
2.75881
2.79207
2.82444
2.8559
2.88641
2.91595
2.94448
2.97197
2.9984
3.02374
3.04795
3.07102
3.09292
3.11362
3.13311
3.15136
3.16836
3.1841
3.19855
3.21172
3.22358
3.23413
3.24337
3.25129
3.25789
3.26318
3.26716
3.26982
3.27109
3.27127
3.2702
3.26787
3.26431
3.25957
3.25367
3.24666
3.23856
3.22942
3.21927
3.20813
3.19606
3.18307
3.16921
3.15451
3.13899
3.12271
3.10568
3.08796
3.06959
3.05058
3.03097
3.01081
2.99012
2.96896
2.94738
2.9254
2.90308
2.88045
2.85754
2.83438
2.811
2.78741
2.76366
2.73977
2.71579
2.69177
2.66775
2.64378
2.61991
2.59617
2.57264
2.54938
2.52647
2.50396
2.48182
2.45912
2.43326
0.000227804
0.00514934
0.0218108
0.035099
0.0418955
0.04508
0.0461972
0.0460128
0.0449717
0.0432796
0.0412233
0.0389919
0.0367394
0.034588
0.0326222
0.0308944
0.0294277
0.0282275
0.0272865
0.0265843
0.0261548
0.0260938
0.0265488
0.0278441
0.0305087
0.0355485
0.0448318
0.059195
0.0770785
0.0968003
0.11641
0.133936
0.148199
0.159071
0.167698
0.176163
0.186523
0.200059
0.217287
0.238136
0.262234
0.289047
0.317995
0.348495
0.380089
0.412494
0.445595
0.479367
0.513828
0.54901
0.584953
0.621694
0.659263
0.697666
0.736898
0.77694
0.817761
0.859318
0.901563
0.944447
0.98792
1.03194
1.07646
1.12147
1.16692
1.21282
1.25913
1.30586
1.35299
1.40051
1.44839
1.49663
1.54518
1.59402
1.64309
1.69234
1.74173
1.79119
1.84067
1.89012
1.93948
1.98871
2.03778
2.08664
2.13525
2.18357
2.23158
2.27923
2.32649
2.37333
2.41971
2.46562
2.51102
2.55588
2.60017
2.64384
2.68687
2.72921
2.77083
2.81168
2.85172
2.89094
2.92928
2.96671
3.0032
3.0387
3.07319
3.10663
3.13897
3.1702
3.20027
3.22917
3.25685
3.28329
3.30845
3.33232
3.35487
3.37608
3.39592
3.41438
3.43145
3.4471
3.46133
3.47413
3.48549
3.4954
3.50387
3.51088
3.51646
3.5206
3.5233
3.52451
3.52448
3.52306
3.52027
3.51613
3.5107
3.50401
3.49609
3.48699
3.47674
3.46538
3.45295
3.43949
3.42504
3.40963
3.3933
3.37609
3.35804
3.33918
3.31955
3.29921
3.27818
3.25649
3.2342
3.21134
3.18797
3.16414
3.13988
3.11524
3.09026
3.06498
3.03941
3.0136
2.98756
2.96134
2.93497
2.90851
2.88199
2.85549
2.82903
2.80268
2.77649
2.75053
2.72487
2.69962
2.67482
2.65048
2.62571
2.59815
0.000508638
0.0103958
0.0316587
0.0434329
0.0489578
0.0512583
0.0516464
0.0507982
0.0490683
0.0467818
0.0441876
0.0415026
0.0389042
0.0365309
0.034476
0.0327967
0.0315175
0.0306186
0.0301656
0.0300442
0.0304849
0.0318048
0.0346462
0.0398064
0.0480143
0.0595293
0.0736966
0.0895226
0.10621
0.122512
0.137274
0.14987
0.160448
0.169882
0.179673
0.191329
0.205906
0.223774
0.24483
0.268692
0.294876
0.322878
0.352231
0.382555
0.413611
0.445296
0.47761
0.510596
0.54432
0.57885
0.614256
0.65059
0.687889
0.726182
0.76548
0.805782
0.847069
0.889316
0.932487
0.976543
1.02144
1.06714
1.11361
1.16081
1.20872
1.2573
1.30654
1.35642
1.40691
1.45799
1.50962
1.56177
1.61439
1.66742
1.7208
1.77447
1.82834
1.88235
1.93641
1.99047
2.04445
2.09831
2.15199
2.20544
2.25863
2.3115
2.36402
2.41615
2.46785
2.51908
2.5698
2.62
2.66963
2.71866
2.76706
2.81477
2.86175
2.90798
2.95339
2.99796
3.04163
3.08436
3.12613
3.16688
3.20658
3.24519
3.28268
3.31899
3.35409
3.38796
3.42055
3.45183
3.48178
3.51036
3.53754
3.56329
3.58759
3.61042
3.63175
3.65156
3.66985
3.68659
3.70178
3.7154
3.72746
3.73793
3.74683
3.75415
3.7599
3.7641
3.76672
3.76779
3.76744
3.76557
3.76222
3.75742
3.75122
3.74365
3.73475
3.72456
3.71313
3.7005
3.68671
3.67181
3.65583
3.63882
3.62082
3.60188
3.58202
3.56128
3.53973
3.51739
3.4943
3.47052
3.44608
3.42104
3.39545
3.36937
3.34284
3.31589
3.28856
3.26091
3.23294
3.2047
3.17622
3.14755
3.11872
3.08979
3.06081
3.03183
3.00291
2.9741
2.94545
2.91705
2.889
2.86137
2.83424
2.80764
2.78072
2.75148
0.000966846
0.0178291
0.0401846
0.0509821
0.0558172
0.0575418
0.0573952
0.0559739
0.0537039
0.0509249
0.0479237
0.0449494
0.0422063
0.0398525
0.0380026
0.0367403
0.0361746
0.0361416
0.0368639
0.0385757
0.041608
0.0463174
0.0529798
0.061756
0.0725511
0.0850349
0.0985918
0.112463
0.125963
0.138544
0.149982
0.160463
0.170701
0.181743
0.194623
0.210038
0.228251
0.249139
0.272378
0.297563
0.324296
0.352211
0.381019
0.410518
0.440616
0.471309
0.502653
0.53473
0.567631
0.601448
0.636254
0.672117
0.709093
0.747222
0.786532
0.827037
0.868736
0.911619
0.955665
1.00085
1.04714
1.0945
1.1429
1.1923
1.24268
1.294
1.34623
1.39934
1.45329
1.50804
1.56354
1.61973
1.67655
1.73391
1.79173
1.84993
1.90842
1.9671
2.02587
2.08464
2.14335
2.20192
2.26029
2.31841
2.37624
2.43372
2.4908
2.54744
2.6036
2.65923
2.71431
2.76879
2.82265
2.87584
2.92831
2.98002
3.03093
3.08099
3.13015
3.17836
3.22558
3.27176
3.31686
3.36084
3.40365
3.44526
3.48562
3.52468
3.56242
3.59878
3.63374
3.66727
3.69933
3.72989
3.75892
3.78638
3.81226
3.83653
3.85917
3.88016
3.89949
3.91715
3.93312
3.94739
3.95996
3.97083
3.97999
3.98745
3.99322
3.99731
3.99971
4.00049
3.99968
3.99724
3.99322
3.98764
3.98055
3.972
3.96202
3.95067
3.93797
3.924
3.90878
3.89236
3.8748
3.85614
3.83643
3.8157
3.79401
3.77138
3.74787
3.72352
3.69837
3.67247
3.64588
3.61867
3.59088
3.56257
3.53378
3.50454
3.47491
3.44491
3.41457
3.38394
3.35305
3.32196
3.29071
3.25936
3.22795
3.19654
3.16519
3.13394
3.10287
3.07206
3.04161
3.01161
2.98214
2.95323
2.92412
2.89304
0.00154158
0.0253566
0.0483539
0.0586681
0.0630237
0.0642975
0.0637231
0.0618612
0.0591925
0.0561146
0.0529627
0.0500195
0.0475181
0.0456394
0.0446267
0.0443662
0.044944
0.0464953
0.049164
0.0531068
0.0584515
0.0652679
0.0735273
0.0831037
0.09374
0.105049
0.116596
0.128016
0.139107
0.149833
0.160423
0.171416
0.183507
0.197323
0.213283
0.23152
0.251927
0.274247
0.298174
0.323403
0.349674
0.376769
0.404539
0.432904
0.461858
0.491448
0.521761
0.552899
0.584966
0.618059
0.652268
0.687672
0.724339
0.762325
0.801672
0.842411
0.884558
0.928122
0.9731
1.01948
1.06725
1.11637
1.16681
1.21855
1.27155
1.32576
1.38115
1.43766
1.49525
1.55386
1.61343
1.67387
1.73507
1.79693
1.85935
1.92223
1.98545
2.0489
2.11246
2.17603
2.23951
2.30284
2.36593
2.42875
2.49121
2.55327
2.61487
2.67596
2.73651
2.79647
2.85581
2.91449
2.97246
3.02969
3.08611
3.14168
3.19636
3.2501
3.30284
3.35453
3.40511
3.45454
3.50277
3.54976
3.59547
3.63985
3.68285
3.72443
3.76454
3.80315
3.84023
3.87573
3.90964
3.94191
3.97251
4.00142
4.02861
4.05405
4.07773
4.09964
4.11975
4.13806
4.15455
4.16922
4.18207
4.19308
4.20228
4.20965
4.21522
4.21899
4.221
4.22127
4.21985
4.21668
4.21182
4.20532
4.19722
4.18756
4.1764
4.16376
4.14972
4.13431
4.11758
4.09959
4.08039
4.06003
4.03856
4.01603
3.99248
3.96796
3.9425
3.91614
3.88892
3.86093
3.83222
3.80286
3.7729
3.74241
3.71141
3.67995
3.64807
3.61578
3.58313
3.55017
3.51694
3.4835
3.4499
3.4162
3.38244
3.34868
3.31496
3.28134
3.2479
3.21473
3.18193
3.14959
3.11779
3.0866
3.05529
3.02234
0.00229407
0.0321982
0.0559904
0.0663329
0.0705252
0.0715666
0.0706947
0.0685114
0.0656096
0.0624811
0.0595166
0.0570159
0.0552135
0.0543748
0.0542772
0.0551965
0.0571434
0.0601613
0.0642838
0.069522
0.0758519
0.0832052
0.0914549
0.100436
0.109945
0.1198
0.129859
0.14006
0.150466
0.161307
0.172945
0.185793
0.200195
0.216356
0.234325
0.253999
0.275194
0.297689
0.321275
0.345765
0.371019
0.396934
0.42346
0.450589
0.478366
0.50687
0.536201
0.566468
0.597784
0.630254
0.663976
0.699044
0.73554
0.773534
0.813081
0.854224
0.897001
0.94144
0.987554
1.03535
1.08482
1.13595
1.18871
1.24308
1.29901
1.35644
1.41533
1.4756
1.53718
1.6
1.66395
1.72891
1.79474
1.86129
1.92845
1.99609
2.06408
2.13231
2.20064
2.26896
2.33717
2.40519
2.47294
2.54034
2.60733
2.67382
2.73976
2.80513
2.86988
2.93396
2.99735
3.05998
3.12182
3.18282
3.24292
3.30206
3.36022
3.41732
3.47331
3.52813
3.58173
3.63406
3.68506
3.73469
3.78291
3.82968
3.87493
3.91863
3.96073
4.00119
4.03997
4.07706
4.1124
4.14599
4.17777
4.20772
4.23582
4.26205
4.28638
4.30882
4.32934
4.34794
4.36461
4.37934
4.39213
4.40298
4.4119
4.41889
4.42398
4.42719
4.42853
4.42809
4.42583
4.42171
4.41584
4.40824
4.39898
4.38808
4.3756
4.36159
4.34609
4.32916
4.31085
4.29123
4.27033
4.24823
4.22498
4.20063
4.17523
4.14882
4.12144
4.09309
4.06385
4.03381
4.00304
3.9716
3.93956
3.90696
3.87385
3.84025
3.80622
3.77174
3.73688
3.70168
3.66621
3.63054
3.59472
3.55879
3.52279
3.48678
3.4508
3.41491
3.3792
3.34376
3.3087
3.2741
3.24005
3.20663
3.17316
3.13839
0.00318195
0.0384756
0.0637135
0.0742549
0.078352
0.0792246
0.0781203
0.0756902
0.0726446
0.0696525
0.0671864
0.0655235
0.0647744
0.0647046
0.0656582
0.0676297
0.070563
0.0744271
0.0791895
0.0848084
0.0912179
0.0983421
0.106093
0.114402
0.123207
0.132482
0.142243
0.152599
0.163714
0.175802
0.189071
0.203688
0.219725
0.23717
0.255938
0.275895
0.296896
0.3188
0.341496
0.364892
0.388938
0.413613
0.43893
0.46493
0.491689
0.519301
0.547878
0.57753
0.608364
0.640492
0.674022
0.709059
0.745695
0.784015
0.824094
0.866001
0.909793
0.955521
1.00322
1.05291
1.10459
1.15826
1.21391
1.27148
1.33093
1.39219
1.45517
1.51977
1.58587
1.65335
1.72206
1.79185
1.86252
1.93389
2.0058
2.07812
2.15073
2.22354
2.29641
2.36925
2.44194
2.5144
2.58655
2.65829
2.72951
2.80008
2.87002
2.93929
3.00786
3.07568
3.14269
3.20885
3.27411
3.33841
3.4017
3.46392
3.52502
3.58495
3.64365
3.70106
3.75712
3.81176
3.86496
3.91665
3.9668
4.01536
4.06228
4.10751
4.15101
4.19273
4.23265
4.27072
4.30694
4.34126
4.37365
4.4041
4.43257
4.45904
4.48352
4.50598
4.52642
4.54483
4.56121
4.57556
4.58787
4.59815
4.60641
4.61266
4.61693
4.61925
4.61965
4.61823
4.61484
4.60954
4.60244
4.59357
4.58297
4.57068
4.55675
4.54124
4.52419
4.50567
4.48572
4.4644
4.44178
4.41792
4.39288
4.36672
4.33948
4.31123
4.28198
4.25172
4.22053
4.18854
4.15581
4.12241
4.08839
4.05381
4.01871
3.98312
3.94707
3.91055
3.87361
3.83633
3.79879
3.76105
3.72316
3.68516
3.64709
3.60899
3.5709
3.53289
3.49506
3.4575
3.42031
3.38359
3.34739
3.31186
3.27633
3.23987
0.00412082
0.044745
0.0712258
0.0820979
0.0861843
0.0869264
0.0854718
0.0827449
0.0797634
0.0772369
0.0755739
0.0748503
0.0747587
0.0755315
0.0772665
0.0798983
0.0833597
0.0875987
0.0925728
0.0982469
0.104586
0.111571
0.119184
0.127428
0.136323
0.14593
0.156329
0.16762
0.179908
0.19329
0.207807
0.223471
0.240241
0.258043
0.276786
0.296377
0.316738
0.337805
0.359544
0.381936
0.404995
0.428743
0.453239
0.478559
0.504771
0.531972
0.560282
0.589814
0.620689
0.653024
0.686938
0.722549
0.759967
0.799297
0.840632
0.884062
0.929667
0.977522
1.02768
1.08018
1.13501
1.19217
1.25163
1.31333
1.37721
1.44316
1.51104
1.5807
1.65193
1.72453
1.79828
1.873
1.94849
2.02453
2.10092
2.17745
2.25412
2.33089
2.40772
2.48451
2.56111
2.63745
2.71344
2.78895
2.86382
2.93792
3.01133
3.08396
3.15578
3.22672
3.29673
3.36576
3.43375
3.50065
3.5664
3.63094
3.69422
3.75621
3.81682
3.87601
3.93371
3.98987
4.04443
4.09735
4.1486
4.19812
4.24587
4.29181
4.33588
4.37805
4.41828
4.45655
4.49284
4.52713
4.55938
4.58957
4.61769
4.64371
4.66764
4.68946
4.70918
4.7268
4.74231
4.75572
4.76702
4.77622
4.78335
4.78842
4.79147
4.79252
4.79168
4.78888
4.78403
4.77731
4.76874
4.75836
4.74623
4.73237
4.71685
4.69971
4.681
4.66078
4.63911
4.61605
4.59166
4.56601
4.53916
4.51117
4.48211
4.45202
4.42095
4.38888
4.3559
4.32212
4.2876
4.25239
4.21657
4.18017
4.14325
4.10584
4.06798
4.02961
3.9908
3.95166
3.91226
3.87266
3.83291
3.79306
3.75313
3.71316
3.67316
3.63324
3.5935
3.55402
3.5149
3.47623
3.43808
3.4006
3.36317
3.32521
0.00509992
0.050958
0.0785726
0.0896908
0.093723
0.0942951
0.0924504
0.089606
0.0869468
0.085094
0.0842274
0.0840348
0.0845737
0.0859525
0.0881974
0.0912411
0.0950281
0.0995199
0.104697
0.110558
0.117103
0.124351
0.132326
0.141076
0.150643
0.161091
0.172464
0.184809
0.198127
0.212417
0.227663
0.243825
0.260832
0.278623
0.297149
0.316369
0.336268
0.356841
0.3781
0.400066
0.422795
0.446364
0.470897
0.496414
0.522928
0.550594
0.579591
0.610014
0.641982
0.675619
0.711055
0.748423
0.787849
0.82945
0.873337
0.919614
0.968376
1.0197
1.07368
1.13031
1.18956
1.25139
1.31572
1.38247
1.45156
1.52284
1.59615
1.67126
1.74789
1.82569
1.90424
1.98344
2.06318
2.14328
2.2235
2.3036
2.38372
2.46384
2.5439
2.62372
2.70323
2.78246
2.86135
2.93966
3.01726
3.09412
3.17012
3.24519
3.31928
3.39234
3.46432
3.53515
3.60478
3.67315
3.7402
3.80589
3.87018
3.93303
3.99438
4.05415
4.11229
4.16874
4.22346
4.27642
4.32757
4.37688
4.42431
4.46981
4.51332
4.55481
4.59426
4.63166
4.66699
4.70022
4.73134
4.76033
4.78717
4.81185
4.83438
4.85475
4.87298
4.88907
4.90302
4.91484
4.92451
4.93206
4.93754
4.94095
4.94234
4.9418
4.93932
4.93473
4.92821
4.91981
4.90957
4.89753
4.88372
4.86819
4.85099
4.83217
4.81177
4.78987
4.76651
4.74175
4.71567
4.68831
4.65976
4.63007
4.59929
4.5675
4.53473
4.50106
4.46654
4.43121
4.39512
4.35835
4.32094
4.28295
4.24443
4.20542
4.16597
4.12602
4.08564
4.04493
4.00395
3.96278
3.92144
3.88
3.83849