/*--------------------------------*- C++ -*----------------------------------*\
  =========                 |
  \\      /  F ield         | OpenFOAM: The Open Source CFD Toolbox
   \\    /   O peration     | Website:  https://openfoam.org
    \\  /    A nd           | Version:  8
     \\/     M anipulation  |
\*---------------------------------------------------------------------------*/
FoamFile
{
    version     2.0;
    format      ascii;
    class       volScalarField;
    location    "1900";
    object      nut;
}
// * * * * * * * * * * * * * * * * * * * * * * * * * * * * * * * * * * * * * //

dimensions      [0 2 -1 0 0 0 0];

internalField   nonuniform List<scalar> 
12225
(
1.88504e-05
1.94528e-05
1.95817e-05
1.88264e-05
1.84829e-05
2.61327e-05
2.33812e-05
2.22391e-05
1.88738e-05
1.81461e-05
1.97836e-05
1.7289e-05
1.67522e-05
2.35817e-05
2.83388e-05
2.70992e-05
3.23417e-05
3.33279e-05
0.000102638
6.43676e-05
5.74659e-05
4.59066e-05
4.52823e-05
4.65745e-05
4.04191e-05
3.97791e-05
3.834e-05
4.12244e-05
4.28663e-05
4.42072e-05
4.17543e-05
4.6617e-05
5.06348e-05
5.22268e-05
5.39974e-05
5.48558e-05
0.00049882
0.000291888
0.00021753
0.000149571
0.000111707
9.3934e-05
8.11341e-05
7.61853e-05
6.77891e-05
6.47958e-05
6.60225e-05
6.61078e-05
6.46565e-05
6.29766e-05
6.31129e-05
6.11115e-05
6.16587e-05
6.17296e-05
0.00104725
0.000736178
0.000555802
0.000411388
0.00030229
0.000254004
0.000216962
0.000199713
0.000184787
0.000173294
0.000167466
0.000163379
0.000161757
0.000159708
0.000163389
0.000159096
0.000158978
0.000154388
0.00124134
0.00106299
0.000902105
0.000750782
0.000595506
0.00051683
0.000451069
0.000418839
0.000384524
0.000370675
0.000353151
0.00034555
0.000341554
0.000350728
0.000343299
0.000347006
0.000349071
0.000338614
0.0012615
0.00119656
0.00111736
0.00102462
0.000886856
0.000806595
0.000726394
0.00068777
0.000639283
0.000621554
0.000594401
0.000583479
0.000573634
0.000588335
0.000573135
0.000582586
0.000581932
0.000578813
0.00125425
0.0012372
0.00121062
0.00117338
0.00109266
0.00103568
0.000968155
0.000932812
0.00088411
0.00086557
0.000834718
0.000821876
0.000810072
0.000825762
0.000806643
0.000807258
0.000810677
0.000812963
0.00125035
0.00124637
0.00123674
0.0012216
0.00118319
0.00114861
0.00110413
0.00107674
0.00104019
0.00102406
0.000998078
0.000985663
0.000975025
0.000970951
0.00096409
0.000961013
0.000965112
0.000970036
0.00124878
0.00124843
0.00124545
0.00123917
0.00122344
0.00120541
0.00118179
0.00116225
0.00114216
0.00112541
0.00111464
0.00109715
0.00109784
0.00108454
0.00107765
0.00108414
0.00107462
0.00107793
0.00124856
0.00124832
0.00124604
0.00124592
0.00123982
0.00123256
0.0012232
0.00121283
0.00120325
0.00119173
0.00118434
0.00117615
0.0011732
0.00116647
0.00116055
0.00115688
0.00115587
0.00115715
0.00124875
0.00124784
0.00124647
0.00124568
0.0012435
0.00124097
0.0012376
0.00123399
0.00123038
0.00122632
0.00122328
0.00121976
0.00121733
0.00121465
0.00121234
0.00120994
0.00120809
0.00120586
0.00124889
0.00124767
0.00124649
0.00124544
0.00124421
0.00124292
0.00124148
0.00123999
0.00123853
0.00123694
0.00123557
0.00123408
0.00123279
0.00123142
0.00123022
0.00122886
0.00122773
0.0012263
0.00124892
0.00124766
0.00124647
0.00124535
0.00124427
0.0012432
0.00124218
0.00124116
0.0012402
0.00123923
0.00123834
0.00123743
0.00123659
0.00123572
0.00123493
0.0012341
0.00123334
0.00123252
0.00124892
0.00124766
0.00124646
0.00124533
0.00124425
0.00124321
0.00124223
0.00124129
0.0012404
0.00123953
0.00123871
0.00123792
0.00123717
0.00123644
0.00123575
0.00123507
0.00123442
0.00123379
0.00124892
0.00124766
0.00124646
0.00124531
0.00124423
0.00124319
0.00124221
0.00124127
0.00124038
0.00123952
0.00123871
0.00123793
0.00123718
0.00123647
0.00123578
0.00123513
0.0012345
0.0012339
0.00124892
0.00124766
0.00124645
0.00124531
0.00124422
0.00124318
0.00124219
0.00124125
0.00124035
0.00123949
0.00123867
0.00123789
0.00123714
0.00123642
0.00123574
0.00123508
0.00123445
0.00123385
0.00124892
0.00124765
0.00124645
0.0012453
0.00124421
0.00124317
0.00124218
0.00124123
0.00124033
0.00123947
0.00123865
0.00123786
0.00123711
0.00123639
0.0012357
0.00123504
0.00123441
0.00123381
0.00124892
0.00124765
0.00124645
0.0012453
0.00124421
0.00124317
0.00124217
0.00124123
0.00124033
0.00123946
0.00123864
0.00123785
0.0012371
0.00123638
0.00123569
0.00123503
0.00123439
0.00123379
0.00124892
0.00124766
0.00124645
0.0012453
0.00124421
0.00124317
0.00124218
0.00124123
0.00124033
0.00123947
0.00123864
0.00123785
0.0012371
0.00123638
0.00123569
0.00123503
0.00123439
0.00123379
0.00124892
0.00124766
0.00124645
0.00124531
0.00124422
0.00124318
0.00124219
0.00124124
0.00124034
0.00123947
0.00123865
0.00123785
0.00123709
0.00123636
0.00123566
0.00123498
0.00123432
0.0012337
0.00124892
0.00124766
0.00124646
0.00124532
0.00124422
0.00124319
0.00124218
0.00124123
0.0012403
0.00123941
0.00123853
0.00123768
0.00123682
0.001236
0.00123516
0.00123435
0.00123352
0.00123274
0.00124893
0.00124766
0.00124649
0.00124536
0.00124419
0.00124308
0.00124192
0.00124082
0.00123966
0.00123852
0.00123725
0.00123596
0.00123449
0.00123304
0.00123145
0.00122991
0.00122821
0.00122662
0.0012489
0.00124769
0.00124675
0.0012454
0.0012436
0.00124174
0.00123938
0.00123708
0.0012345
0.00123192
0.00122873
0.00122535
0.0012211
0.00121763
0.00121342
0.00120919
0.00120452
0.00120014
0.00124878
0.0012482
0.00124758
0.00124363
0.00123958
0.00123266
0.00122385
0.00121505
0.00120772
0.00119935
0.00119069
0.00118069
0.00116954
0.00115884
0.00114768
0.00113751
0.00112693
0.00111768
0.00124876
0.00124989
0.00124306
0.00123112
0.00120552
0.00117935
0.00115574
0.0011357
0.00111558
0.00109576
0.00107387
0.00105241
0.00103007
0.00100991
0.000989839
0.00097263
0.000955304
0.000941015
0.00125339
0.00123579
0.00121197
0.00115967
0.00108246
0.00101961
0.000968769
0.000929456
0.000893354
0.000861247
0.000828267
0.000798555
0.000769133
0.00074445
0.000720671
0.000701741
0.000683013
0.000668641
0.00128101
0.00115106
0.00106098
0.000899269
0.000771289
0.000685013
0.000623555
0.00058044
0.000544116
0.000514676
0.000486039
0.000462228
0.000439423
0.000421727
0.000404966
0.000392883
0.000380847
0.00037247
0.00166013
0.0007106
0.000523791
0.00040803
0.000332208
0.000286656
0.000256689
0.000236574
0.000220658
0.000208517
0.000197056
0.000188258
0.00017988
0.000173888
0.000168159
0.000165055
0.000161539
0.000159876
0.000961798
0.000172201
0.000120692
9.88687e-05
8.76539e-05
8.17076e-05
7.82442e-05
7.61444e-05
7.51931e-05
7.47765e-05
7.49341e-05
7.55751e-05
7.63746e-05
7.71055e-05
7.79968e-05
7.89606e-05
7.94793e-05
7.93303e-05
1.41564e-05
1.75128e-05
2.02225e-05
2.19068e-05
2.29157e-05
2.32404e-05
2.33734e-05
2.33152e-05
2.31026e-05
2.28366e-05
2.25506e-05
2.22624e-05
2.19867e-05
2.17284e-05
2.14926e-05
2.12811e-05
2.10929e-05
2.09293e-05
1.68888e-12
1.90886e-10
9.71632e-10
3.81925e-09
1.27191e-08
3.83303e-08
1.00291e-07
1.99211e-07
3.22284e-07
4.51788e-07
5.67687e-07
6.57754e-07
7.17742e-07
7.40807e-07
7.31067e-07
7.01844e-07
6.46408e-07
5.5358e-07
4.72805e-07
4.02805e-07
3.36029e-07
2.70909e-07
2.07664e-07
1.49015e-07
9.67351e-08
5.63165e-08
2.96537e-08
1.48122e-08
7.4977e-09
4.08214e-09
2.49363e-09
1.92664e-09
2.32383e-09
5.01513e-09
1.14055e-08
6.62798e-08
1.4966e-07
3.17855e-07
4.62829e-07
4.85094e-07
4.42565e-07
3.53701e-07
2.99183e-07
3.01535e-07
3.35391e-07
4.59601e-07
6.357e-07
1.35198e-06
3.22558e-06
1.02886e-05
2.35861e-05
3.58474e-05
3.88054e-05
2.61871e-05
3.02805e-05
3.21545e-05
3.68358e-05
3.42484e-05
3.56734e-05
3.7314e-05
2.9155e-05
3.24928e-05
3.28182e-05
3.34494e-05
3.41796e-05
3.47018e-05
3.53744e-05
3.59166e-05
3.65298e-05
3.70777e-05
3.76557e-05
3.82003e-05
3.87575e-05
3.92959e-05
3.98401e-05
4.03722e-05
4.09077e-05
4.14345e-05
4.19636e-05
4.2486e-05
4.30103e-05
4.3529e-05
4.40496e-05
4.45653e-05
4.50829e-05
4.55964e-05
4.61116e-05
4.66231e-05
4.71349e-05
4.76429e-05
4.81498e-05
4.86549e-05
4.91583e-05
4.96582e-05
5.01548e-05
5.0647e-05
5.11356e-05
5.16212e-05
5.21064e-05
5.25964e-05
5.30992e-05
5.36003e-05
5.41047e-05
5.46148e-05
5.51293e-05
5.56514e-05
5.6179e-05
5.67155e-05
5.72588e-05
5.78126e-05
5.83745e-05
5.89486e-05
5.95326e-05
6.01306e-05
6.07404e-05
6.13663e-05
6.20063e-05
6.26646e-05
6.33399e-05
6.40359e-05
6.47523e-05
6.54923e-05
6.62568e-05
6.70489e-05
6.78713e-05
6.87262e-05
6.96161e-05
7.05343e-05
7.15202e-05
7.2466e-05
7.35319e-05
7.45606e-05
7.57073e-05
7.69035e-05
7.81673e-05
7.92911e-05
7.90282e-05
7.87547e-05
7.84652e-05
7.81643e-05
7.78534e-05
7.75321e-05
7.72025e-05
7.68621e-05
7.65142e-05
7.61565e-05
7.57929e-05
7.54175e-05
7.50456e-05
7.46477e-05
7.42669e-05
7.38548e-05
7.34661e-05
7.30424e-05
7.26443e-05
7.22199e-05
7.18078e-05
7.13902e-05
7.0973e-05
7.05565e-05
7.01408e-05
6.97261e-05
6.93128e-05
6.89007e-05
6.84906e-05
6.80826e-05
6.76776e-05
6.72759e-05
6.68783e-05
6.64845e-05
6.6095e-05
6.57086e-05
6.53245e-05
6.4939e-05
6.45489e-05
6.4146e-05
6.37207e-05
6.3241e-05
6.26509e-05
6.10115e-05
7.30135e-12
1.18712e-09
1.59553e-08
8.45683e-08
3.74179e-07
1.19844e-06
2.79665e-06
5.1257e-06
7.94261e-06
1.11465e-05
1.43825e-05
1.73733e-05
1.99026e-05
2.18312e-05
2.29221e-05
2.32621e-05
2.29046e-05
2.20974e-05
1.98079e-05
1.66062e-05
1.27998e-05
9.42091e-06
6.63817e-06
4.48016e-06
2.81963e-06
1.7402e-06
1.06255e-06
6.60602e-07
4.11678e-07
2.73615e-07
1.9909e-07
1.78442e-07
1.7513e-07
3.41487e-07
5.48528e-07
3.82126e-06
8.48102e-06
1.64568e-05
2.20491e-05
2.36418e-05
2.21829e-05
1.96501e-05
1.71588e-05
1.64028e-05
1.69868e-05
1.76242e-05
2.15967e-05
3.00205e-05
4.12907e-05
5.30627e-05
6.4742e-05
7.44887e-05
8.24976e-05
8.79423e-05
9.87057e-05
0.000109446
0.000120834
0.00013637
0.000150616
0.000165793
0.000175818
0.000191178
0.000203927
0.000216516
0.000229163
0.000240833
0.000252361
0.000263262
0.000273885
0.000284109
0.000294043
0.000303696
0.000313101
0.000322295
0.000331287
0.000340109
0.000348767
0.00035728
0.000365654
0.000373901
0.000382027
0.000390035
0.000397937
0.00040573
0.000413424
0.000421016
0.000428516
0.000435919
0.000443235
0.00045046
0.000457598
0.000464645
0.000471601
0.000478452
0.000485181
0.000491756
0.000498137
0.000504257
0.00051002
0.000515301
0.000519933
0.000524584
0.000529047
0.000533431
0.00053768
0.000541818
0.000545828
0.000549713
0.000553466
0.000557085
0.000560565
0.000563903
0.000567095
0.000570137
0.000573025
0.000575757
0.000578327
0.000580734
0.000582973
0.000585042
0.000586936
0.000588655
0.000590192
0.000591548
0.00059272
0.000593707
0.000594514
0.000595163
0.000595671
0.000595949
0.000596086
0.000595894
0.000595658
0.000595238
0.000594808
0.000594409
0.000594141
0.000593706
0.000593114
0.000592374
0.000591499
0.000590496
0.00058937
0.00058812
0.000586746
0.000585242
0.000583595
0.000582075
0.000580063
0.000578423
0.000576183
0.000574363
0.000571938
0.000569971
0.000567451
0.00056511
0.000562632
0.000560091
0.000557517
0.000554892
0.000552228
0.000549526
0.000546787
0.000544011
0.0005412
0.000538356
0.000535485
0.00053259
0.000529676
0.000526741
0.000523785
0.000520802
0.000517776
0.000514659
0.000511417
0.000507964
0.000504165
0.0004997
0.000493813
0.000477213
1.80593e-11
3.04691e-09
5.73011e-08
3.3866e-07
1.21163e-06
2.98822e-06
6.36813e-06
1.10589e-05
1.68265e-05
2.3366e-05
3.02846e-05
3.7175e-05
4.33805e-05
4.85564e-05
5.24357e-05
5.50011e-05
5.63811e-05
5.67086e-05
5.51871e-05
5.22902e-05
4.75841e-05
4.15643e-05
3.42828e-05
2.69629e-05
2.02837e-05
1.45089e-05
9.87759e-06
6.59781e-06
4.21041e-06
2.82012e-06
1.99383e-06
1.64259e-06
1.37408e-06
2.51307e-06
4.92492e-06
1.91007e-05
3.93638e-05
5.69859e-05
6.49582e-05
6.20135e-05
4.93144e-05
4.13398e-05
4.21197e-05
4.88799e-05
5.63641e-05
6.6522e-05
7.94639e-05
9.22921e-05
0.000106227
0.000124298
0.000143611
0.000165018
0.000187701
0.000214571
0.000245374
0.000277025
0.000309065
0.000340836
0.000370908
0.000402537
0.000430662
0.0004592
0.000485523
0.000510786
0.000535092
0.000558496
0.000580785
0.000602341
0.000623187
0.000643417
0.000663115
0.000682341
0.000701149
0.000719587
0.000737685
0.000755479
0.000772984
0.000790224
0.000807209
0.000823953
0.000840465
0.000856751
0.000872819
0.000888671
0.000904313
0.000919746
0.000934974
0.000949994
0.000964806
0.000979403
0.000993779
0.00100792
0.00102183
0.00103546
0.00104879
0.00106179
0.00107441
0.0010866
0.00109833
0.00110958
0.0011205
0.00113125
0.00114172
0.00115198
0.00116196
0.0011717
0.00118116
0.00119035
0.00119925
0.00120786
0.00121617
0.00122417
0.00123185
0.00123921
0.00124624
0.00125292
0.00125926
0.00126525
0.00127087
0.00127613
0.00128101
0.00128552
0.00128965
0.00129339
0.00129675
0.00129972
0.00130231
0.00130453
0.00130636
0.0013078
0.00130888
0.00130944
0.00130972
0.00130984
0.00130974
0.00130934
0.00130873
0.00130778
0.00130649
0.00130487
0.00130294
0.00130073
0.00129823
0.00129546
0.00129243
0.00128913
0.0012856
0.00128194
0.00127782
0.0012738
0.0012692
0.00126479
0.00125976
0.001255
0.00124964
0.00124436
0.00123886
0.00123323
0.0012275
0.00122166
0.00121574
0.00120973
0.00120365
0.00119748
0.00119124
0.00118493
0.00117857
0.00117216
0.00116572
0.00115924
0.00115272
0.00114614
0.00113947
0.00113263
0.00112554
0.00111801
0.00110974
0.00109993
0.0010867
0.00105651
7.11756e-11
1.202e-08
1.90194e-07
8.03479e-07
2.58206e-06
7.04543e-06
1.39563e-05
2.32091e-05
3.40971e-05
4.55257e-05
5.65656e-05
6.67282e-05
7.54061e-05
8.19938e-05
8.69253e-05
9.00382e-05
9.12539e-05
9.09739e-05
8.93276e-05
8.6114e-05
8.14972e-05
7.5869e-05
6.83957e-05
5.94744e-05
4.96423e-05
3.97658e-05
3.07018e-05
2.31355e-05
1.73147e-05
1.26891e-05
9.82827e-06
7.47846e-06
8.34816e-06
1.33227e-05
2.936e-05
5.36754e-05
7.21099e-05
7.94527e-05
7.67603e-05
7.43261e-05
7.50522e-05
7.94809e-05
8.7869e-05
9.97206e-05
0.000114055
0.000126736
0.000148153
0.000171288
0.000199882
0.000233234
0.000269796
0.000309924
0.000352431
0.000397582
0.000443721
0.000489781
0.000535287
0.000579338
0.000622295
0.000663839
0.000703444
0.000741467
0.000777857
0.000813149
0.000846918
0.000879581
0.000911143
0.000941825
0.000971693
0.00100085
0.00102939
0.00105735
0.00108481
0.00111181
0.00113837
0.00116453
0.0011903
0.0012157
0.00124075
0.00126546
0.00128982
0.00131384
0.00133754
0.0013609
0.00138394
0.00140665
0.00142903
0.00145108
0.00147278
0.00149414
0.00151514
0.00153577
0.00155601
0.00157585
0.00159526
0.00161423
0.00163272
0.00165074
0.00166828
0.00168539
0.00170213
0.00171853
0.00173456
0.00175021
0.00176548
0.00178035
0.0017948
0.00180884
0.00182244
0.0018356
0.0018483
0.00186054
0.0018723
0.00188357
0.00189435
0.00190462
0.00191438
0.00192361
0.00193232
0.00194048
0.0019481
0.00195517
0.00196169
0.00196765
0.00197305
0.00197789
0.00198218
0.00198591
0.00198907
0.00199167
0.00199373
0.00199513
0.0019961
0.00199682
0.00199699
0.0019967
0.00199597
0.00199474
0.00199302
0.00199083
0.00198818
0.00198511
0.00198161
0.00197771
0.00197341
0.00196873
0.00196372
0.00195838
0.0019526
0.00194665
0.0019402
0.00193363
0.00192657
0.00191945
0.00191184
0.00190411
0.00189613
0.00188794
0.00187958
0.00187107
0.00186241
0.00185362
0.00184471
0.00183567
0.00182652
0.00181727
0.00180792
0.00179851
0.00178904
0.00177952
0.00176994
0.00176028
0.00175049
0.00174049
0.00173016
0.00171926
0.00170741
0.00169347
0.00167494
0.00163918
2.4273e-10
3.60005e-08
4.19237e-07
2.0143e-06
6.91308e-06
1.65873e-05
3.06452e-05
4.73263e-05
6.46768e-05
8.10317e-05
9.52669e-05
0.000106244
0.000114365
0.000119956
0.000123077
0.000124335
0.000123969
0.000122179
0.000119158
0.000114904
0.000109484
0.000103351
9.58213e-05
8.6961e-05
7.67645e-05
6.55527e-05
5.42047e-05
4.39649e-05
3.55396e-05
2.82527e-05
2.25696e-05
2.17483e-05
2.8171e-05
4.744e-05
7.17019e-05
8.68808e-05
9.42658e-05
9.77134e-05
0.000100884
0.000106641
0.000116419
0.000131142
0.000143407
0.000157403
0.000180908
0.000210636
0.00024493
0.000284798
0.00033009
0.000379086
0.000430921
0.000485037
0.000540338
0.000596418
0.00065215
0.000707084
0.000760882
0.000813001
0.000863411
0.000912607
0.000959884
0.00100569
0.00104984
0.00109266
0.00113412
0.00117443
0.00121368
0.001252
0.00128949
0.00132621
0.00136226
0.00139768
0.00143252
0.00146682
0.0015006
0.00153389
0.0015667
0.00159905
0.00163093
0.00166236
0.00169334
0.00172387
0.00175396
0.0017836
0.00181279
0.00184153
0.00186982
0.00189765
0.00192502
0.00195192
0.00197834
0.00200427
0.00202971
0.00205463
0.00207904
0.00210292
0.00212627
0.0021491
0.00217142
0.00219325
0.00221461
0.00223549
0.00225589
0.00227579
0.00229518
0.00231405
0.00233238
0.00235017
0.00236739
0.00238404
0.00240011
0.00241559
0.00243046
0.00244472
0.00245835
0.00247136
0.00248372
0.00249543
0.00250648
0.00251687
0.00252659
0.00253564
0.00254401
0.00255171
0.00255873
0.00256507
0.00257074
0.00257574
0.00258004
0.00258363
0.00258659
0.00258876
0.00259043
0.00259168
0.00259225
0.00259221
0.00259159
0.00259037
0.00258855
0.00258616
0.00258321
0.00257973
0.00257573
0.00257123
0.00256623
0.00256077
0.00255487
0.00254854
0.00254175
0.0025346
0.002527
0.00251907
0.0025107
0.00250206
0.00249298
0.00248364
0.002474
0.0024641
0.00245397
0.00244362
0.00243308
0.00242236
0.00241146
0.0024004
0.00238919
0.00237782
0.00236634
0.00235474
0.00234305
0.00233127
0.00231941
0.00230745
0.00229535
0.00228303
0.00227035
0.00225709
0.00224286
0.00222651
0.00220513
0.00216921
7.78999e-10
8.87365e-08
1.06601e-06
5.3991e-06
1.75326e-05
3.68478e-05
5.99431e-05
8.34459e-05
0.000103883
0.00011999
0.000131976
0.000140783
0.000146231
0.000149209
0.000150225
0.000149662
0.000147767
0.000144724
0.000140667
0.000135549
0.000129528
0.000122848
0.000114967
0.000106007
9.42537e-05
7.84782e-05
6.3229e-05
4.90803e-05
3.77297e-05
3.32713e-05
3.52423e-05
4.87869e-05
7.16775e-05
9.31765e-05
0.000107904
0.000116922
0.000122975
0.000129965
0.000141363
0.00015901
0.000168927
0.000183676
0.000208657
0.000238914
0.00027648
0.000320459
0.000369682
0.000423712
0.000481144
0.000540876
0.000602211
0.000664462
0.000726914
0.00078914
0.000850535
0.000910885
0.00096966
0.00102696
0.00108316
0.00113772
0.00119063
0.00124207
0.00129208
0.00134078
0.00138826
0.00143462
0.00147997
0.00152439
0.00156797
0.00161078
0.00165287
0.00169429
0.00173507
0.00177524
0.00181482
0.00185383
0.00189227
0.00193015
0.00196747
0.00200423
0.00204043
0.00207607
0.00211116
0.00214569
0.00217966
0.00221307
0.00224591
0.00227819
0.0023099
0.00234104
0.00237159
0.00240155
0.00243093
0.00245971
0.00248789
0.00251547
0.00254245
0.00256885
0.00259467
0.0026199
0.00264456
0.00266864
0.00269212
0.002715
0.00273726
0.0027589
0.0027799
0.00280025
0.00281995
0.00283897
0.00285731
0.00287497
0.00289193
0.00290819
0.00292373
0.00293856
0.00295266
0.00296604
0.00297867
0.00299057
0.00300173
0.00301214
0.0030218
0.00303072
0.00303889
0.00304633
0.00305303
0.00305901
0.00306414
0.00306858
0.0030723
0.00307516
0.00307749
0.00307926
0.00308029
0.00308064
0.00308032
0.00307934
0.0030777
0.00307543
0.00307255
0.00306908
0.00306503
0.0030604
0.00305523
0.00304953
0.00304333
0.00303663
0.00302945
0.00302181
0.0030137
0.00300516
0.00299618
0.0029868
0.002977
0.00296685
0.00295635
0.00294554
0.00293445
0.00292309
0.0029115
0.00289967
0.00288763
0.00287538
0.00286293
0.00285029
0.0028375
0.00282457
0.0028115
0.00279834
0.00278507
0.00277168
0.00275814
0.00274439
0.00273031
0.0027157
0.00270019
0.00268282
0.00266085
0.00262704
2.51407e-09
2.27811e-07
2.82297e-06
1.47201e-05
3.81748e-05
6.76016e-05
9.5447e-05
0.000118057
0.000135184
0.000148112
0.000157239
0.000162839
0.000165824
0.00016685
0.000166362
0.000164649
0.000161893
0.000158179
0.000153439
0.000147593
0.000140898
0.00013308
0.00012391
0.000106949
9.14132e-05
7.77207e-05
6.56858e-05
5.75683e-05
5.74823e-05
6.69022e-05
8.0865e-05
0.00010654
0.000123634
0.000136298
0.000145672
0.00015428
0.000166183
0.000183862
0.000191763
0.000206529
0.00023037
0.000259724
0.00029734
0.000341209
0.000392019
0.000447965
0.000507759
0.000570479
0.000635086
0.000700901
0.000767372
0.000833976
0.000900265
0.000965958
0.00103037
0.00109367
0.00115628
0.00121726
0.00127695
0.00133519
0.00139203
0.00144754
0.00150176
0.00155479
0.00160669
0.00165755
0.00170745
0.00175645
0.00180461
0.00185201
0.00189866
0.00194462
0.0019899
0.00203452
0.00207849
0.00212181
0.00216449
0.00220652
0.00224791
0.00228864
0.00232871
0.00236813
0.00240689
0.00244499
0.00248244
0.00251922
0.00255535
0.00259082
0.00262563
0.00265977
0.00269326
0.00272607
0.00275822
0.0027897
0.00282052
0.00285066
0.00288012
0.0029089
0.00293699
0.00296442
0.00299118
0.00301727
0.00304268
0.0030674
0.00309143
0.00311475
0.00313737
0.00315926
0.00318044
0.0032009
0.00322063
0.00323963
0.00325788
0.00327537
0.0032921
0.00330807
0.00332327
0.0033377
0.00335135
0.00336423
0.00337632
0.00338764
0.00339818
0.00340794
0.00341692
0.00342513
0.00343262
0.00343932
0.00344514
0.00345024
0.00345459
0.00345806
0.00346099
0.00346327
0.00346478
0.00346556
0.00346564
0.00346503
0.00346373
0.00346178
0.00345917
0.00345594
0.00345213
0.00344776
0.00344283
0.00343734
0.00343131
0.00342474
0.00341766
0.00341008
0.003402
0.00339345
0.00338443
0.00337496
0.00336504
0.00335473
0.00334403
0.00333297
0.00332159
0.00330991
0.00329794
0.00328571
0.00327321
0.00326047
0.00324749
0.00323429
0.0032209
0.00320733
0.0031936
0.00317974
0.00316576
0.00315165
0.00313738
0.00312293
0.00310819
0.00309302
0.00307713
0.00305976
0.00303877
0.00300816
7.60495e-09
6.04285e-07
7.62399e-06
3.13942e-05
6.57049e-05
0.000100077
0.000128496
0.000149454
0.000163859
0.000172564
0.00017696
0.000178805
0.000178943
0.000177756
0.00017555
0.00017247
0.000168462
0.000163442
0.000157532
0.000150841
0.000143185
0.000134146
0.000115941
9.90834e-05
8.52583e-05
7.62981e-05
7.4398e-05
7.87034e-05
8.99581e-05
0.000111584
0.000136862
0.000159638
0.000173438
0.000183611
0.000195644
0.000204541
0.000212347
0.000226166
0.000247455
0.000274934
0.000310315
0.000352188
0.000401321
0.000456185
0.000516177
0.000579535
0.000645244
0.000712569
0.00078087
0.000849684
0.00091861
0.000987297
0.00105518
0.00112218
0.00118875
0.00125413
0.00131842
0.00138142
0.00144319
0.00150371
0.00156299
0.00162107
0.00167801
0.00173386
0.00178868
0.00184254
0.00189548
0.00194757
0.00199886
0.0020494
0.0020992
0.0021483
0.00219671
0.00224443
0.00229146
0.0023378
0.00238343
0.00242835
0.00247255
0.00251603
0.00255876
0.00260076
0.00264202
0.00268254
0.00272232
0.00276135
0.00279966
0.00283724
0.00287409
0.00291021
0.0029456
0.00298027
0.00301422
0.00304744
0.00307994
0.0031117
0.00314273
0.00317301
0.00320255
0.00323137
0.00325947
0.00328684
0.00331349
0.0033394
0.00336456
0.00338898
0.00341264
0.00343554
0.00345768
0.00347906
0.00349965
0.00351947
0.00353851
0.00355677
0.00357425
0.00359094
0.00360684
0.00362196
0.00363629
0.00364983
0.00366258
0.00367455
0.00368574
0.00369615
0.00370578
0.00371465
0.00372281
0.00373012
0.00373661
0.00374238
0.00374737
0.00375151
0.00375511
0.003758
0.00376012
0.00376152
0.00376221
0.00376219
0.00376148
0.00376011
0.00375807
0.0037554
0.00375211
0.0037482
0.00374369
0.00373861
0.00373296
0.00372675
0.00372001
0.00371274
0.00370496
0.00369667
0.00368788
0.00367861
0.00366888
0.00365871
0.00364813
0.00363716
0.00362584
0.00361418
0.0036022
0.00358992
0.00357734
0.00356448
0.00355135
0.00353797
0.00352435
0.00351054
0.00349654
0.00348238
0.00346808
0.00345363
0.00343903
0.00342426
0.00340935
0.00339419
0.00337852
0.00336173
0.00334217
0.00331536
1.98725e-08
1.50622e-06
1.69365e-05
5.27026e-05
9.38552e-05
0.000128421
0.000154219
0.000171531
0.00018237
0.000187966
0.000189732
0.000188798
0.000186127
0.000182425
0.000178067
0.00017315
0.000167589
0.000161417
0.000154533
0.000147131
0.000138933
0.000126831
0.000115134
0.000108315
0.000103088
9.95494e-05
0.000105257
0.000120994
0.00014105
0.000162426
0.000182362
0.000198758
0.000210371
0.000219478
0.000229224
0.000242257
0.000261134
0.00028597
0.000318121
0.000356905
0.00040258
0.000454256
0.000511633
0.000573373
0.000638414
0.000705504
0.000773945
0.000843241
0.000912975
0.000982808
0.00105238
0.00112118
0.00118964
0.00125745
0.00132434
0.00139019
0.00145498
0.00151864
0.00158117
0.00164258
0.00170288
0.0017621
0.0018203
0.00187751
0.00193378
0.00198917
0.00204371
0.00209746
0.00215046
0.00220276
0.00225437
0.00230531
0.00235559
0.0024052
0.00245409
0.00250229
0.00254976
0.00259649
0.00264245
0.00268762
0.00273201
0.00277559
0.00281838
0.00286037
0.00290159
0.00294207
0.00298176
0.00302065
0.00305874
0.00309605
0.00313257
0.00316832
0.00320328
0.00323748
0.0032709
0.00330356
0.00333544
0.00336657
0.00339695
0.00342656
0.00345541
0.00348349
0.0035108
0.00353734
0.00356311
0.00358809
0.00361229
0.0036357
0.00365833
0.00368016
0.00370121
0.00372146
0.00374093
0.0037596
0.00377749
0.00379459
0.00381091
0.00382645
0.00384121
0.00385519
0.00386841
0.00388085
0.00389252
0.00390344
0.00391359
0.00392303
0.00393177
0.00393963
0.00394676
0.00395317
0.00395883
0.00396368
0.00396798
0.00397154
0.00397437
0.00397648
0.0039779
0.00397862
0.00397867
0.00397804
0.00397677
0.00397486
0.00397232
0.00396917
0.00396542
0.00396109
0.00395618
0.00395071
0.0039447
0.00393815
0.00393106
0.00392346
0.00391534
0.00390672
0.00389761
0.00388806
0.00387807
0.00386767
0.00385689
0.00384574
0.00383425
0.00382242
0.00381027
0.0037978
0.00378504
0.00377199
0.00375869
0.00374515
0.0037314
0.00371747
0.00370337
0.0036891
0.00367468
0.00366011
0.00364536
0.0036304
0.00361508
0.00359893
0.00358064
0.00355723
4.43711e-08
3.48374e-06
3.05365e-05
7.67893e-05
0.000121197
0.000154968
0.000177106
0.000191038
0.000197651
0.000198846
0.000196538
0.000192111
0.00018649
0.000180245
0.00017357
0.00016642
0.000158965
0.000150807
0.000142671
0.000134172
0.000125592
0.000117902
0.000113012
0.000113279
0.000120006
0.000132521
0.000148727
0.000166666
0.000184913
0.000202017
0.000216247
0.000227897
0.000240321
0.000254114
0.000271739
0.000294083
0.000322849
0.000357968
0.000399556
0.000447036
0.000500101
0.000558016
0.000620071
0.000685139
0.000752257
0.000820615
0.000889721
0.000959217
0.00102881
0.00109794
0.00116662
0.00123517
0.00130291
0.00136984
0.00143586
0.00150088
0.00156489
0.00162786
0.00168978
0.00175067
0.00181054
0.00186944
0.00192742
0.00198452
0.00204081
0.00209631
0.00215105
0.00220506
0.00225842
0.00231118
0.00236335
0.00241494
0.00246598
0.00251649
0.00256657
0.00261601
0.0026647
0.00271259
0.00275967
0.00280591
0.00285129
0.00289579
0.00293942
0.00298219
0.00302408
0.00306508
0.00310524
0.00314461
0.00318317
0.00322096
0.00325796
0.00329418
0.00332963
0.0033643
0.00339821
0.00343135
0.00346372
0.00349533
0.00352615
0.0035562
0.00358546
0.00361393
0.00364161
0.00366849
0.00369458
0.00371988
0.00374437
0.00376807
0.00379096
0.00381306
0.00383437
0.00385488
0.00387461
0.00389355
0.00391172
0.00392911
0.00394573
0.00396159
0.00397669
0.00399104
0.00400464
0.0040175
0.00402962
0.00404101
0.00405167
0.00406168
0.00407093
0.00407941
0.0040872
0.00409429
0.00410066
0.0041063
0.00411134
0.00411568
0.00411931
0.00412225
0.00412452
0.00412611
0.00412705
0.00412733
0.00412697
0.00412599
0.00412438
0.00412218
0.00411937
0.00411599
0.00411204
0.00410753
0.00410246
0.00409686
0.00409071
0.00408404
0.00407683
0.00406911
0.0040609
0.00405222
0.0040431
0.00403354
0.00402359
0.00401325
0.00400254
0.00399148
0.00398006
0.0039683
0.00395622
0.00394383
0.00393115
0.00391822
0.00390505
0.00389167
0.00387809
0.00386433
0.00385041
0.00383634
0.00382214
0.00380778
0.00379318
0.003778
0.00376118
0.00374138
8.43429e-08
7.12195e-06
4.47728e-05
9.68451e-05
0.000143002
0.000175956
0.000196362
0.000205957
0.000208092
0.00020535
0.000199614
0.000192184
0.000183849
0.000174962
0.000166247
0.000157496
0.000149522
0.000142421
0.000136926
0.000132817
0.000131061
0.000132602
0.000137874
0.00014694
0.000159218
0.000173784
0.000189481
0.000205303
0.000219885
0.000232659
0.000246385
0.000261922
0.000279397
0.000300223
0.000326127
0.000357594
0.000394976
0.000437937
0.000486164
0.000539155
0.000596457
0.000657412
0.000721268
0.000787146
0.000854301
0.000922168
0.000990367
0.00105855
0.00112621
0.00119381
0.00126089
0.00132732
0.00139292
0.00145761
0.00152134
0.00158408
0.00164584
0.00170662
0.00176644
0.00182531
0.0018832
0.00194021
0.00199644
0.00205194
0.00210679
0.00216109
0.00221502
0.00226868
0.00232185
0.00237449
0.00242662
0.00247824
0.00252936
0.00257996
0.00262994
0.00267931
0.00272802
0.00277598
0.0028232
0.00286961
0.00291519
0.00295991
0.00300377
0.00304675
0.00308889
0.00313021
0.00317073
0.00321045
0.00324937
0.00328751
0.00332487
0.00336146
0.00339728
0.00343233
0.0034666
0.00350011
0.00353284
0.00356479
0.00359596
0.00362634
0.00365593
0.00368471
0.0037127
0.00373988
0.00376626
0.00379184
0.00381661
0.00384057
0.00386374
0.00388611
0.00390768
0.00392846
0.00394847
0.0039677
0.00398617
0.00400387
0.00402083
0.00403705
0.00405253
0.00406729
0.00408133
0.00409466
0.00410728
0.0041192
0.00413045
0.00414103
0.0041509
0.00416008
0.00416859
0.00417644
0.00418361
0.00419012
0.00419601
0.00420122
0.00420577
0.00420965
0.00421288
0.00421547
0.00421742
0.00421874
0.00421943
0.00421951
0.00421898
0.00421786
0.00421616
0.00421388
0.00421104
0.00420765
0.00420371
0.00419922
0.0041942
0.00418862
0.00418252
0.00417589
0.00416875
0.00416114
0.00415307
0.00414457
0.00413565
0.00412633
0.00411663
0.00410654
0.00409607
0.00408525
0.00407407
0.00406257
0.00405076
0.00403867
0.00402632
0.00401372
0.00400091
0.00398789
0.0039747
0.00396136
0.0039479
0.00393432
0.0039206
0.00390648
0.00389106
0.00387437
1.3448e-07
1.21267e-05
6.09932e-05
0.000119324
0.000165386
0.000195943
0.000212196
0.000217873
0.000216498
0.000210767
0.000202634
0.000193149
0.000183752
0.000174681
0.000166835
0.000159982
0.000154886
0.00015202
0.000151241
0.000152804
0.000156971
0.000163778
0.000173017
0.000184299
0.000197101
0.000210808
0.000224361
0.000237144
0.000250904
0.000267153
0.000285275
0.000305293
0.000329205
0.000357618
0.000391093
0.00042961
0.00047298
0.000520813
0.000572737
0.000628333
0.000687154
0.000748622
0.000812078
0.000876835
0.000942311
0.00100808
0.0010735
0.00113869
0.00120358
0.00126784
0.00133137
0.00139407
0.00145583
0.00151652
0.0015761
0.00163471
0.0016924
0.00174922
0.00180527
0.00186072
0.00191591
0.00197061
0.00202468
0.0020781
0.00213094