/*--------------------------------*- C++ -*----------------------------------*\
  =========                 |
  \\      /  F ield         | OpenFOAM: The Open Source CFD Toolbox
   \\    /   O peration     | Website:  https://openfoam.org
    \\  /    A nd           | Version:  8
     \\/     M anipulation  |
\*---------------------------------------------------------------------------*/
FoamFile
{
    version     2.0;
    format      ascii;
    class       volScalarField;
    location    "1900";
    object      p;
}
// * * * * * * * * * * * * * * * * * * * * * * * * * * * * * * * * * * * * * //

dimensions      [0 2 -2 0 0 0 0];

internalField   nonuniform List<scalar> 
12225
(
-4.1921
-5.08497
-5.48056
-5.60555
-5.73505
-5.88464
-6.01595
-6.12108
-6.20758
-6.28642
-6.35872
-6.42657
-6.49535
-6.56542
-6.63435
-6.70755
-6.79339
-6.88872
-4.44745
-5.11124
-5.45208
-5.57532
-5.70542
-5.84997
-5.97668
-6.08625
-6.17735
-6.25789
-6.3321
-6.40012
-6.469
-6.54132
-6.61422
-6.68724
-6.76134
-6.8269
-4.66192
-5.11516
-5.43455
-5.58179
-5.71452
-5.85474
-5.97933
-6.08581
-6.17548
-6.25531
-6.32968
-6.39894
-6.46688
-6.53572
-6.60406
-6.66975
-6.73388
-6.78788
-4.81754
-5.14011
-5.4399
-5.59696
-5.72315
-5.85422
-5.97377
-6.07672
-6.16499
-6.24402
-6.31752
-6.38623
-6.45278
-6.51911
-6.5846
-6.64734
-6.70697
-6.75764
-4.95422
-5.19272
-5.45825
-5.61344
-5.7337
-5.85756
-5.97287
-6.07296
-6.1598
-6.23791
-6.3103
-6.37813
-6.44349
-6.50779
-6.57053
-6.63005
-6.68528
-6.73216
-5.07527
-5.25226
-5.47909
-5.62944
-5.74609
-5.86352
-5.9739
-6.07071
-6.15569
-6.23263
-6.30392
-6.37088
-6.43501
-6.49716
-6.55695
-6.61312
-6.66446
-6.7083
-5.18375
-5.31295
-5.50315
-5.64607
-5.75895
-5.86977
-5.97474
-6.06814
-6.15115
-6.22683
-6.29705
-6.363
-6.42569
-6.48568
-6.54267
-6.59575
-6.64392
-6.68549
-5.26722
-5.36525
-5.52701
-5.66103
-5.76983
-5.87508
-5.97537
-6.06579
-6.14699
-6.22138
-6.2905
-6.35533
-6.4166
-6.47471
-6.52944
-6.5801
-6.62598
-6.66587
-5.33466
-5.41174
-5.55009
-5.67506
-5.7797
-5.87997
-5.97603
-6.06372
-6.14313
-6.21618
-6.28414
-6.3478
-6.40771
-6.46415
-6.51695
-6.56564
-6.6097
-6.64832
-5.40162
-5.46166
-5.57725
-5.69153
-5.79099
-5.88578
-5.9771
-6.0616
-6.13885
-6.21019
-6.27667
-6.33887
-6.3972
-6.45183
-6.50268
-6.54943
-6.5918
-6.62923
-5.46735
-5.51382
-5.60855
-5.71081
-5.80394
-5.89276
-5.97881
-6.05959
-6.13421
-6.20345
-6.2681
-6.32856
-6.3851
-6.43785
-6.48675
-6.53166
-6.57244
-6.60879
-5.53079
-5.56669
-5.64326
-5.73283
-5.81857
-5.90101
-5.98138
-6.0579
-6.1294
-6.19614
-6.25859
-6.31704
-6.37162
-6.42242
-6.46942
-6.51259
-6.55192
-6.58723
-5.5906
-5.61852
-5.67999
-5.75701
-5.8346
-5.91039
-5.98485
-6.05666
-6.1246
-6.18844
-6.24839
-6.30458
-6.35707
-6.40588
-6.45104
-6.49257
-6.53055
-6.56489
-5.6453
-5.66725
-5.71667
-5.78212
-5.85132
-5.9204
-5.98892
-6.05582
-6.11987
-6.18053
-6.23774
-6.2915
-6.3418
-6.38863
-6.43202
-6.47202
-6.50874
-6.54219
-5.69285
-5.71046
-5.75069
-5.80621
-5.86744
-5.93007
-5.99293
-6.05498
-6.11506
-6.17243
-6.22681
-6.27809
-6.3262
-6.3711
-6.41281
-6.4514
-6.48698
-6.51962
-5.73053
-5.74511
-5.77873
-5.82652
-5.88094
-5.93787
-5.99572
-6.05339
-6.10975
-6.16398
-6.21566
-6.26458
-6.31062
-6.35373
-6.39393
-6.43126
-6.46586
-6.49778
-5.75447
-5.76714
-5.79662
-5.83925
-5.88881
-5.94149
-5.99552
-6.04977
-6.10313
-6.15477
-6.20419
-6.25113
-6.29544
-6.33707
-6.37601
-6.41232
-6.44611
-6.47746
-5.75849
-5.77054
-5.79869
-5.83954
-5.88722
-5.93805
-5.99034
-6.04293
-6.09476
-6.14498
-6.19312
-6.23888
-6.28214
-6.32283
-6.36098
-6.39664
-6.4299
-6.46089
-5.74222
-5.75496
-5.78462
-5.82716
-5.8761
-5.92775
-5.98058
-6.03352
-6.08549
-6.13571
-6.18368
-6.22921
-6.27217
-6.31257
-6.35042
-6.38581
-6.41886
-6.4497
-5.71078
-5.72538
-5.7591
-5.8062
-5.85885
-5.91328
-5.96837
-6.02317
-6.07655
-6.12774
-6.17638
-6.22233
-6.26555
-6.30605
-6.34394
-6.37932
-6.41233
-6.44315
-5.66734
-5.68519
-5.72574
-5.78003
-5.83812
-5.89666
-5.95525
-6.01297
-6.06856
-6.12135
-6.17114
-6.21791
-6.26168
-6.30253
-6.34061
-6.37609
-6.40916
-6.44001
-5.61371
-5.63672
-5.68746
-5.75132
-5.81593
-5.8794
-5.94238
-6.00372
-6.062
-6.11672
-6.16792
-6.21571
-6.26015
-6.30142
-6.33974
-6.37534
-6.40846
-6.43933
-5.55069
-5.58183
-5.64696
-5.72228
-5.79372
-5.86263
-5.93063
-5.99597
-6.05708
-6.11384
-6.16656
-6.21541
-6.26054
-6.3022
-6.34071
-6.37638
-6.40948
-6.44032
-5.4784
-5.52241
-5.60705
-5.69459
-5.77234
-5.84697
-5.92049
-5.98989
-6.05375
-6.11249
-6.16668
-6.21653
-6.26227
-6.30425
-6.34286
-6.37851
-6.41153
-6.44227
-5.39622
-5.4602
-5.57048
-5.66972
-5.75225
-5.83258
-5.91176
-5.98511
-6.05152
-6.11213
-6.16771
-6.21849
-6.26474
-6.30692
-6.34552
-6.38102
-6.41385
-6.44443
-5.30391
-5.3963
-5.53784
-5.64746
-5.73362
-5.81941
-5.90386
-5.98066
-6.04938
-6.11181
-6.16882
-6.22059
-6.26743
-6.30988
-6.3485
-6.38388
-6.41655
-6.44711
-5.20161
-5.33398
-5.50589
-5.62286
-5.71416
-5.80722
-5.89713
-5.97706
-6.04787
-6.11192
-6.17011
-6.22265
-6.26988
-6.3124
-6.35086
-6.38599
-6.41839
-6.44878
-5.07418
-5.28743
-5.4817
-5.59436
-5.69082
-5.7944
-5.89208
-5.97678
-6.05102
-6.11774
-6.17781
-6.23149
-6.27931
-6.32192
-6.36005
-6.39462
-6.42665
-6.45737
-4.86954
-5.25798
-5.48914
-5.58707
-5.67923
-5.78684
-5.88776
-5.97407
-6.04969
-6.11786
-6.17922
-6.23384
-6.28225
-6.32514
-6.36312
-6.3968
-6.4273
-6.45597
-4.59825
-5.18089
-5.48135
-5.59079
-5.69008
-5.80538
-5.91142
-6.00029
-6.07711
-6.14591
-6.20755
-6.26196
-6.3097
-6.35162
-6.38814
-6.41905
-6.44505
-6.46622
-7.4291
-7.42921
-7.42926
-7.42924
-7.42895
-7.42775
-7.42519
-7.42177
-7.4185
-7.41639
-7.41649
-7.41898
-7.42336
-7.42883
-7.4346
-7.43998
-7.4444
-7.44744
-7.44908
-7.44966
-7.44949
-7.44876
-7.44771
-7.44664
-7.44578
-7.44524
-7.44498
-7.44483
-7.44461
-7.44423
-7.44368
-7.44296
-7.44201
-7.44075
-7.43927
-7.43788
-7.43725
-7.43804
-7.44026
-7.44317
-7.44584
-7.44786
-7.4495
-7.45121
-7.45344
-7.45664
-7.46027
-7.46326
-7.46548
-7.46958
-7.47966
-7.49947
-7.52838
-7.56481
-7.60857
-7.66101
-7.72209
-7.79001
-7.86279
-7.93773
-8.01273
-8.08661
-8.15803
-8.22559
-8.28855
-8.34661
-8.39961
-8.44751
-8.4904
-8.52834
-8.56148
-8.58986
-8.61364
-8.63283
-8.64753
-8.65773
-8.6635
-8.66478
-8.6616
-8.6539
-8.64168
-8.62486
-8.60345
-8.57737
-8.54662
-8.51117
-8.47096
-8.42589
-8.37587
-8.32077
-8.26053
-8.19511
-8.1245
-8.04866
-7.96757
-7.88118
-7.78948
-7.69255
-7.59041
-7.4828
-7.36922
-7.24958
-7.12404
-6.99265
-6.85537
-6.71222
-6.56314
-6.40816
-6.24726
-6.08048
-5.90784
-5.72939
-5.54518
-5.35531
-5.15986
-4.95895
-4.75271
-4.54129
-4.32486
-4.1036
-3.87771
-3.6474
-3.41292
-3.17448
-2.93236
-2.68679
-2.43808
-2.18649
-1.93237
-1.67599
-1.41766
-1.15759
-0.896055
-0.63338
-0.370019
-0.10624
0.157996
0.422631
0.687269
0.95163
1.2154
1.47835
1.74025
2.00093
2.26024
2.51804
2.77423
3.02868
3.28126
3.53185
3.78032
4.02657
4.27048
4.51195
4.75089
4.98723
5.2209
5.45184
5.68001
5.90535
6.12783
6.3474
6.564
6.77757
6.98806
7.1954
7.39952
7.60037
7.79786
7.99194
8.1825
8.36946
8.5527
8.73214
8.90765
9.07927
9.24732
9.4115
9.57514
9.72947
-7.43033
-7.43052
-7.43089
-7.43129
-7.43131
-7.43049
-7.42853
-7.426
-7.42418
-7.42404
-7.4259
-7.42958
-7.43455
-7.44015
-7.44575
-7.45084
-7.45503
-7.45814
-7.45995
-7.46028
-7.45921
-7.45709
-7.45436
-7.45151
-7.44898
-7.44705
-7.44574
-7.44487
-7.44418
-7.44353
-7.44291
-7.44229
-7.44159
-7.44074
-7.43971
-7.43896
-7.43924
-7.44099
-7.4439
-7.44693
-7.44892
-7.44959
-7.44943
-7.44844
-7.44701
-7.44688
-7.45043
-7.45724
-7.4638
-7.47127
-7.48304
-7.5
-7.52393
-7.55827
-7.60543
-7.66417
-7.73139
-7.80453
-7.88065
-7.95764
-8.03396
-8.10765
-8.17702
-8.24166
-8.30159
-8.35664
-8.40686
-8.45229
-8.49304
-8.52918
-8.56084
-8.58805
-8.61089
-8.62938
-8.64355
-8.65339
-8.65891
-8.66007
-8.65686
-8.64923
-8.63713
-8.62052
-8.59934
-8.57356
-8.54315
-8.50807
-8.46828
-8.4237
-8.37422
-8.31975
-8.26021
-8.19555
-8.12577
-8.05082
-7.97065
-7.88518
-7.79432
-7.69792
-7.59582
-7.48798
-7.37461
-7.2557
-7.13108
-7.00065
-6.86439
-6.72225
-6.57422
-6.42028
-6.26044
-6.09471
-5.92313
-5.74573
-5.56257
-5.37373
-5.1793
-4.97939
-4.77414
-4.56368
-4.34817
-4.12782
-3.90279
-3.67332
-3.43962
-3.20193
-2.96051
-2.71561
-2.46751
-2.21649
-1.96287
-1.70696
-1.449
-1.18924
-0.927884
-0.665211
-0.401535
-0.137203
0.127325
0.391889
0.656456
0.920759
1.18451
1.44745
1.70939
1.97014
2.22954
2.48747
2.7438
2.9984
3.25116
3.50193
3.75061
3.99707
4.24121
4.48293
4.72214
4.95875
5.1927
5.42393
5.65239
5.87803
6.10081
6.32067
6.53758
6.75147
6.96228
7.16995
7.37441
7.5756
7.77345
7.96788
8.15883
8.34621
8.52998
8.71002
8.88625
9.05853
9.2271
9.39156
9.55728
9.71087
-7.43164
-7.43163
-7.43167
-7.43176
-7.43186
-7.4319
-7.43212
-7.43304
-7.43516
-7.43863
-7.44324
-7.44862
-7.45434
-7.45995
-7.46508
-7.46942
-7.47275
-7.47497
-7.476
-7.47579
-7.47435
-7.47182
-7.4684
-7.46428
-7.45972
-7.45501
-7.45046
-7.44634
-7.44285
-7.44008
-7.43797
-7.43627
-7.43473
-7.43341
-7.43284
-7.43374
-7.43659
-7.44098
-7.44539
-7.44793
-7.44744
-7.44506
-7.44298
-7.44255
-7.44329
-7.44538
-7.45139
-7.46226
-7.47743
-7.49773
-7.52381
-7.55577
-7.59412
-7.63957
-7.69223
-7.75093
-7.81391
-7.8795
-7.9461
-8.01255
-8.078
-8.14147
-8.20208
-8.25934
-8.31303
-8.36293
-8.40894
-8.45099
-8.48906
-8.5231
-8.55311
-8.57908
-8.60098
-8.61879
-8.63249
-8.64203
-8.64739
-8.64851
-8.64537
-8.63789
-8.62603
-8.60972
-8.58892
-8.56357
-8.53362
-8.49904
-8.45979
-8.4158
-8.36697
-8.31319
-8.2544
-8.19056
-8.12164
-8.04761
-7.96841
-7.88397
-7.79423
-7.69903
-7.59822
-7.49169
-7.37955
-7.26179
-7.13836
-7.00917
-6.87418
-6.73332
-6.58661
-6.43399
-6.27549
-6.11111
-5.94087
-5.76481
-5.583
-5.39549
-5.20238
-5.00377
-4.79979
-4.59058
-4.37629
-4.15712
-3.93324
-3.70487
-3.47223
-3.23556
-2.9951
-2.75112
-2.50387
-2.25367
-2.00079
-1.74557
-1.48824
-1.22904
-0.968222
-0.706077
-0.442917
-0.179073
0.0850983
0.349402
0.613729
0.877812
1.14138
1.40418
1.66601
1.92669
2.18607
2.44399
2.70035
2.955
3.20782
3.45867
3.70744
3.95402
4.1983
4.44018
4.67955
4.91635
5.15049
5.38191
5.61057
5.8364
6.05937
6.27943
6.49653
6.7106
6.92159
7.12943
7.33405
7.5354
7.7334
7.92797
8.11906
8.30655
8.49036
8.67044
8.8468
9.01943
9.18888
9.35402
9.52243
9.67177
-7.43277
-7.43249
-7.43211
-7.43213
-7.43335
-7.43615
-7.44034
-7.44554
-7.45141
-7.45762
-7.46388
-7.46993
-7.47554
-7.48052
-7.48471
-7.48795
-7.49016
-7.49126
-7.49123
-7.49004
-7.4877
-7.48429
-7.4799
-7.47462
-7.46854
-7.46181
-7.45463
-7.44729
-7.44018
-7.43367
-7.42803
-7.42347
-7.4203
-7.41903
-7.42042
-7.4246
-7.43033
-7.43549
-7.4387
-7.4397
-7.43917
-7.43885
-7.4402
-7.44396
-7.45072
-7.4613
-7.47655
-7.49704
-7.52284
-7.55363
-7.58887
-7.62827
-7.67159
-7.71869
-7.76937
-7.8232
-7.8795
-7.93745
-7.99615
-8.05479
-8.11266
-8.16908
-8.22348
-8.27538
-8.32448
-8.37051
-8.4133
-8.45269
-8.48859
-8.52089
-8.54953
-8.57442
-8.5955
-8.61271
-8.62598
-8.63524
-8.64045
-8.64153
-8.63843
-8.63108
-8.61942
-8.60339
-8.58292
-8.55795
-8.52844
-8.49434
-8.4556
-8.41217
-8.36394
-8.31084
-8.25276
-8.18968
-8.12156
-8.04836
-7.97001
-7.88643
-7.79754
-7.70324
-7.60341
-7.49801
-7.38701
-7.2704
-7.14813
-7.02012
-6.88632
-6.74669
-6.60121
-6.44985
-6.29261
-6.1295
-5.96053
-5.78573
-5.60517
-5.41891
-5.22703
-5.02963
-4.82684
-4.61879
-4.40564
-4.18756
-3.96474
-3.73739
-3.50573
-3.27
-3.03043
-2.78729
-2.54084
-2.29139
-2.03923
-1.78464
-1.52789
-1.26922
-1.00888
-0.747205
-0.484515
-0.221121
0.0427102
0.306767
0.570873
0.834751
1.09814
1.3608
1.62253
1.88314
2.14248
2.4004
2.65677
2.91146
3.16432
3.41524
3.66409
3.91076
4.15515
4.39715
4.63666
4.8736
5.1079
5.33949
5.56831
5.79431
6.01744
6.23766
6.45491
6.66914
6.88028
7.08826
7.29301
7.49447
7.69257
7.88724
8.07841
8.26601
8.44995
8.6302
8.80677
8.97967
9.14958
9.31469
9.48373
9.62661
-7.4351
-7.4345
-7.43411
-7.43559
-7.43995
-7.44644
-7.45397
-7.46181
-7.46948
-7.47666
-7.4832
-7.48902
-7.49409
-7.49833
-7.50165
-7.50398
-7.50525
-7.5054
-7.50442
-7.50227
-7.49897
-7.49455
-7.48906
-7.48255
-7.4751
-7.46676
-7.45764
-7.44797
-7.43809
-7.42853
-7.41992
-7.41313
-7.40915
-7.40894
-7.41225
-7.41711
-7.42186
-7.42583
-7.42895
-7.43175
-7.43506
-7.44001
-7.4476
-7.45887
-7.47469
-7.49524
-7.52003
-7.54852
-7.58043
-7.61539
-7.65316
-7.69371
-7.73697
-7.78287
-7.8312
-7.88158
-7.93352
-7.98645
-8.03978
-8.09292
-8.14536
-8.1966
-8.24618
-8.29377
-8.33904
-8.38176
-8.42171
-8.4587
-8.4926
-8.52325
-8.55054
-8.57435
-8.59457
-8.6111
-8.62386
-8.63275
-8.63769
-8.6386
-8.63542
-8.62807
-8.61648
-8.60058
-8.58031
-8.5556
-8.52639
-8.49264
-8.4543
-8.4113
-8.36358
-8.311
-8.25353
-8.19109
-8.12367
-8.0512
-7.9736
-7.89081
-7.80271
-7.70925
-7.61031
-7.50586
-7.39584
-7.28024
-7.15896
-7.03197
-6.89919
-6.76061
-6.61617
-6.46587
-6.30968
-6.14763
-5.9797
-5.80596
-5.62642
-5.44117
-5.25029
-5.05386
-4.85202
-4.64489
-4.43263
-4.2154
-3.99341
-3.76683
-3.53593
-3.30089
-3.062
-2.81948
-2.57365
-2.32475
-2.07311
-1.81899
-1.56265
-1.30434
-1.04436
-0.78302
-0.520659
-0.257539
0.00606327
0.269948
0.533876
0.797594
1.06083
1.32337
1.58501
1.84556
2.10486
2.36276
2.61913
2.87383
3.12671
3.37766
3.62655
3.87328
4.11773
4.3598
4.5994
4.83644
5.07084
5.30255
5.53148
5.75761
5.98087
6.20123
6.41861
6.63296
6.84423
7.05233
7.25722
7.45881
7.65704
7.85184
8.04314
8.23087
8.41497
8.59537
8.7721
8.94505
9.11489
9.27928
9.44767
9.58357
-7.43944
-7.43852
-7.43907
-7.44372
-7.45141
-7.46014
-7.46898
-7.47743
-7.4852
-7.49219
-7.49843
-7.50388
-7.50849
-7.5122
-7.51492
-7.5166
-7.51719
-7.51663
-7.51493
-7.51205
-7.50802
-7.50285
-7.49657
-7.48916
-7.48063
-7.47109
-7.46068
-7.44961
-7.43829
-7.42742
-7.41786
-7.41093
-7.40762
-7.40761
-7.40939
-7.41185
-7.41502
-7.41931
-7.42503
-7.43206
-7.44078
-7.45248
-7.46815
-7.48784
-7.51125
-7.53799
-7.56773
-7.6001
-7.63487
-7.67184
-7.71087
-7.75187
-7.79475
-7.83936
-7.88553
-7.93295
-7.9813
-8.03018
-8.07921
-8.128
-8.17615
-8.22331
-8.26911
-8.31326
-8.35546
-8.39548
-8.43308
-8.46806
-8.50025
-8.52947
-8.55556
-8.57837
-8.59778
-8.61365
-8.62587
-8.63434
-8.63895
-8.63962
-8.63627
-8.62881
-8.61718
-8.6013
-8.5811
-8.55651
-8.52748
-8.49395
-8.45588
-8.41321
-8.36583
-8.31369
-8.25667
-8.19476
-8.1279
-8.05602
-7.97906
-7.89691
-7.8095
-7.71674
-7.61856
-7.51489
-7.40569
-7.2909
-7.17045
-7.04428
-6.91235
-6.77461
-6.63102
-6.48157
-6.32622
-6.165
-5.9979
-5.82496
-5.64621
-5.46173
-5.27159
-5.07589
-4.87474
-4.66827
-4.45664
-4.24002
-4.01859
-3.79255
-3.56214
-3.32758
-3.08912
-2.84701
-2.60156
-2.35302
-2.1017
-1.84786
-1.59176
-1.33367
-1.0739
-0.81278
-0.550616
-0.287663
-0.0241896
0.23958
0.503387
0.76698
1.0301
1.29254
1.55408
1.81457
2.07381
2.33168
2.58802
2.84269
3.09555
3.34648
3.59536
3.84208
4.08653
4.32862
4.56823
4.80529
5.03972
5.27146
5.50045
5.72663
5.94995
6.17037
6.38782
6.60225
6.8136
7.02179
7.22676
7.42844
7.62676
7.82165
8.01304
8.20086
8.38504
8.5655
8.74222
8.91503
9.08452
9.24786
9.41534
9.54448
-7.44482
-7.44438
-7.44724
-7.45471
-7.46378
-7.47278
-7.48136
-7.48936
-7.49672
-7.50341
-7.50938
-7.51455
-7.51885
-7.52219
-7.52451
-7.52576
-7.52589
-7.52488
-7.5227
-7.51935
-7.51486
-7.50923
-7.50238
-7.49426
-7.485
-7.4748
-7.4639
-7.45256
-7.4413
-7.43094
-7.42265
-7.41718
-7.41389
-7.41187
-7.4112
-7.41242
-7.41617
-7.42228
-7.43068
-7.44209
-7.45705
-7.47549
-7.49721
-7.52199
-7.54955
-7.57956
-7.61181
-7.64613
-7.68235
-7.72028
-7.75976
-7.80066
-7.84284
-7.88618
-7.93051
-7.97563
-8.02129
-8.06725
-8.11321
-8.15889
-8.20399
-8.24821
-8.29126
-8.33287
-8.37278
-8.41074
-8.44654
-8.47995
-8.51077
-8.53882
-8.56391
-8.58587
-8.60456
-8.61981
-8.63152
-8.63954
-8.64379
-8.64416
-8.64056
-8.63291
-8.62114
-8.60517
-8.58493
-8.56036
-8.53139
-8.49797
-8.46005
-8.41757
-8.37047
-8.3186
-8.26194
-8.20042
-8.134
-8.06259
-7.98612
-7.90449
-7.81763
-7.72544
-7.62788
-7.52484
-7.41629
-7.30214
-7.18237
-7.05686
-6.9256
-6.78851
-6.6456
-6.49679
-6.3421
-6.1815
-6.01502
-5.84267
-5.66451
-5.48057
-5.29096
-5.09575
-4.89506
-4.68904
-4.47781
-4.26156
-4.04047
-3.81475
-3.58462
-3.35032
-3.11208
-2.8702
-2.62492
-2.37657
-2.12539
-1.87166
-1.61564
-1.35766
-1.09799
-0.836986
-0.574911
-0.312046
-0.0486288
0.215064
0.478794
0.742286
1.00532
1.26766
1.52913
1.78954
2.04873
2.30653
2.56281
2.8174
3.0702
3.32106
3.56988
3.81654
4.06094
4.30296
4.54252
4.77953
5.01392
5.24562
5.47458
5.70074
5.92407
6.1445
6.36197
6.57642
6.78779
6.996
7.201
7.40272
7.60108
7.79602
7.98745
8.17531
8.35949
8.53992
8.71654
8.88909
9.05807
9.22028
9.38689
9.50976
-7.44901
-7.4499
-7.45551
-7.46407
-7.47278
-7.48114
-7.48913
-7.49671
-7.50378
-7.51026
-7.51604
-7.52102
-7.52512
-7.52825
-7.53036
-7.53138
-7.53128
-7.53003
-7.52762
-7.52405
-7.51935
-7.51341
-7.50616
-7.49777
-7.48849
-7.47847
-7.46794
-7.45739
-7.44759
-7.43927
-7.43272
-7.42729
-7.42251
-7.41914
-7.41809
-7.41971
-7.42454
-7.43302
-7.44519
-7.46092
-7.4799
-7.50195
-7.5268
-7.55416
-7.58382
-7.61555
-7.64916
-7.68447
-7.72132
-7.75953
-7.79897
-7.83951
-7.88102
-7.92338
-7.96643
-8.01
-8.05391
-8.09796
-8.14193
-8.18557
-8.22864
-8.2709
-8.31208
-8.35195
-8.39027
-8.42679
-8.4613
-8.49357
-8.52338
-8.55053
-8.57484
-8.5961
-8.61417
-8.62888
-8.64009
-8.64768
-8.65153
-8.65154
-8.64764
-8.63972
-8.62773
-8.61159
-8.59122
-8.56656
-8.53755
-8.50413
-8.46626
-8.42388
-8.3769
-8.32525
-8.26883
-8.20759
-8.14148
-8.07043
-7.99433
-7.91311
-7.82667
-7.73495
-7.63785
-7.53532
-7.42726
-7.31364
-7.19436
-7.06938
-6.93863
-6.80206
-6.65964
-6.51133
-6.35711
-6.19698
-6.03094
-5.85901
-5.68124
-5.49768
-5.3084
-5.1135
-4.91309
-4.70731
-4.4963
-4.28024
-4.05931
-3.83372
-3.60369
-3.36946
-3.13129
-2.88945
-2.64422
-2.39589
-2.14471
-1.89096
-1.63492
-1.37692
-1.11727
-0.856282
-0.59422
-0.331361
-0.0679555
0.195706
0.45938
0.722804
0.985763
1.24803
1.50943
1.76976
2.02887
2.28659
2.54277
2.79727
3.04996
3.30071
3.54943
3.79599
4.04029
4.2822
4.52164
4.75854
4.99282
5.22443
5.45331
5.67941
5.90268
6.12307
6.3405
6.55493
6.76626
6.97446
7.17944
7.38116
7.57952
7.77447
7.96592
8.15377
8.33793
8.51828
8.69473
8.86693
9.03536
9.19644
9.36225
9.4795
-7.45029
-7.45291
-7.46012
-7.46835
-7.47636
-7.4842
-7.49184
-7.49917
-7.50609
-7.51247
-7.51819
-7.52314
-7.5272
-7.53031
-7.5324
-7.5334
-7.5333
-7.53206
-7.52967
-7.52612
-7.52137
-7.51535
-7.50816
-7.50007
-7.49125
-7.48197
-7.47269
-7.46391
-7.45602
-7.44896
-7.44252
-7.4366
-7.43161
-7.42858
-7.42839
-7.4316
-7.4386
-7.44942
-7.46378
-7.48153
-7.50238
-7.52606
-7.55232
-7.58089
-7.61155
-7.6441
-7.67833
-7.71408
-7.75117
-7.78946
-7.82882
-7.86912
-7.91022
-7.952
-7.9943
-8.037
-8.07992
-8.12288
-8.16569
-8.20814
-8.25003
-8.29112
-8.33119
-8.37001
-8.40735
-8.44298
-8.47667
-8.50819
-8.53733
-8.56385
-8.58757
-8.60829
-8.62584
-8.64007
-8.65081
-8.65795
-8.66137
-8.66098
-8.6567
-8.64846
-8.63617
-8.61977
-8.59918
-8.57434
-8.54518
-8.51167
-8.47376
-8.43139
-8.38449
-8.33293
-8.27667
-8.21562
-8.14973
-8.07893
-8.0031
-7.92218
-7.83606
-7.74469
-7.64794
-7.54579
-7.43811
-7.32488
-7.20598
-7.0814
-6.95102
-6.81485
-6.67279
-6.52485
-6.37097
-6.21117
-6.04542
-5.87378
-5.69625
-5.5129
-5.32381
-5.12907
-4.92879
-4.7231
-4.51216
-4.29612
-4.07521
-3.84959
-3.61952
-3.38522
-3.14699
-2.90506
-2.65975
-2.4113
-2.16002
-1.90613
-1.65
-1.39192
-1.13223
-0.871173
-0.609072
-0.346162
-0.0827515
0.180908
0.444534
0.707911
0.970796
1.23299
1.4943
1.75455
2.01356
2.27117
2.52723
2.78161
3.03414
3.28475
3.53332
3.77975
4.02389
4.26564
4.50492
4.74167
4.9758
5.20726
5.43601
5.66199
5.88517
6.10549
6.32286
6.53721
6.74849
6.95663
7.16158
7.36325
7.56161
7.75655
7.94799
8.1358
8.3199
8.50013
8.67637
8.84819
9.01603
9.17602
9.34111
9.45348
-7.44709
-7.45115
-7.4585
-7.46615
-7.47382
-7.48147
-7.489
-7.49631
-7.50327
-7.50974
-7.5156
-7.52072
-7.52498
-7.52829
-7.53058
-7.53179
-7.53187
-7.53079
-7.52855
-7.52511
-7.52048
-7.51469
-7.50792
-7.50047
-7.4926
-7.48465
-7.47686
-7.4693
-7.46204
-7.45518
-7.44886
-7.44346
-7.43963
-7.43811
-7.43952
-7.44425
-7.45254
-7.46444
-7.47979
-7.49841
-7.52005
-7.54442
-7.57127
-7.60035
-7.63143
-7.66433
-7.69885
-7.73482
-7.77208
-7.8105
-7.84992
-7.8902
-7.93121
-7.97283
-8.01491
-8.05731
-8.09986
-8.14241
-8.18477
-8.22675
-8.26814
-8.30874
-8.34833
-8.38669
-8.42359
-8.4588
-8.49209
-8.52321
-8.55193
-8.57804
-8.60132
-8.62159
-8.63868
-8.65242
-8.66268
-8.66934
-8.67229
-8.67146
-8.66676
-8.65813
-8.64549
-8.62877
-8.60789
-8.5828
-8.55343
-8.51976
-8.48174
-8.43931
-8.39238
-8.34089
-8.28468
-8.22374
-8.158
-8.08735
-8.01172
-7.931
-7.84512
-7.75397
-7.6575
-7.55561
-7.44823
-7.33528
-7.21669
-7.09238
-6.9623
-6.8264
-6.68461
-6.53692
-6.38329
-6.2237
-6.05815
-5.88666
-5.70927
-5.52603
-5.33701
-5.14231
-4.94204
-4.73633
-4.52533
-4.30922
-4.08818
-3.86244
-3.63222
-3.39776
-3.15934
-2.91724
-2.67175
-2.42311
-2.17162
-1.91756
-1.66128
-1.40308
-1.14327
-0.882114
-0.619921
-0.356947
-0.093506
0.170148
0.433745
0.697072
0.959892
1.22201
1.48323
1.74337
2.00226
2.25974
2.51564
2.76984
3.0222
3.27262
3.52102
3.76728
4.01123
4.25277
4.49184
4.72837
4.9623
5.19358
5.42215
5.64798
5.87104
6.09125
6.30852
6.52278
6.73397
6.94202
7.1469
7.34853
7.54684
7.74176
7.93317
8.12094
8.30494
8.48502
8.66101
8.83243
8.99968
9.15864
9.32305
9.43128
-7.43741
-7.44213
-7.44915
-7.45677
-7.46463
-7.47247
-7.48019
-7.48771
-7.49493
-7.50171
-7.50791
-7.51337
-7.51798
-7.52161
-7.5242
-7.52569
-7.52603
-7.52522
-7.52323
-7.5201
-7.51587
-7.5107
-7.50478
-7.4983
-7.49142
-7.4843
-7.4771
-7.46993
-7.46293
-7.4564
-7.45074
-7.4464
-7.44384
-7.44359
-7.44619
-7.45197
-7.46113
-7.47372
-7.48965
-7.50873
-7.53072
-7.55537
-7.58245
-7.61174
-7.64303
-7.67613
-7.71087
-7.74708
-7.7846
-7.82328
-7.86295
-7.90349
-7.94477
-7.98664
-8.02895
-8.07156
-8.1143
-8.15701
-8.19951
-8.24161
-8.2831
-8.32376
-8.36338
-8.40173
-8.43859
-8.47372
-8.50687
-8.53782
-8.56633
-8.59216
-8.61511
-8.635
-8.65166
-8.66493
-8.67468
-8.68081
-8.68325
-8.68192
-8.67674
-8.66767
-8.65462
-8.63752
-8.6163
-8.5909
-8.56126
-8.52735
-8.48916
-8.44661
-8.39964
-8.34809
-8.29191
-8.23101
-8.16534
-8.09478
-8.01928
-7.9387
-7.85298
-7.762
-7.66573
-7.56403
-7.45688
-7.34413
-7.22578
-7.10168
-6.97183
-6.83612
-6.69455
-6.54703
-6.39358
-6.23412
-6.0687
-5.89729
-5.71997
-5.53675
-5.34773
-5.15299
-4.95265
-4.74684
-4.53571
-4.31944
-4.09821
-3.87227
-3.64182
-3.40715
-3.1685
-2.92618
-2.68043
-2.43157
-2.17982
-1.92557
-1.6691
-1.41076
-1.15079
-0.88953
-0.627228
-0.364208
-0.100734
0.162894
0.426463
0.689722
0.952472
1.21449
1.47561
1.73562
1.99437
2.25167
2.50739
2.76138
3.01352
3.26371
3.51191
3.75796
4.00168
4.24298
4.48179
4.71807
4.95176
5.18281
5.41118
5.63683
5.85975
6.07985
6.297
6.51114
6.72221
6.93017
7.13497
7.33654
7.53481
7.72971
7.92108
8.10878
8.29268
8.47258
8.64831
8.81931
8.98598
9.14398
9.30773
9.41259
-7.41961
-7.42431
-7.43149
-7.43989
-7.44845
-7.45677
-7.46486
-7.47273
-7.48037
-7.48765
-7.49436
-7.50031
-7.50535
-7.5094
-7.51239
-7.51427
-7.51502
-7.51464
-7.51314
-7.51057
-7.507
-7.50255
-7.49734
-7.49151
-7.4852
-7.47853
-7.47163
-7.46474
-7.45815
-7.45221
-7.44724
-7.44367
-7.442
-7.44272
-7.44624
-7.45285
-7.46272
-7.47587
-7.4922
-7.51155
-7.53373
-7.55851
-7.5857
-7.61512
-7.64658
-7.67991
-7.71493
-7.75148
-7.78938
-7.8285
-7.86869
-7.9098
-7.9517
-7.99422
-8.03719
-8.08045
-8.12382
-8.16715
-8.21022
-8.25286
-8.29484
-8.33595
-8.37598
-8.41467
-8.4518
-8.48712
-8.52038
-8.55134
-8.57975
-8.60538
-8.62803
-8.64753
-8.66372
-8.67646
-8.68561
-8.6911
-8.69291
-8.69097
-8.68524
-8.67567
-8.66216
-8.64465
-8.62304
-8.59726
-8.56725
-8.53305
-8.49466
-8.452
-8.40492
-8.35336
-8.29715
-8.23627
-8.17063
-8.10016
-8.02474
-7.94428
-7.85867
-7.76784
-7.67171
-7.5702
-7.46321
-7.35068
-7.2325
-7.1086
-6.97892
-6.8434
-6.70198
-6.55462
-6.40129
-6.24195
-6.07661
-5.90526
-5.72795
-5.54472
-5.35566
-5.16084
-4.9604
-4.75446
-4.54317
-4.32671
-4.10529
-3.87913
-3.64846
-3.41356
-3.17468
-2.93212
-2.68613
-2.43701
-2.18504
-1.93057
-1.67392
-1.41539
-1.15527
-0.89388
-0.631491
-0.368427
-0.104954
0.158648
0.422166
0.685352
0.948007
1.20992
1.4709
1.73076
1.98932
2.24642
2.50191
2.75565
3.00754
3.25747
3.50548
3.75133
3.99478
4.23577
4.47429
4.71028
4.94369
5.17449
5.40264
5.62808
5.85085
6.07084
6.28785
6.50184
6.71278
6.92063
7.12533
7.32683
7.52507
7.71995
7.91129
8.09892
8.28269
8.46242
8.63787
8.80845
8.97456
9.13168
9.29476
9.39697
-7.39326
-7.39778
-7.4059
-7.41572
-7.4253
-7.4342
-7.44272
-7.45112
-7.45947
-7.46753
-7.47498
-7.48159
-7.48719
-7.49175
-7.49524
-7.49765
-7.49896
-7.49916
-7.49826
-7.49631
-7.49337
-7.48953
-7.48486
-7.47948
-7.47351
-7.46711
-7.46051
-7.45397
-7.44776
-7.44221
-7.43775
-7.43482
-7.43391
-7.43541
-7.4397
-7.447
-7.45743
-7.47098
-7.48757
-7.50707
-7.52931
-7.55415
-7.58141
-7.61096
-7.64263
-7.67627
-7.7117
-7.74875
-7.78724
-7.82703
-7.86796
-7.9099
-7.95266
-7.9961
-8.04001
-8.08425
-8.1286
-8.17289
-8.21689
-8.2604
-8.30319
-8.34505
-8.38574
-8.42502
-8.46263
-8.49832
-8.53184
-8.56289
-8.5912
-8.61652
-8.63869
-8.65759
-8.67313
-8.68513
-8.69346
-8.69812
-8.69915
-8.69653
-8.69021
-8.68015
-8.66623
-8.64833
-8.62635
-8.60017
-8.56972
-8.53515
-8.49657
-8.45383
-8.40675
-8.35513
-8.29893
-8.23807
-8.17248
-8.10211
-8.02679
-7.94645
-7.86096
-7.77027
-7.67429
-7.57297
-7.46617
-7.35384
-7.23584
-7.11214
-6.98263
-6.8473
-6.70604
-6.55887
-6.40567
-6.24646
-6.08119
-5.90991
-5.7326
-5.54936
-5.36025
-5.16537
-4.96485
-4.75879
-4.54738
-4.33076
-4.10918
-3.88283
-3.65199
-3.4169
-3.17784
-2.93506
-2.68887
-2.43953
-2.18739
-1.93274
-1.67591
-1.41719
-1.15696
-0.895475
-0.633069
-0.370006
-0.106598
0.156939
0.420345
0.683417
0.945921
1.20767
1.46847
1.72812
1.98645
2.24329
2.49849
2.75194
3.00351
3.25317
3.50104
3.74676
3.9899
4.23057
4.46875
4.70443
4.93755
5.16809
5.39599
5.62124
5.8439
6.0638
6.28068
6.49452
6.70532
6.91305
7.11766
7.3191
7.51731
7.71219
7.90351
8.09105
8.2747
8.45424
8.62942
8.7996
8.96516
9.12147
9.28384
9.38412
-7.35957
-7.36441
-7.37408
-7.38573
-7.39643
-7.40608
-7.41539
-7.42451
-7.43356
-7.44253
-7.45107
-7.45869
-7.465
-7.47006
-7.47406
-7.47705
-7.47897
-7.47979
-7.4795
-7.47814
-7.47573
-7.47234
-7.46803
-7.46294
-7.45722
-7.45105
-7.44464
-7.43828
-7.4323
-7.42709
-7.42309
-7.42072
-7.42043
-7.42256
-7.42741
-7.43516
-7.44591
-7.45964
-7.47632
-7.49584
-7.51809
-7.54294
-7.57027
-7.59994
-7.63183
-7.66579
-7.70165
-7.73925
-7.77843
-7.81903
-7.86089
-7.90384
-7.94769
-7.99227
-8.03737
-8.08282
-8.1284
-8.17388
-8.21904
-8.26363
-8.30741
-8.35013
-8.39157
-8.43145
-8.46952
-8.50551
-8.53912
-8.57006
-8.598
-8.62268
-8.64402
-8.66204
-8.67666
-8.68768
-8.69482
-8.69832
-8.69847
-8.69523
-8.6885
-8.67816
-8.66406
-8.646
-8.62384
-8.59741
-8.56651
-8.53153
-8.49282
-8.45008
-8.40295
-8.35132
-8.29508
-8.23422
-8.16871
-8.09842
-8.02322
-7.94295
-7.85755
-7.76695
-7.67111
-7.56994
-7.46334
-7.35118
-7.23337
-7.10982
-6.98048
-6.8453
-6.70423
-6.55721
-6.40418
-6.2451
-6.07994
-5.90872
-5.73147
-5.54827
-5.35918
-5.1643
-4.96373
-4.75761
-4.54609
-4.32935
-4.10761
-3.8811
-3.65008
-3.4148
-3.17553
-2.93255
-2.68617
-2.43669
-2.18446
-1.92978
-1.67296
-1.41426
-1.15404
-0.892614
-0.630312
-0.367404
-0.104183
0.159139
0.422301
0.685101
0.947313
1.20875
1.46919
1.72847
1.98639
2.24279
2.49754
2.7505
3.00157
3.25077
3.49835
3.74382
3.98657
4.22682
4.46462
4.69996
4.93277
5.16302
5.39067
5.61571
5.83834
6.05828
6.27506
6.48873
6.69939
6.90702
7.11156
7.31295
7.51117
7.70611
7.89744
8.0849
8.26843
8.44778
8.6227
8.79249
8.95754
9.1131
9.27471
9.37374
-7.32158
-7.32734
-7.3391
-7.353
-7.3649
-7.37485
-7.38457
-7.39477
-7.40511
-7.41523
-7.42483
-7.43347
-7.44059
-7.44619
-7.45068
-7.45424
-7.45675
-7.45815
-7.45841
-7.45752
-7.45551
-7.45245
-7.4484
-7.4435
-7.43788
-7.43176
-7.42541
-7.41915
-7.41334
-7.40841
-7.40475
-7.40277
-7.40286
-7.40531
-7.41038
-7.41822
-7.42894
-7.44255
-7.45904
-7.47835
-7.5004
-7.5251
-7.55237
-7.58209
-7.61416
-7.64841
-7.68469
-7.72287
-7.76279
-7.80429
-7.84717
-7.89127
-7.93636
-7.98224
-8.02869
-8.07548
-8.12235
-8.16904
-8.21528
-8.26082
-8.30541
-8.34878
-8.39069
-8.43088
-8.46908
-8.50501
-8.53838
-8.56883
-8.59595
-8.6194
-8.63935
-8.65611
-8.66965
-8.67945
-8.68487
-8.68659
-8.68559
-8.68178
-8.6749
-8.66465
-8.65074
-8.63288
-8.61097
-8.58502
-8.55505
-8.521
-8.4828
-8.44022
-8.39316
-8.34147
-8.2852
-8.22431
-8.1588
-8.08851
-8.0133
-7.93299
-7.84756
-7.75693
-7.66111
-7.55995
-7.45341
-7.34129
-7.22354
-7.10003
-6.97078
-6.83566
-6.6947
-6.54775
-6.39482
-6.23579
-6.07069
-5.89951
-5.72231
-5.53913
-5.35004
-5.15514
-4.95453
-4.74834
-4.53672
-4.31986
-4.09796
-3.87129
-3.64008
-3.40462
-3.16514
-2.92198
-2.67542
-2.42584
-2.17353
-1.91885
-1.66205
-1.40344
-1.14331
-0.882017
-0.61987
-0.3572
-0.094217
0.168798
0.431642
0.694067
0.955888
1.21688
1.47686
1.73562
1.99299
2.2488
2.50291
2.75518
3.0055
3.25378
3.49996
3.74403
3.98591
4.22551
4.46276
4.69758
4.92992
5.15972
5.38694
5.61159
5.83403
6.05392
6.27054
6.48404
6.69456
6.90209
7.10657
7.30795
7.50625
7.70139
7.89281
8.08022
8.26364
8.44283
8.61751
8.78694
8.95152
9.10638
9.2672
9.36563
-7.28297
-7.28999
-7.30433
-7.32021
-7.33245
-7.34288
-7.35371
-7.36507
-7.3765
-7.38768
-7.39831
-7.40789
-7.41578
-7.42202
-7.42711
-7.43128
-7.43437
-7.43631
-7.43703
-7.43654
-7.43483
-7.43196
-7.42799
-7.42309
-7.41741
-7.41121
-7.40478
-7.39845
-7.39262
-7.38766
-7.38398
-7.38193
-7.38187
-7.38407
-7.38879
-7.39617
-7.40635
-7.41935
-7.43522
-7.45394
-7.4755
-7.49984
-7.52692
-7.55664
-7.58886
-7.62345
-7.66024
-7.69912
-7.73991
-7.78241
-7.82642
-7.87169
-7.918
-7.96511
-8.01277
-8.0607
-8.10861
-8.1562
-8.2032
-8.24933
-8.29433
-8.33794
-8.37991
-8.42
-8.45794
-8.49349
-8.52633
-8.55601
-8.58175
-8.60292
-8.62015
-8.63482
-8.64724
-8.65685
-8.66301
-8.66545
-8.66446
-8.66037
-8.65326
-8.64287
-8.62889
-8.611
-8.58916
-8.5636
-8.53455
-8.50144
-8.46368
-8.42129
-8.37428
-8.3227
-8.26651
-8.20572
-8.14024
-8.06999
-7.99477
-7.9145
-7.82908
-7.73853
-7.64276
-7.54169
-7.43521
-7.3232
-7.20553
-7.08216
-6.95303
-6.81809
-6.67726
-6.53048
-6.37769
-6.21883
-6.05387
-5.88282
-5.70573
-5.52264
-5.33362
-5.13877
-4.9382
-4.73203
-4.52041
-4.30353