/*--------------------------------*- C++ -*----------------------------------*\
  =========                 |
  \\      /  F ield         | OpenFOAM: The Open Source CFD Toolbox
   \\    /   O peration     | Website:  https://openfoam.org
    \\  /    A nd           | Version:  8
     \\/     M anipulation  |
\*---------------------------------------------------------------------------*/
FoamFile
{
    version     2.0;
    format      ascii;
    class       volVectorField;
    location    "1900";
    object      U;
}
// * * * * * * * * * * * * * * * * * * * * * * * * * * * * * * * * * * * * * //

dimensions      [0 1 -1 0 0 0 0];

internalField   nonuniform List<vector> 
12225
(
(9.77854 0.0534196 0)
(9.33764 0.0915409 0)
(8.92127 0.0903408 0)
(8.53516 0.0858523 0)
(8.18907 0.070324 0)
(7.90316 0.0639614 0)
(7.65522 0.0686584 0)
(7.44046 0.0582054 0)
(7.27134 0.0465496 0)
(7.12779 0.0301315 0)
(7.0118 0.0143085 0)
(6.91561 0.0120623 0)
(6.83034 0.00804012 0)
(6.75732 0.000692078 0)
(6.69949 -0.000296533 0)
(6.64721 -0.00156616 0)
(6.61329 -0.00391843 0)
(6.59732 -0.000792756 0)
(10.0754 0.0548352 0)
(10.2181 0.0862132 0)
(10.2842 0.0859198 0)
(10.2969 0.0830212 0)
(10.2706 0.0819362 0)
(10.2256 0.0771645 0)
(10.1489 0.0691146 0)
(10.064 0.0634116 0)
(9.96758 0.0591045 0)
(9.87251 0.0561007 0)
(9.78822 0.0516317 0)
(9.70964 0.0456549 0)
(9.63178 0.0420451 0)
(9.56163 0.039644 0)
(9.49211 0.0351289 0)
(9.42941 0.030362 0)
(9.3643 0.0221448 0)
(9.3057 0.0137801 0)
(10.0191 0.0432729 0)
(10.0748 0.068006 0)
(10.1248 0.0714241 0)
(10.1578 0.0755354 0)
(10.1862 0.0789303 0)
(10.2094 0.0802465 0)
(10.2262 0.0810669 0)
(10.236 0.0788742 0)
(10.2375 0.0749288 0)
(10.2323 0.0699224 0)
(10.222 0.0656786 0)
(10.2084 0.0635398 0)
(10.1933 0.0609773 0)
(10.1773 0.0577784 0)
(10.1598 0.0548993 0)
(10.1432 0.0508947 0)
(10.123 0.044325 0)
(10.1029 0.037134 0)
(10.0086 0.0308971 0)
(10.0423 0.0562162 0)
(10.0731 0.0645304 0)
(10.0933 0.0694941 0)
(10.1111 0.0724996 0)
(10.1283 0.0736523 0)
(10.1447 0.0738239 0)
(10.1597 0.072109 0)
(10.1724 0.069441 0)
(10.1822 0.0656211 0)
(10.1888 0.061823 0)
(10.1933 0.0594261 0)
(10.197 0.0572919 0)
(10.1996 0.0548973 0)
(10.2015 0.0521356 0)
(10.2029 0.0487174 0)
(10.2026 0.0440488 0)
(10.2012 0.0394077 0)
(10.0052 0.0243588 0)
(10.0299 0.0494376 0)
(10.0538 0.0594587 0)
(10.0705 0.064323 0)
(10.0846 0.067284 0)
(10.0982 0.0686402 0)
(10.1112 0.0688387 0)
(10.1234 0.0675768 0)
(10.1344 0.0653955 0)
(10.1438 0.0623688 0)
(10.1516 0.0593108 0)
(10.1582 0.0569903 0)
(10.1645 0.0548413 0)
(10.1704 0.0525488 0)
(10.1758 0.0499724 0)
(10.1807 0.0468219 0)
(10.1846 0.0428169 0)
(10.1876 0.0386691 0)
(10.0034 0.0193424 0)
(10.0219 0.042702 0)
(10.0422 0.0537691 0)
(10.0578 0.0590957 0)
(10.0706 0.0624332 0)
(10.0829 0.0640725 0)
(10.0945 0.0643224 0)
(10.1052 0.0632543 0)
(10.1148 0.06131 0)
(10.1233 0.0587264 0)
(10.1307 0.0560979 0)
(10.1374 0.0538619 0)
(10.1437 0.0517089 0)
(10.1498 0.0494368 0)
(10.1556 0.0468903 0)
(10.161 0.0438863 0)
(10.1656 0.0403606 0)
(10.1695 0.036654 0)
(10.0023 0.0154168 0)
(10.016 0.0363125 0)
(10.0334 0.0478401 0)
(10.0482 0.0537321 0)
(10.0605 0.0574393 0)
(10.0721 0.0593286 0)
(10.0829 0.0597088 0)
(10.0929 0.0588652 0)
(10.1018 0.0571779 0)
(10.1098 0.0549461 0)
(10.1169 0.0526146 0)
(10.1234 0.0504477 0)
(10.1296 0.0482875 0)
(10.1355 0.0460253 0)
(10.1411 0.0435391 0)
(10.1463 0.0407174 0)
(10.1509 0.0375551 0)
(10.155 0.0342289 0)
(10.0016 0.0127301 0)
(10.0125 0.0317513 0)
(10.0277 0.0431086 0)
(10.0415 0.0491969 0)
(10.0534 0.0530338 0)
(10.0645 0.0550296 0)
(10.0749 0.0555017 0)
(10.0844 0.054846 0)
(10.0929 0.0534034 0)
(10.1006 0.0514837 0)
(10.1075 0.0494107 0)
(10.114 0.0473636 0)
(10.12 0.0452512 0)
(10.1258 0.0430338 0)
(10.1312 0.0406258 0)
(10.1363 0.0379584 0)
(10.1408 0.0350414 0)
(10.1448 0.0319787 0)
(10.0012 0.010685 0)
(10.0099 0.027648 0)
(10.0231 0.0387034 0)
(10.0359 0.0449154 0)
(10.0473 0.0489108 0)
(10.058 0.0510872 0)
(10.0681 0.051754 0)
(10.0774 0.0513112 0)
(10.0858 0.0500788 0)
(10.0933 0.0483548 0)
(10.1002 0.0464193 0)
(10.1065 0.0444329 0)
(10.1125 0.042358 0)
(10.1181 0.0401849 0)
(10.1233 0.0378452 0)
(10.1282 0.0353127 0)
(10.1325 0.0325984 0)
(10.1365 0.0297781 0)
(10.0009 0.00889364 0)
(10.0078 0.0237148 0)
(10.0189 0.0341826 0)
(10.0305 0.0403327 0)
(10.0412 0.0443634 0)
(10.0515 0.0466538 0)
(10.0612 0.0474934 0)
(10.0702 0.0472553 0)
(10.0784 0.0462469 0)
(10.0859 0.0447352 0)
(10.0927 0.0429674 0)
(10.0989 0.0410776 0)
(10.1047 0.039083 0)
(10.1102 0.036977 0)
(10.1153 0.0347384 0)
(10.1199 0.0323588 0)
(10.1242 0.029848 0)
(10.128 0.0272644 0)
(10.0007 0.00732199 0)
(10.006 0.020012 0)
(10.0153 0.0296309 0)
(10.0255 0.0355176 0)
(10.0354 0.0394225 0)
(10.045 0.0417249 0)
(10.0543 0.042685 0)
(10.0629 0.0426302 0)
(10.0709 0.0418397 0)
(10.0782 0.0405574 0)
(10.0849 0.0389827 0)
(10.091 0.0372345 0)
(10.0967 0.0353539 0)
(10.102 0.0333602 0)
(10.1069 0.0312556 0)
(10.1115 0.0290411 0)
(10.1155 0.0267372 0)
(10.1193 0.0243892 0)
(10.0005 0.00592523 0)
(10.0047 0.0164956 0)
(10.0123 0.0250551 0)
(10.0212 0.0304966 0)
(10.0301 0.0341429 0)
(10.039 0.0363563 0)
(10.0475 0.0373722 0)
(10.0557 0.0374557 0)
(10.0634 0.0368598 0)
(10.0704 0.0357905 0)
(10.0769 0.0344149 0)
(10.0829 0.0328376 0)
(10.0885 0.0311087 0)
(10.0936 0.0292657 0)
(10.0984 0.0273216 0)
(10.1028 0.025297 0)
(10.1067 0.023211 0)
(10.1104 0.021099 0)
(10.0004 0.00467608 0)
(10.0037 0.0132159 0)
(10.0098 0.0205221 0)
(10.0175 0.02534 0)
(10.0254 0.0286014 0)
(10.0334 0.0306247 0)
(10.0413 0.0316105 0)
(10.0489 0.0317738 0)
(10.0561 0.0313255 0)
(10.0628 0.0304386 0)
(10.0691 0.0292519 0)
(10.0749 0.0278516 0)
(10.0803 0.0263001 0)
(10.0852 0.0246321 0)
(10.0898 0.0228798 0)
(10.0941 0.0210645 0)
(10.0979 0.0192043 0)
(10.1015 0.0173423 0)
(10.0003 0.00355144 0)
(10.0029 0.0101575 0)
(10.0079 0.0160674 0)
(10.0144 0.0200858 0)
(10.0214 0.0228426 0)
(10.0286 0.0245701 0)
(10.0358 0.0254362 0)
(10.0428 0.0256119 0)
(10.0495 0.0252557 0)
(10.0559 0.0245147 0)
(10.0618 0.0234943 0)
(10.0673 0.0222734 0)
(10.0725 0.0209066 0)
(10.0773 0.0194356 0)
(10.0817 0.0178908 0)
(10.0858 0.016298 0)
(10.0895 0.0146751 0)
(10.0929 0.0130605 0)
(10.0002 0.00251535 0)
(10.0023 0.00728021 0)
(10.0064 0.0116959 0)
(10.012 0.0147631 0)
(10.0182 0.0168845 0)
(10.0246 0.0182081 0)
(10.0312 0.0188621 0)
(10.0376 0.0189679 0)
(10.0438 0.0186458 0)
(10.0497 0.0180043 0)
(10.0553 0.0171247 0)
(10.0606 0.0160735 0)
(10.0655 0.0148943 0)
(10.0701 0.013628 0)
(10.0743 0.0123012 0)
(10.0783 0.0109383 0)
(10.0819 0.00955816 0)
(10.0852 0.00819106 0)
(10.0002 0.00153757 0)
(10.0019 0.00451406 0)
(10.0054 0.00737433 0)
(10.0102 0.00935225 0)
(10.0157 0.0107051 0)
(10.0215 0.0115153 0)
(10.0275 0.0118538 0)
(10.0334 0.0118077 0)
(10.0392 0.0114522 0)
(10.0447 0.0108617 0)
(10.05 0.0100931 0)
(10.055 0.00919284 0)
(10.0597 0.00819694 0)
(10.0641 0.00713482 0)
(10.0682 0.00602945 0)
(10.072 0.00490087 0)
(10.0755 0.00376376 0)
(10.0787 0.00264677 0)
(10.0002 0.000577558 0)
(10.0017 0.00176418 0)
(10.0047 0.00300486 0)
(10.009 0.00376135 0)
(10.014 0.00422656 0)
(10.0194 0.00440097 0)
(10.0249 0.00433096 0)
(10.0305 0.00404396 0)
(10.0359 0.00359158 0)
(10.0412 0.00299899 0)
(10.0462 0.00230812 0)
(10.051 0.00153599 0)
(10.0555 0.000711797 0)
(10.0597 -0.000152665 0)
(10.0637 -0.00103725 0)
(10.0674 -0.00193281 0)
(10.0708 -0.00282583 0)
(10.074 -0.00369635 0)
(10.0002 -0.000362759 0)
(10.0016 -0.000947987 0)
(10.0045 -0.00134894 0)
(10.0086 -0.00184124 0)
(10.0135 -0.00232669 0)
(10.0186 -0.00282718 0)
(10.024 -0.00336439 0)
(10.0293 -0.00392769 0)
(10.0346 -0.00452632 0)
(10.0397 -0.00514655 0)
(10.0446 -0.00579377 0)
(10.0493 -0.00645406 0)
(10.0537 -0.00712959 0)
(10.0578 -0.00780796 0)
(10.0617 -0.00848964 0)
(10.0653 -0.00916413 0)
(10.0687 -0.00983117 0)
(10.0718 -0.010471 0)
(10.0002 -0.00126092 0)
(10.0017 -0.00355078 0)
(10.0048 -0.00549764 0)
(10.0091 -0.00715945 0)
(10.014 -0.00851668 0)
(10.0192 -0.00964274 0)
(10.0246 -0.0106006 0)
(10.03 -0.0114235 0)
(10.0353 -0.0121461 0)
(10.0405 -0.0127966 0)
(10.0454 -0.0133962 0)
(10.05 -0.0139591 0)
(10.0544 -0.0144942 0)
(10.0585 -0.0150087 0)
(10.0624 -0.0155058 0)
(10.066 -0.0159877 0)
(10.0693 -0.0164546 0)
(10.0725 -0.0168957 0)
(10.0002 -0.00215338 0)
(10.002 -0.00611902 0)
(10.0055 -0.00950022 0)
(10.0102 -0.0121997 0)
(10.0155 -0.0142969 0)
(10.021 -0.0159452 0)
(10.0267 -0.017236 0)
(10.0323 -0.0182502 0)
(10.0377 -0.0190467 0)
(10.043 -0.0196962 0)
(10.048 -0.0202286 0)
(10.0527 -0.0206874 0)
(10.0571 -0.0210827 0)
(10.0613 -0.0214435 0)
(10.0651 -0.0217711 0)
(10.0688 -0.0220815 0)
(10.0721 -0.0223722 0)
(10.0753 -0.0226416 0)
(10.0002 -0.0031085 0)
(10.0024 -0.00881873 0)
(10.0066 -0.0135661 0)
(10.012 -0.0171693 0)
(10.0179 -0.0198831 0)
(10.0239 -0.0219384 0)
(10.0299 -0.0234753 0)
(10.0359 -0.0245957 0)
(10.0416 -0.0254173 0)
(10.047 -0.0260137 0)
(10.0521 -0.02646 0)
(10.057 -0.0267877 0)
(10.0615 -0.027045 0)
(10.0657 -0.0272437 0)
(10.0697 -0.0274155 0)
(10.0733 -0.0275595 0)
(10.0767 -0.027695 0)
(10.0799 -0.0278069 0)
(10.0003 -0.00419532 0)
(10.0031 -0.0117855 0)
(10.0083 -0.0178277 0)
(10.0146 -0.0221863 0)
(10.0212 -0.02539 0)
(10.0278 -0.0277513 0)
(10.0344 -0.0294323 0)
(10.0407 -0.0305855 0)
(10.0467 -0.0313597 0)
(10.0524 -0.0318683 0)
(10.0578 -0.032188 0)
(10.0628 -0.0323733 0)
(10.0674 -0.0324705 0)
(10.0717 -0.0325117 0)
(10.0757 -0.0325208 0)
(10.0795 -0.0325133 0)
(10.0829 -0.0324976 0)
(10.0861 -0.0324715 0)
(10.0005 -0.00549616 0)
(10.0042 -0.0151569 0)
(10.0107 -0.022362 0)
(10.0182 -0.0273069 0)
(10.0256 -0.0308759 0)
(10.0329 -0.033441 0)
(10.0401 -0.03517 0)
(10.0469 -0.0362746 0)
(10.0533 -0.0369469 0)
(10.0593 -0.0373239 0)
(10.0649 -0.0374867 0)
(10.07 -0.0375067 0)
(10.0748 -0.0374296 0)
(10.0792 -0.0373044 0)
(10.0833 -0.0371498 0)
(10.0871 -0.0369921 0)
(10.0906 -0.0368348 0)
(10.0939 -0.0366788 0)
(10.0007 -0.00711908 0)
(10.0059 -0.0190719 0)
(10.0142 -0.0272158 0)
(10.023 -0.0325308 0)
(10.0314 -0.0363541 0)
(10.0394 -0.039028 0)
(10.0473 -0.0407208 0)
(10.0546 -0.0417057 0)
(10.0614 -0.0422231 0)
(10.0677 -0.0424269 0)
(10.0736 -0.0424043 0)
(10.0789 -0.0422304 0)
(10.0839 -0.0419669 0)
(10.0884 -0.0416577 0)
(10.0926 -0.0413405 0)
(10.0964 -0.0410311 0)
(10.1 -0.0407439 0)
(10.1033 -0.0404658 0)
(10.001 -0.00919241 0)
(10.0084 -0.0236805 0)
(10.0191 -0.0324784 0)
(10.0294 -0.0379448 0)
(10.0388 -0.0418561 0)
(10.0478 -0.0445092 0)
(10.0564 -0.046077 0)
(10.0644 -0.0468902 0)
(10.0717 -0.0472177 0)
(10.0784 -0.0472184 0)
(10.0846 -0.0469855 0)
(10.0902 -0.0465998 0)
(10.0954 -0.046127 0)
(10.1 -0.0456219 0)
(10.1043 -0.0451265 0)
(10.1082 -0.0446643 0)
(10.1118 -0.0442424 0)
(10.1152 -0.0438452 0)
(10.0016 -0.0120046 0)
(10.0124 -0.0290233 0)
(10.0264 -0.0381731 0)
(10.0386 -0.0436674 0)
(10.0493 -0.0475013 0)
(10.0594 -0.0499429 0)
(10.0691 -0.0512503 0)
(10.0781 -0.0518284 0)
(10.0861 -0.051919 0)
(10.0935 -0.0517056 0)
(10.1001 -0.051259 0)
(10.1062 -0.0506663 0)
(10.1116 -0.0499949 0)
(10.1164 -0.0492993 0)
(10.1208 -0.0486409 0)
(10.1248 -0.0480368 0)
(10.1284 -0.0474948 0)
(10.1316 -0.0469892 0)
(10.003 -0.0166243 0)
(10.02 -0.0350588 0)
(10.0385 -0.0436608 0)
(10.0538 -0.0492261 0)
(10.067 -0.0532513 0)
(10.0795 -0.05557 0)
(10.0913 -0.0565752 0)
(10.1018 -0.0567896 0)
(10.1112 -0.0565205 0)
(10.1196 -0.0559337 0)
(10.1269 -0.0551317 0)
(10.1333 -0.0542029 0)
(10.1389 -0.05321 0)
(10.1436 -0.0522283 0)
(10.1476 -0.0513169 0)
(10.151 -0.0505102 0)
(10.1539 -0.0497999 0)
(10.1563 -0.0491368 0)
(10.008 -0.0250761 0)
(10.0392 -0.0436554 0)
(10.0681 -0.0496068 0)
(10.0913 -0.0544377 0)
(10.1114 -0.0587378 0)
(10.1297 -0.0614248 0)
(10.1455 -0.0626328 0)
(10.1584 -0.062888 0)
(10.1687 -0.0625437 0)
(10.1764 -0.0617201 0)
(10.182 -0.0605853 0)
(10.1857 -0.0592438 0)
(10.1875 -0.0578007 0)
(10.1878 -0.0563484 0)
(10.1867 -0.0549534 0)
(10.1844 -0.0537022 0)
(10.1812 -0.0526279 0)
(10.1772 -0.0517887 0)
(10.0389 -0.0348619 0)
(10.1243 -0.0623746 0)
(10.1824 -0.0671636 0)
(10.2162 -0.0680248 0)
(10.2357 -0.0685145 0)
(10.243 -0.0679852 0)
(10.2397 -0.0664588 0)
(10.2273 -0.0643963 0)
(10.2081 -0.0620693 0)
(10.1838 -0.059549 0)
(10.1559 -0.0569497 0)
(10.1252 -0.0543262 0)
(10.0928 -0.0517415 0)
(10.0594 -0.0492651 0)
(10.0254 -0.0469614 0)
(9.99144 -0.0449278 0)
(9.95798 -0.0431938 0)
(9.92594 -0.0421908 0)
(9.89616 -0.0323916 0)
(9.67222 -0.0659972 0)
(9.44287 -0.0757256 0)
(9.20686 -0.0777506 0)
(8.98448 -0.0756405 0)
(8.78143 -0.0711175 0)
(8.59767 -0.0655162 0)
(8.43221 -0.0594598 0)
(8.28448 -0.0533602 0)
(8.15327 -0.0474923 0)
(8.03721 -0.041937 0)
(7.935 -0.0367846 0)
(7.84492 -0.032123 0)
(7.76557 -0.0279452 0)
(7.6956 -0.0242274 0)
(7.63379 -0.0210408 0)
(7.57828 -0.0185054 0)
(7.52826 -0.0169895 0)
(-0.00284842 0.00774153 0)
(-0.0129108 0.0128782 0)
(-0.0268004 0.014025 0)
(-0.0414657 0.0119658 0)
(-0.0522104 0.00603924 0)
(-0.0513294 -0.00373334 0)
(-0.0352782 -0.0169342 -8.1116e-19)
(-0.00756432 -0.0307054 9.27422e-19)
(0.0284749 -0.0409849 0)
(0.0698353 -0.0459758 5.33404e-19)
(0.113622 -0.0463765 0)
(0.156316 -0.0433958 0)
(0.195125 -0.0381157 0)
(0.228359 -0.0313683 -2.60665e-19)
(0.25514 -0.0237243 0)
(0.275048 -0.0155527 0)
(0.287746 -0.00705616 2.25234e-19)
(0.293447 0.00183164 0)
(0.291007 0.0110101 0)
(0.280645 0.0199906 0)
(0.263006 0.0280079 -2.41456e-19)
(0.23874 0.0342535 0)
(0.208797 0.0379888 -2.85899e-19)
(0.174596 0.0385796 0)
(0.138025 0.0355964 0)
(0.101393 0.0290323 -4.66575e-19)
(0.0672369 0.0196095 0)
(0.038018 0.00906945 7.80481e-19)
(0.0155346 8.85766e-05 0)
(0.000231662 -0.00530139 -1.32411e-18)
(-0.00924555 -0.00787626 0)
(-0.0138757 -0.00975027 0)
(-0.0121782 -0.0121197 0)
(-0.00410416 -0.0159069 0)
(0.0115375 -0.021506 0)
(0.0348868 -0.0275521 8.15264e-19)
(0.0641329 -0.0315792 0)
(0.0948798 -0.0313166 -9.72681e-19)
(0.121948 -0.0265188 0)
(0.141183 -0.0187282 7.82189e-19)
(0.151054 -0.0105596 0)
(0.152905 -0.00416778 0)
(0.149666 -0.000860031 -7.75042e-19)
(0.145321 -0.00165848 0)
(0.142686 -0.00721713 -8.03427e-19)
(0.139206 -0.0165033 8.09306e-19)
(0.128078 -0.0233506 0)
(0.101963 -0.0174373 8.97527e-19)
(0.0561803 0.00245984 1.06829e-18)
(-0.0270513 0.0197333 0)
(-0.127532 0.0398233 0)
(-0.236026 0.0654559 0)
(-0.356115 0.0899353 0)
(-0.485108 0.108678 0)
(-0.61964 0.116678 -1.78523e-19)
(-0.756136 0.117358 0)
(-0.889443 0.115396 1.43454e-19)
(-1.01787 0.109729 0)
(-1.13989 0.104081 0)
(-1.25348 0.0954768 -1.14162e-19)
(-1.35924 0.0853599 0)
(-1.456 0.0771702 1.02628e-19)
(-1.54489 0.0704537 0)
(-1.62667 0.064452 0)
(-1.70193 0.0585943 0)
(-1.77126 0.0535033 -8.88279e-20)
(-1.83536 0.0489893 0)
(-1.89487 0.0450661 0)
(-1.95036 0.0416289 -8.26967e-20)
(-2.0023 0.0386288 0)
(-2.05113 0.035981 -7.95593e-20)
(-2.09717 0.0336379 0)
(-2.14073 0.0315392 0)
(-2.18202 0.0296496 0)
(-2.22126 0.0279247 7.45147e-20)
(-2.2586 0.0263441 0)
(-2.29417 0.0248752 0)
(-2.32806 0.0235087 7.13536e-20)
(-2.36039 0.0222192 7.03726e-20)
(-2.3912 0.0210058 0)
(-2.42058 0.0198468 6.84893e-20)
(-2.44856 0.0187468 0)
(-2.47518 0.0176859 1.33367e-19)
(-2.50048 0.0166721 0)
(-2.52449 0.0156859 1.29862e-19)
(-2.54722 0.0147373 0)
(-2.56869 0.0138069 -1.26433e-19)
(-2.58892 0.0129024 0)
(-2.60792 0.0120071 0)
(-2.62572 0.0111163 0)
(-2.64228 0.0102197 1.19694e-19)
(-2.65755 0.00931183 0)
(-2.67155 0.00837768 -1.16331e-19)
(-2.68426 0.0074099 0)
(-2.69565 0.00639788 1.12958e-19)
(-2.70568 0.00534107 1.11268e-19)
(-2.71428 0.00424524 1.09576e-19)
(-2.72141 0.00313801 0)
(-2.72697 0.00207409 0)
(-2.73087 0.00111778 0)
(-2.73306 0.000321506 0)
(-2.734 -0.000369041 0)
(-2.7337 -0.00102901 0)
(-2.73216 -0.00168341 0)
(-2.72937 -0.00233292 0)
(-2.72534 -0.00298756 -9.36016e-20)
(-2.72003 -0.00363836 -9.16618e-20)
(-2.71345 -0.00429601 0)
(-2.70556 -0.00494863 0)
(-2.69636 -0.00560815 0)
(-2.68584 -0.00626109 -8.34508e-20)
(-2.67398 -0.00692021 0)
(-2.66078 -0.00757113 0)
(-2.64623 -0.00822669 0)
(-2.63032 -0.00887245 0)
(-2.61306 -0.00952064 7.19415e-20)
(-2.59445 -0.0101577 0)
(-2.57448 -0.0107942 0)
(-2.55317 -0.0114185 -6.42076e-20)
(-2.53052 -0.012039 6.14698e-20)
(-2.50654 -0.0126463 0)
(-2.48125 -0.013246 5.57335e-20)
(-2.45466 -0.0138318 0)
(-2.4268 -0.0144054 -4.96263e-20)
(-2.39768 -0.0149636 0)
(-2.36734 -0.0155034 0)
(-2.3358 -0.0160228 0)
(-2.30308 -0.0165149 0)
(-2.26923 -0.0170055 0)
(-2.23428 -0.0174597 5.76338e-20)
(-2.1983 -0.017891 4.99193e-20)
(-2.16129 -0.0182791 0)
(-2.1233 -0.0185645 0)
(-2.08437 -0.0187035 0)
(-2.04461 -0.018625 -1.65803e-20)
(-2.00412 -0.0183768 0)
(-1.96289 -0.0184366 0)
(-1.92083 -0.0187596 0)
(-1.87799 -0.0189971 2.10431e-20)
(-1.83441 -0.0192108 -3.12307e-20)
(-1.79013 -0.0194068 0)
(-1.74524 -0.0195822 0)
(-1.69981 -0.0197531 -6.38448e-20)
(-1.65386 -0.0199052 -7.54459e-20)
(-1.60743 -0.0200494 0)
(-1.56055 -0.0201733 0)
(-1.51324 -0.0202892 1.12704e-19)
(-1.46555 -0.0203871 -1.26037e-19)
(-1.41744 -0.0204819 0)
(-1.36898 -0.0205594 0)
(-1.32012 -0.0206344 -1.69185e-19)
(-1.27094 -0.0206961 0)
(-1.22143 -0.0207588 0)
(-1.17167 -0.0208123 -2.1796e-19)
(-1.12162 -0.0208705 0)
(-1.07136 -0.0209316 -2.54216e-19)
(-1.02085 -0.0209979 0)
(-0.970121 -0.0210769 0)
(-0.919167 -0.0211673 0)
(-0.867983 -0.0212736 3.38228e-19)
(-0.816558 -0.0213968 0)
(-0.764881 -0.0215383 0)
(-0.712942 -0.0216977 0)
(-0.660732 -0.0218765 0)
(-0.608241 -0.0220757 0)
(-0.555458 -0.0222989 0)
(-0.50237 -0.022548 5.41739e-19)
(-0.448957 -0.0228271 5.79714e-19)
(-0.395201 -0.0231373 0)
(-0.341081 -0.0234794 0)
(-0.286587 -0.0238528 0)
(-0.231718 -0.0242684 -7.67898e-19)
(-0.176504 -0.0247276 0)
(-0.12103 -0.025188 1.78545e-18)
(-0.0654796 -0.0255622 -1.93219e-18)
(-0.0102924 -0.025542 -2.05522e-18)
(0.0445204 -0.0246013 2.05369e-18)
(0.0953684 -0.022553 -1.97664e-18)
(0.151513 -0.0200049 1.92063e-18)
(0.166073 -0.00817043 0)
(-0.00028737 0.0207422 0)
(-0.00564186 0.0361605 0)
(-0.0122142 0.037419 2.1809e-18)
(-0.0125934 0.027931 0)
(0.00155925 0.00593119 -2.28525e-18)
(0.0314499 -0.0314687 -1.45268e-18)
(0.0709008 -0.0735075 -4.55923e-19)
(0.115935 -0.107962 -3.24903e-19)
(0.162523 -0.129095 0)
(0.207198 -0.136582 -2.12282e-19)
(0.247741 -0.133121 0)
(0.283193 -0.122164 0)
(0.313234 -0.106637 3.1638e-19)
(0.337875 -0.0886549 1.50722e-19)
(0.357347 -0.0695804 -2.93889e-19)
(0.371971 -0.0501932 -2.90561e-19)
(0.382133 -0.0308787 -1.45322e-19)
(0.388018 -0.0117801 0)
(0.390623 0.0071182 0)
(0.389865 0.0256417 0)
(0.385355 0.0434315 -1.53776e-19)
(0.37659 0.0599316 0)
(0.363006 0.0743848 4.92647e-19)
(0.344121 0.085782 0)
(0.319728 0.0929797 0)
(0.290072 0.0948689 1.99885e-19)
(0.256066 0.0907167 0)
(0.219391 0.0805948 -2.53474e-19)
(0.182433 0.0656024 -5.93785e-19)
(0.148177 0.0475632 3.55237e-19)
(0.119781 0.0281034 0)
(0.100557 0.00803867 0)
(0.0917898 -0.0127219 0)
(0.0950749 -0.0332726 -1.01581e-18)
(0.108552 -0.0535976 -8.51917e-19)
(0.128285 -0.0706094 -3.52179e-19)
(0.147982 -0.0769784 0)
(0.161891 -0.0700748 5.1469e-19)
(0.167718 -0.0533599 0)
(0.165204 -0.032413 -5.08172e-19)
(0.155142 -0.0141377 0)
(0.138355 -0.00214093 0)
(0.114113 0.00519222 6.5342e-19)
(0.0758874 0.0124246 0)
(0.0130506 0.0274455 2.44073e-18)
(-0.0858157 0.0609433 -5.88262e-19)
(-0.208974 0.104898 0)
(-0.342382 0.150256 -2.5774e-19)
(-0.482013 0.192961 -1.93164e-19)
(-0.627664 0.227948 0)
(-0.773571 0.254148 0)
(-0.917185 0.271745 0)
(-1.05636 0.280754 0)
(-1.18778 0.281593 0)
(-1.30921 0.275439 8.32105e-20)
(-1.41857 0.263776 1.57165e-19)
(-1.51584 0.248474 -7.4262e-20)
(-1.60207 0.230725 0)
(-1.67753 0.212287 1.37256e-19)
(-1.745 0.194068 -6.70324e-20)
(-1.80499 0.176347 0)
(-1.85906 0.160177 -6.29917e-20)
(-1.90816 0.145554 0)
(-1.95324 0.132564 0)
(-1.99498 0.12111 -1.18628e-19)
(-2.03402 0.111098 5.82111e-20)
(-2.07075 0.102365 -1.14588e-19)
(-2.10551 0.0947395 1.12781e-19)
(-2.13851 0.0880531 5.55418e-20)
(-2.16996 0.0821561 0)
(-2.19997 0.0769137 5.39848e-20)
(-2.22866 0.0722136 0)
(-2.2561 0.0679571 0)
(-2.28235 0.0640697 0)
(-2.30746 0.0604817 5.11005e-20)
(-2.33145 0.0571478 0)
(-2.35438 0.0540188 9.96695e-20)
(-2.37625 0.0510708 -1.47637e-19)
(-2.39709 0.0482671 -4.86116e-20)
(-2.41691 0.0455981 0)
(-2.43573 0.0430339 -4.73733e-20)
(-2.45356 0.0405735 0)
(-2.47039 0.0381902 -9.22999e-20)
(-2.48625 0.0358885 0)
(-2.50112 0.0336444 -8.98657e-20)
(-2.51502 0.0314671 1.77191e-19)
(-2.52794 0.0293362 8.74335e-20)
(-2.53989 0.0272603 0)
(-2.55087 0.025224 0)
(-2.56088 0.023222 0)
(-2.56989 0.0212474 -8.25356e-20)
(-2.57787 0.0192939 0)
(-2.58485 0.0173478 8.00426e-20)
(-2.59082 0.0154012 0)
(-2.59581 0.0134409 -2.32549e-19)
(-2.59983 0.0114608 -7.62411e-20)
(-2.60291 0.00945066 -7.49593e-20)
(-2.6051 0.00741378 0)
(-2.60647 0.0053789 0)
(-2.60713 0.00341 0)
(-2.60714 0.00157784 0)
(-2.60609 -0.000147877 0)
(-2.6039 -0.00183157 -1.33971e-19)
(-2.60053 -0.00349657 -1.31161e-19)
(-2.59596 -0.00514765 0)
(-2.59016 -0.00679317 6.2627e-20)
(-2.58311 -0.00842574 6.11494e-20)
(-2.57481 -0.0100533 0)
(-2.56523 -0.0116644 1.16469e-19)
(-2.55436 -0.0132683 0)
(-2.54219 -0.0148511 -5.5255e-20)
(-2.52871 -0.0164233 0)
(-2.51391 -0.0179695 0)
(-2.49779 -0.0195008 1.00448e-19)
(-2.48033 -0.021001 0)
(-2.46155 -0.0224813 -4.65996e-20)
(-2.44143 -0.0239257 0)
(-2.41998 -0.0253446 0)
(-2.39721 -0.0267234 -4.15811e-20)
(-2.37313 -0.0280707 -3.92233e-20)
(-2.34775 -0.0293741 0)
(-2.32108 -0.0306399 3.58036e-20)
(-2.29315 -0.0318586 0)
(-2.26396 -0.0330335 -3.17257e-20)
(-2.23355 -0.0341592 -5.86416e-20)
(-2.20194 -0.0352361 0)
(-2.16915 -0.0362633 0)
(-2.13522 -0.037238 0)
(-2.10017 -0.0381619 0)
(-2.06407 -0.0390346 -3.52814e-20)
(-2.02695 -0.039856 -9.27382e-20)
(-1.98884 -0.0406117 0)
(-1.94977 -0.0413088 0)
(-1.90973 -0.0419542 0)
(-1.86875 -0.0425728 1.01045e-20)
(-1.82689 -0.0431641 0)
(-1.78422 -0.0437238 0)
(-1.74082 -0.0441962 1.06991e-20)
(-1.69671 -0.0445865 1.01503e-20)
(-1.65186 -0.0449023 1.74174e-20)
(-1.60635 -0.0451669 0)
(-1.56022 -0.0453818 0)
(-1.51354 -0.0455709 3.50218e-20)
(-1.46634 -0.0457204 -3.94104e-20)
(-1.41866 -0.0458435 0)
(-1.37052 -0.045926 0)
(-1.32195 -0.045982 -5.97045e-20)
(-1.27297 -0.0459982 1.96628e-19)
(-1.22359 -0.0459952 0)
(-1.17382 -0.0459575 0)
(-1.12367 -0.0458987 8.58715e-20)
(-1.07318 -0.0458101 0)
(-1.02234 -0.0457043 1.97432e-19)
(-0.971224 -0.045576 -1.04888e-19)
(-0.919807 -0.0454343 0)
(-0.868134 -0.0452848 1.20988e-19)
(-0.816199 -0.0451293 2.54989e-19)
(-0.764016 -0.0449766 0)
(-0.711583 -0.0448319 0)
(-0.658893 -0.0446971 -1.51274e-19)
(-0.605938 -0.0445774 0)
(-0.552705 -0.044471 3.32757e-19)
(-0.499183 -0.0443788 0)
(-0.44536 -0.0442982 0)
(-0.391228 -0.0442315 0)
(-0.336775 -0.0441793 0)
(-0.281986 -0.0441461 -2.10213e-19)
(-0.226844 -0.0441339 -2.19382e-19)
(-0.171328 -0.0441463 0)
(-0.115421 -0.04418 0)
(-0.059112 -0.0442261 0)
(-0.00241178 -0.0442591 2.56243e-19)
(0.0546538 -0.0442436 0)
(0.112035 -0.0441407 -5.204e-19)
(0.169632 -0.0438803 5.21574e-19)
(0.227156 -0.0432604 5.22814e-19)
(0.284508 -0.0419004 5.21128e-19)
(0.339314 -0.0394737 5.26914e-19)
(0.3967 -0.0351025 5.29116e-19)
(0.432007 -0.0219002 0)
(0.000300999 0.023481 0)
(0.000981287 0.0404271 0)
(0.00688668 0.0332751 -2.33149e-18)
(0.0271192 -0.000204413 -1.63937e-18)
(0.0671999 -0.0606023 9.74669e-19)
(0.119252 -0.127535 6.3089e-19)
(0.172627 -0.180582 -3.57697e-22)
(0.22035 -0.210948 0)
(0.259747 -0.219537 0)
(0.290867 -0.211674 0)
(0.314963 -0.193246 0)
(0.333509 -0.169023 0)
(0.347737 -0.14224 -7.20209e-19)
(0.358511 -0.114811 0)
(0.366404 -0.0877652 2.29881e-19)
(0.371795 -0.0615811 2.29362e-19)
(0.374953 -0.0364464 0)
(0.376076 -0.0124328 0)
(0.375418 0.0104885 0)
(0.373311 0.0324881 0)
(0.37002 0.0537055 2.44299e-19)
(0.365725 0.0740681 0)
(0.360343 0.0931906 -2.61975e-19)
(0.353479 0.110299 0)
(0.344438 0.124241 0)
(0.332364 0.133568 0)
(0.316473 0.13677 -6.57516e-19)
(0.296463 0.132644 0)
(0.272919 0.120721 3.91219e-19)
(0.24751 0.101411 -8.73741e-19)
(0.222834 0.0758879 0)
(0.201872 0.0455974 0)
(0.187067 0.0122598 0)
(0.178563 -0.0231501 6.31809e-19)
(0.174661 -0.0564882 5.52144e-19)
(0.1683 -0.0767198 0)
(0.153253 -0.0754016 0)
(0.129864 -0.0566475 -7.6852e-19)
(0.0989269 -0.0280972 -7.94931e-19)
(0.0606981 0.0057917 8.96067e-19)
(0.0121931 0.039936 0)
(-0.0578907 0.0724103 0)
(-0.152749 0.112961 0)
(-0.267064 0.163735 0)
(-0.397459 0.219365 -3.88744e-19)
(-0.537882 0.275652 -3.09657e-19)
(-0.680615 0.328164 2.55176e-19)
(-0.819908 0.372376 0)
(-0.951721 0.4069 0)
(-1.0725 0.430429 0)
(-1.18085 0.442408 0)
(-1.27621 0.443675 -1.43225e-19)
(-1.35839 0.43529 0)
(-1.42839 0.418643 0)
(-1.4881 0.395603 -1.19907e-19)
(-1.53988 0.368486 -1.13491e-19)
(-1.58581 0.339582 0)
(-1.62759 0.310559 2.12695e-19)
(-1.66631 0.28266 -1.02064e-19)
(-1.70307 0.256743 9.93551e-20)
(-1.73851 0.233038 0)
(-1.773 0.211955 0)
(-1.80661 0.193463 0)
(-1.83938 0.177329 0)
(-1.87132 0.163239 8.86216e-20)
(-1.90246 0.150935 1.74029e-19)
(-1.93277 0.140158 8.53793e-20)
(-1.96223 0.130673 -8.39027e-20)
(-1.99081 0.12226 0)
(-2.01852 0.114737 1.62254e-19)
(-2.04532 0.107945 1.59664e-19)
(-2.07122 0.101757 1.57176e-19)
(-2.09621 0.0960641 -1.54773e-19)
(-2.12028 0.0907817 0)
(-2.14345 0.0858381 -2.25335e-19)
(-2.1657 0.0811799 0)
(-2.18704 0.0767602 7.28297e-20)
(-2.20747 0.0725466 7.19033e-20)
(-2.22699 0.0685078 0)
(-2.24561 0.0646249 0)
(-2.26333 0.0608751 1.37465e-19)
(-2.28014 0.0572473 0)
(-2.29606 0.0537231 1.33432e-19)
(-2.31106 0.0502958 0)
(-2.32517 0.0469497 -1.29448e-19)
(-2.33836 0.0436814 -2.55027e-19)
(-2.35066 0.0404785 0)
(-2.36204 0.0373386 0)
(-2.37253 0.0342522 0)
(-2.38212 0.0312111 -1.19589e-19)
(-2.39078 0.0282102 0)
(-2.39849 0.0252423 -1.15643e-19)
(-2.40527 0.0223022 0)
(-2.41112 0.0193838 0)
(-2.41605 0.0164863 2.19403e-19)
(-2.42007 0.0136143 0)
(-2.42319 0.0107767 1.05716e-19)
(-2.42539 0.00798668 0)
(-2.42667 0.00525145 1.01703e-19)
(-2.42697 0.00256404 0)
(-2.42625 -0.000116221 0)
(-2.42443 -0.00280579 0)
(-2.4215 -0.00549198 2.79673e-19)
(-2.41742 -0.00816648 9.09939e-20)
(-2.41218 -0.0108315 0)
(-2.40575 -0.0134829 0)
(-2.39812 -0.0161221 0)
(-2.38926 -0.0187444 0)
(-2.37916 -0.0213493 -7.98081e-20)
(-2.36781 -0.0239319 1.5537e-19)
(-2.35519 -0.0264905 7.51472e-20)
(-2.3413 -0.0290201 -1.45989e-19)
(-2.32612 -0.0315178 -1.41202e-19)
(-2.30965 -0.0339791 -6.79158e-20)
(-2.29189 -0.0363999 0)
(-2.27282 -0.0387762 -1.26411e-19)
(-2.25245 -0.0411031 0)
(-2.23079 -0.0433775 1.16163e-19)
(-2.20784 -0.0455936 5.51174e-20)
(-2.18361 -0.0477491 0)
(-2.1581 -0.049838 -1.00153e-19)
(-2.13134 -0.0518585 -4.69317e-20)
(-2.10334 -0.0538045 0)
(-2.07413 -0.0556748 -4.20849e-20)
(-2.04371 -0.0574641 1.15882e-19)
(-2.01213 -0.0591717 0)
(-1.9794 -0.0607935 0)
(-1.94555 -0.0623285 0)
(-1.91062 -0.0637753 0)
(-1.87466 -0.0651356 4.7217e-20)
(-1.8377 -0.0664033 3.98786e-20)
(-1.79977 -0.0675644 0)
(-1.76089 -0.0686124 0)
(-1.72107 -0.069551 0)
(-1.68037 -0.0703946 0)
(-1.63882 -0.0711673 0)
(-1.59651 -0.0718903 0)
(-1.55348 -0.0725344 -6.66269e-21)
(-1.50976 -0.0730755 -1.13566e-21)
(-1.46533 -0.0735143 0)
(-1.42026 -0.0738689 0)
(-1.37459 -0.0741503 -3.34171e-20)
(-1.32837 -0.0743742 0)
(-1.28164 -0.0745378 4.87851e-20)
(-1.23443 -0.0746476 5.47661e-20)
(-1.18676 -0.0746996 0)
(-1.13866 -0.0747012 0)
(-1.09015 -0.0746477 -7.75906e-20)
(-1.04123 -0.074552 -1.67363e-19)
(-0.991924 -0.0744103 0)
(-0.942244 -0.074229 0)
(-0.892205 -0.0740084 0)
(-0.841835 -0.0737523 -1.14278e-19)
(-0.791148 -0.0734648 1.21722e-19)
(-0.740167 -0.073149 0)
(-0.688903 -0.0728176 2.70968e-19)
(-0.637368 -0.0724735 1.41821e-19)
(-0.585567 -0.0721275 -3.0109e-19)
(-0.5335 -0.071788 0)
(-0.481162 -0.0714591 0)
(-0.428543 -0.0711466 -3.46705e-19)
(-0.375632 -0.0708495 -1.82198e-19)
(-0.322418 -0.0705669 0)
(-0.268889 -0.070296 0)
(-0.215035 -0.0700377 0)
(-0.160846 -0.0697939 0)
(-0.106307 -0.0695686 -4.39677e-19)
(-0.0513998 -0.0693645 0)
(0.00388954 -0.069182 0)
(0.0595799 -0.0690154 0)
(0.11569 -0.0688519 0)
(0.172223 -0.0686629 0)
(0.22916 -0.0684057 0)
(0.286443 -0.0680226 -5.04001e-19)
(0.343986 -0.0674154 0)
(0.40156 -0.0663951 0)
(0.459137 -0.0646387 -1.04557e-18)
(0.515108 -0.0616202 5.28312e-19)
(0.573376 -0.056261 -5.39304e-19)
(0.618981 -0.0429879 5.50951e-19)
(-0.00122015 0.0237183 0)
(0.00208922 0.0270365 5.06393e-18)
(0.0240833 -0.0147958 0)
(0.072602 -0.098886 8.67206e-19)
(0.13434 -0.187948 0)
(0.192641 -0.252597 0)
(0.238115 -0.283977 -3.24936e-19)
(0.269551 -0.287163 0)
(0.289818 -0.271762 0)
(0.302606 -0.246224 0)
(0.310846 -0.216095 0)
(0.316386 -0.184452 0)
(0.320219 -0.152836 8.13508e-19)
(0.322803 -0.121954 4.00165e-19)
(0.3243 -0.0921199 -3.9766e-19)
(0.324751 -0.0634702 0)
(0.324169 -0.0360655 0)
(0.322569 -0.00994488 0)
(0.320004 0.0148787 0)
(0.316567 0.0384349 0)
(0.312408 0.0607646 4.3058e-19)
(0.307746 0.0818736 4.42303e-19)
(0.302794 0.101665 -4.58733e-19)
(0.297664 0.119813 4.81197e-19)
(0.292254 0.135652 0)
(0.286218 0.148118 0)
(0.27895 0.155735 5.84236e-19)
(0.269707 0.156777 0)
(0.257896 0.149672 0)
(0.243398 0.133338 7.56227e-19)
(0.226883 0.107646 8.45455e-19)
(0.209528 0.0737282 9.57961e-19)
(0.192587 0.0339458 0)
(0.174596 -0.0066095 0)
(0.148292 -0.0347234 -9.47178e-19)
(0.109492 -0.0379641 0)
(0.0602155 -0.0181909 0)
(0.000767649 0.0175589 7.60836e-19)
(-0.0722777 0.0641696 -6.64151e-19)
(-0.161114 0.12008 5.32539e-19)
(-0.264656 0.182354 0)
(-0.382001 0.246517 0)
(-0.508989 0.311125 5.747e-19)
(-0.639928 0.374749 0)
(-0.769306 0.43325 4.14445e-19)
(-0.891853 0.481622 5.46628e-19)
(-1.00285 0.518051 -4.88072e-19)
(-1.10031 0.542412 2.95659e-19)
(-1.18353 0.554647 0)
(-1.25254 0.555571 0)
(-1.30899 0.546507 2.35269e-19)
(-1.35476 0.529119 1.09789e-19)
(-1.39213 0.505189 0)
(-1.42356 0.476519 0)
(-1.45139 0.445023 9.4517e-20)
(-1.47751 0.412524 1.82905e-19)
(-1.50316 0.380483 0)
(-1.52908 0.34988 -1.68928e-19)
(-1.55562 0.321322 1.6452e-19)
(-1.58285 0.295169 -1.59727e-19)
(-1.61075 0.271469 0)
(-1.63913 0.250253 0)
(-1.66777 0.231409 0)
(-1.69644 0.214704 0)
(-1.72493 0.199878 0)
(-1.75312 0.186693 -1.38278e-19)
(-1.78085 0.174919 0)
(-1.80805 0.164343 0)
(-1.83462 0.154779 0)