/*--------------------------------*- C++ -*----------------------------------*\
  =========                 |
  \\      /  F ield         | OpenFOAM: The Open Source CFD Toolbox
   \\    /   O peration     | Website:  https://openfoam.org
    \\  /    A nd           | Version:  8
     \\/     M anipulation  |
\*---------------------------------------------------------------------------*/
FoamFile
{
    version     2.0;
    format      ascii;
    class       volVectorField;
    location    "900";
    object      U;
}
// * * * * * * * * * * * * * * * * * * * * * * * * * * * * * * * * * * * * * //

dimensions      [0 1 -1 0 0 0 0];

internalField   nonuniform List<vector> 
12225
(
(9.75676 0.0503602 0)
(9.32444 0.0982077 0)
(8.8945 0.115129 0)
(8.4874 0.114797 0)
(8.13246 0.0998145 0)
(7.84299 0.0718001 0)
(7.60773 0.042025 0)
(7.41029 0.0280433 0)
(7.24175 0.0213845 0)
(7.09429 0.0143485 0)
(6.9688 0.0196536 0)
(6.8639 0.0271363 0)
(6.78323 0.02336 0)
(6.71188 0.0124094 0)
(6.65793 0.00352534 0)
(6.62032 -0.00712287 0)
(6.58928 -0.00713856 0)
(6.58409 -0.00218129 0)
(10.0977 0.0569872 0)
(10.2353 0.0887487 0)
(10.3059 0.0879396 0)
(10.2993 0.0834603 0)
(10.2591 0.0804096 0)
(10.1875 0.0777557 0)
(10.114 0.0742497 0)
(10.039 0.0688561 0)
(9.9587 0.0636752 0)
(9.88105 0.0596884 0)
(9.80396 0.0531203 0)
(9.71834 0.0456173 0)
(9.62957 0.0416232 0)
(9.5466 0.0391137 0)
(9.47194 0.0350757 0)
(9.39927 0.032143 0)
(9.33682 0.0255312 0)
(9.26835 0.0160998 0)
(10.0113 0.0418693 0)
(10.0721 0.0660649 0)
(10.1205 0.0725775 0)
(10.1597 0.0786108 0)
(10.1912 0.0815522 0)
(10.2149 0.0799539 0)
(10.229 0.0765056 0)
(10.2354 0.0747157 0)
(10.2366 0.0728581 0)
(10.234 0.0699446 0)
(10.2281 0.0673909 0)
(10.2204 0.0652882 0)
(10.2096 0.0622912 0)
(10.1964 0.0582231 0)
(10.1806 0.0540323 0)
(10.1626 0.0492079 0)
(10.1432 0.0440996 0)
(10.1214 0.0383649 0)
(10.006 0.030098 0)
(10.0388 0.0570845 0)
(10.0702 0.0664769 0)
(10.0954 0.0729415 0)
(10.1174 0.0754051 0)
(10.1367 0.0733886 0)
(10.1518 0.0695624 0)
(10.1635 0.0670863 0)
(10.1736 0.0651325 0)
(10.1823 0.0631561 0)
(10.1898 0.0617002 0)
(10.197 0.0602599 0)
(10.2037 0.0579785 0)
(10.2093 0.0548077 0)
(10.2135 0.051397 0)
(10.2163 0.0476509 0)
(10.218 0.0438061 0)
(10.2186 0.0395302 0)
(10.0044 0.0238021 0)
(10.0268 0.0511018 0)
(10.0524 0.0609628 0)
(10.0724 0.0667507 0)
(10.0899 0.0692734 0)
(10.1056 0.0683721 0)
(10.1183 0.0658444 0)
(10.1287 0.063862 0)
(10.1379 0.0621806 0)
(10.1463 0.0604526 0)
(10.1541 0.05893 0)
(10.1617 0.05739 0)
(10.1691 0.0552555 0)
(10.1758 0.0523953 0)
(10.1817 0.0491984 0)
(10.1868 0.0457367 0)
(10.1911 0.0421393 0)
(10.1947 0.0383098 0)
(10.003 0.0192908 0)
(10.0197 0.0447503 0)
(10.0413 0.0548413 0)
(10.0589 0.06064 0)
(10.0742 0.0635669 0)
(10.0882 0.0635973 0)
(10.1 0.0620045 0)
(10.1098 0.0603919 0)
(10.1185 0.0588268 0)
(10.1264 0.0571888 0)
(10.1338 0.0555917 0)
(10.141 0.0539007 0)
(10.1479 0.0517627 0)
(10.1543 0.0490977 0)
(10.16 0.0461173 0)
(10.1651 0.0428992 0)
(10.1695 0.039551 0)
(10.1733 0.0361046 0)
(10.0021 0.0157156 0)
(10.0149 0.0384621 0)
(10.0329 0.0487733 0)
(10.0486 0.0546864 0)
(10.0625 0.0578495 0)
(10.0752 0.058497 0)
(10.0863 0.0575939 0)
(10.0959 0.0563405 0)
(10.1044 0.0549767 0)
(10.1122 0.0534968 0)
(10.1194 0.0519497 0)
(10.1263 0.050243 0)
(10.1329 0.0481826 0)
(10.1389 0.0457259 0)
(10.1444 0.0429935 0)
(10.1494 0.0400526 0)
(10.1537 0.0369897 0)
(10.1575 0.0338672 0)
(10.0015 0.0131229 0)
(10.0119 0.0333142 0)
(10.0271 0.043535 0)
(10.0414 0.0494235 0)
(10.054 0.0527331 0)
(10.0658 0.0538621 0)
(10.0764 0.0535396 0)
(10.0858 0.0526447 0)
(10.0942 0.0514997 0)
(10.1019 0.0501613 0)
(10.1091 0.0486779 0)
(10.1158 0.0469974 0)
(10.1222 0.0450272 0)
(10.1281 0.0427392 0)
(10.1335 0.0402085 0)
(10.1384 0.0374852 0)
(10.1427 0.0346433 0)
(10.1465 0.0317576 0)
(10.0012 0.0111963 0)
(10.0097 0.0294123 0)
(10.0228 0.0393224 0)
(10.0358 0.0451768 0)
(10.0476 0.0485144 0)
(10.0586 0.0498599 0)
(10.0687 0.0498251 0)
(10.0778 0.0491351 0)
(10.086 0.0481329 0)
(10.0936 0.04691 0)
(10.1006 0.0455087 0)
(10.1073 0.0438966 0)
(10.1135 0.0420182 0)
(10.1193 0.0398655 0)
(10.1246 0.0374925 0)
(10.1294 0.0349568 0)
(10.1336 0.0323185 0)
(10.1374 0.0296605 0)
(10.001 0.00947915 0)
(10.0079 0.0255889 0)
(10.019 0.0348829 0)
(10.0307 0.0405879 0)
(10.0416 0.0439047 0)
(10.0518 0.0454326 0)
(10.0613 0.0456636 0)
(10.07 0.0451839 0)
(10.078 0.0443259 0)
(10.0853 0.0432199 0)
(10.0922 0.0419041 0)
(10.0987 0.0403751 0)
(10.1047 0.0386081 0)
(10.1103 0.0365988 0)
(10.1155 0.034403 0)
(10.1202 0.0320633 0)
(10.1244 0.0296376 0)
(10.1281 0.0272012 0)
(10.0007 0.00791561 0)
(10.0063 0.0218197 0)
(10.0156 0.0302793 0)
(10.026 0.0357079 0)
(10.0359 0.0389442 0)
(10.0454 0.0405885 0)
(10.0543 0.0410504 0)
(10.0625 0.0407686 0)
(10.0701 0.0400648 0)
(10.0772 0.0390721 0)
(10.0838 0.0378535 0)
(10.0901 0.0364188 0)
(10.0959 0.0347631 0)
(10.1014 0.0329039 0)
(10.1063 0.0308865 0)
(10.1109 0.0287483 0)
(10.115 0.0265402 0)
(10.1187 0.024343 0)
(10.0006 0.00649229 0)
(10.005 0.0182241 0)
(10.0127 0.025646 0)
(10.0218 0.0306492 0)
(10.0308 0.0337132 0)
(10.0394 0.0353786 0)
(10.0476 0.0359858 0)
(10.0554 0.0358771 0)
(10.0627 0.0353069 0)
(10.0694 0.034437 0)
(10.0758 0.0333181 0)
(10.0818 0.0319882 0)
(10.0874 0.0304508 0)
(10.0926 0.0287535 0)
(10.0974 0.0269122 0)
(10.1017 0.024987 0)
(10.1057 0.0230016 0)
(10.1094 0.0210414 0)
(10.0005 0.00519691 0)
(10.004 0.014784 0)
(10.0103 0.0210264 0)
(10.0181 0.0254471 0)
(10.0261 0.0282301 0)
(10.034 0.0298062 0)
(10.0416 0.030474 0)
(10.0488 0.0304771 0)
(10.0557 0.0300275 0)
(10.0622 0.0292643 0)
(10.0682 0.028257 0)
(10.0739 0.0270392 0)
(10.0793 0.0256509 0)
(10.0842 0.0241136 0)
(10.0888 0.0224762 0)
(10.093 0.0207612 0)
(10.0969 0.0190094 0)
(10.1004 0.0172831 0)
(10.0004 0.00400523 0)
(10.0032 0.0115232 0)
(10.0084 0.0164774 0)
(10.015 0.0201544 0)
(10.0221 0.02252 0)
(10.0292 0.0238942 0)
(10.0362 0.0245193 0)
(10.0429 0.0245609 0)
(10.0494 0.0241971 0)
(10.0555 0.0235231 0)
(10.0613 0.0226277 0)
(10.0667 0.0215393 0)
(10.0718 0.0203072 0)
(10.0765 0.0189559 0)
(10.0809 0.0175256 0)
(10.0849 0.0160326 0)
(10.0887 0.0145156 0)
(10.0921 0.0130236 0)
(10.0003 0.00290501 0)
(10.0026 0.00842677 0)
(10.0069 0.0120255 0)
(10.0126 0.0147951 0)
(10.0188 0.0166055 0)
(10.0252 0.0176555 0)
(10.0315 0.0181192 0)
(10.0378 0.0181296 0)
(10.0438 0.0177863 0)
(10.0496 0.0171905 0)
(10.0551 0.016391 0)
(10.0603 0.0154429 0)
(10.0651 0.0143709 0)
(10.0696 0.0132161 0)
(10.0738 0.0119894 0)
(10.0777 0.0107263 0)
(10.0813 0.00943798 0)
(10.0847 0.00818294 0)
(10.0002 0.00186207 0)
(10.0022 0.00544713 0)
(10.0058 0.00762268 0)
(10.0107 0.00934787 0)
(10.0162 0.0104626 0)
(10.022 0.0110569 0)
(10.0278 0.0112583 0)
(10.0336 0.0111368 0)
(10.0393 0.0107665 0)
(10.0448 0.0102032 0)
(10.05 0.00949319 0)
(10.0549 0.00867093 0)
(10.0595 0.00776317 0)
(10.0639 0.00679271 0)
(10.0679 0.0057768 0)
(10.0717 0.00473482 0)
(10.0752 0.00368113 0)
(10.0785 0.00265616 0)
(10.0002 0.000833181 0)
(10.0019 0.0024645 0)
(10.0051 0.00313964 0)
(10.0094 0.00371461 0)
(10.0145 0.00398769 0)
(10.0198 0.00402101 0)
(10.0253 0.00384206 0)
(10.0307 0.00351289 0)
(10.0361 0.00304066 0)
(10.0413 0.00247724 0)
(10.0463 0.00182404 0)
(10.0511 0.00111889 0)
(10.0555 0.000360172 0)
(10.0597 -0.00042504 0)
(10.0637 -0.00123786 0)
(10.0673 -0.00205649 0)
(10.0707 -0.00288025 0)
(10.0739 -0.00367326 0)
(10.0002 -0.000187914 0)
(10.0018 -0.000531978 0)
(10.0048 -0.00134269 0)
(10.009 -0.00197534 0)
(10.0138 -0.00257451 0)
(10.019 -0.00317783 0)
(10.0243 -0.00377046 0)
(10.0296 -0.00437313 0)
(10.0349 -0.00496675 0)
(10.0399 -0.00557418 0)
(10.0448 -0.00617593 0)
(10.0494 -0.00679179 0)
(10.0538 -0.00740225 0)
(10.0579 -0.00802298 0)
(10.0618 -0.00863581 0)
(10.0654 -0.00925119 0)
(10.0688 -0.00985229 0)
(10.0719 -0.0104324 0)
(10.0002 -0.00116346 0)
(10.0019 -0.00339927 0)
(10.0051 -0.00561802 0)
(10.0094 -0.00737221 0)
(10.0143 -0.00879167 0)
(10.0196 -0.0099792 0)
(10.025 -0.0109683 0)
(10.0303 -0.0118087 0)
(10.0356 -0.0125239 0)
(10.0407 -0.0131533 0)
(10.0456 -0.0137138 0)
(10.0502 -0.0142307 0)
(10.0546 -0.0147115 0)
(10.0587 -0.0151702 0)
(10.0625 -0.0156093 0)
(10.0661 -0.0160344 0)
(10.0695 -0.016445 0)
(10.0726 -0.0168306 0)
(10.0002 -0.00211505 0)
(10.0021 -0.00616845 0)
(10.0057 -0.00972068 0)
(10.0105 -0.0124659 0)
(10.0158 -0.0146024 0)
(10.0213 -0.0162739 0)
(10.027 -0.0175913 0)
(10.0325 -0.0186031 0)
(10.038 -0.0193959 0)
(10.0432 -0.0200071 0)
(10.0482 -0.0205078 0)
(10.0529 -0.0209089 0)
(10.0573 -0.0212599 0)
(10.0614 -0.0215581 0)
(10.0653 -0.0218364 0)
(10.0689 -0.0220867 0)
(10.0723 -0.0223289 0)
(10.0754 -0.0225442 0)
(10.0003 -0.0031134 0)
(10.0026 -0.00901561 0)
(10.0068 -0.0138455 0)
(10.0122 -0.0174668 0)
(10.0181 -0.020186 0)
(10.0241 -0.0222647 0)
(10.0301 -0.0238164 0)
(10.036 -0.0249489 0)
(10.0417 -0.0257436 0)
(10.0471 -0.0263129 0)
(10.0523 -0.0267031 0)
(10.0571 -0.0269861 0)
(10.0616 -0.027176 0)
(10.0658 -0.0273255 0)
(10.0697 -0.0274303 0)
(10.0733 -0.0275273 0)
(10.0767 -0.0276022 0)
(10.0799 -0.0276728 0)
(10.0004 -0.0042301 0)
(10.0033 -0.0120935 0)
(10.0085 -0.0181324 0)
(10.0148 -0.0224722 0)
(10.0214 -0.0256612 0)
(10.0279 -0.0280453 0)
(10.0344 -0.029762 0)
(10.0407 -0.0309267 0)
(10.0467 -0.0316848 0)
(10.0524 -0.0321559 0)
(10.0577 -0.0324209 0)
(10.0627 -0.0325453 0)
(10.0673 -0.0325754 0)
(10.0716 -0.0325497 0)
(10.0756 -0.032495 0)
(10.0793 -0.0324256 0)
(10.0827 -0.0323565 0)
(10.0859 -0.0322787 0)
(10.0005 -0.0055574 0)
(10.0044 -0.0155501 0)
(10.0108 -0.0226528 0)
(10.0182 -0.0275221 0)
(10.0256 -0.0310672 0)
(10.0327 -0.033678 0)
(10.0398 -0.0354681 0)
(10.0466 -0.0365997 0)
(10.053 -0.0372665 0)
(10.0589 -0.0376049 0)
(10.0645 -0.0377173 0)
(10.0696 -0.0376657 0)
(10.0744 -0.0375225 0)
(10.0788 -0.0373188 0)
(10.0829 -0.0371009 0)
(10.0866 -0.036874 0)
(10.0902 -0.03666 0)
(10.0934 -0.0364484 0)
(10.0007 -0.00722298 0)
(10.006 -0.0195036 0)
(10.0142 -0.0274279 0)
(10.0228 -0.0326039 0)
(10.0309 -0.0364121 0)
(10.0388 -0.0391793 0)
(10.0465 -0.0409742 0)
(10.0538 -0.042014 0)
(10.0607 -0.0425446 0)
(10.067 -0.0427201 0)
(10.0728 -0.0426453 0)
(10.0782 -0.0424046 0)
(10.0832 -0.0420654 0)
(10.0877 -0.0416887 0)
(10.0919 -0.0413014 0)
(10.0958 -0.0409319 0)
(10.0994 -0.0405838 0)
(10.1028 -0.0402636 0)
(10.0011 -0.00937905 0)
(10.0086 -0.0240236 0)
(10.0187 -0.0325091 0)
(10.0287 -0.037764 0)
(10.0377 -0.041723 0)
(10.0464 -0.0445647 0)
(10.055 -0.0463032 0)
(10.063 -0.0472198 0)
(10.0704 -0.0475908 0)
(10.0772 -0.0475771 0)
(10.0835 -0.0472943 0)
(10.0892 -0.0468423 0)
(10.0945 -0.0463037 0)
(10.0993 -0.0457401 0)
(10.1038 -0.0451889 0)
(10.1079 -0.0446694 0)
(10.1116 -0.0441909 0)
(10.1152 -0.0437451 0)
(10.0017 -0.0122978 0)
(10.0125 -0.0289643 0)
(10.0251 -0.0378691 0)
(10.0367 -0.043225 0)
(10.0469 -0.0472695 0)
(10.0571 -0.0500044 0)
(10.0669 -0.0515294 0)
(10.076 -0.0522296 0)
(10.0844 -0.052413 0)
(10.0921 -0.0522055 0)
(10.0991 -0.0517375 0)
(10.1055 -0.0511071 0)
(10.1113 -0.0503984 0)
(10.1167 -0.0496843 0)
(10.1215 -0.048991 0)
(10.1259 -0.0483522 0)
(10.13 -0.0477748 0)
(10.1337 -0.0472362 0)
(10.0029 -0.0165419 0)
(10.0189 -0.0341028 0)
(10.0353 -0.0428737 0)
(10.0501 -0.0486636 0)
(10.0634 -0.0531573 0)
(10.0765 -0.055881 0)
(10.089 -0.0571355 0)
(10.1004 -0.0575033 0)
(10.1108 -0.0573189 0)
(10.1203 -0.0567367 0)
(10.1288 -0.0558984 0)
(10.1365 -0.0549202 0)
(10.1433 -0.0539003 0)
(10.1493 -0.0528988 0)
(10.1545 -0.0519698 0)
(10.1592 -0.0511389 0)
(10.1633 -0.0504049 0)
(10.1668 -0.0497195 0)
(10.007 -0.0254556 0)
(10.0353 -0.0430036 0)
(10.0641 -0.0486419 0)
(10.0885 -0.0536125 0)
(10.1112 -0.058608 0)
(10.1326 -0.0619807 0)
(10.152 -0.0637344 0)
(10.1688 -0.0644447 0)
(10.1829 -0.0644129 0)
(10.1946 -0.0638244 0)
(10.204 -0.062816 0)
(10.2111 -0.0615357 0)
(10.2162 -0.0601243 0)
(10.2195 -0.0586629 0)
(10.2211 -0.0572669 0)
(10.2214 -0.0560195 0)
(10.2207 -0.0549648 0)
(10.219 -0.0541659 0)
(10.0303 -0.0350545 0)
(10.1241 -0.0618346 0)
(10.1948 -0.0681712 0)
(10.2405 -0.0703355 0)
(10.2698 -0.0717455 0)
(10.286 -0.0717377 0)
(10.2901 -0.0705256 0)
(10.2839 -0.0686287 0)
(10.2693 -0.0663348 0)
(10.2484 -0.0638013 0)
(10.2225 -0.0611123 0)
(10.1931 -0.0583715 0)
(10.161 -0.0556485 0)
(10.1273 -0.0530278 0)
(10.0925 -0.0506082 0)
(10.0572 -0.0484576 0)
(10.0222 -0.046592 0)
(9.98852 -0.0454804 0)
(9.90632 -0.0338001 0)
(9.67862 -0.0660604 0)
(9.43781 -0.0765789 0)
(9.1909 -0.0795365 0)
(8.955 -0.0784983 0)
(8.73731 -0.0747537 0)
(8.53889 -0.0694921 0)
(8.35935 -0.0634826 0)
(8.19857 -0.0571958 0)
(8.05567 -0.051009 0)
(7.92941 -0.0451054 0)
(7.81815 -0.0395995 0)
(7.72041 -0.0345408 0)
(7.63458 -0.0299487 0)
(7.5592 -0.0258415 0)
(7.49283 -0.0223333 0)
(7.43328 -0.0195274 0)
(7.37978 -0.0177502 0)
(-0.0027594 0.00765014 0)
(-0.0129119 0.0127384 0)
(-0.0266715 0.0138405 0)
(-0.0412791 0.0117646 0)
(-0.0519718 0.00589031 0)
(-0.0511119 -0.00375999 0)
(-0.0352532 -0.0168121 -8.10436e-19)
(-0.00783358 -0.0304437 9.2308e-19)
(0.0279222 -0.0406689 0)
(0.0690472 -0.0456742 5.29527e-19)
(0.112587 -0.0461119 0)
(0.155072 -0.0431866 0)
(0.193723 -0.0379723 0)
(0.226858 -0.0312904 -2.58797e-19)
(0.253602 -0.0237142 0)
(0.273534 -0.0156099 0)
(0.286313 -0.00718186 2.23572e-19)
(0.292157 0.00163569 0)
(0.289934 0.0107383 0)
(0.279856 0.0196411 0)
(0.262563 0.0275809 -2.39573e-19)
(0.23872 0.0337629 0)
(0.20926 0.0374522 -2.83394e-19)
(0.175603 0.0380373 0)
(0.139609 0.0350987 0)
(0.103554 0.0286638 -4.59928e-19)
(0.0699305 0.0194551 0)
(0.0411042 0.00919381 7.60583e-19)
(0.0187543 0.000418791 0)
(0.00332161 -0.00491511 -1.3191e-18)
(-0.00621358 -0.00737298 0)
(-0.0109458 -0.00902737 0)
(-0.0095557 -0.0111273 0)
(-0.0019558 -0.0146618 0)
(0.0129778 -0.0200726 0)
(0.0356523 -0.0261283 8.03468e-19)
(0.0644087 -0.0304331 0)
(0.0949827 -0.0305801 -9.6141e-19)
(0.12223 -0.0261562 0)
(0.141871 -0.0185451 7.70128e-19)
(0.152164 -0.0102789 0)
(0.154127 -0.00362835 0)
(0.150623 2.23765e-05 -7.64397e-19)
(0.145698 -0.000282919 0)
(0.1428 -0.00541616 -7.98754e-19)
(0.140319 -0.0148127 8.05908e-19)
(0.131674 -0.0235647 0)
(0.109319 -0.0215516 8.79679e-19)
(0.0679648 -0.0036625 1.03182e-18)
(-0.00401484 0.017767 0)
(-0.100869 0.0399094 0)
(-0.206818 0.0648706 0)
(-0.324967 0.087803 0)
(-0.454201 0.0965301 0)
(-0.590953 0.100312 -1.93221e-19)
(-0.724865 0.108137 0)
(-0.856186 0.113805 1.44023e-19)
(-0.984453 0.111753 0)
(-1.10686 0.103262 0)
(-1.22081 0.0939345 -1.14701e-19)
(-1.32602 0.0867752 0)
(-1.42318 0.0801645 1.02331e-19)
(-1.51258 0.0717653 0)
(-1.59454 0.0642403 0)
(-1.66979 0.058721 0)
(-1.73923 0.0536599 -8.88494e-20)
(-1.80352 0.0491796 0)
(-1.86321 0.0452672 0)
(-1.91889 0.0418621 -8.25212e-20)
(-1.97105 0.038887 0)
(-2.02011 0.0362732 -7.92896e-20)
(-2.06642 0.033969 0)
(-2.11029 0.0319075 0)
(-2.15194 0.0300594 0)
(-2.19158 0.0283723 7.41266e-20)
(-2.22936 0.0268295 0)
(-2.2654 0.0253937 0)
(-2.29983 0.024056 7.09355e-20)
(-2.33271 0.0227905 6.99559e-20)
(-2.36411 0.0215924 0)
(-2.39409 0.0204444 6.80906e-20)
(-2.42269 0.019343 0)
(-2.44993 0.0182774 1.32645e-19)
(-2.47586 0.0172433 0)
(-2.50048 0.0162349 1.29249e-19)
(-2.52381 0.0152464 0)
(-2.54587 0.0142756 -1.25948e-19)
(-2.56665 0.0133144 0)
(-2.58614 0.0123595 0)
(-2.60433 0.0114086 0)
(-2.62123 0.0104474 1.19482e-19)
(-2.63683 0.00947378 0)
(-2.65111 0.00847986 -1.16264e-19)
(-2.66403 0.00745785 0)
(-2.67556 0.00640298 1.13032e-19)
(-2.68565 0.00530895 1.11405e-19)
(-2.69423 0.00418094 1.0977e-19)
(-2.70126 0.00303497 0)
(-2.70665 0.00192596 0)
(-2.71034 0.000937026 0)
(-2.71227 0.000131042 0)
(-2.71302 -0.000568025 0)
(-2.71248 -0.00124398 0)
(-2.71072 -0.00190582 0)
(-2.70772 -0.00256061 0)
(-2.70349 -0.00320935 -9.38791e-20)
(-2.69803 -0.00385206 -9.19084e-20)
(-2.69133 -0.00448853 0)
(-2.68338 -0.00511856 0)
(-2.67419 -0.00574125 0)
(-2.66376 -0.0063569 -8.3533e-20)
(-2.65208 -0.00696402 0)
(-2.63916 -0.00756347 0)
(-2.625 -0.00815324 0)
(-2.60961 -0.00873467 0)
(-2.59299 -0.00930535 7.18227e-20)
(-2.57515 -0.0098671 0)
(-2.55609 -0.0104172 0)
(-2.53584 -0.0109579 -6.4043e-20)
(-2.51438 -0.0114863 6.13119e-20)
(-2.49175 -0.012005 0)
(-2.46795 -0.0125109 5.56296e-20)
(-2.443 -0.013007 0)
(-2.4169 -0.01349 -4.9638e-20)
(-2.38968 -0.0139631 0)
(-2.36135 -0.0144233 0)
(-2.33193 -0.0148731 0)
(-2.30144 -0.0153068 0)
(-2.26989 -0.0157222 0)
(-2.23733 -0.0161291 5.9198e-20)
(-2.20375 -0.0165178 5.18538e-20)
(-2.16919 -0.0168845 0)
(-2.13367 -0.0172203 0)
(-2.09723 -0.0174753 0)
(-2.05992 -0.0176023 -2.0328e-20)
(-2.02182 -0.0175212 0)
(-1.98298 -0.0172699 0)
(-1.94335 -0.0173149 0)
(-1.90285 -0.0176412 1.50647e-20)
(-1.86154 -0.0178883 -2.46305e-20)
(-1.81948 -0.0181288 0)
(-1.77669 -0.0183559 0)
(-1.73321 -0.0185723 -5.53176e-20)
(-1.68907 -0.0187796 -6.627e-20)
(-1.64429 -0.018978 0)
(-1.5989 -0.0191697 0)
(-1.5529 -0.0193543 1.01602e-19)
(-1.50632 -0.0195308 -1.14294e-19)
(-1.45919 -0.0197056 0)
(-1.41155 -0.019869 0)
(-1.3634 -0.0200312 -1.55496e-19)
(-1.31478 -0.0201874 0)
(-1.26572 -0.020338 0)
(-1.21624 -0.0204877 -2.02253e-19)
(-1.16637 -0.0206313 0)
(-1.11614 -0.0207763 -2.37137e-19)
(-1.06555 -0.0209233 0)
(-1.01464 -0.0210751 0)
(-0.9634 -0.0212343 0)
(-0.911838 -0.0214026 3.18159e-19)
(-0.859954 -0.0215813 0)
(-0.807747 -0.0217709 0)
(-0.755217 -0.0219711 0)
(-0.702365 -0.0221825 0)
(-0.649196 -0.0224063 0)
(-0.595712 -0.0226445 0)
(-0.541913 -0.0229008 5.14297e-19)
(-0.487793 -0.0231777 5.50746e-19)
(-0.433345 -0.0234781 0)
(-0.378559 -0.0238026 0)
(-0.323432 -0.0241494 0)
(-0.267974 -0.0245146 -7.30222e-19)
(-0.21222 -0.0249092 0)
(-0.156246 -0.0253098 1.69619e-18)
(-0.100219 -0.0256497 -1.83389e-18)
(-0.0445462 -0.0257845 -1.98789e-18)
(0.0106627 -0.0251933 2.06678e-18)
(0.0620729 -0.0233105 -2.02428e-18)
(0.118755 -0.0207807 1.96258e-18)
(0.134715 -0.00932133 0)
(-0.000183692 0.0205268 0)
(-0.00594949 0.0359534 0)
(-0.0124753 0.0371565 2.1653e-18)
(-0.013048 0.0277254 0)
(0.000907244 0.00572303 -2.25694e-18)
(0.0306355 -0.0313917 -1.43515e-18)
(0.0698747 -0.0730822 -4.51956e-19)
(0.114672 -0.107296 -3.22377e-19)
(0.161037 -0.128351 0)
(0.205519 -0.135877 -2.10699e-19)
(0.245915 -0.132526 0)
(0.281269 -0.121711 0)
(0.311256 -0.10634 3.13917e-19)
(0.335889 -0.088512 1.49522e-19)
(0.355396 -0.0695882 -2.91498e-19)
(0.37009 -0.0503499 -2.88119e-19)
(0.38036 -0.0311849 -1.44086e-19)
(0.386387 -0.0122377 0)
(0.38916 0.00650578 0)
(0.388597 0.0248778 0)
(0.38431 0.0425163 -1.52406e-19)
(0.375802 0.0588761 0)
(0.362506 0.0731995 4.87972e-19)
(0.343952 0.0845019 0)
(0.319939 0.0916501 0)
(0.290723 0.0935728 1.97773e-19)
(0.25722 0.0895493 0)
(0.221094 0.0796689 -2.50394e-19)
(0.184683 0.0649895 -5.85686e-19)
(0.150882 0.0473074 3.49589e-19)
(0.122767 0.028229 0)
(0.103571 0.00859417 0)
(0.0945826 -0.0116854 0)
(0.0974186 -0.0317807 -9.98332e-19)
(0.11035 -0.0518489 -8.40612e-19)
(0.129793 -0.0690915 -3.48118e-19)
(0.14969 -0.0763115 0)
(0.164189 -0.07034 5.07326e-19)
(0.170807 -0.0543071 0)
(0.169204 -0.0336014 -4.9572e-19)
(0.160153 -0.014971 0)
(0.144748 -0.00262427 0)
(0.122781 0.00432702 6.35747e-19)
(0.0882637 0.0101533 0)
(0.0312053 0.0218243 2.52253e-18)
(-0.0619317 0.0523066 -6.49942e-19)
(-0.182598 0.0957369 0)
(-0.315011 0.140761 -2.72805e-19)
(-0.45362 0.184104 -2.01553e-19)
(-0.598668 0.220698 0)
(-0.744995 0.248355 0)
(-0.88859 0.267611 0)
(-1.02714 0.278508 0)
(-1.15843 0.280929 0)
(-1.27899 0.275233 8.42621e-20)
(-1.38799 0.26373 1.58085e-19)
(-1.4855 0.24848 -7.42583e-20)
(-1.57205 0.231067 0)
(-1.64863 0.212648 1.37948e-19)
(-1.7166 0.194226 -6.70271e-20)
(-1.77722 0.17668 0)
(-1.83166 0.16059 -6.27064e-20)
(-1.88138 0.145951 0)
(-1.92677 0.132891 0)
(-1.96886 0.121463 -1.18324e-19)
(-2.00812 0.111435 5.80285e-20)
(-2.04501 0.102693 -1.14184e-19)
(-2.07992 0.0950711 1.12329e-19)
(-2.11308 0.088394 5.52918e-20)
(-2.1447 0.0825274 0)
(-2.1749 0.0773185 5.36982e-20)
(-2.20381 0.0726684 0)
(-2.2315 0.0684616 0)
(-2.25802 0.0646332 0)
(-2.28344 0.0611008 5.0758e-20)
(-2.30778 0.0578251 0)
(-2.33106 0.054749 9.89879e-20)
(-2.35332 0.0518495 -1.46633e-19)
(-2.37456 0.0490879 -4.82896e-20)
(-2.3948 0.0464502 0)
(-2.41404 0.0439109 -4.70758e-20)
(-2.43229 0.04146 0)
(-2.44954 0.0390817 -9.17793e-20)
(-2.46581 0.0367675 0)
(-2.48108 0.0345085 -8.94406e-20)
(-2.49536 0.0322961 1.76415e-19)
(-2.50863 0.0301267 8.71157e-20)
(-2.5209 0.0279907 0)
(-2.53214 0.0258853 0)
(-2.54235 0.0238029 0)
(-2.55153 0.0217358 -8.24313e-20)
(-2.55969 0.0196787 0)
(-2.56682 0.0176271 8.00469e-20)
(-2.57293 0.0155771 0)
(-2.57802 0.013525 -2.32874e-19)
(-2.58211 0.0114636 -7.63909e-20)
(-2.58523 0.00938962 -7.51476e-20)
(-2.58743 0.00730072 0)
(-2.58878 0.00522574 0)
(-2.58939 0.00323163 0)
(-2.58933 0.00139394 0)
(-2.58813 -0.000333017 0)
(-2.58578 -0.00201787 -1.34515e-19)
(-2.58225 -0.00367173 -1.31686e-19)
(-2.57752 -0.00530302 0)
(-2.57158 -0.00691303 6.28402e-20)
(-2.56444 -0.00850141 6.13376e-20)
(-2.55608 -0.0100673 0)
(-2.5465 -0.0116095 1.1675e-19)
(-2.53569 -0.0131265 0)
(-2.52367 -0.0146175 -5.53358e-20)
(-2.51043 -0.0160804 0)
(-2.49596 -0.017515 0)
(-2.48028 -0.0189186 1.00372e-19)
(-2.46339 -0.0202916 0)
(-2.44528 -0.021631 -4.64982e-20)
(-2.42597 -0.0229377 0)
(-2.40547 -0.0242086 0)
(-2.38379 -0.0254454 -4.14207e-20)
(-2.36093 -0.0266446 -3.90712e-20)
(-2.3369 -0.0278085 0)
(-2.31173 -0.0289337 3.56439e-20)
(-2.28542 -0.0300226 0)
(-2.25798 -0.0310716 -3.16119e-20)
(-2.22944 -0.0320835 -5.85351e-20)
(-2.19981 -0.0330544 0)
(-2.16911 -0.033987 0)
(-2.13736 -0.0348774 0)
(-2.10457 -0.035728 0)
(-2.07077 -0.0365358 -3.59644e-20)
(-2.03599 -0.0373041 -9.52421e-20)
(-2.00024 -0.0380288 0)
(-1.96356 -0.0387115 0)
(-1.92596 -0.0393554 0)
(-1.88745 -0.0399774 1.19403e-20)
(-1.84804 -0.0405906 0)
(-1.80773 -0.0411919 0)
(-1.76655 -0.0417608 5.56337e-21)
(-1.7246 -0.0422613 7.37423e-21)
(-1.68189 -0.042695 1.42103e-20)
(-1.63843 -0.0430839 0)
(-1.59425 -0.0434333 0)
(-1.54939 -0.0437465 3.0994e-20)
(-1.50385 -0.044026 -3.52546e-20)
(-1.45768 -0.0442732 0)
(-1.41088 -0.0444895 0)
(-1.36349 -0.0446775 -5.47556e-20)
(-1.31553 -0.0448331 1.81292e-19)
(-1.26701 -0.0449697 0)
(-1.21798 -0.0450784 0)
(-1.16843 -0.0451644 8.02318e-20)
(-1.11841 -0.0452258 0)
(-1.06793 -0.0452581 1.85699e-19)
(-1.01702 -0.0452692 -9.89077e-20)
(-0.96572 -0.0452564 0)
(-0.914034 -0.045225 1.14823e-19)
(-0.86199 -0.0451808 2.42558e-19)
(-0.809599 -0.0451278 0)
(-0.756871 -0.0450711 0)
(-0.70381 -0.0450145 -1.44983e-19)
(-0.650416 -0.0449602 0)
(-0.596689 -0.0449094 3.20192e-19)
(-0.542626 -0.0448604 0)
(-0.488229 -0.044813 0)
(-0.433499 -0.0447669 0)
(-0.378438 -0.0447249 0)
(-0.323044 -0.0446897 -2.04157e-19)
(-0.267311 -0.0446655 -2.13382e-19)
(-0.211232 -0.044654 0)
(-0.154797 -0.0446558 0)
(-0.0980029 -0.0446645 0)
(-0.0408604 -0.0446637 2.52538e-19)
(0.0166045 -0.0446197 0)
(0.0743331 -0.0444849 -5.21808e-19)
(0.132206 -0.0441959 5.23216e-19)
(0.189941 -0.0436126 5.24661e-19)
(0.247461 -0.0423662 5.23034e-19)
(0.302492 -0.0400283 5.29052e-19)
(0.360073 -0.03579 5.31207e-19)
(0.395996 -0.0231439 0)
(0.000374966 0.0231949 0)
(0.000704012 0.0403663 0)
(0.00647883 0.0329768 -2.30991e-18)
(0.0266801 -0.000784188 -1.62033e-18)
(0.0664102 -0.0607754 9.64326e-19)
(0.117997 -0.126971 6.26184e-19)
(0.171043 -0.17957 -3.64545e-22)
(0.218537 -0.209813 0)
(0.25781 -0.218488 0)
(0.288875 -0.210802 0)
(0.312958 -0.192586 0)
(0.331525 -0.168585 0)
(0.345798 -0.14202 -7.1419e-19)
(0.35664 -0.114801 0)
(0.364621 -0.087952 2.27866e-19)
(0.370119 -0.0619574 2.27308e-19)
(0.373402 -0.0370053 0)
(0.374668 -0.0131708 0)
(0.374167 0.00957583 0)
(0.372226 0.0314051 0)
(0.369108 0.0524536 2.4221e-19)
(0.364992 0.0726513 0)
(0.359791 0.091617 -2.59687e-19)
(0.353113 0.108593 0)
(0.344268 0.122446 0)
(0.332408 0.131755 0)
(0.316762 0.135031 -6.51042e-19)
(0.297035 0.13109 0)
(0.273808 0.119456 3.87053e-19)
(0.248721 0.100536 -8.6391e-19)
(0.224332 0.0755043 0)
(0.203577 0.045802 0)
(0.188896 0.0131101 0)
(0.18049 -0.0217208 6.24689e-19)
(0.176914 -0.0551019 5.47635e-19)
(0.171449 -0.0762903 0)
(0.157774 -0.0763976 0)
(0.135871 -0.058804 -7.534e-19)
(0.106621 -0.0313112 -7.75815e-19)
(0.0703644 0.00155078 8.65151e-19)
(0.0247884 0.0350773 0)
(-0.0404113 0.0662324 0)
(-0.131548 0.104287 0)
(-0.242856 0.153505 0)
(-0.37083 0.208424 -4.04272e-19)
(-0.509859 0.264415 -3.1953e-19)
(-0.652058 0.317466 2.61529e-19)
(-0.791554 0.362486 0)
(-0.924145 0.397971 0)
(-1.04609 0.423143 0)
(-1.15545 0.436935 0)
(-1.25172 0.439867 -1.44532e-19)
(-1.33456 0.432804 0)
(-1.40525 0.416819 0)
(-1.46568 0.394293 -1.2054e-19)
(-1.51825 0.368144 -1.1379e-19)
(-1.56469 0.340119 0)
(-1.60651 0.311583 2.12681e-19)
(-1.64522 0.283742 -1.02192e-19)
(-1.68197 0.257686 9.93669e-20)
(-1.71733 0.234007 0)
(-1.75154 0.212912 0)
(-1.78487 0.194285 0)
(-1.81743 0.17792 0)
(-1.84922 0.163719 8.84652e-20)
(-1.88022 0.151372 1.73687e-19)
(-1.91041 0.140578 8.51596e-20)
(-1.93979 0.131105 -8.36509e-20)
(-1.96833 0.122726 0)
(-1.99602 0.115259 1.61633e-19)
(-2.02286 0.108536 1.58985e-19)
(-2.04885 0.102429 1.56445e-19)
(-2.07396 0.096823 -1.53999e-19)
(-2.09822 0.0916313 0)
(-2.1216 0.0867765 -2.24096e-19)
(-2.14412 0.082204 0)
(-2.16577 0.0778626 7.23904e-20)
(-2.18654 0.0737178 7.14973e-20)
(-2.20643 0.0697359 0)
(-2.22544 0.0658948 0)
(-2.24357 0.0621722 1.36711e-19)
(-2.2608 0.0585529 0)
(-2.27714 0.0550223 1.32786e-19)
(-2.29257 0.0515693 0)
(-2.3071 0.0481843 -1.28943e-19)
(-2.3207 0.0448588 -2.542e-19)
(-2.33339 0.0415864 0)
(-2.34514 0.0383598 0)
(-2.35594 0.0351739 0)
(-2.36579 0.0320232 -1.19494e-19)
(-2.37469 0.0289001 0)
(-2.38264 0.0258021 -1.15715e-19)
(-2.38963 0.0227277 0)
(-2.39567 0.0196799 0)
(-2.40075 0.0166621 2.19997e-19)
(-2.40487 0.0136826 0)
(-2.40803 0.010751 1.06136e-19)
(-2.41024 0.00788082 0)
(-2.41147 0.00508076 1.02194e-19)
(-2.41169 0.00234124 0)
(-2.41085 -0.000378896 0)
(-2.40889 -0.00309309 0)
(-2.4058 -0.00578169 2.81198e-19)
(-2.40157 -0.00843976 9.14712e-20)
(-2.39618 -0.0110664 0)
(-2.38963 -0.0136598 0)
(-2.3819 -0.0162183 0)
(-2.373 -0.0187399 0)
(-2.36291 -0.0212224 -8.01092e-20)
(-2.35164 -0.0236639 1.55912e-19)
(-2.33918 -0.0260619 7.53508e-20)
(-2.32554 -0.0284146 -1.46323e-19)
(-2.3107 -0.0307197 -1.41432e-19)
(-2.29468 -0.0329752 -6.79738e-20)
(-2.27748 -0.0351789 0)
(-2.25911 -0.0373289 -1.26366e-19)
(-2.23956 -0.0394233 0)
(-2.21884 -0.0414606 1.15988e-19)
(-2.19697 -0.0434393 5.50207e-20)
(-2.17395 -0.0453584 0)
(-2.1498 -0.047217 -9.99152e-20)
(-2.12452 -0.0490141 -4.68468e-20)
(-2.09814 -0.050749 0)
(-2.07065 -0.0524207 -4.20034e-20)
(-2.04208 -0.0540287 1.15908e-19)
(-2.01245 -0.0555717 0)
(-1.98176 -0.0570491 0)
(-1.95004 -0.0584592 0)
(-1.91731 -0.0598012 0)
(-1.88359 -0.0610741 4.80601e-20)
(-1.8489 -0.0622776 4.10549e-20)
(-1.81326 -0.0634094 0)
(-1.7767 -0.0644675 0)
(-1.73923 -0.0654493 0)
(-1.70087 -0.0663602 0)
(-1.66164 -0.0672069 0)
(-1.62154 -0.068001 0)
(-1.58063 -0.0687579 -3.4795e-21)
(-1.53895 -0.06946 -1.03706e-21)
(-1.49653 -0.0700861 0)
(-1.45338 -0.0706449 0)
(-1.40952 -0.0711401 -2.91288e-20)
(-1.36498 -0.0715755 0)
(-1.31978 -0.071954 4.38902e-20)
(-1.27395 -0.0722783 4.97158e-20)
(-1.22751 -0.0725497 0)
(-1.18048 -0.0727732 0)
(-1.13289 -0.0729465 -7.19145e-20)
(-1.08475 -0.0730796 -1.55813e-19)
(-1.0361 -0.0731718 0)
(-0.986948 -0.0732218 0)
(-0.937317 -0.0732317 0)
(-0.887232 -0.0731938 -1.08097e-19)
(-0.83672 -0.0731152 1.15485e-19)
(-0.785804 -0.0729973 0)
(-0.734505 -0.0728453 2.58486e-19)
(-0.682843 -0.0726681 1.35598e-19)
(-0.63083 -0.072472 -2.88732e-19)
(-0.578477 -0.072264 0)
(-0.525788 -0.0720501 0)
(-0.472765 -0.0718337 -3.3481e-19)
(-0.419406 -0.0716164 -1.76384e-19)
(-0.365711 -0.0713958 0)
(-0.311679 -0.0711708 0)
(-0.257311 -0.0709405 0)
(-0.202608 -0.0707082 0)
(-0.147566 -0.0704766 -4.29415e-19)
(-0.0921806 -0.0702508 0)
(-0.0364435 -0.0700326 0)
(0.0196552 -0.0698216 0)
(0.0761223 -0.0696066 0)
(0.132954 -0.0693657 0)
(0.190127 -0.0690524 0)
(0.247581 -0.0686029 -5.02428e-19)
(0.305227 -0.067929 0)
(0.362842 -0.0668609 0)
(0.420414 -0.0650951 -1.04438e-18)
(0.476383 -0.0621178 5.27906e-19)
(0.534609 -0.0569258 -5.39091e-19)
(0.580355 -0.0441974 5.50576e-19)
(-0.00116179 0.0232805 0)
(0.00183611 0.027255 5.02784e-18)
(0.023677 -0.0153181 0)
(0.0718232 -0.098961 8.60176e-19)
(0.133028 -0.187121 0)
(0.190948 -0.25129 0)
(0.23627 -0.2826 -3.22677e-19)
(0.26768 -0.285941 0)
(0.287984 -0.270775 0)
(0.300838 -0.245487 0)
(0.309158 -0.215605 0)
(0.314786 -0.184201 0)
(0.318714 -0.152815 8.06316e-19)
(0.3214 -0.122157 3.96554e-19)
(0.323009 -0.0925357 -3.94037e-19)
(0.323581 -0.0640926 0)
(0.323131 -0.0368889 0)
(0.321673 -0.010966 0)
(0.319258 0.0136689 0)
(0.315979 0.0370463 0)
(0.311983 0.059205 4.26709e-19)
(0.307488 0.0801522 4.38261e-19)
(0.302708 0.099794 -4.54486e-19)
(0.297752 0.117813 4.76647e-19)
(0.292519 0.133561 0)
(0.286663 0.145997 0)
(0.279583 0.153666 5.78276e-19)
(0.270537 0.154867 0)
(0.258948 0.148041 0)
(0.244681 0.132128 7.47169e-19)
(0.22842 0.10698 8.3471e-19)
(0.211326 0.0736873 9.4514e-19)
(0.194718 0.0345068 0)
(0.177528 -0.00590883 0)
(0.1527 -0.035089 -9.40419e-19)
(0.11588 -0.0401123 0)
(0.0687225 -0.0222438 0)
(0.0117777 0.0117714 7.58088e-19)
(-0.0580859 0.0565756 -6.81062e-19)
(-0.143955 0.110638 5.47935e-19)
(-0.244758 0.171589 0)
(-0.359733 0.234907 0)
(-0.48526 0.298954 5.89143e-19)
(-0.615378 0.362293 0)
(-0.744532 0.421292 4.21244e-19)
(-0.867585 0.470733 5.54143e-19)
(-0.979646 0.508312 -4.94001e-19)
(-1.07838 0.534034 2.98504e-19)
(-1.16308 0.547777 0)
(-1.2335 0.550296 0)
(-1.29104 0.54276 2.36728e-19)
(-1.33762 0.526639 1.10324e-19)
(-1.37548 0.503644 0)
(-1.40725 0.475563 0)
(-1.4353 0.444502 9.48317e-20)
(-1.46147 0.412499 1.83455e-19)
(-1.48691 0.380869 0)
(-1.51241 0.35047 -1.69128e-19)
(-1.53844 0.321943 1.64862e-19)
(-1.56519 0.295718 -1.59982e-19)
(-1.5926 0.271968 0)
(-1.62051 0.25069 0)
(-1.64869 0.231753 0)
(-1.67697 0.214938 0)
(-1.70515 0.200061 0)
(-1.73308 0.186877 -1.38075e-19)
(-1.76061 0.175139 0)
(-1.78764 0.164633 0)
(-1.81411 0.155162 0)
(-1.83994 0.14656 -2.56294e-19)