/*--------------------------------*- C++ -*----------------------------------*\
  =========                 |
  \\      /  F ield         | OpenFOAM: The Open Source CFD Toolbox
   \\    /   O peration     | Website:  https://openfoam.org
    \\  /    A nd           | Version:  8
     \\/     M anipulation  |
\*---------------------------------------------------------------------------*/
FoamFile
{
    version     2.0;
    format      ascii;
    class       volScalarField;
    location    "400";
    object      nut;
}
// * * * * * * * * * * * * * * * * * * * * * * * * * * * * * * * * * * * * * //

dimensions      [0 2 -1 0 0 0 0];

internalField   nonuniform List<scalar> 
12225
(
1.30192e-05
2.93486e-05
2.28861e-05
3.23118e-05
2.58984e-05
1.92266e-05
3.42043e-05
2.87413e-05
2.10402e-05
2.24088e-05
1.90218e-05
1.85723e-05
1.60107e-05
3.19518e-05
2.54761e-05
1.99277e-05
3.1055e-05
2.54269e-05
0.000207167
8.45528e-05
6.2826e-05
6.67768e-05
5.27422e-05
4.70853e-05
5.45307e-05
4.95991e-05
4.96899e-05
4.11011e-05
4.32773e-05
4.47745e-05
4.57872e-05
5.2591e-05
5.08309e-05
5.10189e-05
5.53318e-05
5.34897e-05
0.00136526
0.000355198
0.000214003
0.000172219
0.000141352
0.00012144
0.000115468
0.000103137
9.64524e-05
8.81321e-05
8.04722e-05
7.623e-05
7.39451e-05
7.41748e-05
7.29434e-05
7.17573e-05
7.11746e-05
6.93439e-05
0.001474
0.000807849
0.000584574
0.00047149
0.000399289
0.000346217
0.000314762
0.000283694
0.000260846
0.000240014
0.000222983
0.000207717
0.000199002
0.000190464
0.000185366
0.000178139
0.000174092
0.000167446
0.00133829
0.00109858
0.000957162
0.000840783
0.000754088
0.00067743
0.000623424
0.000570787
0.000532371
0.000494546
0.000469049
0.000441789
0.00042554
0.000406149
0.000395012
0.000379246
0.000370497
0.000356297
0.00127768
0.00121207
0.00115156
0.00109503
0.00103483
0.000970583
0.000918222
0.000862679
0.000820153
0.000776334
0.000746163
0.000713414
0.000692203
0.000666639
0.000650706
0.00062875
0.000616109
0.000595877
0.00125444
0.00124214
0.00121867
0.00120391
0.00117846
0.0011442
0.00111164
0.00107266
0.00104
0.00100466
0.000978408
0.00094986
0.000929672
0.000905757
0.000889342
0.000867671
0.000853792
0.000833033
0.00125063
0.00124732
0.00123964
0.00123217
0.00122297
0.00120805
0.00119078
0.00116804
0.00114725
0.00112362
0.00110488
0.00108418
0.00106863
0.00105023
0.0010368
0.0010193
0.00100733
0.000989776
0.00124932
0.00124785
0.00124561
0.00124241
0.00123837
0.00123193
0.00122428
0.00121334
0.00120152
0.00118765
0.00117585
0.00116259
0.00115207
0.00113963
0.00113008
0.00111769
0.0011088
0.00109567
0.001249
0.00124773
0.00124656
0.00124494
0.00124335
0.0012407
0.00123774
0.0012329
0.00122779
0.00122159
0.00121514
0.00120809
0.00120195
0.00119505
0.0011892
0.00118217
0.00117632
0.00116846
0.00124894
0.00124767
0.00124655
0.00124534
0.00124427
0.0012429
0.00124156
0.00123955
0.00123735
0.00123467
0.00123194
0.0012288
0.00122591
0.00122265
0.00121974
0.0012163
0.0012132
0.00120918
0.00124893
0.00124766
0.0012465
0.00124535
0.00124432
0.00124324
0.00124224
0.00124111
0.00123996
0.00123864
0.00123738
0.00123594
0.00123463
0.00123312
0.00123179
0.00123018
0.00122878
0.00122695
0.00124893
0.00124766
0.00124648
0.00124534
0.00124428
0.00124324
0.00124228
0.00124132
0.0012404
0.00123947
0.0012386
0.00123769
0.00123685
0.00123597
0.00123517
0.0012343
0.00123349
0.00123259
0.00124892
0.00124766
0.00124647
0.00124533
0.00124425
0.00124322
0.00124224
0.0012413
0.00124041
0.00123955
0.00123874
0.00123794
0.0012372
0.00123646
0.00123577
0.00123508
0.00123444
0.00123379
0.00124892
0.00124766
0.00124646
0.00124531
0.00124423
0.00124319
0.00124221
0.00124127
0.00124038
0.00123952
0.00123871
0.00123793
0.00123718
0.00123647
0.00123578
0.00123513
0.0012345
0.0012339
0.00124892
0.00124766
0.00124645
0.00124531
0.00124422
0.00124318
0.00124219
0.00124125
0.00124035
0.00123949
0.00123867
0.00123789
0.00123714
0.00123642
0.00123574
0.00123508
0.00123445
0.00123385
0.00124892
0.00124765
0.00124645
0.0012453
0.00124421
0.00124317
0.00124218
0.00124123
0.00124033
0.00123947
0.00123865
0.00123786
0.00123711
0.00123639
0.0012357
0.00123504
0.00123441
0.00123381
0.00124892
0.00124765
0.00124645
0.0012453
0.00124421
0.00124317
0.00124217
0.00124123
0.00124032
0.00123946
0.00123864
0.00123785
0.00123709
0.00123638
0.00123568
0.00123503
0.00123439
0.00123379
0.00124892
0.00124765
0.00124645
0.0012453
0.00124421
0.00124317
0.00124218
0.00124123
0.00124033
0.00123947
0.00123864
0.00123785
0.0012371
0.00123638
0.00123569
0.00123502
0.00123439
0.00123378
0.00124892
0.00124766
0.00124645
0.00124531
0.00124421
0.00124318
0.00124219
0.00124124
0.00124034
0.00123947
0.00123864
0.00123785
0.00123708
0.00123635
0.00123565
0.00123498
0.00123433
0.00123371
0.00124892
0.00124766
0.00124645
0.00124532
0.00124422
0.00124319
0.0012422
0.00124125
0.00124031
0.0012394
0.0012385
0.00123763
0.00123676
0.00123594
0.00123512
0.00123436
0.00123357
0.00123285
0.00124889
0.00124769
0.00124646
0.00124532
0.0012442
0.00124318
0.00124209
0.00124102
0.00123979
0.00123847
0.00123703
0.00123557
0.00123406
0.00123261
0.00123113
0.00122978
0.00122834
0.00122705
0.00124875
0.00124788
0.0012465
0.00124511
0.00124371
0.00124239
0.00124056
0.00123849
0.00123547
0.00123188
0.00122779
0.00122356
0.00121924
0.00121506
0.00121115
0.00120754
0.00120416
0.00120039
0.00124839
0.00124906
0.0012461
0.00124221
0.00123859
0.00123416
0.00122816
0.00122157
0.00121212
0.00120061
0.00118803
0.00117585
0.00116371
0.00115296
0.00114333
0.00113494
0.00112655
0.00112004
0.00124978
0.00125477
0.00123948
0.00122211
0.00120561
0.00118898
0.00117338
0.00115067
0.00112383
0.00109685
0.00106937
0.00104422
0.00102135
0.00100314
0.000986772
0.000973824
0.000960059
0.000949036
0.0012729
0.00124911
0.00118805
0.00113431
0.00108809
0.00104441
0.000998604
0.000953584
0.000906793
0.000864193
0.000824074
0.000791173
0.000762458
0.00074075
0.0007212
0.000706482
0.000690701
0.000678601
0.00139002
0.00116085
0.000973295
0.000865345
0.000778455
0.000709028
0.000648703
0.000598707
0.00055286
0.000515007
0.000481354
0.000456063
0.000434689
0.00041975
0.000406379
0.000397082
0.000386735
0.000379379
0.0020609
0.000739703
0.000502818
0.000403836
0.000338744
0.00029613
0.000264611
0.000241069
0.000221554
0.000206361
0.000193414
0.000184588
0.000177035
0.000172513
0.000168689
0.000166302
0.00016378
0.000162226
0.00101152
0.000180191
0.000120543
9.92086e-05
8.78704e-05
8.15097e-05
7.7792e-05
7.55116e-05
7.44684e-05
7.39927e-05
7.43164e-05
7.53719e-05
7.57347e-05
7.65838e-05
7.80587e-05
7.94579e-05
8.02029e-05
8.01481e-05
1.41887e-05
1.74523e-05
2.0157e-05
2.18606e-05
2.29049e-05
2.32382e-05
2.33773e-05
2.33209e-05
2.31038e-05
2.28314e-05
2.25368e-05
2.22464e-05
2.19669e-05
2.17095e-05
2.14777e-05
2.1273e-05
2.10925e-05
2.09365e-05
1.66895e-12
1.88896e-10
9.60224e-10
3.76651e-09
1.25477e-08
3.81086e-08
9.87159e-08
1.94762e-07
3.13713e-07
4.3779e-07
5.48347e-07
6.32791e-07
6.88547e-07
7.06725e-07
6.96299e-07
6.65103e-07
6.10094e-07
5.171e-07
4.40297e-07
3.73468e-07
3.10271e-07
2.48803e-07
1.89899e-07
1.35226e-07
8.72366e-08
5.05848e-08
2.66809e-08
1.34354e-08
6.89238e-09
3.81356e-09
2.39967e-09
1.89573e-09
2.90896e-09
5.81788e-09
1.26092e-08
7.03907e-08
1.5793e-07
3.20519e-07
4.49863e-07
4.57667e-07
4.1824e-07
3.39559e-07
3.05096e-07
3.19597e-07
3.58618e-07
5.06197e-07
7.27112e-07
1.62616e-06
4.08499e-06
1.30483e-05
2.84533e-05
4.05629e-05
4.75501e-05
4.9936e-05
5.22076e-05
4.84049e-05
4.32377e-05
3.81091e-05
3.794e-05
3.20627e-05
3.13885e-05
3.13927e-05
3.23891e-05
3.33735e-05
3.4076e-05
3.45459e-05
3.52211e-05
3.57346e-05
3.63311e-05
3.6863e-05
3.74215e-05
3.79521e-05
3.84906e-05
3.90155e-05
3.95416e-05
4.00606e-05
4.05785e-05
4.10925e-05
4.16047e-05
4.21146e-05
4.26228e-05
4.31297e-05
4.36351e-05
4.41395e-05
4.46429e-05
4.51452e-05
4.5647e-05
4.61473e-05
4.66465e-05
4.71435e-05
4.76381e-05
4.81304e-05
4.86197e-05
4.9106e-05
4.9589e-05
5.00695e-05
5.05497e-05
5.10337e-05
5.15295e-05
5.20273e-05
5.25269e-05
5.30301e-05
5.35389e-05
5.40521e-05
5.45721e-05
5.50972e-05
5.56298e-05
5.61685e-05
5.67156e-05
5.72699e-05
5.78336e-05
5.84057e-05
5.89885e-05
5.95811e-05
6.01857e-05
6.08019e-05
6.14318e-05
6.20752e-05
6.27342e-05
6.3409e-05
6.41016e-05
6.48125e-05
6.55437e-05
6.6296e-05
6.7071e-05
6.78696e-05
6.86931e-05
6.95542e-05
7.04623e-05
7.13839e-05
7.2361e-05
7.33587e-05
7.44203e-05
7.55309e-05
7.67082e-05
7.79347e-05
7.81134e-05
7.78706e-05
7.76162e-05
7.73499e-05
7.70727e-05
7.67848e-05
7.64863e-05
7.61787e-05
7.58612e-05
7.55352e-05
7.52003e-05
7.48586e-05
7.45099e-05
7.41554e-05
7.37952e-05
7.34264e-05
7.30608e-05
7.26739e-05
7.23006e-05
7.19056e-05
7.15252e-05
7.11318e-05
7.07427e-05
7.03526e-05
6.9961e-05
6.95699e-05
6.91778e-05
6.87862e-05
6.83943e-05
6.80035e-05
6.76137e-05
6.72259e-05
6.68402e-05
6.6457e-05
6.60761e-05
6.56965e-05
6.53181e-05
6.49365e-05
6.45495e-05
6.41472e-05
6.37209e-05
6.32406e-05
6.26493e-05
6.10488e-05
7.47414e-12
1.21608e-09
1.64167e-08
8.70071e-08
3.78142e-07
1.20988e-06
2.76918e-06
5.03908e-06
7.79532e-06
1.09223e-05
1.40708e-05
1.69681e-05
1.94138e-05
2.12303e-05
2.22845e-05
2.25866e-05
2.2208e-05
2.137e-05
1.89601e-05
1.57261e-05
1.20476e-05
8.8078e-06
6.1798e-06
4.12622e-06
2.59494e-06
1.60071e-06
9.81433e-07
6.12359e-07
3.84595e-07
2.58677e-07
1.93827e-07
1.73025e-07
2.18197e-07
3.84204e-07
6.63106e-07
4.09218e-06
9.02471e-06
1.66979e-05
2.15597e-05
2.28405e-05
2.1437e-05
1.94877e-05
1.73897e-05
1.70066e-05
1.71198e-05
1.82014e-05
2.3105e-05
3.26888e-05
4.36854e-05
5.54731e-05
6.66226e-05
7.63804e-05
8.48595e-05
9.39914e-05
0.000107921
0.000118839
0.000130032
0.000142257
0.000153826
0.000164041
0.000177368
0.000191998
0.00020501
0.000217822
0.00022968
0.000241223
0.000252614
0.000263513
0.000273871
0.000284071
0.000293885
0.000303528
0.000312903
0.000322118
0.000331136
0.000340011
0.00034873
0.000357321
0.000365777
0.000374115
0.000382332
0.000390435
0.000398425
0.000406304
0.000414074
0.000421735
0.000429289
0.000436734
0.00044407
0.000451292
0.000458391
0.000465361
0.000472185
0.00047884
0.000485285
0.000491465
0.000497296
0.000502657
0.000507393
0.000511929
0.000516384
0.000520688
0.000524887
0.000528951
0.000532894
0.000536707
0.000540391
0.000543943
0.000547362
0.000550646
0.000553794
0.000556803
0.000559673
0.000562402
0.000564989
0.000567432
0.000569731
0.000571884
0.00057389
0.000575748
0.000577458
0.000579018
0.000580428
0.000581685
0.00058279
0.00058374
0.000584532
0.000585157
0.000585619
0.000585932
0.000586117
0.000586023
0.000585966
0.00058563
0.000585335
0.000585099
0.000585042
0.000584813
0.000584454
0.000583966
0.000583353
0.000582615
0.000581757
0.000580782
0.000579692
0.00057849
0.00057718
0.000575768
0.000574258
0.000572651
0.000570937
0.000569264
0.00056727
0.000565456
0.000563285
0.000561243
0.000559013
0.000556769
0.000554476
0.000552119
0.000549716
0.000547265
0.000544764
0.000542215
0.000539616
0.000536973
0.000534286
0.000531563
0.000528804
0.000526012
0.000523181
0.000520304
0.000517377
0.00051435
0.00051118
0.000507785
0.00050403
0.000499613
0.000493758
0.000477425
1.92001e-11
3.2766e-09
6.16091e-08
3.60235e-07
1.14362e-06
2.98575e-06
6.32407e-06
1.09641e-05
1.66805e-05
2.31559e-05
3.0013e-05
3.67923e-05
4.28762e-05
4.79049e-05
5.16841e-05
5.41695e-05
5.54361e-05
5.56517e-05
5.39341e-05
5.09341e-05
4.61258e-05
4.0049e-05
3.28561e-05
2.57144e-05
1.92126e-05
1.36476e-05
9.25788e-06
6.16015e-06
3.93326e-06
2.65401e-06
1.9361e-06
1.53272e-06
1.65805e-06
2.75833e-06
5.96365e-06
2.0707e-05
4.17977e-05
5.73955e-05
6.31672e-05
5.92452e-05
4.61799e-05
4.08163e-05
4.39976e-05
5.08334e-05
5.8488e-05
6.95237e-05
8.25117e-05
9.52762e-05
0.000110346
0.000128599
0.000148652
0.000171192
0.00019619
0.000225022
0.000256154
0.000286008
0.000316467
0.000347443
0.000376616
0.000405492
0.000434123
0.000461477
0.000487136
0.000512544
0.000536185
0.000559267
0.000581518
0.00060274
0.00062337
0.000643474
0.00066305
0.000682231
0.000701007
0.000719457
0.000737583
0.000755427
0.000772994
0.000790306
0.000807366
0.000824186
0.000840768
0.000857116
0.00087323
0.000889111
0.000904758
0.000920168
0.000935338
0.000950262
0.00096493
0.000979328
0.000993439
0.00100724
0.00102071
0.00103382
0.00104652
0.00105877
0.00107054
0.00108181
0.00109266
0.00110329
0.00111368
0.00112378
0.00113363
0.00114321
0.00115251
0.00116152
0.00117025
0.0011787
0.00118685
0.0011947
0.00120226
0.00120951
0.00121646
0.00122311
0.00122944
0.00123546
0.00124117
0.00124656
0.00125163
0.00125639
0.00126082
0.00126493
0.00126872
0.00127218
0.00127531
0.00127811
0.00128058
0.00128272
0.00128454
0.00128604
0.00128723
0.00128808
0.00128868
0.00128889
0.00128901
0.00128897
0.00128877
0.00128825
0.00128746
0.00128639
0.00128504
0.00128341
0.00128151
0.00127935
0.00127693
0.00127426
0.00127134
0.0012682
0.00126484
0.00126127
0.0012575
0.0012536
0.00124933
0.00124506
0.00124038
0.00123572
0.00123078
0.00122575
0.0012206
0.00121532
0.00120993
0.00120443
0.00119884
0.00119313
0.00118733
0.00118142
0.00117543
0.00116936
0.00116323
0.00115703
0.00115076
0.00114439
0.0011379
0.00113123
0.00112426
0.00111683
0.00110863
0.00109891
0.00108574
0.00105606
7.32455e-11
1.24053e-08
1.94574e-07
7.90934e-07
2.6108e-06
7.05212e-06
1.39342e-05
2.31757e-05
3.4043e-05
4.54134e-05
5.63535e-05
6.63099e-05
7.47823e-05
8.11463e-05
8.59201e-05
8.88562e-05
8.99497e-05
8.95539e-05
8.78005e-05
8.44393e-05
7.97198e-05
7.40333e-05
6.65231e-05
5.76241e-05
4.79064e-05
3.8201e-05
2.94029e-05
2.21087e-05
1.65267e-05
1.21878e-05
9.39621e-06
7.51625e-06
8.86336e-06
1.58122e-05
3.39547e-05
5.71737e-05
7.40644e-05
7.74049e-05
7.51507e-05
7.40673e-05
7.59294e-05
8.13639e-05
9.05564e-05
0.000103641
0.000117259
0.000131238
0.000155346
0.000178048
0.00020889
0.000242315
0.000280101
0.000320679
0.000363972
0.000409
0.00045449
0.000499322
0.000543453
0.00058674
0.000628013
0.000668273
0.00070703
0.000744334
0.000780001
0.000814782
0.000848108
0.000880298
0.000911513
0.000941817
0.000971411
0.00100036
0.00102871
0.00105656
0.00108393
0.00111086
0.00113739
0.00116353
0.00118929
0.00121469
0.00123973
0.00126442
0.00128876
0.00131275
0.00133638
0.00135966
0.00138257
0.00140511
0.00142728
0.00144905
0.00147044
0.0014914
0.00151193
0.00153202
0.00155163
0.00157075
0.00158937
0.00160748
0.00162508
0.0016422
0.0016589
0.00167524
0.00169118
0.00170673
0.00172187
0.0017366
0.00175091
0.00176479
0.00177824
0.00179125
0.00180383
0.00181595
0.00182763
0.00183885
0.00184961
0.00185991
0.00186975
0.00187912
0.00188803
0.00189646
0.00190442
0.0019119
0.00191891
0.00192544
0.00193149
0.00193705
0.00194214
0.00194674
0.00195086
0.0019545
0.00195767
0.00196038
0.00196263
0.00196444
0.00196576
0.00196657
0.00196714
0.00196734
0.00196718
0.00196656
0.00196553
0.00196408
0.00196221
0.00195992
0.00195724
0.00195416
0.0019507
0.00194687
0.00194268
0.00193815
0.0019333
0.00192812
0.00192266
0.00191691
0.00191078
0.00190445
0.00189773
0.00189085
0.00188367
0.0018763
0.00186874
0.00186099
0.00185307
0.001845
0.00183676
0.00182836
0.00181981
0.00181112
0.00180229
0.00179335
0.00178431
0.00177517
0.00176593
0.00175656
0.00174702
0.00173723
0.00172706
0.0017163
0.00170453
0.00169072
0.00167224
0.00163702
2.47832e-10
3.65552e-08
4.23736e-07
2.03796e-06
6.97228e-06
1.66942e-05
3.08329e-05
4.75371e-05
6.48347e-05
8.10046e-05
9.49174e-05
0.000105614
0.000113508
0.000118805
0.00012165
0.000122628
0.00012199
0.000119991
0.00011684
0.000112494
0.000107032
0.000100949
9.34519e-05
8.46485e-05
7.45447e-05
6.34884e-05
5.2444e-05
4.25376e-05
3.4532e-05
2.63061e-05
2.17132e-05
2.21337e-05
3.13367e-05
5.28623e-05
7.49072e-05
8.81579e-05
9.46523e-05
9.80728e-05
0.000101927
0.000108801
0.000120013
0.000136512
0.000147021
0.000162998
0.000189887
0.000219626
0.000256731
0.000296397
0.000343339
0.000391983
0.00044432
0.000498057
0.000553078
0.000608201
0.000662837
0.000716547
0.000768945
0.000820027
0.000869298
0.000916913
0.00096337
0.00100831
0.00105167
0.00109377
0.0011346
0.00117432
0.00121307
0.00125093
0.00128803
0.00132442
0.00136018
0.00139536
0.00142999
0.00146411
0.00149773
0.00153087
0.00156354
0.00159574
0.00162748
0.00165876
0.00168956
0.0017199
0.00174977
0.00177916
0.00180806
0.00183647
0.00186438
0.00189178
0.00191866
0.00194501
0.00197082
0.00199607
0.00202077
0.00204489
0.00206845
0.00209145
0.00211391
0.00213585
0.00215729
0.00217823
0.00219867
0.00221859
0.00223798
0.00225685
0.00227518
0.00229296
0.00231018
0.00232685
0.00234295
0.00235849
0.00237345
0.00238783
0.00240164
0.00241486
0.0024275
0.00243955
0.00245101
0.00246188
0.00247215
0.00248183
0.00249091
0.00249939
0.00250728
0.00251456
0.00252125
0.00252735
0.00253284
0.00253776
0.00254209
0.00254585
0.00254904
0.00255171
0.0025537
0.00255512
0.00255615
0.00255668
0.0025567
0.00255617
0.00255513
0.00255356
0.00255147
0.00254888
0.00254578
0.0025422
0.00253815
0.00253364
0.00252869
0.00252331
0.00251752
0.00251133
0.00250476
0.00249782
0.00249046
0.00248277
0.00247468
0.00246631
0.0024576
0.00244863
0.0024394
0.00242994
0.00242025
0.00241035
0.00240024
0.00238992
0.0023794
0.0023687
0.00235782
0.00234678
0.0023356
0.00232427
0.00231281
0.0023012
0.00228939
0.0022773
0.00226482
0.0022517
0.00223755
0.00222134
0.0022
0.00216454
7.97371e-10
9.00152e-08
1.08469e-06
5.49039e-06
1.77462e-05
3.71975e-05
6.03195e-05
8.36524e-05
0.00010382
0.000119585
0.000131239
0.000139588
0.000144623
0.000147234
0.000147934
0.000147098
0.000144977
0.000141775
0.000137613
0.000132439
0.000126425
0.000119815
0.00011202
0.000103195
8.9662e-05
7.42029e-05
5.93595e-05
4.59166e-05
3.6329e-05
3.32236e-05
3.78416e-05
5.39234e-05
7.73104e-05
9.70221e-05
0.000110158
0.000118251
0.000124353
0.000132464
0.000145598
0.000162174
0.00017254
0.000191029
0.000217704
0.000249495
0.000289612
0.000334139
0.000384943
0.00043858
0.000496493
0.000555577
0.000616582
0.000677989
0.000739554
0.000800561
0.000860714
0.000919827
0.000977211
0.00103337
0.00108833
0.0011416
0.00119353
0.00124402
0.00129315
0.00134103
0.00138775
0.00143342
0.00147813
0.00152198
0.00156504
0.00160738
0.00164903
0.00169005
0.00173046
0.00177029
0.00180954
0.00184822
0.00188634
0.00192389
0.00196088
0.00199729
0.00203314
0.0020684
0.00210307
0.00213716
0.00217066
0.00220355
0.00223584
0.00226753
0.00229859
0.00232904
0.00235886
0.00238805
0.0024166
0.00244453
0.00247182
0.00249851
0.0025246
0.00255009
0.00257499
0.0025993
0.00262301
0.0026461
0.00266859
0.00269045
0.00271168
0.00273227
0.00275222
0.00277152
0.00279017
0.00280816
0.00282548
0.00284215
0.00285814
0.00287347
0.00288813
0.00290211
0.00291543
0.00292806
0.00294002
0.0029513
0.00296191
0.00297184
0.00298109
0.00298967
0.00299757
0.0030048
0.00301137
0.00301728
0.00302256
0.00302718
0.0030312
0.00303456
0.00303715
0.00303916
0.00304066
0.00304157
0.00304188
0.0030416
0.00304073
0.00303927
0.00303724
0.00303463
0.00303147
0.00302777
0.00302353
0.00301879
0.00301354
0.00300781
0.00300161
0.00299496
0.00298787
0.00298033
0.00297235
0.00296397
0.00295516
0.00294598
0.00293645
0.00292659
0.00291643
0.00290598
0.00289527
0.00288429
0.00287307
0.00286159
0.00284987
0.00283793
0.00282578
0.00281344
0.00280092
0.00278823
0.00277539
0.00276237
0.00274915
0.00273565
0.00272178
0.00270733
0.00269193
0.00267466
0.00265279
0.00261927
2.57966e-09
2.32425e-07
2.87755e-06
1.49826e-05
3.86783e-05
6.81569e-05
9.57911e-05
0.000118108
0.000134966
0.000147404
0.000155961
0.000160997
0.000163529
0.000164177
0.000163373
0.000161409
0.00015847
0.000154616
0.000149765
0.000143844
0.000137122
0.000129277
0.000119034
0.000101829
8.70405e-05
7.392e-05
6.28543e-05
5.67249e-05
5.91296e-05
6.91675e-05
8.68724e-05
0.000111959
0.00012722
0.000138801
0.000147759
0.000157077
0.000170738
0.000185852
0.000195443
0.000213807
0.000239526
0.000271028
0.00031049
0.000356058
0.000408312
0.000464483
0.000524612
0.000586757
0.000651024
0.000715989
0.00078162
0.000847153
0.000912323
0.000976696
0.00103983
0.001102
0.00116315
0.0012229
0.00128136
0.00133842
0.00139419
0.00144867
0.00150193
0.00155405
0.00160509
0.00165514
0.00170427
0.00175255
0.00180005
0.0018468
0.00189286
0.00193823
0.00198295
0.00202702
0.00207045
0.00211324
0.00215539
0.00219688
0.00223771
0.00227788
0.00231737
0.00235619
0.00239433
0.00243179
0.00246856
0.00250465
0.00254005
0.00257476
0.00260879
0.00264213
0.00267477
0.00270673
0.00273801
0.00276859
0.00279849
0.00282771
0.00285624
0.00288409
0.00291129
0.00293783
0.00296369
0.00298889
0.0030134
0.00303723
0.00306037
0.00308282
0.00310457
0.00312562
0.00314598
0.00316563
0.00318457
0.0032028
0.0032203
0.00323709
0.00325315
0.00326848
0.00328309
0.00329698
0.00331013
0.00332256
0.00333426
0.00334523
0.00335548
0.00336501
0.00337382
0.00338191
0.00338929
0.00339599
0.00340203
0.00340734
0.00341197
0.00341592
0.00341905
0.0034216
0.00342353
0.00342483
0.00342549
0.00342551
0.0034249
0.00342368
0.00342185
0.00341944
0.00341648
0.00341295
0.00340887
0.00340425
0.00339909
0.00339342
0.00338724
0.00338057
0.00337342
0.0033658
0.0033577
0.00334915
0.00334016
0.00333076
0.00332097
0.00331082
0.00330033
0.00328951
0.00327839
0.00326698
0.00325528
0.00324329
0.00323103
0.00321851
0.00320575
0.00319277
0.00317959
0.00316622
0.00315268
0.00313894
0.003125
0.00311081
0.00309629
0.00308128
0.00306551
0.00304821
0.00302728
0.00299689
7.79412e-09
6.17821e-07
7.79999e-06
3.18341e-05
6.62835e-05
0.000100466
0.000128484
0.00014891
0.00016264
0.000170807
0.000174802
0.000176403
0.000176221
0.000174705
0.00017219
0.000168834
0.000164578
0.000159397
0.000153444
0.000146724
0.000138989
0.000128382
0.000109931
9.37955e-05
8.14702e-05
7.4788e-05
7.61067e-05
8.07764e-05
9.53504e-05
0.000118775
0.00014333
0.000164995
0.000176128
0.000186842
0.000200012
0.000206433
0.000215769
0.000232553
0.000255794
0.000285938
0.000323231
0.000367026
0.000417652
0.000473578
0.000533994
0.000597092
0.000662418
0.000729003
0.000796559
0.000864401
0.000932279
0.000999815
0.0010664
0.00113221
0.00119746
0.00126151
0.00132447
0.00138622
0.00144677
0.00150611
0.00156427
0.00162127
0.00167717
0.00173202
0.00178587
0.0018388
0.00189085
0.00194208
0.00199254
0.00204227
0.00209128
0.00213961
0.00218725
0.00223421
0.00228048
0.00232605
0.00237092
0.00241507
0.00245849
0.00250116
0.00254309
0.00258426
0.00262468
0.00266434
0.00270324
0.00274139
0.0027788
0.00281547
0.0028514
0.0028866
0.00292107
0.00295482
0.00298784
0.00302014
0.00305172
0.00308257
0.0031127
0.00314213
0.00317086
0.00319891
0.00322625
0.00325289
0.00327883
0.00330404
0.00332854
0.00335232
0.00337536
0.00339767
0.00341924
0.00344007
0.00346015
0.00347949
0.00349807
0.0035159
0.00353298
0.0035493
0.00356487
0.00357969
0.00359375
0.00360705
0.00361961
0.00363141
0.00364247
0.00365278
0.00366234
0.00367117
0.00367927
0.00368672
0.00369341
0.00369939
0.00370466
0.00370921
0.00371294
0.0037161
0.00371857
0.00372039
0.00372155
0.00372206
0.00372192
0.00372115
0.00371975
0.00371773
0.00371512
0.00371192
0.00370814
0.0037038
0.00369891
0.00369348
0.00368753
0.00368106
0.00367409
0.00366661
0.00365864
0.0036502
0.00364129
0.00363194
0.00362219
0.00361204
0.00360153
0.00359066
0.00357947
0.00356795
0.00355612
0.00354397
0.00353152
0.00351879
0.00350579
0.00349254
0.00347908
0.0034654
0.00345153
0.00343746
0.00342319
0.00340869
0.00339393
0.00337889
0.00336332
0.0033466
0.00332707
0.00330042
2.02865e-08
1.54122e-06
1.72267e-05
5.32562e-05
9.4206e-05
0.000128543
0.000153948
0.000170765
0.000181149
0.000186262
0.000187546
0.000186128
0.000183038
0.000178974
0.000174292
0.000169102
0.000163323
0.000157042
0.000150077
0.000142747
0.000134599
0.000121816
0.00011164
0.000106766
0.000100387
9.94808e-05
0.000109486
0.000126846
0.00014731
0.000168291
0.00018715
0.000202082
0.000212207
0.000221737
0.000232444
0.0002479
0.000268397
0.00029592
0.000330161
0.000371078
0.000418357
0.000471394
0.000529612
0.000591656
0.000656479
0.00072301
0.00079077
0.000859215
0.000928023
0.000996819
0.00106512
0.0011327
0.00120008
0.00126649
0.00133207
0.00139661
0.00146011
0.00152253
0.00158384
0.00164406
0.00170321
0.00176131
0.0018184
0.00187454
0.00192976
0.00198412
0.00203764
0.00209039
0.0021424
0.00219372
0.00224436
0.00229433
0.00234364
0.00239226
0.00244017
0.00248737
0.00253383
0.00257955
0.00262448
0.00266863
0.00271197
0.0027545
0.00279624
0.00283721
0.00287741
0.0029168
0.00295539
0.00299319
0.0030302
0.00306644
0.00310192
0.00313664
0.00317061
0.00320385
0.00323636
0.00326815
0.00329923
0.00332961
0.00335927
0.00338823
0.00341648
0.003444
0.00347081
0.00349689
0.00352223
0.00354684
0.00357071
0.00359384
0.00361621
0.00363783
0.0036587
0.0036788
0.00369814
0.00371672
0.00373453
0.00375159
0.00376787
0.00378339
0.00379815
0.00381215
0.00382539
0.00383787
0.00384959
0.00386057
0.00387079
0.00388028
0.00388907
0.00389714
0.00390447
0.00391108
0.00391698
0.00392215
0.00392654
0.00393032
0.00393342
0.00393585
0.00393761
0.00393871
0.00393917
0.003939
0.00393819
0.00393677
0.00393475
0.00393214
0.00392895
0.0039252
0.00392089
0.00391603
0.00391064
0.00390473
0.0038983
0.00389135
0.0038839
0.00387596
0.00386755
0.00385868
0.00384939
0.0038397
0.00382962
0.00381917
0.00380837
0.00379723
0.00378574
0.00377392
0.00376179
0.00374934
0.00373661
0.00372362
0.00371038
0.00369691
0.00368323
0.00366935
0.00365527
0.00364098
0.00362647
0.0036117
0.0035965
0.00358043
0.00356219
0.00353891
4.50846e-08
3.55956e-06
3.09201e-05
7.73106e-05
0.000121637
0.000154998
0.000176787
0.000190196
0.00019623
0.000196912
0.000194149
0.000189309
0.0001833
0.000176707
0.000169608
0.000162191
0.00015439
0.000146242
0.000138028
0.000129806
0.000121728
0.000115135
0.000112148
0.000114907
0.000123753
0.000137788
0.000154232
0.000172162
0.00018996
0.00020605
0.000218905
0.000230804
0.000243816
0.000259267
0.000278182
0.000302871
0.000333661
0.000370966
0.000414293
0.000463289
0.00051745
0.000576106
0.000638419
0.000703303
0.000769895
0.000837518
0.000905777
0.000974314
0.00104288
0.0011108
0.00117846
0.00124569
0.00131219
0.00137783
0.00144256
0.00150632
0.00156908
0.00163082
0.00169155
0.00175126
0.00180997
0.00186773
0.00192458
0.00198056
0.00203573
0.00209012
0.00214373
0.00219661
0.00224884
0.00230046
0.00235148
0.00240193
0.00245184
0.00250132
0.00255024
0.00259845
0.00264588
0.00269252
0.00273832
0.00278327
0.00282734
0.00287053
0.00291282
0.00295422
0.00299472
0.0030344
0.00307329
0.0031114
0.00314875
0.00318535
0.00322121
0.00325635
0.00329077
0.00332448
0.0033575
0.00338982
0.00342143
0.00345235
0.00348257
0.00351208
0.00354088
0.00356897
0.00359635
0.003623
0.00364893
0.00367413
0.0036986
0.00372232
0.0037453
0.00376753
0.00378901
0.00380973
0.00382969
0.00384889
0.00386733
0.003885
0.00390192
0.00391807
0.00393346
0.00394809
0.00396197
0.00397509
0.00398747
0.00399909
0.00400997
0.00402013
0.0040296
0.00403832
0.00404631
0.0040536
0.00406019
0.00406604
0.00407118
0.00407566
0.00407947
0.0040826
0.00408507
0.00408689
0.00408808
0.00408863
0.00408857
0.0040879
0.00408662
0.00408477
0.00408234
0.00407935
0.00407581
0.00407172
0.0040671
0.00406196
0.00405629
0.0040501
0.0040434
0.0040362
0.00402852
0.00402039
0.00401182
0.00400284
0.00399347
0.00398372
0.0039736
0.00396312
0.00395229
0.0039411
0.00392958
0.00391774
0.00390559
0.00389316
0.00388047
0.00386754
0.00385439
0.00384101
0.00382744
0.00381367
0.00379973
0.00378557
0.00377114
0.00375607
0.00373932
0.00371967
8.52748e-08
7.25859e-06
4.54765e-05
9.80544e-05
0.000143923
0.000176185
0.000195882
0.000204956
0.00020664
0.0002035
0.000197402
0.000189661
0.000180967
0.000171931
0.000162984
0.000154272
0.000146512
0.000139932
0.000135046
0.000131816
0.000131263
0.000134164
0.00014075
0.000150862
0.000163826
0.000178651
0.00019419
0.000209413
0.000223085
0.000236007
0.000250577
0.000266716
0.000285355
0.000308029
0.000335761
0.00036927
0.000408413
0.000452963
0.000502425
0.000556368
0.00061427
0.000675475
0.000739198
0.000804615
0.000871076
0.000938105
0.00100539
0.00107242
0.00113901
0.00120558
0.00127146
0.00133665
0.00140103
0.00146449
0.001527
0.00158855
0.00164913
0.00170875
0.00176743
0.00182518
0.00188194
0.00193783
0.00199294
0.00204731
0.00210103
0.00215421
0.00220708
0.00225955
0.00231147
0.00236284
0.00241365
0.00246393
0.00251367
0.00256282
0.00261134
0.00265924
0.00270642
0.0027529
0.00279861
0.00284351
0.00288756
0.00293073
0.00297303
0.00301447
0.00305509
0.00309491
0.00313396
0.00317225
0.00320979
0.0032466
0.0032827
0.0033181
0.0033528
0.00338682
0.00342016
0.00345282
0.0034848
0.0035161
0.00354672
0.00357665
0.0036059
0.00363445
0.00366231
0.00368947
0.00371592
0.00374166
0.00376667
0.00379097
0.00381453
0.00383736
0.00385944
0.00388078
0.00390138
0.00392122
0.0039403
0.00395864
0.00397622
0.00399304
0.00400911
0.00402444
0.00403901
0.00405284
0.00406593
0.00407828
0.00408989
0.00410081
0.00411099
0.00412046
0.00412922
0.00413728
0.00414465
0.0041513
0.00415727
0.00416258
0.00416719
0.00417115
0.00417445
0.00417712
0.00417916
0.00418057
0.00418138
0.00418159
0.00418121
0.00418025
0.00417873
0.00417665
0.00417403
0.00417087
0.00416718
0.00416297
0.00415823
0.00415297
0.0041472
0.00414092
0.00413416
0.00412695
0.0041193
0.00411123
0.00410277
0.00409391
0.00408469
0.00407509
0.00406512
0.00405479
0.00404411
0.0040331
0.00402177
0.00401015
0.00399825
0.0039861
0.0039737
0.00396108
0.00394825
0.00393524
0.00392206
0.00390873
0.00389521
0.00388125
0.00386594
0.00384946
1.35375e-07
1.23373e-05
6.15032e-05
0.000119817
0.000165708
0.000195841
0.000211679
0.000216967
0.000215271
0.000209297
0.000200906
0.000191304
0.000181951
0.000172973
0.000165411
0.000158786
0.000154278
0.000152028
0.000151975
0.000154332
0.000159287
0.000166794
0.000176574
0.000188198
0.000201167
0.00021463
0.000227652
0.000240514
0.000255251
0.000272221
0.000290865
0.000312342
0.000337853
0.000368036
0.000403172
0.000443233
0.000487878
0.000536749
0.000589435
0.000645534
0.000704567
0.000765949
0.000829023
0.000893159
0.000957844
0.00102267
0.00108702
0.00115129
0.00121502
0.00127819
0.00134058
0.00140213
0.00146275
0.00152232
0.0015808
0.00163834
0.00169498
0.00175077
0.00180581
0.00186025
0.00191448
0.00196816
0.00202116
0.00207349
0.0021252
0.00217632
0.00222679
0.00227671
0.00232622