/*--------------------------------*- C++ -*----------------------------------*\
  =========                 |
  \\      /  F ield         | OpenFOAM: The Open Source CFD Toolbox
   \\    /   O peration     | Website:  https://openfoam.org
    \\  /    A nd           | Version:  8
     \\/     M anipulation  |
\*---------------------------------------------------------------------------*/
FoamFile
{
    version     2.0;
    format      ascii;
    class       volScalarField;
    location    "400";
    object      omega;
}
// * * * * * * * * * * * * * * * * * * * * * * * * * * * * * * * * * * * * * //

dimensions      [0 0 -1 0 0 0 0];

internalField   nonuniform List<scalar> 
12225
(
32582.3
32582.3
38596
32582.3
46392.1
41885.8
32582.3
46657.2
46681.1
50145.4
52278.5
50811
43997.2
32582.3
44807.9
40313
32582.3
45294.1
2657.69
8200.24
11713.2
11939.9
14952.6
15888
14789.4
16472.9
16229.2
19913.4
19495.8
19234.7
18648.3
17224.1
17955.3
17457.9
16678.9
17480.6
398.075
1563.34
2619.94
3240.28
3893.25
4428.15
4611.76
5056.53
5318
5692.92
6166.61
6439.61
6588.33
6518.88
6638.29
6719.31
6769.76
6968.05
370.378
677.127
933.912
1148.91
1345.24
1531.08
1664.9
1816.88
1945.71
2077.85
2203.28
2327.84
2398.3
2472.33
2511.7
2583.92
2615.03
2690.58
409.316
496.537
567.386
641.831
711.186
784.896
845.676
913.599
969.2
1031.17
1076
1129.78
1161.71
1204.86
1227.82
1266.69
1285.27
1323.56
429.015
449.709
470.924
492.428
518.251
548.984
576.466
608.803
635.446
665.784
687.48
713.406
730.091
752.525
765.846
786.963
797.868
818.92
437.057
438.763
444.772
447.769
455.084
466.125
477.112
491.429
503.786
518.213
528.963
541.594
550.288
561.629
569.011
580.031
586.448
597.702
438.41
436.929
437.174
437.437
438.476
441.6
445.721
451.972
457.732
464.851
470.319
476.861
481.488
487.58
491.678
497.813
501.538
508.061
438.87
436.743
435.046
433.795
432.976
433.056
433.636
435.391
437.551
440.532
442.901
445.916
448.051
451.014
452.99
456.146
458.029
461.649
438.984
436.775
434.687
432.875
431.19
429.961
428.932
428.599
428.428
428.685
429.115
429.819
430.297
431.099
431.614
432.587
433.216
434.573
438.999
436.788
434.668
432.708
430.824
429.153
427.577
426.306
425.183
424.289
423.491
422.896
422.291
421.868
421.398
421.148
420.845
420.876
439.001
436.783
434.669
432.679
430.773
428.992
427.292
425.731
424.267
422.939
421.674
420.539
419.438
418.461
417.493
416.673
415.837
415.191
439.001
436.779
434.665
432.666
430.76
428.956
427.236
425.613
424.067
422.615
421.225
419.923
418.67
417.501
416.371
415.325
414.314
413.387
439.001
436.776
434.661
432.657
430.749
428.94
427.216
425.58
424.02
422.54
421.127
419.785
418.502
417.284
416.118
415.011
413.954
412.95
439.001
436.773
434.658
432.65
430.742
428.928
427.203
425.562
424
422.513
421.095
419.744
418.456
417.227
416.055
414.936
413.868
412.849
439.001
436.772
434.656
432.646
430.736
428.921
427.194
425.551
423.987
422.496
421.077
419.723
418.432
417.201
416.026
414.904
413.833
412.811
439.001
436.772
434.655
432.644
430.733
428.916
427.188
425.543
423.978
422.486
421.064
419.709
418.417
417.184
416.008
414.885
413.813
412.789
439.001
436.771
434.655
432.643
430.732
428.914
427.186
425.54
423.974
422.481
421.059
419.703
418.41
417.177
416
414.877
413.804
412.78
439.001
436.772
434.655
432.645
430.733
428.916
427.187
425.542
423.976
422.484
421.061
419.706
418.413
417.18
416.003
414.88
413.808
412.784
439.001
436.772
434.657
432.646
430.737
428.92
427.193
425.548
423.984
422.493
421.074
419.721
418.432
417.202
416.029
414.91
413.843
412.823
439.003
436.773
434.66
432.649
430.743
428.926
427.204
425.564
424.011
422.535
421.139
419.811
418.552
417.351
416.213
415.122
414.094
413.105
439.014
436.766
434.663
432.657
430.766
428.952
427.263
425.665
424.206
422.857
421.626
420.478
419.418
418.41
417.474
416.556
415.724
414.895
439.066
436.706
434.658
432.746
430.956
429.253
427.817
426.544
425.654
425.025
424.636
424.367
424.203
424.07
423.908
423.709
423.478
423.436
439.199
436.309
434.809
433.768
432.767
432.15
432.132
432.356
433.61
435.66
438.196
440.725
443.382
445.661
447.632
449.22
450.875
451.858
438.743
434.349
437.138
440.907
444.628
448.556
452.153
458.558
466.826
475.534
484.95
493.886
502.301
508.908
514.938
519.46
524.575
528.381
430.923
436.397
456.079
475.064
492.719
510.569
530.755
552.042
576.178
599.883
624.191
645.368
665.058
680.226
694.551
705.103
717.195
726.068
395.066
470.041
557.302
623.552
689.598
752.51
816.025
875.847
937.996
995.321
1052.41
1098.93
1141.29
1171.51
1200.64
1220.09
1244.27
1260.46
267.617
743.457
1090.2
1352.63
1603.1
1822.28
2016.77
2183.19
2336.84
2467.52
2588.24
2675.78
2749.5
2793.36
2835.84
2857.7
2893.93
2913.19
59.6747
3226.98
4984.36
6174.3
7071.64
7690.01
8107.45
8397.75
8569.96
8681.24
8722.77
8738.75
8723.9
8725.89
8707.48
8706.23
8710.09
8704.89
16112.1
21793.3
23762.8
24718.6
25180.7
25229.5
25162.5
25010.9
24771.3
24511.4
24251.8
24000.2
23765.7
23551.6
23358.2
23184.9
23029
22890.8
11463.3
2494.65
2496.87
2499.12
2501.38
2503.67
2505.98
2508.3
2510.65
2513.02
2515.42
2517.83
2520.27
2522.73
2525.21
2527.72
2530.25
2532.8
2535.37
2537.97
2540.6
2543.25
2545.92
2548.62
2551.34
2554.09
2556.87
2559.67
2562.5
2565.35
2568.23
2571.14
2574.08
2577.04
2580.04
2583.06
2586.11
2589.19
2592.3
2595.43
2598.6
2601.8
2605.03
2608.29
2611.59
2614.91
2618.27
2621.66
2625.08
2628.54
2632.03
2635.55
2639.11
2642.71
2646.33
2650
2653.7
2657.44
2661.21
3299.21
3464.28
3157.26
3391.93
3438.64
3544.19
3618.91
3703.24
3777.33
3852.92
3923.6
3993.81
4061.04
4127.27
4191.42
4254.42
4315.82
4376.04
4434.92
4492.65
4549.18
4604.6
4658.9
4712.11
4764.25
4815.33
4865.33
4914.28
4962.13
5008.89
5054.52
5098.99
5142.26
5184.28
5225.03
5264.45
5302.58
5339.48
5375.34
5410.6
5444.95
5478.28
5510.68
5542.19
5572.72
5602.35
5630.99
5658.72
5685.46
5711.26
5736.06
5759.91
5782.76
5804.65
5825.54
5845.45
5864.36
5882.3
5899.23
5915.18
5930.12
5944.09
5957.05
5969.02
5979.99
5989.93
5998.83
6006.61
6013.67
6020.46
6026.67
6030.62
6034.64
6037.44
6039.96
6042.03
6043.31
6042.89
6041.28
6038.97
6035.79
6031.85
6027.15
6021.71
6015.61
6008.83
6001.47
5993.51
5985.07
5976.13
5966.75
5956.93
5946.78
5935.96
5925.24
5913.62
5902.25
5890.13
5878.35
5866.31
5854.25
5842.14
5829.98
5817.8
5805.59
5793.4
5781.26
5769.24
5757.36
5745.69
5734.24
5723
5711.92
5700.93
5689.74
5678.06
5665.16
5650.1
5630.3
5600.31
5479.1
11463.3
1992.05
995.219
807.76
690.444
626.649
634.266
629.894
617.379
594.038
569.393
545.49
523.639
505.698
493.451
484.797
484.649
486.152
515.333
567.557
653.531
755.775
865.677
974.102
1069.39
1142.61
1179.47
1168.91
1132.41
1039.76
917.999
757.762
639.007
555.927
494.174
463.03
465.12
474.895
502.717
533.005
564.761
616.723
726.92
887.468
1145.15
1473.83
1749.9
1927.24
2033.59
2075.6
2082.43
2052.84
2016.37
1963.38
1870.46
1818.67
1781.46
1752.49
1740.47
1742.6
1724.17
1693.93
1688.31
1677.08
1675.93
1674.17
1673.62
1674.64
1678.51
1682.25
1687.51
1692.93
1699.13
1705.51
1712.28
1719.17
1726.25
1733.39
1740.6
1747.82
1755.03
1762.21
1769.34
1776.38
1783.34
1790.19
1796.91
1803.49
1809.91
1816.16
1822.24
1828.17
1833.96
1839.67
1845.4
1851.32
1857.65
1864.77
1873.2
1881.66
1889.78
1897.8
1905.55
1913.12
1920.47
1927.62
1934.55
1941.27
1947.77
1954.06
1960.12
1965.98
1971.61
1977.03
1982.22
1987.2
1991.96
1996.51
2000.84
2004.95
2008.85
2012.53
2016
2019.27
2022.33
2025.19
2027.88
2030.42
2032.82
2035
2036.95
2038.8
2040.47
2042.03
2043.31
2044.05
2043.81
2043.47
2042.96
2042.25
2041.37
2040.31
2039.08
2037.69
2036.15
2034.46
2032.63
2030.68
2028.61
2026.44
2024.22
2021.43
2019.32
2016.2
2013.91
2010.85
2008.16
2005.24
2002.27
1999.28
1996.24
1993.16
1990.05
1986.91
1983.75
1980.58
1977.41
1974.25
1971.11
1968
1964.94
1961.92
1958.93
1956.05
1953.3
1950.78
1948.57
1947.24
1945.82
1954.64
11463.3
2006.83
815.298
649.65
691.331
689.211
658.47
601.342
540.696
484.097
434.213
392.094
359.083
333.261
313.435
298.19
287.723
279.447
277.855
280.447
291.431
310.956
343.857
388.633
443.583
504.018
563.06
608.108
634.819
628.929
609.452
559.808
497.568
433.739
392.594
394.658
412.997
443.906
495.859
582.671
707.4
886.868
1080.19
1246.72
1383.12
1504.33
1565.98
1575.76
1549.3
1496.11
1437.49
1376.63
1322.38
1272.58
1227.53
1196.79
1172.26
1151.32
1138.94
1128.28
1119.22
1112.97
1110.13
1106.64
1106.21
1105.92
1106.54
1108.35
1110.63
1113.25
1116.28
1119.51
1122.99
1126.6
1130.35
1134.18
1138.09
1142.05
1146.05
1150.06
1154.09
1158.12
1162.13
1166.13
1170.1
1174.03
1177.94
1181.81
1185.64
1189.44
1193.21
1196.98
1200.77
1204.6
1208.52
1212.56
1216.77
1221.15
1225.62
1229.96
1234.19
1238.32
1242.32
1246.22
1249.99
1253.65
1257.19
1260.61
1263.91
1267.09
1270.14
1273.07
1275.87
1278.55
1281.1
1283.52
1285.82
1287.99
1290.04
1291.96
1293.75
1295.42
1296.96
1298.38
1299.68
1300.87
1301.94
1302.91
1303.76
1304.48
1305.09
1305.59
1305.97
1306.23
1306.3
1306.16
1305.8
1305.37
1304.81
1304.14
1303.36
1302.48
1301.51
1300.44
1299.28
1298.03
1296.69
1295.27
1293.78
1292.21
1290.56
1288.76
1287.07
1285.11
1283.31
1281.28
1279.31
1277.24
1275.13
1272.98
1270.78
1268.54
1266.26
1263.96
1261.62
1259.26
1256.87
1254.48
1252.06
1249.65
1247.25
1244.88
1242.55
1240.31
1238.23
1236.43
1235.09
1234.88
1236.18
1246.57
11463.3
2040.75
1026.79
994.117
910.193
778.215
659.589
551.417
466.612
403.587
356.306
319.342
290.726
268.837
252.142
239.451
229.944
223.046
218.492
217.006
218.229
221.499
230.136
244.873
266.792
295.887
330.008
364.601
394.126
416.197
419.104
411.128
394.077
408.004
472.173
562.049
626.17
690.251
772.652
890.606
1023.37
1118.28
1190.9
1253.36
1291.56
1297.15
1233.43
1200.95
1143.84
1096.28
1050.97
1013.06
981.086
954.964
933.975
918.256
906.385
897.179
891.399
886.892
884.025
882.303
881.816
881.619
882.346
883.646
885.39
887.538
889.931
892.537
895.327
898.252
901.298
904.435
907.651
910.928
914.256
917.622
921.019
924.437
927.869
931.309
934.751
938.19
941.623
945.046
948.457
951.856
955.245
958.624
961.998
965.375
968.761
972.165
975.593
979.044
982.512
985.976
989.386
992.706
995.941
999.09
1002.15
1005.11
1007.99
1010.77
1013.45
1016.04
1018.52
1020.91
1023.19
1025.37
1027.45
1029.42
1031.29
1033.05
1034.71
1036.26
1037.7
1039.03
1040.26
1041.38
1042.4
1043.31
1044.12
1044.83
1045.43
1045.93
1046.33
1046.62
1046.81
1046.89
1046.87
1046.74
1046.48
1046.08
1045.55
1044.94
1044.24
1043.45
1042.57
1041.6
1040.54
1039.4
1038.18
1036.89
1035.51
1034.06
1032.54
1030.95
1029.28
1027.54
1025.77
1023.91
1022.04
1020.06
1018.07
1016.02
1013.91
1011.77
1009.58
1007.35
1005.08
1002.78
1000.45
998.083
995.695
993.284
990.853
988.412
985.976
983.561
981.186
978.892
976.741
974.843
973.357
972.814
973.757
980.094
11463.3
2330.05
1492.26
1195.04
945.487
728.412
561.252
449.975
374.296
321.466
283.808
257.068
237.619
222.948
211.636
202.896
196.312
191.555
188.405
187.033
187.432
188.861
192.966
200.124
211.387
227.764
248.96
272.655
294.88
313.866
334.016
373.796
456.976
567.006
652.103
722.78
797.427
873.89
942.129
1000.25
1051.83
1092.59
1110.58
1106.5
1056.49
1018.03
971.987
937.001
898.059
868.71
842.265
821.307
804.107
790.697
780.409
772.781
767.422
763.717
761.666
760.797
760.503
760.935
762.059
763.597
765.562
767.842
770.37
773.103
775.991
779.011
782.142
785.365
788.667
792.033
795.456
798.925
802.432
805.97
809.531
813.11
816.701
820.298
823.897
827.493
831.083
834.663
838.23
841.785
845.324
848.848
852.355
855.847
859.325
862.784
866.223
869.631
872.996
876.306
879.544
882.7
885.774
888.763
891.666
894.479
897.202
899.83
902.365
904.802
907.143
909.383
911.523
913.559
915.493
917.321
919.045
920.661
922.172
923.574
924.869
926.056
927.135
928.106
928.971
929.728
930.379
930.923
931.361
931.692
931.914
932.029
932.034
931.92
931.709
931.387
930.95
930.396
929.733
928.976
928.124
927.18
926.145
925.021
923.811
922.514
921.133
919.669
918.126
916.505
914.81
913.043
911.202
909.295
907.334
905.301
903.224
901.078
898.886
896.638
894.341
891.997
889.608
887.18
884.715
882.214
879.68
877.116
874.523
871.907
869.277
866.641
864.007
861.391
858.812
856.304
853.922
851.755
849.936
848.818
848.965
852.098
11463.3
2964.2
1746.82
1213.75
832.965
586.889
444.116
356.286
301.964
266.684
242.163
224.148
210.286
199.375
190.65
183.708
178.361
174.469
171.977
171.014
171.43
172.935
176.423
181.904
190.533
203.34
221.329
245.046
278.103
325.704
393.676
504.482
616.199
697.143
764.979
824.357
870.975
907.972
940.9
968.511
978.727
963.543
930.374
899.937
862.826
832.005
801.368
776.774
753.942
736.217
721.107
709.29
700
693.091
688.156
684.842
683.224
682.598
682.708
683.694
685.207
687.212
689.619
692.33
695.297
698.465
701.793
705.254
708.823
712.485
716.226
720.036
723.906
727.827
731.791
735.791
739.821
743.874
747.943
752.023
756.107
760.191
764.269
768.337
772.39
776.425
780.437
784.424
788.382
792.309
796.202
800.059
803.877
807.652
811.377
815.044
818.64
822.164
825.606
828.961
832.227
835.403
838.483
841.467
844.352
847.135
849.814
852.388
854.855
857.215
859.463
861.6
863.623
865.532
867.326
869.003
870.563
872.006
873.33
874.536
875.623
876.592
877.443
878.177
878.792
879.29
879.669
879.93
880.062
880.082
879.974
879.756
879.42
878.965
878.393
877.702
876.898
875.989
874.975
873.86
872.644
871.331
869.924
868.421
866.826
865.14
863.367
861.51
859.57
857.553
855.459
853.294
851.063
848.763
846.404
843.98
841.501
838.965
836.377
833.74
831.057
828.334
825.572
822.773
819.941
817.076
814.183
811.265
808.332
805.391
802.452
799.529
796.639
793.813
791.095
788.559
786.308
784.598
783.794
784.793
11463.3
3463.98
1785.64
1034.6
649.285
457.414
359.894
304.819
269.669
244.983
226.383
211.898
200.125
190.337
182.201
175.565
170.377
166.661
164.562
164.193
165.301
168.313
173.697
181.945
193.508
210.402
236.917
278.981
346.013
447.259
553.016
634.643
701.874
758.108
799.869
831.634
858.636
873.055
876.955
860.381
835.507
811.981
784.599
759.25
733.861
712.282
692.837
676.883
663.182
652.329
643.576
636.948
632.113
628.931
627.308
626.768
627.093
628.297
630.154
632.585
635.446
638.668
642.179
645.92
649.847
653.925
658.125
662.427
666.816
671.28
675.809
680.395
685.031
689.71
694.425
699.167
703.931
708.709
713.493
718.279
723.058
727.827
732.578
737.306
742.007
746.675
751.304
755.892
760.433
764.923
769.359
773.738
778.056
782.309
786.493
790.602
794.635
798.579
802.427
806.178
809.825
813.369
816.803
820.127
823.336
826.429
829.403
832.254
834.978
837.574
840.042
842.383
844.595
846.677
848.628
850.448
852.135
853.689
855.11
856.398
857.552
858.573
859.462
860.218
860.841
861.332
861.691
861.909
861.986
861.938
861.759
861.45
861.011
860.441
859.743
858.917
857.969
856.902
855.719
854.422
853.012
851.488
849.845
848.096
846.243
844.29
842.239
840.093
837.857
835.535
833.13
830.647
828.089
825.458
822.758
819.992
817.163
814.276
811.333
808.338
805.296
802.211
799.086
795.924
792.726
789.495
786.236
782.953
779.654
776.347
773.042
769.752
766.494
763.291
760.181
757.225
754.498
752.178
750.443
749.833
11463.3
3596.9
1559.97
813.175
515.759
383.479
315.463
275.856
250.372
232.393
218.478
206.554
196.209
187.288
179.754
173.693
169.329
166.779
165.946
166.87
169.921
175.789
185.171
200.998
226.317
263.249
321.243
403.872
493.27
567.819
629.836
682.081
724.681
758.297
784.64
796.131
796.937
782.307
763.648
743.555
722.722
702.936
682.973
664.513
647.455
632.897
620.36
610.042
601.585
595.02
590.095
586.698
584.868
584.227
584.45
585.66
587.632
590.274
593.464
597.112
601.126
605.443
610.004
614.764
619.686
624.742
629.909
635.169
640.509
645.918
651.386
656.906
662.469
668.07
673.699
679.348
685.008
690.672
696.33
701.975
707.601
713.2
718.766
724.293
729.778
735.21
740.584
745.895
751.137
756.307
761.399
766.412
771.34
776.18
780.929
785.586
790.144
794.592
798.924
803.136
807.226
811.191
815.028
818.733
822.304
825.74
829.036
832.192
835.206
838.074
840.797
843.374
845.802
848.082
850.213
852.194
854.024
855.703
857.23
858.606
859.83
860.904
861.827
862.6
863.223
863.695
864.017
864.172
864.187
864.052
863.77
863.342
862.768
862.049
861.187
860.185
859.046
857.773
856.37
854.84
853.184
851.407
849.509
847.493
845.363
843.122
840.775
838.324
835.773
833.127
830.391
827.571
824.668
821.687
818.63
815.503
812.309
809.052
805.737
802.368
798.949
795.484
791.979
788.435
784.854
781.24
777.598
773.933
770.253
766.565
762.88
759.21
755.569
751.978
748.468
745.064
741.832
738.908
736.369
734.41
11463.3
3401.92
1275.92
660.034
444.287
349.944
299.204
268.476
247.154
231.105
218.376
207.86
198.879
191.205
184.932
180.311
177.721
177.308
179.529
184.283
193.075
207.46
229.402
265.414
316.886
381.368
448.592
510.001
564.662
611.523
651.122
684.307
712.99
727.046
728.987
718.839
705.259
688.594
672.042
656.066
640.674
625.959
611.762
598.758
587.185
577.35
569.13
562.521
557.397
553.698
551.437
550.49
550.412
551.4
553.235
555.86
559.157
563.034
567.403
572.187
577.315
582.729
588.379
594.225
600.234
606.379
612.641
619.002
625.443
631.952
638.516
645.124
651.768
658.442
665.139
671.842
678.542
685.23
691.895
698.531
705.128
711.678
718.172
724.597
730.946
737.226
743.43
749.551
755.584
761.523
767.362
773.1
778.73
784.247
789.648
794.922
800.068
805.079
809.951
814.682
819.267
823.704
827.989
832.12
836.095
839.91
843.565
847.056
850.381
853.54
856.531
859.352
862.004
864.486
866.798
868.938
870.907
872.703
874.328
875.78
877.06
878.17
879.109
879.879
880.479
880.909
881.16
881.238
881.155
880.904
880.487
879.905
879.161
878.255
877.19
875.969
874.594
873.071
871.402
869.591
867.64
865.554
863.335
860.986
858.511
855.915
853.201
850.373
847.436
844.394
841.255
838.022
834.701
831.294
827.806
824.243
820.609
816.91
813.149
809.331
805.461
801.543
797.583
793.583
789.545
785.475
781.378
777.259
773.125
768.985
764.85
760.73
756.639
752.593
748.619
744.752
741.036
737.566
734.36
731.349
11463.3
2962.37
1028.47
562.379
402.458
330.471
291.819
266.664
249.538
236.936
226.821
218.308
211.18
205.553
202.037
201.032
203.154
208.913
218.72
232.908
254.266
284.359
323.989
369.818
418.512
466.421
510.851
550.714
585.814
616.2
643.463
661.157
666.701
662.761
654.085
641.63
628.647
615.731
603.624
592.115
581.028
570.358
560.278
551.174
543.267
536.678
531.389
527.379
524.59
523.17
522.765
523.322
524.83
527.226
530.411
534.307
538.829
543.9
549.449
555.409
561.725
568.337
575.199
582.269
589.513
596.907
604.439
612.083
619.81
627.602
635.442
643.311
651.184
659.022
666.833
674.641
682.442
690.22
697.966
705.669
713.321
720.915
728.441
735.898
743.278
750.56
757.73
764.78
771.705
778.499
785.158
791.679
798.057
804.288
810.366
816.285
822.046
827.644
833.077
838.339
843.429
848.342
853.076
857.629
861.999
866.183
870.18
873.988
877.604
881.028
884.259
887.295
890.138
892.787
895.242
897.503
899.569
901.44
903.117
904.6
905.89
906.988
907.895
908.612
909.138
909.471
909.605
909.556
909.319
908.897
908.289
907.498
906.527
905.377
904.052
902.553
900.885
899.052
897.058
894.907
892.602
890.148
887.548
884.806
881.928
878.917
875.778
872.515
869.134
865.639
862.038
858.337
854.539
850.65
846.676
842.623
838.497
834.302
830.043
825.725
821.352
816.93
812.463
807.956
803.411
798.835
794.233
789.612
784.979
780.341
775.709
771.094
766.505
761.961
757.483
753.1
748.843
744.788
740.918
736.939
11463.3
2480.58
886.659
520.948
388.344
326.902
293.251
273.31
260.091
250.439
242.975
237.234
233.559
232.336
234.096
239.888
249.624
262.474
279.443
302.354
330.744
363.333
398.331
433.764
468.278
500.722
530.168
556.523
580.801
599.911
608.569
609.873
606.056
598.577
589.385
579.58
570.184
561.263
552.806
544.613
536.632
528.969
521.862
515.577
510.284
506.066
502.939
501.008
500.234
500.308
501.419
503.461
506.389
510.148
514.667
519.873
525.696
532.068
538.925
546.215
553.908
561.927
570.217
578.735
587.438
596.277
605.171
614.132
623.187
632.324
641.522
650.756
660.003
669.255
678.494
687.695
696.859
705.956
714.976
723.913
732.761
741.514
750.164
758.699
767.105
775.371
783.489
791.449
799.247
806.877
814.336
821.622
828.728
835.652
842.388
848.934
855.286
861.444
867.403
873.16
878.711
884.055
889.187
894.107
898.813
903.304
907.579
911.636
915.473
919.09
922.486
925.662
928.617
931.355
933.873
936.173
938.255
940.119
941.767
943.199
944.415
945.419
946.211
946.792
947.163
947.315
947.26
946.998
946.528
945.854
944.977
943.899
942.623
941.152
939.489
937.637
935.6
933.383
930.99
928.426
925.695
922.801
919.75
916.546
913.195
909.701
906.07
902.308
898.418
894.408
890.283
886.051
881.717
877.288
872.77
868.172
863.498
858.755
853.946
849.076
844.149
839.172
834.149
829.084
823.984
818.855
813.703
808.535
803.356
798.177
793.004
787.849
782.722
777.638
772.617
767.683
762.858
758.203
753.691
748.836
11463.3
2069.74
788.628
490.716
381.127
329.045
301.824
286.003
276.005
269.339
265.105
263.293
263.484
266.971
274.026
284.663
298.273
314.833
334.812
357.796
382.798
408.782
434.791
460.092
483.756
505.715
526.548
544.678
555.485
559.378
559.732
557.031
551.934
545.648
539.043
532.531
526.305
520.281
514.385
508.567
502.898
497.542
492.722
488.639
485.435
483.199
482.118
481.92
482.724
484.467
487.155
490.742
495.193
500.485
506.565
513.333
520.724
528.673
537.11
545.947
555.037
564.447
574.178
584.199
594.472
604.961
615.656
626.514
637.467
648.476
659.514
670.549
681.522
692.406
703.174
713.803
724.271
734.597
744.792
754.865
764.818
774.646
784.343
793.897
803.289
812.505
821.529
830.354
838.972
847.38
855.577
863.559
871.321
878.86
886.17
893.251
900.101
906.717
913.099
919.243
925.144
930.802
936.214
941.379
946.298
950.969
955.394
959.571
963.499
967.178
970.608
973.79
976.727
979.42
981.871
984.079
986.046
987.774
989.265
990.519
991.537
992.324
992.879
993.204
993.301
993.164
992.801
992.212
991.4
990.366
989.114
987.645
985.962
984.07
981.971
979.669
977.169
974.475
971.593
968.528
965.283
961.866
958.281
954.534
950.63
946.576
942.379
938.043
933.574
928.979
924.264
919.435
914.5
909.469
904.35
899.149
893.873
888.527
883.115
877.642
872.111
866.529
860.9
855.231
849.528
843.801
838.055
832.297
826.532
820.769
815.015
809.279
803.573
797.912
792.312
786.795
781.377
776.106
770.963
765.297
11463.3
1942.49
771.977
488.013
384.587
338.244
314.939
302.165
294.845
291.098
289.806
290.605
294.233
300.754
310.077
321.899
335.886
352.04
369.892
388.795
408.095
427.178
445.467
463.155
480.432
495.939
507.387
513.324
515.757
516.416
515.31
512.609
509.036
505.097
501.074
497.064
493.086
489.107
485.14
481.247
477.564
474.261
471.526
469.519
468.517
468.337
469.199
471.106
473.951
477.704
482.346
487.839
494.116
501.046
508.587
516.843
525.791
535.379
545.548
556.248
567.474
579.138
591.18
603.554
616.218
629.112
642.19
655.417
668.664
681.848
694.89
707.734
720.361
732.743
744.862
756.707
768.286
779.627
790.77
801.758
812.603
823.31
833.874
844.277
854.491
864.485
874.244
883.757
893.019
902.028
910.78
919.273
927.503
935.464
943.153
950.57
957.714
964.586
971.183
977.505
983.548
989.309
994.79
999.988
1004.91
1009.55
1013.91
1018
1021.81
1025.34
1028.6
1031.59
1034.31
1036.76
1038.95
1040.87
1042.53
1043.94
1045.09
1045.99
1046.63
1047.03
1047.18
1047.09
1046.75
1046.17
1045.34
1044.28
1042.98
1041.45
1039.69
1037.69
1035.48
1033.04
1030.38
1027.51
1024.43
1021.15
1017.67
1014
1010.14
1006.1
1001.88
997.498
992.952
988.251
983.401
978.41
973.284
968.029
962.652
957.155
951.553
945.858
940.077
934.217
928.282
922.279
916.212
910.083
903.899
897.662
891.379
885.059
878.712
872.344
865.964
859.577
853.187
846.802
840.427
834.074
827.753
821.481
815.271
809.144
803.108
797.206
791.437
785.01
11463.3
1885.1
749.798
486.323
392.167
350.472
330.115
319.506
314.169
312.054
311.859
314.414
319.53
326.896
336.184
347.063
359.255
372.473
386.318
400.358
414.221
428.055
441.997
454.618
464.401
471.211
475.797
478.616
479.871
480.228
479.803
478.609
477.016
475.203
473.262
471.236
469.162
467.093
465.132
463.445
462.271
461.696
461.663
462.425
464.039
466.444
469.562
473.275
477.903
483.499
490.063
497.569
505.985
515.313
525.542
536.603
548.458
561.033
574.258
588.073
602.431
617.235
632.402
647.87
663.619
679.503
695.385
711.112
726.628
741.857
756.717
771.149
785.115
798.592
811.572
824.058
836.098
847.766
859.175
870.459
881.626
892.69
903.653
914.476
925.104
935.468
945.558
955.368
964.891
974.12
983.051
991.682
1000.01
1008.02
1015.72
1023.11
1030.19
1036.95
1043.41
1049.56
1055.39
1060.92
1066.13
1071.02
1075.61
1079.9
1083.88
1087.57
1090.95
1094.04
1096.83
1099.33
1101.54
1103.47
1105.13
1106.51
1107.61
1108.45
1109.02
1109.33
1109.35
1109.14
1108.67
1107.93
1106.95
1105.71
1104.24
1102.51
1100.55
1098.34
1095.89
1093.21
1090.3
1087.16
1083.8
1080.22
1076.43
1072.43
1068.22
1063.82
1059.23
1054.45
1049.5
1044.37
1039.08
1033.64
1028.04
1022.31
1016.44
1010.44
1004.33
998.092
991.758
985.337
978.835
972.258
965.609
958.893
952.117
945.282
938.396
931.457
924.474
917.462
910.431
903.387
896.336
889.284
882.233
875.193
868.163
861.159
854.193
847.281
840.436
833.674
827.004
820.458
814.069
806.923
11463.3
1853.89
747.823
493.041
403.505
364.171
344.998
335.154
330.318
328.536
328.507
331.348
336.347
343.023
350.946
359.783
369.314
379.306
389.506
400.032
410.763
420.413
428.35
434.899
440.353
444.827
448.291
450.971
453.063
454.761
456.156
457.392
458.41
459.242
459.947
460.582
461.211
461.899
462.7
463.604
464.506
466.003
468.296
471.643
476.069
481.471
487.881
495.389
503.937
513.55
524.239
535.96
548.67
562.347
576.957
592.469
608.896
626.024
643.723
661.89
680.421
699.205
718.123
737.052
755.815
774.347
792.552
810.305
827.492
843.994
859.718
874.624
888.714
902.011
914.518
926.215
937.247
947.756
957.972
968.371
978.772
989.198
999.691
1010.14
1020.43
1030.51
1040.33
1049.85
1059.06
1067.94
1076.5
1084.72
1092.6
1100.13
1107.31
1114.15
1120.64
1126.79
1132.61
1138.1
1143.25
1148.06
1152.53
1156.67
1160.48
1163.97
1167.13
1169.99
1172.54
1174.78
1176.7
1178.32
1179.63
1180.67
1181.43
1181.91
1182.1
1182.02
1181.7
1181.08
1180.19
1179.04
1177.64
1175.98
1174.08
1171.93
1169.54
1166.9
1164.02
1160.91
1157.55
1153.97
1150.15
1146.1
1141.84
1137.36
1132.67
1127.77
1122.67
1117.38
1111.89
1106.23
1100.39
1094.38
1088.21
1081.88
1075.41
1068.81
1062.08
1055.22
1048.26
1041.22
1034.1
1026.9
1019.62
1012.26
1004.85
997.364
989.825
982.234
974.598
966.914
959.194
951.457
943.709
935.957
928.204
920.455
912.714
904.988
897.274
889.592
881.959
874.387
866.889
859.479
852.165
844.967
837.962
830.137
11463.3
1830.5
747.177
501.096
413.221
374.876
356.351
346.321
341.181
339.133
338.888
341.16
345.275
350.693
357.007
363.971
371.473
379.408
387.261
394.932
402.077
408.973
415.53
421.676
427.475
432.962
438.137
443.048
447.676
451.963
455.819
459.025
462.026
464.987
467.994
471.128
474.477
478.128
482.184
486.775
492.161
498.426
505.811
514.575
524.566
535.593
547.701
560.934
575.247
590.658
607.311
625.004
643.576
662.91
682.894
703.376
724.181
745.287
766.599
788.008
809.397
830.653
851.664
872.323
892.52
912.168
931.18
949.462
966.905
983.358
998.694
1012.98
1026.33
1038.83
1050.55
1061.52
1071.76
1081.32
1090.35
1099.11
1107.68
1116.43
1125.64
1134.89
1144.02
1152.97
1161.65
1170.01
1178.03
1185.7
1193.02
1200
1206.62
1212.86
1218.74
1224.25
1229.41
1234.22
1238.69
1242.83
1246.62
1250.07
1253.18
1255.95
1258.39
1260.51
1262.31
1263.82
1265.02
1265.91
1266.49
1266.76
1266.72
1266.47
1265.93
1265.1
1264.01
1262.65
1261.04
1259.17
1257.05
1254.67
1252.06
1249.21
1246.13
1242.81
1239.27
1235.5
1231.5
1227.27
1222.81
1218.14
1213.24
1208.13
1202.82
1197.3
1191.58
1185.66
1179.56
1173.27
1166.79
1160.15
1153.34
1146.37
1139.24
1131.97
1124.57
1117.04
1109.39
1101.62
1093.76
1085.84
1077.84
1069.77
1061.63
1053.42
1045.15
1036.82
1028.44
1020.01
1011.55
1003.08
994.599
986.116
977.63
969.145
960.663
952.191
943.733
935.297
926.879
918.508
910.196
901.957
893.798
885.735
877.773
869.925
862.311
853.849
11463.3
1816.76
748.865
505.926
419.267
381.813
363.384
353.082
347.672
345.411
345.021
346.953
350.676
355.659
361.496
367.996
374.971
382.228
389.916
397.729
405.542
413.261
420.922
428.552
436.183
443.854
451.582
459.416
467.278
475.087
482.927
490.978
499.259
507.859
516.867
526.37
536.468
547.255
558.826
571.283
584.752
599.189
614.578
630.732
647.651
665.443
684.146
703.804
724.344
745.611
767.375
789.847
812.789
836.015
859.365
882.699
905.875
928.797
951.354
973.437
994.969
1015.87
1036.1
1055.59
1074.3
1092.19
1109.23
1125.4
1140.67
1155.06
1168.57
1181.03
1192.65
1203.57
1213.9
1223.7
1232.82
1241.26
1249.12
1256.21
1263.04
1270.19
1277.37
1284.37
1291.1
1297.54
1303.66
1309.45
1314.92
1320.06
1324.88
1329.38
1333.55
1337.38
1340.87
1344.03
1346.89
1349.44
1351.7
1353.66
1355.33
1356.69
1357.75
1358.51
1359
1359.18
1359.09
1358.8
1358.21
1357.35
1356.22
1354.82
1353.17
1351.3
1349.19
1346.84
1344.26
1341.45
1338.41
1335.15
1331.67
1327.98
1324.08
1319.97
1315.66
1311.14
1306.42
1301.5
1296.38
1291.06
1285.53
1279.8
1273.88
1267.77
1261.47
1254.99
1248.33
1241.49
1234.48
1227.3
1219.95
1212.45
1204.79
1196.98
1189.04
1180.96
1172.76
1164.44
1156
1147.46
1138.81
1130.08
1121.26
1112.37
1103.41
1094.38
1085.28
1076.14
1066.94
1057.71
1048.44
1039.17
1029.9
1020.64
1011.38
1002.12
992.867
983.631
974.419
965.239
956.122
947.068
938.085
929.183
920.369
911.659
903.059
894.575
886.364
877.321
11463.3
1803.72
749.785
508.381
422.029
386.583
368.654
358.945
354.831
353.427
354.055
357.134
361.859
367.822
375.038
383.662
393.016
402.778
413.541
425.336
437.956
450.784
464.254
478.421
493.265
508.788
524.969
541.803
559.263
577.423
596.303
615.972
636.301
657.292
678.948
701.317
724.475
748.555
773.46
799.029
825.136
851.575
878.163
904.683
931.041
957.287
983.481
1010.03
1036.68
1062.87
1088.24
1112.47
1135.7
1157.97
1179.28
1199.61
1218.92
1237.18
1254.37
1270.53
1285.68
1299.84
1313.04
1325.31
1336.68
1347.16
1356.73
1365.49
1373.5
1380.93
1387.98
1394.72
1401.1
1407.04
1412.5
1417.47
1421.77
1425.62
1429.34
1433.27
1437.46
1441.43
1444.72
1447.52
1449.95
1452.11
1454.03
1455.73
1457.22
1458.49
1459.53
1460.35
1460.93
1461.29
1461.39
1461.31
1461.05
1460.57
1459.89
1459.01
1457.92
1456.62
1455.11
1453.41
1451.51
1449.41
1447.12
1444.66
1442
1439.15
1436.1
1432.85