/*--------------------------------*- C++ -*----------------------------------*\
  =========                 |
  \\      /  F ield         | OpenFOAM: The Open Source CFD Toolbox
   \\    /   O peration     | Website:  https://openfoam.org
    \\  /    A nd           | Version:  8
     \\/     M anipulation  |
\*---------------------------------------------------------------------------*/
FoamFile
{
    version     2.0;
    format      ascii;
    class       surfaceScalarField;
    location    "400";
    object      phi;
}
// * * * * * * * * * * * * * * * * * * * * * * * * * * * * * * * * * * * * * //

dimensions      [0 3 -1 0 0 0 0];

internalField   nonuniform List<scalar> 
24170
(
3.00204e-06
1.31882e-07
2.86363e-06
1.38348e-07
2.7389e-06
1.24718e-07
2.62722e-06
1.11773e-07
2.53027e-06
9.72163e-08
2.4495e-06
8.11574e-08
2.3801e-06
6.97515e-08
2.32031e-06
5.97623e-08
2.27014e-06
5.01359e-08
2.22761e-06
4.25162e-08
2.19256e-06
3.50577e-08
2.1645e-06
2.80769e-08
2.14314e-06
2.13675e-08
2.1254e-06
1.7728e-08
2.11048e-06
1.49062e-08
2.10055e-06
9.92712e-09
2.09475e-06
5.80297e-09
-8.43727e-11
2.09483e-06
3.51351e-06
7.4848e-08
3.54236e-06
1.09662e-07
3.55444e-06
1.12771e-07
3.5509e-06
1.15425e-07
3.53528e-06
1.13012e-07
3.51284e-06
1.03764e-07
3.48546e-06
9.70647e-08
3.45486e-06
9.00089e-08
3.42251e-06
8.20713e-08
3.38929e-06
7.53833e-08
3.35713e-06
6.69412e-08
3.32822e-06
5.68199e-08
3.30227e-06
4.72068e-08
3.27825e-06
4.16798e-08
3.25624e-06
3.68706e-08
3.23561e-06
3.05552e-08
3.21579e-06
2.56205e-08
2.00975e-08
3.19562e-06
3.83224e-06
5.48051e-08
3.84985e-06
9.19225e-08
3.86398e-06
9.85806e-08
3.87644e-06
1.03003e-07
3.88592e-06
1.03687e-07
3.89076e-06
9.91873e-08
3.89316e-06
9.48044e-08
3.89359e-06
8.9583e-08
3.89199e-06
8.36731e-08
3.88927e-06
7.8132e-08
3.88519e-06
7.10612e-08
3.87937e-06
6.26852e-08
3.87185e-06
5.47459e-08
3.86444e-06
4.91178e-08
3.85734e-06
4.39821e-08
3.84955e-06
3.83565e-08
3.8418e-06
3.33611e-08
2.76567e-08
3.83418e-06
4.21652e-06
4.28488e-08
4.22896e-06
7.95376e-08
4.23872e-06
8.88706e-08
4.2479e-06
9.38745e-08
4.2563e-06
9.53516e-08
4.26278e-06
9.27199e-08
4.26836e-06
8.9085e-08
4.27314e-06
8.45389e-08
4.27709e-06
7.9461e-08
4.28067e-06
7.43284e-08
4.28347e-06
6.80928e-08
4.285e-06
6.10384e-08
4.2853e-06
5.43735e-08
4.2854e-06
4.89651e-08
4.28539e-06
4.39761e-08
4.28481e-06
3.89257e-08
4.28405e-06
3.41032e-08
2.90092e-08
4.28271e-06
4.64609e-06
3.40704e-08
4.65703e-06
6.84875e-08
4.6658e-06
8.0056e-08
4.67383e-06
8.58503e-08
4.68131e-06
8.79623e-08
4.6876e-06
8.65046e-08
4.69326e-06
8.34595e-08
4.69839e-06
7.94138e-08
4.70303e-06
7.48351e-08
4.70744e-06
6.99838e-08
4.71129e-06
6.42989e-08
4.71426e-06
5.81127e-08
4.71644e-06
5.22131e-08
4.71838e-06
4.70447e-08
4.72014e-06
4.22281e-08
4.72154e-06
3.75388e-08
4.72266e-06
3.29777e-08
2.83993e-08
4.72315e-06
5.1214e-06
2.72719e-08
5.13134e-06
5.85798e-08
5.13988e-06
7.15692e-08
5.14773e-06
7.80396e-08
5.15504e-06
8.06635e-08
5.16144e-06
8.00448e-08
5.16721e-06
7.75335e-08
5.1725e-06
7.3934e-08
5.1774e-06
6.97684e-08
5.18203e-06
6.5219e-08
5.18615e-06
6.00531e-08
5.18959e-06
5.45781e-08
5.19245e-06
4.92875e-08
5.19501e-06
4.4434e-08
5.19735e-06
3.98705e-08
5.19938e-06
3.54891e-08
5.20108e-06
3.12317e-08
2.72067e-08
5.2023e-06
5.64635e-06
2.1928e-08
5.65531e-06
4.95497e-08
5.66368e-06
6.31599e-08
5.67159e-06
7.01558e-08
5.67901e-06
7.3264e-08
5.68568e-06
7.33828e-08
5.69173e-06
7.14666e-08
5.69729e-06
6.83632e-08
5.70247e-06
6.46323e-08
5.70731e-06
6.04321e-08
5.71166e-06
5.57444e-08
5.71542e-06
5.08319e-08
5.71869e-06
4.60357e-08
5.72163e-06
4.15027e-08
5.72429e-06
3.72178e-08
5.72665e-06
3.3123e-08
5.72868e-06
2.92146e-08
2.55457e-08
5.73026e-06
4.40927e-06
1.87625e-08
4.41514e-06
4.37179e-08
4.42111e-06
5.72241e-08
4.42682e-06
6.4474e-08
4.43223e-06
6.78456e-08
4.43721e-06
6.83413e-08
4.44176e-06
6.68162e-08
4.44594e-06
6.40941e-08
4.44981e-06
6.06976e-08
4.4534e-06
5.67912e-08
4.45665e-06
5.24472e-08
4.45954e-06
4.79055e-08
4.4621e-06
4.34386e-08
4.46441e-06
3.9167e-08
4.4665e-06
3.51144e-08
4.46837e-06
3.12481e-08
4.46998e-06
2.75783e-08
2.41777e-08
4.47132e-06
5.14273e-06
1.58924e-08
5.14851e-06
3.78941e-08
5.15474e-06
5.09841e-08
5.16088e-06
5.83264e-08
5.1668e-06
6.19004e-08
5.17235e-06
6.27582e-08
5.17748e-06
6.16452e-08
5.18223e-06
5.93338e-08
5.18665e-06
5.62951e-08
5.19074e-06
5.27209e-08
5.19446e-06
4.87359e-08
5.19779e-06
4.45751e-08
5.20077e-06
4.04484e-08
5.20346e-06
3.64738e-08
5.20589e-06
3.26747e-08
5.20807e-06
2.90752e-08
5.20997e-06
2.5669e-08
2.25253e-08
5.21158e-06
5.99837e-06
1.33015e-08
6.00396e-06
3.23101e-08
6.01033e-06
4.46224e-08
6.01681e-06
5.18399e-08
6.02321e-06
5.5475e-08
6.02932e-06
5.66063e-08
6.03505e-06
5.58783e-08
6.04041e-06
5.39604e-08
6.04542e-06
5.12901e-08
6.05006e-06
4.80804e-08
6.0543e-06
4.44968e-08
6.05813e-06
4.07434e-08
6.06157e-06
3.69943e-08
6.06469e-06
3.33445e-08
6.06752e-06
2.98705e-08
6.07004e-06
2.65426e-08
6.07227e-06
2.34291e-08
2.05527e-08
6.0742e-06
6.99658e-06
1.09908e-08
7.00188e-06
2.69895e-08
7.0083e-06
3.81792e-08
7.01506e-06
4.50518e-08
7.02186e-06
4.86254e-08
7.02849e-06
4.99339e-08
7.0348e-06
4.95301e-08
7.04077e-06
4.7983e-08
7.04638e-06
4.56799e-08
7.0516e-06
4.28591e-08
7.05639e-06
3.96974e-08
7.06075e-06
3.63699e-08
7.0647e-06
3.3028e-08
7.06829e-06
2.97651e-08
7.07154e-06
2.66111e-08
7.07447e-06
2.36332e-08
7.07705e-06
2.08058e-08
1.8253e-08
7.07935e-06
8.16109e-06
8.90505e-09
8.16606e-06
2.20021e-08
8.17245e-06
3.17573e-08
8.17941e-06
3.80601e-08
8.18657e-06
4.14294e-08
8.19366e-06
4.27959e-08
8.20054e-06
4.26666e-08
8.20709e-06
4.14412e-08
8.21328e-06
3.95059e-08
8.21908e-06
3.70809e-08
8.22443e-06
3.43446e-08
8.22934e-06
3.14679e-08
8.23381e-06
2.85362e-08
8.23789e-06
2.56776e-08
8.24162e-06
2.29055e-08
8.24496e-06
2.0272e-08
8.24798e-06
1.77988e-08
1.55327e-08
8.25064e-06
9.51961e-06
7.01834e-09
9.52424e-06
1.73466e-08
9.53054e-06
2.54229e-08
9.53764e-06
3.09148e-08
9.54509e-06
3.3923e-08
9.55263e-06
3.52687e-08
9.56002e-06
3.52857e-08
9.56714e-06
3.43661e-08
9.57391e-06
3.27774e-08
9.58028e-06
3.07497e-08
9.58621e-06
2.84576e-08
9.59166e-06
2.59943e-08
9.59669e-06
2.35311e-08
9.60127e-06
2.10624e-08
9.60548e-06
1.87155e-08
9.60929e-06
1.64434e-08
9.61275e-06
1.4353e-08
1.24121e-08
9.61586e-06
1.11044e-05
5.27922e-09
1.11088e-05
1.29811e-08
1.11149e-05
1.92136e-08
1.11221e-05
2.3661e-08
1.11299e-05
2.61891e-08
1.11378e-05
2.73305e-08
1.11457e-05
2.74384e-08
1.11534e-05
2.67393e-08
1.11607e-05
2.54788e-08
1.11677e-05
2.38447e-08
1.11742e-05
2.19636e-08
1.11803e-05
1.99745e-08
1.11858e-05
1.79247e-08
1.1191e-05
1.59272e-08
1.11957e-05
1.39724e-08
1.12e-05
1.21398e-08
1.12039e-05
1.04003e-08
8.84135e-09
1.12075e-05
1.29532e-05
3.64931e-09
1.29574e-05
8.83843e-09
1.29634e-05
1.31084e-08
1.29708e-05
1.63374e-08
1.29788e-05
1.81689e-08
1.29872e-05
1.90158e-08
1.29955e-05
1.90705e-08
1.30038e-05
1.85269e-08
1.30117e-05
1.75516e-08
1.30193e-05
1.62856e-08
1.30264e-05
1.48361e-08
1.30331e-05
1.32899e-08
1.30393e-05
1.17162e-08
1.3045e-05
1.01654e-08
1.30503e-05
8.66775e-09
1.30552e-05
7.2499e-09
1.30597e-05
5.92486e-09
4.72099e-09
1.30638e-05
1.511e-05
2.07633e-09
1.51141e-05
4.77556e-09
1.51202e-05
7.00766e-09
1.51277e-05
8.81259e-09
1.51361e-05
9.81137e-09
1.51449e-05
1.0202e-08
1.51539e-05
1.01094e-08
1.51628e-05
9.64765e-09
1.51714e-05
8.91633e-09
1.51796e-05
8.00231e-09
1.51875e-05
6.97596e-09
1.51948e-05
5.89255e-09
1.52017e-05
4.79766e-09
1.52082e-05
3.72273e-09
1.52141e-05
2.69133e-09
1.52196e-05
1.71949e-09
1.52248e-05
8.20155e-10
7.61586e-12
1.52294e-05
1.7626e-05
4.80258e-10
1.76302e-05
5.70774e-10
1.76366e-05
6.28823e-10
1.76446e-05
8.52323e-10
1.76536e-05
8.59317e-10
1.76631e-05
6.90955e-10
1.76728e-05
3.78207e-10
1.76825e-05
-4.92522e-11
1.76919e-05
-5.66673e-10
1.77011e-05
-1.13374e-09
1.77097e-05
-1.74009e-09
1.7718e-05
-2.34538e-09
1.77257e-05
-2.95074e-09
1.77329e-05
-3.52262e-09
1.77397e-05
-4.0686e-09
1.77459e-05
-4.56324e-09
1.77518e-05
-5.01568e-09
-5.40327e-09
1.77571e-05
1.78277e-05
-1.06171e-09
1.78319e-05
-3.56397e-09
1.78381e-05
-5.62271e-09
1.78459e-05
-6.91538e-09
1.78546e-05
-7.88308e-09
1.78639e-05
-8.58706e-09
1.78734e-05
-9.1182e-09
1.78828e-05
-9.52549e-09
1.78921e-05
-9.83119e-09
1.7901e-05
-1.00883e-08
1.79095e-05
-1.02792e-08
1.79176e-05
-1.04561e-08
1.79252e-05
-1.05772e-08
1.79324e-05
-1.0695e-08
1.79391e-05
-1.07604e-08
1.79453e-05
-1.08235e-08
1.79512e-05
-1.08331e-08
-1.08322e-08
1.79565e-05
1.58828e-05
-2.51693e-09
1.58867e-05
-7.51366e-09
1.58925e-05
-1.14734e-08
1.58997e-05
-1.40962e-08
1.59077e-05
-1.58505e-08
1.5916e-05
-1.69846e-08
1.59246e-05
-1.76638e-08
1.5933e-05
-1.79998e-08
1.59413e-05
-1.81052e-08
1.59492e-05
-1.80362e-08
1.59568e-05
-1.78761e-08
1.59639e-05
-1.76272e-08
1.59707e-05
-1.73534e-08
1.5977e-05
-1.70311e-08
1.59829e-05
-1.6712e-08
1.59885e-05
-1.63603e-08
1.59936e-05
-1.60204e-08
-1.5649e-08
1.59985e-05
1.41501e-05
-4.01059e-09
1.41541e-05
-1.15331e-08
1.416e-05
-1.73063e-08
1.41669e-05
-2.10374e-08
1.41745e-05
-2.34313e-08
1.41823e-05
-2.48681e-08
1.41902e-05
-2.56009e-08
1.4198e-05
-2.58129e-08
1.42056e-05
-2.56598e-08
1.42128e-05
-2.52746e-08
1.42196e-05
-2.4734e-08
1.42261e-05
-2.41077e-08
1.42321e-05
-2.34275e-08
1.42378e-05
-2.27315e-08
1.42431e-05
-2.20267e-08
1.42481e-05
-2.13363e-08
1.42527e-05
-2.06509e-08
-1.99853e-08
1.4257e-05
1.26067e-05
-5.63878e-09
1.2611e-05
-1.58602e-08
1.2617e-05
-2.33386e-08
1.26239e-05
-2.79809e-08
1.26313e-05
-3.08236e-08
1.26389e-05
-3.24394e-08
1.26464e-05
-3.31257e-08
1.26537e-05
-3.31305e-08
1.26607e-05
-3.26779e-08
1.26673e-05
-3.19414e-08
1.26736e-05
-3.10207e-08
1.26795e-05
-3.001e-08
1.2685e-05
-2.89419e-08
1.26901e-05
-2.78815e-08
1.26949e-05
-2.68236e-08
1.26994e-05
-2.58117e-08
1.27035e-05
-2.48214e-08
-2.38771e-08
1.27074e-05
1.12317e-05
-7.53944e-09
1.12365e-05
-2.06903e-08
1.12429e-05
-2.97336e-08
1.12499e-05
-3.50075e-08
1.12573e-05
-3.81419e-08
1.12646e-05
-3.98114e-08
1.12719e-05
-4.03418e-08
1.12788e-05
-4.00605e-08
1.12854e-05
-3.92625e-08
1.12916e-05
-3.81385e-08
1.12973e-05
-3.68312e-08
1.13028e-05
-3.54156e-08
1.13078e-05
-3.39831e-08
1.13124e-05
-3.25493e-08
1.13168e-05
-3.11778e-08
1.13208e-05
-2.98435e-08
1.13245e-05
-2.85936e-08
-2.73781e-08
1.13281e-05
1.00069e-05
-9.85441e-09
1.00125e-05
-2.62459e-08
1.00193e-05
-3.65681e-08
1.00265e-05
-4.21985e-08
1.00338e-05
-4.54489e-08
1.00411e-05
-4.7046e-08
1.0048e-05
-4.73136e-08
1.00547e-05
-4.66688e-08
1.00609e-05
-4.54663e-08
1.00667e-05
-4.39358e-08
1.0072e-05
-4.22099e-08
1.0077e-05
-4.04013e-08
1.00816e-05
-3.85793e-08
1.00858e-05
-3.68089e-08
1.00898e-05
-3.51064e-08
1.00934e-05
-3.35041e-08
1.00968e-05
-3.19796e-08
-3.05521e-08
1.01e-05
8.91606e-06
-1.28246e-08
8.92254e-06
-3.27195e-08
8.92984e-06
-4.38654e-08
8.93721e-06
-4.95439e-08
8.94456e-06
-5.27906e-08
8.9517e-06
-5.41856e-08
8.95847e-06
-5.40713e-08
8.96479e-06
-5.29887e-08
8.97067e-06
-5.13453e-08
8.9761e-06
-4.93666e-08
8.9811e-06
-4.72094e-08
8.98569e-06
-4.49868e-08
8.9899e-06
-4.27919e-08
8.99376e-06
-4.06796e-08
8.99732e-06
-3.8681e-08
9.00062e-06
-3.68044e-08
9.00368e-06
-3.50532e-08
-3.34022e-08
9.00654e-06
7.94454e-06
-1.66977e-08
7.95222e-06
-4.03785e-08
7.95999e-06
-5.16248e-08
7.96756e-06
-5.71051e-08
7.97499e-06
-6.02121e-08
7.98208e-06
-6.12687e-08
7.98868e-06
-6.06724e-08
7.99478e-06
-5.90827e-08
8.00039e-06
-5.69438e-08
8.00552e-06
-5.44967e-08
8.0102e-06
-5.18876e-08
8.01446e-06
-4.92468e-08
8.01834e-06
-4.66731e-08
8.02188e-06
-4.4226e-08
8.02512e-06
-4.19323e-08
8.02811e-06
-3.9801e-08
8.03088e-06
-3.78259e-08
-3.59754e-08
8.03344e-06
7.07948e-06
-2.18449e-08
7.08873e-06
-4.96203e-08
7.09714e-06
-6.0016e-08
7.10508e-06
-6.50274e-08
7.11274e-06
-6.78649e-08
7.11992e-06
-6.84424e-08
7.12651e-06
-6.72641e-08
7.13254e-06
-6.5102e-08
7.13801e-06
-6.24213e-08
7.14298e-06
-5.94584e-08
7.14746e-06
-5.6364e-08
7.15148e-06
-5.32729e-08
7.1551e-06
-5.02895e-08
7.15836e-06
-4.74911e-08
7.16131e-06
-4.48798e-08
7.16398e-06
-4.24762e-08
7.16641e-06
-4.02712e-08
-3.82273e-08
7.16865e-06
6.30997e-06
-2.93039e-08
6.32142e-06
-6.10228e-08
6.33112e-06
-6.97229e-08
6.34015e-06
-7.40395e-08
6.34865e-06
-7.63586e-08
6.35643e-06
-7.62178e-08
6.36345e-06
-7.42841e-08
6.36975e-06
-7.13965e-08
6.37536e-06
-6.8032e-08
6.38033e-06
-6.44197e-08
6.38468e-06
-6.07118e-08
6.38845e-06
-5.70347e-08
6.39167e-06
-5.35381e-08
6.39444e-06
-5.02433e-08
6.39677e-06
-4.72136e-08
6.39873e-06
-4.44423e-08
6.40038e-06
-4.19237e-08
-3.96142e-08
6.40176e-06
5.62909e-06
-4.34808e-08
5.64514e-06
-7.70403e-08
5.65879e-06
-8.33631e-08
5.67127e-06
-8.6505e-08
5.68243e-06
-8.75085e-08
5.69204e-06
-8.58247e-08
5.70012e-06
-8.23492e-08
5.70672e-06
-7.7999e-08
5.71194e-06
-7.32423e-08
5.71585e-06
-6.83381e-08
5.71857e-06
-6.34171e-08
5.72015e-06
-5.86294e-08
5.72071e-06
-5.41052e-08
5.72039e-06
-4.99148e-08
5.7193e-06
-4.61141e-08
5.71759e-06
-4.27351e-08
5.71542e-06
-3.97594e-08
-3.73112e-08
5.71311e-06
5.04859e-06
-8.97563e-08
5.07973e-06
-1.08125e-07
5.10113e-06
-1.04751e-07
5.11526e-06
-1.00615e-07
5.12253e-06
-9.4767e-08
5.12368e-06
-8.69735e-08
5.1199e-06
-7.85589e-08
5.11219e-06
-7.02851e-08
5.10141e-06
-6.24606e-08
5.08829e-06
-5.52074e-08
5.07351e-06
-4.86369e-08
5.0576e-06
-4.27361e-08
5.04091e-06
-3.74133e-08
5.02372e-06
-3.27159e-08
5.00633e-06
-2.87201e-08
4.98912e-06
-2.55169e-08
4.97245e-06
-2.30957e-08
-2.17239e-08
4.95686e-06
4.3668e-06
4.25867e-06
4.15392e-06
4.05331e-06
3.95854e-06
3.87157e-06
3.79301e-06
3.72273e-06
3.66027e-06
3.60506e-06
3.55642e-06
3.51368e-06
3.47627e-06
3.44356e-06
3.41484e-06
3.38932e-06
3.36622e-06
3.3445e-06
-8.26718e-09
8.2426e-09
-2.23827e-08
1.40808e-08
-3.77172e-08
1.52937e-08
-5.07586e-08
1.30202e-08
-5.62939e-08
5.49618e-09
-4.82851e-08
-8.01597e-09
-2.48397e-08
-2.34769e-08
1.16477e-08
-3.64917e-08
5.69329e-08
-4.53069e-08
1.06181e-07
-4.925e-08
1.54917e-07
-4.87528e-08
2.00096e-07
-4.51817e-08
2.39692e-07
-3.96117e-08
2.72518e-07
-3.28239e-08
2.97841e-07
-2.53413e-08
3.15305e-07
-1.74587e-08
3.24597e-07
-9.31057e-09
3.2545e-07
-8.42545e-10
3.17633e-07
7.79796e-09
3.01437e-07
1.6207e-08
2.77457e-07
2.39565e-08
2.46799e-07
3.0665e-08
2.10855e-07
3.59174e-08
1.716e-07
3.92586e-08
1.31315e-07
4.02478e-08
9.27199e-08
3.85972e-08
5.83543e-08
3.43216e-08
3.04005e-08
2.79556e-08
9.77328e-09
2.05704e-08
-3.58231e-09
1.33594e-08
-1.05066e-08
6.86886e-09
-1.11062e-08
6.20484e-10
-5.11552e-09
-6.05051e-09
8.70036e-09
-1.37856e-08
3.1279e-08
-2.26566e-08
6.19362e-08
-3.0625e-08
9.59252e-08
-3.40542e-08
1.27386e-07
-3.13941e-08
1.51102e-07
-2.37537e-08
1.64848e-07
-1.36109e-08
1.69656e-07
-4.75802e-09
1.68868e-07
9.99596e-10
1.65228e-07
3.73907e-09
1.62091e-07
3.37723e-09
1.59243e-07
2.85536e-09
1.48955e-07
1.05619e-08
1.21731e-07
2.70785e-08
7.10801e-08
5.1001e-08
-5.58219e-09
7.63767e-08
-1.03276e-07
9.79868e-08
-2.19506e-07
1.16026e-07
-3.50606e-07
1.31211e-07
-4.93175e-07
1.42422e-07
-6.3959e-07
1.4641e-07
-7.8739e-07
1.47702e-07
-9.344e-07
1.46988e-07
-1.07608e-06
1.4162e-07
-1.21016e-06
1.34047e-07
-1.33576e-06
1.25576e-07
-1.45219e-06
1.164e-07
-1.55994e-06
1.07745e-07
-1.65853e-06
9.85593e-08
-1.7485e-06
8.99739e-08
-1.83139e-06
8.28615e-08
-1.90758e-06
7.61963e-08
-1.97795e-06
7.03436e-08
-2.04307e-06
6.51327e-08
-2.10364e-06
6.05522e-08
-2.16014e-06
5.65082e-08
-2.21309e-06
5.29261e-08
-2.26281e-06
4.97303e-08
-2.30967e-06
4.68492e-08
-2.35389e-06
4.42311e-08
-2.39573e-06
4.18199e-08
-2.4353e-06
3.95829e-08
-2.47278e-06
3.74794e-08
-2.50826e-06
3.54906e-08
-2.54185e-06
3.35879e-08
-2.5736e-06
3.17614e-08
-2.60358e-06
2.99917e-08
-2.63184e-06
2.82731e-08
-2.65843e-06
2.65936e-08
-2.68337e-06
2.49486e-08
-2.70668e-06
2.33317e-08
-2.72841e-06
2.17373e-08
-2.74855e-06
2.01633e-08
-2.76714e-06
1.85999e-08
-2.78417e-06
1.70479e-08
-2.79968e-06
1.55008e-08
-2.81366e-06
1.3945e-08
-2.82608e-06
1.23881e-08
-2.83692e-06
1.08165e-08
-2.84614e-06
9.22262e-09
-2.85373e-06
7.59935e-09
-2.85963e-06
5.9312e-09
-2.86379e-06
4.21604e-09
-2.86617e-06
2.44074e-09
-2.86676e-06
6.63368e-10
-2.86572e-06
-9.76203e-10
-2.86327e-06
-2.38657e-09
-2.85953e-06
-3.69208e-09
-2.85451e-06
-4.95735e-09
-2.84827e-06
-6.21681e-09
-2.84076e-06
-7.45997e-09
-2.83204e-06
-8.70683e-09
-2.82207e-06
-9.93793e-09
-2.81089e-06
-1.11728e-08
-2.79848e-06
-1.23906e-08
-2.78487e-06
-1.36108e-08
-2.77005e-06
-1.4813e-08
-2.75405e-06
-1.60161e-08
-2.73685e-06
-1.72004e-08
-2.71849e-06
-1.8384e-08
-2.69896e-06
-1.95483e-08
-2.67828e-06
-2.07099e-08
-2.65645e-06
-2.1852e-08
-2.63351e-06
-2.29891e-08
-2.60943e-06
-2.41069e-08
-2.58426e-06
-2.52174e-08
-2.55799e-06
-2.63089e-08
-2.53065e-06
-2.73905e-08
-2.50224e-06
-2.84533e-08
-2.47279e-06
-2.95035e-08
-2.4423e-06
-3.05344e-08
-2.4108e-06
-3.15499e-08
-2.37831e-06
-3.2546e-08
-2.34483e-06
-3.35248e-08
-2.3104e-06
-3.44826e-08
-2.27503e-06
-3.5417e-08
-2.23875e-06
-3.63257e-08
-2.20158e-06
-3.72102e-08
-2.16354e-06
-3.80666e-08
-2.1247e-06
-3.88799e-08
-2.0851e-06
-3.96469e-08
-2.04479e-06
-4.03523e-08
-2.00385e-06
-4.09835e-08
-1.96223e-06
-4.16542e-08
-1.91986e-06
-4.24068e-08
-1.87679e-06
-4.31027e-08
-1.83312e-06
-4.37422e-08
-1.78884e-06
-4.43441e-08
-1.74401e-06
-4.4916e-08
-1.69864e-06
-4.54466e-08
-1.65276e-06
-4.59511e-08
-1.60639e-06
-4.64164e-08
-1.55956e-06
-4.6859e-08
-1.51227e-06
-4.72614e-08
-1.46455e-06
-4.76448e-08
-1.41644e-06
-4.80019e-08
-1.36798e-06
-4.83471e-08
-1.31919e-06
-4.86756e-08
-1.27008e-06
-4.89859e-08
-1.22068e-06
-4.92764e-08
-1.17101e-06
-4.95432e-08
-1.12109e-06
-4.97907e-08
-1.07094e-06
-5.00262e-08
-1.02057e-06
-5.02499e-08
-9.69975e-07
-5.04753e-08
-9.19156e-07
-5.06953e-08
-8.68118e-07
-5.0923e-08
-8.16844e-07
-5.11533e-08
-7.65343e-07
-5.13899e-08
-7.13601e-07
-5.16269e-08
-6.6163e-07
-5.18651e-08
-6.09422e-07
-5.21024e-08
-5.56984e-07
-5.23413e-08
-5.04305e-07
-5.25852e-08
-4.51383e-07
-5.28355e-08
-3.98208e-07
-5.30963e-08
-3.44772e-07
-5.33599e-08
-2.91085e-07
-5.36209e-08
-2.37162e-07
-5.38544e-08
-1.83073e-07
-5.40337e-08
-1.2892e-07
-5.40902e-08
-7.49168e-08
-5.3956e-08
-2.14995e-08
-5.33551e-08
3.06672e-08
-5.21258e-08
7.99168e-08
-4.91966e-08
1.25385e-07
-4.54429e-08
-2.01841e-08
1.45632e-07
-3.51787e-09
1.17173e-08
-9.71551e-09
2.02247e-08
-1.24876e-08
1.79835e-08
-4.53313e-09
5.01748e-09
1.89751e-08
-1.80754e-08
5.71621e-08
-4.62191e-08
1.05368e-07
-7.17079e-08
1.57951e-07
-8.90798e-08
2.09738e-07
-9.71059e-08
2.57548e-07
-9.70645e-08
2.99913e-07
-9.11269e-08
3.36188e-07
-8.14588e-08
3.66276e-07
-6.97085e-08
3.90407e-07
-5.69558e-08
4.08905e-07
-4.38487e-08
4.22188e-07
-3.07398e-08
4.30663e-07
-1.77961e-08
4.34931e-07
-5.10743e-09
4.35356e-07
7.36178e-09
4.31838e-07
1.97268e-08
4.2386e-07
3.19194e-08
4.1086e-07
4.36647e-08
3.92267e-07
5.44929e-08
3.67799e-07
6.37207e-08
3.37528e-07
7.04986e-08
3.02191e-07
7.39289e-08
2.63207e-07
7.3282e-08
2.22897e-07
6.82618e-08
1.84289e-07
5.91469e-08
1.50993e-07
4.66599e-08
1.26251e-07
3.15698e-08
1.12467e-07
1.44201e-08
1.10561e-07
-4.1903e-09
1.20221e-07
-2.34257e-08
1.38704e-07
-4.11871e-08
1.60328e-07
-5.22278e-08
1.77832e-07
-5.15947e-08
1.87164e-07
-4.06709e-08
1.86826e-07
-2.34341e-08
1.77056e-07
-3.73342e-09
1.59563e-07
1.275e-08
1.34554e-07
2.62277e-08
9.40384e-08
4.42681e-08
2.85975e-08
6.90271e-08
-6.90376e-08
1.00489e-07
-1.9531e-07
1.36942e-07
-3.41074e-07
1.72831e-07
-4.96283e-07
2.06259e-07
-6.55823e-07
2.35902e-07
-8.16873e-07
2.59081e-07
-9.76047e-07
2.75187e-07
-1.12921e-06
2.84382e-07
-1.27302e-06
2.86213e-07
-1.40694e-06
2.80317e-07
-1.5281e-06
2.6884e-07
-1.63538e-06
2.54251e-07
-1.73055e-06
2.3677e-07
-1.81467e-06
2.18154e-07
-1.88905e-06
1.9995e-07
-1.95531e-06
1.8265e-07
-2.01446e-06
1.66896e-07
-2.0683e-06
1.52383e-07
-2.11768e-06
1.39352e-07
-2.16296e-06
1.2813e-07
-2.20505e-06
1.18284e-07
-2.24441e-06
1.09696e-07
-2.28144e-06
1.02166e-07
-2.31644e-06
9.55417e-08
-2.3496e-06
8.96647e-08
-2.38108e-06
8.43999e-08
-2.41098e-06
7.96359e-08
-2.43941e-06
7.52744e-08
-2.46642e-06
7.12384e-08
-2.49206e-06
6.74608e-08
-2.51637e-06
6.38923e-08
-2.53938e-06
6.04888e-08
-2.5611e-06
5.722e-08
-2.58157e-06
5.40574e-08
-2.60078e-06
5.0983e-08
-2.61876e-06
4.79787e-08
-2.63552e-06
4.50337e-08
-2.65105e-06
4.21364e-08
-2.66538e-06
3.92797e-08
-2.67849e-06
3.64566e-08
-2.6904e-06
3.36612e-08
-2.70112e-06
3.08888e-08
-2.71064e-06
2.81331e-08
-2.71897e-06
2.53914e-08
-2.72614e-06
2.26547e-08
-2.73214e-06
1.99258e-08
-2.73697e-06
1.71976e-08
-2.74064e-06
1.44696e-08
-2.74316e-06
1.17451e-08
-2.74457e-06
9.02279e-09
-2.74491e-06
6.31234e-09
-2.74427e-06
3.62278e-09
-2.74275e-06
9.75649e-10
-2.74043e-06
-1.60194e-09
-2.73723e-06
-4.11553e-09
-2.73297e-06
-6.60714e-09
-2.72752e-06
-9.09634e-09
-2.72087e-06
-1.15762e-08
-2.713e-06
-1.40479e-08
-2.70393e-06
-1.651e-08
-2.69364e-06
-1.89641e-08
-2.68216e-06
-2.14061e-08
-2.66948e-06
-2.38382e-08
-2.65561e-06
-2.6255e-08
-2.64055e-06
-2.86597e-08
-2.62432e-06
-3.10463e-08
-2.60692e-06
-3.34186e-08
-2.58836e-06
-3.57703e-08
-2.56865e-06
-3.81057e-08
-2.5478e-06
-4.04181e-08
-2.52581e-06
-4.27118e-08
-2.50271e-06
-4.49803e-08
-2.47849e-06
-4.72277e-08
-2.45318e-06
-4.94478e-08
-2.42678e-06
-5.16444e-08
-2.39931e-06
-5.38121e-08
-2.37078e-06
-5.59536e-08
-2.3412e-06
-5.80638e-08
-2.31059e-06
-6.01444e-08
-2.27897e-06
-6.21904e-08
-2.24635e-06
-6.42023e-08
-2.21275e-06
-6.61762e-08
-2.1782e-06
-6.81121e-08
-2.14271e-06
-7.0006e-08
-2.1063e-06
-7.18554e-08
-2.069e-06
-7.36551e-08
-2.03083e-06
-7.54043e-08
-1.99182e-06
-7.70981e-08
-1.952e-06
-7.87288e-08
-1.91138e-06
-8.02932e-08
-1.86997e-06
-8.17914e-08
-1.82776e-06
-8.32243e-08
-1.78479e-06
-8.46417e-08
-1.74117e-06
-8.60501e-08
-1.69691e-06
-8.73922e-08
-1.65203e-06
-8.86602e-08
-1.60656e-06
-8.98609e-08
-1.56054e-06
-9.09953e-08
-1.51397e-06
-9.20617e-08
-1.46689e-06
-9.30658e-08
-1.41933e-06
-9.40075e-08
-1.3713e-06
-9.48891e-08
-1.32283e-06
-9.57125e-08
-1.27393e-06
-9.64859e-08
-1.22464e-06
-9.72204e-08
-1.17499e-06
-9.79206e-08
-1.125e-06
-9.85921e-08
-1.07469e-06
-9.92211e-08
-1.02408e-06
-9.98139e-08
-9.73181e-07
-1.00359e-07
-9.22025e-07
-1.00871e-07
-8.70621e-07
-1.01354e-07
-8.18978e-07
-1.01818e-07
-7.67105e-07
-1.02275e-07
-7.14997e-07
-1.02731e-07
-6.62656e-07
-1.03193e-07
-6.10072e-07
-1.03666e-07
-5.57244e-07
-1.04148e-07
-5.04166e-07
-1.04636e-07
-4.50842e-07
-1.05124e-07
-3.97267e-07
-1.05614e-07
-3.43443e-07
-1.06106e-07
-2.89363e-07
-1.06608e-07
-2.35023e-07
-1.07124e-07
-1.80413e-07
-1.07657e-07
-1.25529e-07
-1.082e-07
-7.03746e-08
-1.08733e-07
-1.49757e-08
-1.09215e-07
4.06196e-08
-1.09593e-07
9.63247e-08
-1.09761e-07
1.5194e-07
-1.0954e-07
2.07211e-07
-1.08595e-07
2.61475e-07
-1.06363e-07
3.14116e-07
-1.01812e-07
3.61719e-07
-9.30278e-08
-6.56267e-08
4.07204e-07
3.93148e-10
1.12907e-08
4.1461e-09
1.6422e-08
1.95824e-08
2.49046e-09
5.42906e-08
-2.97167e-08
1.0631e-07
-7.01169e-08
1.65651e-07
-1.05568e-07
2.22421e-07
-1.28488e-07
2.71199e-07
-1.37861e-07
3.10464e-07
-1.36377e-07
3.41014e-07
-1.27616e-07
3.64471e-07
-1.14589e-07
3.82391e-07
-9.93798e-08
3.95945e-07
-8.32677e-08
4.05956e-07
-6.69659e-08
4.12948e-07
-5.08466e-08
4.17303e-07
-3.50928e-08
4.1929e-07
-1.97895e-08
4.1917e-07
-4.98503e-09
4.17224e-07
9.29908e-09
4.13843e-07
2.31073e-08
4.09268e-07
3.64824e-08
4.03539e-07
4.93909e-08
3.96344e-07
6.16726e-08
3.87098e-07
7.29619e-08
3.74943e-07
8.26362e-08
3.59057e-07
8.98104e-08
3.38911e-07
9.34098e-08
3.14809e-07
9.23585e-08
2.88062e-07
8.58776e-08
2.611e-07
7.36205e-08
2.36804e-07
5.58496e-08
2.17756e-07
3.34763e-08
2.05433e-07
8.11714e-09
1.98858e-07
-1.68388e-08
1.92313e-07
-3.46632e-08
1.78645e-07
-3.85477e-08
1.54965e-07
-2.79396e-08
1.22122e-07
-7.79551e-09
8.00618e-08
1.85897e-08
2.56838e-08
5.06915e-08
-4.80274e-08
8.64542e-08
-1.46257e-07
1.24495e-07
-2.68125e-07
1.66148e-07
-4.09219e-07
2.10139e-07
-5.62197e-07
2.53469e-07
-7.18485e-07
2.93253e-07
-8.7254e-07
3.26889e-07
-1.01905e-06
3.52795e-07
-1.15377e-06
3.70635e-07
-1.27478e-06
3.8011e-07
-1.38117e-06
3.81583e-07
-1.47261e-06
3.75844e-07
-1.55022e-06
3.63815e-07
-1.61661e-06
3.46711e-07
-1.67414e-06
3.26366e-07
-1.72444e-06
3.04547e-07
-1.76986e-06
2.82191e-07
-1.81198e-06
2.60274e-07
-1.85168e-06
2.3965e-07
-1.88966e-06
2.20625e-07
-1.92619e-06
2.03431e-07
-1.96178e-06
1.87967e-07
-1.99658e-06
1.74151e-07
-2.03042e-06
1.61966e-07
-2.06334e-06
1.51198e-07
-2.0953e-06
1.41656e-07
-2.1263e-06
1.33157e-07
-2.1563e-06
1.25537e-07
-2.18528e-06
1.18645e-07
-2.21323e-06
1.12347e-07
-2.24013e-06
1.06534e-07
-2.26597e-06
1.01113e-07
-2.29074e-06
9.6008e-08
-2.31443e-06
9.11542e-08
-2.33704e-06
8.65016e-08
-2.35856e-06
8.20093e-08
-2.37898e-06
7.76455e-08
-2.39831e-06
7.33844e-08
-2.41653e-06
6.92067e-08
-2.43364e-06
6.50966e-08
-2.44964e-06
6.10422e-08
-2.46453e-06
5.70339e-08
-2.47831e-06
5.30643e-08
-2.49098e-06
4.91274e-08
-2.50253e-06
4.52179e-08
-2.51296e-06
4.13316e-08
-2.52228e-06
3.74639e-08
-2.53049e-06
3.36104e-08
-2.53761e-06
2.97697e-08
-2.54364e-06
2.59351e-08
-2.54857e-06
2.21118e-08
-2.55241e-06
1.82982e-08
-2.55515e-06
1.44967e-08
-2.55682e-06
1.07126e-08
-2.55743e-06
6.95433e-09
-2.55699e-06
3.22598e-09
-2.55551e-06
-4.62377e-10
-2.55295e-06
-4.11732e-09
-2.54927e-06
-7.75378e-09
-2.54444e-06
-1.13997e-08
-2.53845e-06
-1.50496e-08
-2.5313e-06
-1.87012e-08
-2.52298e-06
-2.23438e-08
-2.51349e-06
-2.59806e-08
-2.50283e-06
-2.96025e-08
-2.49101e-06
-3.32135e-08
-2.47803e-06
-3.68048e-08
-2.4639e-06
-4.03807e-08
-2.44862e-06
-4.39333e-08
-2.4322e-06
-4.74664e-08
-2.41464e-06
-5.0973e-08
-2.39597e-06
-5.44565e-08
-2.37617e-06
-5.79107e-08
-2.35526e-06
-6.1338e-08
-2.33325e-06
-6.47329e-08
-2.31015e-06
-6.80969e-08
-2.28597e-06
-7.14255e-08
-2.26072e-06
-7.47195e-08
-2.2344e-06
-7.79753e-08
-2.20705e-06
-8.11931e-08
-2.17865e-06
-8.43695e-08
-2.14924e-06
-8.75036e-08
-2.11882e-06
-9.05917e-08
-2.0874e-06
-9.36315e-08
-2.05501e-06
-9.66191e-08
-2.02166e-06
-9.95517e-08
-1.98737e-06
-1.02426e-07
-1.95216e-06
-1.05239e-07
-1.91605e-06
-1.07986e-07
-1.87907e-06
-1.10661e-07
-1.84123e-06
-1.13261e-07
-1.80256e-06
-1.15783e-07
-1.76308e-06
-1.1822e-07
-1.72283e-06
-1.20569e-07
-1.68181e-06
-1.22834e-07
-1.64003e-06
-1.25019e-07
-1.59755e-06
-1.27143e-07
-1.55441e-06
-1.29205e-07
-1.51064e-06
-1.31179e-07
-1.46627e-06
-1.33059e-07
-1.42132e-06
-1.34846e-07
-1.37582e-06
-1.36536e-07
-1.32978e-06
-1.38131e-07
-1.28325e-06
-1.39633e-07
-1.23623e-06
-1.41047e-07
-1.18875e-06
-1.42373e-07
-1.14084e-06
-1.43616e-07
-1.09251e-06
-1.44788e-07
-1.04379e-06
-1.45901e-07
-9.94713e-07
-1.46965e-07
-9.45293e-07
-1.47979e-07
-8.95549e-07
-1.48937e-07
-8.45498e-07
-1.49834e-07
-7.9516e-07
-1.50671e-07
-7.44551e-07
-1.51452e-07
-6.93687e-07
-1.52195e-07
-6.42576e-07
-1.52905e-07
-5.91226e-07
-1.53605e-07
-5.39636e-07
-1.54301e-07
-4.87806e-07
-1.55007e-07
-4.35729e-07
-1.55726e-07
-3.83404e-07
-1.56461e-07
-3.30824e-07
-1.57202e-07
-2.77992e-07
-1.57946e-07
-2.24904e-07
-1.5869e-07
-1.71561e-07
-1.59441e-07
-1.17957e-07
-1.60203e-07
-6.40885e-08
-1.60987e-07
-9.94676e-09
-1.61792e-07
4.44715e-08
-1.62613e-07
9.91622e-08
-1.63418e-07
1.54108e-07
-1.64155e-07
2.09258e-07
-1.64737e-07
2.64526e-07
-1.65021e-07
3.19763e-07
-1.64771e-07
3.74753e-07
-1.63575e-07
4.29124e-07
-1.60727e-07
4.82422e-07
-1.55103e-07
5.33671e-07
-1.44273e-07
-1.18364e-07
5.86419e-07
-7.74511e-11
1.13404e-08
1.36967e-08
2.61525e-09
5.51801e-08
-3.9017e-08
1.18607e-07
-9.3155e-08
1.86182e-07
-1.377e-07
2.43829e-07
-1.63218e-07
2.86248e-07
-1.70911e-07
3.14607e-07
-1.6622e-07
3.32622e-07
-1.54394e-07
3.43988e-07
-1.38982e-07
3.51355e-07
-1.21959e-07
3.56296e-07
-1.04319e-07
3.59584e-07
-8.65597e-08
3.61562e-07
-6.8942e-08
3.62329e-07
-5.16174e-08
3.61928e-07
-3.46889e-08
3.60367e-07
-1.82328e-08
3.57702e-07
-2.31667e-09
3.53992e-07
1.30021e-08
3.49407e-07
2.76932e-08
3.44151e-07
4.17275e-08
3.38482e-07
5.50598e-08
3.32535e-07
6.76047e-08
3.2632e-07
7.91749e-08
3.19553e-07
8.93876e-08
3.11733e-07
9.76266e-08
3.02121e-07
1.03007e-07
2.90083e-07
1.04396e-07
2.75248e-07
1.00697e-07
2.57924e-07
9.09486e-08
2.39117e-07
7.46473e-08
2.20018e-07
5.25816e-08
2.00063e-07
2.80606e-08
1.73969e-07
9.26109e-09
1.35304e-07
3.98106e-09
8.29973e-08
1.37662e-08
1.78507e-08
3.71782e-08
-6.19092e-08
7.19667e-08
-1.58373e-07
1.15032e-07
-2.7106e-07
1.63379e-07
-3.98316e-07
2.13696e-07
-5.36978e-07
2.63161e-07
-6.80893e-07
3.10054e-07
-8.23682e-07
3.52936e-07
-9.59536e-07
3.89319e-07
-1.0833e-06
4.17033e-07
-1.19226e-06
4.35853e-07
-1.28556e-06
4.46117e-07
-1.36321e-06
4.48294e-07
-1.42654e-06
4.43456e-07
-1.47764e-06
4.32697e-07
-1.51901e-06
4.17228e-07
-1.55341e-06
3.98221e-07
-1.58354e-06
3.76852e-07
-1.61149e-06
3.54316e-07
-1.63854e-06
3.31611e-07
-1.66573e-06
3.09381e-07
-1.69358e-06
2.88129e-07
-1.72217e-06
2.68243e-07
-1.75144e-06
2.49898e-07
-1.78118e-06
2.3317e-07
-1.81122e-06
2.18004e-07
-1.84138e-06
2.04308e-07
-1.8714e-06
1.91986e-07
-1.9011e-06
1.80893e-07
-1.93032e-06
1.70873e-07
-1.95894e-06
1.61776e-07
-1.98686e-06
1.5346e-07
-2.01401e-06
1.45795e-07
-2.04033e-06
1.38665e-07
-2.06577e-06
1.31974e-07
-2.0903e-06
1.25636e-07
-2.11387e-06
1.19583e-07
-2.13648e-06
1.13756e-07
-2.15808e-06
1.0811e-07
-2.17868e-06
1.02608e-07
-2.19825e-06
9.72192e-08
-2.21679e-06
9.19218e-08
-2.23428e-06
8.66979e-08
-2.25071e-06
8.15336e-08
-2.26608e-06
7.64184e-08
-2.28039e-06
7.13442e-08
-2.29362e-06
6.63048e-08
-2.30578e-06
6.12951e-08
-2.31687e-06
5.63111e-08
-2.32688e-06
5.13494e-08
-2.33582e-06
4.64063e-08
-2.34368e-06
4.1479e-08
-2.35049e-06
3.6562e-08
-2.35622e-06
3.1661e-08
-2.36089e-06
2.67664e-08
-2.36448e-06
2.18854e-08
-2.36699e-06
1.70186e-08
-2.36842e-06
1.217e-08
-2.36878e-06
7.34362e-09
-2.36805e-06
2.53972e-09
-2.36623e-06
-2.24125e-09
-2.3633e-06
-7.00892e-09
-2.35925e-06
-1.17733e-08
-2.35407e-06
-1.65488e-08
-2.34776e-06
-2.13297e-08
-2.34033e-06
-2.61134e-08
-2.33176e-06
-3.08893e-08
-2.32207e-06
-3.5658e-08
-2.31125e-06
-4.04098e-08
-2.2993e-06
-4.51473e-08
-2.28623e-06
-4.98609e-08
-2.27205e-06
-5.45547e-08
-2.25676e-06
-5.92189e-08
-2.24037e-06
-6.38586e-08
-2.22288e-06
-6.84645e-08
-2.2043e-06
-7.30416e-08
-2.18463e-06
-7.75808e-08
-2.16389e-06
-8.20867e-08
-2.14208e-06
-8.65503e-08
-2.11922e-06
-9.09756e-08