/*--------------------------------*- C++ -*----------------------------------*\
  =========                 |
  \\      /  F ield         | OpenFOAM: The Open Source CFD Toolbox
   \\    /   O peration     | Website:  https://openfoam.org
    \\  /    A nd           | Version:  8
     \\/     M anipulation  |
\*---------------------------------------------------------------------------*/
FoamFile
{
    version     2.0;
    format      ascii;
    class       volVectorField;
    location    "400";
    object      wallShearStress;
}
// * * * * * * * * * * * * * * * * * * * * * * * * * * * * * * * * * * * * * //

dimensions      [0 2 -2 0 0 0 0];

internalField   uniform (0 0 0);

boundaryField
{
    inlet
    {
        type            calculated;
        value           uniform (0 0 0);
    }
    outlet
    {
        type            calculated;
        value           uniform (0 0 0);
    }
    upperWall
    {
        type            calculated;
        value           nonuniform List<vector> 
223
(
(-0.444097 0.00317215 0)
(-0.475575 0.00560716 0)
(-0.502525 0.0068432 0)
(-0.506767 0.00730723 0)
(-0.501546 0.00729561 0)
(-0.490716 0.00695035 0)
(-0.478696 0.00645325 0)
(-0.466365 0.00588564 0)
(-0.453884 0.00529352 0)
(-0.442165 0.00472256 0)
(-0.431404 0.00419026 0)
(-0.421633 0.00370071 0)
(-0.412851 0.00325529 0)
(-0.404995 0.00285428 0)
(-0.398001 0.00249715 0)
(-0.391781 0.00219074 0)
(-0.386213 0.00193892 0)
(-0.38126 0.00178535 0)
(-0.377299 0.00170054 0)
(-0.374183 0.00164707 5.80661e-22)
(-0.371151 0.00157289 0)
(-0.368213 0.00148792 0)
(-0.365366 0.00139854 0)
(-0.362607 0.0013078 5.9223e-22)
(-0.359943 0.0012181 0)
(-0.35737 0.001131 0)
(-0.354889 0.00104754 0)
(-0.352497 0.000968162 -1.20492e-21)
(-0.350191 0.000893224 1.2098e-21)
(-0.347969 0.000822397 1.21461e-21)
(-0.34583 0.000755874 0)
(-0.343771 0.000693284 -1.22409e-21)
(-0.34179 0.000634418 0)
(-0.339887 0.000578807 1.23342e-21)
(-0.338058 0.000526596 1.23804e-21)
(-0.336304 0.000477486 -1.24265e-21)
(-0.334621 0.000431657 0)
(-0.333008 0.000389065 0)
(-0.331462 0.000349643 0)
(-0.32998 0.000313428 0)
(-0.328559 0.000280229 -1.26564e-21)
(-0.327197 0.000250192 0)
(-0.325887 0.000222964 0)
(-0.324631 0.000198387 1.27949e-21)
(-0.323422 0.000176221 0)
(-0.32226 0.000156098 1.28879e-21)
(-0.321142 0.000137798 -1.29348e-21)
(-0.320068 0.000121057 1.29818e-21)
(-0.319036 0.000106146 0)
(-0.318044 9.27447e-05 0)
(-0.317091 8.09635e-05 0)
(-0.316176 7.0567e-05 1.31732e-21)
(-0.315295 6.18338e-05 -1.32217e-21)
(-0.31445 5.46293e-05 0)
(-0.313632 4.93313e-05 0)
(-0.312846 4.58628e-05 0)
(-0.312078 4.42432e-05 0)
(-0.311338 4.42816e-05 0)
(-0.310608 4.59929e-05 0)
(-0.309902 4.92556e-05 0)
(-0.309198 5.37544e-05 0)
(-0.308513 5.95705e-05 1.36751e-21)
(-0.307826 6.66973e-05 -1.37279e-21)
(-0.307148 7.49215e-05 0)
(-0.306471 8.38432e-05 0)
(-0.305787 9.38732e-05 0)
(-0.305114 0.000104371 -1.39441e-21)
(-0.304418 0.000117454 0)
(-0.3037 0.000129153 0)
(-0.303061 8.11173e-05 0)
(-0.302231 0.000121169 0)
(-0.301861 0.000421661 0)
(-0.301717 0.000481164 -2.86663e-21)
(-0.301122 0.000318429 0)
(-0.30088 0.000335076 0)
(-0.300286 0.000476784 0)
(-0.305564 0.000571508 0)
(-0.302129 0.00040291 0)
(-0.30428 0.00029521 0)
(-0.300293 0.00036322 0)
(-0.303198 0.000378585 3.06199e-21)
(-0.299184 0.000255031 0)
(-0.305014 7.18134e-05 0)
(-0.298522 -3.97343e-05 0)
(-0.334402 -0.000105914 -3.40745e-21)
(-0.357208 0.000328296 0)
(-0.335776 0.000847131 -3.39535e-21)
(-0.327867 0.000881258 0)
(-0.311361 0.0006145 0)
(-0.305168 0.000797305 0)
(-0.323191 0.00121399 -3.25492e-21)
(-0.308605 0.000760089 0)
(-0.316747 9.81668e-05 3.23993e-21)
(-0.308292 -0.000163313 3.19297e-21)
(-0.303519 -0.000125619 0)
(-0.295603 0.000146533 3.11047e-21)
(-0.295231 0.000408917 0)
(-0.294958 0.000445283 0)
(-0.294568 0.000520721 0)
(-0.294242 6.2747e-05 -3.14565e-21)
(-0.322965 0.000414766 0)
(-0.308391 0.000830044 -3.28308e-21)
(-0.309197 0.000381517 3.30566e-21)
(-0.292713 -0.000153381 0)
(-0.320805 0.000296797 0)
(-0.304439 0.000843337 0)
(-0.292709 0.000451929 0)
(-0.290844 0.000824238 0)
(-0.290086 0.000797312 0)
(-0.291057 0.000154035 0)
(-0.289365 0.000309548 -3.0966e-21)
(-0.288696 0.00077375 0)
(-0.288038 0.000643773 0)
(-0.287458 0.000760482 0)
(-0.288368 0.00106502 0)
(-0.285719 0.00039387 0)
(-0.285352 -8.26911e-05 0)
(-0.284846 0.000616612 0)
(-0.283838 0.0006537 0)
(-0.283237 0.000486456 0)
(-0.282473 0.00107277 0)
(-0.28133 0.00099182 0)
(-0.280453 0.000759468 0)
(-0.279304 0.000452472 -5.54292e-21)
(-0.278479 -0.000193325 0)
(-0.296885 -0.000491749 0)
(-0.312626 0.000220759 0)
(-0.281539 0.000523681 5.40129e-21)
(-0.274688 0.000759149 0)
(-0.273493 0.000932243 0)
(-0.272518 0.000221241 4.97551e-21)
(-0.281372 -7.95404e-05 0)
(-0.296872 0.000463791 -5.28601e-21)
(-0.273827 0.000894463 0)
(-0.267564 0.00048775 0)
(-0.284065 0.000933595 0)
(-0.265011 0.000894891 4.14193e-21)
(-0.290535 0.000906948 0)
(-0.262508 0.000746453 -3.79143e-21)
(-0.288602 0.000752286 0)
(-0.259898 0.000654518 0)
(-0.282843 0.000803422 0)
(-0.25695 0.00121591 0)
(-0.255283 0.000481354 0)
(-0.265111 -8.65638e-05 0)
(-0.266166 0.000444111 0)
(-0.250031 0.000621495 0)
(-0.252655 0.000792679 0)
(-0.246399 0.00116392 0)
(-0.244637 0.00128294 0)
(-0.243038 0.00196503 -1.08735e-21)
(-0.241494 0.00243593 7.98508e-22)
(-0.239626 0.00182348 0)
(-0.238199 0.000284779 0)
(-0.235888 -3.69499e-05 0)
(-0.260907 0.00117445 0)
(-0.23202 0.00034821 -7.78055e-22)
(-0.229502 -0.0010532 1.1864e-21)
(-0.226578 -0.000776996 -1.57189e-21)
(-0.222976 0.000870708 0)
(-0.243901 0.00218823 -2.42471e-21)
(-0.220546 0.00180185 -5.12512e-21)
(-0.219412 0.00209467 0)
(-0.218913 0.00133656 -6.57672e-21)
(-0.217363 0.000336993 7.63742e-21)
(-0.215418 0.000381153 0)
(-0.214741 0.000116979 0)
(-0.215459 -9.84328e-05 0)
(-0.216526 0.00118883 0)
(-0.20663 0.00200991 0)
(-0.20561 0.000755139 -1.31765e-20)
(-0.202476 4.40528e-05 0)
(-0.200022 -2.57767e-05 -1.57954e-20)
(-0.195902 -0.000344444 0)
(-0.192249 -0.000187945 0)
(-0.188516 0.000539242 0)
(-0.187847 0.00123306 0)
(-0.186599 0.00115052 0)
(-0.185962 0.00124556 2.30353e-20)
(-0.18474 0.000980694 0)
(-0.182639 0.000852637 0)
(-0.181146 0.00113882 -2.70528e-20)
(-0.180597 0.00120164 0)
(-0.179055 0.000899246 0)
(-0.175859 0.0003797 0)
(-0.170603 -5.35423e-05 3.4308e-20)
(-0.163282 -0.000173066 0)
(-0.154765 3.08604e-05 0)
(-0.144922 0.000464822 0)
(-0.133675 0.000922469 0)
(-0.121398 0.00137393 -5.97372e-20)
(-0.108838 0.00160915 0)
(-0.0973484 0.00159567 0)
(-0.0868278 0.00143596 0)
(-0.0782693 0.00127139 9.53878e-20)
(-0.0683979 0.00125647 0)
(-0.0636272 0.001723 0)
(-0.035091 0.00146267 -1.39931e-19)
(-0.0672627 0.00044085 0)
(-0.100943 0.00574527 1.19569e-17)
(-0.124033 0.0101109 2.14703e-17)
(-0.136265 0.0126684 2.01944e-17)
(-0.143554 0.0140545 1.94173e-17)
(-0.149018 0.0149207 1.87983e-17)
(-0.153384 0.0155289 -1.82711e-17)
(-0.156432 0.015972 -1.77945e-17)
(-0.158925 0.0162711 -6.01853e-36)
(-0.161096 0.0165186 -3.39702e-17)
(-0.163379 0.0167359 -1.66001e-17)
(-0.165575 0.0169559 6.62038e-34)
(-0.168195 0.0171675 0)
(-0.171174 0.0174262 -3.05226e-17)
(-0.174839 0.0177281 -2.93973e-17)
(-0.179057 0.0180976 -2.80484e-17)
(-0.184066 0.0185322 -2.40741e-35)
(-0.189766 0.0190361 4.95152e-17)
(-0.196391 0.0196287 2.27361e-17)
(-0.203731 0.0202869 2.40741e-35)
(-0.212516 0.0210827 -3.54679e-17)
(-0.220993 0.0218684 -1.23397e-20)
(-0.234649 0.0230508 -3.00927e-36)
(-0.23915 0.0237844 1.33615e-17)
(-0.265029 0.0253776 -7.14033e-18)
)
;
    }
    lowerWall
    {
        type            calculated;
        value           nonuniform List<vector> 
250
(
(-0.623081 -0.00647738 0)
(-0.594378 -0.0101667 0)
(-0.567499 -0.010158 0)
(-0.542152 -0.00963698 0)
(-0.519734 -0.00854385 0)
(-0.500926 -0.00660654 0)
(-0.538047 -0.00626303 0)
(-0.494192 -0.00655254 0)
(-0.476328 -0.00653628 0)
(-0.451912 -0.00526767 0)
(-0.444195 -0.00310172 0)
(-0.438133 -0.00109151 0)
(-0.478472 -7.37995e-05 0)
(-0.505808 -0.000694251 0)
(-0.454692 -0.000840273 0)
(-0.422879 9.60157e-05 0)
(-0.481133 -0.000440346 0)
(-0.441486 -0.000431836 0)
(0.00213383 6.75973e-05 0)
(0.00237248 -0.00277343 0)
(0.00263969 -0.00571761 0)
(0.00300083 -0.00885191 1.13276e-19)
(0.00338664 -0.0120093 -9.52731e-20)
(0.00367897 -0.0157337 8.40016e-20)
(0.00371507 -0.0156745 -7.46316e-20)
(0.00981404 -0.0356005 0)
(-0.0479501 -0.111426 0)
(0.000222954 -0.000274149 0)
(5.96191e-05 -0.000786563 0)
(-5.77788e-06 -0.000873725 0)
(5.52108e-05 -0.000874819 0)
(2.88717e-05 -0.0008316 1.5368e-19)
(-0.000151842 -0.000244129 -1.48608e-19)
(-0.00059498 0.00122826 0)
(-0.00118797 0.00395525 -1.70014e-19)
(-0.00154969 0.00738694 1.30479e-19)
(-0.00147916 0.0105961 0)
(-0.00107808 0.0129403 0)
(-0.000544598 0.0141457 0)
(-3.89576e-05 0.014194 0)
(0.000360831 0.0132907 0)
(0.000694118 0.0117039 0)
(0.00102066 0.00948369 0)
(0.00138008 0.00666668 0)
(0.001786 0.00330129 0)
(-0.000142054 -0.000277177 0)
(0.000170074 -0.000445785 0)
(0.000479907 -0.000495101 0)
(0.000798128 -0.000420909 0)
(0.00104698 -0.000181845 -0)
(0.00108221 0.000208988 -0)
(0.000824636 0.000674941 1.45822e-20)
(0.000302481 0.00110822 -1.62348e-20)
(-0.000413272 0.0014191 0)
(-0.00122895 0.00157171 -9.18915e-21)
(-0.00206623 0.00157965 0)
(-0.00286126 0.00147395 0)
(-0.00356999 0.00129096 0)
(-0.0041684 0.00106098 4.5691e-21)
(-0.00464554 0.000804479 0)
(-0.00499754 0.000532831 0)
(-0.00522185 0.000254312 -3.97852e-21)
(-0.00532343 -3.76501e-05 -0)
(-0.00527583 -0.000339726 0)
(-0.0050794 -0.000629797 -0)
(-0.0047434 -0.000888025 4.29826e-21)
(-0.00427972 -0.00109431 -0)
(-0.00370712 -0.00122772 5.10466e-21)
(-0.0030535 -0.0012694 0)
(-0.00235749 -0.00120589 -0)
(-0.00166826 -0.00103544 8.33352e-21)
(-0.00104284 -0.000775606 0)
(-0.000536778 -0.000471667 -1.38604e-20)
(-0.000180907 -0.000194311 0)
(4.30112e-05 -2.52611e-06 2.36465e-20)
(0.000185108 0.000116074 0)
(0.000262536 0.000223976 0)
(0.000235017 0.000348174 0)
(0.00010352 0.000505751 0)
(-0.000169079 0.000704706 0)
(-0.000601014 0.000899732 -1.41739e-20)
(-0.00116372 0.00101449 0)
(-0.00176184 0.000984774 1.73127e-20)
(-0.00227939 0.000809784 0)
(-0.00262575 0.000545986 -1.41447e-20)
(-0.0027772 0.00028295 0)
(-0.00277281 8.91172e-05 0)
(-0.00267443 2.72322e-06 1.40981e-20)
(-0.00255555 4.67707e-05 0)
(-0.0024746 0.000203982 1.45422e-20)
(-0.00242475 0.000396257 -1.46354e-20)
(-0.0023308 0.000431707 0)
(-0.0020055 6.91241e-05 -1.65277e-20)
(-0.00117453 -0.000667121 -2.00738e-20)
(0.000297258 -0.00134132 0)
(0.00206585 -0.00200389 0)
(0.00408491 -0.00267704 0)
(0.00638577 -0.00320895 0)
(0.0088437 -0.0035299 -0)
(0.0113435 -0.00372799 3.3483e-21)
(0.0138419 -0.00380936 0)
(0.0163001 -0.00375686 -2.62096e-21)
(0.0186391 -0.00361161 -0)
(0.0208519 -0.00341422 -0)
(0.0231886 -0.00318157 2.1034e-21)
(0.0259552 -0.00301101 0)
(0.0286647 -0.00277827 -2.03559e-21)
(0.0290585 -0.00239706 -0)
(0.0317607 -0.00229673 0)
(0.0337515 -0.0021203 -0)
(0.0357774 -0.00198045 1.81478e-21)
(0.0376684 -0.00185047 0)
(0.0395222 -0.00173565 -0)
(0.0412747 -0.00163275 1.76955e-21)
(0.0429912 -0.00154153 0)
(0.0446345 -0.00145968 1.74959e-21)
(0.046241 -0.00138588 0)
(0.0477928 -0.00131862 0)
(0.0493081 -0.0012567 0)
(0.05078 -0.00119923 -1.71963e-21)
(0.0522165 -0.00114506 -0)
(0.0536149 -0.00109371 0)
(0.0549785 -0.0010445 -1.70016e-21)
(0.0563067 -0.000997163 -1.69362e-21)
(0.0576003 -0.00095117 -0)
(0.0588596 -0.00090634 -1.68003e-21)
(0.0600838 -0.000862326 0)
(0.0612733 -0.000819186 -3.33072e-21)
(0.0624273 -0.000776573 -0)
(0.0635459 -0.000734394 -3.29841e-21)
(0.0646277 -0.000692495 -0)
(0.0656729 -0.000650854 3.26254e-21)
(0.0666799 -0.000609246 0)
(0.0676484 -0.000567551 0)
(0.0685772 -0.00052539 0)
(0.0694643 -0.00048271 -3.17782e-21)
(0.070309 -0.000439222 -0)
(0.0711095 -0.000394539 3.12801e-21)
(0.0718634 -0.00034833 0)
(0.0725689 -0.000300211 -3.07264e-21)
(0.0732232 -0.000249969 -3.04281e-21)
(0.073824 -0.000197589 -3.01164e-21)
(0.0743691 -0.000143894 -0)
(0.0748576 -9.09548e-05 0)
(0.0752905 -4.30581e-05 0)
(0.0756728 -3.46088e-06 0)
(0.0760095 3.15356e-05 0)
(0.0763017 6.6151e-05 0)
(0.0765482 0.000100211 0)
(0.0767491 0.000134152 0)
(0.0769037 0.000168064 2.66169e-21)
(0.077011 0.000201834 2.61359e-21)
(0.0770712 0.000235435 0)
(0.0770835 0.000268952 0)
(0.0770473 0.000302257 0)
(0.0769626 0.000335238 2.40074e-21)
(0.0768292 0.000368041 0)
(0.0766465 0.000400489 0)
(0.0764147 0.000432583 0)
(0.0761337 0.000464254 0)
(0.0758037 0.00049552 -2.08545e-21)
(0.0754246 0.000526256 0)
(0.0749969 0.000556535 0)
(0.0745207 0.000586184 1.86797e-21)
(0.0739966 0.000615325 -1.79049e-21)
(0.0734247 0.000643742 0)
(0.0728061 0.000671555 -1.62781e-21)
(0.0721407 0.000698672 0)
(0.0714296 0.000725072 1.45451e-21)
(0.0706734 0.00075067 0)
(0.0698729 0.000775554 0)
(0.0690287 0.000799641 0)
(0.068144 0.000822939 0)
(0.0672228 0.000845004 0)
(0.0662644 0.000866395 -1.73443e-21)
(0.0652521 0.000886451 -1.51768e-21)
(0.0642152 0.000905276 0)
(0.0631355 0.000922008 0)
(0.0620294 0.000935098 0)
(0.0608929 0.000942019 5.88729e-22)
(0.0597278 0.000940083 0)
(0.0585333 0.000933738 0)
(0.0573073 0.000939197 0)
(0.0560513 0.000953075 -4.49019e-22)
(0.0547672 0.000963653 7.27753e-22)
(0.0534594 0.000973366 0)
(0.0521289 0.000982148 0)
(0.0507771 0.000989876 1.6154e-21)
(0.0494058 0.000996833 1.92964e-21)
(0.0480159 0.00100281 0)
(0.0466093 0.00100817 0)
(0.0451866 0.00101265 -2.9338e-21)
(0.04375 0.00101659 3.29088e-21)
(0.0423011 0.00101988 0)
(0.040842 0.00102292 0)
(0.0393725 0.00102548 4.43841e-21)
(0.0378961 0.00102795 0)
(0.0364102 0.00102982 0)
(0.0349205 0.00103169 5.71861e-21)
(0.0334226 0.00103296 0)
(0.0319235 0.00103448 6.66141e-21)
(0.0304185 0.00103584 0)
(0.0289129 0.00103764 0)
(0.0274042 0.00103975 0)
(0.025894 0.00104233 -8.82047e-21)
(0.0243817 0.00104543 0)
(0.0228672 0.00104915 0)
(0.0213506 0.00105337 0)
(0.0198319 0.0010582 0)
(0.0183111 0.00106359 0)
(0.0167883 0.00106971 0)
(0.0152635 0.00107662 -1.39447e-20)
(0.0137364 0.00108451 -1.4889e-20)
(0.0122067 0.00109341 0)
(0.010674 0.00110337 0)
(0.00913801 0.00111425 0)
(0.00759882 0.00112585 1.95283e-20)
(0.00605711 0.00113831 0)
(0.00451462 0.00115062 -4.51439e-20)
(0.00297552 0.00115972 4.86949e-20)
(0.00144895 0.00116005 5.26594e-20)
(-6.05032e-05 0.00112853 -5.50796e-20)
(-0.00145936 0.00106263 5.41762e-20)
(-0.0030147 0.000894779 -5.21821e-20)
(-0.00335587 0.000500526 0)
(-0.00537108 0.00110929 -3.10823e-18)
(-0.00852974 0.000875773 -2.81569e-18)
(-0.0116657 0.000524339 -3.00927e-36)
(-0.0148941 0.000195296 -4.78778e-18)
(-0.0183349 -0.000150605 -8.90387e-18)
(-0.0219915 -0.000516284 -4.15522e-18)
(-0.025872 -0.000901536 3.88859e-18)
(-0.0300003 -0.00131102 -6.01853e-35)
(-0.0344 -0.00174694 0)
(-0.0390835 -0.00221521 3.22067e-18)
(-0.0440686 -0.00270611 3.02997e-18)
(-0.0493703 -0.00319755 0)
(-0.0549999 -0.00372405 0)
(-0.0610216 -0.00432488 0)
(-0.0674775 -0.004984 -3.75218e-35)
(-0.0743802 -0.00569548 6.45111e-35)
(-0.0818767 -0.00646217 1.08334e-34)
(-0.0898264 -0.00728802 -3.76814e-18)
(-0.0987926 -0.00818468 -3.43402e-18)
(-0.107855 -0.00915269 6.01853e-36)
(-0.119388 -0.01022 5.40542e-18)
(-0.128973 -0.0113854 8.97568e-18)
(-0.146288 -0.0126226 1.80556e-35)
(-0.15384 -0.0141254 -4.3326e-18)
(-0.188084 -0.0165001 -1.50463e-35)
)
;
    }
    frontAndBack
    {
        type            empty;
    }
}


// ************************************************************************* //
