/*--------------------------------*- C++ -*----------------------------------*\
  =========                 |
  \\      /  F ield         | OpenFOAM: The Open Source CFD Toolbox
   \\    /   O peration     | Website:  https://openfoam.org
    \\  /    A nd           | Version:  8
     \\/     M anipulation  |
\*---------------------------------------------------------------------------*/
FoamFile
{
    version     2.0;
    format      ascii;
    class       volVectorField;
    location    "400";
    object      wallShearStress;
}
// * * * * * * * * * * * * * * * * * * * * * * * * * * * * * * * * * * * * * //

dimensions      [0 2 -2 0 0 0 0];

internalField   uniform (0 0 0);

boundaryField
{
    inlet
    {
        type            calculated;
        value           uniform (0 0 0);
    }
    outlet
    {
        type            calculated;
        value           uniform (0 0 0);
    }
    upperWall
    {
        type            calculated;
        value           nonuniform List<vector> 
223
(
(-0.469094 0.00302303 0)
(-0.496314 0.00556166 0)
(-0.510965 0.00668343 0)
(-0.512309 0.00708198 0)
(-0.506946 0.00702089 0)
(-0.496058 0.00663486 0)
(-0.484678 0.00612976 0)
(-0.472884 0.00556448 0)
(-0.461036 0.00497929 0)
(-0.44994 0.00441352 0)
(-0.439782 0.0038895 0)
(-0.43062 0.00341039 0)
(-0.422419 0.00296986 0)
(-0.41516 0.00257421 0)
(-0.408767 0.00223068 0)
(-0.403138 0.00195151 0)
(-0.398118 0.00173846 0)
(-0.393648 0.00162739 0)
(-0.390048 0.00159083 0)
(-0.38718 0.00157584 5.78446e-22)
(-0.384354 0.00153774 0)
(-0.381587 0.00148522 0)
(-0.378873 0.00142482 0)
(-0.376222 0.00135907 5.90554e-22)
(-0.373635 0.00129076 0)
(-0.371124 0.00122063 0)
(-0.368685 0.00115126 0)
(-0.366326 0.00108235 -1.20336e-21)
(-0.364041 0.00101551 1.20881e-21)
(-0.361837 0.000950203 1.21421e-21)
(-0.359705 0.000887771 0)
(-0.357654 0.000827473 -1.2249e-21)
(-0.355671 0.000770367 0)
(-0.353768 0.000715687 1.23539e-21)
(-0.351928 0.000664186 1.24056e-21)
(-0.350164 0.000615662 -1.2457e-21)
(-0.348457 0.00057034 0)
(-0.346821 0.00052824 0)
(-0.345237 0.000488968 0)
(-0.34372 0.000452598 0)
(-0.342249 0.000418983 -1.27101e-21)
(-0.340839 0.00038808 0)
(-0.339471 0.000359823 0)
(-0.338159 0.000334026 1.28586e-21)
(-0.336883 0.000310761 0)
(-0.335656 0.000290061 1.29566e-21)
(-0.334459 0.00027181 -1.30053e-21)
(-0.333304 0.000255945 1.30542e-21)
(-0.332175 0.000242527 0)
(-0.331079 0.000231065 0)
(-0.330004 0.000221673 0)
(-0.328955 0.000214269 1.3251e-21)
(-0.327921 0.000208909 -1.33008e-21)
(-0.326907 0.000204918 0)
(-0.325904 0.000202348 0)
(-0.324917 0.000201215 0)
(-0.323935 0.000201175 0)
(-0.322965 0.000201771 0)
(-0.322 0.000203122 0)
(-0.321043 0.000205076 0)
(-0.32009 0.00020688 0)
(-0.319146 0.00020854 1.3772e-21)
(-0.318206 0.000210758 -1.38272e-21)
(-0.31727 0.000213903 0)
(-0.31634 0.000216962 0)
(-0.315404 0.000220321 0)
(-0.314494 0.000224033 -1.40536e-21)
(-0.313544 0.000227639 0)
(-0.312661 0.00023114 0)
(-0.311678 0.000236735 0)
(-0.310819 0.000243451 0)
(-0.309808 0.000252016 0)
(-0.308902 0.000257247 -2.87948e-21)
(-0.307917 0.000210596 0)
(-0.306836 0.000282073 0)
(-0.307053 0.000412028 0)
(-0.305425 0.000419875 0)
(-0.308549 0.000579774 0)
(-0.306775 0.000738704 0)
(-0.309951 0.000720491 0)
(-0.311206 0.000629086 3.1083e-21)
(-0.30618 0.000615258 0)
(-0.309616 0.000620428 0)
(-0.304262 0.000496123 0)
(-0.301644 0.000318391 -3.10435e-21)
(-0.305632 0.000141122 0)
(-0.300923 3.51001e-05 -3.11738e-21)
(-0.320285 -5.05821e-05 0)
(-0.364104 1.08355e-05 0)
(-0.342106 0.000137198 0)
(-0.335007 8.22719e-05 -3.46251e-21)
(-0.367832 0.000336326 0)
(-0.335826 0.0012305 3.44084e-21)
(-0.337354 0.00169885 3.43345e-21)
(-0.316756 0.00107197 0)
(-0.317573 0.000630561 3.26466e-21)
(-0.318326 0.000401338 0)
(-0.297074 -2.74592e-05 0)
(-0.34274 0.000307346 0)
(-0.322991 0.000538076 -3.40054e-21)
(-0.31678 0.000110734 0)
(-0.297622 0.00023569 -3.18544e-21)
(-0.295137 0.000331829 3.17528e-21)
(-0.294679 5.28045e-05 0)
(-0.306316 -9.21924e-05 0)
(-0.351586 0.00017749 0)
(-0.324848 3.44795e-06 0)
(-0.33567 0.000664387 0)
(-0.312896 0.00118691 0)
(-0.297162 0.000714728 0)
(-0.290912 0.00103198 -3.10472e-21)
(-0.289961 0.000972811 0)
(-0.29461 0.000365863 0)
(-0.288844 2.87479e-05 0)
(-0.329123 -0.000118373 0)
(-0.347727 -8.162e-06 0)
(-0.331112 4.07836e-05 0)
(-0.33801 0.000981512 0)
(-0.30646 0.00138865 0)
(-0.284107 0.000540017 0)
(-0.316766 7.47278e-05 0)
(-0.320791 1.15677e-06 0)
(-0.309259 0.000276806 0)
(-0.328806 0.000272331 -6.67852e-21)
(-0.322893 0.000819652 0)
(-0.290651 0.00104357 0)
(-0.281361 0.000626584 0)
(-0.276944 0.00056611 5.28584e-21)
(-0.301383 0.000652161 0)
(-0.297743 0.000763544 0)
(-0.320499 0.000504701 5.85724e-21)
(-0.300862 0.000304204 0)
(-0.303033 0.000435726 -5.32853e-21)
(-0.290914 0.00124737 0)
(-0.265654 0.00133819 0)
(-0.290564 0.00139465 0)
(-0.263278 0.00109174 4.03557e-21)
(-0.290461 0.00106768 0)
(-0.261125 0.000865753 -3.66692e-21)
(-0.287051 0.00086183 0)
(-0.258745 0.000736572 0)
(-0.281073 0.000872602 0)
(-0.255933 0.00125755 0)
(-0.254363 0.000506481 0)
(-0.263314 -7.62587e-05 0)
(-0.264596 0.000441856 0)
(-0.249358 0.000639978 0)
(-0.251355 0.000835812 0)
(-0.245754 0.00118557 0)
(-0.260639 0.000990377 0)
(-0.274991 0.000518956 -1.16782e-21)
(-0.265964 -0.000242353 8.32989e-22)
(-0.249025 -0.00016243 0)
(-0.233682 0.000311726 0)
(-0.230671 0.00113523 0)
(-0.246662 0.00226275 0)
(-0.22822 0.00115346 -8.21315e-22)
(-0.226192 -0.000322709 1.23823e-21)
(-0.223712 -0.000176918 -1.64241e-21)
(-0.220662 0.00131193 0)
(-0.239359 0.00253387 -2.5048e-21)
(-0.218959 0.00210707 -5.32465e-21)
(-0.218141 0.00207924 0)
(-0.217174 0.00157395 -6.89196e-21)
(-0.21552 0.000767487 7.84804e-21)
(-0.214538 0.000204242 0)
(-0.219927 4.62408e-05 0)
(-0.212413 0.000175766 0)
(-0.205873 3.62916e-05 0)
(-0.201307 0.000748283 0)
(-0.211339 0.000888359 -1.4417e-20)
(-0.199327 0.000720197 0)
(-0.206306 0.0011821 -1.65007e-20)
(-0.198977 2.48414e-05 0)
(-0.192144 -0.000845901 0)
(-0.18725 -0.000644781 0)
(-0.183209 0.000807838 0)
(-0.183139 0.00208155 0)
(-0.186361 0.00186205 2.32058e-20)
(-0.184257 0.00115183 0)
(-0.18196 0.000941772 0)
(-0.17947 0.000966732 -2.75541e-20)
(-0.176664 0.000808221 0)
(-0.173771 0.000657114 0)
(-0.171096 0.000526219 0)
(-0.167968 0.000401889 3.45967e-20)
(-0.163654 0.000229129 0)
(-0.157131 0.000136471 0)
(-0.147744 0.000334155 0)
(-0.135858 0.000801798 0)
(-0.122582 0.00132686 -5.95274e-20)
(-0.109241 0.00162238 0)
(-0.0972054 0.00164656 0)
(-0.0865054 0.00147239 0)
(-0.0778669 0.00130234 9.60657e-20)
(-0.0680392 0.00126236 0)
(-0.0633094 0.00171185 0)
(-0.0349042 0.00143949 -1.40554e-19)
(-0.0670843 0.000413282 6.01853e-36)
(-0.10071 0.00571472 1.199e-17)
(-0.123731 0.010078 2.15415e-17)
(-0.135929 0.0126277 2.02668e-17)
(-0.143178 0.0140119 1.94917e-17)
(-0.148608 0.0148758 1.88719e-17)
(-0.152934 0.0154837 -1.83456e-17)
(-0.155959 0.0159251 -1.78678e-17)
(-0.158423 0.0162235 6.01853e-36)
(-0.160581 0.0164663 -3.41169e-17)
(-0.162872 0.0166838 -1.66678e-17)
(-0.1651 0.0169029 6.62038e-35)
(-0.16772 0.0171172 -1.20371e-35)
(-0.170721 0.017375 -3.06287e-17)
(-0.174395 0.0176797 -2.94861e-17)
(-0.17865 0.0180505 -2.81276e-17)
(-0.183683 0.0184885 0)
(-0.189429 0.0189967 4.96193e-17)
(-0.196085 0.0195935 2.27751e-17)
(-0.203465 0.0202565 1.20371e-35)
(-0.212278 0.0210555 -3.5515e-17)
(-0.220805 0.0218477 -1.23786e-20)
(-0.234499 0.0230336 0)
(-0.239017 0.0237687 1.33826e-17)
(-0.265104 0.0253715 -7.16624e-18)
)
;
    }
    lowerWall
    {
        type            calculated;
        value           nonuniform List<vector> 
250
(
(-0.623905 -0.00647944 0)
(-0.725021 -0.0112182 0)
(-0.623351 -0.0104047 0)
(-0.678842 -0.0117925 0)
(-0.591477 -0.00957825 0)
(-0.506323 -0.00651773 0)
(-0.610748 -0.00772714 0)
(-0.550438 -0.00696164 0)
(-0.472315 -0.00547466 0)
(-0.471608 -0.00554384 0)
(-0.449606 -0.00442785 0)
(-0.443153 -0.00238525 0)
(-0.438195 -0.000507815 0)
(-0.50707 -0.000503144 0)
(-0.458283 -0.000467942 0)
(-0.428569 0.0005462 0)
(-0.488881 0.000165777 0)
(-0.449864 -0.000116218 0)
(0.00213378 2.80727e-05 0)
(0.00237648 -0.00284721 0)
(0.00265452 -0.00582987 0)
(0.00306726 -0.00902837 1.15534e-19)
(0.00359554 -0.012318 -9.78849e-20)
(0.00414444 -0.0165361 8.76242e-20)
(0.00375052 -0.0177493 -7.90835e-20)
(0.00682776 -0.0378372 0)
(-0.0528013 -0.10668 0)
(0.000220948 -0.000275812 0)
(5.58812e-05 -0.000789019 0)
(-9.89335e-06 -0.000875394 0)
(5.17313e-05 -0.000874376 0)
(2.5831e-05 -0.000829374 1.53276e-19)
(-0.00015628 -0.000239811 -1.48117e-19)
(-0.000607346 0.00124846 0)
(-0.00121014 0.00401709 -1.68979e-19)
(-0.00157522 0.00749818 1.29693e-19)
(-0.00150099 0.0107452 0)
(-0.00109306 0.0131084 0)
(-0.000553079 0.0143132 0)
(-4.2166e-05 0.0143468 0)
(0.000359676 0.0134203 0)
(0.000694359 0.0118056 0)
(0.00102029 0.00955437 0)
(0.00137808 0.00670598 0)
(0.00178342 0.00330512 0)
(-0.00014358 -0.000278004 0)
(0.000170753 -0.000447805 0)
(0.000481008 -0.000497802 0)
(0.000801048 -0.000424824 0)
(0.00105173 -0.000186167 -0)
(0.00108874 0.000204853 -0)
(0.000832353 0.000672242 1.46503e-20)
(0.000310176 0.00110841 -1.63083e-20)
(-0.000408025 0.00142244 0)
(-0.00122769 0.00157671 -9.24714e-21)
(-0.00206911 0.00158496 0)
(-0.002868 0.00147854 0)
(-0.00357994 0.00129406 0)
(-0.00418053 0.00106204 4.60844e-21)
(-0.00465875 0.000803303 0)
(-0.00501063 0.000529281 0)
(-0.00523367 0.000248514 -4.01784e-21)
(-0.00533298 -4.58804e-05 -0)
(-0.00528127 -0.000349935 0)
(-0.00507991 -0.000640857 -0)
(-0.00473857 -0.000898795 4.34776e-21)
(-0.00426959 -0.00110364 -0)
(-0.00369219 -0.00123443 5.17002e-21)
(-0.00303506 -0.00127247 0)
(-0.00233739 -0.00120451 -0)
(-0.00164906 -0.00102934 8.45211e-21)
(-0.00102756 -0.00076527 0)
(-0.000528337 -0.000458969 -1.4033e-20)
(-0.000180061 -0.000181971 0)
(3.87811e-05 9.28379e-06 2.38496e-20)
(0.000176778 0.000131248 0)
(0.000246911 0.000246636 0)
(0.000203467 0.000376919 0)
(5.74181e-05 0.000538658 0)
(-0.000232748 0.000739651 0)
(-0.000682002 0.000930316 -1.35659e-20)
(-0.00125607 0.00103471 0)
(-0.00185563 0.000991988 1.68845e-20)
(-0.00236492 0.000807551 0)
(-0.00269793 0.000541687 -1.39402e-20)
(-0.00283863 0.00028588 0)
(-0.00283286 0.000100859 0)
(-0.00273603 1.80795e-05 1.38602e-20)
(-0.00261161 6.44248e-05 0)
(-0.00251779 0.000225252 1.42922e-20)
(-0.00244944 0.000408713 -1.44343e-20)
(-0.00232185 0.00040404 0)
(-0.00192128 -1.48785e-05 -1.66438e-20)
(-0.00101741 -0.000738868 -1.96546e-20)
(0.000537545 -0.00142091 0)
(0.00232159 -0.00210364 0)
(0.00436693 -0.00283939 0)
(0.00674393 -0.0034362 0)
(0.00926724 -0.00362045 -0)
(0.0122361 -0.00390472 3.43818e-21)
(0.0149873 -0.00407531 0)
(0.0174551 -0.00392008 -2.74578e-21)
(0.0194872 -0.00361594 -0)
(0.0222039 -0.0034699 -0)
(0.0233431 -0.00309701 2.07157e-21)
(0.0254183 -0.00290611 0)
(0.027663 -0.00266692 -1.92664e-21)
(0.0300758 -0.00245308 -0)
(0.0323984 -0.00230579 0)
(0.0345513 -0.00214755 -0)
(0.0365165 -0.0020031 1.82639e-21)
(0.03849 -0.00187524 0)
(0.040321 -0.00175902 -0)
(0.0421251 -0.0016566 1.78396e-21)
(0.0438417 -0.00156442 0)
(0.0455187 -0.00148198 1.7638e-21)
(0.0471349 -0.00140689 0)
(0.0487106 -0.00133821 0)
(0.0502381 -0.00127449 0)
(0.0517268 -0.00121485 -1.73341e-21)
(0.0531734 -0.00115835 -0)
(0.0545826 -0.00110447 0)
(0.0559528 -0.00105244 -1.71345e-21)
(0.0572855 -0.00100203 -1.70674e-21)
(0.0585804 -0.000952763 -0)
(0.0598375 -0.000904513 -1.69274e-21)
(0.0610567 -0.000857021 0)
(0.0622374 -0.000810097 -3.35519e-21)
(0.0633792 -0.000763526 -0)
(0.0644812 -0.000717313 -3.3218e-21)
(0.065543 -0.000671257 -0)
(0.0665634 -0.000625179 3.28455e-21)
(0.0675416 -0.000579145 0)
(0.0684771 -0.000532895 0)
(0.0693686 -0.000485972 0)
(0.0702137 -0.000438242 -3.19609e-21)
(0.0710108 -0.00038946 -0)
(0.071758 -0.000339354 3.14376e-21)
(0.0724527 -0.000287697 0)
(0.0730929 -0.000234337 -3.08579e-21)
(0.0736766 -0.000179512 -3.05478e-21)
(0.0742024 -0.000123855 -3.02253e-21)
(0.07467 -6.99859e-05 0)
(0.0750835 -2.29492e-05 0)
(0.0754475 1.58332e-05 0)
(0.075767 5.14664e-05 0)
(0.0760413 8.60407e-05 0)
(0.0762714 0.000120149 0)
(0.0764556 0.000153746 0)
(0.0765951 0.000187131 0)
(0.0766882 0.000219987 2.6554e-21)
(0.0767359 0.000252616 2.60494e-21)
(0.0767371 0.000284674 0)
(0.0766923 0.000316471 0)
(0.0766009 0.000347626 0)
(0.0764634 0.000378529 2.38252e-21)
(0.0762792 0.000408776 0)
(0.0760489 0.000438657 0)
(0.0757724 0.000467879 0)
(0.07545 0.000496784 0)
(0.0750815 0.000524954 -2.05665e-21)
(0.074668 0.000552737 0)
(0.0742089 0.000579872 0)
(0.0737054 0.000606541 1.83442e-21)
(0.0731571 0.000632576 -1.7557e-21)
(0.072565 0.000658105 0)
(0.0719292 0.00068296 -1.59106e-21)
(0.0712506 0.000707232 0)
(0.0705296 0.000730828 1.41651e-21)
(0.0697667 0.000753893 0)
(0.0689621 0.000776264 0)
(0.068117 0.000798108 0)
(0.0672355 0.000819245 0)
(0.0663217 0.000839445 0)
(0.0653625 0.00085839 -1.65846e-21)
(0.064374 0.00087652 -1.44301e-21)
(0.0633427 0.000893172 0)
(0.0622847 0.000907291 0)
(0.0611944 0.000917279 0)
(0.0600788 0.000920049 5.19458e-22)
(0.058937 0.000913941 0)
(0.0577641 0.000912404 0)
(0.0565604 0.000923036 0)
(0.0553277 0.000934813 -5.11577e-22)
(0.0540699 0.000944682 7.88657e-22)
(0.052789 0.000953733 0)
(0.0514861 0.000961923 0)
(0.0501627 0.000969136 1.67142e-21)
(0.0488207 0.00097568 1.9841e-21)
(0.0474606 0.000981465 0)
(0.0460839 0.000986714 0)
(0.0446916 0.00099123 -2.98378e-21)
(0.0432855 0.000995424 3.33933e-21)
(0.0418661 0.000999123 0)
(0.0404357 0.00100254 0)
(0.0389953 0.0010057 4.48199e-21)
(0.037545 0.00100857 0)
(0.0360875 0.00101124 0)
(0.0346208 0.00101349 5.75792e-21)
(0.0331495 0.0010157 0)
(0.0316715 0.00101783 6.69811e-21)
(0.0301904 0.00102026 0)
(0.0287047 0.00102302 0)
(0.0272159 0.00102611 0)
(0.0257236 0.00102982 -8.85504e-21)
(0.0242275 0.00103406 0)
(0.0227277 0.00103892 0)
(0.021224 0.00104432 0)
(0.0197167 0.00105032 0)
(0.0182058 0.00105692 0)
(0.0166913 0.00106426 0)
(0.0151733 0.00107244 -1.39968e-20)
(0.0136516 0.00108158 -1.49473e-20)
(0.0121259 0.00109179 0)
(0.0105957 0.00110302 0)
(0.00906096 0.0011152 0)
(0.00752172 0.00112805 1.96288e-20)
(0.00597883 0.00114187 0)
(0.00443401 0.00115545 -4.54158e-20)
(0.00289148 0.0011657 4.90132e-20)
(0.00136061 0.00116694 5.30322e-20)
(-0.00015494 0.00113465 -5.52071e-20)
(-0.00156075 0.00106754 5.4036e-20)
(-0.00312329 0.000898744 -5.20597e-20)
(-0.00346614 0.00050183 0)
(-0.00549299 0.00110384 -3.10179e-18)
(-0.00866797 0.00086792 -2.81066e-18)
(-0.0118206 0.000514307 -3.00927e-36)
(-0.015061 0.000183414 -4.7812e-18)
(-0.0185116 -0.000163879 -8.89301e-18)
(-0.0221764 -0.000530741 -4.15068e-18)
(-0.0260633 -0.000916934 3.88457e-18)
(-0.0301964 -0.00132709 1.80556e-35)
(-0.0345975 -0.00176365 6.01853e-36)
(-0.0392803 -0.00223255 3.21729e-18)
(-0.0442624 -0.00272183 3.02637e-18)
(-0.0495572 -0.00321241 3.00927e-36)
(-0.0551805 -0.00374095 0)
(-0.0611916 -0.00434262 0)
(-0.0676366 -0.00500188 -3.21145e-35)
(-0.0745276 -0.00571304 -3.49357e-35)
(-0.0820123 -0.00647915 2.40741e-35)
(-0.0899479 -0.00730425 -3.75734e-18)
(-0.0989004 -0.00820027 -3.4232e-18)
(-0.107947 -0.00916737 1.20371e-35)
(-0.119462 -0.0102338 5.38507e-18)
(-0.129033 -0.0113983 8.93926e-18)
(-0.146328 -0.0126354 6.01853e-36)
(-0.153847 -0.0141366 -4.3097e-18)
(-0.188078 -0.016511 3.00927e-36)
)
;
    }
    frontAndBack
    {
        type            empty;
    }
}


// ************************************************************************* //
