/*--------------------------------*- C++ -*----------------------------------*\
  =========                 |
  \\      /  F ield         | OpenFOAM: The Open Source CFD Toolbox
   \\    /   O peration     | Website:  https://openfoam.org
    \\  /    A nd           | Version:  8
     \\/     M anipulation  |
\*---------------------------------------------------------------------------*/
FoamFile
{
    version     2.0;
    format      ascii;
    class       volScalarField;
    location    "100";
    object      p;
}
// * * * * * * * * * * * * * * * * * * * * * * * * * * * * * * * * * * * * * //

dimensions      [0 2 -2 0 0 0 0];

internalField   nonuniform List<scalar> 
12225
(
-7.37284
-8.24803
-8.63496
-8.7675
-8.91866
-9.0854
-9.2264
-9.34228
-9.44177
-9.53421
-9.61981
-9.69737
-9.77338
-9.85411
-9.94286
-10.0429
-10.1642
-10.3066
-7.63297
-8.27205
-8.59812
-8.72761
-8.87995
-9.04691
-9.19192
-9.31209
-9.41185
-9.50645
-9.59863
-9.67936
-9.75199
-9.82659
-9.91261
-10.0123
-10.1218
-10.224
-7.83483
-8.2737
-8.58365
-8.73833
-8.89095
-9.0525
-9.19447
-9.31135
-9.41082
-9.50484
-9.59399
-9.67326
-9.74555
-9.81962
-9.90285
-9.99446
-10.0885
-10.1684
-7.9857
-8.30258
-8.59624
-8.7584
-8.89978
-9.04887
-9.18407
-9.29818
-9.3973
-9.4897
-9.57676
-9.65607
-9.7299
-9.80442
-9.8843
-9.96825
-10.0505
-10.1186
-8.11682
-8.35294
-8.61633
-8.77687
-8.91006
-9.04985
-9.1799
-9.29179
-9.38987
-9.4806
-9.56603
-9.64501
-9.71919
-9.79278
-9.86872
-9.94556
-10.0182
-10.0774
-8.23551
-8.40934
-8.63617
-8.79309
-8.92161
-9.05326
-9.17743
-9.28607
-9.38228
-9.47123
-9.55493
-9.63299
-9.70667
-9.77871
-9.85081
-9.92148
-9.98658
-10.0397
-8.34216
-8.46852
-8.65937
-8.80949
-8.93315
-9.05641
-9.174
-9.279
-9.37311
-9.46029
-9.54229
-9.61917
-9.69187
-9.76205
-9.83054
-9.89602
-9.9555
-10.0048
-8.42396
-8.52049
-8.68337
-8.82459
-8.94303
-9.05905
-9.17071
-9.2722
-9.36414
-9.44954
-9.52992
-9.60553
-9.67698
-9.74531
-9.81092
-9.87278
-9.92883
-9.97622
-8.49038
-8.56702
-8.70697
-8.83884
-8.95218
-9.06183
-9.16803
-9.26606
-9.35572
-9.4393
-9.51806
-9.59232
-9.66239
-9.72894
-9.79213
-9.85125
-9.9049
-9.95123
-8.55635
-8.61674
-8.73445
-8.85516
-8.96245
-9.06536
-9.16557
-9.25952
-9.34639
-9.42768
-9.50443
-9.57689
-9.64522
-9.70973
-9.77052
-9.8271
-9.8788
-9.92434
-8.6209
-8.66822
-8.76547
-8.87361
-8.97376
-9.06963
-9.16338
-9.2526
-9.33611
-9.41459
-9.48883
-9.55903
-9.62522
-9.6875
-9.74581
-9.8001
-9.84999
-9.89499
-8.68268
-8.71973
-8.79906
-8.89387
-8.98583
-9.07444
-9.1614
-9.24532
-9.32481
-9.39997
-9.47118
-9.53865
-9.60231
-9.66215
-9.71808
-9.77011
-9.81844
-9.86266
-8.74023
-8.76936
-8.83361
-8.9152
-8.99818
-9.07933
-9.15937
-9.23746
-9.31241
-9.38367
-9.45143
-9.51563
-9.57646
-9.63356
-9.68709
-9.73689
-9.78354
-9.82674
-8.79174
-8.81489
-8.8669
-8.93621
-9.00989
-9.08346
-9.15658
-9.22864
-9.29849
-9.36549
-9.42926
-9.48994
-9.54732
-9.60156
-9.65229
-9.69988
-9.7443
-9.78608
-8.83498
-8.85365
-8.8961
-8.9547
-9.01942
-9.08557
-9.15202
-9.21802
-9.28258
-9.3449
-9.40448
-9.46113
-9.51484
-9.5656
-9.61336
-9.65808
-9.70007
-9.73938
-8.86696
-8.88237
-8.91772
-8.96773
-9.02454
-9.08387
-9.14415
-9.20443
-9.26375
-9.3213
-9.37648
-9.42892
-9.4786
-9.52552
-9.56975
-9.61115
-9.65002
-9.68628
-8.8836
-8.89682
-8.92744
-8.97134
-9.02206
-9.07582
-9.13088
-9.18622
-9.24078
-9.29382
-9.34465
-9.39287
-9.43838
-9.48121
-9.52146
-9.55896
-9.59396
-9.62636
-8.87929
-8.89154
-8.9203
-8.96136
-9.00906
-9.05948
-9.11142
-9.1633
-9.21466
-9.26405
-9.31151
-9.35589
-9.3979
-9.43675
-9.47335
-9.50672
-9.53789
-9.56607
-8.85506
-8.86777
-8.89743
-8.93941
-8.98719
-9.03743
-9.08837
-9.13944
-9.18902
-9.23688
-9.28171
-9.32398
-9.36282
-9.39919
-9.43216
-9.46269
-9.48977
-9.51492
-8.81684
-8.8312
-8.86444
-8.91025
-8.96099
-9.01297
-9.06532
-9.11688
-9.16686
-9.21393
-9.25802
-9.29848
-9.33591
-9.3698
-9.40084
-9.42831
-9.45317
-9.47502
-8.76779
-8.78525
-8.82486
-8.87729
-8.93285
-8.98826
-9.04321
-9.09692
-9.14803
-9.19564
-9.23945
-9.27935
-9.31568
-9.34827
-9.37746
-9.40313
-9.42568
-9.44564
-8.70974
-8.73217
-8.7815
-8.8431
-8.90471
-8.96444
-9.02312
-9.07981
-9.13286
-9.18159
-9.22568
-9.26569
-9.30129
-9.33329
-9.36093
-9.38549
-9.40603
-9.42463
-8.64341
-8.67368
-8.73691
-8.80968
-8.87778
-8.94241
-9.00565
-9.06588
-9.12127
-9.17137
-9.21636
-9.2565
-9.29216
-9.32327
-9.35042
-9.37343
-9.39328
-9.40991
-8.56881
-8.61145
-8.6937
-8.77858
-8.85264
-8.92262
-8.99109
-9.05517
-9.11299
-9.16466
-9.21067
-9.25134
-9.28694
-9.31773
-9.34402
-9.36641
-9.38498
-9.40106
-8.48522
-8.54714
-8.65459
-8.75104
-8.82962
-8.90511
-8.9793
-9.04727
-9.1075
-9.1608
-9.20798
-9.2493
-9.28498
-9.31542
-9.34106
-9.36255
-9.38034
-9.39547
-8.39205
-8.4824
-8.62085
-8.72731
-8.80902
-8.88986
-8.96939
-9.04093
-9.10344
-9.15841
-9.20687
-9.24905
-9.28521
-9.31567
-9.34083
-9.36166
-9.37881
-9.39349
-8.28901
-8.42091
-8.58976
-8.70258
-8.78856
-8.87628
-8.96119
-9.03581
-9.10049
-9.15687
-9.20631
-9.24914
-9.28558
-9.31615
-9.34074
-9.3608
-9.3773
-9.39157
-8.16563
-8.37425
-8.56463
-8.67278
-8.76363
-8.86183
-8.9545
-9.03405
-9.10235
-9.16161
-9.21299
-9.25695
-9.29423
-9.3248
-9.34886
-9.36788
-9.38356
-9.39793
-7.97905
-8.34965
-8.57188
-8.66368
-8.75009
-8.85247
-8.94827
-9.02918
-9.09875
-9.15949
-9.21213
-9.2571
-9.295
-9.32578
-9.34943
-9.36695
-9.38017
-9.39134
-7.72026
-8.27562
-8.56195
-8.66314
-8.75702
-8.86795
-8.96941
-9.0531
-9.12397
-9.18553
-9.23861
-9.2837
-9.32134
-9.35151
-9.37412
-9.38902
-9.39745
-9.40094
-10.1877
-10.1939
-10.2115
-10.228
-10.236
-10.2367
-10.2362
-10.2348
-10.2323
-10.2274
-10.2223
-10.2173
-10.2141
-10.2117
-10.2113
-10.2113
-10.2133
-10.2161
-10.2208
-10.2254
-10.2304
-10.2331
-10.234
-10.2295
-10.2186
-10.1971
-10.1635
-10.1134
-10.0452
-9.95451
-9.84106
-9.70219
-9.53888
-9.3485
-9.13262
-8.89295
-8.63651
-8.3679
-8.09252
-7.81464
-7.54491
-7.28864
-7.05256
-6.84345
-6.66529
-6.51711
-6.4027
-6.31883
-6.26091
-6.22787
-6.22343
-6.24711
-6.29767
-6.37117
-6.46401
-6.57048
-6.68463
-6.79878
-6.90601
-6.99985
-7.07761
-7.1382
-7.18136
-7.2089
-7.22493
-7.23218
-7.23243
-7.22824
-7.21976
-7.20582
-7.18656
-7.16389
-7.13816
-7.1059
-7.05474
-6.97315
-6.86542
-6.76116
-6.69014
-6.67709
-6.74158
-6.92323
-7.27192
-7.87268
-8.81392
-10.153
-11.8213
-13.6882
-15.6164
-17.5053
-19.2906
-20.9335
-22.4129
-23.7221
-24.8589
-25.8256
-26.6248
-27.2617
-27.7397
-28.064
-28.2385
-28.2696
-28.1628
-27.9258
-27.5649
-27.0887
-26.504
-25.8189
-25.0406
-24.1783
-23.2397
-22.2346
-21.1723
-20.0621
-18.9126
-17.7329
-16.5315
-15.3164
-14.0949
-12.8748
-11.663
-10.4659
-9.28853
-8.13513
-7.0099
-5.91656
-4.85847
-3.83825
-2.85834
-1.92079
-1.02736
-0.178889
0.624233
1.38291
2.09962
2.77847
3.42472
4.04475
4.64433
5.22877
5.80183
6.36607
6.9218
7.46882
8.00531
8.52865
9.03475
9.5201
9.98075
10.4134
10.815
11.1832
11.5172
11.8167
12.0827
12.3157
12.5151
12.6809
12.8128
12.9119
12.9798
13.0188
13.0308
13.0185
12.9843
12.9311
12.8622
12.7807
12.6897
12.5918
12.4903
12.3885
12.2907
12.2018
12.1286
12.0794
12.0695
12.1118
12.2611
12.4463
-10.1994
-10.2076
-10.2214
-10.2317
-10.2372
-10.2408
-10.2429
-10.2415
-10.2372
-10.2306
-10.2236
-10.2162
-10.2097
-10.2037
-10.1998
-10.1973
-10.1977
-10.1996
-10.2039
-10.2092
-10.2154
-10.2204
-10.2233
-10.2215
-10.2138
-10.1967
-10.1686
-10.1254
-10.0651
-9.98412
-9.8818
-9.75713
-9.61094
-9.44148
-9.24943
-9.03662
-8.80764
-8.56606
-8.31713
-8.06509
-7.81792
-7.58284
-7.36523
-7.17032
-7.00324
-6.8627
-6.75098
-6.67046
-6.61899
-6.59337
-6.5936
-6.61887
-6.66797
-6.73751
-6.82292
-6.91789
-7.01587
-7.10993
-7.19444
-7.2647
-7.31743
-7.35066
-7.3647
-7.36133
-7.34499
-7.32246
-7.29783
-7.27369
-7.25104
-7.22827
-7.2038
-7.17677
-7.14285
-7.10005
-7.0457
-6.96261
-6.83913
-6.70916
-6.62946
-6.64308
-6.76439
-7.03474
-7.52657
-8.30948
-9.44377
-10.9389
-12.6858
-14.5514
-16.4237
-18.2267
-19.9157
-21.4635
-22.8565
-24.0891
-25.1618
-26.0758
-26.834
-27.4396
-27.8956
-28.2035
-28.3673
-28.3914
-28.2829
-28.0472
-27.6903
-27.2181
-26.6374
-25.9556
-25.1804
-24.3204
-23.3838
-22.3801
-21.319
-20.2094
-19.0605
-17.8804
-16.6781
-15.4615
-14.2376
-13.0144
-11.7988
-10.5966
-9.41331
-8.25353
-7.12137
-6.02084
-4.95564
-3.9289
-2.94329
-2.00124
-1.10465
-0.254636
0.548557
1.30583
2.02009
2.69572
3.33854
3.95539
4.55264
5.13574
5.70864
6.27357
6.8307
7.37908
7.9162
8.43899
8.94385
9.42735
9.88587
10.3163
10.7159
11.0827
11.416
11.7154
11.9808
12.2128
12.4114
12.5767
12.7087
12.8083
12.8768
12.9166
12.9299
12.9195
12.8877
12.8375
12.7718
12.6937
12.6059
12.5116
12.4138
12.316
12.2219
12.1364
12.0656
12.017
12.0036
12.032
12.1489
12.2817
-10.2185
-10.2201
-10.2252
-10.2295
-10.2321
-10.2344
-10.2359
-10.2347
-10.2313
-10.2257
-10.2191
-10.2113
-10.2038
-10.1965
-10.1908
-10.1866
-10.185
-10.1855
-10.1889
-10.1939
-10.2003
-10.2058
-10.2095
-10.2091
-10.2033
-10.1891
-10.1649
-10.1278
-10.0764
-10.0083
-9.92317
-9.81953
-9.69638
-9.55212
-9.38799
-9.20546
-9.00745
-8.79637
-8.5759
-8.3501
-8.12556
-7.9081
-7.7027
-7.51444
-7.3486
-7.20641
-7.08908
-6.99775
-6.93264
-6.89314
-6.87933
-6.89056
-6.92566
-6.98229
-7.05719
-7.14564
-7.24224
-7.34045
-7.43332
-7.514
-7.57633
-7.61529
-7.62825
-7.61494
-7.57887
-7.52694
-7.46521
-7.39684
-7.32537
-7.25294
-7.18299
-7.1236
-7.06995
-7.01978
-6.98371
-6.9571
-6.93662
-6.94394
-7.00937
-7.15254
-7.41117
-7.84657
-8.55756
-9.57438
-10.8594
-12.3593
-13.9929
-15.6801
-17.3561
-18.9764
-20.5102
-21.935
-23.2355
-24.4013
-25.4281
-26.3117
-27.0501
-27.6421
-28.0897
-28.3928
-28.5551
-28.5801
-28.4732
-28.2397
-27.8848
-27.4138
-26.8337
-26.1519
-25.3762
-24.5149
-23.5773
-22.5724
-21.51
-20.3984
-19.2472
-18.065
-16.8595
-15.6383
-14.4093
-13.1805
-11.9585
-10.7487
-9.55704
-8.38869
-7.2476
-6.13757
-5.06272
-4.02675
-3.03259
-2.08299
-1.18005
-0.325492
0.480335
1.23847
1.95191
2.62521
3.2647
3.87769
4.47142
5.05168
5.62278
6.18688
6.7441
7.29266
7.82996
8.35235
8.85642
9.33862
9.79558
10.2242
10.6222
10.9881
11.3212
11.6208
11.8867
12.1193
12.3182
12.4834
12.6157
12.7155
12.7845
12.8248
12.8388
12.829
12.7982
12.7493
12.6852
12.6086
12.5225
12.43
12.3342
12.2384
12.1464
12.0623
11.9917
11.9407
11.9193
11.9293
11.9976
12.0436
-10.2393
-10.2367
-10.2425
-10.2462
-10.2487
-10.2522
-10.2552
-10.2553
-10.253
-10.2482
-10.2422
-10.2349
-10.2278
-10.2208
-10.2152
-10.2108
-10.2088
-10.2087
-10.2113
-10.2156
-10.2212
-10.2262
-10.2301
-10.2308
-10.2272
-10.2166
-10.1975
-10.1673
-10.1252
-10.0697
-9.99964
-9.91217
-9.80657
-9.68226
-9.5399
-9.37939
-9.20204
-9.00964
-8.80579
-8.59352
-8.37762
-8.16385
-7.95839
-7.76665
-7.59444
-7.446
-7.32359
-7.22703
-7.15644
-7.11176
-7.09269
-7.09801
-7.126
-7.17467
-7.24169
-7.32351
-7.41534
-7.5115
-7.60581
-7.69153
-7.76171
-7.80981
-7.83105
-7.82375
-7.78799
-7.724
-7.63363
-7.51956
-7.39059
-7.26039
-7.14259
-7.05362
-6.99747
-6.97034
-6.96619
-6.98004
-7.0283
-7.13126
-7.31275
-7.61301
-8.10638
-8.85161
-9.83431
-11.0141
-12.3456
-13.7876
-15.2949
-16.8235
-18.3363
-19.8051
-21.2079
-22.5244
-23.7379
-24.8364
-25.8117
-26.6582
-27.3697
-27.9422
-28.3749
-28.6683
-28.8241
-28.8459
-28.7362
-28.4999
-28.1417
-27.6666
-27.0819
-26.3953
-25.614
-24.7462
-23.8021
-22.7916
-21.7234
-20.6059
-19.4487
-18.2606
-17.0485
-15.8201
-14.5836
-13.3462
-12.1145
-10.8949
-9.69293
-8.51397
-7.36244
-6.24222
-5.15733
-4.11154
-3.10793
-2.14937
-1.23838
-0.377065
0.433697
1.19491
1.90956
2.58244
3.22019
3.83052
4.4215
4.99965
5.5697
6.13384
6.69194
7.24169
7.78018
8.3036
8.80839
9.29103
9.74825
10.177
10.5753
10.9415
11.2745
11.574
11.8397
12.0716
12.2698
12.4342
12.5652
12.6641
12.7323
12.7719
12.7852
12.7747
12.7432
12.6935
12.6285
12.551
12.4638
12.37
12.2728
12.1753
12.0812
11.9943
11.9194
11.8611
11.8261
11.8123
11.831
11.7984
-10.2664
-10.2645
-10.2727
-10.2752
-10.2778
-10.283
-10.2885
-10.2917
-10.2927
-10.2913
-10.2886
-10.2845
-10.2802
-10.2755
-10.2718
-10.2687
-10.2677
-10.2683
-10.2713
-10.276
-10.2829
-10.29
-10.2968
-10.3011
-10.302
-10.2968
-10.2847
-10.2636
-10.2325
-10.189
-10.1317
-10.0588
-9.96976
-9.8631
-9.73839
-9.59438
-9.43168
-9.2512
-9.05593
-8.84919
-8.63596
-8.42166
-8.21265
-8.01441
-7.83378
-7.67649
-7.54536
-7.44108
-7.36401
-7.31272
-7.2861
-7.28281
-7.30118
-7.33944
-7.39597
-7.46839
-7.55313
-7.64516
-7.73834
-7.82587
-7.90054
-7.95535
-7.9847
-7.98539
-7.95398
-7.88429
-7.77367
-7.62903
-7.46687
-7.30788
-7.16457
-7.04692
-6.96593
-6.92769
-6.92999
-6.97251
-7.07687
-7.27997
-7.62407
-8.18313
-8.97895
-9.97606
-11.1243
-12.3823
-13.7178
-15.1054
-16.5198
-17.9363
-19.3315
-20.6873
-21.9861
-23.2125
-24.35
-25.3861
-26.3099
-27.1148
-27.7931
-28.34
-28.7521
-29.0304
-29.1741
-29.1855
-29.0667
-28.8221
-28.455
-27.9717
-27.3785
-26.6831
-25.8926
-25.0153
-24.0613
-23.0412
-21.9632
-20.837
-19.6708
-18.4729
-17.2511
-16.0134
-14.7677
-13.5205
-12.2785
-11.0485
-9.83612
-8.64657
-7.48466
-6.35461
-5.26018
-4.20483
-3.19184
-2.22408
-1.30459
-0.435739
0.381001
1.14624
1.86273
2.53569
3.172
3.78014
4.36867
4.94511
5.5144
6.07894
6.63792
7.18901
7.72876
8.25348
8.75929
9.24302
9.70128
10.1311
10.5302
10.8971
11.2306
11.5304
11.7961
12.0277
12.2254
12.3894
12.5199
12.6183
12.6863
12.7257
12.739
12.7284
12.6967
12.6467
12.581
12.5025
12.414
12.3184
12.2189
12.1184
12.0203
11.9279
11.8451
11.7751
11.7217
11.6795
11.6511
11.5547
-10.3
-10.3011
-10.3089
-10.3121
-10.3178
-10.3263
-10.3352
-10.3422
-10.3475
-10.3508
-10.3531
-10.354
-10.3548
-10.355
-10.3559
-10.3575
-10.3609
-10.3659
-10.3733
-10.3824
-10.3934
-10.4049
-10.4169
-10.4274
-10.4357
-10.4395
-10.4377
-10.4278
-10.4089
-10.3788
-10.3367
-10.2807
-10.2097
-10.1211
-10.0141
-9.88723
-9.74069
-9.57461
-9.39089
-9.19249
-8.98394
-8.76972
-8.55709
-8.35261
-8.16213
-7.99114
-7.84381
-7.72215
-7.62743
-7.55881
-7.51536
-7.49518
-7.49617
-7.51663
-7.55556
-7.61173
-7.68308
-7.76578
-7.85376
-7.93929
-8.01487
-8.07395
-8.11165
-8.12222
-8.09698
-8.02772
-7.91348
-7.76562
-7.59932
-7.42808
-7.26342
-7.1175
-7.00954
-6.9584
-6.97794
-7.07823
-7.2868
-7.65554
-8.24271
-9.05688
-10.0581
-11.1938
-12.4179
-13.6995
-15.0181
-16.3572
-17.7013
-19.0344
-20.3417
-21.6083
-22.8236
-23.9727
-25.0417
-26.018
-26.8919
-27.6543
-28.2978
-28.816
-29.2052
-29.4638
-29.5911
-29.5872
-29.4545
-29.1961
-28.8165
-28.3215
-27.7167
-27.0088
-26.2063
-25.3176
-24.3521
-23.32
-22.2305
-21.0931
-19.9158
-18.7068
-17.4737
-16.2246
-14.9675
-13.7094
-12.4569
-11.2167
-9.99459
-8.79573
-7.62478
-6.48601
-5.38317
-4.3195
-3.29827
-2.32256
-1.39561
-0.52026
0.301733
1.07053
1.78873
2.4618
3.0974
3.7046
4.29246
4.86887
5.43907
6.00507
6.56558
7.11809
7.6592
8.18522
8.69225
9.17696
9.63587
10.0662
10.4656
10.8327
11.1664
11.4662
11.7316
11.9629
12.1601
12.3238
12.4541
12.5524
12.6205
12.6604
12.6742
12.6644
12.6334
12.5838
12.5184
12.4397
12.3506
12.2539
12.1525
12.0491
11.9467
11.8481
11.756
11.6727
11.5991
11.5277
11.4569
11.3107
-10.3371
-10.3404
-10.3487
-10.3563
-10.367
-10.3795
-10.3922
-10.4036
-10.4139
-10.4228
-10.4311
-10.4386
-10.4461
-10.4534
-10.4617
-10.4707
-10.4817
-10.4945
-10.5101
-10.5275
-10.5468
-10.567
-10.5882
-10.6088
-10.628
-10.6433
-10.6543
-10.6591
-10.657
-10.6458
-10.6239
-10.5886
-10.5387
-10.4718
-10.3868
-10.2816
-10.1559
-10.0091
-9.84251
-9.6582
-9.45942
-9.24978
-9.03528
-8.82213
-8.61665
-8.4249
-8.25236
-8.10185
-7.97534
-7.87336
-7.79698
-7.74601
-7.71864
-7.71251
-7.72619
-7.75897
-7.81016
-7.87684
-7.95339
-8.03245
-8.10703
-8.17031
-8.21563
-8.23363
-8.21531
-8.1572
-8.0611
-7.93193
-7.77668
-7.60673
-7.43787
-7.2893
-7.18313
-7.14601
-7.20432
-7.3868
-7.74002
-8.31804
-9.12103
-10.1084
-11.2267
-12.4278
-13.6784
-14.9571
-16.2493
-17.544
-18.8315
-20.1009
-21.34
-22.5395
-23.6885
-24.7747
-25.7861
-26.7102
-27.538
-28.2597
-28.8685
-29.357
-29.7212
-29.9568
-30.0632
-30.0398
-29.8887
-29.6124
-29.216
-28.7035
-28.0818
-27.3576
-26.5394
-25.636
-24.6571
-23.6118
-22.5097
-21.3596
-20.1697
-18.9477
-17.7015
-16.4395
-15.1696
-13.8995
-12.6359
-11.3856
-10.1543
-8.9473
-7.76894
-6.62349
-5.51451
-4.44527
-3.41881
-2.43829
-1.50694
-0.627997
0.196855
0.967533
1.68676
2.36003
2.99567
3.60321
4.19234
4.77061
5.34326
5.91184
6.47502
7.02992
7.5731
8.10039
8.60825
9.0931
9.55183
9.98169
10.3807
10.7472
11.0803
11.3793
11.644
11.8745
12.0713
12.2345
12.3647
12.4631
12.5317
12.5724
12.5874
12.5787
12.5489
12.5005
12.4359
12.3577
12.2685
12.1711
12.068
11.9618
11.8548
11.7494
11.6473
11.5494
11.4553
11.356
11.2479
11.0629
-10.376
-10.3805
-10.3932
-10.4072
-10.4233
-10.4404
-10.4577
-10.4741
-10.49
-10.505
-10.52
-10.5346
-10.55
-10.5658
-10.5831
-10.6017
-10.6227
-10.6459
-10.6722
-10.7011
-10.7328
-10.766
-10.8011
-10.8363
-10.8712
-10.9037
-10.9333
-10.9582
-10.9775
-10.9893
-10.9926
-10.984
-10.9614
-10.9221
-10.8643
-10.7857
-10.6852
-10.5617
-10.4154
-10.2473
-10.0605
-9.85847
-9.6455
-9.42515
-9.20258
-8.98361
-8.77522
-8.58334
-8.41184
-8.26212
-8.13672
-8.03787
-7.96602
-7.91971
-7.89795
-7.89979
-7.92457
-7.96995
-8.03074
-8.10049
-8.17213
-8.23718
-8.2864
-8.31118
-8.30768
-8.27471
-8.20884
-8.10904
-7.98029
-7.83479
-7.68758
-7.55768
-7.47266
-7.46695
-7.58268
-7.87157
-8.39142
-9.15087
-10.1066
-11.2006
-12.3812
-13.611
-14.8663
-16.1321
-17.3986
-18.6582
-19.9034
-21.125
-22.3138
-23.461
-24.5582
-25.5948
-26.5588
-27.4397
-28.2272
-28.913
-29.4892
-29.949
-30.2865
-30.4977
-30.5803
-30.5343
-30.3607
-30.063
-29.6448
-29.111
-28.4681
-27.7238
-26.8865
-25.9652
-24.9694
-23.9084
-22.791
-21.6256
-20.4199
-19.1818
-17.9198
-16.6428
-15.3589
-14.076
-12.8013
-11.5412
-10.3016
-9.08773
-7.9039
-6.75397
-5.6414
-4.56947
-3.541
-2.55884
-1.62633
-0.746816
0.0779349
0.847825
1.56571
2.23767
2.87272
3.48112
4.07267
4.65467
5.23169
5.8046
6.37149
6.92924
7.4741
8.00206
8.50977
8.99376
9.4512
9.8796
10.2772
10.6421
10.9738
11.2714
11.5349
11.7644
11.9604
12.1232
12.2534
12.3521
12.4215
12.4635
12.4801
12.4732
12.4452
12.3983
12.3352
12.2579
12.1692
12.0713
11.9667
11.8574
11.7456
11.6327
11.52
11.4073
11.2928
11.1672
11.0263
10.8106
-10.4173
-10.4237
-10.4436
-10.4647
-10.4862
-10.5081
-10.5301
-10.5516
-10.5729
-10.594
-10.6157
-10.6379
-10.6616
-10.6865
-10.7139
-10.7434
-10.7761
-10.8119
-10.8515
-10.8945
-10.9414
-10.9912
-11.0441
-11.0988
-11.1552
-11.2113
-11.2667
-11.3187
-11.3661
-11.4066
-11.4394
-11.4621
-11.4727
-11.4677
-11.4439
-11.3978
-11.328
-11.2323
-11.1101
-10.9609
-10.7868
-10.5898
-10.3738
-10.1423
-9.90015
-9.65149
-9.40179
-9.15807
-8.92793
-8.7167
-8.52826
-8.36606
-8.233
-8.13043
-8.05936
-8.02014
-8.01235
-8.03232
-8.07457
-8.13272
-8.19848
-8.26247
-8.3162
-8.35454
-8.37312
-8.36863
-8.33569
-8.27308
-8.18418
-8.07577
-7.96071
-7.86236
-7.81321
-7.85779
-8.05388
-8.4724
-9.1448
-10.0392
-11.0936
-12.2491
-13.4621
-14.704
-15.9573
-17.2111
-18.4583
-19.6928
-20.9078
-22.0955
-23.247
-24.3565
-25.4147
-26.4132
-27.3401
-28.1858
-28.9402
-29.5954
-30.1426
-30.5754
-30.8869
-31.0734
-31.1314
-31.061
-30.8629
-30.5411
-30.0987
-29.5413
-28.8752
-28.1089
-27.2504
-26.3087
-25.2934
-24.2132
-23.0763
-21.8911
-20.6653
-19.4077
-18.1276
-16.8339
-15.5352
-14.2394
-12.9538
-11.6844
-10.4373
-9.21752
-8.02929
-6.87589
-5.76092
-4.68761
-3.65931
-2.6786
-1.74882
-0.872801
-0.051913
0.714254
1.42862
2.09808
2.73227
3.34236
3.93783
4.52561
5.10874
5.68705
6.25782
6.81802
7.36361
7.89124
8.39766
8.87983
9.33499
9.76119
10.1564
10.5191
10.8485
11.1443
11.4061
11.6345
11.8297
11.9921
12.1222
12.2216
12.2923
12.336
12.3545
12.3498
12.324
12.2793
12.2178
12.1419
12.0536
11.9554
11.8492
11.7369
11.6199
11.4993
11.3756
11.2479
11.1135
10.9632
10.7932
10.5528
-10.4634
-10.4727
-10.5003
-10.5277
-10.5539
-10.58
-10.6063
-10.6324
-10.6589
-10.6857
-10.7138
-10.7434
-10.7755
-10.8099
-10.8478
-10.889
-10.9348
-10.9848
-11.04
-11.1
-11.1653
-11.2351
-11.3096
-11.3878
-11.4696
-11.5534
-11.6388
-11.7238
-11.807
-11.8851
-11.9561
-12.0174
-12.0672
-12.1014
-12.1165
-12.1084
-12.0743
-12.0108
-11.9161
-11.7883
-11.6275
-11.4346
-11.212
-10.9633
-10.6935
-10.4077
-10.1114
-9.81046
-9.51277
-9.22725
-8.96167
-8.72193
-8.51341
-8.34071
-8.20759
-8.11607
-8.06625
-8.0542
-8.07343
-8.11659
-8.17535
-8.24095
-8.30371
-8.35895
-8.40228
-8.4259
-8.42474
-8.39948
-8.34916
-8.27714
-8.19881
-8.14248
-8.1433
-8.25666
-8.55872
-9.11027
-9.90721
-10.8958
-12.0121
-13.2041
-14.4356
-15.6842
-16.9365
-18.1835
-19.4192
-20.6381
-21.834
-22.9995
-24.1275
-25.2101
-26.2421
-27.2129
-28.1125
-28.9309
-29.6594
-30.2888
-30.8115
-31.2197
-31.5073
-31.6695
-31.7037
-31.6086
-31.386
-31.0393
-30.5725
-29.9909
-29.3015
-28.5122
-27.6313
-26.6675
-25.6298
-24.5266
-23.3659
-22.1565
-20.9075
-19.6284
-18.3287
-17.0176
-15.7039
-14.3952
-13.0986
-11.8201
-10.5658
-9.34061
-8.14875
-6.99333
-5.87765
-4.80502
-3.77866
-2.80127
-1.87609
-1.00589
-0.191808
0.567291
1.27571
1.94176
2.57631
3.19053
3.79281
4.38834
4.97858
5.56208
6.13614
6.69763
7.24288
7.7691
8.27325
8.75262
9.20486
9.62811
10.0202
10.3801
10.7071
11.0007
11.2607
11.4878
11.6822
11.8443
11.9747
12.0752
12.1475
12.1934
12.2142
12.2121
12.1887
12.1464
12.0868
12.0123
11.9246
11.826
11.718
11.6024
11.4799
11.3514
11.2166
11.0741
10.9208
10.7479
10.552
10.2908
-10.5165
-10.528
-10.5622
-10.5944
-10.6239
-10.6534
-10.6835
-10.7136
-10.7446
-10.7766
-10.8109
-10.8476
-10.8878
-10.9315
-10.98
-11.0334
-11.0928
-11.1581
-11.2304
-11.3092
-11.3952
-11.4878
-11.5874
-11.6928
-11.804
-11.9196
-12.0394
-12.1612
-12.2839
-12.4045
-12.5208
-12.6287
-12.7251
-12.805
-12.8651
-12.9004
-12.9069
-12.8798
-12.8158
-12.7116
-12.5656
-12.3768
-12.1469
-11.8779
-11.5744
-11.2418
-10.8878
-10.5201
-10.147
-9.77819
-9.42525
-9.09827
-8.80546
-8.55384
-8.34958
-8.19636
-8.0951
-8.04319
-8.0347
-8.06033
-8.11108
-8.17801
-8.25089
-8.32403
-8.389
-8.43512
-8.45937
-8.46118
-8.43862
-8.39736
-8.35619
-8.34463
-8.40693
-8.61098
-9.03432
-9.70798
-10.6023
-11.658
-12.8171
-14.0349
-15.2812
-16.5376
-17.793
-19.0398
-20.2724
-21.4852
-22.6723
-23.8268
-24.9409
-26.0091
-27.0246
-27.9775
-28.8584
-29.6573
-30.3661
-30.9752
-31.4774
-31.8645
-32.131
-32.2712
-32.2831
-32.165
-31.9194
-31.5492
-31.0592
-30.4544
-29.742
-28.929
-28.024
-27.0356
-25.9716
-24.8407
-23.6523
-22.4163
-21.1426
-19.8413
-18.5218
-17.1937
-15.8654
-14.5447
-13.2379
-11.9515
-10.6909
-9.46106
-8.26577
-7.10849
-5.9925
-4.92155
-3.89883
-2.92756
-2.01062
-1.15011
-0.346189
0.403725
1.1063
1.77105
2.4094
3.031
3.64232
4.24632
4.84328
5.43094
6.0071
6.56852
7.11242
7.63617
8.13724
8.61302
9.06175
9.48119
9.86981
10.2265
10.5509
10.8419
11.1002
11.326
11.5197
11.6815
11.8126
11.9147
11.9892
12.0376
12.0611
12.0617
12.0411
12.0012
11.9439
11.8708
11.7839
11.6849
11.5753
11.4563
11.3285
11.192
11.0462
10.8892
10.7177
10.5236
10.3045
10.0255
-10.5771
-10.5898
-10.6284
-10.6632
-10.6946
-10.7264
-10.7592
-10.7924
-10.8272
-10.8638
-10.9035
-10.9467
-10.9945
-11.0472
-11.106
-11.1714
-11.2445
-11.3254
-11.4152
-11.5137
-11.6217
-11.7388
-11.8654
-12.0006
-12.1444
-12.2954
-12.4531
-12.6156
-12.7816
-12.9481
-13.1127
-13.2712
-13.4196
-13.5522
-13.6639
-13.7484
-13.8002
-13.8134
-13.7834
-13.7051
-13.575
-13.3905
-13.1512
-12.8586
-12.5168
-12.1315
-11.7118
-11.2678
-10.8106
-10.3516
-9.90462
-9.48316
-9.09982
-8.76514
-8.48733
-8.27032
-8.11535
-8.02104
-7.98234
-7.98849
-8.02862
-8.09188
-8.16834
-8.24972
-8.32331
-8.37825
-8.41146
-8.42228
-8.41212
-8.39228
-8.3843
-8.42416
-8.56513
-8.87889
-9.42446
-10.2044
-11.1765
-12.2851
-13.4794
-14.7209
-15.9841
-17.2532
-18.5184
-19.7727
-21.0106
-22.2263
-23.414
-24.5668
-25.6776
-26.74
-27.7479
-28.692
-29.5617
-30.3484
-31.0431
-31.6377
-32.124
-32.4947
-32.7432
-32.8653
-32.8577
-32.7196
-32.4533
-32.0624
-31.5505
-30.923
-30.1866
-29.3482
-28.4154
-27.3972
-26.3025
-25.1411
-23.9238
-22.6613
-21.3638
-20.0413
-18.7036
-17.3595
-16.0175
-14.6852
-13.3689
-12.0748
-10.8081
-9.57393
-8.37625
-7.21893
-6.10548
-5.03949
-4.02422
-3.06297
-2.15809
-1.31012
-0.517511
0.224591
0.924555
1.59231
2.23794
2.86899
3.4898
4.10177
4.70407
5.29462
5.87145
6.43176
6.97337
7.49393
7.99118
8.46291
8.90739
9.32261
9.70742
10.0609
10.3822
10.6707
10.9274
11.152
11.345
11.5068
11.639
11.7431
11.8203
11.8715
11.8982
11.9018
11.8844
11.8475
11.793
11.7221
11.6366
11.5378
11.427
11.305
11.1718
11.0272
10.8702
10.6988
10.5096
10.2955
10.0548
9.75963
-10.6437
-10.6564
-10.6967
-10.7319
-10.7636
-10.7961
-10.8302
-10.8656
-10.9032
-10.9434
-10.9877
-11.0366
-11.0913
-11.1523
-11.2209
-11.2976
-11.3839
-11.4799
-11.5869
-11.705
-11.8352
-11.9771
-12.1314
-12.2973
-12.4749
-12.6629
-12.8607
-13.0664
-13.2785
-13.494
-13.7101
-13.9219
-14.1251
-14.313
-14.4793
-14.6162
-14.7166
-14.7731
-14.7792
-14.728
-14.6142
-14.433
-14.1825
-13.8627
-13.4776
-13.0342
-12.5432
-12.0176
-11.4718
-10.9201
-10.3779
-9.86081
-9.38452
-8.96324
-8.60842
-8.32638
-8.11841
-7.98117
-7.9085
-7.89107
-7.91573
-7.96661
-8.03123
-8.09861
-8.15731
-8.20021
-8.22343
-8.22809
-8.22021
-8.21696
-8.24733
-8.35352
-8.59151
-9.02505
-9.68612
-10.5581
-11.5972
-12.7532
-13.9818
-15.2499
-16.5353
-17.824
-19.1067
-20.3766
-21.6279
-22.855
-24.0521
-25.2122
-26.3275
-27.3933
-28.4017
-29.3441
-30.2097
-30.9906
-31.6773
-32.2628
-32.7384
-33.0973
-33.3325
-33.4402
-33.4167
-33.2619
-32.9773
-32.5666
-32.0325
-31.3801
-30.6155
-29.7464
-28.7812
-27.7302
-26.6038
-25.413
-24.1687
-22.8818
-21.5627
-20.2213
-18.8669
-17.5082
-16.1538
-14.8108
-13.4863
-12.186
-10.9154
-9.67925
-8.48219
-7.32826
-6.2212
-5.16411
-4.16027
-3.21222
-2.32115
-1.48552
-0.701924
0.0363126
0.737765
1.41184
2.06652
2.70742
3.33684
3.95528
4.56122
5.15328
5.72949
6.28783
6.82635
7.34316
7.83599
8.30321
8.74294
9.15378
9.53449
9.88442
10.2022
10.4885
10.7435
10.9671
11.1596
11.3222
11.456
11.5627
11.6428
11.6976
11.7281
11.7359
11.7224
11.6892
11.638
11.5701
11.4868
11.3893
11.278
11.1534
11.0149
10.862
10.6933
10.5068
10.2994
10.0652
9.80376
9.49297
-10.7134
-10.7248
-10.7639
-10.7973
-10.8273
-10.8589
-10.893
-10.9292
-10.9685
-11.0115
-11.0594
-11.113
-11.1736
-11.2419
-11.3192
-11.4064
-11.5048
-11.6149
-11.7382
-11.8749
-12.0262
-12.192
-12.3731
-12.5688
-12.7795
-13.0039
-13.2416
-13.4904
-13.749
-14.0139
-14.2819
-14.5479
-14.8066
-15.0505
-15.2721
-15.4621
-15.6118
-15.7117
-15.7538
-15.7294
-15.6309
-15.4515
-15.1878
-14.8384
-14.4069
-13.9007
-13.3325
-12.7182
-12.0768
-11.4274
-10.7886
-10.1775
-9.61113
-9.10537
-8.67387
-8.3247
-8.0592
-7.87198
-7.75596
-7.70197
-7.69375
-7.7128
-7.74553
-7.77912
-7.80465
-7.81835
-7.81958
-7.81388
-7.81214
-7.83664
-7.92333
-8.11585
-8.46714
-9.02154
-9.78855
-10.7437
-11.8451
-13.0483
-14.3144
-15.6145
-16.9288
-18.2444
-19.5522
-20.8455
-22.1186
-23.3654
-24.58
-25.7548
-26.8835
-27.9589
-28.9754
-29.9225
-30.7908
-31.5714
-32.2565
-32.8379
-33.3081
-33.6596
-33.886
-33.9819
-33.9451
-33.7747
-33.4717
-33.0379
-32.4769
-31.7944
-30.9976
-30.0955
-29.0986
-28.0177
-26.8638
-25.6478
-24.3807
-23.073
-21.7352
-20.3772
-19.0082
-17.6371
-16.2722
-14.9211
-13.5906
-12.287
-11.0154
-9.78096
-8.58827
-7.44153
-6.34425
-5.29928
-4.30905
-3.37494
-2.49646
-1.67053
-0.892176
-0.154113
0.5519
1.23393
1.89808
2.54784
3.18431
3.80722
4.41529
5.00753
5.58227
6.13788
6.67289
7.18538
7.67348
8.13575
8.57051
8.97672
9.35318
9.69925
10.0139
10.2981
10.5516
10.7744
10.9672
11.1314
11.2679
11.3776
11.4612
11.52
11.5549
11.5675
11.5588
11.5304
11.4832
11.4189
11.3384
11.2424
11.1308
11.0035
10.8596
10.698
10.5173
10.3153
10.0892
9.83485
9.55284
9.22669
-10.7818
-10.7906
-10.826
-10.8556
-10.882
-10.9109
-10.9433
-10.9792
-11.019
-11.0634
-11.1139
-11.1712
-11.2365
-11.3109
-11.3957
-11.4918
-11.6009
-11.7236
-11.8615
-12.0151
-12.1858
-12.3737
-12.5797
-12.8034
-13.045
-13.3036
-13.5787
-13.8681
-14.1703
-14.4816
-14.7989
-15.1164
-15.4282
-15.7257
-16.0004
-16.2413
-16.4383
-16.5793
-16.6549
-16.6545
-16.5682
-16.387
-16.1057
-15.7221
-15.2395
-14.6658
-14.0154
-13.3062
-12.5605
-11.8027
-11.0573
-10.3458
-9.68719
-9.09703
-8.58772
-8.16676
-7.83612
-7.59093
-7.42151
-7.31413
-7.25252
-7.22044
-7.20425
-7.19042
-7.17248
-7.15041
-7.13042
-7.12462
-7.14926
-7.2293
-7.40123
-7.70562
-8.18059
-8.85119
-9.71614
-10.7487
-11.9108
-13.1635
-14.4725
-15.8116
-17.1626
-18.5132
-19.8542
-21.1792
-22.4818
-23.7561
-24.9953
-26.1928
-27.3405
-28.4332
-29.4635
-30.4214
-31.2979
-32.0838
-32.7722
-33.354
-33.8224
-34.1696
-34.3889
-34.4739
-34.4223
-34.2325
-33.9067
-33.4464
-32.8564
-32.1437
-31.3174
-30.387
-29.3636
-28.2579
-27.0812
-25.8444
-24.5581
-23.2331
-21.8796
-20.5079
-19.1271
-17.7464
-16.374
-15.0179
-13.6849
-12.3813
-11.1125
-9.88337
-8.69848
-7.56188
-6.47658
-5.44506
-4.4685
-3.54703
-2.67849
-1.85895
-1.08243
-0.3418
0.370589
1.06099
1.7338
2.39064
3.03221
3.65774
4.26669
4.85805
5.43058
5.98297
6.51404
7.0217
7.5048
7.96176
8.39148
8.79285
9.16503
9.50732
9.81944
10.1018
10.3544
10.577
10.7708
10.9369
11.0761
11.1891
11.2766
11.3395
11.3793
11.397
11.3938
11.3704
11.3282
11.2677
11.19
11.0951
10.9828
10.8524
10.7028
10.5323
10.3394
10.122
9.87765
9.60338
9.30115
8.95973
-10.8438
-10.8491
-10.8787
-10.9025
-10.9236
-10.9482
-10.9776
-11.0117
-11.0507
-11.0955
-11.1472
-11.2069
-11.2758
-11.3548
-11.4456
-11.5491
-11.6669
-11.8001
-11.9504
-12.1187
-12.3065
-12.5142
-12.7426
-12.9915
-13.261
-13.5499
-13.858
-14.1832
-14.524
-14.8767
-15.2376
-15.6007
-15.9594
-16.3045
-16.6258
-16.9113
-17.1484
-17.3234
-17.425
-17.4406
-17.3585
-17.1674
-16.8604
-16.4344
-15.893
-15.245
-14.5062
-13.6974
-12.8446
-11.9751
-11.1174
-10.2974
-9.53762
-8.8544
-8.25911
-7.75705
-7.34927
-7.03219
-6.79575
-6.62432
-6.50122
-6.4107
-6.33876
-6.27572
-6.21916
-6.17338
-6.15277
-6.17253
-6.2514
-6.41408
-6.69364
-7.12312
-7.72543
-8.51099
-9.47125
-10.5796
-11.8033
-13.1098
-14.4685
-15.8548
-17.2508
-18.6448
-20.0277
-21.3925
-22.7324
-24.0414
-25.3125
-26.539
-27.7129
-28.8288
-29.8782
-30.8522
-31.7408
-32.5362
-33.2301
-33.8141
-34.2797
-34.6196
-34.827
-34.8967
-34.8253
-34.6128
-34.2618
-33.7754
-33.1591
-32.4209
-31.5701
-30.617
-29.5723
-28.447
-27.2521
-25.9986
-24.6973
-23.3588
-21.9936
-20.6119
-19.2231
-17.8366
-16.4607
-15.1034
-13.7716
-12.4717
-11.209
-9.98828
-8.81374
-7.68894
-6.61644
-5.59794
-4.6337
-3.7225
-2.86117
-2.04499
-1.26771