/*--------------------------------*- C++ -*----------------------------------*\
  =========                 |
  \\      /  F ield         | OpenFOAM: The Open Source CFD Toolbox
   \\    /   O peration     | Website:  https://openfoam.org
    \\  /    A nd           | Version:  8
     \\/     M anipulation  |
\*---------------------------------------------------------------------------*/
FoamFile
{
    version     2.0;
    format      ascii;
    class       surfaceScalarField;
    location    "200";
    object      phi;
}
// * * * * * * * * * * * * * * * * * * * * * * * * * * * * * * * * * * * * * //

dimensions      [0 3 -1 0 0 0 0];

internalField   nonuniform List<scalar> 
24170
(
3.00544e-06
1.28449e-07
2.86014e-06
1.45286e-07
2.72838e-06
1.31729e-07
2.61076e-06
1.17591e-07
2.51134e-06
9.93997e-08
2.42952e-06
8.17977e-08
2.36042e-06
6.90827e-08
2.30145e-06
5.89921e-08
2.25249e-06
4.89757e-08
2.2124e-06
4.01011e-08
2.1793e-06
3.31134e-08
2.15127e-06
2.80368e-08
2.12743e-06
2.38453e-08
2.10789e-06
1.95436e-08
2.09205e-06
1.58452e-08
2.08028e-06
1.17765e-08
2.07492e-06
5.35769e-09
-1.42111e-09
2.07635e-06
3.50724e-06
7.7646e-08
3.53788e-06
1.14606e-07
3.54951e-06
1.20061e-07
3.54532e-06
1.21747e-07
3.53016e-06
1.14531e-07
3.50914e-06
1.02784e-07
3.48357e-06
9.46374e-08
3.45421e-06
8.83671e-08
3.42394e-06
7.92603e-08
3.39439e-06
6.96774e-08
3.36587e-06
6.16442e-08
3.33898e-06
5.4926e-08
3.31234e-06
5.04991e-08
3.28596e-06
4.59234e-08
3.26064e-06
4.11708e-08
3.23704e-06
3.53838e-08
3.21557e-06
2.68338e-08
2.02723e-08
3.19387e-06
3.8329e-06
5.69433e-08
3.85038e-06
9.71232e-08
3.86506e-06
1.05368e-07
3.87883e-06
1.0796e-07
3.88899e-06
1.0436e-07
3.89497e-06
9.67891e-08
3.89883e-06
9.07775e-08
3.90137e-06
8.58346e-08
3.90156e-06
7.90818e-08
3.89939e-06
7.18589e-08
3.8956e-06
6.54372e-08
3.89068e-06
5.98531e-08
3.88553e-06
5.56558e-08
3.88002e-06
5.14308e-08
3.87421e-06
4.69833e-08
3.86802e-06
4.15753e-08
3.86021e-06
3.46532e-08
2.84279e-08
3.85205e-06
4.21691e-06
4.45936e-08
4.22959e-06
8.44131e-08
4.2401e-06
9.48279e-08
4.24999e-06
9.80493e-08
4.25829e-06
9.60466e-08
4.26449e-06
9.05667e-08
4.26994e-06
8.53218e-08
4.27532e-06
8.04675e-08
4.27978e-06
7.46314e-08
4.2831e-06
6.85477e-08
4.28565e-06
6.28945e-08
4.28763e-06
5.78762e-08
4.28956e-06
5.3727e-08
4.29135e-06
4.96455e-08
4.293e-06
4.53426e-08
4.29422e-06
4.03587e-08
4.29421e-06
3.46607e-08
2.93041e-08
4.29333e-06
4.64641e-06
3.54927e-08
4.65725e-06
7.35813e-08
4.66674e-06
8.53234e-08
4.67545e-06
8.93275e-08
4.6829e-06
8.85925e-08
4.68882e-06
8.46552e-08
4.69404e-06
8.00972e-08
4.69907e-06
7.54411e-08
4.70351e-06
7.01994e-08
4.70726e-06
6.48013e-08
4.71052e-06
5.96368e-08
4.71347e-06
5.49288e-08
4.71642e-06
5.07821e-08
4.71932e-06
4.67466e-08
4.72212e-06
4.25512e-08
4.72454e-06
3.7937e-08
4.72617e-06
3.30281e-08
2.83637e-08
4.7271e-06
5.12169e-06
2.83987e-08
5.13141e-06
6.38349e-08
5.14048e-06
7.6233e-08
5.14893e-06
8.08549e-08
5.15634e-06
8.11689e-08
5.16248e-06
7.85067e-08
5.16789e-06
7.46799e-08
5.17293e-06
7.04047e-08
5.17744e-06
6.56936e-08
5.1814e-06
6.08388e-08
5.18495e-06
5.60972e-08
5.18822e-06
5.16569e-08
5.19143e-06
4.7578e-08
5.19457e-06
4.36159e-08
5.19755e-06
3.95719e-08
5.20018e-06
3.53129e-08
5.20223e-06
3.09798e-08
2.68675e-08
5.20373e-06
5.64656e-06
2.28468e-08
5.65544e-06
5.49695e-08
5.66416e-06
6.75065e-08
5.67246e-06
7.25399e-08
5.67999e-06
7.36427e-08
5.68649e-06
7.20097e-08
5.69226e-06
6.89073e-08
5.69755e-06
6.51162e-08
5.70233e-06
6.09199e-08
5.70661e-06
5.65581e-08
5.71048e-06
5.22253e-08
5.71408e-06
4.80671e-08
5.71752e-06
4.41369e-08
5.72083e-06
4.03129e-08
5.72393e-06
3.64762e-08
5.72668e-06
3.25668e-08
5.72896e-06
2.87e-08
2.50406e-08
5.73078e-06
4.40936e-06
1.95957e-08
4.41523e-06
4.90865e-08
4.42131e-06
6.14023e-08
4.42714e-06
6.66991e-08
4.43254e-06
6.82284e-08
4.4374e-06
6.71452e-08
4.44178e-06
6.45151e-08
4.4458e-06
6.10997e-08
4.44946e-06
5.72627e-08
4.45278e-06
5.32347e-08
4.45581e-06
4.91929e-08
4.45862e-06
4.52624e-08
4.46127e-06
4.14923e-08
4.46377e-06
3.78156e-08
4.4661e-06
3.41578e-08
4.46817e-06
3.04942e-08
4.46996e-06
2.69182e-08
2.35517e-08
4.47145e-06
5.14285e-06
1.66027e-08
5.14873e-06
4.32195e-08
5.15509e-06
5.5042e-08
5.16131e-06
6.04729e-08
5.1672e-06
6.23333e-08
5.17261e-06
6.17364e-08
5.17755e-06
5.95717e-08
5.18209e-06
5.65579e-08
5.18626e-06
5.30983e-08
5.19007e-06
4.94254e-08
5.19356e-06
4.56978e-08
5.1968e-06
4.20266e-08
5.19984e-06
3.84614e-08
5.20268e-06
3.49773e-08
5.20531e-06
3.15358e-08
5.20767e-06
2.81397e-08
5.20973e-06
2.48593e-08
2.17829e-08
5.21149e-06
5.99852e-06
1.38792e-08
6.00434e-06
3.73929e-08
6.01091e-06
4.84641e-08
6.01748e-06
5.38895e-08
6.02383e-06
5.59737e-08
6.02978e-06
5.57852e-08
6.03528e-06
5.40701e-08
6.04037e-06
5.147e-08
6.04506e-06
4.84014e-08
6.04939e-06
4.50972e-08
6.05339e-06
4.17044e-08
6.0571e-06
3.83232e-08
6.06055e-06
3.50072e-08
6.06377e-06
3.17577e-08
6.06674e-06
2.85738e-08
6.06942e-06
2.54637e-08
6.07179e-06
2.24865e-08
1.97048e-08
6.07387e-06
6.99672e-06
1.14212e-08
7.00241e-06
3.17174e-08
7.00911e-06
4.17547e-08
7.01599e-06
4.70055e-08
7.02277e-06
4.91972e-08
7.02923e-06
4.93236e-08
7.03528e-06
4.80205e-08
7.04091e-06
4.58319e-08
7.04616e-06
4.31582e-08
7.05103e-06
4.02302e-08
7.05554e-06
3.71886e-08
7.05975e-06
3.41259e-08
7.06366e-06
3.10959e-08
7.06729e-06
2.81293e-08
7.07063e-06
2.52327e-08
7.07366e-06
2.24335e-08
7.07638e-06
1.97675e-08
1.72898e-08
7.0788e-06
8.16122e-06
9.21781e-09
8.1667e-06
2.62431e-08
8.17346e-06
3.49893e-08
8.18059e-06
3.98719e-08
8.18775e-06
4.20436e-08
8.19469e-06
4.23783e-08
8.20129e-06
4.14255e-08
8.20749e-06
3.9634e-08
8.21329e-06
3.73513e-08
8.21872e-06
3.48076e-08
8.22378e-06
3.21308e-08
8.22849e-06
2.94125e-08
8.23288e-06
2.67091e-08
8.23695e-06
2.40604e-08
8.2407e-06
2.14869e-08
8.24412e-06
1.90159e-08
8.24721e-06
1.66764e-08
1.45074e-08
8.24999e-06
9.51972e-06
7.2253e-09
9.52495e-06
2.1015e-08
9.53169e-06
2.82544e-08
9.53902e-06
3.25443e-08
9.54651e-06
3.45497e-08
9.55391e-06
3.49739e-08
9.56105e-06
3.4294e-08
9.56782e-06
3.28559e-08
9.57422e-06
3.09593e-08
9.58023e-06
2.87983e-08
9.58586e-06
2.65054e-08
9.59111e-06
2.41555e-08
9.59601e-06
2.18162e-08
9.60054e-06
1.95188e-08
9.60474e-06
1.73013e-08
9.60857e-06
1.51774e-08
9.61208e-06
1.318e-08
1.1332e-08
9.61526e-06
1.11045e-05
5.40525e-09
1.11095e-05
1.60369e-08
1.11162e-05
2.16052e-08
1.11236e-05
2.50728e-08
1.11314e-05
2.67439e-08
1.11393e-05
2.71333e-08
1.1147e-05
2.66232e-08
1.11543e-05
2.54863e-08
1.11613e-05
2.39452e-08
1.1168e-05
2.217e-08
1.11742e-05
2.02677e-08
1.11801e-05
1.83168e-08
1.11855e-05
1.63662e-08
1.11906e-05
1.44602e-08
1.11952e-05
1.26198e-08
1.11996e-05
1.08713e-08
1.12035e-05
9.22786e-09
7.71975e-09
1.12071e-05
1.29533e-05
3.70821e-09
1.29581e-05
1.1264e-08
1.29647e-05
1.50425e-08
1.29723e-05
1.74669e-08
1.29804e-05
1.86276e-08
1.29887e-05
1.88441e-08
1.29969e-05
1.84005e-08
1.30049e-05
1.74896e-08
1.30126e-05
1.62707e-08
1.30199e-05
1.48679e-08
1.30268e-05
1.33677e-08
1.30333e-05
1.18311e-08
1.30394e-05
1.03009e-08
1.3045e-05
8.80921e-09
1.30503e-05
7.37751e-09
1.30551e-05
6.02334e-09
1.30596e-05
4.75867e-09
3.60544e-09
1.30637e-05
1.51101e-05
2.07941e-09
1.51148e-05
6.59655e-09
1.51213e-05
8.468e-09
1.51292e-05
9.65802e-09
1.51377e-05
1.01264e-08
1.51465e-05
1.00349e-08
1.51553e-05
9.55166e-09
1.5164e-05
8.79391e-09
1.51724e-05
7.8554e-09
1.51805e-05
6.81184e-09
1.51881e-05
5.71796e-09
1.51954e-05
4.61356e-09
1.52021e-05
3.5264e-09
1.52085e-05
2.4775e-09
1.52144e-05
1.48111e-09
1.52199e-05
5.48615e-10
1.52249e-05
-3.12975e-10
-1.08641e-09
1.52296e-05
1.76261e-05
4.41633e-10
1.76308e-05
1.83788e-09
1.76377e-05
1.6504e-09
1.76459e-05
1.41594e-09
1.7655e-05
1.02343e-09
1.76646e-05
4.98766e-10
1.76742e-05
-1.15835e-10
1.76838e-05
-7.77625e-10
1.76931e-05
-1.46656e-09
1.77021e-05
-2.15396e-09
1.77106e-05
-2.82992e-09
1.77187e-05
-3.4772e-09
1.77264e-05
-4.09179e-09
1.77335e-05
-4.66345e-09
1.77402e-05
-5.19077e-09
1.77464e-05
-5.66751e-09
1.77522e-05
-6.09422e-09
-6.45699e-09
1.77576e-05
1.78278e-05
-1.12318e-09
1.78323e-05
-2.70887e-09
1.78389e-05
-4.92138e-09
1.78469e-05
-6.57878e-09
1.78557e-05
-7.8404e-09
1.7865e-05
-8.82819e-09
1.78745e-05
-9.59228e-09
1.78839e-05
-1.01902e-08
1.78931e-05
-1.06438e-08
1.7902e-05
-1.09995e-08
1.79104e-05
-1.12675e-08
1.79184e-05
-1.14772e-08
1.7926e-05
-1.1629e-08
1.7933e-05
-1.17415e-08
1.79397e-05
-1.18113e-08
1.79458e-05
-1.18505e-08
1.79516e-05
-1.18551e-08
-1.1824e-08
1.7957e-05
1.58828e-05
-2.59103e-09
1.5887e-05
-6.90796e-09
1.58931e-05
-1.09856e-08
1.59004e-05
-1.38919e-08
1.59084e-05
-1.58996e-08
1.59168e-05
-1.72583e-08
1.59254e-05
-1.81363e-08
1.59338e-05
-1.86347e-08
1.5942e-05
-1.88622e-08
1.595e-05
-1.88884e-08
1.59575e-05
-1.87849e-08
1.59646e-05
-1.85825e-08
1.59713e-05
-1.83212e-08
1.59776e-05
-1.80127e-08
1.59834e-05
-1.76802e-08
1.59889e-05
-1.73253e-08
1.5994e-05
-1.69623e-08
-1.65804e-08
1.59988e-05
1.41502e-05
-4.0871e-09
1.41543e-05
-1.10929e-08
1.41603e-05
-1.69426e-08
1.41673e-05
-2.09298e-08
1.4175e-05
-2.3532e-08
1.41829e-05
-2.51667e-08
1.41908e-05
-2.60726e-08
1.41986e-05
-2.64269e-08
1.42061e-05
-2.63829e-08
1.42133e-05
-2.60756e-08
1.42201e-05
-2.55913e-08
1.42265e-05
-2.49974e-08
1.42326e-05
-2.43349e-08
1.42382e-05
-2.36395e-08
1.42434e-05
-2.2929e-08
1.42483e-05
-2.22201e-08
1.42529e-05
-2.1519e-08
-2.08273e-08
1.42571e-05
1.26067e-05
-5.71597e-09
1.26111e-05
-1.55157e-08
1.26172e-05
-2.30477e-08
1.26242e-05
-2.79166e-08
1.26316e-05
-3.09527e-08
1.26392e-05
-3.27492e-08
1.26467e-05
-3.35972e-08
1.2654e-05
-3.37295e-08
1.2661e-05
-3.33724e-08
1.26676e-05
-3.27012e-08
1.26739e-05
-3.18298e-08
1.26797e-05
-3.0842e-08
1.26852e-05
-2.97912e-08
1.26903e-05
-2.87231e-08
1.2695e-05
-2.7659e-08
1.26994e-05
-2.66199e-08
1.27035e-05
-2.56106e-08
-2.46348e-08
1.27073e-05
1.12317e-05
-7.59561e-09
1.12366e-05
-2.04007e-08
1.1243e-05
-2.94626e-08
1.125e-05
-3.49551e-08
1.12574e-05
-3.82669e-08
1.12647e-05
-4.01161e-08
1.12719e-05
-4.08062e-08
1.12788e-05
-4.06421e-08
1.12854e-05
-3.99242e-08
1.12916e-05
-3.88617e-08
1.12973e-05
-3.75915e-08
1.13027e-05
-3.62042e-08
1.13077e-05
-3.47745e-08
1.13123e-05
-3.33435e-08
1.13166e-05
-3.1948e-08
1.13206e-05
-3.05966e-08
1.13243e-05
-2.93069e-08
-2.80691e-08
1.13277e-05
1.00069e-05
-9.86754e-09
1.00125e-05
-2.59689e-08
1.00193e-05
-3.62608e-08
1.00264e-05
-4.20852e-08
1.00337e-05
-4.55264e-08
1.00409e-05
-4.73204e-08
1.00478e-05
-4.7753e-08
1.00544e-05
-4.72249e-08
1.00606e-05
-4.61061e-08
1.00664e-05
-4.4632e-08
1.00717e-05
-4.29484e-08
1.00767e-05
-4.11639e-08
1.00813e-05
-3.93543e-08
1.00855e-05
-3.7576e-08
1.00894e-05
-3.58571e-08
1.0093e-05
-3.42184e-08
1.00964e-05
-3.2662e-08
-3.11904e-08
1.00995e-05
8.91594e-06
-1.27106e-08
8.92244e-06
-3.24569e-08
8.92962e-06
-4.34395e-08
8.93685e-06
-4.93022e-08
8.94409e-06
-5.27682e-08
8.95118e-06
-5.44031e-08
8.95792e-06
-5.44857e-08
8.96423e-06
-5.35397e-08
8.97012e-06
-5.19907e-08
8.97558e-06
-5.00853e-08
8.98061e-06
-4.79794e-08
8.98524e-06
-4.57902e-08
8.98949e-06
-4.3606e-08
8.9934e-06
-4.14832e-08
8.997e-06
-3.94561e-08
9.00032e-06
-3.75389e-08
9.0034e-06
-3.5739e-08
-3.40456e-08
9.00626e-06
7.94429e-06
-1.63312e-08
7.95199e-06
-4.01462e-08
7.95951e-06
-5.09614e-08
7.96685e-06
-5.66273e-08
7.97414e-06
-6.00614e-08
7.98119e-06
-6.14462e-08
7.98781e-06
-6.11029e-08
7.99397e-06
-5.96919e-08
7.99966e-06
-5.76808e-08
8.0049e-06
-5.5321e-08
8.00969e-06
-5.27756e-08
8.01408e-06
-5.0174e-08
8.01808e-06
-4.76079e-08
8.02174e-06
-4.51401e-08
8.02509e-06
-4.28049e-08
8.02817e-06
-4.0619e-08
8.03102e-06
-3.85841e-08
-3.66791e-08
8.03365e-06
7.07909e-06
-2.10882e-08
7.08824e-06
-4.92858e-08
7.09623e-06
-5.89451e-08
7.10387e-06
-6.42715e-08
7.11146e-06
-6.76411e-08
7.1187e-06
-6.86798e-08
7.12543e-06
-6.78336e-08
7.13164e-06
-6.59018e-08
7.13735e-06
-6.33841e-08
7.14256e-06
-6.05286e-08
7.14729e-06
-5.75104e-08
7.15158e-06
-5.44639e-08
7.15547e-06
-5.14887e-08
7.15898e-06
-4.86509e-08
7.16216e-06
-4.59888e-08
7.16506e-06
-4.35184e-08
7.16772e-06
-4.12428e-08
-3.91388e-08
7.17017e-06
6.30961e-06
-2.8187e-08
6.32029e-06
-5.99537e-08
6.32952e-06
-6.817e-08
6.33846e-06
-7.32101e-08
6.34721e-06
-7.63888e-08
6.3554e-06
-7.68618e-08
6.3629e-06
-7.53367e-08
6.36974e-06
-7.27384e-08
6.37593e-06
-6.95691e-08
6.38149e-06
-6.60849e-08
6.38644e-06
-6.24653e-08
6.39083e-06
-5.88521e-08
6.39469e-06
-5.53525e-08
6.39807e-06
-5.2031e-08
6.40103e-06
-4.89447e-08
6.40362e-06
-4.61096e-08
6.40589e-06
-4.3514e-08
-4.11404e-08
6.40789e-06
5.62881e-06
-4.20964e-08
5.64341e-06
-7.45474e-08
5.65753e-06
-8.22824e-08
5.67134e-06
-8.70131e-08
5.68415e-06
-8.91921e-08
5.69547e-06
-8.81779e-08
5.70525e-06
-8.51203e-08
5.71355e-06
-8.10349e-08
5.72042e-06
-7.64308e-08
5.72592e-06
-7.15905e-08
5.73017e-06
-6.67122e-08
5.73327e-06
-6.19521e-08
5.73533e-06
-5.74125e-08
5.73647e-06
-5.31696e-08
5.73682e-06
-4.92934e-08
5.73652e-06
-4.58157e-08
5.73572e-06
-4.27119e-08
-4.01733e-08
5.73475e-06
5.05217e-06
-9.19565e-08
5.08666e-06
-1.0903e-07
5.11421e-06
-1.09824e-07
5.13323e-06
-1.06029e-07
5.14395e-06
-9.9906e-08
5.1477e-06
-9.19193e-08
5.14588e-06
-8.3301e-08
5.13965e-06
-7.48046e-08
5.12998e-06
-6.67536e-08
5.11769e-06
-5.92969e-08
5.10346e-06
-5.24861e-08
5.08784e-06
-4.63352e-08
5.07127e-06
-4.08421e-08
5.0541e-06
-3.59962e-08
5.0366e-06
-3.17923e-08
5.0191e-06
-2.83125e-08
5.00196e-06
-2.55757e-08
-2.38689e-08
4.98566e-06
4.36459e-06
4.25556e-06
4.14574e-06
4.03971e-06
3.93981e-06
3.84789e-06
3.76459e-06
3.68978e-06
3.62303e-06
3.56373e-06
3.51125e-06
3.46491e-06
3.42407e-06
3.38807e-06
3.35628e-06
3.32797e-06
3.30239e-06
3.27852e-06
-1.99748e-08
2.04556e-08
-4.27164e-08
2.3614e-08
-5.59878e-08
1.40465e-08
-4.42526e-08
-1.10247e-08
-6.43536e-09
-3.71825e-08
4.84796e-08
-5.43807e-08
1.11218e-07
-6.23525e-08
1.75938e-07
-6.4393e-08
2.39474e-07
-6.32881e-08
3.00109e-07
-6.03884e-08
3.56649e-07
-5.63555e-08
4.08549e-07
-5.16809e-08
4.55434e-07
-4.6722e-08
4.9734e-07
-4.16923e-08
5.34192e-07
-3.66984e-08
5.66219e-07
-3.18027e-08
5.93428e-07
-2.70475e-08
6.16122e-07
-2.2451e-08
6.34322e-07
-1.80287e-08
6.48355e-07
-1.37734e-08
6.58238e-07
-9.70704e-09
6.64262e-07
-5.75115e-09
6.66423e-07
-1.98052e-09
6.64853e-07
1.84843e-09
6.59333e-07
5.68658e-09
6.50359e-07
9.24896e-09
6.3799e-07
1.25263e-08
6.22909e-07
1.53534e-08
6.05165e-07
1.78773e-08
5.85487e-07
1.9945e-08
5.64367e-07
2.12445e-08
5.4258e-07
2.20552e-08
5.20219e-07
2.24809e-08
4.98147e-07
2.23424e-08
4.76588e-07
2.16656e-08
4.5639e-07
2.04673e-08
4.37728e-07
1.87639e-08
4.21413e-07
1.65841e-08
4.07141e-07
1.4362e-08
3.95306e-07
1.21102e-08
3.85757e-07
9.63802e-09
3.78839e-07
7.20064e-09
3.7401e-07
4.92879e-09
3.71355e-07
2.92517e-09
3.70144e-07
1.28096e-09
3.7031e-07
8.32324e-11
3.70972e-07
-6.05374e-10
3.71963e-07
-7.67274e-10
3.72394e-07
-3.99812e-10
3.72085e-07
5.25103e-10
3.70219e-07
1.92216e-09
3.66733e-07
3.71421e-09
3.60999e-07
5.80186e-09
3.53197e-07
8.06216e-09
3.43028e-07
1.02858e-08
3.31105e-07
1.22215e-08
3.17697e-07
1.35438e-08
3.04135e-07
1.39149e-08
2.91275e-07
1.30405e-08
2.80822e-07
1.09076e-08
2.73377e-07
7.70141e-09
2.70049e-07
3.89837e-09
2.70105e-07
2.61427e-10
2.72691e-07
-1.93172e-09
2.75504e-07
-2.43963e-09
2.7698e-07
-7.97254e-10
2.72892e-07
4.47199e-09
2.61041e-07
1.25474e-08
2.42038e-07
1.92176e-08
2.17238e-07
2.56892e-08
1.65277e-07
5.1691e-08
6.48661e-08
1.01454e-07
-9.41675e-08
1.5861e-07
-3.22244e-07
2.28885e-07
-6.09865e-07
2.87178e-07
-9.35024e-07
3.25593e-07
-1.28037e-06
3.44959e-07
-1.6243e-06
3.44136e-07
-1.95217e-06
3.27506e-07
-2.25227e-06
3.00155e-07
-2.51965e-06
2.67009e-07
-2.75197e-06
2.32257e-07
-2.95108e-06
1.98743e-07
-3.11951e-06
1.6832e-07
-3.26155e-06
1.41711e-07
-3.38078e-06
1.19144e-07
-3.48133e-06
1.00303e-07
-3.56634e-06
8.48646e-08
-3.63891e-06
7.22837e-08
-3.70123e-06
6.19971e-08
-3.75492e-06
5.34846e-08
-3.80147e-06
4.6533e-08
-3.84218e-06
4.07494e-08
-3.87805e-06
3.59642e-08
-3.9099e-06
3.19332e-08
-3.93831e-06
2.85056e-08
-3.96374e-06
2.54755e-08
-3.98638e-06
2.26722e-08
-4.00668e-06
2.02517e-08
-4.02476e-06
1.80247e-08
-4.04081e-06
1.59374e-08
-4.05497e-06
1.40385e-08
-4.06743e-06
1.22967e-08
-4.07838e-06
1.07876e-08
-4.0878e-06
9.22182e-09
-4.09572e-06
7.7398e-09
-4.10227e-06
6.33227e-09
-4.10755e-06
5.07521e-09
-4.11166e-06
3.87767e-09
-4.11459e-06
2.70392e-09
-4.11657e-06
1.72874e-09
-4.11754e-06
7.20621e-10
-4.11752e-06
-2.86282e-10
-4.11682e-06
-9.69443e-10
-4.11547e-06
-1.64218e-09
-4.11348e-06
-2.2906e-09
-4.11101e-06
-2.79027e-09
-4.10796e-06
-3.38498e-09
-4.10405e-06
-4.26571e-09
-4.0995e-06
-4.9181e-09
-4.09472e-06
-5.17032e-09
-4.0898e-06
-5.3295e-09
-4.08486e-06
-5.35513e-09
-4.08006e-06
-5.24894e-09
-4.07522e-06
-5.29312e-09
-4.07027e-06
-5.42278e-09
-4.06537e-06
-5.35822e-09
-4.06046e-06
-5.39899e-09
-4.0554e-06
-5.5128e-09
-4.05035e-06
-5.51252e-09
-4.04489e-06
-5.86399e-09
-4.03891e-06
-6.41479e-09
-4.03248e-06
-6.87428e-09
-4.0256e-06
-7.44495e-09
-4.01837e-06
-7.79737e-09
-4.01119e-06
-7.79307e-09
-4.00479e-06
-6.91036e-09
-3.99998e-06
-5.39841e-09
-3.99718e-06
-3.45027e-09
-3.99843e-06
3.24778e-10
-4.00495e-06
5.6607e-09
-4.01721e-06
1.13526e-08
-4.03533e-06
1.76099e-08
-4.05909e-06
2.33968e-08
-4.08685e-06
2.78135e-08
-4.11683e-06
3.02822e-08
-4.14605e-06
3.00244e-08
-4.171e-06
2.61904e-08
-4.18811e-06
1.87901e-08
-4.1953e-06
9.22173e-09
-4.1911e-06
-1.88788e-09
-4.17413e-06
-1.44765e-08
-4.14313e-06
-2.83834e-08
-4.0977e-06
-4.27609e-08
-4.03831e-06
-5.68442e-08
-3.96611e-06
-6.94978e-08
-3.88283e-06
-8.07121e-08
-3.78908e-06
-9.07267e-08
-3.68424e-06
-1.01805e-07
-3.56483e-06
-1.15929e-07
-3.42562e-06
-1.35749e-07
-3.25919e-06
-1.6304e-07
-3.05849e-06
-1.97578e-07
-2.81758e-06
-2.38251e-07
-2.53494e-06
-2.80278e-07
-2.21468e-06
-3.18212e-07
-1.86491e-06
-3.47814e-07
-1.49667e-06
-3.66243e-07
-1.11594e-06
-3.78725e-07
-7.02075e-07
-4.11736e-07
-2.30763e-07
-4.69367e-07
2.62792e-07
-4.91784e-07
7.25768e-07
-4.61553e-07
1.14139e-06
-4.14403e-07
1.50992e-06
-3.67583e-07
1.83319e-06
-3.22501e-07
2.11048e-06
-2.76699e-07
2.33647e-06
-2.25476e-07
2.49139e-06
-1.54449e-07
-1.93532e-08
2.5112e-06
4.42102e-09
1.69348e-08
1.4756e-08
1.48161e-08
5.05321e-08
-2.07778e-08
1.04573e-07
-6.45585e-08
1.62816e-07
-9.51271e-08
2.18263e-07
-1.09617e-07
2.69172e-07
-1.13103e-07
3.15422e-07
-1.10507e-07
3.57116e-07
-1.04871e-07
3.94612e-07
-9.77757e-08
4.28326e-07
-8.99781e-08
4.58609e-07
-8.1865e-08
4.85634e-07
-7.3662e-08
5.09549e-07
-6.55043e-08
5.30409e-07
-5.7472e-08
5.48336e-07
-4.96191e-08
5.63367e-07
-4.1983e-08
5.75629e-07
-3.45847e-08
5.8514e-07
-2.74346e-08
5.92049e-07
-2.05413e-08
5.96373e-07
-1.39151e-08
5.98352e-07
-7.57418e-09
5.98047e-07
-1.55279e-09
5.95897e-07
4.1607e-09
5.92086e-07
9.61993e-09
5.86666e-07
1.48363e-08
5.79546e-07
1.97658e-08
5.70729e-07
2.43377e-08
5.60231e-07
2.84887e-08
5.48242e-07
3.21019e-08
5.3455e-07
3.50479e-08
5.19509e-07
3.72666e-08
5.03411e-07
3.86884e-08
4.86669e-07
3.92554e-08
4.69494e-07
3.89431e-08
4.5236e-07
3.77657e-08
4.35462e-07
3.57581e-08
4.192e-07
3.30109e-08
4.03953e-07
2.96964e-08
3.90287e-07
2.59301e-08
3.78179e-07
2.18373e-08
3.67921e-07
1.7619e-08
3.5945e-07
1.34848e-08
3.52866e-07
9.65178e-09
3.47914e-07
6.30685e-09
3.44528e-07
3.60494e-09
3.42308e-07
1.67573e-09
3.41038e-07
6.16146e-10
3.40247e-07
4.45967e-10
3.39747e-07
1.14796e-09
3.39094e-07
2.64181e-09
3.38102e-07
4.8406e-09
3.36362e-07
7.62935e-09
3.33736e-07
1.08585e-08
3.29852e-07
1.42941e-08
3.24637e-07
1.76495e-08
3.17807e-07
2.05248e-08
3.09509e-07
2.24879e-08
2.99666e-07
2.30966e-08
2.88617e-07
2.23198e-08
2.76077e-07
2.05359e-08
2.61915e-07
1.85146e-08
2.4473e-07
1.78073e-08
2.22502e-07
2.08006e-08
1.91951e-07
2.84856e-08
1.49962e-07
4.17579e-08
9.13129e-08
6.34051e-08
5.65002e-09
9.8839e-08
-1.29119e-07
1.54181e-07
-3.32737e-07
2.29657e-07
-6.04878e-07
3.23895e-07
-9.30019e-07
4.26743e-07
-1.29373e-06
5.22357e-07
-1.66493e-06
6.00199e-07
-2.02574e-06
6.48006e-07
-2.35773e-06
6.57654e-07
-2.6468e-06
6.3401e-07
-2.88833e-06
5.85677e-07
-3.08336e-06
5.22455e-07
-3.23731e-06
4.5405e-07
-3.35745e-06
3.87007e-07
-3.45115e-06
3.2584e-07
-3.52511e-06
2.72512e-07
-3.58451e-06
2.27572e-07
-3.63343e-06
1.90459e-07
-3.67463e-06
1.6021e-07
-3.71016e-06
1.35698e-07
-3.74132e-06
1.15871e-07
-3.76902e-06
9.97602e-08
-3.79384e-06
8.65459e-08
-3.81613e-06
7.5636e-08
-3.83615e-06
6.65319e-08
-3.85419e-06
5.88338e-08
-3.87044e-06
5.22749e-08
-3.88502e-06
4.66003e-08
-3.89811e-06
4.16476e-08
-3.90982e-06
3.72399e-08
-3.9203e-06
3.31531e-08
-3.92947e-06
2.93961e-08
-3.93749e-06
2.59757e-08
-3.94452e-06
2.28845e-08
-3.95059e-06
1.99955e-08
-3.95577e-06
1.73494e-08
-3.96008e-06
1.49585e-08
-3.96352e-06
1.25109e-08
-3.96607e-06
1.01258e-08
-3.96791e-06
8.00561e-09
-3.96912e-06
6.10128e-09
-3.96968e-06
4.26324e-09
-3.96981e-06
2.6393e-09
-3.9696e-06
1.30942e-09
-3.96912e-06
3.28478e-11
-3.96843e-06
-1.19121e-09
-3.9674e-06
-2.23895e-09
-3.96595e-06
-3.3341e-09
-3.96414e-06
-4.34921e-09
-3.96185e-06
-5.34782e-09
-3.95915e-06
-6.36461e-09
-3.95613e-06
-7.58314e-09
-3.95253e-06
-8.83458e-09
-3.94865e-06
-9.37846e-09
-3.94466e-06
-9.66424e-09
-3.94044e-06
-9.93929e-09
-3.9361e-06
-9.96916e-09
-3.93157e-06
-1.02075e-08
-3.92696e-06
-1.04284e-08
-3.92207e-06
-1.06581e-08
-3.91679e-06
-1.10747e-08
-3.91151e-06
-1.11954e-08
-3.90596e-06
-1.14489e-08
-3.90009e-06
-1.20894e-08
-3.89415e-06
-1.27107e-08
-3.888e-06
-1.34433e-08
-3.88173e-06
-1.41797e-08
-3.87567e-06
-1.43869e-08
-3.8702e-06
-1.37595e-08
-3.86571e-06
-1.18641e-08
-3.86283e-06
-8.78884e-09
-3.86207e-06
-4.83551e-09
-3.86302e-06
4.86937e-10
-3.86533e-06
7.14641e-09
-3.86901e-06
1.42995e-08
-3.87358e-06
2.16858e-08
-3.87888e-06
2.84298e-08
-3.88476e-06
3.36912e-08
-3.89105e-06
3.69094e-08
-3.89745e-06
3.71341e-08
-3.90334e-06
3.3262e-08
-3.90793e-06
2.4882e-08
-3.90894e-06
1.21051e-08
-3.9035e-06
-5.30542e-09
-3.88913e-06
-2.66107e-08
-3.86415e-06
-5.11043e-08
-3.8272e-06
-7.74088e-08
-3.77745e-06
-1.04354e-07
-3.71403e-06
-1.30635e-07
-3.63605e-06
-1.56353e-07
-3.54169e-06
-1.82409e-07
-3.42843e-06
-2.12201e-07
-3.29161e-06
-2.49463e-07
-3.12526e-06
-2.98861e-07
-2.92275e-06
-3.62276e-07
-2.67859e-06
-4.38918e-07
-2.38984e-06
-5.24509e-07
-2.05724e-06
-6.10867e-07
-1.68408e-06
-6.89595e-07
-1.27552e-06
-7.54842e-07
-8.29589e-07
-8.10656e-07
-3.40232e-07
-8.66759e-07
1.62091e-07
-9.12824e-07
6.24872e-07
-9.31094e-07
1.04467e-06
-9.10534e-07
1.43872e-06
-8.54707e-07
1.80653e-06
-7.81379e-07
2.14227e-06
-7.0267e-07
2.44176e-06
-6.21445e-07
2.7019e-06
-5.36442e-07
2.91904e-06
-4.42229e-07
3.09024e-06
-3.2532e-07
-1.45376e-07
3.21662e-06
7.96488e-09
9.68105e-09
5.18198e-08
-2.80531e-08
1.20382e-07
-8.88685e-08
1.8699e-07
-1.30901e-07
2.4045e-07
-1.48415e-07
2.81753e-07
-1.50792e-07
3.1472e-07
-1.45972e-07
3.42369e-07
-1.38072e-07
3.66443e-07
-1.28875e-07
3.87853e-07
-1.1912e-07
4.07057e-07
-1.09126e-07
4.24307e-07
-9.90544e-08
4.39696e-07
-8.89998e-08
4.53274e-07
-7.90227e-08
4.65019e-07
-6.91636e-08
4.74922e-07
-5.9457e-08
4.82928e-07
-4.99316e-08
4.8903e-07
-4.06131e-08
4.93182e-07
-3.15222e-08
4.95404e-07
-2.26801e-08
4.95675e-07
-1.41153e-08
4.94057e-07
-5.86419e-09
4.90546e-07
2.03501e-09
4.85244e-07
9.5602e-09
4.78239e-07
1.6703e-08
4.69721e-07
2.34549e-08
4.59781e-07
2.97835e-08
4.486e-07
3.56209e-08
4.36295e-07
4.08704e-08
4.23074e-07
4.5425e-08
4.09027e-07
4.91727e-08
3.94392e-07
5.20057e-08
3.79336e-07
5.38203e-08
3.64159e-07
5.45357e-08
3.49072e-07
5.41028e-08
3.34419e-07
5.25168e-08
3.20422e-07
4.98219e-08
3.07406e-07
4.61175e-08
2.9561e-07
4.15544e-08
2.85309e-07
3.63165e-08
2.76562e-07
3.06407e-08
2.69464e-07
2.47999e-08
2.63932e-07
1.90717e-08
2.59914e-07
1.37434e-08
2.57187e-07
9.08208e-09
2.55535e-07
5.32617e-09
2.54581e-07
2.67342e-09
2.54011e-07
1.24804e-09
2.53427e-07
1.07226e-09
2.52551e-07
2.09099e-09
2.51065e-07
4.18168e-09
2.48768e-07
7.2165e-09
2.45402e-07
1.1067e-08
2.40793e-07
1.55747e-08
2.34671e-07
2.05142e-08
2.26841e-07
2.5614e-08
2.16985e-07
3.05186e-08
2.04778e-07
3.48728e-08
1.89662e-07
3.83978e-08
1.70835e-07
4.13877e-08
1.4666e-07
4.4957e-08
1.1471e-07
5.07688e-08
7.09858e-08
6.18023e-08
1.03432e-08
8.17868e-08
-7.45687e-08
1.13668e-07
-1.9378e-07
1.61245e-07
-3.59395e-07
2.29196e-07
-5.81008e-07
3.20585e-07
-8.5942e-07
4.32686e-07
-1.18545e-06
5.55752e-07
-1.53508e-06
6.7357e-07
-1.87985e-06
7.71566e-07
-2.19584e-06
8.38401e-07
-2.46213e-06
8.66559e-07
-2.67006e-06
8.55991e-07
-2.82498e-06
8.12621e-07
-2.93748e-06
7.46534e-07
-3.01975e-06
6.67965e-07
-3.08262e-06
5.85297e-07
-3.13417e-06
5.05551e-07
-3.17974e-06
4.3249e-07
-3.2221e-06
3.68099e-07
-3.2625e-06
3.12774e-07
-3.30116e-06
2.66108e-07
-3.33801e-06
2.27181e-07
-3.37278e-06
1.94866e-07
-3.40531e-06
1.68131e-07
-3.43553e-06
1.45972e-07
-3.46345e-06
1.27479e-07
-3.48907e-06
1.11964e-07
-3.51243e-06
9.88785e-08
-3.53365e-06
8.77266e-08
-3.55289e-06
7.8102e-08
-3.57029e-06
6.97186e-08
-3.58594e-06
6.231e-08
-3.59999e-06
5.57359e-08
-3.61253e-06
4.98066e-08
-3.62366e-06
4.42829e-08
-3.63342e-06
3.9131e-08
-3.64186e-06
3.43498e-08
-3.64902e-06
2.99816e-08
-3.65498e-06
2.58592e-08
-3.65984e-06
2.21077e-08
-3.66373e-06
1.87296e-08
-3.66672e-06
1.53887e-08
-3.66891e-06
1.21812e-08
-3.67033e-06
9.2934e-09
-3.67107e-06
6.69658e-09
-3.67124e-06
4.29512e-09
-3.67092e-06
2.16246e-09
-3.6701e-06
3.29044e-10
-3.6688e-06
-1.43758e-09
-3.66698e-06
-3.18026e-09
-3.66469e-06
-4.72243e-09
-3.66194e-06
-6.27656e-09
-3.6588e-06
-7.69216e-09
-3.65534e-06
-9.02224e-09
-3.65165e-06
-1.02857e-08
-3.64782e-06
-1.16452e-08
-3.64374e-06
-1.31741e-08
-3.63949e-06
-1.38904e-08
-3.63506e-06
-1.43805e-08
-3.63038e-06
-1.49125e-08
-3.62552e-06
-1.5134e-08
-3.62037e-06
-1.56764e-08
-3.61493e-06
-1.61897e-08
-3.6092e-06
-1.67207e-08
-3.60324e-06
-1.73571e-08
-3.59721e-06
-1.75486e-08
-3.59082e-06
-1.81359e-08
-3.584e-06
-1.9203e-08
-3.57685e-06
-2.01587e-08
-3.56945e-06
-2.11964e-08
-3.56195e-06
-2.20675e-08
-3.5545e-06
-2.22693e-08
-3.54719e-06
-2.14492e-08
-3.54004e-06
-1.94172e-08
-3.53321e-06
-1.60322e-08
-3.52703e-06
-1.15769e-08
-3.52149e-06
-5.6982e-09
-3.51683e-06
1.76715e-09
-3.51314e-06
1.00542e-08
-3.51066e-06
1.88049e-08
-3.5097e-06
2.7349e-08
-3.51058e-06
3.46868e-08
-3.5133e-06
4.00272e-08
-3.5175e-06
4.2039e-08
-3.5227e-06
3.94127e-08
-3.52798e-06
3.13679e-08
-3.53189e-06
1.73008e-08
-3.53264e-06
-3.09961e-09
-3.5282e-06
-2.95885e-08
-3.51619e-06
-6.15901e-08
-3.49408e-06
-9.80812e-08
-3.45912e-06
-1.37917e-07
-3.40831e-06
-1.80095e-07
-3.33851e-06
-2.24765e-07
-3.24621e-06
-2.73224e-07
-3.12748e-06
-3.29307e-07
-2.97751e-06
-3.97731e-07
-2.79051e-06
-4.84084e-07
-2.56056e-06
-5.90563e-07
-2.28394e-06
-7.13952e-07
-1.96111e-06
-8.45977e-07
-1.59354e-06
-9.77188e-07
-1.18567e-06
-1.09625e-06
-7.38729e-07
-1.20057e-06
-2.58618e-07
-1.28954e-06
2.26396e-07
-1.35069e-06
6.88568e-07
-1.37399e-06
1.11754e-06
-1.35923e-06
1.51536e-06
-1.30758e-06
1.88644e-06
-1.22516e-06
2.2299e-06
-1.12428e-06
2.54236e-06
-1.01468e-06
2.8215e-06
-9.00187e-07
3.06617e-06
-7.80787e-07
3.27515e-06
-6.50898e-07
3.44789e-06
-4.97792e-07
-2.93789e-07
3.5966e-06
2.25733e-08
-1.2441e-08
9.63288e-08
-1.01277e-07
1.66985e-07
-1.59258e-07
2.15564e-07
-1.7931e-07
2.47182e-07
-1.7992e-07
2.69662e-07
-1.73183e-07
2.87592e-07
-1.63835e-07
3.03059e-07
-1.53478e-07
3.16897e-07
-1.42665e-07
3.29446e-07
-1.3162e-07
3.40817e-07
-1.20456e-07
3.51046e-07
-1.0924e-07
3.60098e-07
-9.80135e-08
3.67927e-07
-8.68077e-08
3.74452e-07
-7.56501e-08
3.79613e-07
-6.45693e-08
3.83321e-07
-5.35978e-08
3.85533e-07
-4.27711e-08
3.86179e-07
-3.2121e-08
3.85242e-07
-2.16824e-08
3.82681e-07
-1.15023e-08
3.78519e-07
-1.63492e-09
3.72743e-07
7.86677e-09
3.65421e-07
1.69527e-08
3.56606e-07
2.55763e-08
3.46444e-07
3.369e-08
3.35049e-07
4.12358e-08
3.22611e-07
4.81328e-08
3.09273e-07
5.42662e-08
2.95262e-07
5.95113e-08
2.80749e-07
6.37437e-08
2.65994e-07
6.68363e-08
2.5121e-07
6.86631e-08
2.36699e-07
6.91207e-08
2.22707e-07
6.81507e-08
2.09536e-07
6.57576e-08
1.97397e-07
6.20102e-08
1.86538e-07
5.70439e-08
1.77077e-07
5.10597e-08
1.69131e-07
4.4321e-08
1.62673e-07
3.71417e-08
1.5767e-07
2.98583e-08
1.53969e-07
2.2812e-08
1.51427e-07
1.63378e-08
1.49794e-07
1.0753e-08
1.48822e-07
6.34784e-09
1.48166e-07
3.3649e-09
1.47504e-07
1.95783e-09
1.46464e-07
2.14984e-09
1.4477e-07
3.83809e-09
1.4214e-07
6.85943e-09
1.38348e-07
1.10757e-08
1.3309e-07
1.63931e-08
1.2604e-07
2.27122e-08
1.16752e-07
2.99001e-08
1.04711e-07
3.77767e-08
8.91825e-08
4.61737e-08
6.91016e-08
5.51181e-08
4.27331e-08
6.49376e-08
7.53972e-09
7.67949e-08
-4.05333e-08
9.3236e-08
-1.07093e-07
1.17568e-07
-1.98815e-07
1.53721e-07
-3.22489e-07
2.05639e-07
-4.85374e-07
2.76688e-07
-6.94384e-07
3.70361e-07
-9.51714e-07
4.86606e-07
-1.24864e-06
6.17572e-07
-1.56483e-06
7.48928e-07
-1.87463e-06
8.65598e-07
-2.153e-06
9.51982e-07
-2.38007e-06
9.9869e-07
-2.54773e-06
1.0061e-06
-2.66014e-06
9.79031e-07
-2.72912e-06
9.25023e-07
-2.76999e-06
8.53543e-07
-2.7962e-06
7.72765e-07
-2.81747e-06
6.89249e-07
-2.8398e-06
6.07618e-07
-2.86557e-06
5.31278e-07
-2.89516e-06
4.62009e-07
-2.92771e-06
4.00564e-07
-2.96198e-06
3.4695e-07
-2.99676e-06
3.0078e-07
-3.03104e-06
2.61357e-07
-3.06406e-06
2.27794e-07
-3.09536e-06
1.99339e-07
-3.12468e-06
1.75185e-07
-3.15193e-06
1.54574e-07
-3.17704e-06
1.3689e-07
-3.19998e-06
1.21709e-07
-3.2208e-06
1.08514e-07
-3.23964e-06
9.69442e-08
-3.2566e-06
8.67139e-08
-3.27181e-06
7.75446e-08
-3.28537e-06
6.93218e-08
-3.29734e-06
6.17869e-08
-3.30781e-06
5.47384e-08
-3.31684e-06
4.81302e-08
-3.32449e-06
4.19473e-08
-3.33081e-06
3.62291e-08
-3.33584e-06
3.0819e-08
-3.3397e-06
2.58747e-08
-3.34245e-06
2.13839e-08
-3.3442e-06
1.70384e-08
-3.34507e-06
1.29423e-08
-3.34511e-06
9.21264e-09
-3.34437e-06
5.84366e-09
-3.34296e-06
2.75958e-09
-3.34089e-06
-3.33605e-11
-3.33823e-06
-2.47288e-09
-3.33504e-06
-4.77085e-09
-3.33132e-06
-7.04659e-09
-3.32719e-06
-9.00922e-09
-3.32273e-06
-1.09045e-08
-3.31794e-06
-1.26582e-08
-3.31289e-06
-1.42551e-08
-3.30761e-06
-1.57563e-08
-3.30215e-06
-1.73136e-08
-3.29647e-06
-1.90783e-08
-3.29058e-06
-2.00107e-08
-3.28451e-06
-2.06892e-08
-3.27823e-06
-2.1446e-08
-3.27165e-06
-2.19833e-08
-3.26471e-06