/*--------------------------------*- C++ -*----------------------------------*\
  =========                 |
  \\      /  F ield         | OpenFOAM: The Open Source CFD Toolbox
   \\    /   O peration     | Website:  https://openfoam.org
    \\  /    A nd           | Version:  8
     \\/     M anipulation  |
\*---------------------------------------------------------------------------*/
FoamFile
{
    version     2.0;
    format      ascii;
    class       volScalarField;
    location    "4000";
    object      nut;
}
// * * * * * * * * * * * * * * * * * * * * * * * * * * * * * * * * * * * * * //

dimensions      [0 2 -1 0 0 0 0];

internalField   nonuniform List<scalar> 
12225
(
0.0122671
0.00158819
0.000666129
0.000410105
0.000294025
0.00022806
0.000183261
0.000170805
0.000132697
0.000106844
9.46735e-05
8.80085e-05
7.89856e-05
7.2233e-05
6.77318e-05
6.4507e-05
6.12104e-05
6.46338e-05
0.0323823
0.00744532
0.00330638
0.00204329
0.00146801
0.0011445
0.000936338
0.000799975
0.000679511
0.000577234
0.000506286
0.000452432
0.00041054
0.000378806
0.000350182
0.000327767
0.000311172
0.000292817
0.0490123
0.01515
0.00728196
0.00457854
0.00330639
0.00258054
0.00211233
0.00178913
0.00154181
0.00134762
0.00119772
0.0010787
0.000982056
0.000902481
0.000835978
0.000780909
0.000735546
0.00068717
0.063054
0.0237783
0.0122894
0.00788814
0.00573397
0.00448498
0.00367412
0.00310733
0.00268471
0.00235805
0.00210111
0.00189458
0.00172531
0.00158451
0.00146613
0.00136604
0.00128146
0.00119789
0.074932
0.0328517
0.0181452
0.0119262
0.00874548
0.00686412
0.0056308
0.00476254
0.00411748
0.00362029
0.00322731
0.00290992
0.00264899
0.00243143
0.00224799
0.00209188
0.00195826
0.00183626
0.0849536
0.0420208
0.0246655
0.0166359
0.0123325
0.00972587
0.00799539
0.00676785
0.00585345
0.00514769
0.00458844
0.00413587
0.00376334
0.00345239
0.00318983
0.00296596
0.0027736
0.00260471
0.0933822
0.0510219
0.0316642
0.0219415
0.016474
0.0130717
0.0107778
0.00913551
0.0079057
0.0069534
0.0061969
0.00558367
0.00507837
0.00465632
0.00429976
0.00399561
0.00373414
0.00350818
0.0993794
0.0583363
0.0378386
0.0268568
0.0204171
0.0163053
0.0134891
0.011453
0.00991891
0.00872629
0.00777635
0.00700497
0.00636866
0.00583685
0.0053874
0.00500398
0.00467452
0.00439126
0.104023
0.0645454
0.0433804
0.0314239
0.0241571
0.0194092
0.0161097
0.0137018
0.0118766
0.0104521
0.00931443
0.00838904
0.00762485
0.00698574
0.00644544
0.00598449
0.00558858
0.00524877
0.108368
0.0708939
0.0493756
0.0365496
0.0284517
0.0230231
0.0191863
0.0163547
0.0141926
0.0124968
0.011138
0.0100303
0.00911434
0.00834759
0.0076991
0.00714579
0.00667068
0.00626297
0.112368
0.0772557
0.0557282
0.0421918
0.0332976
0.0271652
0.0227467
0.0194432
0.0168984
0.0148903
0.0132749
0.0119544
0.0108605
0.00994379
0.00916796
0.00850586
0.00793736
0.00744915
0.115994
0.0834975
0.0623053
0.0482611
0.0386474
0.0318167
0.026789
0.0229739
0.0200046
0.0176452
0.0157378
0.0141736
0.0128749
0.011785
0.0108618
0.0100736
0.00939671
0.00881464
0.119234
0.0894856
0.0689377
0.0546109
0.0443919
0.0369007
0.0312597
0.0269088
0.0234836
0.02074
0.0185096
0.0166735
0.0151449
0.01386
0.0127704
0.0118396
0.0110397
0.0103508
0.122086
0.095084
0.075415
0.0610223
0.0503361
0.0422534
0.0360231
0.0311353
0.0272402
0.024093
0.021519
0.0193909
0.017614
0.0161174
0.0148466
0.01376
0.0128257
0.0120196
0.124546
0.100135
0.0814619
0.0671725
0.056158
0.047577
0.0408126
0.0354174
0.031066
0.0275196
0.0246012
0.0221777
0.0201481
0.0184349
0.0169782
0.0157314
0.0146583
0.0137311
0.126578
0.104396
0.0866605
0.0725515
0.0613228
0.0523526
0.0451453
0.0393148
0.0345631
0.0306611
0.0274325
0.0247409
0.0224806
0.020569
0.0189413
0.0175468
0.0163454
0.0153061
0.128011
0.107322
0.0902141
0.0762353
0.0648743
0.0556509
0.0481493
0.0420254
0.0370012
0.0328553
0.0294126
0.0265352
0.0241143
0.0220643
0.0203172
0.0188191
0.0175275
0.0164083
0.128006
0.107313
0.0902048
0.0762269
0.0648674
0.0556454
0.048145
0.0420222
0.0369988
0.0328537
0.0294117
0.0265349
0.0241147
0.0220652
0.0203185
0.0188206
0.0175287
0.0164083
0.126509
0.104255
0.0864922
0.0723807
0.0611613
0.052205
0.0450128
0.0391967
0.0344584
0.0305686
0.0273506
0.0246684
0.0224163
0.0205118
0.0188903
0.0175006
0.0163024
0.0152631
0.124267
0.0995604
0.0807712
0.0664676
0.0554886
0.0469631
0.0402594
0.0349228
0.0306248
0.0271258
0.0242488
0.0218611
0.0198626
0.0181762
0.0167426
0.0155152
0.0144575
0.0135405
0.12136
0.0936399
0.0737261
0.0593348
0.0487592
0.0408249
0.0347467
0.0300003
0.0262308
0.0231928
0.0207127
0.018665
0.0169572
0.0155198
0.0142999
0.0132567
0.0123583
0.0115798
0.117686
0.0865903
0.0656967
0.0514791
0.0415374
0.0343608
0.0290184
0.0249322
0.0217348
0.0191848
0.0171184
0.0154211
0.0140106
0.0128263
0.0118229
0.0109657
0.010228
0.00958895
0.11305
0.0784122
0.056921
0.0432687
0.0342296
0.0279652
0.0234365
0.0200435
0.0174263
0.0153597
0.0136966
0.0123369
0.0112106
0.0102671
0.00946866
0.0087872
0.00820103
0.00769347
0.107169
0.0691009
0.0476372
0.035029
0.0271566
0.021922
0.0182437
0.0155401
0.0134817
0.0118706
0.0105816
0.00953197
0.00866487
0.00793966
0.0073267
0.00680379
0.00635415
0.00596495
0.0996761
0.0587036
0.0381279
0.0270699
0.0205782
0.0164329
0.0135949
0.0115438
0.00999922
0.00879908
0.00784341
0.00706755
0.00642791
0.00589357
0.0054423
0.00505733
0.00472648
0.00444011
0.0901097
0.0473665
0.0287363
0.0196847
0.0146976
0.0116312
0.00957853
0.00811528
0.00702331
0.00617994
0.00551057
0.00496792
0.00452115
0.00414809
0.00383337
0.0035644
0.00333375
0.0031339
0.0779076
0.0353826
0.0198606
0.0131383
0.00966107
0.00759298
0.00623352
0.00527429
0.00456399
0.00401882
0.00358698
0.00323605
0.00294731
0.00270564
0.00250269
0.00232746
0.00217867
0.00204917
0.06238
0.0232554
0.0119461
0.00765493
0.00556337
0.00435256
0.00356724
0.00301639
0.00261307
0.00230792
0.00206663
0.00186697
0.00170276
0.00156309
0.00144892
0.0013453
0.00125985
0.00118502
0.0426105
0.0117794
0.0054693
0.00341385
0.00246071
0.00192005
0.00157275
0.00132885
0.00115943
0.00103843
0.000944192
0.000857063
0.000786427
0.000717886
0.000672587
0.000621656
0.000573112
0.00054086
0.0168348
0.00255985
0.00110002
0.000683428
0.000493724
0.000386803
0.000318219
0.000266306
0.000272636
0.000321836
0.000355141
0.000335067
0.000307992
0.000243785
0.000288124
0.000270219
0.000194303
0.000217891
3.99367e-09
5.9112e-07
2.00076e-06
6.28901e-06
1.0802e-05
1.35312e-05
1.32564e-05
1.17916e-05
9.06373e-06
5.94786e-06
3.52398e-06
2.025e-06
1.40997e-06
1.50299e-06
2.06715e-06
2.56608e-06
2.45451e-06
2.06916e-06
2.54271e-06
8.6765e-06
9.02516e-06
5.55411e-06
6.75121e-06
2.65099e-05
5.67516e-05
7.44246e-05
9.09784e-05
0.000104827
0.000117047
0.000127208
0.000136112
0.000143759
0.000150449
0.000156276
0.000161358
0.000165844
0.000169819
0.000173369
0.000176551
0.00017941
0.000181975
0.000184268
0.000186308
0.000188111
0.000189692
0.000191063
0.000192235
0.000193215
0.000194004
0.000194476
0.000194974
0.000195083
0.000195144
0.000195019
0.000194721
0.000194275
0.000193676
0.000192929
0.000192035
0.000190997
0.000189816
0.000188494
0.000187034
0.000185439
0.00018371
0.000181851
0.000179861
0.000177743
0.000175501
0.000173136
0.00017065
0.000168045
0.000165324
0.000162487
0.000159535
0.000156468
0.000153287
0.000149989
0.000146572
0.000143034
0.000139379
0.000135612
0.000131743
0.000127773
0.000123677
0.000119401
0.000114896
0.000110176
0.00010532
0.000100347
9.51058e-05
8.94736e-05
8.35809e-05
7.75586e-05
7.15365e-05
6.62467e-05
6.24944e-05
6.01484e-05
5.83976e-05
5.67909e-05
5.5215e-05
5.36465e-05
5.20844e-05
5.053e-05
4.89853e-05
4.74524e-05
4.59339e-05
4.44359e-05
4.29867e-05
4.17497e-05
4.05456e-05
3.93558e-05
3.81833e-05
3.70287e-05
3.58928e-05
3.47766e-05
3.36806e-05
3.26058e-05
3.15526e-05
3.05216e-05
2.9513e-05
2.85275e-05
2.75655e-05
2.66275e-05
2.57135e-05
2.48235e-05
2.39585e-05
2.31464e-05
2.24121e-05
2.16965e-05
2.09958e-05
2.03184e-05
1.96691e-05
1.90341e-05
1.8413e-05
1.78091e-05
1.72232e-05
1.66555e-05
1.61058e-05
1.55738e-05
1.50591e-05
1.45611e-05
1.40796e-05
1.3614e-05
1.3164e-05
1.27291e-05
1.23091e-05
1.19033e-05
1.15116e-05
1.11335e-05
1.07687e-05
1.04167e-05
1.00773e-05
9.75015e-06
9.43491e-06
9.13131e-06
8.83906e-06
8.55793e-06
8.28767e-06
8.02809e-06
7.77899e-06
7.54019e-06
7.31152e-06
7.0928e-06
6.88382e-06
6.68433e-06
6.494e-06
6.31241e-06
6.13902e-06
5.97306e-06
5.81375e-06
5.65948e-06
5.50984e-06
5.35985e-06
5.21409e-06
5.04806e-06
4.89407e-06
4.64769e-06
4.4895e-06
3.59443e-06
1.68167e-07
6.1422e-06
6.3881e-05
0.000139683
0.000183238
0.000207003
0.000216377
0.000214884
0.000206539
0.000189836
0.000169044
0.00014891
0.000138497
0.000143712
0.000157681
0.000166604
0.000169022
0.000170205
0.000175608
0.00018531
0.000200065
0.000217504
0.000234338
0.000250841
0.000262142
0.000272045
0.000280861
0.000293706
0.000312803
0.000326749
0.000339493
0.000350417
0.000360347
0.000369445
0.000377346
0.000384559
0.000391273
0.000397715
0.000404015
0.000410238
0.00041638
0.000422398
0.000428241
0.000433865
0.000439244
0.000444361
0.000449201
0.000453752
0.000458014
0.000461988
0.000465713
0.000469155
0.000472352
0.000475294
0.000477985
0.000480427
0.00048262
0.000484565
0.000486263
0.000487714
0.000488918
0.000489876
0.000490592
0.000491069
0.000491317
0.000491342
0.000491138
0.000490701
0.000490048
0.000489183
0.00048811
0.000486838
0.000485373
0.00048372
0.000481889
0.000479885
0.000477716
0.000475388
0.00047291
0.000470288
0.00046753
0.000464646
0.000461649
0.00045855
0.000455359
0.000452073
0.000448683
0.000445192
0.000441631
0.000438045
0.00043443
0.000430729
0.000426946
0.000423143
0.00041927
0.000415268
0.000411165
0.000406963
0.000402722
0.000398466
0.000394201
0.000389931
0.000385661
0.000381394
0.000377132
0.00037288
0.000368641
0.000364415
0.000360205
0.000356006
0.00035183
0.000347682
0.000343563
0.000339475
0.00033542
0.0003314
0.000327416
0.000323469
0.000319561
0.000315694
0.000311867
0.000308081
0.000304339
0.000300641
0.000296988
0.00029338
0.000289815
0.000286294
0.000282815
0.000279381
0.000275989
0.00027265
0.000269363
0.000266113
0.000262898
0.000259725
0.000256596
0.000253512
0.000250472
0.000247478
0.000244528
0.000241621
0.000238758
0.000235936
0.000233157
0.000230418
0.000227721
0.000225064
0.000222446
0.000219868
0.000217329
0.000214829
0.000212368
0.000209945
0.00020756
0.000205215
0.000202909
0.000200643
0.000198417
0.000196233
0.000194093
0.000191997
0.000189947
0.000187946
0.000185995
0.000184096
0.000182249
0.000180455
0.000178713
0.000177022
0.000175376
0.000173777
0.000172199
0.000170685
0.000169074
0.000167752
0.00016562
0.000164904
0.000162097
0.000160723
7.68576e-07
4.45405e-05
0.000164287
0.000246521
0.000299855
0.000330177
0.000341216
0.000338347
0.000325515
0.000306241
0.000286467
0.000273745
0.000271486
0.000278166
0.000288522
0.000299352
0.000312115
0.000329069
0.000350669
0.000375831
0.000403221
0.000431577
0.000469791
0.000516179
0.000561834
0.000605991
0.000649094
0.000692768
0.000732109
0.0007634
0.000788409
0.000808235
0.00082395
0.000836419
0.000846424
0.000854741
0.00086207
0.000869057
0.000876237
0.000883968
0.000892357
0.00090128
0.000910498
0.000919774
0.000928932
0.000937851
0.000946455
0.000954697
0.000962539
0.000969954
0.00097692
0.000983406
0.00098941
0.000994926
0.00099995
0.00100448
0.00100852
0.00101207
0.00101513
0.00101769
0.00101976
0.00102134
0.00102242
0.00102296
0.00102312
0.00102284
0.00102204
0.0010208
0.00101911
0.00101699
0.00101446
0.00101151
0.00100818
0.00100446
0.00100038
0.000995949
0.000991182
0.000986095
0.000980701
0.000975016
0.000969054
0.000962832
0.000956365
0.00094967
0.000942762
0.000935655
0.000928361
0.000920889
0.000913256
0.000905485
0.000897591
0.000889572
0.00088143
0.00087319
0.00086486
0.000856437
0.000847944
0.000839393
0.000830801
0.000822181
0.000813544
0.000804899
0.000796253
0.000787615
0.000778992
0.00077039
0.000761816
0.000753276
0.000744776
0.000736321
0.000727916
0.000719568
0.000711281
0.000703058
0.000694904
0.000686822
0.000678814
0.000670884
0.000663035
0.000655269
0.000647587
0.000639992
0.000632485
0.000625068
0.000617744
0.000610511
0.000603371
0.000596323
0.000589369
0.00058251
0.000575744
0.000569075
0.000562498
0.000556009
0.000549606
0.000543292
0.000537069
0.000530938
0.000524898
0.000518949
0.00051309
0.00050732
0.000501639
0.000496044
0.000490535
0.000485112
0.000479771
0.000474514
0.000469337
0.000464241
0.000459224
0.000454285
0.000449423
0.000444637
0.000439925
0.000435287
0.000430721
0.000426227
0.000421803
0.000417447
0.000413159
0.000408937
0.000404779
0.000400682
0.000396645
0.000392664
0.000388734
0.000384851
0.000381008
0.000377195
0.000373402
0.000369614
0.000365806
0.000361959
0.000358
0.000353959
0.000349477
0.000345084
0.000338594
0.000327135
5.0706e-07
8.12884e-05
0.00021297
0.000309203
0.000372987
0.000410399
0.000425974
0.000426364
0.000416353
0.00040295
0.000394794
0.000393958
0.000403185
0.000420397
0.000443152
0.000470907
0.00050426
0.000543571
0.000588028
0.000650264
0.000724129
0.000803921
0.000888184
0.000958846
0.00102128
0.0010774
0.00112782
0.00117272
0.00121199
0.00124587
0.00127512
0.00130045
0.00132257
0.00134211
0.00135965
0.00137567
0.0013906
0.00140476
0.00141842
0.00143178
0.00144494
0.00145799
0.00147095
0.00148381
0.0014965
0.00150896
0.0015211
0.0015328
0.00154399
0.00155459
0.00156454
0.00157382
0.00158239
0.00159025
0.00159739
0.0016038
0.00160947
0.00161441
0.00161861
0.00162207
0.00162479
0.00162677
0.00162793
0.00162837
0.00162824
0.00162733
0.0016257
0.00162338
0.00162038
0.00161673
0.00161243
0.00160751
0.00160199
0.00159589
0.00158923
0.00158204
0.00157433
0.00156614
0.00155747
0.00154836
0.00153883
0.0015289
0.0015186
0.00150794
0.00149696
0.00148567
0.0014741
0.00146226
0.00145018
0.00143788
0.00142538
0.0014127
0.00139985
0.00138685
0.00137372
0.00136047
0.00134712
0.00133369
0.0013202
0.00130666
0.0012931
0.00127953
0.00126596
0.0012524
0.00123886
0.00122536
0.0012119
0.0011985
0.00118516
0.00117189
0.0011587
0.0011456
0.00113259
0.00111969
0.00110689
0.0010942
0.00108163
0.00106918
0.00105685
0.00104465
0.00103259
0.00102066
0.00100886
0.000997209
0.000985696
0.000974325
0.000963098
0.000952016
0.000941079
0.000930288
0.000919643
0.000909145
0.000898789
0.000888573
0.000878496
0.000868558
0.00085876
0.000849104
0.000839588
0.000830213
0.000820977
0.000811879
0.000802916
0.000794089
0.000785394
0.00077683
0.000768396
0.000760089
0.000751908
0.000743851
0.000735916
0.000728102
0.000720406
0.000712827
0.000705363
0.000698012
0.000690772
0.000683641
0.000676617
0.000669698
0.000662882
0.000656166
0.000649546
0.00064302
0.000636584
0.000630232
0.000623958
0.000617755
0.000611613
0.00060552
0.000599459
0.00059341
0.000587342
0.000581219
0.000574976
0.000568557
0.00056178
0.000554589
0.000546346
0.000530156
1.49339e-06
0.000102058
0.000235122
0.000355058
0.000433975
0.000481483
0.000505121
0.000513591
0.000515166
0.000516153
0.000523033
0.000539196
0.000565253
0.00060024
0.000643367
0.000694651
0.000754736
0.000838156
0.000933829
0.00103005
0.00111906
0.00120345
0.0012828
0.0013555
0.00142226
0.00148368
0.00154014
0.001592
0.0016396
0.00168337
0.0017238
0.00176136
0.0017965
0.00182958
0.00186091
0.00189076
0.0019193
0.00194669
0.00197301
0.00199834
0.0020227
0.00204611
0.00206856
0.00209002
0.00211049
0.00212992
0.00214829
0.00216557
0.00218172
0.00219674
0.00221062
0.00222334
0.00223494
0.00224541
0.00225478
0.00226306
0.00227028
0.00227644
0.00228157
0.00228568
0.00228877
0.00229082
0.00229174
0.00229183
0.00229095
0.00228907
0.00228624
0.00228247
0.00227778
0.0022722
0.00226575
0.00225847
0.00225037
0.00224149
0.00223186
0.00222151
0.00221046
0.00219876
0.00218643
0.0021735
0.00216
0.00214597
0.00213144
0.00211643
0.00210097
0.00208511
0.00206887
0.00205227
0.00203535
0.00201813
0.00200065
0.00198292
0.00196498
0.00194684
0.00192853
0.00191008
0.0018915
0.00187282
0.00185406
0.00183525
0.00181641
0.00179755
0.00177869
0.00175985
0.00174105
0.0017223
0.00170361
0.001685
0.00166648
0.00164805
0.00162974
0.00161155
0.00159349
0.00157557
0.0015578
0.00154018
0.00152272
0.00150543
0.00148831
0.00147137
0.0014546
0.00143802
0.00142163
0.00140543
0.00138943
0.00137362
0.001358
0.00134258
0.00132737
0.00131235
0.00129753
0.00128291
0.00126848
0.00125425
0.00124021
0.00122637
0.00121271
0.00119925
0.00118598
0.0011729
0.00116001
0.00114731
0.0011348
0.00112246
0.00111031
0.00109833
0.00108654
0.00107491
0.00106346
0.00105217
0.00104105
0.0010301
0.0010193
0.00100866
0.000998183
0.000987855
0.000977677
0.000967647
0.000957761
0.000948017
0.000938411
0.000928941
0.000919601
0.000910388
0.000901296
0.00089232
0.000883451
0.000874681
0.000865997
0.000857386
0.000848828
0.000840297
0.000831761
0.000823175
0.000814472
0.000805582
0.000796338
0.000786594
0.000776626
0.000756806
2.27163e-06
0.000118201
0.000256367
0.000390151
0.000487239
0.000549158
0.000587022
0.000610487
0.000628246
0.000647571
0.000673715
0.000709328
0.000755145
0.000811441
0.000878618
0.000969122
0.00107426
0.00117598
0.0012752
0.0013707
0.0014614
0.0015474
0.00162865
0.0017051
0.00177707
0.00184489
0.0019089
0.00196945
0.00202687
0.00208148
0.0021336
0.00218353
0.00223151
0.00227775
0.00232242
0.00236564
0.00240749
0.00244802
0.00248728
0.00252527
0.00256198
0.0025974
0.00263149
0.00266422
0.00269556
0.00272547
0.00275389
0.0027808
0.00280616
0.00282993
0.00285209
0.00287261
0.00289147
0.00290868
0.00292421
0.00293808
0.00295028
0.00296082
0.00296971
0.00297698
0.00298263
0.00298672
0.00298914
0.00299004
0.00298958
0.00298761
0.00298427
0.00297956
0.00297356
0.00296631
0.00295786
0.00294827
0.00293758
0.00292586
0.00291314
0.00289947
0.00288491
0.00286949
0.00285327
0.00283628
0.00281857
0.00280017
0.00278114
0.00276151
0.00274132
0.00272061
0.00269942
0.0026778
0.00265576
0.00263336
0.00261063
0.0025876
0.00256431
0.00254078
0.00251704
0.00249313
0.00246908
0.00244491
0.00242064
0.00239632
0.00237196
0.00234758
0.00232322
0.00229888
0.0022746
0.00225038
0.00222625
0.00220222
0.0021783
0.00215452
0.00213088
0.0021074
0.00208409
0.00206095
0.00203801
0.00201526
0.00199271
0.00197039
0.00194828
0.00192639
0.00190474
0.00188332
0.00186214
0.00184121
0.00182052
0.00180008
0.00177989
0.00175995
0.00174026
0.00172082
0.00170164
0.00168271
0.00166403
0.0016456
0.00162741
0.00160947
0.00159177
0.00157432
0.0015571
0.00154013
0.0015234
0.00150691
0.00149064
0.00147461
0.00145881
0.00144323
0.00142788
0.00141274
0.00139782
0.00138311
0.00136861
0.00135432
0.00134023
0.00132633
0.00131264
0.00129913
0.00128581
0.00127268
0.00125974
0.00124697
0.00123437
0.00122194
0.00120968
0.00119758
0.00118563
0.00117383
0.00116217
0.00115064
0.00113922
0.0011279
0.00111666
0.00110548
0.0010943
0.0010831
0.00107179
0.00106031
0.0010485
0.00103628
0.0010241
0.00100162
2.80548e-06
0.00012682
0.000269278
0.000407725
0.0005265
0.000608036
0.000664241
0.000706251
0.000743309
0.000782682
0.000829425
0.000886488
0.000955496
0.00104783
0.00115483
0.00126143
0.00136754
0.00147091
0.00157099
0.00166734
0.00175974
0.00184818
0.00193274
0.0020136
0.00209099
0.00216519
0.00223647
0.0023051
0.00237133
0.00243541
0.00249753
0.00255789
0.00261662
0.00267385
0.00272966
0.00278411
0.00283722
0.00288902
0.0029395
0.00298864
0.00303641
0.00308277
0.00312768
0.00317109
0.00321294
0.0032532
0.00329179
0.00332867
0.0033638
0.00339711
0.00342858
0.00345816
0.00348581
0.00351152
0.00353524
0.00355696
0.00357667
0.00359435
0.00361001
0.00362363
0.00363523
0.00364481
0.00365239
0.00365801
0.00366166
0.00366328
0.00366319
0.0036612
0.00365743
0.00365191
0.0036447
0.00363586
0.00362545
0.00361351
0.00360013
0.00358536
0.00356928
0.00355193
0.0035334
0.00351375
0.00349305
0.00347137
0.00344876
0.0034253
0.00340105
0.00337607
0.00335043
0.00332418
0.00329737
0.00327006
0.00324231
0.00321416
0.00318565
0.00315683
0.00312775
0.00309844
0.00306894
0.00303929
0.00300953
0.00297968
0.00294978
0.00291985
0.00288994
0.00286006
0.00283023
0.00280049
0.00277085
0.00274133
0.00271195
0.00268273
0.00265368
0.00262483
0.00259617
0.00256774
0.00253953
0.00251156
0.00248384
0.00245638
0.00242918
0.00240226
0.00237562
0.00234926
0.00232318
0.00229741
0.00227192
0.00224674
0.00222186
0.00219728
0.00217301
0.00214904
0.00212537
0.00210201
0.00207895
0.00205619
0.00203372
0.00201155
0.00198968
0.0019681
0.00194681
0.00192581
0.00190509
0.00188466
0.00186451
0.00184464
0.00182504
0.00180572
0.00178666
0.00176786
0.00174932
0.00173104
0.001713
0.00169522
0.00167767
0.00166037
0.0016433
0.00162646
0.00160985
0.00159347
0.0015773
0.00156135
0.00154561
0.00153007
0.00151473
0.00149959
0.00148464
0.00146986
0.00145526
0.00144081
0.00142652
0.00141235
0.00139828
0.0013843
0.00137035
0.0013564
0.00134238
0.00132821
0.00131373
0.00129897
0.00128396
0.00125971
2.94238e-06
0.000128734
0.000270667
0.000407305
0.000538106
0.000641776
0.00071904
0.000780493
0.000836298
0.000894155
0.000961761
0.00105373
0.00116336
0.0012851
0.00140068
0.00151195
0.00161979
0.00172436
0.00182562
0.00192349
0.00201799
0.00210919
0.00219725
0.00228235
0.0023647
0.00244453
0.00252207
0.00259753
0.00267109
0.00274293
0.0028132
0.002882
0.00294943
0.00301555
0.00308042
0.00314403
0.0032064
0.00326752
0.00332734
0.00338584
0.00344296
0.00349865
0.00355286
0.00360551
0.00365654
0.00370589
0.00375349
0.00379928
0.00384321
0.0038852
0.0039252
0.00396317
0.00399905
0.00403281
0.0040644
0.0040938
0.00412098
0.00414591
0.00416858
0.00418898
0.00420711
0.00422296
0.00423654
0.00424787
0.00425696
0.00426383
0.00426855
0.004271
0.00427144
0.00426979
0.00426612
0.00426048
0.00425291
0.00424348
0.00423225
0.00421928
0.00420463
0.00418837
0.00417058
0.00415131
0.00413065
0.00410865
0.00408541
0.00406098
0.00403544
0.00400886
0.00398132
0.00395288
0.0039236
0.00389357
0.00386284
0.00383148
0.00379955
0.00376711
0.00373421
0.00370091
0.00366727
0.00363333
0.00359915
0.00356477
0.00353025
0.00349561
0.00346091
0.00342617
0.00339143
0.00335673
0.0033221
0.00328756
0.00325315
0.00321887
0.00318477
0.00315086
0.00311715
0.00308367
0.00305043
0.00301745
0.00298474
0.00295231
0.00292017
0.00288834
0.00285682
0.00282562
0.00279474
0.00276419
0.00273398
0.00270411
0.00267458
0.00264539
0.00261655
0.00258806
0.00255992
0.00253213
0.00250468
0.00247757
0.00245081
0.00242439
0.00239831
0.00237257
0.00234716
0.00232209
0.00229735
0.00227294
0.00224885
0.00222508
0.00220163
0.00217849
0.00215566
0.00213314
0.00211091
0.00208898
0.00206735
0.002046
0.00202493
0.00200414
0.00198363
0.00196339
0.00194341
0.00192369
0.00190423
0.00188502
0.00186606
0.00184734
0.00182885
0.0018106
0.00179256
0.00177474
0.00175712
0.0017397
0.00172245
0.00170536
0.00168841
0.00167156
0.00165478
0.00163802
0.00162121
0.00160428
0.00158708
0.00156968
0.00155174
0.0015256
2.75934e-06
0.000125268
0.000264042
0.000395767
0.000520539
0.000633072
0.000727059
0.000808266
0.000891329
0.000986678
0.00109593
0.00122063
0.00135704
0.00148456
0.00160487
0.00171989
0.00183061
0.00193738
0.00204053
0.00214041
0.00223724
0.00233121
0.00242253
0.00251139
0.00259801
0.00268259
0.00276532
0.00284637
0.00292589
0.00300402
0.00308086
0.00315649
0.00323096
0.00330432
0.00337656
0.0034477
0.0035177
0.00358652
0.00365413
0.00372045
0.00378544
0.00384901
0.0039111
0.00397162
0.0040305
0.00408766
0.00414302
0.00419651
0.00424806
0.00429759
0.00434505
0.00439036
0.00443348
0.00447436
0.00451294
0.00454918
0.00458306
0.00461454
0.0046436
0.00467023
0.00469441
0.00471614
0.00473541
0.00475225
0.00476665
0.00477864
0.00478824
0.00479548
0.00480041
0.00480298
0.00480336
0.00480155
0.00479759
0.00479152
0.00478342
0.00477334
0.00476134
0.00474748
0.00473184
0.00471448
0.00469548
0.00467489
0.0046528
0.00462927
0.00460439
0.00457822
0.00455083
0.0045223
0.00449271
0.00446211
0.00443059
0.0043982
0.00436502
0.00433112
0.00429655
0.00426138
0.00422567
0.00418948
0.00415287
0.0041159
0.00407861
0.00404106
0.00400331
0.00396539
0.00392734
0.00388922
0.00385106
0.00381289
0.00377476
0.0037367
0.00369873
0.00366088
0.00362319
0.00358568
0.00354836
0.00351126
0.00347441
0.00343781
0.00340148
0.00336545
0.00332971
0.00329429
0.00325919
0.00322443
0.00319001
0.00315594
0.00312222
0.00308886
0.00305586
0.00302324
0.00299098
0.00295909
0.00292757
0.00289643
0.00286566
0.00283525
0.00280522
0.00277555
0.00274625
0.00271732
0.00268875
0.00266054
0.00263269
0.00260519
0.00257804
0.00255124
0.00252479
0.00249867
0.00247289
0.00244744
0.00242231
0.00239751
0.00237303
0.00234885
0.00232499
0.00230143
0.00227817
0.00225521
0.00223253
0.00221014
0.00218804
0.0021662
0.00214464
0.00212333
0.00210228
0.00208148
0.00206091
0.00204056
0.00202042
0.00200047
0.00198068
0.00196102
0.00194145
0.00192193
0.00190237
0.00188272
0.00186283
0.00184277
0.00182202
0.00179369
2.34431e-06
0.000117988
0.000252846
0.000380972
0.000503944
0.000620479
0.000731373
0.000840487
0.000955419
0.00108132
0.00121945
0.00136923
0.00151154
0.00164354
0.0017678
0.00188624
0.00199996
0.00210961
0.00221558
0.00231806
0.00241747
0.00251418
0.00260848
0.00270064
0.00279089
0.00287941
0.0029664
0.00305202
0.0031364
0.00321964
0.00330183
0.00338303
0.00346327
0.00354256
0.00362091
0.00369827
0.00377462
0.0038499
0.00392404
0.00399698
0.00406862
0.00413889
0.0042077
0.00427495
0.00434056
0.00440444
0.00446649
0.00452663
0.00458478
0.00464086
0.0046948
0.00474651
0.00479595
0.00484305
0.00488776
0.00493002
0.00496981
0.00500709
0.00504182
0.00507399
0.00510359
0.00513059
0.00515501
0.00517685
0.00519611
0.00521282
0.00522699
0.00523864
0.00524781
0.00525453
0.00525885
0.00526079
0.00526045
0.00525784
0.00525302
0.00524606
0.00523701
0.00522593
0.00521289
0.00519795
0.00518119
0.00516267
0.00514246
0.00512064
0.00509729
0.00507246
0.00504623
0.00501869
0.00498989
0.00495991
0.00492883
0.00489671
0.00486361
0.00482961
0.00479478
0.00475918
0.00472287
0.00468591
0.00464838
0.00461032
0.0045718
0.00453287
0.00449359
0.004454
0.00441416
0.00437412
0.00433391
0.00429358
0.00425317
0.00421273
0.00417228
0.00413186
0.00409151
0.00405125
0.00401111
0.00397112
0.00393131
0.0038917
0.0038523
0.00381314
0.00377424
0.00373561
0.00369727
0.00365924
0.00362151
0.00358411
0.00354704
0.00351032
0.00347395
0.00343794
0.00340228
0.003367
0.00333208
0.00329754
0.00326337
0.00322958
0.00319616
0.00316312
0.00313046
0.00309817
0.00306626
0.00303473
0.00300357
0.00297278
0.00294236
0.00291231
0.00288261
0.00285328
0.00282431
0.00279569
0.00276742
0.00273949
0.0027119
0.00268465
0.00265774
0.00263115
0.00260489
0.00257895
0.00255332
0.00252801
0.002503
0.00247829
0.00245388
0.00242976
0.00240592
0.00238235
0.00235904
0.00233597
0.00231314
0.00229053
0.00226809
0.00224581
0.00222364
0.00220154
0.00217942
0.00215722
0.00213482
0.00211224
0.00208894
0.00205828
1.92683e-06
0.000110307
0.000242562
0.000369906
0.000495647
0.000620079
0.000745007
0.000874501
0.00101187
0.0011592
0.00131664
0.00147844
0.00162625
0.00176271
0.00189082
0.00201258
0.00212928
0.00224172
0.00235046
0.00245587
0.00255826
0.00265782
0.002755
0.00285013
0.00294352
0.00303539
0.00312595
0.00321536
0.00330374
0.0033912
0.00347782
0.00356363
0.00364866
0.00373291
0.00381635
0.00389896
0.00398066
0.0040614
0.0041411
0.00421966
0.00429699
0.00437301
0.00444759
0.00452065
0.00459207
0.00466176
0.00472961
0.00479554
0.00485944
0.00492123
0.00498082
0.00503815
0.00509312
0.00514569
0.00519579
0.00524337
0.00528839
0.0053308
0.00537058
0.00540769
0.00544213
0.00547388
0.00550293
0.00552929
0.00555296
0.00557397
0.00559232
0.00560804
0.00562116
0.00563172
0.00563975
0.00564529
0.0056484
0.00564912
0.00564752
0.00564364
0.00563755
0.0056293
0.00561896
0.0056066
0.00559227
0.00557606
0.00555803
0.00553825
0.00551679
0.00549373
0.00546914
0.00544309
0.00541565
0.0053869
0.00535691
0.00532573
0.00529345
0.00526014
0.00522585
0.00519066
0.00515463
0.00511782
0.0050803
0.00504213
0.00500337
0.00496407
0.0049243
0.00488411
0.00484354
0.00480265
0.00476148
0.00472009
0.00467852
0.0046368
0.00459498
0.00455309
0.00451118
0.00446927
0.0044274
0.0043856
0.0043439
0.00430233
0.0042609
0.00421965
0.00417859
0.00413775
0.00409714
0.00405679
0.0040167
0.00397689
0.00393738
0.00389818
0.00385929
0.00382073
0.0037825
0.00374462
0.00370708
0.0036699
0.00363308
0.00359662
0.00356052
0.00352479
0.00348943
0.00345444
0.00341982
0.00338558
0.0033517
0.0033182
0.00328507
0.00325231
0.00321992
0.0031879
0.00315623
0.00312493
0.00309399
0.0030634
0.00303316
0.00300327
0.00297373
0.00294453
0.00291567
0.00288715
0.00285895
0.00283109
0.00280354
0.00277632
0.00274941
0.0027228
0.0026965
0.00267048
0.00264475
0.00261928
0.00259407
0.00256908
0.0025443
0.00251969
0.00249521
0.00247081
0.00244642
0.00242197
0.00239734
0.00237254
0.00234703
0.00231422
1.54345e-06
0.000102166
0.000232071
0.000359052
0.000487718
0.000618987
0.00075552
0.000899234
0.00105186
0.00121392
0.00138595
0.00155193
0.00170372
0.00184404
0.00197565
0.00210053
0.00222004
0.00233509
0.00244636
0.00255434
0.00265942
0.0027619
0.00286204
0.00296005
0.00305633
0.00315119
0.00324486
0.00333752
0.00342933
0.00352038
0.00361075
0.00370047
0.00378957
0.00387804
0.00396583
0.00405291
0.0041392
0.00422462
0.00430909
0.0043925
0.00447475
0.00455572
0.00463531
0.0047134
0.00478987
0.00486461
0.00493752
0.00500849
0.00507742
0.00514421
0.00520877
0.00527101
0.00533087
0.00538826
0.00544313
0.00549542
0.00554507
0.00559206
0.00563633
0.00567788
0.00571666
0.00575268
0.00578592
0.00581638
0.00584407
0.00586901
0.0058912
0.00591068
0.00592747
0.00594161
0.00595312
0.00596206
0.00596847
0.00597239
0.00597388
0.00597301
0.00596984
0.00596441
0.00595679
0.00594704
0.00593523
0.00592143
0.00590571
0.00588813
0.00586878
0.00584772
0.00582502
0.00580077
0.00577502
0.00574785
0.00571933
0.00568952
0.00565851
0.00562635
0.00559311
0.00555886
0.00552367
0.00548759
0.0054507
0.00541305
0.00537471
0.00533573
0.00529617
0.00525609
0.00521553
0.00517455
0.0051332
0.00509153
0.00504958
0.0050074
0.00496502
0.00492249
0.00487985
0.00483713
0.00479437
0.0047516
0.00470885
0.00466616
0.00462354
0.00458104
0.00453866
0.00449643
0.00445438
0.00441252
0.00437088
0.00432947
0.0042883
0.0042474
0.00420677
0.00416642
0.00412637