/*--------------------------------*- C++ -*----------------------------------*\
| =========                 |                                                 |
| \\      /  F ield         | OpenFOAM: The Open Source CFD Toolbox           |
|  \\    /   O peration     | Version:  v2012                                 |
|   \\  /    A nd           | Website:  www.openfoam.com                      |
|    \\/     M anipulation  |                                                 |
\*---------------------------------------------------------------------------*/
FoamFile
{
    version     2.0;
    format      ascii;
    class       volScalarField;
    location    "4000";
    object      nuTilda;
}
// * * * * * * * * * * * * * * * * * * * * * * * * * * * * * * * * * * * * * //

dimensions      [0 2 -1 0 0 0 0];


internalField   nonuniform List<scalar> 
12225
(
0.0122671
0.00158833
0.000666932
0.0004122
0.000298016
0.000234158
0.000195366
0.000157552
0.000177039
0.00022266
0.000230375
0.000221269
0.000203464
0.000178138
0.000172634
0.000158595
0.000147191
0.000136925
0.0323823
0.00744532
0.00330641
0.00204337
0.00146819
0.00114457
0.000939065
0.000785441
0.000691113
0.000627785
0.000570639
0.000520035
0.000476785
0.000437433
0.000407127
0.000374785
0.000350017
0.000324476
0.0490123
0.01515
0.00728196
0.00457856
0.00330642
0.00258052
0.00211335
0.00178198
0.00154688
0.00137268
0.0012317
0.00111558
0.0010187
0.000936516
0.000867174
0.00080485
0.000754195
0.000701737
0.063054
0.0237783
0.0122894
0.00788815
0.00573398
0.00448498
0.00367443
0.00310422
0.0026872
0.00237001
0.00211798
0.00191325
0.00174413
0.00160236
0.00148259
0.0013788
0.00129129
0.00120478
0.074932
0.0328517
0.0181452
0.0119262
0.00874549
0.00686413
0.00563087
0.0047613
0.00411869
0.00362573
0.00323518
0.00291879
0.00265805
0.00244011
0.00225604
0.00209841
0.00196344
0.00183991
0.0849536
0.0420208
0.0246655
0.0166359
0.0123325
0.00972587
0.0079954
0.0067674
0.00585403
0.00515005
0.00459192
0.00413985
0.00376745
0.00345638
0.00319356
0.00296911
0.00277617
0.00260663
0.0933822
0.0510219
0.0316642
0.0219415
0.016474
0.0130717
0.0107779
0.00913539
0.00790598
0.00695437
0.00619833
0.00558533
0.00508011
0.00465803
0.00430139
0.00399705
0.00373537
0.00350917
0.0993794
0.0583363
0.0378386
0.0268568
0.0204171
0.0163053
0.0134892
0.011453
0.00991905
0.00872671
0.00777697
0.0070057
0.00636944
0.00583763
0.00538817
0.0050047
0.00467518
0.00439184
0.104023
0.0645454
0.0433804
0.0314239
0.0241571
0.0194092
0.0161097
0.0137018
0.0118767
0.0104523
0.00931473
0.0083894
0.00762525
0.00698616
0.00644587
0.00598492
0.005589
0.00524918
0.108368
0.0708939
0.0493757
0.0365496
0.0284517
0.0230231
0.0191863
0.0163548
0.0141927
0.0124969
0.0111382
0.0100306
0.00911457
0.00834785
0.00769937
0.00714608
0.00667099
0.00626329
0.112368
0.0772557
0.0557282
0.0421918
0.0332976
0.0271652
0.0227468
0.0194433
0.0168984
0.0148904
0.013275
0.0119546
0.0108607
0.00994397
0.00916816
0.00850608
0.0079376
0.00744941
0.115994
0.0834975
0.0623054
0.0482611
0.0386474
0.0318167
0.026789
0.0229739
0.0200047
0.0176453
0.0157379
0.0141737
0.012875
0.0117851
0.010862
0.0100738
0.0093969
0.00881485
0.119234
0.0894856
0.0689377
0.0546109
0.0443919
0.0369007
0.0312597
0.0269089
0.0234837
0.02074
0.0185097
0.0166735
0.015145
0.0138601
0.0127706
0.0118397
0.0110399
0.010351
0.122086
0.095084
0.075415
0.0610223
0.0503361
0.0422535
0.0360231
0.0311353
0.0272402
0.0240931
0.0215191
0.0193909
0.0176141
0.0161175
0.0148467
0.0137601
0.0128258
0.0120198
0.124546
0.100135
0.0814619
0.0671726
0.056158
0.047577
0.0408126
0.0354174
0.031066
0.0275197
0.0246013
0.0221778
0.0201482
0.018435
0.0169783
0.0157315
0.0146584
0.0137312
0.126578
0.104396
0.0866605
0.0725515
0.0613228
0.0523526
0.0451453
0.0393148
0.0345631
0.0306611
0.0274325
0.024741
0.0224806
0.020569
0.0189413
0.0175468
0.0163455
0.0153062
0.128011
0.107322
0.0902141
0.0762353
0.0648743
0.0556509
0.0481493
0.0420254
0.0370012
0.0328553
0.0294126
0.0265352
0.0241143
0.0220643
0.0203171
0.0188191
0.0175275
0.0164083
0.128006
0.107313
0.0902048
0.0762269
0.0648674
0.0556454
0.048145
0.0420221
0.0369988
0.0328537
0.0294117
0.0265349
0.0241147
0.0220651
0.0203184
0.0188205
0.0175286
0.0164082
0.126509
0.104255
0.0864922
0.0723807
0.0611613
0.052205
0.0450128
0.0391967
0.0344584
0.0305685
0.0273506
0.0246684
0.0224163
0.0205118
0.0188902
0.0175006
0.0163023
0.015263
0.124267
0.0995604
0.0807712
0.0664676
0.0554886
0.0469631
0.0402594
0.0349228
0.0306248
0.0271258
0.0242487
0.0218611
0.0198625
0.0181762
0.0167425
0.0155151
0.0144574
0.0135404
0.12136
0.0936399
0.0737261
0.0593348
0.0487592
0.0408248
0.0347467
0.0300003
0.0262308
0.0231928
0.0207127
0.018665
0.0169572
0.0155197
0.0142998
0.0132566
0.0123582
0.0115797
0.117686
0.0865903
0.0656967
0.0514791
0.0415374
0.0343608
0.0290183
0.0249322
0.0217348
0.0191848
0.0171184
0.0154211
0.0140105
0.0128263
0.0118228
0.0109656
0.0102279
0.00958885
0.11305
0.0784122
0.056921
0.0432687
0.0342296
0.0279652
0.0234365
0.0200435
0.0174263
0.0153598
0.0136967
0.012337
0.0112107
0.0102671
0.00946865
0.00878716
0.00820096
0.00769339
0.107169
0.0691009
0.0476372
0.035029
0.0271566
0.021922
0.0182437
0.0155401
0.0134818
0.0118708
0.0105819
0.00953233
0.00866517
0.0079399
0.00732686
0.0068039
0.00635419
0.00596495
0.0996761
0.0587036
0.0381279
0.0270699
0.0205782
0.0164329
0.0135949
0.0115437
0.00999935
0.00879954
0.00784425
0.00706857
0.00642885
0.00589443
0.00544295
0.00505793
0.00472684
0.00444037
0.0901097
0.0473665
0.0287363
0.0196847
0.0146976
0.0116311
0.0095785
0.0081152
0.00702351
0.00618082
0.00551238
0.0049703
0.00452351
0.00415047
0.00383514
0.00356633
0.00333508
0.00313494
0.0779076
0.0353826
0.0198606
0.0131383
0.00966106
0.00759296
0.00623349
0.00527411
0.00456425
0.00402039
0.00359047
0.0032409
0.00295218
0.00271111
0.00250642
0.00233222
0.00218224
0.0020518
0.06238
0.0232554
0.0119461
0.00765493
0.00556338
0.00435255
0.00356722
0.00301618
0.00261335
0.0023104
0.00207213
0.00187485
0.00171036
0.00157294
0.00145408
0.00135331
0.00126678
0.00118924
0.0426105
0.0117794
0.00546931
0.00341388
0.00246076
0.00192014
0.0015728
0.00132961
0.00115855
0.00104153
0.00095
0.00086538
0.000793048
0.000729849
0.000674481
0.000622372
0.000583623
0.000546065
0.0168348
0.0025599
0.00110031
0.000684193
0.00049518
0.000389159
0.000321434
0.000273102
0.000272218
0.00033901
0.000377429
0.000355866
0.000327006
0.000283203
0.000288757
0.000233612
0.000267279
0.000264306
3.70919e-06
1.38332e-05
2.56093e-05
3.8244e-05
4.60362e-05
4.98325e-05
5.02191e-05
4.77916e-05
4.45829e-05
3.94345e-05
3.40894e-05
2.93617e-05
2.6755e-05
2.73256e-05
2.96455e-05
3.1337e-05
3.11077e-05
2.80746e-05
2.27939e-05
1.91771e-05
1.96951e-05
2.60262e-05
3.89633e-05
6.51647e-05
8.76183e-05
0.00010104
0.000113671
0.000124638
0.000134566
0.000143033
0.000150589
0.00015718
0.000163017
0.00016815
0.000172665
0.000176676
0.000180251
0.00018346
0.000186348
0.000188952
0.000191295
0.000193396
0.000195268
0.000196927
0.000198383
0.000199648
0.000200729
0.000201633
0.000202358
0.000202899
0.000203142
0.000203374
0.000203419
0.0002033
0.000203022
0.000202606
0.00020205
0.000201356
0.000200527
0.000199564
0.000198471
0.000197249
0.000195901
0.00019443
0.000192839
0.000191131
0.000189307
0.00018737
0.000185324
0.000183172
0.000180916
0.000178561
0.000176107
0.000173559
0.00017092
0.000168192
0.000165377
0.000162477
0.000159495
0.000156431
0.000153285
0.000150055
0.000146738
0.00014333
0.000139829
0.000136228
0.000132524
0.000128709
0.000124774
0.000120705
0.000116486
0.000112102
0.000107553
0.000102893
9.83323e-05
9.43651e-05
9.1564e-05
8.98205e-05
8.85098e-05
8.73058e-05
8.61226e-05
8.49439e-05
8.37681e-05
8.25957e-05
8.14279e-05
8.02653e-05
7.91095e-05
7.79647e-05
7.68522e-05
7.59007e-05
7.49666e-05
7.40388e-05
7.31191e-05
7.22076e-05
7.13048e-05
7.04109e-05
6.95264e-05
6.86515e-05
6.77866e-05
6.69319e-05
6.60875e-05
6.52535e-05
6.44305e-05
6.36185e-05
6.2818e-05
6.20285e-05
6.12513e-05
6.05137e-05
5.98364e-05
5.91677e-05
5.85044e-05
5.78558e-05
5.72253e-05
5.65985e-05
5.59766e-05
5.53625e-05
5.47578e-05
5.41626e-05
5.35772e-05
5.30013e-05
5.24349e-05
5.18776e-05
5.13296e-05
5.07904e-05
5.02603e-05
4.97388e-05
4.92263e-05
4.87223e-05
4.8227e-05
4.77401e-05
4.72617e-05
4.67914e-05
4.63296e-05
4.58759e-05
4.54306e-05
4.49935e-05
4.45648e-05
4.41445e-05
4.37328e-05
4.33299e-05
4.29358e-05
4.2551e-05
4.21755e-05
4.18096e-05
4.14536e-05
4.11076e-05
4.07715e-05
4.04452e-05
4.01281e-05
3.98194e-05
3.95177e-05
3.92215e-05
3.89267e-05
3.86333e-05
3.83223e-05
3.80252e-05
3.75963e-05
3.72909e-05
3.63593e-05
3.48401e-05
5.88224e-06
3.99449e-05
9.09026e-05
0.000151926
0.000191204
0.00021357
0.000222524
0.000221111
0.000213146
0.000197491
0.000178393
0.000160498
0.000151705
0.000156451
0.000168631
0.000176148
0.000178043
0.00017882
0.000183783
0.000192711
0.000207743
0.000224929
0.000241171
0.000256473
0.000267373
0.000276837
0.000285417
0.000298245
0.000316693
0.000330317
0.000342762
0.000353469
0.000363222
0.00037215
0.000379922
0.000387024
0.000393645
0.000400004
0.000406228
0.00041238
0.000418456
0.000424411
0.000430194
0.000435764
0.000441093
0.000446163
0.000450961
0.000455473
0.000459701
0.00046365
0.000467329
0.000470759
0.00047393
0.000476851
0.000479524
0.000481948
0.000484127
0.000486059
0.000487745
0.000489186
0.000490382
0.000491334
0.000492045
0.000492518
0.000492764
0.000492788
0.000492584
0.000492149
0.000491499
0.000490638
0.000489571
0.000488306
0.000486849
0.000485207
0.000483387
0.000481396
0.000479243
0.000476933
0.000474476
0.000471878
0.000469148
0.000466291
0.000463317
0.000460233
0.000457046
0.000453765
0.000450399
0.000446956
0.000443446
0.000439875
0.000436251
0.000432578
0.000428857
0.000425079
0.000421227
0.000417273
0.000413202
0.000409044
0.000404847
0.000400635
0.000396418
0.000392197
0.000387978
0.000383762
0.000379554
0.000375358
0.000371175
0.000367009
0.000362859
0.000358722
0.000354611
0.000350529
0.000346478
0.000342459
0.000338476
0.000334529
0.00033062
0.00032675
0.000322921
0.000319134
0.00031539
0.000311689
0.000308033
0.000304423
0.00030086
0.000297343
0.000293872
0.000290446
0.000287065
0.00028373
0.000280441
0.000277207
0.000274027
0.000270884
0.000267778
0.000264715
0.000261699
0.000258729
0.000255806
0.00025293
0.000250099
0.000247314
0.000244573
0.000241876
0.000239224
0.000236614
0.000234047
0.000231523
0.000229041
0.0002266
0.0002242
0.00022184
0.00021952
0.000217241
0.000215001
0.000212802
0.000210644
0.000208526
0.000206451
0.000204418
0.000202428
0.000200484
0.000198586
0.000196737
0.000194937
0.000193187
0.000191489
0.000189843
0.000188248
0.000186703
0.000185202
0.000183746
0.000182316
0.000180939
0.000179497
0.000178277
0.000176444
0.0001759
0.00017312
0.000171844
1.2876e-05
7.44331e-05
0.000173978
0.000251168
0.000302738
0.000332285
0.000342976
0.00034001
0.000327254
0.000308322
0.000289124
0.000277095
0.000275209
0.000281972
0.000292215
0.00030297
0.00031573
0.000332547
0.00035383
0.000378835
0.000405949
0.000433896
0.000472907
0.000518813
0.000564206
0.000608128
0.000651063
0.000694608
0.00073359
0.000764608
0.000789403
0.000809068
0.000824662
0.00083704
0.000846982
0.000855257
0.000862561
0.000869534
0.000876708
0.000884434
0.000892817
0.000901731
0.000910938
0.000920201
0.000929345
0.000938251
0.000946842
0.000955072
0.000962904
0.00097031
0.000977263
0.000983744
0.00098974
0.000995248
0.00100027
0.00100479
0.00100883
0.00101237
0.00101542
0.00101798
0.00102005
0.00102162
0.0010227
0.00102325
0.0010234
0.00102311
0.00102232
0.00102108
0.00101939
0.00101727
0.00101473
0.00101179
0.00100845
0.00100474
0.00100066
0.000996231
0.000991467
0.000986382
0.000980992
0.000975311
0.000969355
0.000963139
0.000956678
0.000949986
0.000943079
0.000935972
0.000928679
0.000921216
0.000913595
0.000905831
0.000897935
0.000889918
0.00088179
0.000873559
0.000865233
0.000856821
0.000848337
0.000839796
0.000831215
0.000822606
0.00081398
0.000805347
0.000796714
0.000788089
0.000779479
0.000770892
0.000762332
0.000753808
0.000745323
0.000736884
0.000728497
0.000720166
0.000711896
0.000703692
0.000695556
0.000687493
0.000679505
0.000671595
0.000663767
0.000656022
0.000648361
0.000640788
0.000633303
0.00062591
0.000618608
0.000611399
0.000604282
0.000597258
0.000590329
0.000583495
0.000576756
0.000570114
0.000563565
0.000557102
0.000550726
0.00054444
0.000538244
0.000532141
0.00052613
0.000520209
0.000514379
0.000508638
0.000502986
0.000497421
0.000491942
0.00048655
0.000481241
0.000476017
0.000470874
0.000465812
0.00046083
0.000455926
0.0004511
0.00044635
0.000441675
0.000437074
0.000432546
0.00042809
0.000423704
0.000419388
0.00041514
0.000410958
0.00040684
0.000402785
0.00039879
0.000394852
0.000390966
0.000387127
0.000383329
0.000379564
0.000375819
0.000372081
0.000368323
0.000364535
0.000360622
0.000356674
0.000352213
0.000348031
0.000341561
0.000330079
2.18276e-05
0.000106504
0.000220159
0.000312457
0.000374796
0.000411447
0.000426585
0.000426798
0.000416794
0.000403604
0.00039586
0.000395302
0.000404799
0.000422123
0.000444917
0.000472697
0.000506056
0.000545273
0.000589525
0.000653156
0.000727106
0.000806944
0.000890713
0.000960906
0.00102302
0.00107888
0.00112906
0.00117375
0.00121282
0.00124653
0.00127564
0.00130086
0.0013229
0.00134238
0.00135987
0.00137587
0.00139077
0.00140492
0.00141857
0.00143192
0.00144508
0.00145813
0.00147108
0.00148393
0.00149662
0.00150907
0.0015212
0.0015329
0.00154408
0.00155467
0.00156462
0.00157389
0.00158246
0.00159031
0.00159744
0.00160385
0.00160952
0.00161445
0.00161865
0.00162211
0.00162483
0.0016268
0.00162796
0.00162839
0.00162826
0.00162735
0.00162572
0.0016234
0.0016204
0.00161674
0.00161244
0.00160752
0.001602
0.00159589
0.00158924
0.00158204
0.00157433
0.00156614
0.00155747
0.00154836
0.00153883
0.0015289
0.0015186
0.00150795
0.00149696
0.00148567
0.0014741
0.00146226
0.00145019
0.00143789
0.00142539
0.00141271
0.00139986
0.00138687
0.00137374
0.00136049
0.00134714
0.00133372
0.00132023
0.0013067
0.00129315
0.00127958
0.00126601
0.00125246
0.00123893
0.00122543
0.00121198
0.00119858
0.00118525
0.00117199
0.00115881
0.00114572
0.00113272
0.00111982
0.00110703
0.00109435
0.00108179
0.00106935
0.00105704
0.00104485
0.00103279
0.00102087
0.00100909
0.000997446
0.000985944
0.000974583
0.000963367
0.000952295
0.000941368
0.000930588
0.000919955
0.000909468
0.000899124
0.000888919
0.000878852
0.000868925
0.000859138
0.000849492
0.000839987
0.000830622
0.000821396
0.000812307
0.000803355
0.000794537
0.000785852
0.000777299
0.000768876
0.000760581
0.000752412
0.000744368
0.000736445
0.000728644
0.000720961
0.000713395
0.000705944
0.000698606
0.00069138
0.000684263
0.000677253
0.000670349
0.000663547
0.000656846
0.000650242
0.000643732
0.000637311
0.000630976
0.000624719
0.000618534
0.00061241
0.000606336
0.000600295
0.000594266
0.000588219
0.000582121
0.000575896
0.000569521
0.000562717
0.000555745
0.000547314
0.00053114
2.69612e-05
0.000121963
0.000240937
0.000357439
0.000435165
0.000482035
0.000505328
0.000513685
0.00051531
0.000516531
0.000523752
0.000540253
0.000566615
0.000601864
0.000645249
0.000696816
0.000757378
0.000841168
0.000937153
0.00103283
0.00112154
0.00120567
0.00128471
0.00135713
0.00142365
0.00148485
0.00154112
0.0015928
0.00164025
0.00168389
0.00172422
0.0017617
0.00179676
0.00182978
0.00186107
0.00189088
0.00191939
0.00194675
0.00197306
0.00199837
0.00202272
0.00204611
0.00206855
0.00209
0.00211046
0.00212988
0.00214825
0.00216552
0.00218167
0.00219668
0.00221055
0.00222328
0.00223486
0.00224533
0.0022547
0.00226298
0.00227019
0.00227635
0.00228148
0.00228558
0.00228867
0.00229072
0.00229163
0.00229172
0.00229084
0.00228896
0.00228612
0.00228235
0.00227766
0.00227207
0.00226562
0.00225833
0.00225023
0.00224135
0.00223172
0.00222136
0.00221032
0.00219861
0.00218628
0.00217335
0.00215985
0.00214582
0.00213128
0.00211627
0.00210081
0.00208495
0.0020687
0.00205211
0.00203518
0.00201797
0.00200049
0.00198276
0.00196482
0.00194668
0.00192838
0.00190992
0.00189134
0.00187267
0.00185391
0.0018351
0.00181626
0.0017974
0.00177855
0.00175972
0.00174092
0.00172217
0.00170349
0.00168489
0.00166637
0.00164795
0.00162965
0.00161146
0.00159341
0.0015755
0.00155773
0.00154012
0.00152267
0.00150538
0.00148827
0.00147133
0.00145458
0.00143801
0.00142162
0.00140543
0.00138943
0.00137363
0.00135802
0.00134261
0.00132739
0.00131238
0.00129757
0.00128296
0.00126854
0.00125431
0.00124028
0.00122644
0.00121279
0.00119933
0.00118607
0.00117299
0.00116011
0.00114741
0.00113489
0.00112256
0.00111041
0.00109844
0.00108665
0.00107503
0.00106358
0.0010523
0.00104118
0.00103023
0.00101944
0.00100881
0.000998336
0.000988013
0.00097784
0.000967816
0.000957936
0.000948199
0.0009386
0.000929136
0.000919803
0.000910598
0.000901514
0.000892546
0.000883686
0.000874924
0.000866251
0.000857649
0.000849102
0.000840583
0.000832058
0.000823485
0.000814794
0.000805924
0.00079667
0.00078707
0.000776914
0.000757171
3.08049e-05
0.000135308
0.000261395
0.000392184
0.000488184
0.000549571
0.000587175
0.000610587
0.000628471
0.000648059
0.00067454
0.000710504
0.000756656
0.000813271
0.000880901
0.000971746
0.00107709
0.00117869
0.00127774
0.00137297
0.00146343
0.00154918
0.0016302
0.00170644
0.00177821
0.00184585
0.00190971
0.00197012
0.00202741
0.00208191
0.00213395
0.0021838
0.00223171
0.0022779
0.00232251
0.00236568
0.0024075
0.002448
0.00248723
0.00252519
0.00256188
0.00259728
0.00263135
0.00266407
0.0026954
0.0027253
0.00275371
0.00278061
0.00280596
0.00282973
0.00285188
0.0028724
0.00289126
0.00290846
0.002924
0.00293786
0.00295006
0.0029606
0.00296949
0.00297675
0.00298241
0.00298649
0.00298891
0.00298981
0.00298934
0.00298737
0.00298403
0.00297932
0.00297332
0.00296606
0.00295761
0.00294802
0.00293733
0.0029256
0.00291288
0.00289921
0.00288464
0.00286923
0.002853
0.00283601
0.00281829
0.00279989
0.00278086
0.00276123
0.00274103
0.00272032
0.00269913
0.0026775
0.00265547
0.00263307
0.00261034
0.00258731
0.00256401
0.00254048
0.00251675
0.00249284
0.00246879
0.00244462
0.00242036
0.00239604
0.00237168
0.00234731
0.00232294
0.00229861
0.00227433
0.00225012
0.00222599
0.00220197
0.00217806
0.00215428
0.00213065
0.00210717
0.00208386
0.00206074
0.0020378
0.00201505
0.00199252
0.0019702
0.00194809
0.00192622
0.00190457
0.00188316
0.00186199
0.00184106
0.00182037
0.00179994
0.00177975
0.00175982
0.00174013
0.0017207
0.00170153
0.0016826
0.00166392
0.0016455
0.00162731
0.00160937
0.00159167
0.00157422
0.00155701
0.00154004
0.00152331
0.00150681
0.00149055
0.00147452
0.00145872
0.00144314
0.00142779
0.00141265
0.00139773
0.00138303
0.00136853
0.00135423
0.00134014
0.00132625
0.00131256
0.00129905
0.00128574
0.00127261
0.00125967
0.0012469
0.00123431
0.00122188
0.00120963
0.00119753
0.00118559
0.00117379
0.00116214
0.00115061
0.0011392
0.00112789
0.00111666
0.00110547
0.00109431
0.00108311
0.00107182
0.00106035
0.00104854
0.00103639
0.00102411
0.00100168
3.23469e-05
0.000142477
0.000273858
0.000409587
0.000527332
0.000608412
0.00066443
0.000706446
0.000743668
0.00078332
0.000830412
0.000887847
0.000957354
0.00105005
0.00115729
0.00126388
0.00136992
0.00147314
0.00157304
0.00166919
0.00176138
0.00184962
0.001934
0.00201469
0.00209192
0.00216597
0.00223711
0.00230563
0.00237175
0.00243573
0.00249777
0.00255806
0.00261672
0.00267389
0.00272965
0.00278405
0.00283712
0.00288888
0.00293933
0.00298844
0.00303618
0.00308252
0.00312741
0.0031708
0.00321264
0.00325287
0.00329146
0.00332833
0.00336344
0.00339675
0.00342822
0.00345779
0.00348544
0.00351114
0.00353486
0.00355658
0.00357629
0.00359397
0.00360962
0.00362324
0.00363484
0.00364442
0.003652
0.00365762
0.00366127
0.00366289
0.0036628
0.00366081
0.00365704
0.00365152
0.00364431
0.00363547
0.00362505
0.00361312
0.00359973
0.00358496
0.00356887
0.00355153
0.003533
0.00351334
0.00349264
0.00347095
0.00344835
0.00342488
0.00340063
0.00337566
0.00335001
0.00332376
0.00329695
0.00326964
0.00324189
0.00321373
0.00318523
0.00315641
0.00312733
0.00309802
0.00306853
0.00303888
0.00300911
0.00297927
0.00294937
0.00291945
0.00288954
0.00285966
0.00282984
0.0028001
0.00277047
0.00274095
0.00271158
0.00268237
0.00265333
0.00262448
0.00259583
0.0025674
0.0025392
0.00251124
0.00248353
0.00245607
0.00242888
0.00240196
0.00237533
0.00234897
0.00232291
0.00229713
0.00227166
0.00224648
0.0022216
0.00219703
0.00217276
0.0021488
0.00212513
0.00210177
0.00207872
0.00205596
0.00203349
0.00201132
0.00198945
0.00196787
0.00194658
0.00192558
0.00190486
0.00188443
0.00186428
0.00184441
0.00182481
0.00180548
0.00178642
0.00176762
0.00174908
0.0017308
0.00171276
0.00169498
0.00167744
0.00166013
0.00164306
0.00162623
0.00160962
0.00159323
0.00157707
0.00156111
0.00154537
0.00152984
0.00151451
0.00149937
0.00148442
0.00146964
0.00145505
0.00144061
0.00142631
0.00141215
0.00139809
0.00138412
0.00137018
0.00135624
0.00134222
0.00132806
0.00131359
0.00129886
0.00128382
0.00125959
3.27879e-05
0.000144068
0.000275142
0.000409105
0.000538808
0.000642024
0.000719154
0.000780644
0.000836634
0.000894819
0.000963205
0.00105577
0.00116588
0.00128737
0.00140284
0.00151401
0.00162173
0.00172616
0.00182726
0.00192497
0.0020193
0.00211034
0.00219824
0.00228319
0.00236541
0.00244511
0.00252254
0.00259789
0.00267136
0.00274311
0.00281329
0.00288202
0.00294939
0.00301546
0.00308026
0.00314383
0.00320616
0.00326724
0.00332702
0.00338549
0.00344258
0.00349825
0.00355243
0.00360506
0.00365607
0.00370541
0.003753
0.00379878
0.00384269
0.00388467
0.00392467
0.00396263
0.00399851
0.00403226
0.00406385
0.00409324
0.00412042
0.00414535
0.00416802
0.00418842
0.00420654
0.00422239
0.00423597
0.0042473
0.00425639
0.00426326
0.00426798
0.00427043
0.00427087
0.00426922
0.00426555
0.00425991
0.00425234
0.00424291
0.00423168
0.00421871
0.00420406
0.0041878
0.00417001
0.00415074
0.00413007
0.00410808
0.00408483
0.0040604
0.00403487
0.00400829
0.00398074
0.0039523
0.00392303
0.003893
0.00386227
0.00383091
0.00379898
0.00376654
0.00373364
0.00370035
0.00366671
0.00363277
0.0035986
0.00356423
0.0035297
0.00349507
0.00346037
0.00342564
0.00339091
0.00335622
0.00332159
0.00328706
0.00325265
0.00321839
0.00318429
0.00315038
0.00311668
0.00308321
0.00304998
0.00301701
0.0029843
0.00295188
0.00291976
0.00288793
0.00285641
0.00282522
0.00279435
0.00276381
0.0027336
0.00270373
0.00267421
0.00264503
0.00261619
0.00258771
0.00255957
0.00253178
0.00250433
0.00247723
0.00245047
0.00242405
0.00239797
0.00237223
0.00234682
0.00232175
0.002297
0.00227259
0.0022485
0.00222473
0.00220127
0.00217813
0.0021553
0.00213278
0.00211055
0.00208862
0.00206698
0.00204563
0.00202457
0.00200378
0.00198326
0.00196302
0.00194304
0.00192333
0.00190387
0.00188466
0.0018657
0.00184698
0.00182849
0.00181024
0.00179221
0.00177439
0.00175678
0.00173936
0.00172211
0.00170503
0.00168808
0.00167124
0.00165447
0.00163771
0.00162091
0.00160399
0.0015868
0.00156941
0.00155147
0.00152534
3.22252e-05
0.000141104
0.000268669
0.000397584
0.000521178
0.000633031
0.000726756
0.000808121
0.000891958
0.000987812
0.00109757
0.00122264
0.00135908
0.00148647
0.00160665
0.00172156
0.00183215
0.0019388
0.00204181
0.00214155
0.00223823
0.00233207
0.00242325
0.00251199
0.00259849
0.00268296
0.00276558
0.00284653
0.00292597
0.00300402
0.00308078
0.00315634
0.00323076
0.00330406
0.00337625
0.00344734
0.0035173
0.00358608
0.00365365
0.00371995
0.0037849
0.00384845
0.00391051
0.00397101
0.00402987
0.00408701
0.00414236
0.00419584
0.00424738
0.0042969
0.00434435
0.00438965
0.00443277
0.00447363
0.00451221
0.00454845
0.00458233
0.00461381
0.00464287
0.00466949
0.00469367
0.00471539
0.00473467
0.0047515
0.0047659
0.00477789
0.0047875
0.00479473
0.00479966
0.00480223
0.00480262
0.0048008
0.00479684
0.00479078
0.00478267
0.00477259
0.00476059
0.00474674
0.0047311
0.00471374
0.00469473
0.00467415
0.00465205
0.00462853
0.00460364
0.00457747
0.00455009
0.00452156
0.00449197
0.00446137
0.00442985
0.00439747
0.00436429
0.00433039
0.00429583
0.00426066
0.00422495
0.00418877
0.00415217
0.0041152
0.00407792
0.00404038
0.00400263
0.00396471
0.00392667
0.00388856
0.00385041
0.00381225
0.00377413
0.00373607
0.00369811
0.00366028
0.00362259
0.00358509
0.00354778
0.00351069
0.00347384
0.00343726
0.00340094
0.00336491
0.00332919
0.00329377
0.00325868
0.00322393
0.00318951
0.00315545
0.00312174
0.00308838
0.00305539
0.00302277
0.00299052
0.00295863
0.00292712
0.00289598
0.0028652
0.0028348
0.00280477
0.0027751
0.0027458
0.00271687
0.00268829
0.00266008
0.00263223
0.00260473
0.00257758
0.00255078
0.00252432
0.0024982
0.00247242
0.00244697
0.00242184
0.00239704
0.00237255
0.00234838
0.00232451
0.00230095
0.00227769
0.00225473
0.00223206
0.00220967
0.00218756
0.00216573
0.00214417
0.00212287
0.00210182
0.00208102
0.00206046
0.00204011
0.00201998
0.00200003
0.00198025
0.0019606
0.00194103
0.00192151
0.00190197
0.00188232
0.00186244
0.00184239
0.00182164
0.00179332
3.08508e-05
0.00013501
0.000257904
0.00038307
0.000504923
0.000620955
0.00073169
0.000841017
0.000956312
0.0010826
0.00122103
0.00137104
0.00151321
0.00164507
0.00176921
0.00188753
0.00200113
0.00211067
0.00221651
0.00231888
0.00241816
0.00251475
0.00260894
0.00270099
0.00279112
0.00287955
0.00296645
0.00305198
0.00313628
0.00321944
0.00330157
0.0033827
0.00346288
0.00354213
0.00362042
0.00369774
0.00377405
0.00384929
0.0039234
0.0039963
0.00406791
0.00413816
0.00420694
0.00427417
0.00433976
0.00440362
0.00446566
0.00452579
0.00458393
0.00464
0.00469392
0.00474563
0.00479506
0.00484215
0.00488686
0.00492912
0.0049689
0.00500617
0.00504091
0.00507308
0.00510267
0.00512968
0.0051541
0.00517593
0.00519519
0.0052119
0.00522606
0.00523772
0.00524689
0.00525361
0.00525793
0.00525987
0.00525953
0.00525692
0.0052521
0.00524514
0.00523609
0.00522501
0.00521197
0.00519703
0.00518027
0.00516175
0.00514155
0.00511973
0.00509637
0.00507155
0.00504533
0.00501778
0.00498899
0.00495902
0.00492793
0.00489581
0.00486272
0.00482873
0.0047939
0.0047583
0.004722
0.00468505
0.00464752
0.00460947
0.00457095
0.00453203
0.00449276
0.00445318
0.00441335
0.00437331
0.00433311
0.00429279
0.00425239
0.00421196
0.00417152
0.00413111
0.00409077
0.00405052
0.0040104
0.00397042
0.00393062
0.00389101
0.00385163
0.00381248
0.00377359
0.00373497
0.00369664
0.00365861
0.0036209
0.0035835
0.00354645
0.00350973
0.00347337
0.00343736
0.00340171
0.00336643
0.00333152
0.00329698
0.00326281
0.00322902
0.0031956
0.00316256
0.0031299
0.00309761
0.0030657
0.00303417
0.00300301
0.00297222
0.0029418
0.00291174
0.00288205
0.00285272
0.00282374
0.00279512
0.00276684
0.00273891
0.00271133
0.00268408
0.00265716
0.00263057
0.00260431
0.00257837
0.00255275
0.00252744
0.00250243
0.00247773
0.00245332
0.0024292
0.00240536
0.0023818
0.00235849
0.00233543
0.00231261
0.00229
0.00226757
0.0022453
0.00222314
0.00220103
0.00217893
0.00215673
0.00213434
0.00211177
0.00208847
0.00205782
2.93023e-05
0.000128711
0.000248086
0.000372263
0.000496879
0.000620865
0.000745771
0.000875347
0.00101299
0.00116063
0.00131841
0.00147999
0.0016276
0.00176389
0.00189187
0.00201352
0.00213011
0.00224244
0.00235107
0.00245637
0.00255866
0.00265811
0.00275518
0.00285022
0.00294351
0.0030353
0.00312577
0.0032151
0.00330341
0.0033908
0.00347735
0.00356311
0.00364808
0.00373228
0.00381568
0.00389824
0.0039799
0.00406061
0.00414027
0.0042188
0.00429611
0.0043721
0.00444666
0.00451969
0.0045911
0.00466077
0.00472861
0.00479452
0.00485841
0.00492019
0.00497978
0.00503709
0.00509206
0.00514463
0.00519472
0.0052423
0.00528731
0.00532972
0.0053695
0.00540661
0.00544105
0.00547279
0.00550184
0.0055282
0.00555188
0.00557288
0.00559123
0.00560695
0.00562007
0.00563063
0.00563866
0.0056442
0.00564731
0.00564804
0.00564643
0.00564256
0.00563647
0.00562822
0.00561788
0.00560552
0.0055912
0.00557498
0.00555695
0.00553717
0.00551572
0.00549266
0.00546807
0.00544203
0.00541459
0.00538585
0.00535585
0.00532469
0.00529241
0.0052591
0.00522482
0.00518963
0.0051536
0.0051168
0.00507929
0.00504113
0.00500237
0.00496309
0.00492332
0.00488314
0.00484258
0.0048017
0.00476054
0.00471916
0.0046776
0.00463589
0.00459408
0.00455221
0.0045103
0.00446841
0.00442655
0.00438477
0.00434308
0.00430151
0.0042601
0.00421886
0.00417781
0.00413698
0.00409639
0.00405604
0.00401596
0.00397617
0.00393667
0.00389747
0.00385859
0.00382004
0.00378182
0.00374394
0.00370641
0.00366923
0.00363241
0.00359595
0.00355986
0.00352413
0.00348877
0.00345378
0.00341917
0.00338492
0.00335105
0.00331755
0.00328442
0.00325166
0.00321926
0.00318724
0.00315557
0.00312427
0.00309332
0.00306273
0.00303249
0.00300261
0.00297307
0.00294387
0.00291501
0.00288648
0.00285829
0.00283043
0.00280289
0.00277567
0.00274876
0.00272216
0.00269586
0.00266985
0.00264412
0.00261866
0.00259345
0.00256847
0.0025437
0.0025191
0.00249462
0.00247023
0.00244585
0.0024214
0.00239679
0.00237199
0.00234649
0.00231368
2.7614e-05
0.000122122
0.000238098
0.000361642
0.000489126
0.00061995
0.000756365
0.000900154
0.00105293
0.00121519
0.00138741
0.00155316
0.00170475
0.0018449
0.00197638
0.00210115
0.00222054
0.00233549
0.00244667
0.00255455
0.00265953
0.00276191
0.00286196
0.00295988
0.00305608
0.00315086
0.00324445
0.00333704
0.00342878
0.00351976
0.00361007
0.00369974
0.00378879
0.00387721
0.00396496
0.004052
0.00413825
0.00422364
0.00430808
0.00439146
0.00447369
0.00455464
0.0046342
0.00471227
0.00478872
0.00486346
0.00493635
0.00500731
0.00507622
0.005143
0.00520755
0.00526979
0.00532964
0.00538703
0.00544189
0.00549418
0.00554383
0.00559081
0.00563509
0.00567663
0.00571541
0.00575143
0.00578467
0.00581513
0.00584282
0.00586776
0.00588995
0.00590943
0.00592622
0.00594036
0.00595187
0.00596081
0.00596722
0.00597114
0.00597264
0.00597177
0.0059686
0.00596317
0.00595555
0.0059458
0.005934
0.0059202
0.00590448
0.00588691
0.00586756
0.0058465
0.00582381
0.00579956
0.00577381
0.00574665
0.00571813
0.00568833
0.00565732
0.00562517
0.00559193
0.00555769
0.0055225
0.00548643
0.00544955
0.00541191
0.00537357
0.0053346
0.00529505
0.00525498
0.00521443
0.00517347
0.00513213
0.00509047
0.00504853
0.00500635
0.00496399
0.00492147
0.00487884
0.00483614
0.00479339
0.00475064