/*--------------------------------*- C++ -*----------------------------------*\
  =========                 |
  \\      /  F ield         | OpenFOAM: The Open Source CFD Toolbox
   \\    /   O peration     | Website:  https://openfoam.org
    \\  /    A nd           | Version:  8
     \\/     M anipulation  |
\*---------------------------------------------------------------------------*/
FoamFile
{
    version     2.0;
    format      ascii;
    class       volScalarField;
    location    "4000";
    object      p;
}
// * * * * * * * * * * * * * * * * * * * * * * * * * * * * * * * * * * * * * //

dimensions      [0 2 -2 0 0 0 0];

internalField   nonuniform List<scalar> 
12225
(
514.675
55.5275
2.36314
0.281029
-1.89944
-3.37499
-3.81223
-4.02264
-4.23238
-4.36928
-4.41643
-4.42604
-4.42903
-4.45699
-4.51037
-4.57681
-4.72218
-4.94469
-122.18
0.238234
-2.71908
-0.765767
-2.21714
-3.52558
-3.9533
-4.1374
-4.28108
-4.38507
-4.46
-4.51831
-4.56925
-4.60162
-4.62255
-4.64808
-4.71469
-4.80868
-200.646
-16.1491
-2.34709
-0.358989
-1.90147
-3.24546
-3.77286
-4.0231
-4.19579
-4.32005
-4.41273
-4.47993
-4.52856
-4.55379
-4.56883
-4.58437
-4.61624
-4.5994
-110.617
-10.9747
-2.1778
-0.432697
-1.7884
-3.02948
-3.60197
-3.90915
-4.11842
-4.26421
-4.36658
-4.43726
-4.48597
-4.51455
-4.53188
-4.53969
-4.53865
-4.46995
-61.5735
-8.14652
-3.62326
-1.2107
-2.01592
-2.99903
-3.52992
-3.84969
-4.0722
-4.22688
-4.33451
-4.40916
-4.46052
-4.49163
-4.5069
-4.50428
-4.47807
-4.38792
-45.7315
-8.78596
-5.25947
-2.20104
-2.43067
-3.10182
-3.53728
-3.83425
-4.05023
-4.20405
-4.31311
-4.38983
-4.44227
-4.47319
-4.48474
-4.47398
-4.43389
-4.33934
-35.7953
-9.27721
-6.38126
-3.12548
-2.92269
-3.29078
-3.60468
-3.85558
-4.051
-4.19618
-4.30216
-4.37795
-4.42956
-4.45929
-4.46821
-4.45361
-4.40962
-4.32256
-27.7788
-8.90799
-6.97472
-3.80374
-3.36276
-3.4996
-3.70166
-3.90115
-4.07051
-4.20278
-4.30254
-4.37529
-4.4252
-4.45404
-4.46237
-4.44806
-4.40708
-4.33234
-21.6908
-8.52095
-7.13542
-4.31161
-3.73006
-3.70721
-3.8175
-3.96586
-4.10616
-4.22243
-4.31349
-4.38156
-4.42901
-4.45695
-4.46566
-4.45369
-4.41869
-4.35769
-16.6135
-8.14163
-7.08908
-4.7565
-4.08436
-3.93558
-3.96045
-4.05391
-4.16027
-4.25648
-4.33594
-4.39755
-4.44178
-4.46896
-4.47914
-4.47165
-4.44572
-4.40124
-12.6399
-7.68183
-6.9071
-5.1028
-4.40799
-4.17156
-4.12316
-4.16271
-4.23291
-4.30628
-4.37187
-4.42559
-4.4661
-4.4929
-4.5059
-4.50506
-4.49079
-4.46461
-9.69997
-7.14974
-6.63021
-5.32764
-4.67985
-4.39836
-4.29569
-4.28797
-4.32315
-4.37281
-4.42333
-4.46836
-4.50502
-4.53208
-4.54924
-4.55684
-4.55594
-4.54865
-7.66703
-6.60569
-6.30698
-5.43262
-4.8843
-4.59851
-4.4649
-4.42175
-4.42703
-4.45481
-4.4908
-4.5274
-4.56071
-4.5889
-4.61141
-4.62862
-4.64169
-4.6526
-6.37194
-6.11403
-5.98671
-5.44136
-5.01695
-4.75878
-4.61734
-4.55369
-4.53768
-4.54828
-4.57235
-4.6022
-4.63345
-4.66388
-4.69265
-4.71989
-4.74647
-4.77383
-5.6237
-5.72338
-5.71003
-5.39187
-5.08696
-4.87405
-4.74283
-4.67328
-4.64628
-4.64649
-4.66314
-4.68924
-4.72051
-4.75454
-4.79018
-4.82722
-4.86603
-4.90736
-5.24439
-5.46119
-5.50911
-5.32856
-5.11604
-4.94898
-4.8367
-4.77171
-4.74303
-4.74017
-4.75485
-4.78112
-4.81507
-4.85421
-4.89719
-4.94338
-4.99268
-5.04523
-5.10315
-5.34528
-5.41795
-5.29996
-5.13593
-4.99681
-4.89915
-4.84125
-4.81614
-4.81595
-4.8338
-4.86439
-4.90399
-4.95004
-5.00094
-5.05573
-5.1139
-5.17523
-5.14088
-5.40108
-5.47518
-5.34903
-5.1752
-5.02947
-4.9292
-4.87199
-4.85006
-4.85491
-4.8791
-4.91694
-4.96431
-5.0184
-5.07731
-5.13983
-5.20522
-5.27303
-5.39316
-5.65552
-5.69121
-5.47607
-5.22684
-5.03645
-4.91533
-4.85225
-4.8332
-4.84548
-4.87913
-4.92698
-4.98413
-5.04734
-5.11451
-5.1843
-5.25592
-5.32894
-6.00255
-6.13735
-6.0431
-5.63558
-5.24757
-4.98779
-4.84125
-4.7763
-4.76678
-4.79316
-4.84173
-4.90359
-4.97315
-5.04699
-5.12305
-5.20013
-5.27759
-5.35521
-7.25016
-6.88998
-6.49464
-5.76232
-5.18353
-4.8534
-4.69677
-4.64661
-4.66054
-4.71107
-4.78132
-4.86138
-4.94571
-5.03128
-5.11655
-5.20075
-5.28365
-5.36534
-9.64167
-7.96505
-6.98306
-5.77233
-4.97999
-4.61258
-4.48235
-4.47411
-4.52896
-4.6143
-4.71209
-4.81328
-4.91343
-5.01075
-5.10468
-5.19527
-5.28276
-5.36774
-13.9828
-9.39153
-7.40364
-5.57
-4.5952
-4.26463
-4.21547
-4.2801
-4.39224
-4.51973
-4.64788
-4.77046
-4.88561
-4.9932
-5.09423
-5.18971
-5.28052
-5.36769
-20.8904
-10.9545
-7.55466
-5.05771
-4.01632
-3.83629
-3.9304
-4.09453
-4.27262
-4.44347
-4.60007
-4.74141
-4.86862
-4.98368
-5.08926
-5.18764
-5.28011
-5.36809
-29.737
-11.9499
-7.034
-4.1266
-3.26452
-3.37843
-3.6715
-3.94725
-4.18954
-4.39755
-4.57617
-4.73057
-4.86528
-4.98418
-5.09151
-5.19075
-5.28307
-5.37043
-43.107
-12.6144
-5.47328
-2.72944
-2.41374
-2.96391
-3.48473
-3.86282
-4.15404
-4.3863
-4.57805
-4.73824
-4.87501
-4.9931
-5.09948
-5.19797
-5.28892
-5.37497
-84.5999
-17.3739
-3.66459
-1.26593
-1.69651
-2.72232
-3.43667
-3.8704
-4.17388
-4.41095
-4.60686
-4.76822
-4.90025
-5.01013
-5.112
-5.20715
-5.29288
-5.37743
-177.886
-26.8501
-3.68066
-0.770717
-1.5356
-2.84356
-3.61458
-4.01572
-4.2715
-4.46747
-4.65119
-4.81602
-4.95316
-5.05331
-5.14228
-5.22936
-5.30331
-5.38027
-154.791
-9.62778
-3.27289
-1.0688
-1.84361
-3.22138
-3.91418
-4.22549
-4.41793
-4.55937
-4.70234
-4.85419
-5.00612
-5.12112
-5.21607
-5.30476
-5.36965
-5.44131
428.057
66.605
7.05545
1.59891
-0.916109
-2.85743
-3.65346
-3.99516
-4.31072
-4.57735
-4.70778
-4.75542
-4.80076
-4.90121
-5.01535
-5.11976
-5.2419
-5.34124
-8.52612
-8.51329
-8.50266
-8.54403
-8.63706
-8.74076
-8.82068
-8.86069
-8.86434
-8.84668
-8.81926
-8.79069
-8.76902
-8.76022
-8.76523
-8.77787
-8.78909
-8.79422
-8.79345
-8.79138
-8.79588
-8.82858
-8.91881
-9.09016
-9.34317
-9.66095
-10.0321
-10.4459
-10.8869
-11.3389
-11.7869
-12.2189
-12.6256
-13.0004
-13.3391
-13.639
-13.8994
-14.1201
-14.3018
-14.4457
-14.5528
-14.6247
-14.6626
-14.6679
-14.6419
-14.586
-14.5018
-14.3916
-14.2567
-14.0948
-13.9034
-13.6837
-13.4385
-13.1695
-12.8779
-12.5649
-12.2314
-11.8785
-11.5072
-11.1185
-10.7136
-10.2935
-9.85942
-9.41248
-8.95387
-8.48476
-8.00637
-7.51989
-7.02651
-6.52742
-6.02378
-5.51673
-5.00739
-4.49683
-3.98611
-3.47621
-2.96811
-2.4627
-1.96085
-1.46338
-0.971031
-0.484509
-0.00446104
0.468522
0.933904
1.3912
1.84
2.2799
2.71061
3.13186
3.54346
3.94521
4.33696
4.71867
5.09059
5.45272
5.80461
6.14585
6.47645
6.79663
7.10663
7.40666
7.6969
7.97753
8.24875
8.51074
8.76373
9.00792
9.24354
9.4708
9.68991
9.90113
10.1047
10.3009
10.4899
10.6719
10.8473
11.0163
11.179
11.3358
11.4868
11.6323
11.7724
11.9075
12.0376
12.1631
12.284
12.4006
12.513
12.6214
12.726
12.8272
12.9251
13.0198
13.1112
13.1995
13.2849
13.3673
13.4471
13.5243
13.599
13.6713
13.7413
13.8092
13.875
13.9388
14.0006
14.0605
14.1187
14.1751
14.2299
14.283
14.3345
14.3845
14.433
14.48
14.5256
14.5698
14.6125
14.654
14.694
14.7328
14.7702
14.8064
14.8412
14.8748
14.9073
14.9385
14.9687
14.9978
15.0262
15.0539
15.0814
15.109
15.1377
15.1685
15.2039
15.2456
15.3035
15.3639
-8.58357
-8.61483
-8.68878
-8.78238
-8.88584
-8.97805
-9.03929
-9.06368
-9.04662
-8.98617
-8.89641
-8.79959
-8.71798
-8.6667
-8.64464
-8.64144
-8.651
-8.67644
-8.71172
-8.73197
-8.75631
-8.83427
-8.99402
-9.23359
-9.54047
-9.91145
-10.3372
-10.7974
-11.2702
-11.738
-12.1882
-12.6113
-13.0011
-13.3536
-13.6671
-13.9414
-14.1767
-14.3743
-14.5351
-14.6604
-14.7513
-14.809
-14.8344
-14.8285
-14.792
-14.7256
-14.6298
-14.5044
-14.3502
-14.1702
-13.9681
-13.7442
-13.4975
-13.2282
-12.937
-12.6246
-12.2918
-11.9397
-11.5692
-11.1813
-10.777
-10.3576
-9.92411
-9.4777
-9.01953
-8.55079
-8.07268
-7.5864
-7.09314
-6.59408
-6.0904
-5.58322
-5.07367
-4.56282
-4.05172
-3.54138
-3.03275
-2.52675
-2.02423
-1.52602
-1.03287
-0.545488
-0.0645249
0.409421
0.875805
1.33414
1.78397
2.22492
2.65663
3.07881
3.49117
3.89349
4.28555
4.66723
5.03862
5.39993
5.75136
6.09294
6.42452
6.74598
7.05737
7.35882
7.65047
7.9325
8.20509
8.46843
8.72273
8.9682
9.20508
9.4336
9.65398
9.86645
10.0712
10.2686
10.4588
10.642
10.8185
10.9886
11.1524
11.3102
11.4623
11.6087
11.7499
11.8859
12.0171
12.1436
12.2656
12.3832
12.4968
12.6063
12.712
12.8139
12.9119
13.0067
13.0983
13.1868
13.2723
13.3551
13.4351
13.5126
13.5876
13.6602
13.7306
13.7987
13.8648
13.9289
13.991
14.0513
14.1097
14.1664
14.2214
14.2748
14.3265
14.3768
14.4255
14.4727
14.5185
14.5629
14.6059
14.6475
14.6877
14.7266
14.7642
14.8005
14.8356
14.8693
14.9019
14.9333
14.9635
14.9928
15.0213
15.0491
15.0767
15.1045
15.1332
15.1639
15.1987
15.2383
15.292
15.3418
-8.71059
-8.79242
-8.91038
-9.0162
-9.0991
-9.15294
-9.17356
-9.15974
-9.11017
-9.02708
-8.91955
-8.80417
-8.70441
-8.63987
-8.61112
-8.60629
-8.62531
-8.68203
-8.78563
-8.93268
-9.12302
-9.36377
-9.65781
-9.99693
-10.369
-10.7647
-11.1741
-11.5854
-11.988
-12.3746
-12.7405
-13.082
-13.3964
-13.682
-13.9378
-14.1632
-14.3582
-14.5227
-14.657
-14.7614
-14.8363
-14.882
-14.8991
-14.8879
-14.8488
-14.7824
-14.6889
-14.5683
-14.4207
-14.247
-14.0487
-13.8267
-13.5816
-13.314
-13.0245
-12.7139
-12.383
-12.0327
-11.6639
-11.2777
-10.8751
-10.4571
-10.0249
-9.57967
-9.12254
-8.65469
-8.17733
-7.69165
-7.19885
-6.7001
-6.19659
-5.68944
-5.17979
-4.66871
-4.15726
-3.64645
-3.13724
-2.63055
-2.12725
-1.62816
-1.13404
-0.645616
-0.163536
0.311595
0.779229
1.23887
1.69008
2.13247
2.5657
2.98948
3.40357
3.80778
4.20195
4.58599
4.95988
5.32362
5.67725
6.02078
6.35418
6.67744
6.99064
7.2939
7.58735
7.87117
8.14552
8.41061
8.66663
8.9138
9.15235
9.38249
9.60446
9.81848
10.0248
10.2236
10.4153
10.5999
10.7778
10.9492
11.1143
11.2734
11.4267
11.5744
11.7167
11.8538
11.9859
12.1133
12.236
12.3544
12.4686
12.5788
12.6851
12.7877
12.8867
12.9825
13.0751
13.1646
13.2511
13.3347
13.4156
13.4938
13.5695
13.6429
13.7139
13.7827
13.8494
13.914
13.9766
14.0374
14.0963
14.1535
14.209
14.2627
14.3149
14.3655
14.4146
14.4622
14.5083
14.553
14.5963
14.6382
14.6787
14.7179
14.7558
14.7923
14.8275
14.8615
14.8942
14.9258
14.9562
14.9857
15.0142
15.0421
15.0697
15.0974
15.1259
15.156
15.1895
15.2261
15.2735
15.3071
-8.75
-8.84744
-8.94871
-9.03523
-9.09967
-9.13937
-9.15182
-9.13442
-9.08715
-9.01504
-8.92931
-8.84676
-8.78556
-8.75858
-8.7707
-8.82401
-8.92239
-9.0695
-9.26594
-9.50671
-9.78297
-10.0875
-10.4144
-10.7572
-11.1106
-11.4694
-11.8282
-12.1818
-12.5257
-12.8557
-13.1687
-13.4618
-13.7329
-13.9803
-14.2029
-14.3997
-14.5701
-14.7137
-14.8303
-14.9198
-14.9823
-15.0179
-15.0265
-15.0085
-14.9638
-14.8927
-14.7956
-14.6727
-14.5245
-14.3516
-14.1547
-13.9343
-13.6908
-13.4248
-13.137
-12.8281
-12.4988
-12.1501
-11.7829
-11.3981
-10.9967
-10.5799
-10.1488
-9.70439
-9.24795
-8.78066
-8.30369
-7.81824
-7.32551
-6.82667
-6.32292
-5.81538
-5.30519
-4.79344
-4.28117
-3.76942
-3.25915
-2.75128
-2.24669
-1.74621
-1.25061
-0.760609
-0.276873
0.19999
0.669424
1.13093
1.58406
2.02842
2.46367
2.88952
3.30573
3.71209
4.10849
4.49481
4.87103
5.23709
5.59298
5.93867
6.27418
6.59953
6.91481
7.22013
7.51563
7.80148
8.07784
8.3449
8.60288
8.85196
9.09239
9.32437
9.54813
9.76391
9.97194
10.1725
10.3658
10.552
10.7315
10.9044
11.071
11.2315
11.3861
11.5351
11.6787
11.817
11.9504
12.0789
12.2028
12.3223
12.4376
12.5488
12.6561
12.7597
12.8599
12.9567
13.0502
13.1406
13.228
13.3125
13.3942
13.4732
13.5497
13.6237
13.6954
13.7649
13.8322
13.8974
13.9607
14.022
14.0815
14.1391
14.1951
14.2493
14.3019
14.353
14.4025
14.4504
14.4969
14.542
14.5856
14.6278
14.6687
14.7081
14.7463
14.7831
14.8185
14.8527
14.8856
14.9174
14.9479
14.9775
15.0061
15.0339
15.0614
15.0887
15.1166
15.1455
15.1768
15.2093
15.2487
15.2673
-8.53814
-8.62305
-8.72314
-8.82024
-8.89759
-8.95032
-8.9774
-8.97967
-8.9616
-8.93148
-8.9014
-8.88533
-8.89608
-8.9432
-9.0329
-9.16831
-9.34953
-9.57198
-9.82724
-10.1073
-10.4065
-10.7209
-11.0459
-11.3766
-11.7086
-12.0383
-12.3622
-12.6772
-12.9806
-13.2699
-13.5431
-13.7985
-14.0348
-14.2506
-14.445
-14.6171
-14.7662
-14.8917
-14.9933
-15.0704
-15.1229
-15.1505
-15.1531
-15.1305
-15.0828
-15.0099
-14.9119
-14.7889
-14.6413
-14.4695
-14.2738
-14.0547
-13.8126
-13.5481
-13.2618
-12.9543
-12.6265
-12.2792
-11.9133
-11.5297
-11.1295
-10.7136
-10.2833
-9.83961
-9.38373
-8.91683
-8.44012
-7.95477
-7.46199
-6.96296
-6.45886
-5.95084
-5.44003
-4.92752
-4.41437
-3.90161
-3.39021
-2.8811
-2.37517
-1.87325
-1.37611
-0.884478
-0.399028
0.0796273
0.550929
1.01437
1.4695
1.91593
2.35329
2.78131
3.19974
3.60837
4.00705
4.39569
4.7742
5.14255
5.5007
5.84863
6.18637
6.51394
6.83144
7.13898
7.43668
7.7247
8.00322
8.27242
8.53249
8.78365
9.02612
9.26012
9.48587
9.70359
9.91353
10.1159
10.311
10.499
10.6802
10.8548
11.023
11.1851
11.3412
11.4917
11.6368
11.7766
11.9113
12.0412
12.1665
12.2873
12.4038
12.5162
12.6247
12.7295
12.8307
12.9285
13.023
13.1144
13.2027
13.288
13.3706
13.4504
13.5277
13.6025
13.675
13.7451
13.8131
13.879
13.9429
14.0048
14.0649
14.1231
14.1796
14.2344
14.2875
14.339
14.389
14.4374
14.4843
14.5298
14.5738
14.6164
14.6576
14.6973
14.7358
14.7728
14.8086
14.843
14.8761
14.908
14.9387
14.9683
14.9968
15.0246
15.0517
15.0785
15.1054
15.1327
15.1613
15.1891
15.2207
15.2268
-8.11819
-8.20659
-8.32752
-8.45021
-8.55544
-8.63585
-8.69416
-8.73624
-8.76972
-8.80438
-8.85118
-8.92042
-9.02013
-9.15513
-9.32762
-9.53661
-9.77743
-10.0445
-10.3324
-10.6357
-10.9486
-11.2666
-11.5855
-11.9021
-12.2134
-12.5173
-12.8119
-13.0957
-13.3671
-13.6248
-13.8677
-14.0947
-14.3045
-14.4964
-14.6693
-14.8225
-14.9551
-15.0664
-15.156
-15.2231
-15.2674
-15.2884
-15.2858
-15.2593
-15.2088
-15.1341
-15.0351
-14.9119
-14.7646
-14.5934
-14.3987
-14.1807
-13.9399
-13.6767
-13.3918
-13.0858
-12.7595
-12.4135
-12.0489
-11.6665
-11.2674
-10.8526
-10.4232
-9.98021
-9.52492
-9.05848
-8.58207
-8.09687
-7.60408
-7.1049
-6.6005
-6.09203
-5.58062
-5.06738
-4.55338
-4.03963
-3.52713
-3.0168
-2.50954
-2.00619
-1.50753
-1.01428
-0.527122
-0.0466799
0.426485
0.891862
1.349
1.79748
2.23698
2.66717
3.08782
3.49871
3.89969
4.29063
4.67145
5.0421
5.40254
5.75276
6.09278
6.42264
6.74242
7.05223
7.3522
7.64247
7.92323
8.19465
8.45692
8.71025
8.95484
9.19093
9.41872
9.63846
9.85038
10.0547
10.2517
10.4416
10.6246
10.801
10.9709
11.1347
11.2926
11.4447
11.5913
11.7327
11.8689
12.0003
12.1269
12.2491
12.367
12.4807
12.5904
12.6964
12.7988
12.8977
12.9933
13.0857
13.1749
13.2613
13.3448
13.4255
13.5037
13.5794
13.6526
13.7236
13.7923
13.859
13.9235
13.9862
14.0469
14.1057
14.1628
14.2182
14.2718
14.3239
14.3743
14.4233
14.4706
14.5165
14.561
14.604
14.6455
14.6857
14.7245
14.7618
14.7979
14.8325
14.8659
14.8979
14.9287
14.9583
14.9868
15.0142
15.0409
15.067
15.0926
15.118
15.1435
15.1665
15.1908
15.1863
-7.65318
-7.75186
-7.89391
-8.0427
-8.18064
-8.29927
-8.40217
-8.49866
-8.59815
-8.70957
-8.84052
-8.9959
-9.17847
-9.38865
-9.62476
-9.88468
-10.1654
-10.4624
-10.7702
-11.0838
-11.399
-11.7123
-12.0209
-12.3228
-12.6164
-12.9004
-13.1738
-13.4356
-13.685
-13.9211
-14.1432
-14.3503
-14.5416
-14.7163
-14.8736
-15.0127
-15.1327
-15.2331
-15.3131
-15.3721
-15.4094
-15.4247
-15.4175
-15.3873
-15.3339
-15.2571
-15.1567
-15.0326
-14.885
-14.7139
-14.5194
-14.302
-14.0619
-13.7997
-13.5158
-13.2109
-12.8857
-12.541
-12.1776
-11.7964
-11.3984
-10.9847
-10.5563
-10.1143
-9.65986
-9.19416
-8.71836
-8.23366
-7.74126
-7.24234
-6.73806
-6.22958
-5.71803
-5.20451
-4.69009
-4.1758
-3.66262
-3.15149
-2.64331
-2.13891
-1.63908
-1.14456
-0.656026
-0.174101
0.300643
0.767692
1.22658
1.67691
2.11831
2.55049
2.97318
3.38616
3.78928
4.18239
4.56541
4.93826
5.30091
5.65335
5.9956
6.32771
6.64974
6.9618
7.26402
7.55654
7.83953
8.11316
8.37762
8.63312
8.87987
9.11808
9.34798
9.56979
9.78375
9.99009
10.1891
10.3809
10.5658
10.744
10.9158
11.0814
11.241
11.3948
11.5431
11.686
11.8238
11.9567
12.0848
12.2085
12.3277
12.4428
12.5539
12.6611
12.7647
12.8648
12.9615
13.055
13.1454
13.2327
13.3172
13.399
13.4781
13.5547
13.6288
13.7006
13.7702
13.8376
13.9029
13.9663
14.0277
14.0872
14.145
14.2009
14.2552
14.3078
14.3589
14.4083
14.4562
14.5026
14.5475
14.5909
14.6329
14.6734
14.7126
14.7503
14.7866
14.8215
14.8551
14.8872
14.9181
14.9477
14.976
15.0032
15.0293
15.0544
15.0787
15.1018
15.124
15.1422
15.1599
15.146
-7.29754
-7.39101
-7.54305
-7.70877
-7.8756
-8.03657
-8.19117
-8.34727
-8.51314
-8.69456
-8.89559
-9.11743
-9.35867
-9.61843
-9.89614
-10.1895
-10.4947
-10.8075
-11.1235
-11.4392
-11.7517
-12.0587
-12.3583
-12.6493
-12.9305
-13.2011
-13.4604
-13.7078
-13.9427
-14.1644
-14.3725
-14.5661
-14.7446
-14.9074
-15.0536
-15.1825
-15.2933
-15.3855
-15.4581
-15.5107
-15.5425
-15.553
-15.5417
-15.5082
-15.4521
-15.373
-15.2709
-15.1455
-14.9969
-14.8251
-14.6302
-14.4126
-14.1726
-13.9105
-13.6269
-13.3224
-12.9977
-12.6536
-12.2909
-11.9104
-11.5132
-11.1003
-10.6727
-10.2315
-9.77787
-9.31295
-8.83792
-8.35395
-7.86222
-7.36392
-6.8602
-6.3522
-5.84105
-5.32785
-4.81364
-4.29946
-3.78629
-3.27505
-2.76665
-2.26191
-1.76162
-1.26652
-0.777293
-0.294556
0.181116
0.649205
1.10925
1.56083
2.00359
2.43721
2.86144
3.27604
3.68084
4.07569
4.4605
4.83519
5.19973
5.55409
5.89829
6.23238
6.55643
6.87054
7.17482
7.46942
7.7545
8.03022
8.29677
8.55436
8.80318
9.04345
9.2754
9.49924
9.7152
9.92353
10.1244
10.3182
10.505
10.6851
10.8587
11.0261
11.1874
11.343
11.4929
11.6375
11.7769
11.9113
12.041
12.1661
12.2868
12.4033
12.5157
12.6243
12.7292
12.8305
12.9284
13.023
13.1145
13.203
13.2885
13.3713
13.4514
13.5289
13.604
13.6767
13.7471
13.8153
13.8815
13.9456
14.0077
14.068
14.1264
14.183
14.2379
14.2912
14.3428
14.3928
14.4412
14.4881
14.5335
14.5774
14.6198
14.6608
14.7003
14.7384
14.775
14.8102
14.8439
14.8763
14.9072
14.9367
14.9648
14.9916
15.017
15.0411
15.0638
15.0846
15.1034
15.1168
15.1285
15.1066
-7.10722
-7.19333
-7.34744
-7.5198
-7.70319
-7.89549
-8.09328
-8.29854
-8.51584
-8.74762
-8.99416
-9.25544
-9.53138
-9.82161
-10.1242
-10.436
-10.7533
-11.0727
-11.3912
-11.7061
-12.0155
-12.3175
-12.6108
-12.8944
-13.1676
-13.4296
-13.68
-13.9183
-14.1441
-14.3568
-14.5559
-14.7408
-14.911
-15.0659
-15.2046
-15.3266
-15.4311
-15.5173
-15.5847
-15.6324
-15.66
-15.6667
-15.6521
-15.6156
-15.557
-15.4757
-15.3717
-15.2447
-15.0948
-14.9219
-14.7262
-14.5078
-14.2672
-14.0047
-13.7209
-13.4162
-13.0915
-12.7474
-12.3848
-12.0046
-11.6078
-11.1953
-10.7681
-10.3275
-9.8745
-9.41024
-8.93591
-8.45266
-7.96168
-7.46412
-6.96115
-6.45389
-5.94346
-5.43094
-4.91739
-4.4038
-3.89116
-3.3804
-2.87238
-2.36795
-1.86788
-1.3729
-0.883679
-0.40085
0.075021
0.543417
1.00387
1.45598
1.89936
2.33371
2.75876
3.17429
3.58011
3.97608
4.36208
4.73805
5.10392
5.4597
5.80538
6.14101
6.46665
6.7824
7.08838
7.38471
7.67155
7.94906
8.21743
8.47685
8.72751
8.96964
9.20344
9.42913
9.64695
9.85711
10.0599
10.2554
10.444
10.6259
10.8012
10.9703
11.1334
11.2906
11.4422
11.5884
11.7293
11.8653
11.9965
12.1231
12.2452
12.3631
12.4769
12.5868
12.6929
12.7955
12.8946
12.9904
13.083
13.1726
13.2592
13.343
13.4241
13.5026
13.5786
13.6522
13.7235
13.7926
13.8595
13.9244
13.9873
14.0483
14.1074
14.1648
14.2203
14.2742
14.3264
14.377
14.426
14.4734
14.5193
14.5637
14.6066
14.648
14.6879
14.7263
14.7633
14.7987
14.8327
14.8651
14.8961
14.9255
14.9534
14.9797
15.0044
15.0273
15.0483
15.0667
15.0822
15.0911
15.0974
15.0684
-7.07934
-7.16618
-7.31387
-7.48266
-7.66939
-7.87395
-8.09317
-8.32508
-8.5699
-8.82824
-9.09962
-9.38317
-9.67865
-9.98492
-10.2993
-10.6187
-10.9403
-11.2614
-11.5795
-11.8927
-12.1992
-12.4975
-12.7867
-13.0658
-13.3342
-13.5914
-13.8368
-14.0701
-14.2908
-14.4984
-14.6925
-14.8726
-15.038
-15.1882
-15.3224
-15.4401
-15.5405
-15.6229
-15.6867
-15.7311
-15.7555
-15.7594
-15.7421
-15.7033
-15.6424
-15.5591
-15.4533
-15.3247
-15.1733
-14.9991
-14.8021
-14.5828
-14.3413
-14.078
-13.7936
-13.4885
-13.1634
-12.8191
-12.4564
-12.0762
-11.6795
-11.2673
-10.8405
-10.4004
-9.94795
-9.48436
-9.01078
-8.52836
-8.03826
-7.54164
-7.03963
-6.53337
-6.02396
-5.51246
-4.99992
-4.48734
-3.97567
-3.46583
-2.9587
-2.45509
-1.95577
-1.46148
-0.972875
-0.490569
-0.0151263
0.452942
0.913175
1.36516
1.80855
2.24301
2.66828
3.08412
3.49036
3.88684
4.27345
4.65011
5.01677
5.37341
5.72004
6.0567
6.38346
6.70039
7.00761
7.30525
7.59344
7.87237
8.14219
8.4031
8.65529
8.89896
9.13433
9.36161
9.58103
9.79281
9.99717
10.1943
10.3846
10.568
10.745
10.9157
11.0803
11.239
11.3922
11.5399
11.6823
11.8198
11.9524
12.0803
12.2039
12.3231
12.4382
12.5494
12.6568
12.7606
12.8609
12.9578
13.0515
13.1422
13.2298
13.3147
13.3968
13.4762
13.5532
13.6277
13.6999
13.7698
13.8376
13.9033
13.9669
14.0287
14.0885
14.1465
14.2027
14.2573
14.3101
14.3613
14.4108
14.4588
14.5052
14.5501
14.5935
14.6353
14.6756
14.7144
14.7517
14.7874
14.8216
14.8541
14.8851
14.9144
14.942
14.9678
14.9916
15.0133
15.0326
15.0486
15.0608
15.0655
15.0668
15.0317
-7.19025
-7.26862
-7.39956
-7.55545
-7.73409
-7.93518
-8.15602
-8.39402
-8.64753
-8.91524
-9.19548
-9.48713
-9.78923
-10.0999
-10.4165
-10.7366
-11.0576
-11.3773
-11.6935
-12.0044
-12.3085
-12.6045
-12.8914
-13.1684
-13.4347
-13.6899
-13.9335
-14.1649
-14.3836
-14.5894
-14.7815
-14.9595
-15.1229
-15.2709
-15.4031
-15.5186
-15.6168
-15.697
-15.7586
-15.8009
-15.8232
-15.825
-15.8058
-15.765
-15.7022
-15.6172
-15.5097
-15.3795
-15.2266
-15.051
-14.8529
-14.6324
-14.3899
-14.1259
-13.8407
-13.535
-13.2096
-12.8651
-12.5023
-12.1222
-11.7257
-11.3139
-10.8876
-10.4482
-9.99652
-9.53385
-9.0613
-8.58002
-8.09115
-7.59584
-7.09521
-6.59037
-6.08243
-5.57244
-5.06141
-4.55034
-4.04017
-3.53181
-3.02611
-2.52388
-2.02588
-1.53282
-1.04537
-0.564122
-0.0896498
0.377547
0.837011
1.28834
1.73116
2.16518
2.5901
3.00572
3.41184
3.80831
4.19501
4.57186
4.93882
5.29585
5.64297
5.98022
6.30765
6.62534
6.9334
7.23195
7.52113
7.8011
8.07204
8.3341
8.5875
8.83243
9.06909
9.29769
9.51846
9.73161
9.93736
10.1359
10.3276
10.5125
10.6909
10.863
11.029
11.1892
11.3437
11.4928
11.6366
11.7754
11.9093
12.0386
12.1634
12.2839
12.4003
12.5127
12.6213
12.7262
12.8277
12.9257
13.0205
13.1122
13.2009
13.2867
13.3698
13.4502
13.5281
13.6035
13.6765
13.7473
13.8159
13.8823
13.9468
14.0092
14.0698
14.1285
14.1854
14.2406
14.294
14.3458
14.3959
14.4445
14.4914
14.5368
14.5806
14.6229
14.6636
14.7028
14.7404
14.7764
14.8108
14.8434
14.8744
14.9036
14.9308
14.956
14.979
14.9995
15.017
15.0306
15.0397
15.0404
15.0372
14.9969
-7.36676
-7.43133
-7.54224
-7.68068
-7.8445
-8.03324
-8.24454
-8.47574
-8.72438
-8.98813
-9.26476
-9.5531
-9.85192
-10.159
-10.472
-10.7884
-11.1059
-11.4224
-11.7359
-12.0446
-12.3471
-12.6421
-12.9285
-13.2053
-13.4719
-13.7274
-13.9715
-14.2035
-14.4229
-14.6291
-14.8216
-14.9999
-15.1633
-15.3112
-15.4429
-15.5579
-15.6554
-15.7347
-15.7952
-15.8363
-15.8573
-15.8577
-15.8369
-15.7946
-15.7304
-15.6439
-15.5349
-15.4033
-15.249
-15.0722
-14.8729
-14.6515
-14.4081
-14.1434
-13.8577
-13.5517
-13.226
-12.8815
-12.519
-12.1393
-11.7434
-11.3323
-10.9071
-10.4687
-10.0184
-9.55719
-9.08622
-8.60664
-8.11959
-7.62619
-7.12755
-6.62477
-6.11891
-5.61103
-5.10213
-4.59319
-4.08514
-3.57886
-3.0752
-2.57496
-2.07889
-1.58768
-1.10199
-0.622414
-0.149509
0.316229
0.774348
1.22445
1.66617
2.09919
2.52326
2.93814
3.34364
3.73962
4.12594
4.50254
4.86935
5.22636
5.57357
5.911
6.23873
6.55681
6.86536
7.16449
7.45433
7.73504
8.00678
8.26973
8.52406
8.76998
9.00769
9.23738
9.45927
9.67359
9.88053
10.0803
10.2732
10.4593
10.639
10.8124
10.9797
11.1411
11.2969
11.4473
11.5924
11.7324
11.8676
11.9982
12.1242
12.2459
12.3634
12.477
12.5867
12.6927
12.7953
12.8944
12.9902
13.0829
13.1726
13.2594
13.3434
13.4247
13.5035
13.5798
13.6536
13.7252
13.7946
13.8619
13.9271
13.9902
14.0515
14.1109
14.1685
14.2243
14.2783
14.3307
14.3814
14.4305
14.478
14.5239
14.5682
14.611
14.6521
14.6916
14.7296
14.7658
14.8004
14.8332
14.8641
14.8931
14.9201
14.9447
14.9668
14.986
15.0018
15.0131
15.0192
15.0163
15.009
14.9643
-7.54067
-7.59215
-7.68472
-7.80531
-7.95193
-8.12407
-8.31966
-8.53632
-8.77159
-9.02292
-9.28827
-9.56655
-9.85634
-10.1554
-10.4614
-10.7718
-11.0845
-11.3973
-11.7081
-12.0153
-12.3172
-12.6125
-12.8999
-13.1784
-13.4471
-13.7051
-13.9517
-14.1863
-14.4082
-14.6168
-14.8115
-14.9916
-15.1566
-15.3058
-15.4385
-15.554
-15.6518
-15.7311
-15.7913
-15.8318
-15.8521
-15.8516
-15.8298
-15.7864
-15.721
-15.6332
-15.5231
-15.3903
-15.235
-15.0573
-14.8572
-14.635
-14.3912
-14.1261
-13.8403
-13.5344
-13.2091
-12.8652
-12.5034
-12.1247
-11.73
-11.3204
-10.8968
-10.4602
-10.0119
-9.55285
-9.08421
-8.60709
-8.12262
-7.63189
-7.13601
-6.63606
-6.13308
-5.6281
-5.1221
-4.61606
-4.11088
-3.60744
-3.10657
-2.60904
-2.1156
-1.62692
-1.14367
-0.666416
-0.195711
0.267954
0.724133
1.17243
1.61248
2.04399
2.46668
2.88032
3.28472
3.67974
4.06525
4.44116
4.80743
5.16402
5.51093
5.8482
6.17587
6.49402
6.80274
7.10215
7.39237
7.67355
7.94584
8.20941
8.46445
8.71114
8.94967
9.18026
9.40309
9.61838
9.82635
10.0272
10.2211
10.4084
10.5892
10.7637
10.9322
11.0948
11.2518
11.4033
11.5496
11.6908
11.8272
11.9589
12.086
12.2089
12.3275
12.4422
12.553
12.6601
12.7636
12.8638
12.9606
13.0543
13.145
13.2327
13.3176
13.3998
13.4795
13.5566
13.6313
13.7037
13.7739
13.8419
13.9078
13.9717
14.0337
14.0938
14.152
14.2084
14.2631
14.3161
14.3674
14.4171
14.4651
14.5115
14.5563
14.5995
14.6411
14.681
14.7192
14.7558
14.7906
14.8235
14.8544
14.8833
14.9099
14.9339
14.9552
14.9731
14.9872
14.9963
14.9996
14.9934
14.9824
14.9339
-7.66747
-7.70965
-7.78683
-7.89078
-8.02001
-8.17407
-8.35122
-8.5495
-8.7669
-9.00121
-9.25105
-9.5157
-9.79372
-10.0828
-10.3806
-10.6845
-10.9924
-11.3018
-11.6109
-11.9177
-12.2204
-12.5175
-12.8075
-13.0894
-13.3618
-13.6239
-13.8748
-14.1135
-14.3394
-14.5517
-14.7498
-14.933
-15.1006
-15.2519
-15.3863
-15.5032
-15.6018
-15.6817
-15.7421
-15.7825
-15.8024
-15.8013
-15.7788
-15.7346
-15.6683
-15.5797
-15.4686
-15.3351
-15.1792
-15.0009
-14.8004
-14.5781
-14.3344
-14.0696
-13.7843
-13.4792
-13.155
-12.8124
-12.4522
-12.0754
-11.6828
-11.2755
-10.8544
-10.4207
-9.97531
-9.51942
-9.05408
-8.5804
-8.09948
-7.61241
-7.12026
-6.62408
-6.12491
-5.62376
-5.12158
-4.61931
-4.11787
-3.6181
-3.12083
-2.62681
-2.13677
-1.65137
-1.17126
-0.697024
-0.229186
0.231764
0.685387
1.13129
1.56911
1.99855
2.41934
2.83124
3.23408
3.62768
4.01194
4.38677
4.75209
5.10789
5.45416
5.79093
6.11823
6.43615
6.74476
7.04417
7.33451
7.61591
7.88852
8.15251
8.40805
8.65532
8.8945
9.1258
9.34941
9.56553
9.77437
9.97615
10.1711
10.3593
10.5411
10.7167
10.8862
11.0499
11.208
11.3606
11.508
11.6503
11.7878
11.9206
12.0488
12.1727
12.2925
12.4082
12.52
12.6282
12.7327
12.8339
12.9317
13.0263
13.1179
13.2066
13.2924
13.3755
13.456
13.5339
13.6095
13.6827
13.7536
13.8224
13.889
13.9537
14.0163
14.0771
14.136
14.193
14.2483
14.3019
14.3538
14.4041
14.4526
14.4996
14.5449
14.5885
14.6305
14.6709
14.7095
14.7463
14.7813
14.8143
14.8453
14.874
14.9003
14.9238
14.9442
14.961
14.9734
14.9805
14.9812
14.972
14.9577
14.906
-7.72293
-7.76118
-7.82677
-7.91576
-8.02797
-8.16336
-8.3209
-8.49925
-8.69686
-8.91218
-9.14471
-9.39436
-9.65977
-9.93856
-10.2282
-10.5261
-10.8299
-11.1371
-11.4457
-11.7533
-12.0583
-12.3586
-12.6527
-12.9392
-13.2168
-13.4841
-13.7403
-13.9842
-14.215
-14.432
-14.6342
-14.821
-14.9917
-15.1457
-15.2822
-15.4006
-15.5005
-15.5811
-15.6419
-15.6824
-15.7022
-15.7009
-15.678
-15.6332
-15.5664
-15.4773
-15.366
-15.2323
-15.0762
-14.8981
-14.698
-14.4763
-14.2335
-13.9699
-13.6861
-13.3828
-13.0607
-12.7205
-12.363
-11.9891
-11.5998
-11.196
-10.7786
-10.3488
-9.90763
-9.45605
-8.99517
-8.52609
-8.04987
-7.56757
-7.08025
-6.58894
-6.09463
-5.59833
-5.10097
-4.60346
-4.1067
-3.6115
-3.1187
-2.62904
-2.14322
-1.66189
-1.18568
-0.715173
-0.250889
0.206691
0.657131
1.10004
1.53506
1.96189
2.38026
2.78994
3.19074
3.5825
3.9651
4.33843
4.70245
5.05711
5.40241
5.73836
6.06501
6.38241
6.69065
6.98983
7.28005
7.56146
7.83419
8.0984
8.35426
8.60194
8.84162
9.07348
9.29773
9.51456
9.72416
9.92674
10.1225
10.3117
10.4944
10.6709
10.8414
11.0062
11.1652
11.3189
11.4673
11.6107
11.7492
11.8831
12.0124
12.1373
12.2581
12.3748
12.4877
12.5968
12.7024
12.8045
12.9033
12.9989
13.0914
13.1809
13.2676
13.3516
13.4329
13.5117
13.5881
13.662
13.7338
13.8033
13.8707
13.936
13.9994
14.0608
14.1203
14.1781
14.234
14.2882
14.3407
14.3915
14.4406
14.4881
14.5339
14.5781
14.6205
14.6613
14.7003
14.7374
14.7727
14.8058
14.8368
14.8654
14.8914
14.9144
14.9341
14.9497
14.9607
14.9658
14.9642
14.9522
14.935
14.8806
-7.70852
-7.74321
-7.80004
-7.87518
-7.97018
-8.08588
-8.22228
-8.37901
-8.55529
-8.75044
-8.96487
-9.1991
-9.45191
-9.72084
-10.0032
-10.2962
-10.5974
-10.904
-11.2136
-11.5239
-11.8325
-12.1375
-12.437
-12.7293
-13.0128
-13.2862
-13.5483
-13.7978
-14.0339
-14.2556
-14.4621
-14.6526
-14.8265
-14.983
-15.1215
-15.2416
-15.3426
-15.424
-15.4853
-15.5261
-15.546
-15.5447
-15.5217
-15.477
-15.4102
-15.3214
-15.2103
-15.0771
-14.9219
-14.7448
-14.5461
-14.3261
-14.0853
-13.824
-13.543
-13.2427
-12.9239
-12.5874
-12.234
-11.8644
-11.4797
-11.0808
-10.6686
-10.2441
-9.80838
-9.36246
-8.90738
-8.44419
-7.97394
-7.49767
-7.01639
-6.53112
-6.04283
-5.55248
-5.06101
-4.5693
-4.07821
-3.58856
-3.10114
-2.6167
-2.13594
-1.65949
-1.18797
-0.721917
-0.261875
0.191681
0.638315
1.07764
1.5093
1.93299
2.34844
2.75543
3.15374
3.54323
3.92377
4.29525
4.65761
5.01081
5.35484
5.68969
6.01541
6.33206
6.63969
6.93841
7.22832
7.50954
7.78222
8.04649
8.30251
8.55045
8.79049
9.02281
9.24758
9.46501
9.67527
9.87858
10.0751
10.2651
10.4487
10.6261
10.7976
10.9632
11.1233
11.2779
11.4274
11.5718
11.7113
11.8461
11.9765
12.1024
12.2242
12.342
12.4558
12.566
12.6725
12.7755
12.8753
12.9718
13.0652
13.1556
13.2432
13.328
13.4102
13.4898
13.567
13.6418
13.7143
13.7845
13.8527
13.9187
13.9828
14.0449
14.1051
14.1635
14.2201
14.2749
14.328
14.3794
14.4291
14.4771
14.5235
14.5681
14.6111
14.6523
14.6916
14.7291
14.7646
14.798
14.8291
14.8576
14.8833
14.9059
14.9248
14.9394
14.949
14.9524
14.9487
14.9343
14.9143
14.8579
-7.64482
-7.67052
-7.71663
-7.77525
-7.84999
-7.94287
-8.05509
-8.18755
-8.34047
-8.51413
-8.70992
-8.92888
-9.16981
-9.43004
-9.70658
-9.99645
-10.2967
-10.6044
-10.9167
-11.2309
-11.5445
-11.8552
-12.1608
-12.4594
-12.7492
-13.0288
-13.2967
-13.5517
-13.7927
-14.0189
-14.2292
-14.4231
-14.5997
-14.7585
-14.8989
-15.0204
-15.1225
-15.2047
-15.2667