/*--------------------------------*- C++ -*----------------------------------*\
| =========                 |                                                 |
| \\      /  F ield         | OpenFOAM: The Open Source CFD Toolbox           |
|  \\    /   O peration     | Version:  v2012                                 |
|   \\  /    A nd           | Website:  www.openfoam.com                      |
|    \\/     M anipulation  |                                                 |
\*---------------------------------------------------------------------------*/
FoamFile
{
    version     2.0;
    format      ascii;
    class       surfaceScalarField;
    location    "4000";
    object      phi;
}
// * * * * * * * * * * * * * * * * * * * * * * * * * * * * * * * * * * * * * //

dimensions      [0 3 -1 0 0 0 0];
oriented        oriented;


internalField   nonuniform List<scalar> 
24170
(
3.92539e-06
-7.91497e-07
3.76461e-06
1.60757e-07
3.63336e-06
1.31209e-07
3.43318e-06
2.0014e-07
3.28006e-06
1.53081e-07
3.18941e-06
9.06344e-08
3.12904e-06
6.02635e-08
3.08114e-06
4.76352e-08
3.04123e-06
3.94972e-08
3.00435e-06
3.63814e-08
2.96977e-06
3.41049e-08
2.9378e-06
3.15342e-08
2.90855e-06
2.89005e-08
2.88207e-06
2.62005e-08
2.85834e-06
2.35212e-08
2.8388e-06
1.94784e-08
2.83079e-06
8.13698e-09
-9.40833e-09
2.84037e-06
3.58444e-06
-9.19498e-07
3.80423e-06
-5.90405e-08
3.74279e-06
1.9262e-07
3.69054e-06
2.52363e-07
3.63724e-06
2.06337e-07
3.58982e-06
1.3799e-07
3.55256e-06
9.74053e-08
3.52376e-06
7.62071e-08
3.50035e-06
6.25592e-08
3.48088e-06
5.53914e-08
3.46382e-06
5.06566e-08
3.44835e-06
4.65063e-08
3.43409e-06
4.27258e-08
3.42065e-06
3.92599e-08
3.40806e-06
3.58137e-08
3.39629e-06
3.10496e-08
3.38469e-06
1.97042e-08
3.76307e-09
3.37126e-06
3.68518e-06
-7.92482e-07
3.83638e-06
-2.1025e-07
3.91492e-06
1.14076e-07
3.94499e-06
2.22289e-07
3.94405e-06
2.07267e-07
3.92721e-06
1.54838e-07
3.90779e-06
1.16835e-07
3.89025e-06
9.37934e-08
3.87465e-06
7.82681e-08
3.86141e-06
6.8758e-08
3.84986e-06
6.2332e-08
3.83928e-06
5.71865e-08
3.82933e-06
5.27277e-08
3.81992e-06
4.8667e-08
3.81121e-06
4.44804e-08
3.80312e-06
3.90805e-08
3.79331e-06
2.94551e-08
1.75019e-08
3.77932e-06
4.05359e-06
-6.41512e-07
4.11459e-06
-2.71264e-07
4.20798e-06
2.0678e-08
4.26634e-06
1.63916e-07
4.29067e-06
1.82908e-07
4.29272e-06
1.52763e-07
4.286e-06
1.23519e-07
4.27703e-06
1.02778e-07
4.2676e-06
8.77751e-08
4.25883e-06
7.76199e-08
4.25084e-06
7.04114e-08
4.24333e-06
6.47451e-08
4.23612e-06
5.99314e-08
4.22916e-06
5.55903e-08
4.22238e-06
5.11733e-08
4.21541e-06
4.59471e-08
4.20622e-06
3.85363e-08
3.03099e-08
4.19315e-06
4.50491e-06
-5.09116e-07
4.51536e-06
-2.81712e-07
4.58528e-06
-4.92446e-08
4.64664e-06
1.02556e-07
4.68256e-06
1.46987e-07
4.6968e-06
1.38532e-07
4.69972e-06
1.20632e-07
4.69775e-06
1.04821e-07
4.69353e-06
9.21075e-08
4.68862e-06
8.26762e-08
4.6836e-06
7.55789e-08
4.67854e-06
6.99231e-08
4.67342e-06
6.51402e-08
4.66818e-06
6.08778e-08
4.66265e-06
5.66991e-08
4.65634e-06
5.22101e-08
4.64784e-06
4.69718e-08
4.20959e-08
4.63589e-06
5.00014e-06
-3.94666e-07
4.98614e-06
-2.67712e-07
5.03068e-06
-9.37952e-08
5.08505e-06
4.81776e-08
5.12452e-06
1.07497e-07
5.14606e-06
1.16968e-07
5.15605e-06
1.10637e-07
5.15977e-06
1.01128e-07
5.16003e-06
9.19222e-08
5.15855e-06
8.42528e-08
5.15618e-06
7.80377e-08
5.15327e-06
7.29164e-08
5.1499e-06
6.85585e-08
5.14605e-06
6.47299e-08
5.14155e-06
6.11676e-08
5.13596e-06
5.77469e-08
5.12836e-06
5.45019e-08
5.23445e-08
5.11794e-06
5.54382e-06
-2.97478e-07
5.51664e-06
-2.40534e-07
5.54055e-06
-1.17698e-07
5.58387e-06
4.85567e-09
5.62165e-06
6.97215e-08
5.64657e-06
9.20566e-08
5.66123e-06
9.59947e-08
5.66931e-06
9.30913e-08
5.67329e-06
8.8014e-08
5.67481e-06
8.28022e-08
5.67485e-06
7.80823e-08
5.67387e-06
7.39673e-08
5.67208e-06
7.04027e-08
5.66951e-06
6.73184e-08
5.66604e-06
6.46365e-08
5.66135e-06
6.24099e-08
5.65493e-06
6.08709e-08
6.07846e-08
5.64643e-06
4.34788e-06
-2.39245e-07
4.32251e-06
-2.15171e-07
4.33078e-06
-1.25969e-07
4.35419e-06
-1.85601e-08
4.3784e-06
4.5501e-08
4.39647e-06
7.39716e-08
4.40846e-06
8.4001e-08
4.41605e-06
8.55218e-08
4.42064e-06
8.34532e-08
4.42326e-06
8.02161e-08
4.42457e-06
7.6817e-08
4.42494e-06
7.36443e-08
4.42454e-06
7.0827e-08
4.42345e-06
6.84191e-08
4.42162e-06
6.64592e-08
4.41893e-06
6.50891e-08
4.41518e-06
6.46058e-08
6.55731e-08
4.41032e-06
5.08622e-06
-1.85603e-07
5.05777e-06
-1.86726e-07
5.0584e-06
-1.26595e-07
5.07686e-06
-3.70272e-08
5.09918e-06
2.31852e-08
5.11774e-06
5.54102e-08
5.13129e-06
7.0459e-08
5.14066e-06
7.61735e-08
5.14691e-06
7.72203e-08
5.15097e-06
7.61839e-08
5.15347e-06
7.43457e-08
5.15481e-06
7.23301e-08
5.15521e-06
7.04425e-08
5.15477e-06
6.88591e-08
5.1535e-06
6.77234e-08
5.15134e-06
6.72381e-08
5.14822e-06
6.76885e-08
6.954e-08
5.14425e-06
5.94839e-06
-1.38198e-07
5.91832e-06
-1.56659e-07
5.91161e-06
-1.19886e-07
5.924e-06
-4.94271e-08
5.94286e-06
4.32043e-09
5.9606e-06
3.76709e-08
5.97485e-06
5.62152e-08
5.98553e-06
6.54987e-08
5.99325e-06
6.95094e-08
5.99871e-06
7.07423e-08
6.00246e-06
7.06127e-08
6.00489e-06
6.99153e-08
6.00624e-06
6.90977e-08
6.00664e-06
6.84552e-08
6.00616e-06
6.8204e-08
6.00482e-06
6.85739e-08
6.00267e-06
6.98386e-08
7.22744e-08
5.9999e-06
6.95439e-06
-9.83183e-08
6.92401e-06
-1.26288e-07
6.91113e-06
-1.07007e-07
6.9168e-06
-5.51011e-08
6.93088e-06
-9.75801e-09
6.94637e-06
2.21756e-08
6.9602e-06
4.23957e-08
6.97146e-06
5.42423e-08
6.98023e-06
6.07496e-08
6.98689e-06
6.40909e-08
6.99184e-06
6.56654e-08
6.99541e-06
6.63393e-08
6.99784e-06
6.66705e-08
6.99929e-06
6.70113e-08
6.99985e-06
6.76415e-08
6.99964e-06
6.87925e-08
6.99879e-06
7.06688e-08
7.34798e-08
6.99759e-06
8.12719e-06
-6.64934e-08
8.09793e-06
-9.70312e-08
8.08056e-06
-8.96343e-08
8.07955e-06
-5.4099e-08
8.08794e-06
-1.81454e-08
8.09987e-06
1.02445e-08
8.11202e-06
3.02471e-08
8.12291e-06
4.33653e-08
8.13207e-06
5.15893e-08
8.13954e-06
5.6622e-08
8.14552e-06
5.96902e-08
8.15021e-06
6.16532e-08
8.1538e-06
6.30704e-08
8.15646e-06
6.43562e-08
8.15833e-06
6.57809e-08
8.15955e-06
6.75707e-08
8.16034e-06
6.98876e-08
7.28323e-08
8.16096e-06
9.49368e-06
-4.24458e-08
9.4668e-06
-7.01544e-08
9.44683e-06
-6.96692e-08
9.43991e-06
-4.71777e-08
9.4423e-06
-2.05335e-08
9.44967e-06
2.86722e-09
9.45898e-06
2.0945e-08
9.46844e-06
3.39116e-08
9.4772e-06
4.28386e-08
9.48494e-06
4.88828e-08
9.49162e-06
5.30218e-08
9.49728e-06
5.59788e-08
9.50206e-06
5.83006e-08
9.50606e-06
6.03485e-08
9.50944e-06
6.24062e-08
9.51236e-06
6.46444e-08
9.51504e-06
6.72016e-08
7.01126e-08
9.51775e-06
1.10854e-05
-2.51669e-08
1.10618e-05
-4.65155e-08
1.1041e-05
-4.88385e-08
1.10294e-05
-3.56018e-08
1.10261e-05
-1.72396e-08
1.10284e-05
5.10697e-10
1.1034e-05
1.53523e-08
1.10411e-05
2.68157e-08
1.10487e-05
3.53011e-08
1.10561e-05
4.14902e-08
1.10631e-05
4.60509e-08
1.10695e-05
4.95462e-08
1.10754e-05
5.23994e-08
1.10808e-05
5.49322e-08
1.10858e-05
5.73576e-08
1.10907e-05
5.98297e-08
1.10954e-05
6.24195e-08
6.51639e-08
1.11004e-05
1.29396e-05
-1.31268e-08
1.29194e-05
-2.62921e-08
1.28988e-05
-2.82838e-08
1.28839e-05
-2.07384e-08
1.28758e-05
-9.0675e-09
1.28732e-05
3.05042e-09
1.28748e-05
1.38187e-08
1.2879e-05
2.26375e-08
1.28847e-05
2.95618e-08
1.28913e-05
3.49281e-08
1.28982e-05
3.91347e-08
1.29052e-05
4.25455e-08
1.29121e-05
4.54526e-08
1.2919e-05
4.80748e-08
1.29258e-05
5.0561e-08
1.29326e-05
5.30049e-08
1.29395e-05
5.54497e-08
5.78988e-08
1.29468e-05
1.50998e-05
-4.49088e-09
1.50822e-05
-8.69068e-09
1.50621e-05
-8.1452e-09
1.50448e-05
-3.509e-09
1.50327e-05
3.04031e-09
1.50259e-05
9.84534e-09
1.50237e-05
1.60445e-08
1.5025e-05
2.13189e-08
1.50289e-05
2.568e-08
1.50346e-05
2.92814e-08
1.50414e-05
3.23211e-08
1.50489e-05
3.49794e-08
1.5057e-05
3.74004e-08
1.50654e-05
3.96867e-08
1.5074e-05
4.1901e-08
1.5083e-05
4.40743e-08
1.50922e-05
4.62094e-08
4.82872e-08
1.51018e-05
1.76171e-05
2.88535e-09
1.75999e-05
8.50537e-09
1.75787e-05
1.29941e-08
1.7559e-05
1.62302e-08
1.75436e-05
1.84023e-08
1.75336e-05
1.98726e-08
1.75287e-05
2.09414e-08
1.75282e-05
2.18638e-08
1.75311e-05
2.27815e-08
1.75366e-05
2.38044e-08
1.75439e-05
2.49674e-08
1.75526e-05
2.62936e-08
1.75622e-05
2.77653e-08
1.75726e-05
2.93638e-08
1.75834e-05
3.10484e-08
1.75947e-05
3.2783e-08
1.76064e-05
3.45179e-08
3.62112e-08
1.76184e-05
1.78181e-05
1.09937e-08
1.77994e-05
2.7186e-08
1.77768e-05
3.55885e-08
1.7756e-05
3.70046e-08
1.77402e-05
3.4266e-08
1.77302e-05
2.98662e-08
1.77257e-05
2.54113e-08
1.77259e-05
2.16657e-08
1.77298e-05
1.895e-08
1.77363e-05
1.72482e-08
1.77449e-05
1.64614e-08
1.77547e-05
1.64049e-08
1.77656e-05
1.69227e-08
1.77771e-05
1.78473e-08
1.77891e-05
1.90578e-08
1.78015e-05
2.04303e-08
1.78141e-05
2.18873e-08
2.33395e-08
1.7827e-05
1.58702e-05
2.2127e-08
1.58478e-05
4.95526e-08
1.58233e-05
6.00914e-08
1.58032e-05
5.71861e-08
1.57899e-05
4.75488e-08
1.57834e-05
3.63071e-08
1.57827e-05
2.61231e-08
1.57863e-05
1.8068e-08
1.5793e-05
1.22713e-08
1.58018e-05
8.50571e-09
1.58119e-05
6.3671e-09
1.58229e-05
5.47616e-09
1.58343e-05
5.486e-09
1.5846e-05
6.12829e-09
1.58579e-05
7.17969e-09
1.58699e-05
8.48251e-09
1.58818e-05
9.90224e-09
1.13559e-08
1.58938e-05
1.41313e-05
3.95339e-08
1.41021e-05
7.86781e-08
1.40745e-05
8.77476e-08
1.40557e-05
7.59867e-08
1.40469e-05
5.63575e-08
1.40462e-05
3.69846e-08
1.40512e-05
2.11536e-08
1.40597e-05
9.5302e-09
1.40703e-05
1.70543e-09
1.40819e-05
-3.10586e-09
1.4094e-05
-5.67754e-09
1.41062e-05
-6.65986e-09
1.41182e-05
-6.54577e-09
1.41301e-05
-5.72002e-09
1.41417e-05
-4.44459e-09
1.41531e-05
-2.92549e-09
1.41643e-05
-1.29124e-09
3.51246e-10
1.41753e-05
1.25772e-05
6.73515e-08
1.25392e-05
1.16713e-07
1.25091e-05
1.17851e-07
1.24942e-05
9.0842e-08
1.24928e-05
5.77616e-08
1.25002e-05
2.96316e-08
1.25123e-05
9.09856e-09
1.25263e-05
-4.53733e-09
1.25409e-05
-1.28389e-08
1.25552e-05
-1.73469e-08
1.25688e-05
-1.92837e-08
1.25817e-05
-1.95318e-08
1.25939e-05
-1.87256e-08
1.26055e-05
-1.72621e-08
1.26165e-05
-1.54556e-08
1.2627e-05
-1.34737e-08
1.26372e-05
-1.1463e-08
-9.48929e-09
1.26471e-05
1.11862e-05
1.10913e-07
1.11384e-05
1.64549e-07
1.11088e-05
1.47485e-07
1.11022e-05
9.7438e-08
1.11117e-05
4.82628e-08
1.1129e-05
1.23649e-08
1.11486e-05
-1.05026e-08
1.11678e-05
-2.37223e-08
1.11855e-05
-3.04957e-08
1.12014e-05
-3.31997e-08
1.12156e-05
-3.34519e-08
1.12283e-05
-3.22726e-08
1.12399e-05
-3.02908e-08
1.12506e-05
-2.79036e-08
1.12605e-05
-2.53429e-08
1.12699e-05
-2.27933e-08
1.12787e-05
-2.03107e-08
-1.79687e-08
1.12872e-05
9.93908e-06
1.7645e-07
9.88248e-06
2.21145e-07
9.85874e-06
1.71232e-07
9.86596e-06
9.02315e-08
9.88965e-06
2.45892e-08
9.91764e-06
-1.56079e-08
9.94397e-06
-3.68023e-08
9.96673e-06
-4.64299e-08
9.98579e-06
-4.94785e-08
1.00017e-05
-4.90795e-08
1.00151e-05
-4.68733e-08
1.00267e-05
-4.3831e-08
1.00369e-05
-4.03935e-08
1.0046e-05
-3.6936e-08
1.00543e-05
-3.35973e-08
1.0062e-05
-3.04682e-08
1.00693e-05
-2.75613e-08
-2.4873e-08
1.00762e-05
8.81963e-06
2.69915e-07
8.75785e-06
2.82933e-07
8.74788e-06
1.81198e-07
8.77483e-06
6.32802e-08
8.81462e-06
-1.51876e-08
8.85218e-06
-5.31366e-08
8.88273e-06
-6.72845e-08
8.90636e-06
-6.99716e-08
8.92439e-06
-6.75564e-08
8.93844e-06
-6.30527e-08
8.94966e-06
-5.80357e-08
8.95901e-06
-5.29319e-08
8.96693e-06
-4.82372e-08
8.97391e-06
-4.38035e-08
8.98016e-06
-3.97954e-08
8.98595e-06
-3.61952e-08
8.99139e-06
-3.29663e-08
-3.00546e-08
8.99656e-06
7.81391e-06
3.96675e-07
7.7539e-06
3.42935e-07
7.76868e-06
1.66416e-07
7.82056e-06
1.14173e-08
7.87572e-06
-7.03385e-08
7.91918e-06
-9.65846e-08
7.94976e-06
-9.78566e-08
7.97068e-06
-9.08113e-08
7.98508e-06
-8.17353e-08
7.99528e-06
-7.31726e-08
8.00302e-06
-6.55769e-08
8.00907e-06
-5.90165e-08
8.01416e-06
-5.31115e-08
8.01848e-06
-4.80172e-08
8.02232e-06
-4.34929e-08
8.02586e-06
-3.97257e-08
8.02925e-06
-3.63864e-08
-3.3328e-08
8.03254e-06
6.90424e-06
5.66769e-07
6.86137e-06
3.85802e-07
6.91717e-06
1.10611e-07
6.99676e-06
-6.81813e-08
7.06258e-06
-1.36157e-07
7.10537e-06
-1.39385e-07
7.13035e-06
-1.22714e-07
7.14455e-06
-1.04968e-07
7.15251e-06
-8.9689e-08
7.15717e-06
-7.76696e-08
7.16016e-06
-6.84647e-08
7.16233e-06
-6.08554e-08
7.16389e-06
-5.4623e-08
7.16519e-06
-4.92723e-08
7.16619e-06
-4.45389e-08
7.16722e-06
-4.07852e-08
7.1684e-06
-3.75368e-08
-3.45552e-08
7.16954e-06
6.07162e-06
7.97663e-07
6.08525e-06
3.72161e-07
6.19865e-06
-2.793e-09
6.29991e-06
-1.69443e-07
6.3653e-06
-2.0155e-07
6.3976e-06
-1.71666e-07
6.41008e-06
-1.35323e-07
6.41335e-06
-1.07927e-07
6.41237e-06
-8.8755e-08
6.40996e-06
-7.52384e-08
6.40743e-06
-6.58802e-08
6.4049e-06
-5.84075e-08
6.40237e-06
-5.2261e-08
6.40011e-06
-4.69169e-08
6.39785e-06
-4.2288e-08
6.39601e-06
-3.89862e-08
6.39461e-06
-3.62408e-08
-3.31916e-08
6.39333e-06
5.35805e-06
1.05451e-06
5.50649e-06
2.23712e-07
5.64777e-06
-1.44089e-07
5.73566e-06
-2.57339e-07
5.77649e-06
-2.42407e-07
5.78329e-06
-1.78578e-07
5.77503e-06
-1.26923e-07
5.76262e-06
-9.56081e-08
5.75014e-06
-7.64421e-08
5.73925e-06
-6.46287e-08
5.73037e-06
-5.72003e-08
5.72241e-06
-5.07442e-08
5.71485e-06
-4.49723e-08
5.70791e-06
-4.01997e-08
5.70155e-06
-3.60385e-08
5.69613e-06
-3.36777e-08
5.69181e-06
-3.18938e-08
-2.85761e-08
5.68717e-06
5.04576e-06
1.01105e-06
5.36491e-06
-9.54587e-08
5.35253e-06
-1.31737e-07
5.33288e-06
-2.37717e-07
5.29604e-06
-2.05638e-07
5.25012e-06
-1.32762e-07
5.20829e-06
-8.51131e-08
5.17419e-06
-6.16591e-08
5.14676e-06
-4.93701e-08
5.12467e-06
-4.29764e-08
5.10675e-06
-3.96708e-08
5.09097e-06
-3.55224e-08
5.07621e-06
-3.0814e-08
5.06264e-06
-2.6986e-08
5.05055e-06
-2.41576e-08
5.04018e-06
-2.34202e-08
5.03145e-06
-2.31771e-08
-2.01418e-08
5.02303e-06
5.4676e-06
5.37214e-06
5.2404e-06
5.00268e-06
4.79702e-06
4.66426e-06
4.57913e-06
4.51741e-06
4.46796e-06
4.42492e-06
4.38514e-06
4.34949e-06
4.31859e-06
4.29155e-06
4.26736e-06
4.24393e-06
4.22076e-06
4.20062e-06
2.478e-08
-2.48003e-08
2.38641e-07
-2.13848e-07
4.89953e-07
-2.5135e-07
7.09245e-07
-2.19293e-07
8.75905e-07
-1.66692e-07
9.86008e-07
-1.10103e-07
1.04054e-06
-5.45638e-08
1.04182e-06
-1.27705e-09
9.95203e-07
4.65993e-08
9.11034e-07
8.41965e-08
8.04628e-07
1.06403e-07
6.9539e-07
1.09304e-07
6.02996e-07
9.24767e-08
5.36912e-07
6.60208e-08
4.85496e-07
5.1549e-08
4.24254e-07
6.09156e-08
3.36545e-07
8.78311e-08
2.08132e-07
1.28309e-07
3.16847e-08
1.76572e-07
-2.13882e-07
2.45864e-07
-5.18901e-07
3.05069e-07
-8.60163e-07
3.41403e-07
-1.22368e-06
3.63496e-07
-1.60022e-06
3.76555e-07
-1.98099e-06
3.80725e-07
-2.35589e-06
3.74886e-07
-2.71698e-06
3.61052e-07
-3.05903e-06
3.42039e-07
-3.37829e-06
3.19237e-07
-3.67243e-06
2.94129e-07
-3.94064e-06
2.682e-07
-4.18325e-06
2.42607e-07
-4.40131e-06
2.18051e-07
-4.59629e-06
1.94978e-07
-4.7699e-06
1.73611e-07
-4.92393e-06
1.54027e-07
-5.06011e-06
1.36186e-07
-5.18008e-06
1.19969e-07
-5.2853e-06
1.05216e-07
-5.37704e-06
9.17467e-08
-5.45642e-06
7.93789e-08
-5.52436e-06
6.79417e-08
-5.58164e-06
5.72802e-08
-5.6289e-06
4.72616e-08
-5.66668e-06
3.77774e-08
-5.69542e-06
2.87414e-08
-5.7155e-06
2.00824e-08
-5.72727e-06
1.17717e-08
-5.73122e-06
3.94509e-09
-5.72819e-06
-3.02615e-09
-5.71929e-06
-8.90279e-09
-5.70528e-06
-1.4009e-08
-5.68655e-06
-1.87295e-08
-5.66336e-06
-2.31923e-08
-5.63587e-06
-2.74857e-08
-5.60424e-06
-3.1637e-08
-5.56857e-06
-3.56608e-08
-5.52901e-06
-3.95639e-08
-5.48566e-06
-4.3347e-08
-5.43866e-06
-4.70092e-08
-5.38811e-06
-5.05477e-08
-5.33415e-06
-5.39592e-08
-5.27691e-06
-5.724e-08
-5.21652e-06
-6.03871e-08
-5.15313e-06
-6.33978e-08
-5.08686e-06
-6.6269e-08
-5.01786e-06
-6.89972e-08
-4.94628e-06
-7.15803e-08
-4.87226e-06
-7.40164e-08
-4.79596e-06
-7.63044e-08
-4.71752e-06
-7.84434e-08
-4.63708e-06
-8.04333e-08
-4.55481e-06
-8.22741e-08
-4.47085e-06
-8.39666e-08
-4.38533e-06
-8.5512e-08
-4.29842e-06
-8.6912e-08
-4.21025e-06
-8.81687e-08
-4.12097e-06
-8.92848e-08
-4.03071e-06
-9.02633e-08
-3.9396e-06
-9.1108e-08
-3.84778e-06
-9.18226e-08
-3.75537e-06
-9.24116e-08
-3.66249e-06
-9.28796e-08
-3.56926e-06
-9.32322e-08
-3.47578e-06
-9.34752e-08
-3.38217e-06
-9.36156e-08
-3.28851e-06
-9.36623e-08
-3.19488e-06
-9.36256e-08
-3.10137e-06
-9.35185e-08
-3.00801e-06
-9.33578e-08
-2.91485e-06
-9.31636e-08
-2.82189e-06
-9.29618e-08
-2.72913e-06
-9.27698e-08
-2.63657e-06
-9.25663e-08
-2.5443e-06
-9.2265e-08
-2.45254e-06
-9.17642e-08
-2.36156e-06
-9.09801e-08
-2.27163e-06
-8.99321e-08
-2.18285e-06
-8.87787e-08
-2.09522e-06
-8.76242e-08
-2.00875e-06
-8.64682e-08
-1.92346e-06
-8.52943e-08
-1.83936e-06
-8.40962e-08
-1.75649e-06
-8.28722e-08
-1.67486e-06
-8.16256e-08
-1.5945e-06
-8.03594e-08
-1.51543e-06
-7.90784e-08
-1.43764e-06
-7.77841e-08
-1.36116e-06
-7.64756e-08
-1.28603e-06
-7.51304e-08
-1.21227e-06
-7.37629e-08
-1.13987e-06
-7.23992e-08
-1.06883e-06
-7.10356e-08
-9.9916e-07
-6.96714e-08
-9.30849e-07
-6.83099e-08
-8.63897e-07
-6.69501e-08
-7.98299e-07
-6.55968e-08
-7.34046e-07
-6.42499e-08
-6.71131e-07
-6.29143e-08
-6.09541e-07
-6.15864e-08
-5.49269e-07
-6.02703e-08
-4.903e-07
-5.89651e-08
-4.32619e-07
-5.76796e-08
-3.762e-07
-5.64146e-08
-3.21027e-07
-5.51712e-08
-2.6708e-07
-5.39437e-08
-2.1434e-07
-5.27394e-08
-1.62785e-07
-5.15528e-08
-1.1241e-07
-5.03756e-08
-6.32084e-08
-4.92061e-08
-1.53104e-08
-4.79117e-08
3.14582e-08
-4.67826e-08
7.74097e-08
-4.59576e-08
1.2241e-07
-4.49929e-08
1.66354e-07
-4.39325e-08
2.09232e-07
-4.28658e-08
2.5105e-07
-4.18204e-08
2.91853e-07
-4.08042e-08
3.31677e-07
-3.98217e-08
3.70563e-07
-3.88667e-08
4.08527e-07
-3.79404e-08
4.45595e-07
-3.70376e-08
4.81777e-07
-3.61631e-08
5.17105e-07
-3.53109e-08
5.51596e-07
-3.44867e-08
5.85279e-07
-3.36844e-08
6.18166e-07
-3.29112e-08
6.50297e-07
-3.21608e-08
6.81696e-07
-3.14383e-08
7.12405e-07
-3.07384e-08
7.42442e-07
-3.00636e-08
7.7184e-07
-2.94107e-08
8.00611e-07
-2.8783e-08
8.28789e-07
-2.81777e-08
8.56388e-07
-2.75974e-08
8.8344e-07
-2.70397e-08
9.09959e-07
-2.65066e-08
9.35978e-07
-2.59958e-08
9.61508e-07
-2.55084e-08
9.8658e-07
-2.50424e-08
1.0112e-06
-2.45971e-08
1.03541e-06
-2.41704e-08
1.05919e-06
-2.37593e-08
1.08259e-06
-2.33606e-08
1.10558e-06
-2.29672e-08
1.12818e-06
-2.25728e-08
1.15036e-06
-2.21641e-08
1.1721e-06
-2.17276e-08
1.19335e-06
-2.1239e-08
1.21402e-06
-2.06696e-08
1.23399e-06
-1.99732e-08
1.25307e-06
-1.90878e-08
1.27097e-06
-1.79148e-08
1.28727e-06
-1.63107e-08
1.30125e-06
-1.40016e-08
1.31179e-06
-1.05709e-08
1.31627e-06
-4.50921e-09
1.30932e-06
6.91946e-09
1.27965e-06
2.9635e-08
7.24709e-08
1.20715e-06
2.53684e-07
-2.78496e-07
4.88903e-07
-4.49066e-07
6.3806e-07
-4.00522e-07
7.22224e-07
-3.0346e-07
7.61195e-07
-2.05678e-07
7.66571e-07
-1.1548e-07
7.45073e-07
-3.30797e-08
7.02397e-07
4.13996e-08
6.41509e-07
1.07479e-07
5.62366e-07
1.63348e-07
4.6418e-07
2.04593e-07
3.45251e-07
2.28238e-07
1.99343e-07
2.38419e-07
1.46524e-08
2.50653e-07
-2.19204e-07
2.85417e-07
-5.06499e-07
3.48136e-07
-8.45198e-07
4.26531e-07
-1.2241e-06
5.07224e-07
-1.62926e-06
5.81765e-07
-2.02956e-06
6.46218e-07
-2.41738e-06
6.92903e-07
-2.79225e-06
7.16304e-07
-3.1471e-06
7.18342e-07
-3.47382e-06
7.03277e-07
-3.76758e-06
6.74477e-07
-4.02758e-06
6.34879e-07
-4.25437e-06
5.87832e-07
-4.44933e-06
5.36994e-07
-4.61542e-06
4.85316e-07
-4.75613e-06
4.34838e-07
-4.87484e-06
3.86901e-07
-4.97469e-06
3.42457e-07
-5.05855e-06
3.0191e-07
-5.12892e-06
2.65339e-07
-5.18788e-06
2.32577e-07
-5.23717e-06
2.03319e-07
-5.27819e-06
1.77198e-07
-5.31204e-06
1.53821e-07
-5.33963e-06
1.3281e-07
-5.3617e-06
1.13815e-07
-5.37885e-06
9.65259e-08
-5.39158e-06
8.06795e-08
-5.40036e-06
6.60554e-08
-5.40557e-06
5.24731e-08
-5.40758e-06
3.97871e-08
-5.40672e-06
2.78835e-08
-5.40332e-06
1.66856e-08
-5.39771e-06
6.15939e-09
-5.39002e-06
-3.73938e-09
-5.37985e-06
-1.32045e-08
-5.36628e-06
-2.24697e-08
-5.34872e-06
-3.15629e-08
-5.32703e-06
-4.04228e-08
-5.30118e-06
-4.9042e-08
-5.27124e-06
-5.74279e-08
-5.23729e-06
-6.55869e-08
-5.19943e-06
-7.35216e-08
-5.15776e-06
-8.12315e-08
-5.1124e-06
-8.87131e-08
-5.06344e-06
-9.59608e-08
-5.01102e-06
-1.02968e-07
-4.95526e-06
-1.09726e-07
-4.89627e-06
-1.16228e-07
-4.83419e-06
-1.22467e-07
-4.76915e-06
-1.28437e-07
-4.70129e-06
-1.34133e-07
-4.63074e-06
-1.39547e-07
-4.55765e-06
-1.44673e-07
-4.48215e-06
-1.4951e-07
-4.4044e-06
-1.54055e-07
-4.32454e-06
-1.58306e-07
-4.24271e-06
-1.62262e-07
-4.15906e-06
-1.65923e-07
-4.07374e-06
-1.69292e-07
-3.98688e-06
-1.72371e-07
-3.89863e-06
-1.75162e-07
-3.80913e-06
-1.7767e-07
-3.71852e-06
-1.799e-07
-3.62692e-06
-1.81859e-07
-3.53448e-06
-1.83553e-07
-3.44131e-06
-1.84989e-07
-3.34755e-06
-1.86176e-07
-3.2533e-06
-1.87124e-07
-3.15869e-06
-1.87841e-07
-3.06383e-06
-1.88338e-07
-2.96882e-06
-1.88628e-07
-2.87376e-06
-1.88722e-07
-2.77876e-06
-1.88633e-07
-2.6839e-06
-1.88374e-07
-2.5893e-06
-1.87958e-07
-2.49507e-06
-1.87397e-07
-2.40134e-06
-1.86699e-07
-2.30826e-06
-1.85857e-07
-2.21598e-06
-1.84843e-07
-2.12464e-06
-1.83613e-07
-2.03426e-06
-1.82137e-07
-1.94483e-06
-1.80414e-07
-1.85628e-06
-1.78484e-07
-1.76863e-06
-1.76424e-07
-1.68197e-06
-1.74289e-07
-1.59634e-06
-1.72089e-07
-1.51181e-06
-1.69828e-07
-1.4284e-06
-1.67505e-07
-1.34615e-06
-1.65126e-07
-1.26508e-06
-1.62695e-07
-1.18522e-06
-1.60218e-07
-1.10659e-06
-1.577e-07
-1.02923e-06
-1.55145e-07
-9.53154e-07
-1.52554e-07
-8.78355e-07
-1.49929e-07
-8.04836e-07
-1.47281e-07
-7.32609e-07
-1.44626e-07
-6.61679e-07
-1.41965e-07
-5.92046e-07
-1.39303e-07
-5.23711e-07
-1.36644e-07
-4.56672e-07
-1.33989e-07
-3.90925e-07
-1.31342e-07
-3.26465e-07
-1.28709e-07
-2.63282e-07
-1.26095e-07
-2.01366e-07
-1.23502e-07
-1.40706e-07
-1.20928e-07
-8.12932e-08
-1.18377e-07
-2.31175e-08
-1.15853e-07
3.38365e-08
-1.13367e-07
8.95979e-08
-1.1093e-07
1.4418e-07
-1.08526e-07
1.97593e-07
-1.06152e-07
2.49852e-07
-1.03812e-07
3.00984e-07
-1.01508e-07
3.51016e-07
-9.92434e-08
4.00114e-07
-9.70176e-08
4.4823e-07
-9.49065e-08
4.95151e-07
-9.2882e-08
5.40968e-07
-9.08083e-08
5.85751e-07
-8.87095e-08
6.29526e-07
-8.66387e-08
6.7232e-07
-8.46162e-08
7.1416e-07
-8.26477e-08
7.55074e-07
-8.07341e-08
7.95088e-07
-7.88722e-08
8.34223e-07
-7.7061e-08
8.72497e-07
-7.52984e-08
9.0993e-07
-7.35856e-08
9.46546e-07
-7.19201e-08
9.82365e-07
-7.03036e-08
1.01741e-06
-6.87346e-08
1.0517e-06
-6.72156e-08
1.08527e-06
-6.57441e-08
1.11813e-06
-6.43218e-08
1.15032e-06
-6.2945e-08
1.18186e-06
-6.16159e-08
1.21277e-06
-6.03312e-08
1.24308e-06
-5.90948e-08
1.27281e-06
-5.79028e-08
1.30198e-06
-5.67596e-08
1.33062e-06
-5.566e-08
1.35873e-06
-5.4609e-08
1.38636e-06
-5.36e-08
1.41351e-06
-5.26378e-08
1.44021e-06
-5.17145e-08
1.46648e-06
-5.08335e-08
1.49232e-06
-4.99848e-08
1.51776e-06
-4.91688e-08
1.5428e-06
-4.8372e-08
1.56745e-06
-4.75886e-08
1.5917e-06
-4.67988e-08
1.61554e-06
-4.59852e-08
1.63894e-06
-4.51153e-08
1.66187e-06
-4.41504e-08
1.68423e-06
-4.30317e-08
1.70594e-06
-4.16782e-08
1.72681e-06
-3.99722e-08
1.74662e-06
-3.77361e-08
1.765e-06
-3.47024e-08
1.78138e-06
-3.04081e-08
1.79489e-06
-2.41003e-08
1.80454e-06
-1.41962e-08
1.80933e-06
2.09623e-09
1.80738e-06
3.15576e-08
8.82063e-08
1.79162e-06
2.45015e-07
-5.23515e-07
3.40199e-07
-5.4425e-07
3.55955e-07
-4.16287e-07
3.44595e-07
-2.92099e-07
3.1656e-07
-1.77652e-07
2.72107e-07
-7.10243e-08
2.10498e-07
2.85184e-08
1.3072e-07
1.2118e-07
3.16644e-08
2.06528e-07
-8.88532e-08
2.83866e-07
-2.36673e-07
3.52411e-07
-4.22445e-07
4.13998e-07
-6.59522e-07
4.75498e-07
-9.54398e-07
5.45501e-07
-1.29627e-06
6.27282e-07
-1.66323e-06
7.15075e-07
-2.03464e-06
7.9795e-07
-2.39404e-06
8.66634e-07
-2.7281e-06
9.15847e-07
-3.02545e-06
9.43583e-07
-3.2817e-06
9.4917e-07
-3.49886e-06
9.33476e-07
-3.68037e-06
8.9985e-07
-3.83e-06
8.52915e-07
-3.95243e-06
7.96899e-07
-4.05302e-06
7.35468e-07
-4.13708e-06
6.71885e-07
-4.20896e-06
6.08873e-07
-4.27208e-06
5.48431e-07
-4.32903e-06
4.91783e-07
-4.38165e-06
4.39524e-07
-4.43107e-06
3.91876e-07
-4.47791e-06
3.48749e-07
-4.52243e-06
3.09858e-07
-4.56466e-06
2.74812e-07
-4.60452e-06
2.43172e-07
-4.64182e-06
2.14501e-07
-4.67638e-06
1.88385e-07
-4.70802e-06
1.64448e-07
-4.73657e-06
1.42362e-07
-4.76189e-06
1.21847e-07
-4.78387e-06
1.02667e-07
-4.80244e-06
8.46234e-08
-4.81752e-06
6.75538e-08
-4.82905e-06
5.1319e-08
-4.83697e-06
3.58005e-08
-4.84118e-06
2.08973e-08
-4.84154e-06
6.51595e-09
-4.83783e-06
-7.45021e-09
-4.82992e-06
-2.1115e-08
-4.81785e-06
-3.45363e-08
-4.80171e-06
-4.77011e-08
-4.78155e-06
-6.05878e-08
-4.7574e-06
-7.31875e-08
-4.72933e-06
-8.54937e-08
-4.69742e-06
-9.75003e-08
-4.66174e-06
-1.09201e-07
-4.62239e-06
-1.20585e-07
-4.57946e-06
-1.31645e-07
-4.53305e-06
-1.42367e-07
-4.48328e-06
-1.5274e-07
-4.43026e-06
-1.6275e-07
-4.3741e-06
-1.72384e-07
-4.31493e-06
-1.81631e-07
-4.25289e-06
-1.90484e-07
-4.18809e-06
-1.98932e-07
-4.12067e-06
-2.06964e-07
-4.05077e-06
-2.14573e-07
-3.97853e-06
-2.21753e-07
-3.90408e-06
-2.28502e-07
-3.82758e-06
-2.34815e-07
-3.74915e-06
-2.40692e-07
-3.66894e-06
-2.46134e-07
-3.58709e-06
-2.51141e-07
-3.50374e-06
-2.55718e-07
-3.41903e-06
-2.59869e-07
-3.3331e-06
-2.636e-07
-3.24609e-06
-2.66917e-07
-3.15812e-06
-2.69831e-07
-3.06932e-06
-2.72349e-07
-2.97983e-06
-2.74483e-07
-2.88976e-06
-2.76245e-07
-2.79924e-06
-2.77646e-07
-2.70838e-06
-2.78701e-07
-2.61729e-06
-2.79422e-07
-2.5261e-06
-2.79826e-07
-2.43489e-06
-2.79926e-07
-2.34379e-06
-2.79738e-07
-2.25289e-06
-2.79277e-07
-2.16229e-06
-2.78555e-07
-2.07211e-06
-2.77583e-07
-1.98244e-06
-2.76368e-07
-1.89339e-06
-2.74909e-07
-1.80504e-06
-2.73192e-07
-1.71745e-06
-2.71203e-07
-1.63065e-06
-2.68939e-07
-1.54465e-06
-2.66417e-07
-1.45946e-06
-2.63672e-07
-1.37513e-06
-2.60751e-07
-1.29173e-06
-2.57689e-07
-1.20931e-06
-2.54505e-07
-1.12793e-06
-2.51211e-07
-1.04762e-06
-2.47818e-07
-9.68409e-07
-2.44335e-07
-8.90333e-07
-2.4077e-07
-8.13417e-07
-2.37134e-07
-7.37684e-07
-2.33433e-07
-6.63153e-07
-2.29676e-07
-5.89837e-07
-2.2587e-07
-5.17743e-07
-2.22022e-07
-4.46878e-07
-2.18145e-07
-3.77254e-07
-2.14249e-07
-3.08876e-07
-2.10342e-07
-2.41746e-07
-2.06433e-07
-1.75864e-07
-2.02525e-07
-1.11228e-07
-1.98624e-07
-4.78329e-08
-1.94735e-07
1.43263e-08
-1.90867e-07
7.52555e-08
-1.87023e-07
1.34962e-07
-1.83207e-07
1.93459e-07
-1.79422e-07
2.50757e-07
-1.75674e-07
3.06874e-07
-1.71967e-07
3.61818e-07
-1.6831e-07
4.15597e-07
-1.64706e-07
4.68226e-07
-1.61153e-07
5.19727e-07
-1.5765e-07
5.70117e-07
-1.54201e-07
6.1942e-07
-1.5081e-07
6.67662e-07
-1.47488e-07
7.14888e-07
-1.44247e-07
7.61075e-07
-1.41097e-07
8.06194e-07
-1.38e-07
8.50297e-07
-1.34908e-07
8.93428e-07
-1.31835e-07
9.35604e-07
-1.28813e-07
9.76844e-07
-1.25857e-07
1.01717e-06
-1.22974e-07
1.0566e-06
-1.20165e-07
1.09516e-06
-1.17427e-07
1.13287e-06
-1.14761e-07
1.16975e-06
-1.12166e-07
1.20582e-06
-1.09643e-07
1.24109e-06
-1.0719e-07
1.27559e-06
-1.04807e-07
1.30935e-06
-1.02495e-07
1.34238e-06
-1.00255e-07
1.37471e-06
-9.80843e-08
1.40636e-06
-9.59843e-08
1.43735e-06
-9.39519e-08
1.46771e-06
-9.19883e-08
1.49747e-06
-9.00921e-08
1.52663e-06
-8.82653e-08
1.55524e-06
-8.65059e-08
1.58329e-06
-8.48162e-08
1.61083e-06
-8.31931e-08
1.63786e-06
-8.16391e-08
1.66441e-06
-8.01495e-08
1.69051e-06
-7.87262e-08
1.71616e-06
-7.73626e-08
1.7414e-06
-7.60588e-08
1.76623e-06
-7.4805e-08
1.79066e-06
-7.35974e-08
1.81472e-06
-7.24207e-08
1.8384e-06
-7.1263e-08
1.86171e-06
-7.00995e-08
1.88463e-06
-6.89031e-08
1.90714e-06
-6.76301e-08
1.92922e-06
-6.62254e-08
1.95079e-06
-6.46077e-08
1.97178e-06
-6.26644e-08
1.99203e-06
-6.02333e-08
2.01136e-06
-5.70726e-08
2.02947e-06
-5.28214e-08
2.04594e-06
-4.68858e-08
2.06016e-06
-3.83297e-08
2.07135e-06
-2.53942e-08
2.07864e-06
-5.20919e-09
2.08249e-06
2.76971e-08
8.57013e-08
2.08499e-06
9.23455e-08
-6.15863e-07
6.0912e-08
-5.12812e-07
1.18859e-08
-3.67266e-07
-4.57539e-08
-2.34454e-07
-1.15812e-07
-1.07599e-07
-2.01751e-07
1.49175e-08
-3.06587e-07
1.33349e-07
-4.32732e-07
2.47325e-07
-5.82789e-07
3.56582e-07
-7.60157e-07
4.6123e-07
-9.69601e-07
5.61855e-07
-1.21536e-06
6.59745e-07
-1.49593e-06
7.56066e-07
-1.80024e-06
8.49801e-07
-2.10948e-06
9.36519e-07
-2.40422e-06
1.00981e-06
-2.67028e-06
1.06401e-06
-2.89963e-06
1.09599e-06
-3.08912e-06
1.10535e-06
-3.23937e-06
1.09384e-06
-3.35467e-06
1.06447e-06
-3.44182e-06
1.02063e-06
-3.50808e-06
9.66107e-07
-3.55988e-06
9.04726e-07
-3.60266e-06
8.39677e-07
-3.64077e-06
7.7358e-07
-3.67741e-06
7.08523e-07
-3.71457e-06
6.46031e-07
-3.75323e-06
5.87086e-07
-3.79364e-06
5.32193e-07
-3.83561e-06
4.81498e-07
-3.87865e-06
4.34916e-07
-3.92212e-06
3.9221e-07
-3.96532e-06
3.5306e-07
-4.00761e-06
3.17104e-07
-4.04841e-06
2.83972e-07
-4.08722e-06
2.53308e-07
-4.12361e-06
2.24782e-07
-4.15726e-06
1.98098e-07
-4.18789e-06
1.72991e-07
-4.21528e-06
1.49233e-07
-4.23924e-06
1.26631e-07
-4.25963e-06
1.05017e-07
-4.27633e-06
8.42519e-08
-4.28923e-06
6.42167e-08
-4.29824e-06
4.48105e-08
-4.30329e-06
2.59475e-08
-4.30432e-06
7.55142e-09
-4.30132e-06
-1.04511e-08
-4.29432e-06
-2.81206e-08
-4.28337e-06
-4.54842e-08
-4.26853e-06
-6.25383e-08
-4.24985e-06
-7.92702e-08
-4.22737e-06
-9.5667e-08
-4.20115e-06
-1.11715e-07
-4.17125e-06
-1.274e-07
-4.13774e-06
-1.42705e-07
-4.10071e-06
-1.57615e-07
-4.06025e-06
-1.72111e-07
-4.01644e-06
-1.86176e-07
-3.96939e-06
-1.9979e-07
-3.9192e-06
-2.12935e-07
-3.866e-06
-2.25592e-07
-3.80988e-06
-2.37745e-07
-3.75098e-06
-2.49383e-07
-3.68943e-06
-2.6049e-07
-3.62534e-06
-2.71054e-07
-3.55884e-06
-2.81065e-07
-3.49008e-06
-2.90515e-07
-3.41919e-06
-2.99398e-07
-3.34629e-06
-3.0771e-07
-3.27153e-06
-3.1545e-07
-3.19505e-06
-3.22617e-07
-3.11698e-06
-3.29214e-07
-3.03745e-06
-3.35245e-07
-2.95661e-06
-3.40715e-07
-2.87458e-06
-3.45632e-07
-2.79149e-06
-3.50005e-07
-2.70748e-06
-3.53845e-07
-2.62266e-06
-3.57163e-07
-2.53717e-06
-3.59974e-07
-2.45112e-06
-3.62292e-07
-2.36464e-06
-3.64132e-07
-2.27783e-06
-3.65511e-07
-2.19081e-06
-3.66446e-07
-2.10368e-06
-3.66955e-07
-2.01655e-06
-3.67056e-07
-1.92952e-06
-3.66767e-07
-1.84269e-06
-3.66104e-07
-1.75617e-06
-3.65084e-07
-1.67003e-06
-3.6372e-07
-1.58438e-06
-3.62024e-07
-1.49928e-06
-3.60002e-07
-1.41482e-06
-3.57657e-07
-1.33103e-06
-3.54989e-07
-1.24796e-06
-3.52008e-07
-1.16564e-06
-3.48736e-07
-1.08411e-06
-3.45204e-07
-1.00342e-06
-3.41445e-07
-9.23613e-07
-3.37492e-07
-8.4475e-07
-3.33367e-07
-7.66872e-07
-3.29089e-07
-6.90018e-07
-3.24673e-07
-6.14219e-07
-3.20133e-07
-5.39505e-07
-3.15484e-07
-4.65901e-07
-3.10737e-07