/*--------------------------------*- C++ -*----------------------------------*\
  =========                 |
  \\      /  F ield         | OpenFOAM: The Open Source CFD Toolbox
   \\    /   O peration     | Website:  https://openfoam.org
    \\  /    A nd           | Version:  8
     \\/     M anipulation  |
\*---------------------------------------------------------------------------*/
FoamFile
{
    version     2.0;
    format      ascii;
    class       volVectorField;
    location    "4000";
    object      U;
}
// * * * * * * * * * * * * * * * * * * * * * * * * * * * * * * * * * * * * * //

dimensions      [0 1 -1 0 0 0 0];

internalField   nonuniform List<vector> 
12225
(
(9.2745 -4.73371 0)
(13.1094 -1.71343 0)
(12.4778 -0.395198 0)
(11.2771 -0.0422041 0)
(10.6314 0.0141384 0)
(10.2979 -9.39921e-05 0)
(10.0776 -0.0165233 0)
(9.91227 -0.00288836 0)
(9.77909 0.0348743 0)
(9.66231 0.0428923 0)
(9.55574 0.0248827 0)
(9.45767 0.0021418 0)
(9.36675 -0.022792 0)
(9.28211 -0.0302253 0)
(9.20232 -0.0217879 0)
(9.13253 -0.0212274 0)
(9.07015 -0.0210396 0)
(9.08962 -0.0276942 0)
(10.2592 0.0928019 0)
(10.7814 0.199339 0)
(10.9594 0.245656 0)
(10.7469 0.229143 0)
(10.5875 0.172969 0)
(10.4527 0.115535 0)
(10.33 0.0823314 0)
(10.2327 0.0647298 0)
(10.155 0.0524762 0)
(10.0894 0.0472331 0)
(10.0323 0.0469922 0)
(9.98212 0.0489899 0)
(9.93785 0.0517975 0)
(9.89833 0.0519427 0)
(9.8615 0.0483254 0)
(9.82886 0.0438439 0)
(9.79429 0.0300814 0)
(9.76827 0.0102876 0)
(9.87768 -0.24504 0)
(9.74285 0.00579113 0)
(10.1971 0.125744 0)
(10.3245 0.179364 0)
(10.3564 0.161548 0)
(10.3311 0.120077 0)
(10.2777 0.090494 0)
(10.2252 0.0746656 0)
(10.1812 0.0658749 0)
(10.1438 0.0600284 0)
(10.1103 0.0562081 0)
(10.0799 0.0536507 0)
(10.052 0.0511363 0)
(10.026 0.0487623 0)
(10.0023 0.0460758 0)
(9.98118 0.0417688 0)
(9.95915 0.0316721 0)
(9.93459 0.0135816 0)
(9.83416 -0.443933 0)
(9.57654 -0.163146 0)
(9.91603 0.0336707 0)
(10.0933 0.134225 0)
(10.1892 0.145473 0)
(10.2168 0.120738 0)
(10.205 0.0978952 0)
(10.1824 0.0839094 0)
(10.1599 0.0756294 0)
(10.1389 0.069712 0)
(10.119 0.0651342 0)
(10.1001 0.0616374 0)
(10.0821 0.0586132 0)
(10.0648 0.0562295 0)
(10.0483 0.0538552 0)
(10.0325 0.0501458 0)
(10.0148 0.0424202 0)
(9.99178 0.0306167 0)
(9.87825 -0.387476 0)
(9.61653 -0.196147 0)
(9.81623 -0.01867 0)
(9.96136 0.0916131 0)
(10.0698 0.122197 0)
(10.1219 0.113628 0)
(10.1354 0.0992642 0)
(10.1332 0.088421 0)
(10.1257 0.0809483 0)
(10.1162 0.0753965 0)
(10.1056 0.071124 0)
(10.0946 0.0678818 0)
(10.0833 0.0652543 0)
(10.0718 0.0631568 0)
(10.0601 0.0610452 0)
(10.0477 0.0581076 0)
(10.0328 0.0530828 0)
(10.0125 0.0469061 0)
(9.91439 -0.28804 0)
(9.68304 -0.185176 0)
(9.78717 -0.0532073 0)
(9.88917 0.0509995 0)
(9.98796 0.0936801 0)
(10.0476 0.099204 0)
(10.0751 0.0938743 0)
(10.0861 0.0875181 0)
(10.0892 0.0821205 0)
(10.0879 0.0777645 0)
(10.0842 0.0743508 0)
(10.0789 0.0717602 0)
(10.0726 0.069742 0)
(10.0654 0.0681724 0)
(10.0572 0.0667265 0)
(10.0476 0.0650444 0)
(10.0354 0.0627849 0)
(10.0185 0.061173 0)
(9.93763 -0.214041 0)
(9.74856 -0.167535 0)
(9.79244 -0.0752152 0)
(9.85608 0.0162207 0)
(9.93595 0.0644222 0)
(9.99281 0.0805954 0)
(10.0261 0.0835613 0)
(10.0447 0.0822435 0)
(10.0546 0.0797794 0)
(10.0593 0.0772875 0)
(10.0606 0.0751759 0)
(10.0596 0.0735592 0)
(10.057 0.0723896 0)
(10.053 0.0716357 0)
(10.0477 0.0711914 0)
(10.0407 0.071017 0)
(10.0312 0.0712797 0)
(10.0182 0.0731542 0)
(9.95263 -0.167334 0)
(9.79947 -0.149676 0)
(9.81177 -0.0846411 0)
(9.84959 -0.00621008 0)
(9.9114 0.0419321 0)
(9.96107 0.0638973 0)
(9.99432 0.0725501 0)
(10.0156 0.0752863 0)
(10.0288 0.07553 0)
(10.0367 0.0749036 0)
(10.041 0.074148 0)
(10.0427 0.073582 0)
(10.0425 0.0733235 0)
(10.0408 0.0734491 0)
(10.0375 0.0740065 0)
(10.0325 0.0751373 0)
(10.0254 0.0772061 0)
(10.0157 0.0812062 0)
(9.96406 -0.132089 0)
(9.84003 -0.131988 0)
(9.83337 -0.0876898 0)
(9.85306 -0.0213325 0)
(9.89927 0.0244158 0)
(9.94102 0.0495132 0)
(9.97207 0.0621235 0)
(9.99385 0.0680769 0)
(10.0086 0.0706961 0)
(10.0184 0.0717948 0)
(10.0246 0.0723178 0)
(10.0282 0.0727538 0)
(10.0298 0.0733608 0)
(10.0297 0.0743196 0)
(10.028 0.0757878 0)
(10.0248 0.0780087 0)
(10.0197 0.081412 0)
(10.0129 0.0868093 0)
(9.97418 -0.100205 0)
(9.87757 -0.11239 0)
(9.85857 -0.0853661 0)
(9.86387 -0.0323327 0)
(9.89487 0.00892913 0)
(9.92743 0.0352242 0)
(9.95439 0.0507173 0)
(9.97502 0.0594972 0)
(9.99014 0.0644444 0)
(10.0009 0.0673596 0)
(10.0085 0.0692984 0)
(10.0135 0.0708782 0)
(10.0166 0.072477 0)
(10.018 0.0743698 0)
(10.0179 0.0768026 0)
(10.0164 0.0800772 0)
(10.0136 0.084619 0)
(10.0095 0.0910445 0)
(9.98253 -0.0727091 0)
(9.91035 -0.0921962 0)
(9.88507 -0.0782441 0)
(9.88001 -0.0386073 0)
(9.89746 -0.00337367 0)
(9.92043 0.0221693 0)
(9.94196 0.0391847 0)
(9.95999 0.0500814 0)
(9.97425 0.0570567 0)
(9.98518 0.0617055 0)
(9.99339 0.06508 0)
(9.99941 0.067864 0)
(10.0037 0.070517 0)
(10.0064 0.0733853 0)
(10.0078 0.0767707 0)
(10.0081 0.0809929 0)
(10.0073 0.0864256 0)
(10.0058 0.0935047 0)
(9.98894 -0.0502566 0)
(9.93733 -0.072378 0)
(9.91073 -0.0674479 0)
(9.89917 -0.0399825 0)
(9.90566 -0.0116494 0)
(9.91955 0.0114526 0)
(9.93496 0.0285312 0)
(9.94934 0.040581 0)
(9.96169 0.0490251 0)
(9.97188 0.0551123 0)
(9.98009 0.0597805 0)
(9.98659 0.0637037 0)
(9.99163 0.0673723 0)
(9.99544 0.0711654 0)
(9.9982 0.0754043 0)
(10.0001 0.0803916 0)
(10.0013 0.0864274 0)
(10.0021 0.0937952 0)
(9.99348 -0.0329085 0)
(9.9582 -0.0538109 0)
(9.93368 -0.0542832 0)
(9.91898 -0.0367869 0)
(9.91755 -0.0154529 0)
(9.92366 0.00399551 0)
(9.93301 0.0197762 0)
(9.94318 0.0318775 0)
(9.9529 0.0410115 0)
(9.96163 0.0480215 0)
(9.96922 0.0536484 0)
(9.9757 0.0584847 0)
(9.98118 0.0629935 0)
(9.98578 0.0675426 0)
(9.98965 0.0724355 0)
(9.99294 0.0779324 0)
(9.99587 0.0842552 0)
(9.9987 0.0915751 0)
(9.99643 -0.0202024 0)
(9.97327 -0.0372096 0)
(9.95261 -0.040045 0)
(9.93731 -0.0298102 0)
(9.93089 -0.0148229 0)
(9.93102 0.000367305 0)
(9.93504 0.0137751 0)
(9.94104 0.0248437 0)
(9.94782 0.03376 0)
(9.95465 0.0409923 0)
(9.96117 0.047051 0)
(9.96724 0.0523961 0)
(9.97281 0.0574129 0)
(9.9779 0.0624164 0)
(9.98261 0.0676606 0)
(9.98704 0.0733479 0)
(9.99135 0.079629 0)
(9.99573 0.0865972 0)
(9.99816 -0.0112875 0)
(9.9833 -0.0229303 0)
(9.96682 -0.0257622 0)
(9.95243 -0.0200761 0)
(9.94344 -0.010241 0)
(9.93952 0.000675882 0)
(9.9394 0.011031 0)
(9.94183 0.0201451 0)
(9.94582 0.0279264 0)
(9.95069 0.0345731 0)
(9.95597 0.0403869 0)
(9.96139 0.0456776 0)
(9.96681 0.0507232 0)
(9.97216 0.0557557 0)
(9.97744 0.0609591 0)
(9.9827 0.0664701 0)
(9.98803 0.0723779 0)
(9.99354 0.0787231 0)
(9.99906 -0.00508069 0)
(9.98922 -0.0107805 0)
(9.97612 -0.0119163 0)
(9.96309 -0.008482 0)
(9.9531 -0.00243376 0)
(9.94685 0.00457971 0)
(9.94399 0.0115587 0)
(9.94384 0.018022 0)
(9.9457 0.0238403 0)
(9.94896 0.0290822 0)
(9.95317 0.0339031 0)
(9.95799 0.0384797 0)
(9.96321 0.0429768 0)
(9.96868 0.0475316 0)
(9.97435 0.0522483 0)
(9.98019 0.0571968 0)
(9.98623 0.0624123 0)
(9.99249 0.0678973 0)
(9.99942 -0.000367047 0)
(9.99181 0.000152126 0)
(9.98042 0.00183298 0)
(9.96821 0.00459457 0)
(9.9579 0.00792118 0)
(9.95061 0.0114028 0)
(9.94642 0.0148181 0)
(9.94498 0.0180901 0)
(9.94576 0.0212356 0)
(9.94825 0.0243206 0)
(9.95198 0.0274264 0)
(9.95661 0.0306302 0)
(9.96186 0.0339941 0)
(9.96757 0.0375624 0)
(9.97362 0.0413585 0)
(9.97993 0.0453876 0)
(9.98648 0.049635 0)
(9.99325 0.0540713 0)
(9.99935 0.00408498 0)
(9.9911 0.0111736 0)
(9.97897 0.0161341 0)
(9.96616 0.0187377 0)
(9.95552 0.0196141 0)
(9.94819 0.0195479 0)
(9.94419 0.0191612 0)
(9.94312 0.0188642 0)
(9.94438 0.0188973 0)
(9.94741 0.0193777 0)
(9.95174 0.0203461 0)
(9.95699 0.0217973 0)
(9.96287 0.0237005 0)
(9.96919 0.0260107 0)
(9.97583 0.0286764 0)
(9.9827 0.0316409 0)
(9.98974 0.0348462 0)
(9.99692 0.0382315 0)
(9.99882 0.00972992 0)
(9.98675 0.0240493 0)
(9.97122 0.0318474 0)
(9.95641 0.0332949 0)
(9.94558 0.0307055 0)
(9.93942 0.0263517 0)
(9.93734 0.0217491 0)
(9.93845 0.0177405 0)
(9.94186 0.0146963 0)
(9.94687 0.0127123 0)
(9.95292 0.0117329 0)
(9.95963 0.011639 0)
(9.96674 0.0122916 0)
(9.97408 0.0135546 0)
(9.98155 0.0153028 0)
(9.98908 0.0174264 0)
(9.99665 0.0198283 0)
(10.0042 0.022425 0)
(9.99757 0.0182101 0)
(9.97773 0.0404558 0)
(9.95664 0.0495783 0)
(9.93945 0.0474799 0)
(9.92961 0.0394252 0)
(9.92659 0.0296486 0)
(9.92848 0.0204917 0)
(9.93357 0.012968 0)
(9.94055 0.00734981 0)
(9.94856 0.00351892 0)
(9.95704 0.00122457 0)
(9.96568 0.000176878 0)
(9.97428 0.000112401 0)
(9.98276 0.000797471 0)
(9.99109 0.0020449 0)
(9.99925 0.00370175 0)
(10.0073 0.00564491 0)
(10.0151 0.00777788 0)
(9.99502 0.0318146 0)
(9.96177 0.0621341 0)
(9.93372 0.0695522 0)
(9.91534 0.060116 0)
(9.90932 0.0439521 0)
(9.91249 0.0276614 0)
(9.92084 0.0139948 0)
(9.93162 0.00363992 0)
(9.94323 -0.00364182 0)
(9.9548 -0.00837364 0)
(9.96595 -0.0111295 0)
(9.97653 -0.0123912 0)
(9.98651 -0.012565 0)
(9.99595 -0.0119511 0)
(10.0049 -0.0107858 0)
(10.0135 -0.00924457 0)
(10.0217 -0.00745704 0)
(10.0296 -0.00552252 0)
(9.99018 0.0534619 0)
(9.93561 0.0901522 0)
(9.90098 0.0906283 0)
(9.88515 0.0687576 0)
(9.8878 0.0418197 0)
(9.90121 0.0186593 0)
(9.91856 0.00141775 0)
(9.93627 -0.0103963 0)
(9.95285 -0.0179414 0)
(9.96786 -0.0223936 0)
(9.98129 -0.0246485 0)
(9.99333 -0.0253873 0)
(10.0042 -0.0250884 0)
(10.0141 -0.0241087 0)
(10.0232 -0.022686 0)
(10.0318 -0.0209904 0)
(10.0399 -0.0191449 0)
(10.0475 -0.0172227 0)
(9.9819 0.0862471 0)
(9.89548 0.124258 0)
(9.85817 0.109884 0)
(9.85209 0.0697744 0)
(9.87033 0.0303385 0)
(9.89842 0.00144924 0)
(9.92658 -0.0172044 0)
(9.95135 -0.0283211 0)
(9.9722 -0.0344209 0)
(9.9896 -0.0373307 0)
(10.0043 -0.0382064 0)
(10.0168 -0.0377975 0)
(10.0276 -0.03661 0)
(10.0372 -0.0349683 0)
(10.0459 -0.0330717 0)
(10.0539 -0.0310689 0)
(10.0613 -0.029051 0)
(10.0683 -0.0270601 0)
(9.96925 0.13399 0)
(9.83823 0.163089 0)
(9.80793 0.122591 0)
(9.82311 0.0588003 0)
(9.86512 0.00730855 0)
(9.91138 -0.0240263 0)
(9.95035 -0.0405907 0)
(9.98048 -0.048372 0)
(10.0034 -0.0512368 0)
(10.0212 -0.0515395 0)
(10.0354 -0.0504167 0)
(10.0469 -0.0485108 0)
(10.0565 -0.0462495 0)
(10.0649 -0.0438487 0)
(10.0723 -0.041411 0)
(10.079 -0.0390534 0)
(10.0852 -0.036865 0)
(10.0911 -0.0348085 0)
(9.94951 0.207141 0)
(9.76128 0.207022 0)
(9.75726 0.123478 0)
(9.81042 0.0320113 0)
(9.88382 -0.0278607 0)
(9.94874 -0.0559946 0)
(9.99526 -0.066073 0)
(10.0266 -0.0678024 0)
(10.048 -0.0659742 0)
(10.063 -0.0631948 0)
(10.0743 -0.0598871 0)
(10.083 -0.0564937 0)
(10.09 -0.0531442 0)
(10.0959 -0.05012 0)
(10.1011 -0.0472753 0)
(10.1056 -0.0446415 0)
(10.1099 -0.0423614 0)
(10.114 -0.0402919 0)
(9.91094 0.322718 0)
(9.65923 0.254545 0)
(9.71887 0.107407 0)
(9.83329 -0.0119228 0)
(9.94173 -0.0726522 0)
(10.0199 -0.0901624 0)
(10.0662 -0.0893227 0)
(10.0917 -0.0831396 0)
(10.1058 -0.0760397 0)
(10.1141 -0.0696211 0)
(10.1198 -0.0644978 0)
(10.1236 -0.0600791 0)
(10.1262 -0.0563769 0)
(10.1281 -0.0532569 0)
(10.1299 -0.0503078 0)
(10.1313 -0.0475393 0)
(10.1327 -0.0454148 0)
(10.1343 -0.0437095 0)
(9.84404 0.43511 0)
(9.53798 0.261026 0)
(9.7269 0.0591351 0)
(9.92367 -0.0731152 0)
(10.0584 -0.121552 0)
(10.1344 -0.120192 0)
(10.1664 -0.105281 0)
(10.1758 -0.0906187 0)
(10.1759 -0.0784835 0)
(10.1726 -0.0703804 0)
(10.1686 -0.0644387 0)
(10.1647 -0.0597644 0)
(10.1605 -0.0556908 0)
(10.1569 -0.052645 0)
(10.1537 -0.0498187 0)
(10.1504 -0.0470669 0)
(10.1474 -0.0455496 0)
(10.1458 -0.0445227 0)
(9.83598 0.319666 0)
(9.55021 0.0912513 0)
(9.91739 -0.0687253 0)
(10.1507 -0.160112 0)
(10.2634 -0.172136 0)
(10.3032 -0.142727 0)
(10.2978 -0.112095 0)
(10.276 -0.0899561 0)
(10.2516 -0.0753889 0)
(10.2302 -0.0674596 0)
(10.2132 -0.0619473 0)
(10.1984 -0.0574665 0)
(10.1843 -0.0528841 0)
(10.1714 -0.0489137 0)
(10.1601 -0.0449561 0)
(10.1492 -0.0416356 0)
(10.1401 -0.0411324 0)
(10.133 -0.0405926 0)
(10.2049 -0.0633775 0)
(10.4095 -0.191706 0)
(10.7164 -0.282558 0)
(10.6879 -0.282287 0)
(10.6191 -0.230103 0)
(10.5417 -0.163668 0)
(10.4545 -0.117044 0)
(10.3763 -0.0925014 0)
(10.3137 -0.0798693 0)
(10.2654 -0.0678697 0)
(10.2262 -0.0589192 0)
(10.1917 -0.0543244 0)
(10.1604 -0.0537153 0)
(10.1329 -0.0526848 0)
(10.1064 -0.0517451 0)
(10.0822 -0.0506229 0)
(10.065 -0.0449212 0)
(10.047 -0.0399315 0)
(9.41631 4.45107 0)
(12.7294 2.07612 0)
(12.5649 0.621213 0)
(11.569 0.127657 0)
(10.9309 0.00343493 0)
(10.5866 -0.00206737 0)
(10.3638 0.0123107 0)
(10.2022 0.0302358 0)
(10.0795 0.0412057 0)
(9.97727 0.0358132 0)
(9.88482 0.0251219 0)
(9.79873 0.0219466 0)
(9.72289 0.0252791 0)
(9.65533 0.0212709 0)
(9.59834 0.0166201 0)
(9.5506 0.01578 0)
(9.49778 -0.00227282 0)
(9.44717 -0.027208 0)
(-0.0275169 0.0934288 0)
(0.137016 -0.183502 0)
(0.32498 -0.305888 0)
(0.525463 -0.31511 0)
(0.702936 -0.272066 0)
(0.833483 -0.211076 0)
(0.9098 -0.146337 -8.60208e-20)
(0.940381 -0.0824935 8.66449e-20)
(0.919509 -0.0201719 0)
(0.858826 0.0345373 9.18657e-20)
(0.771671 0.0739594 0)
(0.672411 0.0920039 0)
(0.57849 0.0877222 0)
(0.505692 0.0666615 -1.43206e-19)
(0.455741 0.0377086 0)
(0.412399 0.00997288 0)
(0.352867 -0.00897342 1.87934e-19)
(0.262709 -0.00867988 0)
(0.135167 0.0293045 0)
(-0.0448258 0.112947 0)
(-0.300538 0.18649 -1.64815e-19)
(-0.594237 0.23526 0)
(-0.915658 0.266818 -7.6239e-20)
(-1.25191 0.296036 0)
(-1.59134 0.323655 0)
(-1.93108 0.336464 -4.13225e-20)
(-2.2635 0.335616 0)
(-2.58061 0.326493 3.45406e-20)
(-2.87939 0.310356 0)
(-3.1564 0.289556 -3.13415e-20)
(-3.41076 0.26642 0)
(-3.64206 0.242539 0)
(-3.85103 0.218949 0)
(-4.03877 0.196355 0)
(-4.20672 0.175133 0)
(-4.35644 0.15549 2.82297e-20)
(-4.48951 0.137462 0)
(-4.60742 0.120978 -5.55709e-20)
(-4.71155 0.105909 0)
(-4.80312 0.0920966 5.47722e-20)
(-4.88318 0.079379 0)
(-4.95263 0.0676039 0)
(-5.01223 0.0566434 -5.35502e-20)
(-5.0626 0.0464008 0)
(-5.10424 0.0368168 -5.26584e-20)
(-5.13756 0.0278743 5.21806e-20)
(-5.16296 0.0196175 0)
(-5.18082 0.0121942 5.11538e-20)
(-5.19143 0.00585241 5.06013e-20)
(-5.19496 0.000802506 0)
(-5.19264 -0.00315119 0)
(-5.18572 -0.00644958 0)
(-5.17434 -0.0093721 0)
(-5.15882 -0.0120829 0)
(-5.13932 -0.0146516 -4.61819e-20)
(-5.11597 -0.0170917 0)
(-5.0889 -0.0194147 4.43167e-20)
(-5.05821 -0.0216295 0)
(-5.02399 -0.0237382 0)
(-4.98636 -0.025743 -4.11386e-20)
(-4.9454 -0.0276439 0)
(-4.90124 -0.0294412 3.8763e-20)
(-4.85398 -0.0311346 0)
(-4.80374 -0.032724 0)
(-4.75062 -0.0342094 0)
(-4.69476 -0.0355907 -3.33835e-20)
(-4.63627 -0.0368682 0)
(-4.57529 -0.0380431 0)
(-4.51192 -0.0391158 -2.87862e-20)
(-4.44632 -0.0400871 0)
(-4.3786 -0.0409584 -2.54449e-20)
(-4.3089 -0.0417311 0)
(-4.23735 -0.042407 0)
(-4.16408 -0.0429878 0)
(-4.08922 -0.0434758 1.80676e-20)
(-4.0129 -0.0438731 0)
(-3.93526 -0.0441819 0)
(-3.85641 -0.0444042 1.18857e-20)
(-3.77649 -0.0445413 9.69188e-21)
(-3.69561 -0.0445946 0)
(-3.6139 -0.044565 5.09013e-21)
(-3.53146 -0.0444559 0)
(-3.44842 -0.044275 3.64782e-22)
(-3.36488 -0.044035 0)
(-3.28094 -0.0437519 -1.01249e-20)
(-3.19669 -0.0434341 0)
(-3.11222 -0.0430766 2.13683e-20)
(-3.02762 -0.042673 0)
(-2.94295 -0.0422501 0)
(-2.85829 -0.0418904 0)
(-2.77366 -0.0416867 -4.65597e-20)
(-2.68907 -0.0416858 0)
(-2.60455 -0.0419359 6.08332e-20)
(-2.52007 -0.0425292 0)
(-2.43557 -0.0434278 -7.65035e-20)
(-2.35132 -0.0443305 -8.48815e-20)
(-2.26755 -0.0447834 -9.35897e-20)
(-2.18453 -0.0445772 0)
(-2.10242 -0.0439717 0)
(-2.02124 -0.0432736 0)
(-1.94099 -0.0425686 0)
(-1.86171 -0.0418684 0)
(-1.78339 -0.0411739 0)
(-1.70608 -0.040487 0)
(-1.62979 -0.0398113 0)
(-1.55454 -0.0391527 1.927e-19)
(-1.48037 -0.0385181 2.0702e-19)
(-1.40726 -0.0379131 0)
(-1.33525 -0.0373266 0)
(-1.26436 -0.0367014 0)
(-1.19463 -0.0360438 2.74288e-19)
(-1.12605 -0.0354098 0)
(-1.05863 -0.0347943 0)
(-0.992382 -0.0341987 0)
(-0.927296 -0.0336247 0)
(-0.863375 -0.0330744 -3.9093e-19)
(-0.800618 -0.0325502 0)
(-0.739021 -0.0320553 0)
(-0.678577 -0.0315931 4.89112e-19)
(-0.61928 -0.0311653 -5.28813e-19)
(-0.561123 -0.0307753 0)
(-0.504098 -0.0304336 -6.22429e-19)
(-0.448192 -0.030164 0)
(-0.393386 -0.030011 7.41418e-19)
(-0.339659 -0.0299856 0)
(-0.286996 -0.0300493 0)
(-0.235384 -0.030189 0)
(-0.184793 -0.0304158 0)
(-0.135198 -0.0307452 0)
(-0.0866436 -0.031196 -2.8468e-18)
(-0.0393405 -0.0316499 -3.2776e-18)
(0.00676393 -0.0313492 0)
(0.0521803 -0.0298503 0)
(0.0969188 -0.0279995 0)
(0.140838 -0.0262812 2.68449e-18)
(0.183845 -0.0247481 0)
(0.225919 -0.0233744 0)
(0.267084 -0.0221367 0)
(0.30737 -0.021015 2.03979e-18)
(0.346811 -0.0199921 -1.93353e-18)
(0.385432 -0.0190538 0)
(0.423261 -0.0181886 0)
(0.460322 -0.0173874 -1.68682e-18)
(0.49664 -0.0166427 -1.62217e-18)
(0.532238 -0.0159482 0)
(0.567139 -0.0152988 0)
(0.601366 -0.0146903 1.46392e-18)
(0.634941 -0.0141191 -1.42044e-18)
(0.667887 -0.013582 0)
(0.700227 -0.0130765 0)
(0.731983 -0.0126001 -1.31016e-18)
(0.763178 -0.0121508 0)
(0.793835 -0.011727 0)
(0.823976 -0.011327 -1.22266e-18)
(0.853626 -0.0109495 0)
(0.882807 -0.0105931 -1.17358e-18)
(0.911542 -0.0102568 0)
(0.939856 -0.00993938 0)
(0.96777 -0.00963983 0)
(0.995307 -0.0093571 1.09158e-18)
(1.02249 -0.00909005 0)
(1.04934 -0.00883744 0)
(1.07587 -0.00859781 0)
(1.10209 -0.00836937 0)
(1.12803 -0.00814987 0)
(1.15367 -0.0079364 0)
(1.17902 -0.00772509 9.82777e-19)
(1.20405 -0.0075108 9.69856e-19)
(1.22872 -0.00728653 0)
(1.25296 -0.00704274 0)
(1.27668 -0.00676593 0)
(1.29969 -0.00643749 -9.24505e-19)
(1.32176 -0.00602769 0)
(1.3425 -0.00549779 1.8139e-18)
(1.36144 -0.00476078 -1.80052e-18)
(1.37718 -0.0037252 -1.79179e-18)
(1.38977 -0.00195392 1.79009e-18)
(1.39019 0.00132762 -1.79547e-18)
(1.3875 0.0080749 1.80879e-18)
(1.30823 0.0198884 0)
(0.0963151 -0.268981 0)
(0.334067 -0.681262 0)
(0.514171 -0.706513 1.57362e-19)
(0.611811 -0.57134 0)
(0.662807 -0.408893 -1.1114e-19)
(0.683246 -0.253823 -1.08106e-19)
(0.67722 -0.112174 -5.62555e-20)
(0.646846 0.0155829 -5.62008e-20)
(0.603869 0.1254 0)
(0.544675 0.21192 -6.08094e-20)
(0.467864 0.267396 0)
(0.373381 0.283197 0)
(0.25758 0.256429 1.70496e-19)
(0.11025 0.211431 9.8287e-20)
(-0.0747748 0.206279 -1.84467e-19)
(-0.301042 0.271828 -1.438e-19)
(-0.57902 0.383401 -5.7191e-20)
(-0.904949 0.513237 0)
(-1.25854 0.642601 0)
(-1.61664 0.75643 0)
(-1.97226 0.841988 -2.85759e-20)
(-2.31785 0.895557 0)
(-2.64774 0.919044 6.90648e-20)
(-2.95446 0.915466 0)
(-3.23397 0.889031 0)
(-3.48461 0.844866 1.982e-20)
(-3.70499 0.7883 0)
(-3.89593 0.724866 -1.97622e-20)
(-4.05932 0.658792 -4.17987e-20)
(-4.19871 0.592791 2.0169e-20)
(-4.31701 0.528965 0)
(-4.4171 0.469097 0)
(-4.50172 0.414017 0)
(-4.57325 0.364077 -4.42601e-20)
(-4.63376 0.319238 -4.47664e-20)
(-4.68494 0.279228 -2.21904e-20)
(-4.72818 0.243636 0)
(-4.76456 0.211981 4.53085e-20)
(-4.795 0.183763 0)
(-4.82021 0.158503 -4.58803e-20)
(-4.84077 0.135759 0)
(-4.85718 0.115138 0)
(-4.86986 0.0962987 4.60907e-20)
(-4.87918 0.0789501 0)
(-4.88548 0.062852 1.38173e-19)
(-4.88907 0.0478101 -4.56112e-20)
(-4.89025 0.0336889 0)
(-4.88923 0.020458 -4.4942e-20)
(-4.8863 0.00823367 -4.44854e-20)
(-4.88171 -0.00282213 0)
(-4.87457 -0.0127651 0)
(-4.86374 -0.0218912 0)
(-4.84923 -0.0304436 0)
(-4.83094 -0.0385367 0)
(-4.8089 -0.0462403 4.02194e-20)
(-4.78316 -0.0535914 7.91691e-20)
(-4.7538 -0.0606109 -3.84421e-20)
(-4.72091 -0.0673102 0)
(-4.68458 -0.0736951 7.34908e-20)
(-4.64489 -0.0797683 -3.59691e-20)
(-4.60195 -0.0855303 0)
(-4.55586 -0.0909809 -3.3269e-20)
(-4.50672 -0.0961202 0)
(-4.45465 -0.100949 0)
(-4.39975 -0.10547 -5.98962e-20)
(-4.34214 -0.109683 2.83875e-20)
(-4.28194 -0.113587 -5.47046e-20)
(-4.21927 -0.117187 5.19858e-20)
(-4.15426 -0.120485 2.42958e-20)
(-4.08703 -0.123486 0)
(-4.01771 -0.126195 2.13628e-20)
(-3.94643 -0.128618 0)
(-3.87332 -0.130762 0)
(-3.79849 -0.132634 0)
(-3.72209 -0.134241 1.56364e-20)
(-3.64424 -0.135594 0)
(-3.56506 -0.1367 2.377e-20)
(-3.48468 -0.13757 -2.99791e-20)
(-3.40321 -0.138214 -7.94329e-21)
(-3.32078 -0.138643 0)
(-3.23751 -0.138868 -4.14263e-21)
(-3.1535 -0.138902 0)
(-3.06886 -0.138756 -2.94546e-22)
(-2.9837 -0.138442 0)
(-2.89813 -0.137969 8.11133e-21)
(-2.81223 -0.13735 -2.35649e-20)
(-2.72611 -0.136596 -1.6965e-20)
(-2.63986 -0.135721 0)
(-2.55356 -0.134735 0)
(-2.4673 -0.133643 0)
(-2.38119 -0.132438 3.61828e-20)
(-2.29533 -0.131112 0)
(-2.20987 -0.12964 -4.66539e-20)
(-2.12495 -0.127971 0)
(-2.04071 -0.126045 1.71875e-19)
(-1.95722 -0.123889 6.363e-20)
(-1.87449 -0.121607 6.96613e-20)
(-1.79248 -0.119302 0)
(-1.71115 -0.117033 0)
(-1.63055 -0.114799 0)
(-1.55077 -0.112577 0)
(-1.47184 -0.110353 0)
(-1.3938 -0.108122 2.19487e-19)
(-1.3167 -0.105886 2.34979e-19)
(-1.24056 -0.103646 0)
(-1.1654 -0.101408 -1.34758e-19)
(-1.09126 -0.0991718 -1.43537e-19)
(-1.01816 -0.0969409 0)
(-0.946114 -0.0947169 -3.23029e-19)
(-0.87515 -0.0925042 0)
(-0.805258 -0.0903162 1.8132e-19)
(-0.736447 -0.0881589 0)
(-0.668728 -0.0860324 0)
(-0.602105 -0.0839391 -4.34442e-19)
(-0.536581 -0.0818804 0)
(-0.472157 -0.079858 2.44828e-19)
(-0.408832 -0.0778749 0)
(-0.346606 -0.0759366 0)
(-0.285472 -0.0740521 2.89764e-19)
(-0.225421 -0.0722194 3.09069e-19)
(-0.166447 -0.070433 0)
(-0.108544 -0.068696 -3.46363e-19)
(-0.0517179 -0.0670085 0)
(0.00403531 -0.065362 3.82626e-19)
(0.0587567 -0.0637496 7.66157e-19)
(0.11248 -0.0621825 0)
(0.165205 -0.0606754 0)
(0.216933 -0.059233 0)
(0.267678 -0.0578529 0)
(0.317474 -0.0565373 7.09209e-19)
(0.366389 -0.0552751 2.09636e-18)
(0.414511 -0.0538959 0)
(0.461752 -0.0522496 0)
(0.507973 -0.0504748 0)
(0.553241 -0.0487274 -6.65602e-19)
(0.597639 -0.0470593 0)
(0.641195 -0.0454787 0)
(0.683927 -0.0439831 1.28789e-18)
(0.725854 -0.0425662 6.36925e-19)
(0.767 -0.0412203 6.32401e-19)
(0.807385 -0.0399389 0)
(0.84703 -0.0387166 0)
(0.885957 -0.0375488 6.1586e-19)
(0.924188 -0.036432 -6.09625e-19)
(0.961744 -0.0353632 0)
(0.998646 -0.0343398 0)
(1.03492 -0.0333598 -5.96768e-19)
(1.07058 -0.0324213 1.77633e-18)
(1.10565 -0.0315227 0)
(1.14015 -0.0306626 0)
(1.1741 -0.0298397 5.80302e-19)
(1.20753 -0.0290528 0)
(1.24046 -0.0283009 1.14489e-18)
(1.27291 -0.0275828 -5.68517e-19)
(1.3049 -0.0268976 0)
(1.33645 -0.0262444 5.62404e-19)
(1.36759 -0.0256221 1.11753e-18)
(1.39834 -0.0250296 0)
(1.42871 -0.0244657 0)
(1.45874 -0.0239288 -5.4957e-19)
(1.48843 -0.0234174 0)
(1.51781 -0.0229289 1.08643e-18)
(1.54689 -0.0224607 0)
(1.57569 -0.0220089 0)
(1.60421 -0.0215684 0)
(1.63246 -0.0211327 0)
(1.66043 -0.0206929 -5.28993e-19)
(1.68809 -0.0202367 -5.26225e-19)
(1.71542 -0.019748 0)
(1.74235 -0.0192039 0)
(1.76879 -0.0185729 0)
(1.7946 -0.0178093 5.16131e-19)
(1.81958 -0.0168461 0)
(1.84339 -0.0155802 -1.02484e-18)
(1.86563 -0.0138347 1.02259e-18)
(1.88537 -0.0113248 1.0222e-18)
(1.90217 -0.00731009 1.02329e-18)
(1.91238 -0.000519767 1.02846e-18)
(1.92468 0.0124233 1.02035e-18)
(1.90512 0.0361844 0)
(0.116438 -0.859705 0)
(0.269012 -1.05682 0)
(0.316105 -0.826 -1.26331e-19)
(0.315411 -0.58423 -1.0817e-19)
(0.29798 -0.373767 1.0049e-19)
(0.266772 -0.188642 1.00671e-19)
(0.220589 -0.0231836 -6.44808e-22)
(0.158693 0.124558 0)
(0.0809557 0.255098 0)
(-0.013858 0.366015 0)
(-0.129306 0.451724 0)
(-0.273452 0.512785 0)
(-0.459212 0.566611 -2.67334e-19)
(-0.697073 0.641347 0)
(-0.983298 0.753905 6.62769e-20)
(-1.30203 0.895873 5.7176e-20)
(-1.63532 1.04398 0)
(-1.96625 1.178 0)
(-2.27959 1.28538 0)
(-2.56347 1.35909 0)
(-2.81259 1.39483 3.49044e-20)
(-3.02652 1.39239 0)
(-3.20667 1.35643 -3.23471e-20)
(-3.35586 1.29419 0)
(-3.47857 1.21299 0)
(-3.57939 1.11922 0)
(-3.66315 1.01897 -6.8589e-20)
(-3.73419 0.917583 0)
(-3.79606 0.819176 3.3118e-20)
(-3.85151 0.726551 -7.07025e-20)
(-3.90249 0.641222 0)
(-3.95028 0.563925 0)
(-3.99564 0.494711 0)
(-4.03893 0.433196 3.65652e-20)
(-4.08027 0.378731 3.71525e-20)
(-4.11961 0.330542 0)
(-4.1568 0.287835 0)
(-4.19169 0.249847 -7.78021e-20)
(-4.22409 0.215886 -7.8195e-20)
(-4.25383 0.18534 7.8428e-20)
(-4.28077 0.157691 0)
(-4.30481 0.13251 0)
(-4.32584 0.109449 0)
(-4.34379 0.0882231 0)
(-4.35861 0.068599 -7.70116e-20)
(-4.37024 0.0503767 -7.69136e-20)
(-4.3786 0.0333721 7.62706e-20)
(-4.38357 0.0173842 0)
(-4.38496 0.00215675 0)
(-4.38263 -0.0125968 0)
(-4.37651 -0.0270094 0)
(-4.36666 -0.0409945 -7.1107e-20)
(-4.35315 -0.0544603 0)
(-4.33599 -0.0673954 0)
(-4.31523 -0.0798042 -6.69953e-20)
(-4.29094 -0.0916954 -6.49696e-20)
(-4.26316 -0.103076 0)
(-4.23197 -0.113951 1.24571e-19)
(-4.19746 -0.124322 -6.00316e-20)
(-4.1597 -0.134189 5.82551e-20)
(-4.11878 -0.14355 0)
(-4.0748 -0.152402 0)
(-4.02785 -0.160745 0)
(-3.97805 -0.168577 0)
(-3.9255 -0.175902 4.84235e-20)
(-3.87031 -0.18272 9.37779e-20)
(-3.8126 -0.189031 4.40581e-20)
(-3.75248 -0.194839 -4.1786e-20)
(-3.69007 -0.200149 0)
(-3.62549 -0.204968 7.54267e-20)
(-3.55887 -0.209304 7.05436e-20)
(-3.49033 -0.213166 6.55442e-20)
(-3.42 -0.216564 -6.04291e-20)
(-3.348 -0.21951 0)
(-3.27446 -0.222017 -7.41023e-20)
(-3.1995 -0.224097 0)
(-3.12324 -0.225766 2.00964e-20)
(-3.0458 -0.227039 1.58734e-20)
(-2.96731 -0.227932 0)
(-2.88788 -0.22846 0)
(-2.80763 -0.228643 1.53638e-20)
(-2.72667 -0.228497 0)
(-2.6451 -0.228041 2.92949e-21)
(-2.56305 -0.227295 0)
(-2.4806 -0.226276 9.99294e-21)
(-2.39787 -0.225005 3.47131e-20)
(-2.31495 -0.2235 0)
(-2.23194 -0.221778 0)
(-2.14893 -0.219861 0)
(-2.06602 -0.217766 4.45766e-20)
(-1.98331 -0.21551 0)
(-1.90089 -0.213101 5.93978e-20)
(-1.81886 -0.210541 0)
(-1.73731 -0.207816 0)
(-1.65632 -0.2049 -1.67039e-19)
(-1.5759 -0.201777 0)
(-1.4961 -0.198461 -9.93052e-20)
(-1.4169 -0.194996 0)
(-1.33834 -0.191438 -1.16584e-19)
(-1.26047 -0.187826 0)
(-1.18337 -0.184178 0)
(-1.10707 -0.180502 0)
(-1.03161 -0.176804 -4.62661e-19)
(-0.957044 -0.173091 -1.65033e-19)
(-0.883389 -0.169368 0)
(-0.810675 -0.165644 0)
(-0.738927 -0.161924 0)
(-0.668167 -0.158213 0)
(-0.598412 -0.154515 2.18826e-19)
(-0.529674 -0.150836 -4.5844e-19)
(-0.461959 -0.147186 -2.42658e-19)
(-0.395279 -0.143573 5.07629e-19)
(-0.329644 -0.140002 5.33426e-19)
(-0.265059 -0.136479 2.81362e-19)
(-0.201527 -0.133008 0)
(-0.139049 -0.129587 6.16189e-19)
(-0.0776261 -0.12622 0)
(-0.0172597 -0.122911 -6.7352e-19)
(0.0420562 -0.11966 -3.45144e-19)
(0.100335 -0.116469 0)
(0.157583 -0.11334 6.93093e-19)
(0.213807 -0.110277 3.48816e-19)
(0.269015 -0.10728 0)
(0.323219 -0.104338 3.48709e-19)
(0.376428 -0.101442 -1.05277e-18)
(0.428648 -0.0986003 0)
(0.479895 -0.0958232 0)
(0.530186 -0.0931135 0)
(0.579537 -0.0904719 0)
(0.627971 -0.0879031 -7.0772e-19)
(0.675523 -0.0854142 -7.10213e-19)
(0.722215 -0.08302 0)
(0.768014 -0.0807078 0)
(0.812905 -0.0784384 0)
(0.85694 -0.0762107 0)
(0.900162 -0.0740409 0)
(0.942588 -0.0719377 0)
(0.98423 -0.0699037 -7.13991e-19)
(1.0251 -0.0679386 -1.08881e-21)
(1.06523 -0.0660408 0)
(1.10463 -0.0642083 0)
(1.14331 -0.0624392 -7.13826e-19)
(1.18131 -0.0607316 0)
(1.21864 -0.0590838 7.14874e-19)
(1.25532 -0.0574945 7.14013e-19)
(1.29136 -0.0559623 0)
(1.32681 -0.0544861 0)
(1.36166 -0.0530647 -7.14547e-19)
(1.39595 -0.051697 -1.4273e-18)
(1.42969 -0.0503821 0)
(1.46291 -0.0491189 0)
(1.49562 -0.0479066 0)
(1.52786 -0.0467442 -7.13241e-19)
(1.55963 -0.0456307 7.1286e-19)
(1.59096 -0.0445652 0)
(1.62188 -0.0435466 1.42284e-18)
(1.65239 -0.0425737 7.10402e-19)
(1.68254 -0.0416451 -1.42079e-18)
(1.71233 -0.0407593 0)
(1.74178 -0.0399141 0)
(1.77092 -0.0391071 -1.41698e-18)
(1.79976 -0.0383349 -7.082e-19)
(1.82832 -0.0375931 0)
(1.85662 -0.0368762 0)
(1.88466 -0.0361765 0)
(1.91244 -0.0354839 0)
(1.93996 -0.0347848 -1.40684e-18)
(1.96722 -0.0340609 0)
(1.99417 -0.0332874 0)
(2.02078 -0.0324299 0)
(2.04696 -0.0314405 0)
(2.0726 -0.0302509 0)
(2.09753 -0.0287603 0)
(2.12149 -0.0268173 -1.39749e-18)
(2.14414 -0.0241702 0)
(2.16481 -0.0204138 0)
(2.18327 -0.0147558 -2.81621e-18)
(2.19671 -0.00587881 1.41813e-18)
(2.2114 0.00887451 -1.41624e-18)
(2.20631 0.0362523 1.4117e-18)
(0.0333186 -1.16606 0)
(0.0696797 -1.02975 3.59938e-19)
(0.0339256 -0.746792 0)
(-0.010532 -0.506316 1.10879e-19)
(-0.0658679 -0.283598 0)
(-0.133734 -0.0740108 0)
(-0.21698 0.122841 -8.2807e-20)
(-0.31798 0.306222 0)
(-0.438859 0.47569 0)
(-0.582223 0.631802 0)
(-0.751926 0.777095 0)
(-0.95318 0.917671 0)
(-1.18861 1.06164 2.04195e-19)
(-1.45264 1.21242 9.24354e-20)
(-1.73079 1.36374 -8.36875e-20)
(-2.00469 1.50226 0)
(-2.2586 1.61416 0)
(-2.48249 1.69009 0)
(-2.67156 1.72633 0)
(-2.82438 1.72415 0)
(-2.94354 1.6874 6.01629e-20)
(-3.03456 1.62132 5.88463e-20)
(-3.10356 1.53277 -5.79934e-20)
(-3.15686 1.42939 5.76919e-20)
(-3.19985 1.31789 0)
(-3.23688 1.20368 0)
(-3.27141 1.09112 5.5845e-20)
(-3.30579 0.983491 0)
(-3.34131 0.882913 0)
(-3.37847 0.790428 5.86994e-20)
(-3.41728 0.706277 6.15174e-20)
(-3.4574 0.630235 6.2229e-20)
(-3.49828 0.56177 0)
(-3.53932 0.500187 0)
(-3.5799 0.444725 -6.40391e-20)
(-3.61947 0.394628 0)
(-3.65752 0.349185 0)
(-3.69364 0.307753 6.43121e-20)
(-3.72749 0.269766 -6.60321e-20)
(-3.75879 0.234737 6.60426e-20)
(-3.78732 0.20225 0)
(-3.81288 0.171956 0)
(-3.83533 0.143557 1.30018e-19)
(-3.85455 0.116804 0)
(-3.87041 0.0914842 1.2863e-19)
(-3.88283 0.0674212 1.91042e-19)
(-3.89174 0.0444715 -1.894e-19)
(-3.89705 0.0225145 1.25332e-19)
(-3.89873 0.00143334 0)
(-3.89679 -0.018888 0)
(-3.89125 -0.0385277 1.19876e-19)
(-3.88217 -0.0575046 5.84071e-20)
(-3.86959 -0.0758148 0)
(-3.85353 -0.093457 0)
(-3.83405 -0.110431 5.49009e-20)
(-3.81117 -0.126735 1.08252e-19)
(-3.78497 -0.142369 0)
(-3.75549 -0.157329 -1.01799e-19)
(-3.72283 -0.171613 9.99699e-20)
(-3.68703 -0.185214 -9.6998e-20)
(-3.6482 -0.198128 0)
(-3.60642 -0.210351 0)
(-3.56178 -0.221876 0)
(-3.51438 -0.232701 0)
(-3.46433 -0.242831 0)
(-3.41172 -0.252265 -7.59251e-20)
(-3.35667 -0.261003 0)
(-3.29929 -0.269049 0)
(-3.23969 -0.276411 0)
(-3.178 -0.283097 -1.22626e-19)
(-3.11432 -0.289118 -5.67057e-20)
(-3.04879 -0.294486 -5.26045e-20)
(-2.98152 -0.299216 9.8044e-20)
(-2.91262 -0.303321 -4.53645e-20)
(-2.84223 -0.306821 3.98127e-20)
(-2.77046 -0.309732 0)
(-2.69744 -0.312075 -3.08901e-20)
(-2.62327 -0.31387 0)
(-2.54807 -0.31514 0)
(-2.47197 -0.315906 0)
(-2.39506 -0.316193 -2.54937e-20)
(-2.31747 -0.316022 8.487e-21)
(-2.23929 -0.315421 4.76964e-21)
(-2.16064 -0.314411 -2.97782e-21)
(-2.08161 -0.313019 -2.10003e-20)
(-2.00231 -0.311269 -1.29962e-20)