/*--------------------------------*- C++ -*----------------------------------*\
  =========                 |
  \\      /  F ield         | OpenFOAM: The Open Source CFD Toolbox
   \\    /   O peration     | Website:  https://openfoam.org
    \\  /    A nd           | Version:  8
     \\/     M anipulation  |
\*---------------------------------------------------------------------------*/
FoamFile
{
    version     2.0;
    format      ascii;
    class       volScalarField;
    location    "1700";
    object      p;
}
// * * * * * * * * * * * * * * * * * * * * * * * * * * * * * * * * * * * * * //

dimensions      [0 2 -2 0 0 0 0];

internalField   nonuniform List<scalar> 
12225
(
-4.23104
-5.11701
-5.5163
-5.65143
-5.79016
-5.9461
-6.08205
-6.19336
-6.28796
-6.3727
-6.45076
-6.52004
-6.58118
-6.64182
-6.70415
-6.76904
-6.84487
-6.92752
-4.50161
-5.14063
-5.47597
-5.61234
-5.74882
-5.90306
-6.04091
-6.15292
-6.25148
-6.33904
-6.4184
-6.49498
-6.56321
-6.62382
-6.68324
-6.74521
-6.81154
-6.86713
-4.70373
-5.13362
-5.45692
-5.62142
-5.7627
-5.91263
-6.04704
-6.15762
-6.25461
-6.34138
-6.41971
-6.49212
-6.55713
-6.61652
-6.67437
-6.73179
-6.78828
-6.83324
-4.8504
-5.16117
-5.46856
-5.64087
-5.7734
-5.9112
-6.03894
-6.14699
-6.24172
-6.32691
-6.40407
-6.47507
-6.53984
-6.59955
-6.6565
-6.71112
-6.76251
-6.80418
-4.97895
-5.21211
-5.48559
-5.65516
-5.78178
-5.91172
-6.03523
-6.14154
-6.23446
-6.31827
-6.39463
-6.46466
-6.52866
-6.58743
-6.64251
-6.6942
-6.7416
-6.78068
-5.09729
-5.26991
-5.50296
-5.6675
-5.79144
-5.91465
-6.03277
-6.13605
-6.22664
-6.30864
-6.38365
-6.45228
-6.51498
-6.5725
-6.6259
-6.6753
-6.71993
-6.75753
-5.20588
-5.33132
-5.52549
-5.6816
-5.80202
-5.91783
-6.02952
-6.12927
-6.21758
-6.29777
-6.3713
-6.43861
-6.50014
-6.55656
-6.60854
-6.65613
-6.69883
-6.73545
-5.28966
-5.38576
-5.55005
-5.69568
-5.81176
-5.92125
-6.02726
-6.12362
-6.20972
-6.2881
-6.36009
-6.42612
-6.48654
-6.54191
-6.5927
-6.63896
-6.6804
-6.71633
-5.35812
-5.43453
-5.57463
-5.70941
-5.821
-5.92508
-6.02598
-6.11902
-6.20293
-6.27949
-6.34997
-6.41475
-6.4741
-6.52847
-6.57824
-6.62345
-6.66397
-6.69943
-5.42636
-5.48668
-5.60374
-5.72593
-5.83186
-5.9302
-6.02552
-6.11469
-6.19597
-6.27041
-6.3391
-6.40238
-6.46047
-6.51369
-6.56234
-6.60649
-6.64615
-6.68115
-5.49346
-5.54078
-5.63702
-5.74546
-5.84444
-5.93668
-6.0261
-6.11084
-6.18904
-6.26103
-6.32761
-6.38913
-6.44573
-6.49763
-6.54506
-6.58815
-6.62698
-6.66155
-5.55827
-5.59535
-5.67357
-5.76789
-5.85871
-5.9445
-6.02781
-6.10764
-6.18228
-6.25146
-6.31566
-6.37515
-6.43003
-6.48045
-6.52659
-6.56859
-6.60663
-6.64072
-5.6195
-5.64867
-5.7119
-5.79258
-5.87443
-5.95342
-6.03051
-6.10514
-6.17577
-6.24182
-6.30337
-6.3606
-6.41358
-6.46239
-6.50719
-6.5481
-6.58533
-6.61895
-5.67557
-5.69872
-5.7499
-5.81825
-5.89093
-5.96292
-6.03386
-6.10314
-6.16952
-6.23215
-6.29087
-6.34571
-6.39666
-6.4438
-6.48722
-6.52706
-6.56347
-6.59659
-5.7244
-5.74307
-5.78495
-5.84285
-5.90688
-5.97207
-6.03711
-6.10123
-6.16331
-6.22246
-6.2783
-6.3307
-6.37963
-6.4251
-6.46717
-6.50594
-6.54157
-6.57415
-5.76319
-5.77867
-5.81377
-5.8635
-5.92019
-5.9793
-6.03911
-6.09861
-6.15674
-6.21262
-6.26573
-6.31585
-6.36289
-6.40679
-6.44759
-6.48537
-6.52026
-6.55235
-5.78798
-5.80139
-5.83211
-5.87633
-5.92774
-5.98225
-6.03804
-6.09397
-6.149
-6.20224
-6.25313
-6.30138
-6.34684
-6.38944
-6.4292
-6.46616
-6.50045
-6.53216
-5.79241
-5.8051
-5.83425
-5.87639
-5.92558
-5.97804
-6.03192
-6.08615
-6.13963
-6.19151
-6.2412
-6.28842
-6.33298
-6.37485
-6.414
-6.4505
-6.48446
-6.51598
-5.77621
-5.78952
-5.81994
-5.86347
-5.91374
-5.96684
-6.0212
-6.07576
-6.1295
-6.18147
-6.23117
-6.27831
-6.32279
-6.36454
-6.4036
-6.44002
-6.47394
-6.50548
-5.74479
-5.75988
-5.79403
-5.84183
-5.89562
-5.95139
-6.00795
-6.06445
-6.11974
-6.17289
-6.22345
-6.27124
-6.31617
-6.35826
-6.39754
-6.43414
-6.46819
-6.49987
-5.70155
-5.71971
-5.76016
-5.81482
-5.87389
-5.93362
-5.99364
-6.05321
-6.11095
-6.16596
-6.21791
-6.26677
-6.31251
-6.35516
-6.39485
-6.43174
-6.46601
-6.49785
-5.64847
-5.67143
-5.72133
-5.78515
-5.85051
-5.91493
-5.97933
-6.04278
-6.10356
-6.16081
-6.21448
-6.26465
-6.31134
-6.35467
-6.39481
-6.432
-6.46648
-6.49849
-5.58659
-5.61698
-5.68021
-5.75507
-5.8269
-5.89637
-5.96586
-6.03372
-6.09776
-6.15744
-6.213
-6.26462
-6.31234
-6.35635
-6.39692
-6.43436
-6.46897
-6.50103
-5.51617
-5.55817
-5.63957
-5.72618
-5.80373
-5.87862
-5.95394
-6.02644
-6.0937
-6.15577
-6.21324
-6.2663
-6.31502
-6.35966
-6.40061
-6.43826
-6.47297
-6.50513
-5.43675
-5.49696
-5.60244
-5.69986
-5.78133
-5.86188
-5.94367
-6.02096
-6.09139
-6.15586
-6.21523
-6.26963
-6.31918
-6.36424
-6.40532
-6.44291
-6.47744
-6.50938
-5.34764
-5.43514
-5.5708
-5.67709
-5.76083
-5.84692
-5.93481
-6.01627
-6.08953
-6.15637
-6.21772
-6.27362
-6.32418
-6.36989
-6.41129
-6.44899
-6.48352
-6.51558
-5.24869
-5.37675
-5.54257
-5.654
-5.74132
-5.83471
-5.92847
-6.01315
-6.08843
-6.15688
-6.21942
-6.27602
-6.32691
-6.37265
-6.41386
-6.45123
-6.48549
-6.5175
-5.13453
-5.33496
-5.51855
-5.62252
-5.71448
-5.81917
-5.92156
-6.01157
-6.09102
-6.16303
-6.22826
-6.28666
-6.33861
-6.38479
-6.42587
-6.46259
-6.49626
-6.52883
-4.97059
-5.32593
-5.53196
-5.61377
-5.70015
-5.80882
-5.91404
-6.00497
-6.08538
-6.15883
-6.22555
-6.28522
-6.33818
-6.38505
-6.42633
-6.46245
-6.49446
-6.52371
-4.70781
-5.25635
-5.52305
-5.6109
-5.70492
-5.82347
-5.93512
-6.02949
-6.11164
-6.18589
-6.25287
-6.31248
-6.36516
-6.41159
-6.45215
-6.48684
-6.51551
-6.53762
-7.44582
-7.44592
-7.44596
-7.44594
-7.44565
-7.4445
-7.4421
-7.43889
-7.43582
-7.43386
-7.43399
-7.43639
-7.44058
-7.44581
-7.45134
-7.45651
-7.46078
-7.46375
-7.46539
-7.46604
-7.46597
-7.46537
-7.46448
-7.46355
-7.46282
-7.46238
-7.46217
-7.46204
-7.46183
-7.46146
-7.46092
-7.46024
-7.45937
-7.45821
-7.45684
-7.45551
-7.45481
-7.4554
-7.45741
-7.4602
-7.46286
-7.46487
-7.46638
-7.46784
-7.4697
-7.4725
-7.47613
-7.47951
-7.48197
-7.48469
-7.49091
-7.50484
-7.52779
-7.55913
-7.59869
-7.64634
-7.70181
-7.76442
-7.83213
-7.90291
-7.97501
-8.04644
-8.11552
-8.18148
-8.24376
-8.30156
-8.35474
-8.40323
-8.44704
-8.48625
-8.52095
-8.55123
-8.57716
-8.59881
-8.61621
-8.62939
-8.63833
-8.64303
-8.64346
-8.63959
-8.63137
-8.61877
-8.60174
-8.58023
-8.55417
-8.52349
-8.48808
-8.44787
-8.40276
-8.35273
-8.29774
-8.23774
-8.17269
-8.10251
-8.02715
-7.94655
-7.86064
-7.76941
-7.6729
-7.5711
-7.4637
-7.35041
-7.2313
-7.1065
-6.97605
-6.83996
-6.69827
-6.55101
-6.39823
-6.23999
-6.07637
-5.90745
-5.73335
-5.55416
-5.37003
-5.18109
-4.9875
-4.78941
-4.58699
-4.38041
-4.16986
-3.95551
-3.73756
-3.51618
-3.29157
-3.06392
-2.83342
-2.60026
-2.36461
-2.12663
-1.88649
-1.64437
-1.40049
-1.15505
-0.90821
-0.660152
-0.411097
-0.161242
0.089533
0.341142
0.593303
0.845826
1.09857
1.35134
1.60399
1.85632
2.10819
2.35937
2.60969
2.85897
3.10705
3.35378
3.599
3.84254
4.08423
4.32393
4.56148
4.79673
5.02958
5.25988
5.48752
5.71239
5.93438
6.15337
6.36926
6.58194
6.79131
6.99726
7.19972
7.39858
7.59376
7.78517
7.97272
8.15632
8.33588
8.51135
8.68283
8.85025
9.01663
9.17308
-7.44698
-7.44715
-7.44749
-7.44786
-7.44784
-7.44706
-7.44521
-7.44285
-7.44116
-7.44107
-7.44286
-7.44638
-7.45115
-7.45652
-7.46191
-7.46681
-7.47088
-7.47392
-7.47573
-7.47612
-7.4752
-7.47327
-7.47076
-7.46814
-7.46582
-7.46404
-7.46284
-7.46203
-7.46138
-7.46076
-7.46017
-7.45961
-7.45899
-7.45822
-7.45727
-7.45651
-7.45664
-7.45816
-7.46088
-7.46388
-7.46605
-7.4669
-7.46684
-7.46611
-7.46475
-7.46401
-7.46604
-7.47211
-7.47881
-7.48482
-7.4936
-7.50722
-7.52709
-7.55619
-7.59646
-7.64793
-7.70892
-7.77647
-7.84805
-7.92143
-7.99431
-8.06499
-8.13296
-8.19719
-8.25669
-8.31168
-8.36217
-8.4082
-8.44988
-8.48727
-8.52047
-8.54954
-8.57451
-8.59542
-8.61228
-8.62507
-8.63376
-8.63833
-8.63872
-8.63489
-8.62679
-8.61437
-8.59757
-8.57634
-8.55062
-8.52033
-8.48538
-8.44567
-8.40114
-8.35172
-8.29739
-8.2381
-8.17379
-8.1044
-8.02986
-7.95007
-7.86494
-7.77438
-7.67825
-7.57644
-7.46904
-7.35622
-7.23791
-7.114
-6.98445
-6.8493
-6.70853
-6.56219
-6.41032
-6.25299
-6.09025
-5.92222
-5.74896
-5.57062
-5.38731
-5.19917
-5.00635
-4.80901
-4.60732
-4.40144
-4.19156
-3.97786
-3.76052
-3.53974
-3.3157
-3.08859
-2.85861
-2.62595
-2.39077
-2.15324
-1.91351
-1.67178
-1.42826
-1.18312
-0.936498
-0.68849
-0.439218
-0.188909
0.0620257
0.313451
0.565425
0.817782
1.07037
1.32301
1.57555
1.8278
2.0796
2.33074
2.58104
2.83032
3.07844
3.32524
3.57055
3.8142
4.05605
4.29591
4.53365
4.76912
5.00219
5.23273
5.46062
5.68576
5.90802
6.1273
6.34349
6.55649
6.76618
6.97247
7.17527
7.37449
7.57005
7.76186
7.94985
8.13396
8.31417
8.4904
8.66291
8.83102
8.99951
9.15527
-7.44823
-7.44822
-7.44825
-7.44832
-7.44839
-7.44842
-7.44864
-7.44954
-7.45159
-7.45492
-7.45935
-7.46452
-7.47001
-7.47542
-7.48037
-7.48458
-7.48783
-7.49003
-7.4911
-7.49098
-7.48969
-7.48737
-7.48419
-7.48035
-7.47608
-7.47166
-7.46738
-7.4635
-7.46022
-7.45762
-7.45566
-7.45411
-7.45271
-7.45146
-7.45084
-7.4515
-7.45398
-7.45807
-7.46245
-7.46538
-7.46552
-7.46339
-7.46095
-7.45999
-7.46043
-7.46168
-7.46578
-7.47469
-7.4877
-7.50484
-7.52721
-7.55522
-7.58937
-7.63017
-7.67761
-7.73101
-7.7892
-7.85055
-7.91363
-7.97717
-8.03996
-8.10111
-8.16011
-8.21644
-8.26953
-8.31922
-8.36537
-8.40791
-8.44678
-8.48196
-8.51344
-8.54117
-8.56514
-8.58532
-8.60165
-8.6141
-8.62261
-8.62711
-8.62755
-8.62385
-8.61597
-8.60382
-8.58736
-8.56651
-8.54123
-8.51143
-8.47703
-8.43794
-8.39408
-8.34538
-8.29181
-8.23332
-8.16985
-8.10133
-8.02769
-7.94884
-7.86471
-7.77521
-7.68023
-7.57967
-7.47351
-7.36183
-7.24462
-7.12183
-6.99343
-6.85943
-6.71982
-6.57464
-6.42392
-6.26774
-6.10614
-5.93923
-5.76709
-5.58984
-5.40759
-5.22051
-5.0287
-4.83236
-4.63163
-4.4267
-4.21773
-4.00492
-3.78844
-3.56849
-3.34526
-3.11893
-2.8897
-2.65775
-2.42326
-2.18638
-1.94729
-1.70618
-1.46325
-1.21867
-0.972593
-0.72514
-0.476446
-0.226706
0.0237566
0.274803
0.526401
0.77841
1.03067
1.28301
1.53527
1.78728
2.03886
2.28981
2.53995
2.78912
3.03715
3.28389
3.52918
3.77285
4.01474
4.25467
4.49251
4.72809
4.9613
5.19199
5.42004
5.64534
5.86777
6.08723
6.3036
6.51677
6.72664
6.93311
7.13609
7.33548
7.53121
7.7232
7.91139
8.09567
8.27605
8.45252
8.62558
8.79403
8.96521
9.11706
-7.44933
-7.44906
-7.4487
-7.44871
-7.44984
-7.45249
-7.45648
-7.46144
-7.46706
-7.47302
-7.47903
-7.48485
-7.49026
-7.49508
-7.49914
-7.5023
-7.50448
-7.50561
-7.50566
-7.5046
-7.50246
-7.49929
-7.49519
-7.49025
-7.48455
-7.47822
-7.47146
-7.46454
-7.45783
-7.45168
-7.44636
-7.44205
-7.43899
-7.43763
-7.43869
-7.44244
-7.44793
-7.45323
-7.45672
-7.45797
-7.45752
-7.45673
-7.45724
-7.45995
-7.46526
-7.47382
-7.48649
-7.50406
-7.52665
-7.55398
-7.58567
-7.62145
-7.66116
-7.70455
-7.75136
-7.80124
-7.85374
-7.90816
-7.96372
-8.01965
-8.07515
-8.1296
-8.18245
-8.23328
-8.28169
-8.32742
-8.37027
-8.41008
-8.44672
-8.48011
-8.51016
-8.53678
-8.55991
-8.57946
-8.59535
-8.60751
-8.61586
-8.62032
-8.62081
-8.61725
-8.60957
-8.59769
-8.58154
-8.56107
-8.53619
-8.50685
-8.47296
-8.43444
-8.39119
-8.34316
-8.2903
-8.23255
-8.16985
-8.10213
-8.02929
-7.95127
-7.86797
-7.77931
-7.68522
-7.58563
-7.48052
-7.3699
-7.25374
-7.132
-7.00467
-6.87173
-6.73319
-6.58908
-6.43943
-6.28429
-6.12374
-5.95786
-5.78673
-5.61048
-5.42922
-5.24308
-5.05222
-4.85679
-4.65695
-4.45288
-4.24476
-4.03277
-3.81709
-3.59791
-3.37543
-3.14983
-2.92131
-2.69004
-2.4562
-2.21996
-1.98149
-1.74099
-1.49864
-1.25461
-1.00906
-0.762132
-0.513985
-0.264808
-0.0148336
0.235819
0.487044
0.738704
0.990631
1.24267
1.49466
1.74641
1.99776
2.24851
2.49848
2.74751
2.99545
3.24213
3.48739
3.73106
3.97297
4.21297
4.45088
4.68657
4.91989
5.15071
5.3789
5.60436
5.82695
6.04657
6.2631
6.47644
6.68647
6.89309
7.09621
7.29575
7.49161
7.68373
7.87205
8.0565
8.2371
8.41381
8.5872
8.75555
8.92753
9.07338
-7.45159
-7.45101
-7.45063
-7.45201
-7.45614
-7.46231
-7.46948
-7.47697
-7.48432
-7.49121
-7.4975
-7.50311
-7.508
-7.51211
-7.51534
-7.51763
-7.5189
-7.51912
-7.51826
-7.51628
-7.51321
-7.50907
-7.50391
-7.49779
-7.49077
-7.48292
-7.47432
-7.46519
-7.45583
-7.44675
-7.43855
-7.43199
-7.428
-7.42751
-7.43053
-7.43531
-7.44011
-7.44415
-7.44721
-7.44967
-7.4523
-7.4562
-7.46237
-7.4717
-7.48504
-7.50283
-7.52483
-7.55042
-7.57932
-7.61121
-7.64584
-7.68316
-7.72313
-7.76567
-7.81058
-7.85758
-7.90627
-7.95617
-8.00673
-8.05742
-8.10771
-8.15714
-8.2053
-8.25184
-8.29644
-8.33884
-8.37882
-8.4162
-8.45082
-8.48255
-8.51124
-8.53678
-8.55904
-8.57793
-8.59333
-8.60513
-8.61324
-8.61757
-8.61801
-8.61448
-8.6069
-8.59518
-8.57924
-8.55902
-8.53445
-8.50545
-8.47196
-8.43388
-8.39112
-8.34363
-8.29135
-8.23423
-8.17218
-8.10513
-8.033
-7.95571
-7.87316
-7.78528
-7.69199
-7.59325
-7.48902
-7.37927
-7.26399
-7.14312
-7.01666
-6.88458
-6.74691
-6.60365
-6.45486
-6.30055
-6.14083
-5.97575
-5.80543
-5.62994
-5.44945
-5.26405
-5.07391
-4.87918
-4.68003
-4.47662
-4.26915
-4.05779
-3.84273
-3.62416
-3.40227
-3.17724
-2.94928
-2.71856
-2.48525
-2.24953
-2.01157
-1.77156
-1.5297
-1.28614
-1.04103
-0.794529
-0.546812
-0.298073
-0.0484817
0.201817
0.452726
0.704072
0.955718
1.20749
1.45923
1.71076
1.96191
2.21247
2.4623
2.71121
2.95906
3.20569
3.45093
3.6946
3.93654
4.17658
4.41456
4.65034
4.88376
5.11471
5.34304
5.56863
5.79138
6.01115
6.22784
6.44133
6.65151
6.85829
7.06156
7.26125
7.45727
7.64955
7.83802
8.02263
8.20338
8.38017
8.55358
8.72133
8.8929
9.03218
-7.45577
-7.45487
-7.45538
-7.45976
-7.46707
-7.47539
-7.48382
-7.49191
-7.49935
-7.50607
-7.51206
-7.51731
-7.52177
-7.52536
-7.52801
-7.52967
-7.53029
-7.52982
-7.52826
-7.52558
-7.5218
-7.51693
-7.51101
-7.50402
-7.49597
-7.48696
-7.47712
-7.46664
-7.45588
-7.44549
-7.43629
-7.42946
-7.42605
-7.42598
-7.42784
-7.43036
-7.43339
-7.43726
-7.44224
-7.4484
-7.45595
-7.46595
-7.47944
-7.49669
-7.51753
-7.54157
-7.56859
-7.59819
-7.63009
-7.66415
-7.7002
-7.73818
-7.77801
-7.81956
-7.86266
-7.90709
-7.95255
-7.99873
-8.04528
-8.09182
-8.13799
-8.18346
-8.22792
-8.27106
-8.3126
-8.3523
-8.38994
-8.42531
-8.45824
-8.48854
-8.51606
-8.54064
-8.56213
-8.5804
-8.59532
-8.60675
-8.61459
-8.61872
-8.61905
-8.61547
-8.60789
-8.59624
-8.58041
-8.56035
-8.53597
-8.50722
-8.474
-8.43625
-8.39386
-8.34678
-8.29496
-8.23833
-8.17681
-8.1103
-8.03874
-7.96203
-7.88009
-7.79285
-7.70022
-7.60216
-7.49863
-7.38957
-7.27497
-7.15478
-7.02898
-6.89757
-6.76054
-6.61792
-6.46974
-6.31605
-6.15692
-5.99242
-5.82264
-5.6477
-5.46772
-5.28283
-5.09319
-4.89893
-4.70025
-4.49729
-4.29026
-4.07933
-3.8647
-3.64655
-3.42508
-3.20047
-2.97292
-2.74259
-2.50968
-2.27434
-2.03677
-1.79717
-1.55569
-1.3125
-1.06775
-0.821616
-0.574265
-0.325882
-0.0766173
0.173386
0.42401
0.675088
0.926481
1.17802
1.42954
1.68086
1.93181
2.18221
2.43189
2.68069
2.92846
3.17504
3.42025
3.66391
3.90586
4.14593
4.38396
4.6198
4.85331
5.08434
5.31278
5.53849
5.76135
5.98124
6.19805
6.41167
6.62198
6.82888
7.03228
7.23209
7.42822
7.62061
7.80917
7.99385
8.17462
8.3513
8.52444
8.6913
8.8622
8.99507
-7.46095
-7.4605
-7.46316
-7.47024
-7.47887
-7.48746
-7.49566
-7.50332
-7.51037
-7.51679
-7.52253
-7.5275
-7.53164
-7.53488
-7.53714
-7.53838
-7.53855
-7.53764
-7.53561
-7.53247
-7.52824
-7.52293
-7.51646
-7.50879
-7.50003
-7.49036
-7.48
-7.46922
-7.45845
-7.44845
-7.44033
-7.43493
-7.43183
-7.43005
-7.42943
-7.43039
-7.43353
-7.43887
-7.44627
-7.45623
-7.46935
-7.48574
-7.50522
-7.52758
-7.55264
-7.58007
-7.60966
-7.64126
-7.67468
-7.70979
-7.74642
-7.78446
-7.82377
-7.86425
-7.90574
-7.94809
-7.99109
-8.03453
-8.07815
-8.12172
-8.16494
-8.20756
-8.24932
-8.28996
-8.32924
-8.36691
-8.40277
-8.43661
-8.46821
-8.49739
-8.52397
-8.54777
-8.56861
-8.58635
-8.60083
-8.61192
-8.61947
-8.62339
-8.62355
-8.61985
-8.61221
-8.60053
-8.58473
-8.56472
-8.54045
-8.51183
-8.47878
-8.44124
-8.39911
-8.35233
-8.30085
-8.24459
-8.18346
-8.11737
-8.04625
-7.96999
-7.88853
-7.80177
-7.70966
-7.61212
-7.50911
-7.40057
-7.28647
-7.16677
-7.04145
-6.91051
-6.77393
-6.63174
-6.48397
-6.33068
-6.17191
-6.00777
-5.83833
-5.66372
-5.48404
-5.29946
-5.11009
-4.91612
-4.71769
-4.515
-4.30822
-4.09755
-3.88317
-3.66529
-3.44408
-3.21975
-2.99246
-2.76242
-2.52977
-2.29472
-2.05746
-1.81815
-1.57698
-1.33409
-1.08965
-0.843823
-0.596793
-0.348708
-0.0997328
0.150018
0.400383
0.65123
0.902391
1.15372
1.40504
1.65617
1.90694
2.15717
2.40672
2.65542
2.90311
3.14964
3.39481
3.63846
3.8804
4.12048
4.35853
4.59441
4.82796
5.05906
5.28756
5.51335
5.7363
5.95629
6.17319
6.38689
6.59728
6.80426
7.00774
7.20761
7.4038
7.59624
7.78483
7.96949
8.15017
8.32661
8.49932
8.66517
8.83542
8.96234
-7.46498
-7.46578
-7.47102
-7.47914
-7.48746
-7.49544
-7.50308
-7.51032
-7.5171
-7.5233
-7.52885
-7.53364
-7.53759
-7.54062
-7.54266
-7.54368
-7.54362
-7.54247
-7.54021
-7.53686
-7.53241
-7.52679
-7.51993
-7.51198
-7.50317
-7.49364
-7.48361
-7.47349
-7.464
-7.45591
-7.44958
-7.44445
-7.43994
-7.43658
-7.43533
-7.43652
-7.44047
-7.44774
-7.45848
-7.47253
-7.48967
-7.50966
-7.53229
-7.55732
-7.58454
-7.61374
-7.64474
-7.67739
-7.71151
-7.74697
-7.78364
-7.82138
-7.86011
-7.89969
-7.94
-7.9809
-8.02225
-8.06386
-8.10557
-8.14715
-8.1884
-8.22911
-8.26904
-8.30797
-8.34569
-8.38196
-8.41658
-8.44932
-8.47998
-8.50836
-8.53425
-8.55745
-8.5778
-8.59511
-8.60922
-8.61998
-8.62726
-8.63093
-8.63088
-8.62702
-8.61925
-8.60747
-8.59161
-8.57158
-8.5473
-8.51872
-8.48575
-8.44832
-8.40634
-8.35976
-8.30851
-8.2525
-8.19165
-8.12587
-8.05506
-7.97914
-7.89803
-7.81164
-7.71989
-7.62273
-7.52008
-7.4119
-7.29815
-7.17878
-7.05378
-6.92313
-6.78683
-6.64489
-6.49736
-6.34427
-6.1857
-6.02173
-5.85245
-5.67798
-5.49844
-5.31396
-5.12471
-4.93083
-4.7325
-4.52991
-4.32323
-4.11267
-3.89841
-3.68065
-3.45959
-3.23541
-3.00829
-2.77841
-2.54595
-2.3111
-2.07406
-1.83499
-1.59405
-1.35142
-1.10724
-0.86168
-0.614928
-0.36711
-0.118383
0.131129
0.381263
0.631889
0.882842
1.13397
1.38509
1.63603
1.88662
2.13671
2.38612
2.63472
2.88235
3.12883
3.37396
3.61757
3.85949
4.09956
4.33761
4.5735
4.80708
5.03821
5.26677
5.49262
5.71564
5.9357
6.15266
6.36642
6.57686
6.78389
6.9874
7.18731
7.38353
7.57598
7.76455
7.94913
8.12966
8.30578
8.478
8.64284
8.8125
8.93404
-7.46614
-7.46856
-7.47535
-7.48318
-7.49083
-7.49831
-7.50561
-7.51263
-7.51925
-7.52536
-7.53085
-7.53559
-7.53951
-7.54251
-7.54453
-7.54552
-7.54546
-7.5443
-7.54205
-7.5387
-7.53421
-7.5285
-7.52167
-7.51398
-7.50559
-7.49673
-7.48782
-7.47933
-7.47168
-7.46491
-7.45877
-7.45309
-7.44819
-7.44497
-7.44434
-7.44682
-7.45277
-7.46232
-7.47525
-7.49132
-7.51033
-7.532
-7.5561
-7.58239
-7.61066
-7.64072
-7.67239
-7.7055
-7.7399
-7.77545
-7.81204
-7.84955
-7.88786
-7.92686
-7.96643
-8.00646
-8.04681
-8.08734
-8.12789
-8.16829
-8.20836
-8.24791
-8.28674
-8.32464
-8.36141
-8.39684
-8.4307
-8.46279
-8.49287
-8.52073
-8.54616
-8.56896
-8.58894
-8.60592
-8.61972
-8.63018
-8.63718
-8.64059
-8.6403
-8.63622
-8.62825
-8.61631
-8.60031
-8.58016
-8.55581
-8.52717
-8.49418
-8.45678
-8.41487
-8.36839
-8.31728
-8.26144
-8.20076
-8.13518
-8.06459
-7.9889
-7.90802
-7.82188
-7.73039
-7.63347
-7.53106
-7.4231
-7.30956
-7.19039
-7.06556
-6.93506
-6.79889
-6.65705
-6.50961
-6.35658
-6.19806
-6.0341
-5.86484
-5.69035
-5.5108
-5.32628
-5.137
-4.94308
-4.74472
-4.54209
-4.3354
-4.12482
-3.91058
-3.69284
-3.47183
-3.24771
-3.02067
-2.79088
-2.55854
-2.32383
-2.08696
-1.84807
-1.60733
-1.36491
-1.12096
-0.875653
-0.629137
-0.381567
-0.133056
0.116222
0.366149
0.616557
0.867313
1.11823
1.36916
1.61991
1.87034
2.12027
2.36956
2.61806
2.86561
3.11203
3.35711
3.60067
3.84256
4.0826
4.32064
4.55652
4.79011
5.02127
5.24986
5.47576
5.69883
5.91893
6.13593
6.34972
6.56018
6.76722
6.97075
7.17066
7.36688
7.55931
7.74782
7.93229
8.11261
8.28837
8.46006
8.62392
8.79301
8.90989
-7.46293
-7.46671
-7.47368
-7.48098
-7.48831
-7.49562
-7.50283
-7.50981
-7.51648
-7.52268
-7.5283
-7.5332
-7.5373
-7.54049
-7.5427
-7.54388
-7.54399
-7.54299
-7.54087
-7.53763
-7.53323
-7.52772
-7.52128
-7.51417
-7.50664
-7.499
-7.49151
-7.48425
-7.47728
-7.47069
-7.46456
-7.45923
-7.45527
-7.45343
-7.4543
-7.45827
-7.46555
-7.47621
-7.49013
-7.50711
-7.52694
-7.54936
-7.57411
-7.60095
-7.62969
-7.66013
-7.69209
-7.72542
-7.75997
-7.7956
-7.8322
-7.86963
-7.90777
-7.94653
-7.9858
-8.02545
-8.06536
-8.10541
-8.14544
-8.18531
-8.22485
-8.26388
-8.30222
-8.33967
-8.37603
-8.41109
-8.44463
-8.47642
-8.50622
-8.53382
-8.55898
-8.58152
-8.60122
-8.61791
-8.63141
-8.64158
-8.64828
-8.6514
-8.65084
-8.6465
-8.63829
-8.62613
-8.60993
-8.58962
-8.56511
-8.53635
-8.50327
-8.46582
-8.4239
-8.37746
-8.3264
-8.27064
-8.21007
-8.14459
-8.07412
-7.99857
-7.91784
-7.83185
-7.74049
-7.64371
-7.54143
-7.43359
-7.32015
-7.20106
-7.07629
-6.94583
-6.80967
-6.66783
-6.52034
-6.36726
-6.20865
-6.04461
-5.87523
-5.70062
-5.52093
-5.33629
-5.14686
-4.9528
-4.7543
-4.55155
-4.34474
-4.13408
-3.91976
-3.70198
-3.48095
-3.25683
-3.02981
-2.80006
-2.56779
-2.33319
-2.09644
-1.8577
-1.61715
-1.37492
-1.13118
-0.886104
-0.639816
-0.392465
-0.144177
0.104884
0.354594
0.604794
0.855337
1.10605
1.35677
1.60732
1.85756
2.10733
2.35648
2.60488
2.85236
3.09872
3.34373
3.58723
3.82906
4.06906
4.30706
4.54293
4.77651
5.00767
5.23628
5.46221
5.68533
5.90546
6.12248
6.33627
6.54674
6.75378
6.9573
7.1572
7.3534
7.54578
7.73422
7.91854
8.09861
8.27399
8.44513
8.60804
8.77659
8.88951
-7.45347
-7.4579
-7.46461
-7.47189
-7.47942
-7.48692
-7.49431
-7.5015
-7.50842
-7.51492
-7.52087
-7.52611
-7.53054
-7.53404
-7.53655
-7.538
-7.53836
-7.5376
-7.53573
-7.53275
-7.52873
-7.52379
-7.51812
-7.51192
-7.50533
-7.4985
-7.49158
-7.48469
-7.47794
-7.47159
-7.46602
-7.46165
-7.45891
-7.45832
-7.46036
-7.46538
-7.47356
-7.48496
-7.4995
-7.51701
-7.53727
-7.56004
-7.58508
-7.61218
-7.64115
-7.6718
-7.70397
-7.73749
-7.77223
-7.80804
-7.84478
-7.88233
-7.9206
-7.95946
-7.9988
-8.03851
-8.07846
-8.11852
-8.15857
-8.19846
-8.23801
-8.27706
-8.3154
-8.35285
-8.3892
-8.42425
-8.45776
-8.48951
-8.51926
-8.54677
-8.57182
-8.59419
-8.61369
-8.63013
-8.64335
-8.6532
-8.65958
-8.66238
-8.66149
-8.65683
-8.64834
-8.63591
-8.61947
-8.59892
-8.5742
-8.54524
-8.512
-8.47444
-8.43246
-8.38599
-8.33493
-8.27918
-8.21864
-8.1532
-8.08279
-8.0073
-7.92665
-7.84072
-7.74944
-7.65272
-7.55049
-7.44268
-7.32926
-7.21017
-7.08538
-6.95488
-6.81864
-6.6767
-6.52909
-6.37587
-6.21709
-6.05288
-5.8833
-5.70851
-5.5286
-5.34375
-5.15409
-4.95984
-4.76113
-4.55821
-4.35123
-4.14045
-3.92602
-3.70817
-3.48708
-3.26294
-3.03591
-2.80618
-2.57395
-2.33944
-2.10281
-1.86422
-1.62384
-1.38181
-1.13829
-0.89343
-0.647378
-0.400241
-0.152193
0.0966501
0.346125
0.596107
0.846417
1.09691
1.3474
1.59775
1.84779
2.0974
2.34642
2.5947
2.84211
3.08842
3.33335
3.57676
3.81851
4.05845
4.2964
4.53223
4.76579
4.99695
5.22556
5.45152
5.67467
5.89483
6.11184
6.32562
6.53607
6.74309
6.94658
7.14646
7.34262
7.53495
7.72329
7.90744
8.08725
8.26222
8.43282
8.59483
8.76283
8.8725
-7.43626
-7.44071
-7.44758
-7.45562
-7.46384
-7.47181
-7.47956
-7.4871
-7.49443
-7.50141
-7.50786
-7.51358
-7.51844
-7.52235
-7.52525
-7.52708
-7.52783
-7.52749
-7.52607
-7.52363
-7.52022
-7.51595
-7.51094
-7.50534
-7.49927
-7.49284
-7.4862
-7.47952
-7.47311
-7.46729
-7.46238
-7.45876
-7.45691
-7.45727
-7.46026
-7.46614
-7.47509
-7.48712
-7.50216
-7.52005
-7.54059
-7.56358
-7.58881
-7.61609
-7.64525
-7.67612
-7.70853
-7.74232
-7.77734
-7.81344
-7.85052
-7.88845
-7.92712
-7.96641
-8.00619
-8.04632
-8.08669
-8.12717
-8.16763
-8.20791
-8.24784
-8.28725
-8.32596
-8.36376
-8.40043
-8.43575
-8.46949
-8.50141
-8.53128
-8.55884
-8.58385
-8.60609
-8.62538
-8.64155
-8.65444
-8.6639
-8.66986
-8.67222
-8.67092
-8.66589
-8.65705
-8.64432
-8.62758
-8.60676
-8.58175
-8.55252
-8.51905
-8.48135
-8.43929
-8.39279
-8.3417
-8.28593
-8.22536
-8.15993
-8.08954
-8.01409
-7.93348
-7.84759
-7.75633
-7.65962
-7.55739
-7.44958
-7.33613
-7.217
-7.09215
-6.96155
-6.8252
-6.68312
-6.53534
-6.38193
-6.22297
-6.05853
-5.88874
-5.7137
-5.53355
-5.34844
-5.15855
-4.96406
-4.76515
-4.56203
-4.3549
-4.14398
-3.92945
-3.71152
-3.49038
-3.26621
-3.03917
-2.80945
-2.57728
-2.34286
-2.10637
-1.86795
-1.62777
-1.38595
-1.14267
-0.898048
-0.652233
-0.405343
-0.15754
0.0910547
0.340287
0.590016
0.840076
1.09031
1.34056
1.59069
1.84054
2.08997
2.33883
2.587
2.83436
3.08062
3.32546
3.56876
3.81041
4.05027
4.28816
4.52395
4.75747
4.98861
5.21721
5.4432
5.6664
5.88657
6.10356
6.31732
6.52774
6.73473
6.93819
7.13803
7.33415
7.52643
7.71467
7.89863
8.07815
8.25271
8.42277
8.58396
8.75136
8.85848
-7.41091
-7.4152
-7.42297
-7.43239
-7.4416
-7.45014
-7.45831
-7.46637
-7.47439
-7.48213
-7.48932
-7.49569
-7.50111
-7.50552
-7.50891
-7.51126
-7.51254
-7.51276
-7.51191
-7.51005
-7.50721
-7.50349
-7.49898
-7.49377
-7.48797
-7.48175
-7.47532
-7.46894
-7.46287
-7.45743
-7.453
-7.45001
-7.44891
-7.45009
-7.4539
-7.46055
-7.47016
-7.48273
-7.49817
-7.51635
-7.5371
-7.56025
-7.58565
-7.61312
-7.64251
-7.67367
-7.70643
-7.74061
-7.77606
-7.81265
-7.85025
-7.88875
-7.92801
-7.96792
-8.00835
-8.04916
-8.09024
-8.13144
-8.1726
-8.21358
-8.25418
-8.29425
-8.33359
-8.37198
-8.40919
-8.445
-8.47916
-8.51141
-8.54146
-8.56903
-8.59388
-8.61584
-8.63475
-8.65048
-8.66284
-8.67172
-8.67709
-8.67892
-8.67715
-8.67171
-8.66256
-8.64955
-8.63257
-8.61148
-8.58618
-8.55659
-8.52282
-8.48496
-8.44287
-8.39634
-8.34524
-8.28944
-8.22885
-8.16342
-8.09305
-8.01766
-7.9371
-7.85125
-7.75999
-7.66329
-7.56105
-7.45323
-7.33976
-7.2206
-7.09569
-6.965
-6.82853
-6.6863
-6.53837
-6.38478
-6.22563
-6.06099
-5.891
-5.71573
-5.53536
-5.35
-5.1599
-4.96519
-4.76611
-4.56282
-4.35558
-4.14454
-3.92995
-3.71197
-3.4908
-3.26662
-3.03962
-2.80995
-2.57788
-2.34361
-2.1073
-1.86911
-1.62916
-1.38761
-1.1446
-0.90027
-0.654728
-0.40814
-0.160618
0.0876766
0.336623
0.58605
0.835816
1.08576
1.33574
1.58561
1.83523
2.08444
2.33312
2.58114
2.8285
3.0748
3.31957
3.56274
3.80428
4.04405
4.28187
4.5176
4.75109
4.9822
5.21081
5.43685
5.66013
5.88032
6.09728
6.311
6.52138
6.72834
6.93176
7.13156
7.32764
7.51987
7.708
7.89176
8.07099
8.24514
8.41467
8.57508
8.74184
8.84709
-7.37859
-7.38318
-7.39242
-7.40361
-7.41391
-7.42317
-7.43211
-7.44087
-7.44958
-7.45822
-7.46646
-7.47383
-7.47998
-7.48489
-7.48879
-7.4917
-7.49357
-7.49437
-7.4941
-7.49276
-7.4904
-7.48707
-7.48284
-7.47783
-7.47219
-7.46611
-7.45981
-7.45355
-7.44765
-7.4425
-7.4385
-7.43608
-7.43563
-7.4375
-7.44198
-7.44923
-7.45933
-7.47228
-7.48801
-7.50641
-7.52735
-7.55068
-7.57625
-7.60394
-7.63359
-7.66505
-7.69816
-7.73276
-7.7687
-7.80586
-7.8441
-7.88329
-7.9233
-7.96399
-8.00523
-8.04691
-8.08888
-8.13099
-8.17307
-8.21494
-8.25641
-8.29729
-8.33736
-8.3764
-8.41419
-8.45045
-8.48494
-8.51735
-8.54739
-8.57473
-8.59914
-8.62051
-8.63879
-8.65385
-8.66544
-8.67341
-8.67796
-8.67921
-8.67703
-8.67135
-8.66208
-8.64903
-8.63201
-8.61084
-8.58534
-8.55539
-8.52125
-8.48323
-8.44114
-8.39463
-8.3435
-8.28762
-8.22697
-8.16152
-8.0912
-8.01585
-7.93533
-7.84949
-7.75823
-7.66149
-7.55923
-7.45139
-7.3379
-7.21872
-7.09375
-6.96297
-6.82638
-6.68401
-6.53592
-6.38217
-6.22285
-6.05805
-5.88787
-5.71241
-5.53184
-5.34632
-5.15604
-4.96119
-4.76197
-4.55857
-4.35121
-4.14008
-3.9254
-3.70735
-3.48615
-3.26199
-3.03508
-2.80563
-2.57382
-2.33983
-2.10382
-1.86595
-1.62634
-1.38516
-1.14254
-0.898605
-0.653471
-0.407297
-0.160198
0.087674
0.336184
0.585172
0.834493
1.084
1.33356
1.58303
1.83227
2.08111
2.32942
2.5771
2.82426
3.07051
3.31516
3.55818
3.79959
4.03924
4.27698
4.51264
4.74608
4.97715
5.20575
5.43189
5.65536
5.87563
6.09257
6.30626
6.51662
6.72355
6.92695
7.12672
7.32279
7.51501
7.70305
7.88661
8.06554
8.23928
8.4083
8.56798
8.73403
8.83806
-7.34217
-7.34763
-7.35888
-7.37224
-7.38368
-7.39324
-7.40257
-7.41238
-7.42236
-7.43213
-7.44141
-7.44981
-7.45678
-7.46225
-7.46663
-7.4701
-7.47254
-7.47389
-7.47411
-7.47319
-7.47115
-7.46805
-7.46397
-7.45903
-7.45339
-7.44725
-7.44089
-7.43463
-7.42883
-7.42389
-7.42022
-7.41821
-7.41822
-7.42054
-7.42541
-7.43297
-7.44329
-7.45638
-7.47221
-7.49067
-7.51166
-7.53506
-7.56075
-7.5886
-7.61847
-7.6502
-7.68363
-7.71864
-7.75509
-7.79284
-7.83175
-7.87169
-7.91252
-7.9541
-7.99629
-8.03894
-8.08188
-8.12492
-8.16788
-8.21056
-8.25276
-8.29427
-8.33486
-8.37432
-8.4124
-8.44882
-8.48332
-8.51559
-8.54528
-8.57196
-8.5954
-8.61569
-8.63302
-8.64725
-8.65779
-8.66433
-8.66759
-8.66808
-8.66558
-8.6599
-8.65083
-8.63811
-8.62144
-8.60059
-8.57554
-8.54634
-8.51299
-8.47543
-8.4335
-8.38701
-8.33584
-8.27988
-8.21917
-8.15367
-8.0833
-8.0079
-7.92733
-7.84141
-7.75006
-7.65322
-7.55087
-7.44294
-7.32937
-7.21007
-7.08498
-6.95406
-6.81728
-6.67474
-6.52645
-6.3725
-6.21296
-6.04794
-5.87752
-5.70185
-5.52104
-5.33533
-5.14485
-4.94983
-4.75043
-4.5469
-4.33939
-4.12815
-3.91335
-3.69523
-3.47398
-3.24984
-3.02304
-2.7938
-2.56227
-2.32858
-2.09289
-1.85535
-1.61612
-1.37535
-1.13318
-0.88969
-0.645048
-0.399357
-0.152777
0.0945825
0.342553
0.591001
0.839771
1.08873
1.33775
1.58668
1.83537
2.08367
2.33138
2.57836
2.82447
3.06959
3.31357
3.55622
3.79733
4.03671
4.27421
4.50965
4.74288
4.97376
5.20217
5.42825
5.6518
5.87211
6.08901
6.30266
6.513
6.71991
6.9233
7.12306
7.31918
7.51151
7.69951
7.88287
8.06152
8.23486
8.40341
8.5624
8.72769
8.83113
-7.30519
-7.31186
-7.32556
-7.34083
-7.3526
-7.36261
-7.37302
-7.38397
-7.39501
-7.40583
-7.41615
-7.42551
-7.43327
-7.43939
-7.44437
-7.44844
-7.45145
-7.4533
-7.45394
-7.45333
-7.45149
-7.44846
-7.44433
-7.43924
-7.43339
-7.42701
-7.42041
-7.41395
-7.40802
-7.40301
-7.39931
-7.39729
-7.39728
-7.39955
-7.40432
-7.41173
-7.42185
-7.43472
-7.4503
-7.46853
-7.48935
-7.51267
-7.53838
-7.56634
-7.59641
-7.62842
-7.66223
-7.69769
-7.7347
-7.7731
-7.81273
-7.85345
-7.89508
-7.93748
-7.98049
-8.02393
-8.06761
-8.11133
-8.15488
-8.19806
-8.24065
-8.28244
-8.3232
-8.3627
-8.4007
-8.43696
-8.4712
-8.5031
-8.53218
-8.55766
-8.57913
-8.59719
-8.61287
-8.6264
-8.63721
-8.64475
-8.64875
-8.64928
-8.64661
-8.64081
-8.6317
-8.61899
-8.60237
-8.58166
-8.55698
-8.52853
-8.49599
-8.45884
-8.41702
-8.37058
-8.31942
-8.26352
-8.20285
-8.13738
-8.067
-7.99159
-7.91101
-7.82508
-7.73373
-7.63691
-7.53459
-7.42667
-7.31309
-7.19378
-7.06867
-6.93769
-6.80088
-6.65827
-6.50992
-6.35588