/*--------------------------------*- C++ -*----------------------------------*\
  =========                 |
  \\      /  F ield         | OpenFOAM: The Open Source CFD Toolbox
   \\    /   O peration     | Website:  https://openfoam.org
    \\  /    A nd           | Version:  8
     \\/     M anipulation  |
\*---------------------------------------------------------------------------*/
FoamFile
{
    version     2.0;
    format      ascii;
    class       volVectorField;
    location    "1700";
    object      U;
}
// * * * * * * * * * * * * * * * * * * * * * * * * * * * * * * * * * * * * * //

dimensions      [0 1 -1 0 0 0 0];

internalField   nonuniform List<vector> 
12225
(
(9.74822 0.055415 0)
(9.27735 0.105623 0)
(8.82689 0.107616 0)
(8.4066 0.0967815 0)
(8.0455 0.0780361 0)
(7.73931 0.0640745 0)
(7.48266 0.0516702 0)
(7.2679 0.0418429 0)
(7.08991 0.0308561 0)
(6.94459 0.0206875 0)
(6.82303 0.0193571 0)
(6.73596 0.0105143 0)
(6.67149 -0.000264434 0)
(6.6132 -0.00127182 0)
(6.5683 0.0056962 0)
(6.53507 0.0139256 0)
(6.50821 0.00582819 0)
(6.50676 -0.00178722 0)
(10.0923 0.0584989 0)
(10.2659 0.0903852 0)
(10.3648 0.0898941 0)
(10.3869 0.0885291 0)
(10.3681 0.0860331 0)
(10.3205 0.0809481 0)
(10.2482 0.074921 0)
(10.1637 0.0680486 0)
(10.0702 0.0622059 0)
(9.97556 0.0570349 0)
(9.88125 0.0494808 0)
(9.77854 0.0452412 0)
(9.68015 0.0433247 0)
(9.59047 0.0391781 0)
(9.50498 0.0329775 0)
(9.42215 0.0276868 0)
(9.34232 0.023553 0)
(9.2732 0.0171815 0)
(10.0217 0.0427244 0)
(10.0751 0.0677125 0)
(10.1257 0.0685644 0)
(10.1697 0.0734837 0)
(10.2095 0.0785838 0)
(10.2428 0.0813586 0)
(10.2683 0.0818726 0)
(10.2854 0.0812902 0)
(10.2943 0.0788912 0)
(10.2958 0.0752352 0)
(10.2919 0.0719383 0)
(10.2827 0.0674487 0)
(10.2678 0.0630253 0)
(10.2506 0.0597809 0)
(10.2314 0.0563309 0)
(10.2124 0.0525309 0)
(10.1923 0.0469172 0)
(10.1696 0.0403898 0)
(10.0089 0.0319499 0)
(10.0394 0.0581755 0)
(10.0688 0.0645193 0)
(10.0896 0.069259 0)
(10.1082 0.0719391 0)
(10.1271 0.0725591 0)
(10.1452 0.0717711 0)
(10.1616 0.0703745 0)
(10.1762 0.0683507 0)
(10.1885 0.065819 0)
(10.199 0.0634598 0)
(10.208 0.0608133 0)
(10.2152 0.0579708 0)
(10.2212 0.0556259 0)
(10.2265 0.0533583 0)
(10.2313 0.0505433 0)
(10.235 0.0462711 0)
(10.237 0.0412826 0)
(10.0045 0.0248794 0)
(10.0288 0.0518824 0)
(10.0527 0.0599987 0)
(10.0698 0.0638634 0)
(10.0836 0.0662267 0)
(10.0971 0.0670957 0)
(10.1102 0.0667802 0)
(10.1222 0.0658259 0)
(10.1332 0.0642063 0)
(10.143 0.062085 0)
(10.1519 0.0599829 0)
(10.16 0.0577145 0)
(10.1674 0.0553352 0)
(10.1742 0.0531459 0)
(10.1808 0.050821 0)
(10.1872 0.0480208 0)
(10.1929 0.0443256 0)
(10.1976 0.0401306 0)
(10.0031 0.0197634 0)
(10.0219 0.0448576 0)
(10.0423 0.054033 0)
(10.0584 0.0583475 0)
(10.0713 0.0612448 0)
(10.0834 0.0626172 0)
(10.095 0.0626402 0)
(10.1056 0.0618367 0)
(10.1151 0.0603631 0)
(10.1238 0.058415 0)
(10.1316 0.056386 0)
(10.1389 0.0541701 0)
(10.1456 0.0518544 0)
(10.1519 0.0495843 0)
(10.1579 0.0471765 0)
(10.1637 0.0443857 0)
(10.169 0.0410684 0)
(10.1734 0.0373974 0)
(10.0022 0.0159344 0)
(10.0165 0.0385026 0)
(10.0339 0.048187 0)
(10.0489 0.0529784 0)
(10.0612 0.0561409 0)
(10.0727 0.0577626 0)
(10.0836 0.0580124 0)
(10.0936 0.0573896 0)
(10.1026 0.0561349 0)
(10.1108 0.0544505 0)
(10.1183 0.0525926 0)
(10.1252 0.0505473 0)
(10.1315 0.0483873 0)
(10.1375 0.0461861 0)
(10.1432 0.0438174 0)
(10.1485 0.0411395 0)
(10.1534 0.038113 0)
(10.1576 0.0348229 0)
(10.0016 0.0131802 0)
(10.0128 0.0335022 0)
(10.0279 0.0433854 0)
(10.0417 0.0484873 0)
(10.0535 0.0518107 0)
(10.0645 0.0536406 0)
(10.075 0.0541144 0)
(10.0846 0.0536731 0)
(10.0934 0.0525855 0)
(10.1013 0.0510773 0)
(10.1086 0.0493222 0)
(10.1154 0.0473764 0)
(10.1216 0.0452893 0)
(10.1274 0.0431191 0)
(10.1329 0.0407719 0)
(10.138 0.0381902 0)
(10.1425 0.0353564 0)
(10.1466 0.0323625 0)
(10.0013 0.0111393 0)
(10.0104 0.029467 0)
(10.0235 0.0391697 0)
(10.0362 0.0443954 0)
(10.0474 0.0477638 0)
(10.0579 0.0496987 0)
(10.0679 0.0503388 0)
(10.0772 0.0500443 0)
(10.0857 0.049109 0)
(10.0934 0.0477579 0)
(10.1005 0.0461402 0)
(10.1071 0.0443181 0)
(10.1132 0.042346 0)
(10.1189 0.0402603 0)
(10.1242 0.038018 0)
(10.1291 0.0355671 0)
(10.1335 0.0329292 0)
(10.1374 0.0301697 0)
(10.001 0.0093314 0)
(10.0083 0.0254686 0)
(10.0195 0.0347423 0)
(10.0311 0.0400084 0)
(10.0416 0.0433821 0)
(10.0514 0.0453711 0)
(10.0609 0.0461463 0)
(10.0698 0.0459945 0)
(10.0779 0.0452206 0)
(10.0854 0.0440303 0)
(10.0923 0.0425597 0)
(10.0987 0.0408649 0)
(10.1046 0.0390089 0)
(10.1102 0.0370325 0)
(10.1153 0.0348945 0)
(10.12 0.0326046 0)
(10.1243 0.0301611 0)
(10.1281 0.0276543 0)
(10.0008 0.00771338 0)
(10.0066 0.0215565 0)
(10.016 0.030171 0)
(10.0263 0.0353545 0)
(10.036 0.038674 0)
(10.0452 0.0406647 0)
(10.0541 0.0415333 0)
(10.0625 0.0415183 0)
(10.0702 0.0408935 0)
(10.0774 0.0398592 0)
(10.0841 0.038525 0)
(10.0903 0.0369633 0)
(10.0961 0.0352366 0)
(10.1014 0.0333771 0)
(10.1064 0.0313768 0)
(10.111 0.0292543 0)
(10.1151 0.0270301 0)
(10.1188 0.0247404 0)
(10.0006 0.00625683 0)
(10.0052 0.0178169 0)
(10.013 0.0255427 0)
(10.022 0.0304578 0)
(10.0308 0.0336296 0)
(10.0394 0.035553 0)
(10.0476 0.0364579 0)
(10.0555 0.0365523 0)
(10.0629 0.0360673 0)
(10.0698 0.0351728 0)
(10.0762 0.033986 0)
(10.0822 0.0325639 0)
(10.0877 0.0309928 0)
(10.0929 0.0292598 0)
(10.0977 0.0274375 0)
(10.1021 0.0254846 0)
(10.1061 0.0234827 0)
(10.1097 0.0214186 0)
(10.0004 0.00494716 0)
(10.0041 0.014291 0)
(10.0105 0.0209275 0)
(10.0182 0.0253634 0)
(10.0262 0.0282739 0)
(10.034 0.0300376 0)
(10.0416 0.0309119 0)
(10.049 0.0310686 0)
(10.056 0.0306908 0)
(10.0625 0.0299315 0)
(10.0687 0.0288834 0)
(10.0744 0.0276325 0)
(10.0798 0.0262032 0)
(10.0848 0.0246593 0)
(10.0894 0.0229875 0)
(10.0936 0.0212583 0)
(10.0975 0.0194464 0)
(10.101 0.017636 0)
(10.0003 0.00375905 0)
(10.0032 0.0109834 0)
(10.0085 0.0163748 0)
(10.0151 0.0201261 0)
(10.0222 0.0226285 0)
(10.0293 0.0241413 0)
(10.0363 0.0249033 0)
(10.0431 0.0250593 0)
(10.0497 0.0247485 0)
(10.0559 0.0241004 0)
(10.0617 0.0231908 0)
(10.0672 0.0220984 0)
(10.0724 0.0208394 0)
(10.0772 0.0194707 0)
(10.0816 0.0179954 0)
(10.0857 0.0164686 0)
(10.0894 0.0148874 0)
(10.0928 0.0133016 0)
(10.0003 0.00266342 0)
(10.0026 0.00786377 0)
(10.0069 0.0118962 0)
(10.0125 0.014773 0)
(10.0188 0.0167186 0)
(10.0252 0.0178797 0)
(10.0316 0.0184422 0)
(10.038 0.0185258 0)
(10.0441 0.0182373 0)
(10.05 0.0176577 0)
(10.0556 0.0168763 0)
(10.0608 0.0159153 0)
(10.0658 0.0148399 0)
(10.0704 0.0136392 0)
(10.0746 0.0123862 0)
(10.0786 0.011062 0)
(10.0822 0.00973206 0)
(10.0855 0.00837977 0)
(10.0002 0.00162832 0)
(10.0021 0.00487298 0)
(10.0057 0.00745825 0)
(10.0106 0.00929937 0)
(10.0161 0.0105418 0)
(10.022 0.0112328 0)
(10.0279 0.0115064 0)
(10.0338 0.0114421 0)
(10.0396 0.0111065 0)
(10.0451 0.0105631 0)
(10.0504 0.00986094 0)
(10.0555 0.00903516 0)
(10.0602 0.00811035 0)
(10.0646 0.00711031 0)
(10.0687 0.00605959 0)
(10.0726 0.0049754 0)
(10.0761 0.00387832 0)
(10.0793 0.00279211 0)
(10.0002 0.000617117 0)
(10.0018 0.0019283 0)
(10.005 0.00297692 0)
(10.0093 0.0036404 0)
(10.0144 0.00403466 0)
(10.0197 0.00413224 0)
(10.0253 0.00401677 0)
(10.0309 0.00371075 0)
(10.0363 0.00326954 0)
(10.0416 0.00270293 0)
(10.0467 0.00205894 0)
(10.0516 0.00133519 0)
(10.0561 0.000567838 0)
(10.0604 -0.000247775 0)
(10.0644 -0.0010799 0)
(10.0681 -0.00193305 0)
(10.0716 -0.00278108 0)
(10.0747 -0.0036134 0)
(10.0002 -0.000361624 0)
(10.0017 -0.00093211 0)
(10.0047 -0.00145454 0)
(10.0088 -0.0020204 0)
(10.0136 -0.00255313 0)
(10.0189 -0.00311154 0)
(10.0242 -0.00369194 0)
(10.0296 -0.00427729 0)
(10.035 -0.00488339 0)
(10.0401 -0.0054873 0)
(10.0451 -0.00611257 0)
(10.0499 -0.00673147 0)
(10.0543 -0.00736975 0)
(10.0585 -0.00799569 0)
(10.0625 -0.00863441 0)
(10.0661 -0.0092534 0)
(10.0695 -0.00987731 0)
(10.0727 -0.0104601 0)
(10.0002 -0.00127804 0)
(10.0018 -0.00360361 0)
(10.0048 -0.00562168 0)
(10.0091 -0.0073474 0)
(10.0141 -0.0087542 0)
(10.0193 -0.0099425 0)
(10.0248 -0.010957 0)
(10.0302 -0.0118204 0)
(10.0356 -0.0125673 0)
(10.0408 -0.0132194 0)
(10.0458 -0.0138083 0)
(10.0505 -0.0143424 0)
(10.055 -0.0148425 0)
(10.0592 -0.0153092 0)
(10.0631 -0.0157562 0)
(10.0668 -0.0161806 0)
(10.0702 -0.0165901 0)
(10.0733 -0.0169694 0)
(10.0002 -0.0021697 0)
(10.002 -0.00617665 0)
(10.0054 -0.00958948 0)
(10.0101 -0.0123544 0)
(10.0154 -0.0145138 0)
(10.0209 -0.016246 0)
(10.0266 -0.0176185 0)
(10.0323 -0.0187038 0)
(10.0378 -0.019543 0)
(10.0432 -0.0202158 0)
(10.0482 -0.020743 0)
(10.053 -0.0211866 0)
(10.0576 -0.0215414 0)
(10.0618 -0.0218589 0)
(10.0658 -0.0221239 0)
(10.0695 -0.0223743 0)
(10.0729 -0.0225913 0)
(10.0761 -0.0227926 0)
(10.0003 -0.0031089 0)
(10.0024 -0.00883495 0)
(10.0064 -0.0135763 0)
(10.0117 -0.0172469 0)
(10.0175 -0.0200428 0)
(10.0235 -0.0222149 0)
(10.0296 -0.0238778 0)
(10.0355 -0.0251003 0)
(10.0413 -0.0259922 0)
(10.0469 -0.0266223 0)
(10.0521 -0.0270813 0)
(10.0571 -0.0273887 0)
(10.0617 -0.0276153 0)
(10.066 -0.027755 0)
(10.07 -0.0278689 0)
(10.0737 -0.0279304 0)
(10.0772 -0.0279926 0)
(10.0804 -0.0280127 0)
(10.0003 -0.00415914 0)
(10.003 -0.0117175 0)
(10.0079 -0.0177103 0)
(10.0141 -0.0221378 0)
(10.0205 -0.0254481 0)
(10.027 -0.0279777 0)
(10.0335 -0.0298375 0)
(10.0399 -0.0311345 0)
(10.046 -0.032004 0)
(10.0518 -0.032565 0)
(10.0573 -0.0329012 0)
(10.0624 -0.0330717 0)
(10.0671 -0.0331278 0)
(10.0715 -0.0331098 0)
(10.0756 -0.0330417 0)
(10.0794 -0.03295 0)
(10.0829 -0.0328362 0)
(10.0861 -0.0327202 0)
(10.0004 -0.00539511 0)
(10.004 -0.0149497 0)
(10.0101 -0.0220547 0)
(10.0172 -0.0270601 0)
(10.0244 -0.0307809 0)
(10.0315 -0.0335896 0)
(10.0385 -0.0355631 0)
(10.0454 -0.0368509 0)
(10.0519 -0.0376433 0)
(10.0579 -0.0380905 0)
(10.0636 -0.0382773 0)
(10.0689 -0.0382872 0)
(10.0738 -0.0381646 0)
(10.0783 -0.0379764 0)
(10.0824 -0.0377344 0)
(10.0863 -0.0374811 0)
(10.0899 -0.0372129 0)
(10.0931 -0.0369487 0)
(10.0006 -0.00692333 0)
(10.0054 -0.0186504 0)
(10.0131 -0.0266109 0)
(10.0214 -0.0319675 0)
(10.0293 -0.0360292 0)
(10.037 -0.0390673 0)
(10.0447 -0.0410864 0)
(10.052 -0.0422994 0)
(10.0589 -0.0429624 0)
(10.0653 -0.0432498 0)
(10.0713 -0.043259 0)
(10.0767 -0.0430728 0)
(10.0818 -0.0427673 0)
(10.0865 -0.0423895 0)
(10.0907 -0.0419894 0)
(10.0947 -0.0415792 0)
(10.0983 -0.0411892 0)
(10.1017 -0.0408007 0)
(10.001 -0.00887264 0)
(10.0076 -0.0229317 0)
(10.0172 -0.031399 0)
(10.0266 -0.0368663 0)
(10.0353 -0.0411647 0)
(10.0438 -0.0443584 0)
(10.0522 -0.0463808 0)
(10.0603 -0.0475131 0)
(10.0677 -0.0480529 0)
(10.0745 -0.0481804 0)
(10.0808 -0.0479983 0)
(10.0866 -0.0476039 0)
(10.0919 -0.0470774 0)
(10.0968 -0.0464855 0)
(10.1013 -0.045878 0)
(10.1054 -0.0452884 0)
(10.1092 -0.0447266 0)
(10.1127 -0.0441951 0)
(10.0015 -0.0114294 0)
(10.0108 -0.0276437 0)
(10.0229 -0.0363819 0)
(10.0337 -0.0420385 0)
(10.0434 -0.0465219 0)
(10.0531 -0.0496509 0)
(10.0627 -0.0514789 0)
(10.0717 -0.0524225 0)
(10.08 -0.0527826 0)
(10.0876 -0.0527551 0)
(10.0946 -0.0524245 0)
(10.1011 -0.0518937 0)
(10.107 -0.0512431 0)
(10.1124 -0.0505294 0)
(10.1174 -0.0498237 0)
(10.122 -0.0491476 0)
(10.1262 -0.0485165 0)
(10.1301 -0.047902 0)
(10.0025 -0.0153595 0)
(10.0162 -0.0325831 0)
(10.0321 -0.0409771 0)
(10.0459 -0.0473598 0)
(10.0584 -0.0524375 0)
(10.0709 -0.0555901 0)
(10.0832 -0.0571426 0)
(10.0946 -0.0577143 0)
(10.1051 -0.0576782 0)
(10.1148 -0.0572211 0)
(10.1238 -0.056465 0)
(10.132 -0.0555317 0)
(10.1395 -0.0545057 0)
(10.1464 -0.0534743 0)
(10.1526 -0.0524973 0)
(10.1582 -0.051622 0)
(10.1634 -0.0508511 0)
(10.1679 -0.05012 0)
(10.0064 -0.0230824 0)
(10.0334 -0.0391274 0)
(10.0611 -0.0443916 0)
(10.0861 -0.0505051 0)
(10.1093 -0.0565951 0)
(10.1323 -0.060775 0)
(10.1539 -0.0631958 0)
(10.1734 -0.0644848 0)
(10.1906 -0.0650293 0)
(10.2057 -0.0649447 0)
(10.2187 -0.0643864 0)
(10.2296 -0.06348 0)
(10.2385 -0.0623461 0)
(10.2456 -0.0611096 0)
(10.251 -0.0598478 0)
(10.255 -0.0586775 0)
(10.2578 -0.0576558 0)
(10.2595 -0.0569105 0)
(10.0429 -0.0364773 0)
(10.143 -0.0632906 0)
(10.2181 -0.0679444 0)
(10.27 -0.069978 0)
(10.3073 -0.0719974 0)
(10.3314 -0.0726857 0)
(10.3422 -0.0720898 0)
(10.3414 -0.0707433 0)
(10.331 -0.0689631 0)
(10.3133 -0.0668749 0)
(10.2901 -0.0645804 0)
(10.2629 -0.0621685 0)
(10.2325 -0.0597219 0)
(10.2001 -0.0573106 0)
(10.1662 -0.0549879 0)
(10.1316 -0.0528918 0)
(10.0966 -0.0510132 0)
(10.0623 -0.0497902 0)
(9.8883 -0.0291967 0)
(9.66849 -0.0634057 0)
(9.43368 -0.077278 0)
(9.1848 -0.0833478 0)
(8.94304 -0.0841799 0)
(8.71705 -0.0813399 0)
(8.50953 -0.0762121 0)
(8.32052 -0.0701353 0)
(8.15011 -0.0636788 0)
(7.99745 -0.0571922 0)
(7.86152 -0.050966 0)
(7.74059 -0.0451324 0)
(7.63342 -0.0397572 0)
(7.53833 -0.0348489 0)
(7.4542 -0.0304096 0)
(7.37948 -0.0264672 0)
(7.3128 -0.0231009 0)
(7.25308 -0.0207639 0)
(-0.00266223 0.00737298 0)
(-0.0124082 0.0123476 0)
(-0.0256554 0.0135005 0)
(-0.0397292 0.0115791 0)
(-0.0499821 0.00595279 0)
(-0.049053 -0.0034005 0)
(-0.0335568 -0.0160894 -8.27107e-19)
(-0.00672238 -0.0293567 9.36711e-19)
(0.0282256 -0.0393059 0)
(0.0683797 -0.0442115 5.38899e-19)
(0.110931 -0.0446873 0)
(0.152464 -0.0418791 0)
(0.190269 -0.0368216 0)
(0.222688 -0.0303145 -2.6435e-19)
(0.248854 -0.022917 0)
(0.268339 -0.0149917 0)
(0.280811 -0.00673788 2.2837e-19)
(0.286456 0.00190631 0)
(0.284183 0.0108246 0)
(0.274195 0.0195342 0)
(0.257129 0.0272877 -2.44719e-19)
(0.233627 0.0333009 0)
(0.204617 0.0368591 -2.89477e-19)
(0.17149 0.0373566 0)
(0.136081 0.0343952 0)
(0.100628 0.0280031 -4.69885e-19)
(0.0675744 0.018912 0)
(0.0392544 0.00882577 7.77275e-19)
(0.0173289 0.000263523 0)
(0.00221818 -0.00487609 -1.32813e-18)
(-0.00718191 -0.00719462 0)
(-0.011944 -0.00870795 0)
(-0.0109585 -0.0106586 0)
(-0.00387332 -0.0140038 0)
(0.0103074 -0.0191852 0)
(0.0320347 -0.0250768 8.46983e-19)
(0.0598933 -0.0294222 0)
(0.0898981 -0.0298747 -1.00354e-18)
(0.117064 -0.025881 0)
(0.137156 -0.0186718 7.9407e-19)
(0.148184 -0.0105861 0)
(0.150955 -0.00386548 0)
(0.147998 -4.67933e-05 -7.83319e-19)
(0.143436 8.19441e-05 0)
(0.14081 -0.0043082 -8.15984e-19)
(0.139414 -0.0129671 8.20445e-19)
(0.133197 -0.0223306 0)
(0.114558 -0.0228589 8.71598e-19)
(0.0774471 -0.00707434 9.94562e-19)
(0.013908 0.0137415 0)
(-0.0795647 0.0321851 0)
(-0.182481 0.0534006 0)
(-0.297135 0.07441 0)
(-0.421561 0.0939982 0)
(-0.551457 0.109611 -1.93697e-19)
(-0.684505 0.115393 0)
(-0.817424 0.111517 1.52047e-19)
(-0.945544 0.107898 0)
(-1.06626 0.101865 0)
(-1.18083 0.0935943 -1.17888e-19)
(-1.2863 0.0871773 0)
(-1.38417 0.0813166 1.04765e-19)
(-1.47455 0.0719503 0)
(-1.55689 0.0643574 0)
(-1.63267 0.0595761 0)
(-1.7028 0.0539843 -9.06246e-20)
(-1.76751 0.0495449 0)
(-1.82765 0.0455926 0)
(-1.88371 0.0421252 -8.40526e-20)
(-1.93621 0.039114 0)
(-1.98557 0.0364546 -8.07351e-20)
(-2.03215 0.0341139 0)
(-2.07624 0.0320203 0)
(-2.11809 0.0301414 0)
(-2.15789 0.0284304 7.54822e-20)
(-2.1958 0.0268641 0)
(-2.23197 0.0254115 0)
(-2.26648 0.0240583 7.225e-20)
(-2.29944 0.0227836 7.12571e-20)
(-2.33091 0.0215793 0)
(-2.36094 0.0204306 6.93632e-20)
(-2.38958 0.0193333 0)
(-2.41688 0.018276 1.35127e-19)
(-2.44285 0.0172564 0)
(-2.46752 0.0162654 1.31665e-19)
(-2.49092 0.0153011 0)
(-2.51306 0.0143562 -1.28301e-19)
(-2.53394 0.0134272 0)
(-2.55358 0.0125064 0)
(-2.57198 0.0115904 0)
(-2.58912 0.0106674 1.21721e-19)
(-2.605 0.00973489 0)
(-2.6196 0.00878372 -1.18456e-19)
(-2.6329 0.00780768 0)
(-2.64486 0.00680009 1.15191e-19)
(-2.65544 0.00575513 1.13557e-19)
(-2.66459 0.00467546 1.11921e-19)
(-2.67224 0.00356824 0)
(-2.67833 0.00247247 0)
(-2.68278 0.00145234 0)
(-2.68553 0.000579534 0)
(-2.68685 -0.000162256 0)
(-2.68695 -0.00084233 0)
(-2.68582 -0.00151022 0)
(-2.68346 -0.00216826 0)
(-2.67988 -0.0028246 -9.63638e-20)
(-2.67507 -0.00347471 -9.44506e-20)
(-2.66903 -0.00412208 0)
(-2.66174 -0.00476258 0)
(-2.65322 -0.00539756 0)
(-2.64346 -0.00602464 -8.63021e-20)
(-2.63246 -0.00664289 0)
(-2.62023 -0.00725231 0)
(-2.60677 -0.00784944 0)
(-2.59209 -0.00843695 0)
(-2.57619 -0.0090088 7.48209e-20)
(-2.5591 -0.0095705 0)
(-2.54083 -0.0101136 0)
(-2.52138 -0.0106464 -6.71418e-20)
(-2.50078 -0.0111583 6.44409e-20)
(-2.47905 -0.0116599 0)
(-2.4562 -0.0121391 5.88186e-20)
(-2.43225 -0.0126083 0)
(-2.40722 -0.0130545 -5.28952e-20)
(-2.38114 -0.0134911 0)
(-2.35403 -0.0139056 0)
(-2.32589 -0.0143115 0)
(-2.29677 -0.0146971 0)
(-2.26666 -0.0150699 0)
(-2.23562 -0.015419 6.64586e-20)
(-2.20364 -0.0157527 5.93182e-20)
(-2.17077 -0.016075 0)
(-2.13699 -0.0163793 0)
(-2.10233 -0.0166395 0)
(-2.06683 -0.0168344 -2.89056e-20)
(-2.03054 -0.0168978 0)
(-1.99354 -0.016764 0)
(-1.95585 -0.0165187 0)
(-1.91743 -0.0165698 4.79311e-21)
(-1.87821 -0.0168576 -1.38228e-20)
(-1.83822 -0.0170774 0)
(-1.79751 -0.0172966 0)
(-1.75608 -0.0175003 -4.26665e-20)
(-1.71396 -0.0177026 -5.29285e-20)
(-1.67117 -0.0178957 0)
(-1.6277 -0.0180916 0)
(-1.58357 -0.01828 8.59811e-20)
(-1.53878 -0.0184733 -9.78374e-20)
(-1.49338 -0.0186661 0)
(-1.44741 -0.0188651 0)
(-1.40088 -0.0190664 -1.36315e-19)
(-1.35382 -0.0192694 0)
(-1.30623 -0.0194693 0)
(-1.25815 -0.0196681 -1.79942e-19)
(-1.20959 -0.0198641 0)
(-1.16059 -0.0200605 -2.12498e-19)
(-1.11115 -0.020257 0)
(-1.0613 -0.0204564 0)
(-1.01104 -0.0206593 0)
(-0.960377 -0.0208677 2.88076e-19)
(-0.909324 -0.0210823 0)
(-0.857876 -0.021304 0)
(-0.806035 -0.0215327 0)
(-0.753802 -0.021768 0)
(-0.701183 -0.0220104 0)
(-0.648183 -0.0222608 0)
(-0.594808 -0.0225216 4.69767e-19)
(-0.54106 -0.0227949 5.03231e-19)
(-0.486942 -0.0230836 0)
(-0.432452 -0.0233883 0)
(-0.377594 -0.0237088 0)
(-0.322378 -0.0240394 -6.66359e-19)
(-0.266844 -0.0243711 0)
(-0.211066 -0.0247032 1.54387e-18)
(-0.155196 -0.0249948 -1.66607e-18)
(-0.0995227 -0.0251306 -1.80181e-18)
(-0.0444307 -0.0249478 1.95311e-18)
(0.0072704 -0.0237122 -2.03922e-18)
(0.0643879 -0.0215022 2.01153e-18)
(0.0816682 -0.0106943 0)
(-0.000180917 0.0198272 0)
(-0.00569857 0.034664 0)
(-0.0118278 0.0358618 2.19722e-18)
(-0.0121356 0.0265783 0)
(0.00165343 0.00506962 -2.28148e-18)
(0.0306637 -0.0309646 -1.45656e-18)
(0.069041 -0.0714671 -4.60551e-19)
(0.112927 -0.104821 -3.29048e-19)
(0.158389 -0.125435 0)
(0.202049 -0.132886 -2.15233e-19)
(0.241742 -0.129711 0)
(0.27651 -0.119211 0)
(0.306018 -0.104217 3.20534e-19)
(0.330272 -0.0867842 1.52677e-19)
(0.349489 -0.0682462 -2.97574e-19)
(0.363978 -0.0493733 -2.94054e-19)
(0.374105 -0.0305626 -1.4704e-19)
(0.380065 -0.0119561 0)
(0.38281 0.0064738 0)
(0.382253 0.0245448 0)
(0.378008 0.0418993 -1.55456e-19)
(0.369591 0.05799 0)
(0.356445 0.0720756 4.97445e-19)
(0.338112 0.0831824 0)
(0.314391 0.0902036 0)
(0.285531 0.0920809 2.01465e-19)
(0.252425 0.0881201 0)
(0.216699 0.0784121 -2.54976e-19)
(0.180642 0.0640151 -5.96409e-19)
(0.147101 0.0466979 3.5615e-19)
(0.119098 0.0280569 0)
(0.0998028 0.00893627 0)
(0.0904767 -0.0108095 0)
(0.0928548 -0.0303707 -1.0366e-18)
(0.105237 -0.0498949 -8.75428e-19)
(0.124261 -0.0670111 -3.62752e-19)
(0.144264 -0.0749198 0)
(0.159347 -0.0700203 5.24275e-19)
(0.166858 -0.0550531 0)
(0.166399 -0.0351307 -5.03854e-19)
(0.158616 -0.0164639 0)
(0.144567 -0.00367334 0)
(0.124582 0.00327667 6.39716e-19)
(0.0932963 0.00804929 0)
(0.0418576 0.0174456 2.64568e-18)
(-0.0431988 0.0439594 -7.28535e-19)
(-0.158525 0.0854723 0)
(-0.287323 0.129757 -2.95632e-19)
(-0.422405 0.173285 -2.15714e-19)
(-0.563105 0.210886 0)
(-0.706491 0.239742 0)
(-0.848102 0.260107 0)
(-0.986604 0.271555 0)
(-1.11798 0.274829 0)
(-1.23897 0.271359 8.65057e-20)
(-1.34904 0.26213 1.62569e-19)
(-1.44819 0.248097 -7.65341e-20)
(-1.53572 0.231341 0)
(-1.61366 0.213517 1.41025e-19)
(-1.68234 0.195341 -6.8263e-20)
(-1.74372 0.177998 0)
(-1.79868 0.161846 -6.38708e-20)
(-1.84892 0.147154 0)
(-1.89481 0.133924 0)
(-1.93734 0.122424 -1.20417e-19)
(-1.97684 0.112285 5.90427e-20)
(-2.01401 0.103441 -1.16165e-19)
(-2.04915 0.0957278 1.14271e-19)
(-2.08251 0.0889761 5.62506e-20)
(-2.11431 0.0830374 0)
(-2.14468 0.0777727 5.46417e-20)
(-2.17374 0.0730669 0)
(-2.20156 0.0688177 0)
(-2.22822 0.0649455 0)
(-2.25375 0.0613798 5.16972e-20)
(-2.2782 0.0580692 0)
(-2.30158 0.0549666 1.00854e-19)
(-2.32393 0.0520406 -1.49418e-19)
(-2.34526 0.0492593 -4.92106e-20)
(-2.36559 0.0466044 0)
(-2.38491 0.0440535 -4.79843e-20)
(-2.40325 0.0415964 0)
(-2.4206 0.0392174 -9.35617e-20)
(-2.43697 0.036911 0)
(-2.45237 0.0346664 -9.11827e-20)
(-2.4668 0.0324805 1.7987e-19)
(-2.48024 0.0303451 8.88166e-20)
(-2.4927 0.0282549 0)
(-2.50417 0.0262014 0)
(-2.51464 0.0241758 0)
(-2.52411 0.0221683 -8.40579e-20)
(-2.53257 0.0201741 0)
(-2.54002 0.0181852 8.16412e-20)
(-2.54647 0.0161979 0)
(-2.55193 0.0142053 -2.37576e-19)
(-2.5564 0.0122025 -7.79585e-20)
(-2.55993 0.0101866 -7.67151e-20)
(-2.56254 0.00815419 0)
(-2.5643 0.00612258 0)
(-2.56529 0.0041368 0)
(-2.56559 0.00226878 0)
(-2.565 0.000523301 0)
(-2.56327 -0.0011493 -1.37875e-19)
(-2.56039 -0.00279189 -1.35107e-19)
(-2.55633 -0.00440859 0)
(-2.55107 -0.00600856 6.46286e-20)
(-2.54462 -0.00758657 6.31604e-20)
(-2.53695 -0.00914619 0)
(-2.52807 -0.0106814 1.20517e-19)
(-2.51798 -0.0121936 0)
(-2.50667 -0.0136782 -5.72795e-20)
(-2.49414 -0.0151346 0)
(-2.4804 -0.0165604 0)
(-2.46546 -0.0179529 1.04429e-19)
(-2.44931 -0.0193122 0)
(-2.43197 -0.0206332 -4.85645e-20)
(-2.41346 -0.0219192 0)
(-2.39377 -0.0231626 0)
(-2.37294 -0.02437 -4.35232e-20)
(-2.35097 -0.0255313 -4.11789e-20)
(-2.32788 -0.0266564 0)
(-2.30369 -0.0277335 3.77641e-20)
(-2.27842 -0.0287749 0)
(-2.25209 -0.0297675 -3.37419e-20)
(-2.22472 -0.0307254 -6.28141e-20)
(-2.19632 -0.031635 0)
(-2.16693 -0.0325101 0)
(-2.13656 -0.0333365 0)
(-2.10524 -0.0341263 0)
(-2.07298 -0.0348688 -4.0473e-20)
(-2.0398 -0.0355777 -1.0896e-19)
(-2.00573 -0.0362464 0)
(-1.97078 -0.0368833 0)
(-1.93497 -0.0374803 0)
(-1.89832 -0.0380454 1.70064e-20)
(-1.86084 -0.0385897 0)
(-1.82252 -0.0391322 0)
(-1.78334 -0.0396709 -5.53754e-21)
(-1.74337 -0.0401909 1.668e-21)
(-1.70268 -0.0406598 8.17598e-21)
(-1.66126 -0.0410742 0)
(-1.61912 -0.0414534 0)
(-1.57626 -0.0417922 2.41983e-20)
(-1.53271 -0.0421033 -2.82979e-20)
(-1.48846 -0.042381 0)
(-1.44354 -0.0426355 0)
(-1.39796 -0.0428594 -4.68268e-20)
(-1.35172 -0.0430643 1.5672e-19)
(-1.30487 -0.0432515 0)
(-1.25742 -0.0434277 0)
(-1.20942 -0.0435923 7.11237e-20)
(-1.16087 -0.0437402 0)
(-1.11179 -0.043866 1.66364e-19)
(-1.0622 -0.0439692 -8.89882e-20)
(-1.01212 -0.0440491 0)
(-0.961587 -0.0441101 1.04263e-19)
(-0.910608 -0.0441534 2.20953e-19)
(-0.859202 -0.044185 0)
(-0.807383 -0.044206 0)
(-0.755159 -0.0442225 -1.33377e-19)
(-0.702535 -0.0442348 0)
(-0.649515 -0.0442471 2.96034e-19)
(-0.596099 -0.0442569 0)
(-0.542289 -0.0442653 0)
(-0.488089 -0.0442693 0)
(-0.433504 -0.0442714 0)
(-0.378537 -0.0442716 -1.90817e-19)
(-0.32319 -0.0442743 -1.99776e-19)
(-0.267462 -0.0442807 0)
(-0.211354 -0.0442921 0)
(-0.154865 -0.0443046 0)
(-0.0980042 -0.0443086 2.37727e-19)
(-0.0408039 -0.0442786 0)
(0.0166769 -0.0441666 -5.08775e-19)
(0.0743326 -0.0439007 5.12506e-19)
(0.131897 -0.0433517 5.14266e-19)
(0.189273 -0.0423141 5.12839e-19)
(0.24442 -0.0403273 5.19045e-19)
(0.302358 -0.0364928 5.21106e-19)
(0.338988 -0.0248045 0)
(0.000349342 0.0224422 0)
(0.000754962 0.0387098 0)
(0.00664062 0.0313217 -2.34041e-18)
(0.0265548 -0.00168388 -1.64138e-18)
(0.0654571 -0.0600172 9.80831e-19)
(0.115986 -0.124461 6.38557e-19)
(0.168035 -0.175794 -3.56111e-22)
(0.214726 -0.205433 0)
(0.253401 -0.214042 0)
(0.284034 -0.206635 0)
(0.307807 -0.188885 0)
(0.326147 -0.165426 0)
(0.340251 -0.139415 -7.27839e-19)
(0.350967 -0.11273 0)
(0.358859 -0.0863843 2.32167e-19)
(0.364302 -0.0608569 2.31572e-19)
(0.367563 -0.0363378 0)
(0.368838 -0.0129051 0)
(0.368376 0.00947088 0)
(0.3665 0.0309534 0)
(0.363467 0.0516721 2.46812e-19)
(0.359446 0.0715536 0)
(0.35435 0.0902221 -2.64578e-19)
(0.347788 0.106934 0)
(0.339075 0.12058 0)
(0.327375 0.12977 0)
(0.311922 0.133052 -6.6263e-19)
(0.292423 0.129269 0)
(0.269444 0.117965 3.93496e-19)
(0.244593 0.0995359 -8.77702e-19)
(0.220386 0.0751376 0)
(0.199692 0.0461744 0)
(0.184991 0.0142808 0)
(0.176456 -0.0197297 6.41458e-19)
(0.172969 -0.0526144 5.6479e-19)
(0.168318 -0.0744504 0)
(0.155975 -0.0761237 0)
(0.135509 -0.0599915 -7.66965e-19)
(0.107948 -0.0339188 -7.85189e-19)
(0.0735028 -0.00265887 8.62584e-19)
(0.0306048 0.0297806 0)
(-0.0292332 0.059752 0)
(-0.114851 0.0949001 0)
(-0.22128 0.141314 0)
(-0.344827 0.194431 -4.30647e-19)
(-0.48012 0.249373 -3.38213e-19)
(-0.619906 0.302511 2.75312e-19)
(-0.75813 0.348408 0)
(-0.890139 0.385125 0)
(-1.01229 0.412021 0)
(-1.12237 0.427824 0)
(-1.21977 0.432741 -1.49352e-19)
(-1.30424 0.427582 0)
(-1.37642 0.41386 0)
(-1.43789 0.393577 -1.23514e-19)
(-1.49083 0.368697 -1.16662e-19)
(-1.53737 0.34107 0)
(-1.57938 0.312779 2.1778e-19)
(-1.6183 0.28526 -1.04501e-19)
(-1.65503 0.259289 1.01376e-19)
(-1.69031 0.235704 0)
(-1.72438 0.214565 0)
(-1.75756 0.19573 0)
(-1.79006 0.179211 0)
(-1.82183 0.164899 9.00951e-20)
(-1.85281 0.152396 1.76853e-19)
(-1.88302 0.141488 8.6707e-20)
(-1.91244 0.131918 -8.51712e-20)
(-1.94104 0.123459 0)
(-1.96881 0.11592 1.64604e-19)
(-1.99573 0.109137 1.61937e-19)
(-2.02181 0.102976 1.59382e-19)
(-2.04701 0.0973222 -1.56927e-19)
(-2.07136 0.0920858 0)
(-2.09483 0.087192 -2.28461e-19)
(-2.11742 0.0825829 0)
(-2.13913 0.0782105 7.38463e-20)
(-2.15997 0.0740384 7.29294e-20)
(-2.17992 0.0700358 0)
(-2.19899 0.0661799 0)
(-2.21717 0.0624499 1.3953e-19)
(-2.23445 0.0588314 0)
(-2.25085 0.0553099 1.35542e-19)
(-2.26636 0.0518762 0)
(-2.28096 0.0485205 -1.31621e-19)
(-2.29467 0.0452364 -2.59459e-19)
(-2.30748 0.0420166 0)
(-2.31937 0.0388544 0)
(-2.33035 0.0357422 0)
(-2.34041 0.0326705 -1.21971e-19)
(-2.34954 0.0296314 0)
(-2.35774 0.0266194 -1.1812e-19)
(-2.36501 0.0236318 0)
(-2.37135 0.0206676 0)
(-2.37676 0.0177273 2.24656e-19)
(-2.38125 0.0148174 0)
(-2.38482 0.011945 1.08435e-19)
(-2.38746 0.00912357 0)
(-2.38917 0.00636166 1.04525e-19)
(-2.38991 0.00365842 0)
(-2.38963 0.000985452 0)
(-2.38828 -0.00168041 0)
(-2.38582 -0.00433546 2.8854e-19)
(-2.38224 -0.00696722 9.39674e-20)
(-2.37752 -0.00957311 0)
(-2.37164 -0.0121507 0)
(-2.3646 -0.0146974 0)
(-2.35639 -0.0172105 0)
(-2.347 -0.0196861 -8.28066e-20)
(-2.33642 -0.0221215 1.61367e-19)
(-2.32467 -0.0245122 7.81209e-20)
(-2.31173 -0.0268561 -1.51918e-19)
(-2.29762 -0.0291481 -1.47085e-19)
(-2.28233 -0.0313868 -7.08262e-20)
(-2.26587 -0.0335674 0)
(-2.24825 -0.0356887 -1.32139e-19)
(-2.22948 -0.0377466 0)
(-2.20958 -0.0397403 1.21796e-19)
(-2.18855 -0.041667 5.79244e-20)
(-2.16642 -0.0435258 0)
(-2.1432 -0.0453157 -1.0572e-19)
(-2.1189 -0.0470359 -4.97438e-20)
(-2.09355 -0.0486871 0)
(-2.06717 -0.0502681 -4.48896e-20)
(-2.03976 -0.0517814 1.24567e-19)
(-2.01136 -0.0532253 0)
(-1.98199 -0.0546029 0)
(-1.95166 -0.055911 0)
(-1.92039 -0.0571524 0)
(-1.8882 -0.0583256 5.39412e-20)
(-1.85511 -0.0594351 4.70375e-20)
(-1.82114 -0.0604812 0)
(-1.7863 -0.0614679 0)
(-1.75061 -0.0623893 0)
(-1.71409 -0.063246 0)
(-1.67675 -0.0640388 0)
(-1.63859 -0.06478 0)
(-1.59962 -0.0654878 3.4752e-21)
(-1.55989 -0.0661802 -9.65399e-22)
(-1.51944 -0.0668382 0)
(-1.47827 -0.067439 0)
(-1.43638 -0.0679847 -2.13321e-20)
(-1.39379 -0.0684745 0)
(-1.3505 -0.0689148 3.54947e-20)
(-1.30652 -0.0693066 4.11281e-20)
(-1.26188 -0.0696525 0)
(-1.21657 -0.0699549 0)
(-1.17063 -0.0702201 -6.24496e-20)
(-1.12408 -0.0704554 -1.36506e-19)
(-1.07695 -0.0706663 0)
(-1.02925 -0.0708514 0)
(-0.981002 -0.0710042 0)
(-0.932226 -0.0711181 -9.73901e-20)
(-0.882942 -0.0711915 1.04562e-19)
(-0.833173 -0.0712244 0)
(-0.782941 -0.071222 2.35919e-19)
(-0.732266 -0.0711872 1.24168e-19)
(-0.681166 -0.0711275 -2.65487e-19)
(-0.629654 -0.071046 0)
(-0.57774 -0.0709502 0)
(-0.525431 -0.0708417 -3.1079e-19)
(-0.472731 -0.0707261 -1.64254e-19)
(-0.419642 -0.0706008 0)
(-0.366166 -0.0704664 0)
(-0.312305 -0.0703188 0)
(-0.258064 -0.0701606 0)
(-0.203444 -0.0699918 -4.04421e-19)
(-0.148446 -0.0698169 0)
(-0.093068 -0.0696371 0)
(-0.0373074 -0.0694536 0)
(0.0188394 -0.0692606 0)
(0.0753673 -0.0690423 0)
(0.132257 -0.0687639 0)
(0.189457 -0.0683594 -4.87141e-19)
(0.246884 -0.0677322 0)
(0.30433 -0.0667266 0)
(0.361795 -0.0650939 -1.01555e-18)
(0.417794 -0.0623584 5.13628e-19)
(0.476219 -0.057606 -5.24794e-19)
(0.522279 -0.0458649 5.35727e-19)
(-0.00112364 0.0225095 0)
(0.00202858 0.0254986 5.08415e-18)
(0.023599 -0.0161483 0)
(0.0706958 -0.097659 8.74573e-19)
(0.130626 -0.183637 0)
(0.18746 -0.246358 0)
(0.232043 -0.277078 -3.29238e-19)
(0.263037 -0.280468 0)
(0.283133 -0.265711 0)
(0.295889 -0.240993 0)
(0.30416 -0.211729 0)
(0.309759 -0.180939 0)
(0.313666 -0.150143 8.21491e-19)
(0.316336 -0.120046 4.03855e-19)
(0.317938 -0.0909583 -4.01099e-19)
(0.318517 -0.0630186 0)
(0.31809 -0.0362887 0)
(0.316676 -0.0108084 0)
(0.314326 0.0134151 0)
(0.311135 0.0364112 0)
(0.307248 0.0582161 4.34088e-19)
(0.302879 0.0788365 4.45871e-19)
(0.298233 0.0981766 -4.62485e-19)
(0.293419 0.115924 4.8511e-19)
(0.288333 0.131449 0)
(0.282636 0.143736 0)
(0.275732 0.151368 5.88297e-19)
(0.26689 0.152685 0)
(0.255543 0.146164 0)
(0.241555 0.130765 7.58373e-19)
(0.225594 0.106336 8.46045e-19)
(0.208768 0.073916 9.56802e-19)
(0.192441 0.0356832 0)
(0.175834 -0.00415554 0)
(0.152396 -0.0339567 -9.63857e-19)
(0.117604 -0.0408086 0)
(0.0724843 -0.0252383 0)
(0.0181955 0.00659081 7.75213e-19)
(-0.0478082 0.0490133 -7.14588e-19)
(-0.129523 0.100202 5.76961e-19)
(-0.22601 0.158572 0)
(-0.336702 0.220003 0)
(-0.458756 0.282538 6.19842e-19)
(-0.586381 0.344845 0)
(-0.714072 0.403857 4.39979e-19)
(-0.836743 0.454318 5.7689e-19)
(-0.949377 0.493333 -5.13232e-19)
(-1.04908 0.520863 3.09057e-19)
(-1.13511 0.536637 0)
(-1.20709 0.541264 0)
(-1.26607 0.535748 2.44002e-19)
(-1.31395 0.521411 1.13652e-19)
(-1.35287 0.499994 0)
(-1.3853 0.473498 0)
(-1.41354 0.443924 9.72198e-20)
(-1.43946 0.412877 1.87871e-19)
(-1.46449 0.381669 0)
(-1.4896 0.351479 -1.73042e-19)
(-1.51527 0.323084 1.68416e-19)
(-1.54166 0.296913 -1.63269e-19)
(-1.56874 0.273228 0)
(-1.59634 0.251951 0)
(-1.62427 0.23293 0)
(-1.65238 0.216036 0)
(-1.68045 0.201092 0)
(-1.7083 0.187832 -1.40648e-19)
(-1.73581 0.176029 0)
(-1.76286 0.165465 0)
(-1.78936 0.155942 0)