/*--------------------------------*- C++ -*----------------------------------*\
  =========                 |
  \\      /  F ield         | OpenFOAM: The Open Source CFD Toolbox
   \\    /   O peration     | Website:  https://openfoam.org
    \\  /    A nd           | Version:  8
     \\/     M anipulation  |
\*---------------------------------------------------------------------------*/
FoamFile
{
    version     2.0;
    format      ascii;
    class       volVectorField;
    location    "2100";
    object      U;
}
// * * * * * * * * * * * * * * * * * * * * * * * * * * * * * * * * * * * * * //

dimensions      [0 1 -1 0 0 0 0];

internalField   nonuniform List<vector> 
12225
(
(9.2745 -4.73371 0)
(13.1094 -1.71343 0)
(12.4778 -0.395198 0)
(11.2771 -0.0422045 0)
(10.6314 0.0141379 0)
(10.2979 -9.46761e-05 0)
(10.0776 -0.0165244 0)
(9.91229 -0.00288953 0)
(9.77911 0.0348736 0)
(9.66234 0.0428916 0)
(9.55579 0.0248812 0)
(9.45773 0.00213879 0)
(9.36683 -0.0227982 0)
(9.28221 -0.0302347 0)
(9.20246 -0.0217979 0)
(9.13271 -0.0212501 0)
(9.07047 -0.021066 0)
(9.08981 -0.0277984 0)
(10.2592 0.0928019 0)
(10.7814 0.199338 0)
(10.9594 0.245655 0)
(10.7469 0.229143 0)
(10.5875 0.172968 0)
(10.4527 0.115533 0)
(10.33 0.0823297 0)
(10.2327 0.0647277 0)
(10.155 0.052474 0)
(10.0894 0.0472302 0)
(10.0324 0.0469876 0)
(9.98215 0.0489826 0)
(9.93789 0.0517863 0)
(9.89838 0.0519254 0)
(9.86158 0.0482987 0)
(9.82894 0.0437972 0)
(9.7944 0.0300182 0)
(9.76843 0.0101277 0)
(9.87768 -0.24504 0)
(9.74285 0.00579088 0)
(10.1971 0.125743 0)
(10.3245 0.179363 0)
(10.3564 0.161547 0)
(10.3311 0.120075 0)
(10.2777 0.0904915 0)
(10.2252 0.0746624 0)
(10.1812 0.0658709 0)
(10.1438 0.060023 0)
(10.1103 0.0562002 0)
(10.08 0.0536393 0)
(10.052 0.0511197 0)
(10.0261 0.0487379 0)
(10.0023 0.0460399 0)
(9.98127 0.0417109 0)
(9.95926 0.0315815 0)
(9.93471 0.0134096 0)
(9.83416 -0.443933 0)
(9.57654 -0.163147 0)
(9.91603 0.03367 0)
(10.0933 0.134223 0)
(10.1892 0.145471 0)
(10.2168 0.120736 0)
(10.205 0.0978917 0)
(10.1824 0.0839048 0)
(10.1599 0.0756234 0)
(10.1389 0.0697038 0)
(10.1191 0.0651229 0)
(10.1002 0.0616216 0)
(10.0821 0.0585912 0)
(10.0648 0.0561981 0)
(10.0484 0.05381 0)
(10.0326 0.0500772 0)
(10.0149 0.0423178 0)
(9.99187 0.0304542 0)
(9.87825 -0.387476 0)
(9.61653 -0.196147 0)
(9.81623 -0.0186709 0)
(9.96136 0.0916116 0)
(10.0698 0.122194 0)
(10.1219 0.113625 0)
(10.1354 0.0992598 0)
(10.1332 0.088415 0)
(10.1257 0.0809403 0)
(10.1162 0.0753856 0)
(10.1056 0.0711094 0)
(10.0946 0.067862 0)
(10.0833 0.0652271 0)
(10.0718 0.0631192 0)
(10.0601 0.0609925 0)
(10.0478 0.0580321 0)
(10.0329 0.0529764 0)
(10.0125 0.0467552 0)
(9.91439 -0.28804 0)
(9.68304 -0.185176 0)
(9.78717 -0.0532084 0)
(9.88917 0.0509977 0)
(9.98796 0.0936774 0)
(10.0476 0.0992001 0)
(10.0751 0.093869 0)
(10.0861 0.0875108 0)
(10.0892 0.0821106 0)
(10.0879 0.0777513 0)
(10.0842 0.0743332 0)
(10.079 0.0717367 0)
(10.0726 0.0697105 0)
(10.0654 0.0681298 0)
(10.0572 0.0666685 0)
(10.0476 0.0649652 0)
(10.0354 0.0626789 0)
(10.0185 0.0610332 0)
(9.93763 -0.214041 0)
(9.74856 -0.167536 0)
(9.79244 -0.0752165 0)
(9.85609 0.0162186 0)
(9.93595 0.064419 0)
(9.99282 0.0805908 0)
(10.0261 0.083555 0)
(10.0447 0.0822349 0)
(10.0546 0.0797679 0)
(10.0593 0.0772722 0)
(10.0606 0.0751558 0)
(10.0596 0.0735327 0)
(10.0571 0.0723545 0)
(10.0531 0.0715894 0)
(10.0477 0.0711304 0)
(10.0407 0.0709369 0)
(10.0312 0.0711768 0)
(10.0183 0.0730253 0)
(9.95263 -0.167334 0)
(9.79947 -0.149677 0)
(9.81177 -0.0846425 0)
(9.84959 -0.00621244 0)
(9.91141 0.0419286 0)
(9.96107 0.0638922 0)
(9.99432 0.072543 0)
(10.0156 0.0752767 0)
(10.0289 0.0755172 0)
(10.0367 0.0748867 0)
(10.041 0.0741258 0)
(10.0427 0.0735532 0)
(10.0426 0.073286 0)
(10.0408 0.0734006 0)
(10.0375 0.073944 0)
(10.0325 0.0750576 0)
(10.0254 0.0771066 0)
(10.0157 0.0810856 0)
(9.96406 -0.132089 0)
(9.84003 -0.131989 0)
(9.83337 -0.0876913 0)
(9.85306 -0.0213351 0)
(9.89927 0.0244119 0)
(9.94103 0.0495076 0)
(9.97207 0.0621158 0)
(9.99386 0.0680666 0)
(10.0086 0.0706823 0)
(10.0184 0.0717767 0)
(10.0246 0.0722943 0)
(10.0282 0.0727235 0)
(10.0298 0.0733219 0)
(10.0297 0.07427 0)
(10.028 0.0757252 0)
(10.0248 0.0779307 0)
(10.0197 0.0813171 0)
(10.0129 0.0866968 0)
(9.97418 -0.100205 0)
(9.87757 -0.11239 0)
(9.85857 -0.0853677 0)
(9.86387 -0.0323354 0)
(9.89487 0.00892491 0)
(9.92743 0.0352182 0)
(9.95439 0.050709 0)
(9.97503 0.059486 0)
(9.99015 0.0644296 0)
(10.001 0.0673404 0)
(10.0085 0.0692737 0)
(10.0135 0.0708467 0)
(10.0166 0.0724371 0)
(10.018 0.0743198 0)
(10.018 0.0767407 0)
(10.0165 0.0800018 0)
(10.0136 0.0845292 0)
(10.0095 0.0909402 0)
(9.98253 -0.0727093 0)
(9.91035 -0.0921971 0)
(9.88507 -0.0782458 0)
(9.88002 -0.0386103 0)
(9.89746 -0.0033782 0)
(9.92043 0.0221628 0)
(9.94196 0.0391758 0)
(9.95999 0.0500696 0)
(9.97426 0.0570411 0)
(9.98519 0.0616854 0)
(9.9934 0.0650545 0)
(9.99942 0.0678318 0)
(10.0037 0.0704768 0)
(10.0064 0.0733357 0)
(10.0078 0.0767105 0)
(10.0081 0.080921 0)
(10.0073 0.0863416 0)
(10.0058 0.0934089 0)
(9.98894 -0.0502568 0)
(9.93733 -0.072379 0)
(9.91073 -0.0674498 0)
(9.89917 -0.0399857 0)
(9.90566 -0.0116542 0)
(9.91955 0.0114458 0)
(9.93497 0.0285218 0)
(9.94934 0.0405686 0)
(9.9617 0.049009 0)
(9.97189 0.0550917 0)
(9.98009 0.0597545 0)
(9.98659 0.0636713 0)
(9.99164 0.0673324 0)
(9.99544 0.0711171 0)
(9.99819 0.0753468 0)
(10.0001 0.0803241 0)
(10.0013 0.0863499 0)
(10.0021 0.0937078 0)
(9.99348 -0.0329088 0)
(9.9582 -0.0538119 0)
(9.93368 -0.0542853 0)
(9.91898 -0.0367902 0)
(9.91755 -0.0154579 0)
(9.92366 0.0039884 0)
(9.93301 0.0197666 0)
(9.94318 0.0318647 0)
(9.9529 0.0409951 0)
(9.96163 0.0480007 0)
(9.96922 0.0536224 0)
(9.9757 0.0584528 0)
(9.98118 0.0629549 0)
(9.98578 0.0674965 0)
(9.98964 0.0723815 0)
(9.99293 0.07787 0)
(9.99585 0.0841845 0)
(9.99867 0.0914963 0)
(9.99643 -0.0202027 0)
(9.97327 -0.0372107 0)
(9.95261 -0.0400472 0)
(9.93731 -0.0298136 0)
(9.9309 -0.0148281 0)
(9.93102 0.000360054 0)
(9.93504 0.0137654 0)
(9.94104 0.024831 0)
(9.94782 0.0337436 0)
(9.95464 0.0409718 0)
(9.96117 0.0470256 0)
(9.96724 0.0523654 0)
(9.9728 0.0573762 0)
(9.9779 0.0623733 0)
(9.9826 0.0676108 0)
(9.98703 0.0732912 0)
(9.99133 0.0795655 0)
(9.99571 0.0865271 0)
(9.99816 -0.0112879 0)
(9.9833 -0.0229314 0)
(9.96682 -0.0257644 0)
(9.95243 -0.0200796 0)
(9.94344 -0.0102461 0)
(9.93952 0.000668716 0)
(9.9394 0.0110214 0)
(9.94183 0.0201326 0)
(9.94582 0.0279105 0)
(9.95068 0.0345534 0)
(9.95597 0.0403629 0)
(9.96139 0.0456488 0)
(9.9668 0.0506893 0)
(9.97215 0.0557163 0)
(9.97742 0.0609141 0)
(9.98268 0.0664195 0)
(9.98801 0.0723218 0)
(9.99351 0.0786618 0)
(9.99906 -0.00508101 0)
(9.98922 -0.0107815 0)
(9.97612 -0.0119183 0)
(9.96309 -0.0084853 0)
(9.9531 -0.00243863 0)
(9.94685 0.00457294 0)
(9.94399 0.0115496 0)
(9.94384 0.0180103 0)
(9.94569 0.0238256 0)
(9.94896 0.029064 0)
(9.95317 0.0338811 0)
(9.95799 0.0384536 0)
(9.9632 0.0429462 0)
(9.96867 0.0474965 0)
(9.97434 0.0522086 0)
(9.98017 0.0571525 0)
(9.9862 0.0623636 0)
(9.99246 0.0678444 0)
(9.99942 -0.00036734 0)
(9.9918 0.000151307 0)
(9.98042 0.00183124 0)
(9.96821 0.00459166 0)
(9.9579 0.00791689 0)
(9.9506 0.0113968 0)
(9.94642 0.0148102 0)
(9.94498 0.0180798 0)
(9.94576 0.0212226 0)
(9.94824 0.0243046 0)
(9.95197 0.0274072 0)
(9.9566 0.0306074 0)
(9.96185 0.0339676 0)
(9.96756 0.037532 0)
(9.9736 0.0413244 0)
(9.97991 0.0453497 0)
(9.98646 0.0495936 0)
(9.99322 0.0540267 0)
(9.99935 0.00408474 0)
(9.9911 0.0111731 0)
(9.97897 0.0161327 0)
(9.96616 0.0187354 0)
(9.95552 0.0196106 0)
(9.94818 0.0195431 0)
(9.94419 0.0191547 0)
(9.94311 0.0188559 0)
(9.94437 0.0188867 0)
(9.94741 0.0193646 0)
(9.95173 0.0203302 0)
(9.95697 0.0217783 0)
(9.96285 0.0236779 0)
(9.96918 0.0259847 0)
(9.97581 0.028647 0)
(9.98267 0.0316082 0)
(9.98971 0.0348107 0)
(9.99689 0.0381937 0)
(9.99882 0.00972973 0)
(9.98675 0.0240489 0)
(9.97122 0.0318464 0)
(9.95641 0.0332932 0)
(9.94558 0.030703 0)
(9.93942 0.0263482 0)
(9.93734 0.0217446 0)
(9.93845 0.0177344 0)
(9.94186 0.0146885 0)
(9.94686 0.0127024 0)
(9.95291 0.0117204 0)
(9.95962 0.0116235 0)
(9.96672 0.0122725 0)
(9.97406 0.0135316 0)
(9.98153 0.0152761 0)
(9.98906 0.0173965 0)
(9.99662 0.019796 0)
(10.0042 0.0223914 0)
(9.99757 0.0182099 0)
(9.97773 0.0404554 0)
(9.95664 0.0495775 0)
(9.93945 0.0474786 0)
(9.92961 0.0394235 0)
(9.92658 0.0296464 0)
(9.92848 0.020489 0)
(9.93356 0.0129644 0)
(9.94054 0.00734506 0)
(9.94855 0.00351221 0)
(9.95703 0.00121545 0)
(9.96566 0.000164534 0)
(9.97426 9.56647e-05 0)
(9.98274 0.00077559 0)
(9.99107 0.00201777 0)
(9.99923 0.0036709 0)
(10.0072 0.00561194 0)
(10.0151 0.007745 0)
(9.99502 0.0318145 0)
(9.96177 0.0621338 0)
(9.93372 0.0695516 0)
(9.91534 0.0601151 0)
(9.90932 0.043951 0)
(9.91249 0.0276604 0)
(9.92084 0.0139938 0)
(9.93162 0.00363894 0)
(9.94322 -0.00364351 0)
(9.95479 -0.00837672 0)
(9.96593 -0.011135 0)
(9.97651 -0.012401 0)
(9.98649 -0.0125799 0)
(9.99592 -0.0119748 0)
(10.0049 -0.0108183 0)
(10.0134 -0.00928324 0)
(10.0217 -0.00749576 0)
(10.0296 -0.00555893 0)
(9.99018 0.0534618 0)
(9.93561 0.090152 0)
(9.90098 0.0906278 0)
(9.88515 0.0687569 0)
(9.8878 0.0418191 0)
(9.90121 0.0186592 0)
(9.91856 0.00141857 0)
(9.93626 -0.0103945 0)
(9.95284 -0.0179392 0)
(9.96785 -0.022392 0)
(9.98128 -0.0246499 0)
(9.9933 -0.0253923 0)
(10.0042 -0.0251017 0)
(10.0141 -0.0241362 0)
(10.0232 -0.0227334 0)
(10.0318 -0.0210472 0)
(10.0398 -0.0191977 0)
(10.0475 -0.0172654 0)
(9.9819 0.0862471 0)
(9.89548 0.124258 0)
(9.85817 0.109884 0)
(9.85209 0.0697738 0)
(9.87033 0.0303383 0)
(9.89842 0.00144985 0)
(9.92658 -0.0172022 0)
(9.95134 -0.0283166 0)
(9.97219 -0.0344141 0)
(9.98959 -0.0373235 0)
(10.0042 -0.0382009 0)
(10.0167 -0.0377984 0)
(10.0276 -0.0366169 0)
(10.0372 -0.0350014 0)
(10.0458 -0.0331516 0)
(10.0538 -0.0311664 0)
(10.0613 -0.02913 0)
(10.0683 -0.0271115 0)
(9.96925 0.133989 0)
(9.83823 0.163089 0)
(9.80793 0.122591 0)
(9.82311 0.0587998 0)
(9.86513 0.00730838 0)
(9.91139 -0.0240254 0)
(9.95035 -0.0405875 0)
(9.98048 -0.0483654 0)
(10.0034 -0.0512256 0)
(10.0212 -0.0515259 0)
(10.0353 -0.0504035 0)
(10.0469 -0.048505 0)
(10.0565 -0.0462469 0)
(10.0648 -0.0438848 0)
(10.0721 -0.041555 0)
(10.0789 -0.0392396 0)
(10.0852 -0.0369814 0)
(10.0911 -0.0348634 0)
(9.94951 0.20714 0)
(9.76128 0.207022 0)
(9.75726 0.123478 0)
(9.81042 0.0320108 0)
(9.88382 -0.0278609 0)
(9.94874 -0.0559937 0)
(9.99526 -0.0660698 0)
(10.0266 -0.0677946 0)
(10.048 -0.0659592 0)
(10.063 -0.0631741 0)
(10.0743 -0.059865 0)
(10.083 -0.0564846 0)
(10.0899 -0.0531296 0)
(10.0957 -0.0501507 0)
(10.1008 -0.0474846 0)
(10.1056 -0.0449354 0)
(10.11 -0.0425211 0)
(10.1141 -0.0403455 0)
(9.91094 0.322718 0)
(9.65923 0.254544 0)
(9.71887 0.107407 0)
(9.83329 -0.0119233 0)
(9.94173 -0.0726526 0)
(10.0199 -0.0901618 0)
(10.0662 -0.08932 0)
(10.0917 -0.0831324 0)
(10.1058 -0.07602 0)
(10.1141 -0.069597 0)
(10.1197 -0.0644569 0)
(10.1236 -0.0600986 0)
(10.1261 -0.0563606 0)
(10.1278 -0.0531331 0)
(10.1295 -0.0505871 0)
(10.1313 -0.0482196 0)
(10.1329 -0.0456267 0)
(10.1344 -0.0434525 0)
(9.84404 0.43511 0)
(9.53798 0.261026 0)
(9.7269 0.0591347 0)
(9.92367 -0.0731158 0)
(10.0584 -0.121553 0)
(10.1345 -0.120192 0)
(10.1665 -0.105279 0)
(10.1758 -0.0906116 0)
(10.1759 -0.078464 0)
(10.1726 -0.070351 0)
(10.1686 -0.0644047 0)
(10.1647 -0.0598177 0)
(10.1606 -0.0555414 0)
(10.1564 -0.0522029 0)
(10.1529 -0.0503154 0)
(10.1506 -0.0482414 0)
(10.1483 -0.0456399 0)
(10.1459 -0.0436237 0)
(9.83598 0.319666 0)
(9.55021 0.0912512 0)
(9.91739 -0.0687255 0)
(10.1507 -0.160112 0)
(10.2634 -0.172136 0)
(10.3032 -0.142727 0)
(10.2978 -0.112095 0)
(10.276 -0.0899502 0)
(10.2516 -0.0753712 0)
(10.2302 -0.0674471 0)
(10.2132 -0.0619089 0)
(10.1986 -0.0575154 0)
(10.1843 -0.0523894 0)
(10.1703 -0.0482402 0)
(10.1594 -0.0467767 0)
(10.1504 -0.0439441 0)
(10.1412 -0.0396879 0)
(10.133 -0.0384911 0)
(10.2049 -0.0633775 0)
(10.4095 -0.191706 0)
(10.7164 -0.282558 0)
(10.6879 -0.282287 0)
(10.6191 -0.230103 0)
(10.5417 -0.163669 0)
(10.4545 -0.117043 0)
(10.3763 -0.0924956 0)
(10.3136 -0.0798669 0)
(10.2654 -0.0678534 0)
(10.2261 -0.0589709 0)
(10.1924 -0.0539302 0)
(10.1597 -0.0537039 0)
(10.1305 -0.0530239 0)
(10.1086 -0.0475463 0)
(10.0853 -0.0455222 0)
(10.0628 -0.0483207 0)
(10.046 -0.0464121 0)
(9.41631 4.45107 0)
(12.7294 2.07612 0)
(12.5649 0.621213 0)
(11.569 0.127658 0)
(10.9309 0.00343468 0)
(10.5866 -0.00206756 0)
(10.3638 0.0123126 0)
(10.2021 0.0302296 0)
(10.0796 0.0412449 0)
(9.97712 0.0356894 0)
(9.88536 0.0255641 0)
(9.79808 0.0207408 0)
(9.72378 0.0274651 0)
(9.66284 0.0262715 0)
(9.59997 0.00143138 0)
(9.54286 -0.00544561 0)
(9.4953 0.00920968 0)
(9.44756 5.81368e-05 0)
(-0.0276491 0.0935677 0)
(0.136923 -0.1835 0)
(0.324893 -0.305981 0)
(0.525436 -0.315254 0)
(0.703021 -0.272228 0)
(0.833697 -0.211238 0)
(0.91014 -0.146489 -8.59892e-20)
(0.940821 -0.0826267 8.66041e-20)
(0.920056 -0.0202843 0)
(0.859438 0.0344685 9.18142e-20)
(0.772289 0.0739614 0)
(0.672968 0.0920895 0)
(0.578915 0.0878685 0)
(0.505971 0.0668161 -1.43152e-19)
(0.455983 0.0377985 0)
(0.412776 0.00990989 0)
(0.353528 -0.00929947 1.87785e-19)
(0.263687 -0.0094212 0)
(0.136414 0.0281187 0)
(-0.0425584 0.112183 0)
(-0.298815 0.186214 -1.65601e-19)
(-0.592437 0.235182 0)
(-0.913758 0.266857 -7.63587e-20)
(-1.25017 0.295932 0)
(-1.58965 0.323615 0)
(-1.92946 0.336503 -4.13428e-20)
(-2.26201 0.335681 0)
(-2.57924 0.326591 3.45481e-20)
(-2.87815 0.310471 0)
(-3.15529 0.289677 -3.1344e-20)
(-3.40977 0.26654 0)
(-3.64119 0.242654 0)
(-3.85027 0.219054 0)
(-4.0381 0.196449 0)
(-4.20614 0.175216 0)
(-4.35593 0.155562 2.8229e-20)
(-4.48906 0.137524 0)
(-4.60702 0.12103 -5.55691e-20)
(-4.7112 0.105953 0)
(-4.8028 0.0921343 5.47704e-20)
(-4.8829 0.0794108 0)
(-4.95238 0.0676307 0)
(-5.012 0.0566659 -5.35484e-20)
(-5.06239 0.0464197 0)
(-5.10404 0.0368326 -5.26567e-20)
(-5.13737 0.0278875 5.21788e-20)
(-5.16279 0.0196283 0)
(-5.18066 0.0122028 5.1152e-20)
(-5.19128 0.00585875 5.05996e-20)
(-5.19481 0.000806823 0)
(-5.1925 -0.00314821 0)
(-5.18558 -0.00644715 0)
(-5.1742 -0.00937006 0)
(-5.15868 -0.0120812 0)
(-5.13918 -0.01465 -4.61802e-20)
(-5.11584 -0.0170903 0)
(-5.08877 -0.0194134 4.4315e-20)
(-5.05808 -0.0216282 0)
(-5.02386 -0.0237369 0)
(-4.98623 -0.0257416 -4.11368e-20)
(-4.94528 -0.0276425 0)
(-4.90112 -0.0294397 3.87611e-20)
(-4.85386 -0.0311329 0)
(-4.80361 -0.0327221 0)
(-4.7505 -0.0342073 0)
(-4.69464 -0.0355883 -3.33816e-20)
(-4.63616 -0.0368655 0)
(-4.57517 -0.03804 0)
(-4.51181 -0.0391122 -2.87842e-20)
(-4.4462 -0.0400828 0)
(-4.37849 -0.0409534 -2.54428e-20)
(-4.30879 -0.0417253 0)
(-4.23724 -0.0424002 0)
(-4.16397 -0.0429799 0)
(-4.08912 -0.0434665 1.80653e-20)
(-4.01281 -0.0438621 0)
(-3.93516 -0.0441694 0)
(-3.85632 -0.0443905 1.18833e-20)
(-3.7764 -0.0445283 9.68951e-21)
(-3.69553 -0.0445852 0)
(-3.61382 -0.0445642 5.08766e-21)
(-3.53139 -0.0444683 0)
(-3.44834 -0.0443012 3.59167e-22)
(-3.3648 -0.0440677 0)
(-3.28086 -0.0437743 -1.01308e-20)
(-3.19661 -0.0434302 0)
(-3.11215 -0.0430482 2.13736e-20)
(-3.02755 -0.0426475 0)
(-2.94289 -0.0422561 0)
(-2.85823 -0.0419173 0)
(-2.77359 -0.041694 -4.65661e-20)
(-2.68901 -0.0416686 0)
(-2.6045 -0.0419304 6.08418e-20)
(-2.52002 -0.0425354 0)
(-2.43552 -0.0434253 -7.6512e-20)
(-2.35128 -0.044328 -8.48909e-20)
(-2.26751 -0.0447827 -9.35995e-20)
(-2.18449 -0.0445747 0)
(-2.10238 -0.0439698 0)
(-2.0212 -0.0432714 0)
(-1.94096 -0.0425664 0)
(-1.86168 -0.0418662 0)
(-1.78336 -0.0411718 0)
(-1.70605 -0.0404848 0)
(-1.62977 -0.0398091 0)
(-1.55453 -0.0391504 1.92713e-19)
(-1.48035 -0.0385158 2.07034e-19)
(-1.40725 -0.0379107 0)
(-1.33524 -0.0373242 0)
(-1.26435 -0.0366989 0)
(-1.19462 -0.0360412 2.74304e-19)
(-1.12605 -0.0354071 0)
(-1.05864 -0.0347915 0)
(-0.992386 -0.0341959 0)
(-0.927303 -0.0336218 0)
(-0.863384 -0.0330713 -3.90949e-19)
(-0.80063 -0.0325469 0)
(-0.739035 -0.0320519 0)
(-0.678594 -0.0315896 4.89133e-19)
(-0.619298 -0.0311616 -5.28834e-19)
(-0.561143 -0.0307715 0)
(-0.50412 -0.0304296 -6.2245e-19)
(-0.448215 -0.0301599 0)
(-0.393411 -0.0300067 7.41439e-19)
(-0.339685 -0.0299813 0)
(-0.287024 -0.0300449 0)
(-0.235414 -0.0301847 0)
(-0.184824 -0.0304116 0)
(-0.13523 -0.0307411 0)
(-0.086676 -0.031192 -2.84679e-18)
(-0.0393732 -0.0316462 -3.27755e-18)
(0.00673144 -0.0313464 0)
(0.0521483 -0.0298486 0)
(0.0968877 -0.0279983 0)
(0.140808 -0.0262805 2.68477e-18)
(0.183817 -0.0247477 0)
(0.225894 -0.0233744 0)
(0.267061 -0.0221369 0)
(0.30735 -0.0210155 2.03994e-18)
(0.346793 -0.0199928 -1.93367e-18)
(0.385418 -0.0190548 0)
(0.42325 -0.0181898 0)
(0.460315 -0.0173889 -1.68691e-18)
(0.496636 -0.0166443 -1.62224e-18)
(0.532238 -0.0159501 0)
(0.567142 -0.0153009 0)
(0.601373 -0.0146926 1.46397e-18)
(0.634951 -0.0141216 -1.42048e-18)
(0.667901 -0.0135845 0)
(0.700244 -0.013079 0)
(0.732003 -0.0126025 -1.3102e-18)
(0.763201 -0.0121532 0)
(0.793861 -0.0117292 0)
(0.824005 -0.011329 -1.22269e-18)
(0.853658 -0.0109513 0)
(0.882842 -0.0105948 -1.1736e-18)
(0.91158 -0.0102583 0)
(0.939896 -0.00994076 0)
(0.967813 -0.00964113 0)
(0.995353 -0.00935835 1.0916e-18)
(1.02254 -0.00909127 0)
(1.04939 -0.00883867 0)
(1.07592 -0.00859904 0)
(1.10215 -0.00837064 0)
(1.12809 -0.00815117 0)
(1.15374 -0.00793772 0)
(1.17909 -0.00772642 9.82777e-19)
(1.20412 -0.00751214 9.69854e-19)
(1.22879 -0.00728784 0)
(1.25304 -0.00704402 0)
(1.27675 -0.00676712 0)
(1.29977 -0.0064386 -9.24499e-19)
(1.32185 -0.00602867 0)
(1.34258 -0.00549864 1.81388e-18)
(1.36152 -0.00476147 -1.80051e-18)
(1.37727 -0.00372572 -1.79177e-18)
(1.38985 -0.00195425 1.79007e-18)
(1.39027 0.00132751 -1.79545e-18)
(1.38758 0.00807533 1.80877e-18)
(1.30831 0.0198892 0)
(0.0962967 -0.268611 0)
(0.334144 -0.681186 0)
(0.514369 -0.70674 1.57332e-19)
(0.612118 -0.571687 0)
(0.663209 -0.409264 -1.11106e-19)
(0.683738 -0.254184 -1.08064e-19)
(0.677795 -0.112511 -5.62298e-20)
(0.647507 0.0152834 -5.61737e-20)
(0.604591 0.125163 0)
(0.545474 0.211778 -6.07706e-20)
(0.468749 0.26739 0)
(0.374374 0.283362 0)
(0.258743 0.256704 1.70379e-19)
(0.111657 0.211511 9.82379e-20)
(-0.0731326 0.205851 -1.84757e-19)
(-0.29918 0.271051 -1.44224e-19)
(-0.577038 0.38256 -5.73446e-20)
(-0.903016 0.512482 0)
(-1.25672 0.64201 0)
(-1.61493 0.756066 0)
(-1.97065 0.841867 -2.85997e-20)
(-2.31618 0.89561 0)
(-2.64619 0.919201 6.90844e-20)
(-2.95307 0.915709 0)
(-3.23273 0.889333 0)
(-3.48353 0.845212 1.98192e-20)
(-3.70407 0.788663 0)
(-3.89516 0.725224 -1.97603e-20)
(-4.05868 0.659135 -4.17951e-20)
(-4.19817 0.59311 2.01664e-20)
(-4.31655 0.529254 0)
(-4.41672 0.469353 0)
(-4.50139 0.414239 0)
(-4.57296 0.364268 -4.42559e-20)
(-4.63351 0.319401 -4.47625e-20)
(-4.68472 0.279365 -2.21883e-20)
(-4.72797 0.243751 0)
(-4.76437 0.212076 4.5305e-20)
(-4.79482 0.183842 0)
(-4.82004 0.158568 -4.58773e-20)
(-4.84061 0.135813 0)
(-4.85702 0.115183 0)
(-4.8697 0.0963357 4.60884e-20)
(-4.87903 0.0789808 0)
(-4.88533 0.0628775 1.38167e-19)
(-4.88893 0.0478313 -4.56093e-20)
(-4.8901 0.0337066 0)
(-4.88909 0.0204727 -4.49403e-20)
(-4.88616 0.00824553 -4.44838e-20)
(-4.88157 -0.00281278 0)
(-4.87443 -0.0127577 0)
(-4.8636 -0.0218851 0)
(-4.8491 -0.0304384 0)
(-4.83081 -0.0385323 0)
(-4.80877 -0.0462365 4.02179e-20)
(-4.78303 -0.0535879 7.91661e-20)
(-4.75368 -0.0606077 -3.84405e-20)
(-4.72079 -0.0673073 0)
(-4.68445 -0.0736924 7.34877e-20)
(-4.64477 -0.0797656 -3.59675e-20)
(-4.60183 -0.0855277 0)
(-4.55574 -0.0909784 -3.32674e-20)
(-4.5066 -0.0961176 0)
(-4.45453 -0.100947 0)
(-4.39963 -0.105468 -5.98929e-20)
(-4.34202 -0.10968 2.83859e-20)
(-4.28182 -0.113585 -5.47012e-20)
(-4.21916 -0.117184 5.19823e-20)
(-4.15415 -0.120482 2.42941e-20)
(-4.08692 -0.123483 0)
(-4.0176 -0.126192 2.13611e-20)
(-3.94632 -0.128615 0)
(-3.87321 -0.130759 0)
(-3.79839 -0.132631 0)
(-3.72199 -0.134239 1.56344e-20)
(-3.64414 -0.135591 0)
(-3.56496 -0.136698 2.37659e-20)
(-3.48458 -0.137568 -2.99731e-20)
(-3.40312 -0.138212 -7.94129e-21)
(-3.32069 -0.138641 0)
(-3.23742 -0.138866 -4.14056e-21)
(-3.15341 -0.138898 0)
(-3.06878 -0.13875 -2.90106e-22)
(-2.98362 -0.138433 0)
(-2.89805 -0.13796 8.11598e-21)
(-2.81216 -0.137343 -2.3574e-20)
(-2.72604 -0.136592 -1.69694e-20)
(-2.63979 -0.135719 0)
(-2.55349 -0.134732 0)
(-2.46724 -0.133636 0)
(-2.38113 -0.13243 3.6188e-20)
(-2.29528 -0.131106 0)
(-2.20982 -0.129636 -4.66599e-20)
(-2.1249 -0.127965 0)
(-2.04066 -0.126039 1.71894e-19)
(-1.95718 -0.123884 6.36367e-20)
(-1.87445 -0.121601 6.96683e-20)
(-1.79244 -0.119297 0)
(-1.71111 -0.117028 0)
(-1.63052 -0.114794 0)
(-1.55073 -0.112572 0)
(-1.47181 -0.110348 0)
(-1.39378 -0.108117 2.19504e-19)
(-1.31668 -0.105881 2.34996e-19)
(-1.24054 -0.103641 0)
(-1.16538 -0.101402 -1.34767e-19)
(-1.09124 -0.0991666 -1.43547e-19)
(-1.01814 -0.0969357 0)
(-0.946103 -0.0947116 -3.2305e-19)
(-0.875142 -0.0924988 0)
(-0.805253 -0.0903108 1.81331e-19)
(-0.736444 -0.0881534 0)
(-0.668727 -0.0860269 0)
(-0.602107 -0.0839336 -4.34467e-19)
(-0.536585 -0.0818749 0)
(-0.472162 -0.0798524 2.44841e-19)
(-0.40884 -0.0778692 0)
(-0.346615 -0.0759309 0)
(-0.285483 -0.0740463 2.8978e-19)
(-0.225434 -0.0722136 3.09085e-19)
(-0.166462 -0.0704272 0)
(-0.10856 -0.0686902 -3.46381e-19)
(-0.0517348 -0.0670028 0)
(0.00401766 -0.0653563 3.82649e-19)
(0.0587386 -0.063744 7.66208e-19)
(0.112461 -0.062177 0)
(0.165187 -0.0606702 0)
(0.216915 -0.0592279 0)
(0.267661 -0.0578481 0)
(0.317457 -0.0565329 7.09253e-19)
(0.366373 -0.0552711 2.09649e-18)
(0.414497 -0.0538927 0)
(0.461739 -0.0522474 0)
(0.507961 -0.0504734 0)
(0.55323 -0.0487268 -6.65638e-19)
(0.59763 -0.0470593 0)
(0.641188 -0.0454792 0)
(0.683922 -0.0439842 1.28795e-18)
(0.725852 -0.0425676 6.36957e-19)
(0.767 -0.0412222 6.32433e-19)
(0.807388 -0.0399412 0)
(0.847036 -0.0387193 0)
(0.885967 -0.0375519 6.15888e-19)
(0.924201 -0.0364354 -6.09652e-19)
(0.96176 -0.0353669 0)
(0.998666 -0.0343438 0)
(1.03494 -0.033364 -5.96793e-19)
(1.0706 -0.0324255 1.7764e-18)
(1.10567 -0.0315269 0)
(1.14018 -0.0306667 0)
(1.17414 -0.0298436 5.80325e-19)
(1.20757 -0.0290565 0)
(1.2405 -0.0283043 1.14494e-18)
(1.27295 -0.027586 -5.68538e-19)
(1.30495 -0.0269006 0)
(1.3365 -0.0262472 5.62425e-19)
(1.36764 -0.0256247 1.11757e-18)
(1.39839 -0.0250321 0)
(1.42877 -0.0244682 0)
(1.45879 -0.0239313 -5.49588e-19)
(1.48849 -0.0234198 0)
(1.51787 -0.0229315 1.08646e-18)
(1.54696 -0.0224633 0)
(1.57576 -0.0220115 0)
(1.60428 -0.0215711 0)
(1.63253 -0.0211354 0)
(1.6605 -0.0206955 -5.29007e-19)
(1.68816 -0.0202393 -5.26238e-19)
(1.71549 -0.0197505 0)
(1.74242 -0.0192063 0)
(1.76887 -0.0185751 0)
(1.79468 -0.0178113 5.1614e-19)
(1.81966 -0.0168479 0)
(1.84348 -0.0155817 -1.02486e-18)
(1.86572 -0.0138358 1.0226e-18)
(1.88545 -0.0113256 1.02222e-18)
(1.90225 -0.00731052 1.02331e-18)
(1.91246 -0.000519739 1.02847e-18)
(1.92476 0.0124242 1.02036e-18)
(1.9052 0.0361863 0)
(0.116522 -0.859625 0)
(0.269248 -1.05723 0)
(0.31646 -0.826561 -1.26286e-19)
(0.315838 -0.584787 -1.08129e-19)
(0.29847 -0.3743 1.00443e-19)
(0.267328 -0.189149 1.00616e-19)
(0.221219 -0.0236613 -6.46751e-22)
(0.159401 0.124116 0)
(0.0817513 0.254704 0)
(-0.0129595 0.365686 0)
(-0.128269 0.451469 0)
(-0.272229 0.512543 0)
(-0.457758 0.566253 -2.67633e-19)
(-0.695416 0.640786 0)
(-0.981556 0.753191 6.63517e-20)
(-1.30032 0.895164 5.7232e-20)
(-1.63373 1.0434 0)
(-1.96484 1.17759 0)
(-2.27836 1.28516 0)
(-2.56243 1.35903 0)
(-2.81167 1.39496 3.49116e-20)
(-3.02574 1.39269 0)
(-3.20603 1.35686 -3.23485e-20)
(-3.35533 1.29469 0)
(-3.47814 1.21353 0)
(-3.57904 1.11978 0)
(-3.66285 1.01952 -6.85831e-20)
(-3.73393 0.918092 0)
(-3.79582 0.819639 3.31132e-20)
(-3.8513 0.726963 -7.0695e-20)
(-3.90228 0.641581 0)
(-3.95008 0.564233 0)
(-3.99544 0.494973 0)
(-4.03874 0.433416 3.6561e-20)
(-4.08008 0.378914 3.71487e-20)
(-4.11942 0.330695 0)
(-4.15662 0.287961 0)
(-4.19151 0.249952 -7.77969e-20)
(-4.22391 0.215973 -7.81903e-20)
(-4.25366 0.185412 7.84237e-20)
(-4.28061 0.157751 0)
(-4.30465 0.13256 0)
(-4.32568 0.10949 0)
(-4.34364 0.0882569 0)
(-4.35846 0.068627 -7.70083e-20)
(-4.37009 0.0503999 -7.69105e-20)
(-4.37846 0.0333914 7.62677e-20)
(-4.38343 0.0174004 0)
(-4.38483 0.00217052 0)
(-4.3825 -0.0125847 0)
(-4.37638 -0.0269988 0)
(-4.36653 -0.0409854 -7.11044e-20)
(-4.35302 -0.0544523 0)
(-4.33586 -0.0673884 0)
(-4.31511 -0.0797979 -6.69927e-20)
(-4.29081 -0.0916897 -6.4967e-20)
(-4.26304 -0.103071 0)
(-4.23185 -0.113946 1.24565e-19)
(-4.19734 -0.124318 -6.0029e-20)
(-4.15958 -0.134184 5.82524e-20)
(-4.11866 -0.143545 0)
(-4.07468 -0.152398 0)
(-4.02774 -0.160741 0)
(-3.97794 -0.168573 0)
(-3.92539 -0.175897 4.84206e-20)
(-3.8702 -0.182715 9.37722e-20)
(-3.81249 -0.189026 4.40553e-20)
(-3.75237 -0.194833 -4.17831e-20)
(-3.68996 -0.200143 0)
(-3.62538 -0.204962 7.54207e-20)
(-3.55877 -0.209298 7.05376e-20)
(-3.49023 -0.21316 6.55381e-20)
(-3.4199 -0.216558 -6.04229e-20)
(-3.3479 -0.219504 0)
(-3.27436 -0.22201 -7.40928e-20)
(-3.1994 -0.22409 0)
(-3.12314 -0.225759 2.00933e-20)
(-3.04571 -0.227032 1.58702e-20)
(-2.96722 -0.227924 0)
(-2.88779 -0.228453 0)
(-2.80754 -0.228636 1.53575e-20)
(-2.72658 -0.22849 0)
(-2.64502 -0.228035 2.92313e-21)
(-2.56297 -0.227288 0)
(-2.48053 -0.226268 9.99977e-21)
(-2.3978 -0.224996 3.47273e-20)
(-2.31488 -0.22349 0)
(-2.23187 -0.221769 0)
(-2.14887 -0.219853 0)
(-2.06596 -0.217759 4.45844e-20)
(-1.98325 -0.215501 0)
(-1.90084 -0.213092 5.94059e-20)
(-1.81881 -0.210533 0)
(-1.73727 -0.207808 0)
(-1.65627 -0.204892 -1.67058e-19)
(-1.57586 -0.201769 0)
(-1.49606 -0.198453 -9.93152e-20)
(-1.41686 -0.194988 0)
(-1.3383 -0.19143 -1.16594e-19)
(-1.26044 -0.187818 0)
(-1.18334 -0.18417 0)
(-1.10704 -0.180494 0)
(-1.03159 -0.176796 -4.62697e-19)
(-0.957021 -0.173083 -1.65045e-19)
(-0.883368 -0.16936 0)
(-0.810657 -0.165636 0)
(-0.738911 -0.161916 0)
(-0.668153 -0.158205 0)
(-0.598401 -0.154507 2.1884e-19)
(-0.529665 -0.150828 -4.58469e-19)
(-0.461952 -0.147178 -2.42673e-19)
(-0.395274 -0.143565 5.0766e-19)
(-0.329641 -0.139994 5.33457e-19)
(-0.265058 -0.136471 2.81378e-19)
(-0.201528 -0.133 0)
(-0.139052 -0.129579 6.16224e-19)
(-0.0776301 -0.126212 0)
(-0.0172651 -0.122903 -6.73557e-19)
(0.0420496 -0.119652 -3.45163e-19)
(0.100327 -0.116461 0)
(0.157575 -0.113332 6.93132e-19)
(0.213797 -0.110269 3.48835e-19)
(0.269006 -0.107272 0)
(0.32321 -0.104331 3.48729e-19)
(0.376418 -0.101435 -1.05283e-18)
(0.428638 -0.0985939 0)
(0.479886 -0.0958172 0)
(0.530177 -0.093108 0)
(0.579529 -0.090467 0)
(0.627964 -0.0878989 -7.07758e-19)
(0.675517 -0.0854106 -7.1025e-19)
(0.72221 -0.0830171 0)
(0.768011 -0.0807058 0)
(0.812903 -0.0784373 0)
(0.85694 -0.0762105 0)
(0.900164 -0.0740416 0)
(0.942592 -0.0719391 0)
(0.984236 -0.0699057 -7.14025e-19)
(1.02511 -0.0679412 -1.0887e-21)
(1.06524 -0.066044 0)
(1.10464 -0.0642121 0)
(1.14333 -0.0624434 -7.13859e-19)
(1.18133 -0.0607363 0)
(1.21866 -0.059089 7.14907e-19)
(1.25534 -0.0575001 7.14046e-19)
(1.29139 -0.0559682 0)
(1.32684 -0.0544921 0)
(1.3617 -0.0530707 -7.1458e-19)
(1.39599 -0.051703 -1.42736e-18)
(1.42973 -0.0503878 0)
(1.46295 -0.0491244 0)
(1.49567 -0.0479118 0)
(1.5279 -0.046749 -7.13273e-19)
(1.55968 -0.0456352 7.12891e-19)
(1.59101 -0.0445694 0)
(1.62193 -0.0435506 1.42291e-18)
(1.65245 -0.0425775 7.10433e-19)
(1.68259 -0.0416488 -1.42085e-18)
(1.71238 -0.0407629 0)
(1.74184 -0.0399177 0)
(1.77098 -0.0391107 -1.41704e-18)
(1.79983 -0.0383385 -7.08229e-19)
(1.82839 -0.0375968 0)
(1.85669 -0.0368799 0)
(1.88472 -0.0361802 0)
(1.91251 -0.0354876 0)
(1.94004 -0.0347885 -1.40689e-18)
(1.96729 -0.0340646 0)
(1.99425 -0.0332909 0)
(2.02086 -0.0324332 0)
(2.04704 -0.0314436 0)
(2.07268 -0.0302537 0)
(2.09761 -0.0287628 0)
(2.12157 -0.0268194 -1.39753e-18)
(2.14422 -0.0241718 0)
(2.16489 -0.0204149 0)
(2.18335 -0.0147563 -2.81628e-18)
(2.19679 -0.0058787 1.41816e-18)
(2.21148 0.00887561 -1.41627e-18)
(2.20639 0.0362546 1.41172e-18)
(0.0334357 -1.16641 0)
(0.0699201 -1.03044 3.59791e-19)
(0.0342372 -0.74746 0)
(-0.0101585 -0.506976 1.1086e-19)
(-0.0654198 -0.284262 0)
(-0.133203 -0.0746745 0)
(-0.216359 0.122185 -8.28371e-20)
(-0.317263 0.30558 0)
(-0.438039 0.475067 0)
(-0.58129 0.631195 0)
(-0.75087 0.77649 0)
(-0.951997 0.917043 0)
(-1.18733 1.06098 2.04325e-19)
(-1.45134 1.21176 9.24882e-20)
(-1.72956 1.36316 -8.37271e-20)
(-2.0036 1.50183 0)
(-2.25768 1.61389 0)
(-2.48174 1.69 0)
(-2.67097 1.7264 0)
(-2.82396 1.72437 0)
(-2.94325 1.68776 6.01675e-20)
(-3.03437 1.62181 5.88484e-20)
(-3.10343 1.53334 -5.7993e-20)
(-3.15677 1.43 5.76891e-20)
(-3.19978 1.31851 0)
(-3.23681 1.20428 0)
(-3.27133 1.09168 5.58377e-20)
(-3.30569 0.983995 0)
(-3.3412 0.883361 0)
(-3.37834 0.790821 5.86919e-20)
(-3.41713 0.706619 6.15114e-20)
(-3.45724 0.630529 6.22233e-20)
(-3.49812 0.562022 0)
(-3.53915 0.500401 0)
(-3.57973 0.444907 -6.40343e-20)
(-3.6193 0.394783 0)
(-3.65735 0.349316 0)
(-3.69347 0.307864 6.43076e-20)
(-3.72733 0.26986 -6.60287e-20)
(-3.75863 0.234816 6.60394e-20)
(-3.78716 0.202318 0)
(-3.81273 0.172013 0)
(-3.83519 0.143606 1.30012e-19)
(-3.8544 0.116845 0)
(-3.87027 0.0915186 1.28624e-19)
(-3.8827 0.0674505 1.91034e-19)
(-3.8916 0.0444963 -1.89392e-19)
(-3.89692 0.0225356 1.25327e-19)
(-3.89861 0.00145143 0)
(-3.89666 -0.0188724 0)
(-3.89113 -0.0385142 1.19871e-19)
(-3.88205 -0.0574928 5.84048e-20)
(-3.86947 -0.0758044 0)
(-3.85341 -0.0934478 0)
(-3.83393 -0.110422 5.48986e-20)
(-3.81105 -0.126728 1.08248e-19)
(-3.78485 -0.142362 0)
(-3.75538 -0.157323 -1.01795e-19)
(-3.72271 -0.171606 9.99653e-20)
(-3.68692 -0.185208 -9.69934e-20)
(-3.64809 -0.198122 0)
(-3.60631 -0.210345 0)
(-3.56167 -0.22187 0)
(-3.51427 -0.232695 0)
(-3.46422 -0.242824 0)
(-3.41161 -0.252258 -7.59203e-20)
(-3.35656 -0.260996 0)
(-3.29918 -0.269042 0)
(-3.23959 -0.276403 0)
(-3.1779 -0.283089 -1.22617e-19)
(-3.11422 -0.28911 -5.67007e-20)
(-3.04869 -0.294478 -5.25995e-20)
(-2.98142 -0.299207 9.80339e-20)
(-2.91253 -0.303312 -4.53594e-20)
(-2.84214 -0.306811 3.98075e-20)
(-2.77037 -0.309722 0)
(-2.69735 -0.312065 -3.08849e-20)
(-2.62318 -0.31386 0)
(-2.54799 -0.31513 0)
(-2.47188 -0.315896 0)
(-2.39498 -0.316182 -2.54836e-20)
(-2.31739 -0.316013 8.48192e-21)
(-2.23922 -0.315411 4.76441e-21)
(-2.16057 -0.314401 -2.98827e-21)