/*--------------------------------*- C++ -*----------------------------------*\
  =========                 |
  \\      /  F ield         | OpenFOAM: The Open Source CFD Toolbox
   \\    /   O peration     | Website:  https://openfoam.org
    \\  /    A nd           | Version:  8
     \\/     M anipulation  |
\*---------------------------------------------------------------------------*/
FoamFile
{
    version     2.0;
    format      ascii;
    class       volVectorField;
    location    "2100";
    object      wallShearStress;
}
// * * * * * * * * * * * * * * * * * * * * * * * * * * * * * * * * * * * * * //

dimensions      [0 2 -2 0 0 0 0];

internalField   uniform (0 0 0);

boundaryField
{
    inlet
    {
        type            calculated;
        value           uniform (0 0 0);
    }
    outlet
    {
        type            calculated;
        value           uniform (0 0 0);
    }
    upperWall
    {
        type            calculated;
        value           nonuniform List<vector> 
223
(
(-0.582193 -0.392359 0)
(-0.977814 -0.219377 0)
(-0.939336 -0.0567747 0)
(-0.81071 -0.00585788 0)
(-0.734594 0.00331369 0)
(-0.695452 0.00231539 0)
(-0.67094 0.000424309 0)
(-0.6535 -0.00144897 0)
(-0.64054 -0.00256688 0)
(-0.629801 -0.00217396 0)
(-0.620127 -0.00134607 0)
(-0.610874 -0.00098511 0)
(-0.603116 -0.0016307 0)
(-0.597036 -0.0015537 0)
(-0.590595 0.000494768 0)
(-0.584425 0.000998244 0)
(-0.579584 -0.000225405 0)
(-0.574927 0.000549096 0)
(-0.57058 0.00128713 0)
(-0.567177 0.000646584 4.21328e-22)
(-0.564463 0.00059744 0)
(-0.561877 0.00147575 0)
(-0.559145 0.00289815 0)
(-0.55614 0.00392224 4.50264e-22)
(-0.552954 0.00446777 0)
(-0.549779 0.0045215 0)
(-0.54675 0.0040604 0)
(-0.543938 0.00358341 -9.37953e-22)
(-0.541209 0.00317684 9.48101e-22)
(-0.538525 0.00277153 9.58455e-22)
(-0.535889 0.00242002 0)
(-0.533273 0.00213413 -9.80375e-22)
(-0.530656 0.0018945 0)
(-0.52804 0.00170594 1.00377e-21)
(-0.525407 0.00154788 1.01585e-21)
(-0.522757 0.00143027 -1.02835e-21)
(-0.52008 0.00133385 0)
(-0.517387 0.00125609 0)
(-0.514674 0.0011956 0)
(-0.511936 0.00114883 0)
(-0.509173 0.00111318 -1.09176e-21)
(-0.50638 0.00108663 0)
(-0.503556 0.00106757 0)
(-0.500698 0.00105484 1.1317e-21)
(-0.497803 0.00104752 0)
(-0.494866 0.00104459 1.15823e-21)
(-0.491886 0.00104535 -1.17123e-21)
(-0.488858 0.00104908 1.18397e-21)
(-0.485779 0.00105553 0)
(-0.482647 0.00106308 0)
(-0.47946 0.00107105 0)
(-0.476221 0.00107879 1.23122e-21)
(-0.472934 0.00108494 -1.24181e-21)
(-0.469611 0.00108971 0)
(-0.466266 0.00109415 0)
(-0.462916 0.00109875 0)
(-0.45957 0.00110275 0)
(-0.456234 0.00110491 0)
(-0.452909 0.0011045 0)
(-0.44959 0.00110167 0)
(-0.446269 0.00109699 0)
(-0.442937 0.00109154 1.29195e-21)
(-0.439581 0.00108646 -1.29171e-21)
(-0.436192 0.00108251 0)
(-0.432757 0.00108038 0)
(-0.429267 0.00108032 0)
(-0.425711 0.00108231 -1.2783e-21)
(-0.422083 0.00108624 0)
(-0.418376 0.00109189 0)
(-0.414582 0.00109889 0)
(-0.410698 0.00110679 0)
(-0.406721 0.00111511 0)
(-0.402649 0.00112337 -2.43419e-21)
(-0.398481 0.00113111 0)
(-0.394217 0.00113762 0)
(-0.389862 0.0011425 0)
(-0.38542 0.00114554 0)
(-0.380901 0.0011466 0)
(-0.376316 0.00114557 0)
(-0.371676 0.00114214 0)
(-0.366995 0.00113606 2.09513e-21)
(-0.362282 0.00112713 0)
(-0.357545 0.00111552 0)
(-0.352788 0.00110151 0)
(-0.348016 0.00108564 -1.83948e-21)
(-0.343225 0.00106847 0)
(-0.338416 0.00105055 -1.69006e-21)
(-0.333585 0.00103261 0)
(-0.328726 0.00101552 0)
(-0.323831 0.000999978 0)
(-0.319022 0.000992142 -1.35088e-21)
(-0.316382 0.00100131 0)
(-0.313657 0.00101515 1.18041e-21)
(-0.310852 0.00102977 1.08972e-21)
(-0.307972 0.00104298 0)
(-0.305028 0.00105386 8.96035e-22)
(-0.30203 0.00106267 0)
(-0.298994 0.00106979 0)
(-0.295932 0.00107758 0)
(-0.29286 0.00108361 -4.54598e-22)
(-0.28979 0.00109708 0)
(-0.286738 0.00109637 -2.05146e-22)
(-0.283706 0.00110516 7.32058e-23)
(-0.280727 0.00111162 0)
(-0.277785 0.00111167 0)
(-0.27491 0.00110418 0)
(-0.272091 0.00107763 0)
(-0.269339 0.00103997 0)
(-0.266651 0.000997469 0)
(-0.26401 0.000962958 0)
(-0.261582 0.000862288 1.14938e-21)
(-0.259125 0.000858461 0)
(-0.2569 0.00100774 0)
(-0.25475 0.00163131 0)
(-0.252916 0.00148833 0)
(-0.25064 0.00117107 0)
(-0.24899 0.00117161 0)
(-0.246802 0.0011441 0)
(-0.245163 0.00144738 0)
(-0.243349 0.00126385 0)
(-0.24171 0.00108541 0)
(-0.240154 0.000985702 0)
(-0.238418 0.000597875 0)
(-0.236477 0.000636636 7.16704e-21)
(-0.234925 0.000983929 0)
(-0.233204 0.000666795 0)
(-0.231758 0.000239528 0)
(-0.229708 0.000455081 -8.8308e-21)
(-0.228363 0.000503517 0)
(-0.226848 0.00046944 0)
(-0.22518 0.000802744 -1.00338e-20)
(-0.223818 0.000648496 0)
(-0.222656 0.000365431 1.08271e-20)
(-0.220823 0.000562184 0)
(-0.21976 0.000548181 0)
(-0.218236 0.000434627 0)
(-0.217102 0.00078247 -1.25102e-20)
(-0.216105 0.000136087 0)
(-0.214458 -0.000433868 1.35228e-20)
(-0.212962 -0.00015614 0)
(-0.211717 -2.60387e-05 0)
(-0.210914 5.32922e-05 0)
(-0.209821 0.000302227 0)
(-0.208683 0.000260418 0)
(-0.208004 0.000151757 0)
(-0.207075 0.00026977 0)
(-0.206394 0.000320021 0)
(-0.205243 0.000265951 0)
(-0.204558 0.00021266 0)
(-0.203791 0.000264139 0)
(-0.203004 0.000308183 1.84771e-20)
(-0.202322 0.000297521 -1.88745e-20)
(-0.201607 0.000334557 0)
(-0.200969 0.00044233 0)
(-0.200344 0.000426832 0)
(-0.199768 0.000366092 0)
(-0.199331 0.000759798 -2.08319e-20)
(-0.198717 0.000974498 2.1299e-20)
(-0.198312 0.00067461 -2.16448e-20)
(-0.197837 0.000100549 0)
(-0.19706 -0.000242395 -2.26591e-20)
(-0.196313 -5.73556e-05 -4.62155e-20)
(-0.195967 0.000103716 0)
(-0.195238 0.000139719 -4.78494e-20)
(-0.195112 0.000127501 4.83454e-20)
(-0.194632 7.11385e-05 0)
(-0.194609 0.000141403 0)
(-0.193937 0.000266408 0)
(-0.193656 0.000239449 0)
(-0.1929 0.000249951 0)
(-0.191995 0.000255131 -5.37774e-20)
(-0.191936 0.000194051 0)
(-0.191918 0.000249753 -5.50129e-20)
(-0.191187 0.000316569 0)
(-0.190392 0.000221853 0)
(-0.190346 0.00024859 0)
(-0.18957 0.00027058 0)
(-0.189168 0.00024486 0)
(-0.188587 0.000284873 6.08276e-20)
(-0.187631 0.000265488 0)
(-0.187168 0.000275112 0)
(-0.186577 0.000298903 -6.39321e-20)
(-0.185771 0.000303784 0)
(-0.185066 0.000286448 0)
(-0.184298 0.000346902 0)
(-0.182952 0.000450435 6.89985e-20)
(-0.181497 0.000380792 0)
(-0.180676 0.000369623 0)
(-0.178863 0.000474304 0)
(-0.17701 0.00048695 0)
(-0.175271 0.000532107 -7.6904e-20)
(-0.172566 0.0006398 0)
(-0.169345 0.000742619 0)
(-0.165582 0.00087355 0)
(-0.160924 0.00108659 8.86157e-20)
(-0.154124 0.00141566 0)
(-0.147556 0.00249535 0)
(-0.12287 0.00259095 -1.07612e-19)
(-0.14111 0.00687062 0)
(-0.169406 0.0133306 1.25203e-17)
(-0.186826 0.0171492 2.35584e-17)
(-0.193337 0.018913 2.27069e-17)
(-0.196867 0.0197096 2.19879e-17)
(-0.200887 0.0203285 2.11716e-17)
(-0.205425 0.0210192 -2.02469e-17)
(-0.209717 0.0215112 -1.95196e-17)
(-0.214043 0.0218984 -6.01853e-36)
(-0.217784 0.0220212 -3.67751e-17)
(-0.219985 0.0221666 -1.80863e-17)
(-0.224588 0.0227069 9.26854e-34)
(-0.227453 0.0229003 0)
(-0.231062 0.0233636 -3.22712e-17)
(-0.235458 0.0239508 -3.06562e-17)
(-0.242441 0.0247982 -2.84645e-17)
(-0.249626 0.025457 -2.40741e-35)
(-0.256934 0.0260737 4.94018e-17)
(-0.263951 0.02665 2.26462e-17)
(-0.272776 0.0274475 2.40741e-35)
(-0.28267 0.0283573 -3.48612e-17)
(-0.29123 0.0290021 -1.58558e-20)
(-0.3008 0.0295574 0)
(-0.305381 0.0305117 1.34124e-17)
(-0.332967 0.0321998 -7.6252e-18)
)
;
    }
    lowerWall
    {
        type            calculated;
        value           nonuniform List<vector> 
250
(
(-0.653909 0.466638 0)
(-1.14095 0.204678 0)
(-1.03492 0.0379587 0)
(-0.869573 -0.000935938 0)
(-0.786941 -0.00419156 0)
(-0.746063 -0.00160774 0)
(-0.719879 0.000416347 0)
(-0.700647 -0.000651617 0)
(-0.685091 -0.00405582 0)
(-0.671321 -0.00471204 0)
(-0.658938 -0.00298797 0)
(-0.647726 -0.000863862 0)
(-0.637524 0.00142677 0)
(-0.6282 0.00210496 0)
(-0.619336 0.00136914 0)
(-0.611541 0.00136024 0)
(-0.604615 0.00169823 0)
(-0.60509 0.00195546 0)
(-0.00423717 -0.0229316 0)
(-0.00277566 -0.0177708 0)
(-0.000718044 -0.0145954 0)
(0.00189281 -0.0138708 8.99639e-20)
(0.00521673 -0.015252 -7.84921e-20)
(0.00891332 -0.0208526 6.2799e-20)
(0.012687 -0.0200599 -4.84625e-20)
(0.0256269 -0.063287 0)
(-0.083978 -0.144696 0)
(0.000880552 -0.00384482 0)
(-0.00766439 0.00953176 0)
(-0.00852223 0.0328175 0)
(-0.00255759 0.0448679 0)
(0.0029479 0.0442886 1.82185e-20)
(0.00617882 0.0360966 -1.89578e-20)
(0.00818348 0.0242002 0)
(0.00945683 0.0102021 -5.41619e-20)
(0.0094315 -0.00400088 6.11403e-20)
(0.00793579 -0.0173813 0)
(0.00614401 -0.0291556 0)
(0.00438432 -0.0385266 0)
(0.00268962 -0.045108 0)
(0.000988788 -0.0488521 0)
(-0.00088217 -0.0494937 0)
(-0.00281689 -0.0463943 0)
(-0.00437418 -0.0399039 0)
(-0.00490397 -0.0308429 0)
(0.00132962 -0.00151663 0)
(0.00134169 0.00652732 0)
(-0.00450625 0.00962101 0)
(-0.00959589 0.00976075 0)
(-0.0133842 0.00830464 0)
(-0.015893 0.00624047 0)
(-0.0172703 0.00410248 1.49515e-21)
(-0.0177908 0.00201044 -1.52659e-21)
(-0.0173414 -3.36565e-06 0)
(-0.0160655 -0.00168422 -1.65218e-21)
(-0.0142005 -0.0028379 0)
(-0.0120613 -0.00329954 0)
(-0.0100586 -0.00304085 -0)
(-0.00855742 -0.00228488 2.5694e-21)
(-0.00761877 -0.00142454 0)
(-0.00694126 -0.000811947 0)
(-0.00612664 -0.000612318 -3.37548e-21)
(-0.00500318 -0.000979621 0)
(-0.00343049 -0.00235075 0)
(-0.000536325 -0.00503684 0)
(0.00432459 -0.00739962 3.04707e-21)
(0.0099112 -0.00889234 0)
(0.0158132 -0.00985121 1.4713e-21)
(0.0218618 -0.0106156 0)
(0.0280667 -0.0112686 -0)
(0.0343787 -0.0115163 8.451e-22)
(0.0405138 -0.0113575 0)
(0.0491057 -0.0116032 -7.53975e-22)
(0.0588972 -0.0117567 -0)
(0.0685933 -0.0115851 7.7063e-22)
(0.0780051 -0.0111721 0)
(0.086981 -0.0105876 0)
(0.0954286 -0.00989361 0)
(0.103289 -0.00914006 -0)
(0.110539 -0.00836399 0)
(0.117175 -0.00759254 -8.11104e-22)
(0.12321 -0.00684305 -0)
(0.128668 -0.006125 1.63299e-21)
(0.133575 -0.00544248 0)
(0.137959 -0.00479593 -1.63487e-21)
(0.141846 -0.00418362 -0)
(0.14526 -0.00360273 -0)
(0.148221 -0.00305067 1.62098e-21)
(0.150748 -0.00252509 0)
(0.152855 -0.00202485 1.60076e-21)
(0.154553 -0.00155102 -1.58745e-21)
(0.155855 -0.00110689 -0)
(0.156774 -0.000699298 -1.55484e-21)
(0.157321 -0.000338194 -1.5358e-21)
(0.157507 -4.00792e-05 -0)
(0.157402 0.000194597 0)
(0.15707 0.000391409 0)
(0.156516 0.000568065 0)
(0.155755 0.000730987 -0)
(0.154795 0.000884117 1.37575e-21)
(0.153643 0.00102825 0)
(0.152307 0.00116393 -1.30697e-21)
(0.150794 0.00129159 -0)
(0.149111 0.00141118 -0)
(0.147266 0.00152274 1.19052e-21)
(0.145267 0.00162633 0)
(0.143121 0.00172183 -1.10482e-21)
(0.140838 0.00180926 -0)
(0.138424 0.00188854 0)
(0.13589 0.00195974 -0)
(0.133245 0.00202294 9.16801e-22)
(0.130497 0.00207829 0)
(0.127655 0.00212587 -0)
(0.124729 0.00216579 7.63763e-22)
(0.121728 0.0021982 0)
(0.118661 0.00222338 6.57231e-22)
(0.115538 0.00224161 0)
(0.112366 0.00225304 0)
(0.109156 0.00225795 0)
(0.105916 0.00225669 -4.36158e-22)
(0.102653 0.00224962 -0)
(0.0993767 0.00223693 0)
(0.0960943 0.00221896 -2.65562e-22)
(0.0928131 0.00219612 -2.08113e-22)
(0.0895406 0.00216872 -0)
(0.0862832 0.00213712 -9.26462e-23)
(0.0830473 0.00210168 -0)
(0.0798389 0.00206267 4.66194e-23)
(0.0766638 0.00202051 -0)
(0.0735271 0.00197574 2.79033e-22)
(0.0704332 0.00192877 0)
(0.0673867 0.00188022 -5.11707e-22)
(0.0643909 0.00183083 -0)
(0.0614495 0.00178152 0)
(0.0585651 0.00173373 -0)
(0.0557392 0.00168916 9.78458e-22)
(0.0529735 0.00164984 0)
(0.0502684 0.00161801 -1.21389e-21)
(0.0476224 0.00159478 0)
(0.045784 0.00160342 1.47566e-21)
(0.0442418 0.00162096 1.63416e-21)
(0.0427027 0.00162589 1.79908e-21)
(0.0411754 0.00161298 0)
(0.0396651 0.00158966 0)
(0.0381714 0.00156399 0)
(0.0366932 0.00153815 0)
(0.0352304 0.00151246 0)
(0.0337832 0.00148687 0)
(0.0323523 0.00146135 0)
(0.0309383 0.00143612 0)
(0.0295414 0.00141134 -3.69183e-21)
(0.028162 0.00138714 -3.96747e-21)
(0.0268003 0.0013637 0)
(0.0254565 0.00134072 0)
(0.024131 0.00131665 0)
(0.0228253 0.00129175 -5.26739e-21)
(0.0215392 0.00126754 0)
(0.0202726 0.00124391 0)
(0.0190255 0.00122084 0)
(0.0177982 0.0011984 0)
(0.0165906 0.00117667 7.53597e-21)
(0.0154027 0.00115572 0)
(0.0142346 0.00113563 0)
(0.013086 0.00111651 -9.45474e-21)
(0.011957 0.0010984 1.02323e-20)
(0.0108474 0.00108139 0)
(0.00975728 0.00106577 1.20685e-20)
(0.00868645 0.00105218 0)
(0.0076346 0.0010418 -1.44069e-20)
(0.00660102 0.00103491 0)
(0.0055854 0.0010305 0)
(0.00458769 0.00102829 0)
(0.00360744 0.00102858 0)
(0.00264422 0.00103161 0)
(0.00169849 0.00103734 5.57088e-20)
(0.000771746 0.00104292 6.42185e-20)
(-0.000138052 0.00103022 0)
(-0.00103533 0.00098741 0)
(-0.00191715 0.000935026 0)
(-0.00278346 0.000885539 -5.28917e-20)
(-0.00363417 0.000840621 0)
(-0.00446908 0.000799877 0)
(-0.00528857 0.000762812 0)
(-0.0060932 0.000728938 -4.04173e-20)
(-0.00688356 0.000697795 3.83673e-20)
(-0.00766014 0.000669004 0)
(-0.00842339 0.000642255 0)
(-0.00917378 0.000617311 3.36194e-20)
(-0.00991173 0.000593968 3.2379e-20)
(-0.0106377 0.000572066 0)
(-0.0113521 0.000551465 0)
(-0.0120553 0.000532054 -2.93538e-20)
(-0.0127478 0.000513738 2.8526e-20)
(-0.01343 0.000496431 0)
(-0.0141023 0.000480066 0)
(-0.0147652 0.00046458 2.64363e-20)
(-0.0154191 0.000449924 0)
(-0.0160644 0.000436045 0)
(-0.0167016 0.000422907 2.4791e-20)
(-0.0173311 0.000410475 0)
(-0.0179535 0.00039871 2.38749e-20)
(-0.0185691 0.000387583 0)
(-0.0191785 0.000377067 0)
(-0.0197821 0.000367127 0)
(-0.0203803 0.000357738 -2.23591e-20)
(-0.0209736 0.000348856 0)
(-0.0215625 0.000340435 0)
(-0.0221471 0.000332441 0)
(-0.022728 0.000324814 0)
(-0.0233054 0.000317455 0)
(-0.0238792 0.000310249 0)
(-0.0244493 0.000303053 -2.03857e-20)
(-0.0250153 0.000295677 -2.01554e-20)
(-0.0255763 0.000287857 0)
(-0.0261312 0.000279194 0)
(-0.0266774 0.000269162 0)
(-0.0272118 0.00025703 1.93605e-20)
(-0.0277291 0.00024154 0)
(-0.0282209 0.000221301 -3.81348e-20)
(-0.0286778 0.000192267 3.79286e-20)
(-0.029071 0.000152627 3.78193e-20)
(-0.029402 7.78783e-05 -3.78578e-20)
(-0.0294837 -3.93789e-05 3.8045e-20)
(-0.0295085 -0.000356547 -3.83972e-20)
(-0.0279738 -0.000616895 0)
(-0.0293464 -0.000516223 -2.43313e-18)
(-0.0327701 -0.00134241 -2.26972e-18)
(-0.0364137 -0.00203342 3.00927e-36)
(-0.0395343 -0.0025761 -4.06078e-18)
(-0.0424845 -0.00301863 -7.75758e-18)
(-0.0455565 -0.00342179 -3.7196e-18)
(-0.0487807 -0.00381947 3.5676e-18)
(-0.0521075 -0.00429522 -1.20371e-35)
(-0.0556166 -0.00470438 6.01853e-36)
(-0.0592931 -0.00507928 3.1573e-18)
(-0.0632439 -0.00547539 3.01929e-18)
(-0.0674438 -0.00582107 0)
(-0.0719276 -0.00623436 0)
(-0.0767382 -0.00669981 0)
(-0.0819266 -0.00719991 -7.97926e-35)
(-0.0875442 -0.00774464 -1.00058e-34)
(-0.0936609 -0.00834603 1.17361e-34)
(-0.100331 -0.00900967 -4.15803e-18)
(-0.107693 -0.00973057 -3.81217e-18)
(-0.116754 -0.0106235 1.20371e-35)
(-0.127571 -0.011627 6.13664e-18)
(-0.138426 -0.0127339 1.03491e-17)
(-0.15365 -0.0139272 0)
(-0.162851 -0.0152942 -5.09807e-18)
(-0.191965 -0.0169821 1.80556e-35)
)
;
    }
    frontAndBack
    {
        type            empty;
    }
}


// ************************************************************************* //
