/*--------------------------------*- C++ -*----------------------------------*\
  =========                 |
  \\      /  F ield         | OpenFOAM: The Open Source CFD Toolbox
   \\    /   O peration     | Website:  https://openfoam.org
    \\  /    A nd           | Version:  8
     \\/     M anipulation  |
\*---------------------------------------------------------------------------*/
FoamFile
{
    version     2.0;
    format      ascii;
    class       volScalarField;
    location    "1200";
    object      nut;
}
// * * * * * * * * * * * * * * * * * * * * * * * * * * * * * * * * * * * * * //

dimensions      [0 2 -1 0 0 0 0];

internalField   nonuniform List<scalar> 
12225
(
4.96732e-05
0.000166295
8.1193e-05
5.92702e-05
6.04745e-05
2.80282e-05
0.000121562
0.000148605
0.000139187
0.000183918
7.98299e-05
6.60279e-05
5.48136e-05
4.43969e-05
4.34768e-05
3.73676e-05
4.33758e-05
3.95368e-05
0.000248084
0.000141594
0.000102571
8.56281e-05
7.76238e-05
6.53027e-05
6.70739e-05
6.79994e-05
6.63634e-05
7.70468e-05
7.1153e-05
6.95503e-05
6.87114e-05
6.88156e-05
6.3499e-05
6.16253e-05
6.39885e-05
6.44435e-05
0.00075956
0.000391005
0.000268761
0.000216205
0.000178913
0.000151181
0.000134232
0.000120967
0.000107768
0.000106019
9.84268e-05
9.69054e-05
9.50904e-05
9.47908e-05
9.16743e-05
8.9934e-05
8.85324e-05
8.70944e-05
0.000827756
0.00071771
0.00054258
0.000465299
0.000402066
0.000345692
0.000309445
0.000275152
0.000250422
0.000230509
0.000216328
0.000202297
0.000192798
0.000182611
0.000175696
0.00016774
0.000162961
0.000157621
0.000851671
0.000827488
0.000745833
0.000691257
0.000636902
0.000584086
0.000539945
0.00049554
0.000460421
0.000427079
0.00040253
0.000377411
0.000359322
0.000339976
0.000327224
0.00031264
0.000305178
0.000293902
0.000853324
0.000848238
0.000824938
0.000800947
0.00077841
0.000749505
0.000719052
0.000684832
0.0006538
0.000621061
0.000593937
0.000565882
0.00054381
0.000520712
0.000504571
0.000486229
0.000476194
0.000462365
0.000851516
0.000851297
0.000845758
0.000838142
0.000830412
0.000820014
0.000808322
0.000791495
0.000773419
0.000752442
0.000732461
0.000711053
0.000692507
0.000673306
0.000658614
0.00064153
0.000631874
0.000617996
0.000851125
0.00085082
0.000848805
0.000846654
0.000843534
0.000839185
0.000834596
0.000828121
0.000819045
0.00080773
0.000795635
0.000782106
0.000769593
0.000756259
0.00074574
0.000733061
0.000725209
0.000714539
0.000851246
0.000850618
0.00084934
0.000848373
0.000847077
0.000845205
0.000843298
0.000840778
0.000837086
0.00083207
0.000825627
0.000818107
0.000810769
0.000802695
0.000796102
0.000787955
0.000782599
0.00077502
0.000851352
0.000850508
0.000849395
0.000848564
0.000847646
0.000846626
0.000845587
0.000844319
0.000843103
0.000840546
0.000838883
0.000835352
0.000832235
0.000828403
0.000824733
0.000820502
0.000817159
0.00081337
0.000851413
0.000850448
0.000849427
0.000848527
0.000847659
0.000846783
0.000845996
0.000845069
0.000844365
0.000843173
0.00084219
0.000840788
0.000839428
0.000837778
0.00083632
0.000834506
0.0008331
0.000831258
0.000851444
0.000850419
0.000849437
0.000848503
0.000847629
0.000846774
0.000845989
0.000845191
0.000844481
0.000843704
0.000842986
0.000842185
0.000841438
0.000840599
0.00083986
0.000839018
0.000838312
0.000837487
0.000851449
0.000850412
0.000849432
0.000848492
0.000847611
0.000846756
0.000845961
0.000845182
0.000844461
0.000843747
0.000843081
0.000842414
0.000841791
0.000841164
0.000840586
0.000840004
0.000839465
0.000838925
0.000851449
0.000850411
0.000849427
0.000848489
0.000847597
0.000846746
0.000845936
0.000845166
0.000844431
0.00084373
0.000843059
0.000842417
0.000841802
0.000841216
0.000840653
0.000840117
0.0008396
0.000839109
0.000851448
0.000850409
0.000849425
0.000848483
0.000847589
0.000846735
0.000845923
0.000845149
0.000844412
0.000843708
0.000843036
0.000842393
0.000841778
0.000841192
0.00084063
0.000840094
0.00083958
0.000839087
0.000851447
0.00085041
0.00084942
0.00084848
0.000847582
0.000846727
0.000845913
0.000845137
0.000844398
0.000843692
0.000843017
0.000842373
0.000841757
0.000841168
0.000840604
0.000840065
0.00083955
0.000839055
0.000851446
0.000850408
0.000849416
0.000848476
0.000847576
0.000846723
0.000845906
0.000845131
0.000844388
0.000843682
0.000843005
0.000842359
0.000841741
0.000841151
0.000840586
0.000840045
0.000839528
0.000839031
0.000851449
0.000850406
0.000849418
0.000848469
0.000847577
0.000846716
0.000845908
0.000845124
0.000844389
0.000843674
0.000843003
0.000842351
0.000841737
0.000841141
0.000840579
0.000840034
0.000839519
0.000839019
0.000851446
0.000850408
0.000849415
0.000848475
0.000847572
0.000846723
0.000845903
0.000845132
0.000844385
0.000843682
0.000843
0.000842358
0.000841735
0.000841147
0.000840577
0.000840039
0.000839516
0.000839024
0.000851448
0.000850409
0.000849419
0.000848474
0.000847579
0.000846722
0.000845912
0.000845132
0.000844395
0.000843684
0.000843011
0.000842362
0.000841746
0.000841152
0.000840588
0.000840044
0.000839528
0.000839029
0.000851445
0.000850412
0.000849421
0.000848482
0.000847583
0.000846733
0.000845917
0.000845144
0.000844402
0.000843696
0.000843019
0.000842371
0.000841751
0.000841157
0.000840586
0.00084004
0.000839514
0.000839012
0.000851445
0.000850417
0.000849423
0.000848491
0.000847591
0.000846747
0.000845926
0.000845153
0.000844395
0.000843681
0.000842972
0.000842305
0.000841635
0.000841009
0.00084037
0.000839776
0.000839163
0.000838594
0.000851419
0.000850434
0.000849428
0.000848521
0.000847592
0.000846738
0.000845838
0.000844989
0.000844073
0.000843188
0.000842227
0.000841293
0.00084028
0.000839298
0.000838218
0.000837207
0.000836066
0.000835027
0.00085132
0.000850536
0.000849446
0.000848518
0.000847263
0.000845968
0.000844335
0.000842672
0.000840566
0.00083842
0.000835897
0.000833369
0.000830542
0.000827639
0.000824688
0.000821733
0.000818479
0.000815584
0.000851012
0.000850808
0.000848723
0.000846575
0.000842327
0.000837054
0.000831643
0.000825303
0.000817526
0.000810063
0.000801552
0.000793686
0.000784986
0.000777156
0.000768541
0.000761025
0.000752657
0.00074565
0.000849832
0.000847143
0.000838494
0.000823788
0.000805722
0.00078688
0.000765048
0.000744939
0.000723424
0.00070457
0.000685018
0.000668337
0.000651065
0.000636591
0.00062139
0.000608923
0.000595517
0.000584896
0.000824075
0.000821693
0.000758687
0.00070628
0.000653417
0.000608475
0.000567006
0.000533751
0.000502487
0.000477803
0.000454161
0.000435628
0.000417296
0.000403021
0.000388394
0.000377164
0.000365244
0.000356339
0.000684598
0.000621723
0.000486941
0.000406631
0.000350081
0.000311056
0.000280096
0.000257826
0.000239034
0.000225093
0.00021243
0.000203094
0.000194098
0.000187517
0.000180825
0.000176041
0.000170941
0.000167445
0.000347256
0.000228774
0.000159113
0.000132868
0.00011841
0.000109689
0.000103619
9.96274e-05
9.64683e-05
9.43823e-05
9.25691e-05
9.14641e-05
9.04017e-05
8.9872e-05
8.92647e-05
8.90752e-05
8.87405e-05
8.87345e-05
0.000131277
7.53994e-05
6.60795e-05
6.50573e-05
6.53063e-05
6.52109e-05
6.50855e-05
6.47597e-05
6.4238e-05
6.36843e-05
6.31315e-05
6.25965e-05
6.20929e-05
6.16232e-05
6.11907e-05
6.07933e-05
6.04292e-05
6.00957e-05
8.8894e-13
1.00743e-10
5.05563e-10
1.94598e-09
6.38102e-09
1.90359e-08
4.81823e-08
9.21766e-08
1.43461e-07
1.90659e-07
2.266e-07
2.39501e-07
2.34013e-07
2.10562e-07
1.68339e-07
1.26189e-07
9.90491e-08
7.7009e-08
5.72579e-08
3.87481e-08
2.38838e-08
1.37494e-08
7.73549e-09
4.53695e-09
3.06804e-09
3.04109e-09
6.14625e-09
1.0731e-08
3.88515e-08
7.83734e-08
1.13172e-07
1.16972e-07
1.29069e-07
1.64498e-07
1.91129e-07
3.80393e-07
7.24799e-07
1.89243e-06
6.49215e-06
1.84742e-05
3.2173e-05
4.39734e-05
5.30796e-05
5.80774e-05
5.97788e-05
4.46379e-05
6.10917e-05
3.9375e-05
3.63525e-05
4.27058e-05
4.21406e-05
4.53236e-05
4.94558e-05
4.71489e-05
4.36888e-05
4.89656e-05
5.04546e-05
5.0762e-05
5.16378e-05
5.22627e-05
5.29243e-05
5.35538e-05
5.41482e-05
5.4745e-05
5.53058e-05
5.58683e-05
5.6406e-05
5.69408e-05
5.74589e-05
5.79719e-05
5.84725e-05
5.8967e-05
5.94519e-05
5.99301e-05
6.04e-05
6.0863e-05
6.13183e-05
6.17665e-05
6.22071e-05
6.26403e-05
6.30656e-05
6.34831e-05
6.38922e-05
6.42928e-05
6.46842e-05
6.50663e-05
6.54383e-05
6.58002e-05
6.61511e-05
6.64911e-05
6.68195e-05
6.71366e-05
6.74428e-05
6.77394e-05
6.80287e-05
6.83146e-05
6.8592e-05
6.88589e-05
6.91171e-05
6.93657e-05
6.96051e-05
6.98347e-05
7.00546e-05
7.02645e-05
7.04643e-05
7.06538e-05
7.08329e-05
7.10012e-05
7.1159e-05
7.13056e-05
7.14413e-05
7.15657e-05
7.16788e-05
7.17804e-05
7.18704e-05
7.19486e-05
7.2015e-05
7.20694e-05
7.21117e-05
7.21418e-05
7.21596e-05
7.21651e-05
7.21581e-05
7.21386e-05
7.21067e-05
7.20621e-05
7.2005e-05
7.19351e-05
7.18524e-05
7.17551e-05
7.16522e-05
7.1536e-05
7.14335e-05
7.12348e-05
7.11501e-05
7.09003e-05
7.07971e-05
7.05386e-05
7.03555e-05
7.01342e-05
6.99083e-05
6.96731e-05
6.94282e-05
6.91712e-05
6.89072e-05
6.86331e-05
6.83513e-05
6.806e-05
6.77603e-05
6.74519e-05
6.71359e-05
6.68125e-05
6.64828e-05
6.61468e-05
6.5805e-05
6.54577e-05
6.51058e-05
6.47498e-05
6.43903e-05
6.40276e-05
6.36625e-05
6.32955e-05
6.2927e-05
6.25579e-05
6.21891e-05
6.18207e-05
6.14527e-05
6.10842e-05
6.07189e-05
6.03573e-05
5.99922e-05
5.96255e-05
5.92565e-05
5.88834e-05
5.8498e-05
5.80934e-05
5.7646e-05
5.7109e-05
5.64785e-05
5.38455e-05
4.88452e-12
7.79413e-10
1.05546e-08
5.51265e-08
2.34306e-07
6.90872e-07
1.52544e-06
2.69291e-06
4.07621e-06
5.56043e-06
7.02889e-06
8.19059e-06
9.07289e-06
9.28575e-06
9.12697e-06
8.40017e-06
6.88302e-06
4.96333e-06
3.31627e-06
2.02786e-06
1.20798e-06
7.36636e-07
4.67732e-07
3.14386e-07
2.59775e-07
2.18484e-07
4.4714e-07
7.2686e-07
2.61224e-06
5.12362e-06
7.26122e-06
7.41725e-06
8.93294e-06
9.40498e-06
1.11774e-05
1.58794e-05
2.55517e-05
3.53671e-05
4.48553e-05
5.36202e-05
6.05792e-05
6.74103e-05
7.45156e-05
8.18902e-05
9.04843e-05
9.57253e-05
0.000108478
0.00011719
0.000127216
0.000141724
0.000152956
0.000164314
0.000177082
0.00018903
0.00020047
0.000213664
0.000223737
0.00023319
0.000241902
0.000250338
0.0002583
0.000265955
0.000273324
0.000280423
0.000287337
0.000294048
0.000300635
0.000307081
0.000313446
0.000319717
0.000325937
0.0003321
0.000338234
0.000344338
0.000350429
0.000356508
0.000362586
0.000368667
0.000374753
0.00038085
0.000386957
0.00039308
0.000399215
0.000405364
0.000411524
0.000417693
0.000423863
0.000430027
0.000436172
0.000442283
0.000448335
0.000454294
0.000460115
0.000465734
0.000471066
0.000476012
0.00048085
0.000485682
0.000490467
0.000495222
0.000499938
0.000504614
0.000509248
0.000513835
0.000518374
0.000522861
0.000527292
0.000531666
0.000535978
0.000540225
0.000544405
0.000548513
0.000552547
0.000556502
0.000560376
0.000564164
0.000567863
0.000571469
0.000574978
0.000578386
0.000581689
0.000584882
0.000587963
0.000590926
0.000593767
0.000596483
0.000599069
0.00060152
0.000603832
0.000605999
0.000608018
0.000609895
0.000611649
0.000613192
0.000614672
0.000615893
0.00061709
0.000617991
0.000618807
0.000619391
0.000619796
0.000620068
0.000620212
0.000620145
0.000619923
0.000619537
0.000618988
0.000618274
0.000617392
0.000616343
0.000615125
0.000613738
0.000612202
0.000610514
0.00060867
0.000606676
0.000604535
0.00060225
0.000599825
0.000597265
0.000594573
0.000591756
0.000588816
0.000585761
0.000582605
0.000579338
0.000575965
0.000572484
0.000568912
0.000565239
0.000561433
0.000557496
0.000553421
0.000549176
0.000544681
0.000539858
0.000534404
0.000528025
0.000520463
0.000492657
1.35474e-11
2.26836e-09
4.14317e-08
2.23392e-07
7.43938e-07
1.77077e-06
3.61261e-06
6.18325e-06
9.28106e-06
1.27445e-05
1.62506e-05
1.9468e-05
2.21151e-05
2.35901e-05
2.42734e-05
2.42777e-05
2.26134e-05
2.01306e-05
1.68493e-05
1.31517e-05
9.40855e-06
6.47815e-06
4.22961e-06
2.99388e-06
2.17894e-06
2.37527e-06
3.94332e-06
7.16016e-06
1.84511e-05
2.78975e-05
2.80711e-05
2.69887e-05
3.28211e-05
4.03231e-05
4.71734e-05
5.64201e-05
6.54411e-05
7.71949e-05
9.00184e-05
0.000105127
0.000122391
0.000143766
0.000169818
0.000198475
0.0002291
0.000261738
0.000297058
0.000330608
0.000365114
0.00039972
0.000428295
0.00045769
0.00048317
0.000508702
0.000530471
0.000552459
0.000571796
0.000590109
0.000607424
0.000623932
0.000639742
0.000654943
0.000669658
0.000683927
0.000697853
0.000711464
0.000724835
0.000737989
0.000750977
0.000763818
0.000776549
0.000789185
0.00080175
0.000814255
0.000826718
0.000839146
0.00085155
0.000863935
0.000876307
0.000888668
0.000901019
0.000913361
0.00092569
0.000938003
0.000950293
0.000962551
0.000974764
0.000986917
0.000998992
0.00101097
0.00102281
0.0010345
0.001046
0.00105728
0.00106833
0.00107921
0.00109004
0.00110079
0.00111146
0.00112205
0.00113254
0.00114292
0.0011532
0.00116336
0.0011734
0.00118331
0.00119308
0.00120271
0.0012122
0.00122152
0.00123069
0.00123969
0.00124851
0.00125714
0.00126559
0.00127383
0.00128187
0.0012897
0.0012973
0.00130467
0.00131181
0.00131869
0.00132532
0.00133168
0.00133778
0.00134358
0.0013491
0.00135432
0.00135923
0.00136383
0.0013681
0.00137206
0.00137569
0.00137895
0.00138192
0.0013845
0.0013868
0.00138865
0.00139014
0.00139118
0.00139198
0.00139248
0.00139253
0.00139222
0.00139156
0.00139054
0.00138917
0.00138745
0.00138537
0.00138294
0.00138016
0.00137702
0.00137356
0.00136976
0.00136565
0.00136121
0.00135646
0.00135141
0.00134607
0.00134044
0.00133453
0.00132836
0.00132194
0.00131528
0.00130839
0.00130129
0.00129397
0.00128644
0.00127869
0.00127072
0.00126251
0.00125406
0.00124532
0.00123623
0.00122666
0.0012164
0.001205
0.00119147
0.00117529
0.00112702
5.66452e-11
9.31181e-09
1.33516e-07
5.56192e-07
1.72202e-06
4.56812e-06
8.89393e-06
1.4637e-05
2.14633e-05
2.88462e-05
3.58081e-05
4.16912e-05
4.53442e-05
4.77003e-05
4.81072e-05
4.6696e-05
4.39667e-05
3.97823e-05
3.50129e-05
2.96296e-05
2.38185e-05
1.81337e-05
1.40528e-05
9.7165e-06
8.92275e-06
1.25414e-05
2.68658e-05
4.42593e-05
5.25173e-05
5.38911e-05
5.53787e-05
6.10732e-05
6.7732e-05
7.51513e-05
8.54236e-05
0.000103764
0.000127259
0.000151375
0.000183185
0.000218454
0.000260192
0.000306614
0.00035673
0.000407304
0.000458625
0.000509515
0.000559006
0.000606589
0.000651805
0.000694182
0.000733634
0.000770558
0.000804882
0.000837645
0.0008681
0.00089705
0.000924222
0.00095012
0.000974869
0.000998627
0.00102153
0.0010437
0.00106524
0.00108623
0.00110677
0.0011269
0.00114671
0.00116623
0.00118552
0.0012046
0.00122352
0.0012423
0.00126096
0.00127953
0.00129801
0.00131643
0.00133479
0.00135309
0.00137135
0.00138957
0.00140774
0.00142587
0.00144394
0.00146196
0.00147992
0.00149779
0.00151558
0.00153326
0.00155081
0.00156822
0.00158548
0.00160255
0.00161944
0.00163614
0.00165267
0.00166906
0.00168535
0.00170151
0.00171754
0.00173343
0.00174916
0.00176473
0.00178012
0.00179533
0.00181034
0.00182515
0.00183975
0.00185413
0.00186829
0.0018822
0.00189586
0.00190927
0.00192241
0.00193528
0.00194785
0.00196014
0.00197211
0.00198377
0.0019951
0.0020061
0.00201674
0.00202702
0.00203692
0.00204644
0.00205557
0.00206429
0.00207258
0.00208045
0.00208787
0.00209484
0.00210135
0.00210739
0.00211295
0.00211801
0.0021226
0.00212667
0.00213026
0.00213329
0.00213573
0.00213762
0.00213919
0.00214019
0.00214063
0.00214053
0.00213993
0.00213882
0.0021372
0.00213508
0.00213244
0.0021293
0.00212566
0.00212152
0.0021169
0.0021118
0.00210623
0.00210019
0.0020937
0.00208677
0.0020794
0.0020716
0.00206341
0.00205482
0.00204586
0.00203653
0.00202685
0.00201685
0.00200652
0.00199588
0.00198493
0.00197365
0.00196202
0.00195004
0.00193767
0.00192482
0.00191134
0.00189697
0.00188121
0.00186274
0.00184081
0.00178392
2.13118e-10
2.86181e-08
3.22298e-07
1.54892e-06
5.25608e-06
1.25227e-05
2.35494e-05
3.74637e-05
5.1844e-05
6.40828e-05
7.24948e-05
7.77415e-05
8.0028e-05
7.93486e-05
7.66157e-05
7.22038e-05
6.6383e-05
5.98324e-05
5.28545e-05
4.5851e-05
3.8684e-05
3.02628e-05
2.42159e-05
2.25818e-05
3.20335e-05
5.10584e-05
6.86677e-05
7.49762e-05
7.63404e-05
7.89488e-05
8.36017e-05
9.16944e-05
0.000103459
0.000125283
0.000156843
0.000191383
0.000232881
0.000278522
0.000332002
0.000388386
0.000449597
0.000512358
0.000575885
0.000638522
0.000699983
0.000759666
0.000816761
0.0008714
0.000923313
0.00097189
0.00101831
0.00106217
0.00110353
0.00114283
0.00118014
0.00121569
0.0012496
0.0012821
0.00131334
0.00134348
0.00137264
0.00140095
0.00142851
0.00145542
0.00148177
0.00150763
0.00153307
0.00155815
0.00158291
0.0016074
0.00163166
0.00165571
0.0016796
0.00170333
0.00172693
0.00175041
0.00177379
0.00179707
0.00182025
0.00184335
0.00186636
0.00188928
0.0019121
0.00193482
0.00195743
0.00197992
0.00200228
0.00202449
0.00204654
0.00206843
0.00209013
0.00211165
0.00213299
0.00215414
0.00217512
0.00219593
0.00221659
0.00223707
0.00225736
0.00227746
0.00229735
0.00231701
0.00233645
0.00235564
0.00237457
0.00239324
0.00241163
0.00242974
0.00244756
0.00246507
0.00248226
0.00249913
0.00251567
0.00253186
0.0025477
0.00256317
0.00257826
0.00259297
0.00260727
0.00262116
0.00263462
0.00264764
0.00266021
0.00267232
0.00268395
0.00269509
0.00270572
0.00271584
0.00272544
0.00273449
0.00274299
0.00275093
0.00275829
0.00276504
0.00277122
0.00277681
0.00278179
0.00278614
0.00278974
0.00279281
0.00279538
0.00279727
0.00279851
0.00279911
0.00279909
0.00279846
0.00279722
0.00279538
0.00279292
0.00278986
0.00278619
0.00278192
0.00277706
0.00277162
0.00276559
0.002759
0.00275184
0.00274413
0.00273587
0.00272707
0.00271774
0.00270789
0.00269753
0.00268669
0.0026754
0.00266368
0.00265151
0.00263895
0.002626
0.00261263
0.00259883
0.00258459
0.00256988
0.00255462
0.00253868
0.00252179
0.00250351
0.00248276
0.0024578
0.00240097
7.6775e-10
7.52581e-08
9.2358e-07
4.71724e-06
1.57568e-05
3.42026e-05
5.50983e-05
7.2542e-05
8.53004e-05
9.39742e-05
9.94266e-05
0.000101638
0.000101405
9.89651e-05
9.45525e-05
8.84284e-05
8.09313e-05
7.21896e-05
6.17256e-05
5.00812e-05
3.91114e-05
3.24593e-05
3.53442e-05
5.1901e-05
7.36935e-05
8.76683e-05
9.30193e-05
9.54819e-05
9.82611e-05
0.000104534
0.000117309
0.000142064
0.00017467
0.000216921
0.00026453
0.000317892
0.000377443
0.000440964
0.000509017
0.000578609
0.00064994
0.000721006
0.000791265
0.000859928
0.000926696
0.000991304
0.00105308
0.00111222
0.00116927
0.00122347
0.00127521
0.0013245
0.0013715
0.00141641
0.00145937
0.00150054
0.00154006
0.0015781
0.00161479
0.00165029
0.0016847
0.00171815
0.00175076
0.00178261
0.0018138
0.0018444
0.00187449
0.00190413
0.00193337
0.00196226
0.00199084
0.00201916
0.00204723
0.00207509
0.00210276
0.00213025
0.00215758
0.00218475
0.00221178
0.00223867
0.00226542
0.00229203
0.0023185
0.00234482
0.00237099
0.00239699
0.00242282
0.00244847
0.00247393
0.0024992
0.00252426
0.00254911
0.00257376
0.0025982
0.00262244
0.00264647
0.00267029
0.00269388
0.00271724
0.00274036
0.00276321
0.0027858
0.00280811
0.00283013
0.00285184
0.00287324
0.00289431
0.00291506
0.00293546
0.00295551
0.0029752
0.00299453
0.00301347
0.00303203
0.00305018
0.00306793
0.00308526
0.00310216
0.00311862
0.00313462
0.00315016
0.00316522
0.00317978
0.00319385
0.00320739
0.00322041
0.00323288
0.00324481
0.00325616
0.00326694
0.00327715
0.0032867
0.00329562
0.00330393
0.00331161
0.00331865
0.00332505
0.00333074
0.00333564
0.00334005
0.00334381
0.00334686
0.00334922
0.00335089
0.00335188
0.00335222
0.00335189
0.0033509
0.00334925
0.00334694
0.00334397
0.00334035
0.00333607
0.00333114
0.00332557
0.00331936
0.00331251
0.00330503
0.00329692
0.0032882
0.00327886
0.00326891
0.00325837
0.00324725
0.00323558
0.00322338
0.00321063
0.00319734
0.00318355
0.00316926
0.00315447
0.00313918
0.00312337
0.00310698
0.0030899
0.00307193
0.00305269
0.00303147
0.00300622
0.00295338
2.76927e-09
2.21717e-07
2.76133e-06
1.50894e-05
3.97005e-05
6.61813e-05
8.71745e-05
0.000101617
0.000111465
0.000116746
0.000118404
0.000117437
0.000114476
0.000109723
0.000103047
9.47814e-05
8.58343e-05
7.77442e-05
7.05986e-05
6.50248e-05
6.39192e-05
6.72461e-05
7.67611e-05
9.17156e-05
0.000102029
0.000107887
0.000111366
0.000115474
0.000126251
0.000150687
0.000184394
0.00022759
0.00027783
0.00033615
0.000398884
0.000466624
0.000538119
0.00061204
0.000687825
0.000763995
0.000840118
0.000915251
0.000988994
0.00106097
0.00113066
0.00119809
0.0012637
0.00132676
0.00138745
0.00144568
0.00150158
0.0015552
0.00160665
0.00165605
0.00170353
0.00174921
0.00179322
0.00183569
0.00187675
0.00191653
0.00195514
0.0019927
0.00202931
0.00206507
0.00210007
0.00213438
0.0021681
0.00220127
0.00223396
0.00226622
0.0022981
0.00232963
0.00236086
0.0023918
0.00242249
0.00245294
0.00248316
0.00251318
0.002543
0.00257263
0.00260207
0.00263132
0.00266038
0.00268925
0.00271793
0.0027464
0.00277467
0.00280273
0.00283056
0.00285816
0.00288554
0.00291266
0.00293954
0.00296616
0.00299253
0.00301865
0.00304452
0.00307011
0.00309544
0.00312048
0.00314522
0.00316966
0.00319378
0.00321758
0.00324106
0.00326422
0.00328703
0.00330949
0.00333159
0.00335331
0.00337465
0.00339559
0.00341614
0.00343628
0.00345601
0.00347531
0.00349417
0.00351258
0.00353054
0.00354803
0.00356504
0.00358157
0.00359758
0.00361309
0.00362807
0.0036425
0.00365639
0.00366971
0.00368246
0.00369466
0.00370622
0.00371711
0.0037274
0.00373705
0.00374605
0.00375441
0.00376211
0.00376906
0.0037753
0.00378098
0.00378596
0.00379023
0.00379382
0.00379681
0.00379914
0.00380079
0.00380177
0.00380207
0.00380171
0.00380066
0.00379895
0.00379656
0.0037935
0.00378977
0.00378536
0.00378028
0.00377453
0.0037681
0.003761
0.00375322
0.00374477
0.00373565
0.00372587
0.00371544
0.00370437
0.00369269
0.00368036
0.00366743
0.00365392
0.00363984
0.0036252
0.00361001
0.00359425
0.00357791
0.0035609
0.0035431
0.00352421
0.00350371
0.00348012
0.00343266
8.83567e-09
6.36718e-07
8.48937e-06
3.45134e-05
6.55372e-05
9.05065e-05
0.000108149
0.000119434
0.00012525
0.000127399
0.000126931
0.000124176
0.000119154
0.000111987
0.000102937
9.25642e-05
8.2893e-05
7.38468e-05
6.99938e-05
7.2318e-05
8.02427e-05
9.28637e-05
0.000105003
0.000113976
0.000120011
0.000124914
0.000132173
0.000152742
0.00018483
0.000227131
0.000277141
0.000335636
0.000399884
0.00046953
0.000542377
0.000618312
0.000696193
0.000775174
0.00085458
0.000933661
0.00101199
0.00108909
0.00116452
0.00123796
0.0013099
0.00137988
0.00144773
0.00151335
0.00157675
0.00163793
0.00169692
0.00175377
0.00180854
0.00186132
0.0019122
0.00196129
0.00200868
0.00205449
0.00209884
0.00214183
0.00218358
0.00222419
0.00226377
0.00230241
0.0023402
0.00237722
0.00241355
0.00244926
0.0024844
0.00251904
0.00255322
0.00258698
0.00262037
0.00265341
0.00268613
0.00271856
0.00275072
0.00278261
0.00281426
0.00284567
0.00287684
0.00290779
0.0029385
0.00296899
0.00299924
0.00302927
0.00305905
0.0030886
0.0031179
0.00314694
0.00317573
0.00320424
0.00323246
0.0032604
0.00328807
0.00331547
0.0033426
0.00336943
0.00339597
0.0034222
0.00344812
0.00347372
0.003499
0.00352393
0.00354852
0.00357276
0.00359663
0.00362014
0.00364327
0.00366602
0.00368838
0.00371035
0.00373191
0.00375306
0.0037738
0.00379411
0.00381399
0.00383343
0.00385242
0.00387096
0.00388903
0.00390662
0.00392372
0.00394032
0.00395641
0.00397198
0.00398702
0.00400152
0.00401549
0.00402891
0.00404168
0.00405385
0.00406543
0.00407639
0.00408672
0.00409642
0.00410549
0.00411382
0.00412154
0.00412863
0.00413504
0.00414076
0.00414581
0.00415018
0.00415389
0.00415693
0.00415931
0.00416103
0.00416208
0.00416247
0.00416219
0.00416125
0.00415964
0.00415736
0.0041544
0.00415076
0.00414644
0.00414143
0.00413572
0.00412931
0.0041222
0.00411437
0.00410584
0.0040966
0.00408666
0.00407605
0.00406491
0.00405314
0.00404073
0.00402768
0.00401402
0.00399975
0.00398488
0.00396942
0.00395334
0.00393657
0.00391891
0.00390007
0.0038789
0.00383826
2.33548e-08
1.75462e-06
2.00051e-05
5.66546e-05
9.06829e-05
0.000113573
0.000126241
0.00013275
0.000134806
0.000133852
0.000130793
0.000126222
0.000120839
0.000115362
0.000108941
0.000102288
9.62633e-05
9.12609e-05
9.06331e-05
9.83669e-05
0.00010764
0.000116213
0.000124482
0.000130735
0.000137296
0.000151508
0.000179385
0.000218332
0.000265777
0.000322361
0.000385282
0.000454215
0.00052708
0.000603205
0.000681413
0.000761246
0.000841933
0.000922886
0.00100362
0.0010837
0.00116281
0.00124031
0.00131639
0.00139128
0.00146434
0.00153555
0.0016048
0.00167203
0.00173721
0.00180033
0.00186139
0.00192041
0.00197743
0.0020325
0.0020857
0.00213709
0.00218679
0.00223487
0.00228144
0.0023266
0.00237045
0.00241308
0.00245461
0.00249513
0.00253472
0.00257347
0.00261146
0.00264876
0.00268542
0.00272149
0.00275704
0.00279212
0.00282676
0.00286101
0.00289488
0.00292841
0.00296163
0.00299454
0.00302717
0.00305952
0.00309163
0.00312349
0.00315509
0.00318643
0.00321749
0.0032483
0.00327883
0.00330909
0.00333908
0.00336879
0.00339822
0.00342736
0.00345622
0.0034848
0.00351309
0.00354108
0.00356878
0.00359617
0.00362326
0.00365002
0.00367646
0.00370257
0.00372834
0.00375377
0.00377885
0.00380358
0.00382794
0.00385194
0.00387557
0.00389883
0.0039217
0.00394419
0.00396628
0.00398799
0.00400929
0.00403019
0.00405068
0.00407076
0.00409041
0.00410963
0.00412841
0.00414675
0.00416463
0.00418205
0.004199
0.00421546
0.00423143
0.00424691
0.00426193
0.00427636
0.00429025
0.00430358
0.00431635
0.00432855
0.00434016
0.00435119
0.0043616
0.00437137
0.00438058
0.00438915
0.00439706
0.00440434
0.00441097
0.00441698
0.00442235
0.00442708
0.00443119
0.00443467
0.00443753
0.00443975
0.00444134
0.0044423
0.00444262
0.0044423
0.00444132
0.00443969
0.00443738
0.00443438
0.00443069
0.00442629
0.00442117
0.00441532
0.00440872
0.00440138
0.0043933
0.00438447
0.0043749
0.00436462
0.00435363
0.00434195
0.0043296
0.0043166
0.00430297
0.00428875
0.00427393
0.00425851
0.00424237
0.00422539
0.00420681
0.00417304
5.04332e-08
4.30422e-06
3.49095e-05
7.67487e-05
0.000109396
0.000128908
0.00013788
0.000139797
0.000137911
0.000133952
0.000128588
0.000121764
0.000115171
0.000108347
0.000102446
9.88517e-05
9.8908e-05
0.00010353
0.000111058
0.000118103
0.000125687
0.00013313
0.000140744
0.000150484
0.000172489
0.000205303
0.000248319
0.000300856
0.000360497
0.000426781
0.000497566
0.000572169
0.000649329
0.000728399
0.000808694
0.000889749
0.000971067
0.00105224
0.00113294
0.00121281
0.00129134
0.00136899
0.00144542
0.00152038
0.00159371
0.00166534
0.00173516
0.00180311
0.00186914
0.00193323
0.00199534
0.0020555
0.00211372
0.00217002
0.00222446
0.0022771
0.00232803
0.00237732
0.00242507
0.00247138
0.00251632
0.00255998
0.00260248
0.00264391
0.00268436
0.00272391
0.00276266
0.00280068
0.00283808
0.0028749
0.00291113
0.00294683
0.00298202
0.00301676
0.00305108
0.00308501
0.00311857
0.00315179
0.00318468
0.00321725
0.00324949
0.00328144
0.0033131
0.0033445
0.00337563
0.0034065
0.0034371
0.00346743
0.0034975
0.00352729
0.00355681
0.00358606
0.00361503
0.00364371
0.00367209
0.00370018
0.00372796
0.00375543
0.00378258
0.00380942
0.00383593
0.00386211
0.00388796
0.00391347
0.00393864
0.00396346
0.00398794
0.00401206
0.00403583
0.00405925
0.0040823
0.004105
0.00412733
0.00414929
0.00417088
0.0041921
0.00421294
0.00423341
0.00425349
0.00427318
0.00429248
0.00431137
0.00432986
0.00434793
0.00436558
0.0043828
0.00439958
0.00441594
0.00443184
0.00444726
0.0044622
0.00447663
0.00449057
0.00450398
0.00451686
0.0045292
0.004541
0.00455224
0.00456297
0.00457309
0.00458258
0.00459149
0.00459982
0.00460756
0.00461471
0.00462128
0.00462727
0.00463268
0.00463751
0.00464176
0.00464543
0.00464851
0.004651
0.0046529
0.00465417
0.00465483
0.00465484
0.00465419
0.00465287
0.00465085
0.00464811
0.00464463
0.00464039
0.00463538
0.00462959
0.00462301
0.00461565
0.0046075
0.00459858
0.00458892
0.00457852
0.00456741
0.00455565
0.00454326
0.00453029
0.00451677
0.00450265
0.00448792
0.00447195
0.00444415
9.1081e-08
9.11916e-06
5.16012e-05
9.71665e-05
0.00012659
0.000140876
0.000144255
0.000141995
0.00013734
0.000131447
0.000125908
0.000121112
0.00011554
0.000111906
0.000110607
0.000112148
0.000116099
0.000121334
0.000127674
0.00013452
0.000141638
0.000150336
0.000165676
0.000192549
0.000229656
0.000275851
0.000330777
0.00039263
0.000459689
0.000531119
0.000605599
0.00068245
0.000760929
0.000840552
0.000920856
0.00100148
0.00108208
0.00116239
0.00124194
0.00132047
0.00139855
0.00147547
0.00155116
0.00162548
0.00169831
0.00176953
0.00183907
0.00190684
0.00197278
0.00203684
0.002099
0.00215926
0.00221762
0.0022741
0.00232872
0.00238152
0.00243261
0.00248207
0.00252998
0.00257646
0.00262166
0.00266571
0.00270856
0.00275026
0.00279091
0.00283059
0.00286939
0.00290737
0.00294457
0.00298105
0.00301689
0.00305216
0.00308694
0.00312125
0.00315514
0.00318863
0.00322176
0.00325455
0.00328702
0.00331919
0.00335108
0.00338269
0.00341402
0.0034451
0.00347591
0.00350647
0.00353677
0.00356682
0.00359661
0.00362613
0.0036554
0.00368439
0.00371311
0.00374155
0.0037697
0.00379756
0.00382512
0.00385238
0.00387932
0.00390596
0.00393228
0.00395828
0.00398396
0.00400932
0.00403435
0.00405906
0.00408344
0.0041075
0.00413122
0.00415462
0.00417768
0.00420042
0.00422282
0.0042449
0.00426664
0.00428806
0.00430913
0.00432988
0.00435029
0.00437035
0.00439007
0.00440945
0.00442847
0.00444713
0.00446543
0.00448336
0.00450091
0.00451809
0.00453488
0.00455127
0.00456725
0.00458279
0.00459789
0.00461254
0.00462671
0.00464042
0.00465364
0.00466639
0.00467872
0.00469042
0.00470157
0.00471219
0.00472229
0.00473186
0.00474089
0.0047494
0.00475738
0.00476483
0.00477176
0.00477817
0.00478405
0.00478941
0.00479423
0.0047985
0.00480221
0.00480535
0.00480789
0.00480981
0.00481109
0.0048117
0.0048116
0.00481078
0.00480919
0.00480682
0.00480365
0.00479965
0.00479482
0.00478916
0.00478268
0.00477537
0.00476728
0.00475843
0.00474886
0.00473864
0.00472782
0.00471647
0.00470459
0.00469225
0.00467901
0.00465689
1.43335e-07
1.42295e-05
6.389e-05
0.000111483
0.000138976
0.00014883
0.000148122
0.000142942
0.000136456
0.000131789
0.000127247
0.000123342
0.000121211
0.000120953
0.000122494
0.000125668
0.000130165
0.000135766
0.00014216
0.000149789
0.000161122
0.00018304
0.000212787
0.0002525
0.000300929
0.000356779
0.000418857
0.000485647
0.000556026
0.000629232
0.000704485
0.000781278
0.000859148
0.000937721
0.00101667
0.00109574
0.00117466
0.00125298
0.00133068
0.00140792
0.00148431
0.00155966
0.00163383
0.00170671
0.00177818
0.00184814
0.00191649