/*--------------------------------*- C++ -*----------------------------------*\
  =========                 |
  \\      /  F ield         | OpenFOAM: The Open Source CFD Toolbox
   \\    /   O peration     | Website:  https://openfoam.org
    \\  /    A nd           | Version:  8
     \\/     M anipulation  |
\*---------------------------------------------------------------------------*/
FoamFile
{
    version     2.0;
    format      ascii;
    class       volScalarField;
    location    "1600";
    object      nut;
}
// * * * * * * * * * * * * * * * * * * * * * * * * * * * * * * * * * * * * * //

dimensions      [0 2 -1 0 0 0 0];

internalField   nonuniform List<scalar> 
12225
(
6.55947e-06
1.29612e-05
1.59178e-05
1.97238e-05
1.34509e-05
3.23545e-05
2.56719e-05
2.69201e-05
3.48257e-05
3.82741e-05
3.67662e-05
2.91763e-05
2.11569e-05
1.87064e-05
2.5896e-05
3.51088e-05
2.77009e-05
3.24782e-05
0.000128928
4.67935e-05
3.9753e-05
4.73494e-05
3.11984e-05
4.97169e-05
4.15444e-05
4.92249e-05
5.03937e-05
4.77145e-05
5.2221e-05
5.23808e-05
4.93289e-05
5.05665e-05
5.22769e-05
5.58076e-05
5.62789e-05
5.62196e-05
0.000456275
0.000246115
0.000164173
0.000133242
0.000102186
8.4605e-05
7.40865e-05
6.96317e-05
6.52605e-05
6.07048e-05
5.86163e-05
5.59617e-05
5.39942e-05
5.25505e-05
5.12083e-05
5.06725e-05
5.03864e-05
4.9094e-05
0.000652617
0.000531501
0.000372399
0.000364841
0.000316714
0.000267024
0.00023257
0.000207746
0.000190637
0.000173691
0.000162902
0.000151316
0.00014378
0.000135755
0.000130898
0.000124778
0.000121352
0.000116123
0.000752343
0.000673721
0.000611159
0.000597237
0.000569182
0.000518293
0.000476076
0.000435216
0.000406823
0.000376867
0.000357319
0.000335267
0.000321608
0.00030499
0.000295639
0.000282496
0.000275518
0.000264309
0.000758777
0.000737789
0.00072083
0.000693001
0.000689816
0.000672152
0.000649355
0.000619321
0.000596438
0.000569149
0.000550246
0.000527569
0.000512989
0.000494364
0.00048333
0.000467644
0.000458952
0.000444969
0.000753164
0.000748544
0.000742941
0.000738401
0.00073048
0.000727583
0.000721074
0.000708953
0.000698246
0.000683354
0.000672236
0.000657829
0.000647927
0.000634847
0.000626428
0.00061451
0.000607259
0.000595979
0.000750485
0.00074904
0.00074757
0.000745616
0.000743949
0.000741858
0.000738846
0.000734699
0.000730028
0.000723526
0.000717897
0.000710445
0.000704779
0.000697442
0.000692141
0.000685023
0.000680065
0.000672809
0.000749774
0.000748815
0.000748024
0.000746994
0.000746235
0.000745111
0.00074398
0.000742174
0.000740374
0.000737714
0.000735128
0.000731992
0.000728917
0.00072564
0.000722472
0.000718997
0.000715902
0.00071208
0.000749609
0.000748719
0.000747974
0.000747132
0.000746474
0.000745671
0.000745002
0.000744092
0.000743273
0.000742164
0.000741105
0.000739771
0.000738559
0.000737041
0.000735767
0.000734067
0.000732793
0.000730898
0.000749575
0.000748695
0.000747924
0.000747121
0.000746434
0.000745701
0.000745078
0.000744385
0.000743791
0.000743102
0.000742506
0.000741787
0.000741182
0.000740433
0.000739817
0.000739034
0.000738398
0.000737579
0.000749565
0.000748693
0.000747898
0.000747111
0.000746397
0.000745684
0.00074504
0.000744392
0.000743806
0.00074321
0.000742671
0.000742115
0.000741614
0.000741091
0.000740618
0.000740122
0.000739667
0.00073919
0.000749559
0.000748694
0.000747884
0.000747104
0.000746374
0.000745669
0.000745008
0.00074437
0.00074377
0.00074319
0.000742644
0.000742114
0.000741616
0.000741132
0.000740675
0.000740231
0.000739809
0.000739401
0.000749556
0.000748693
0.000747876
0.000747098
0.00074636
0.000745656
0.000744988
0.000744349
0.000743742
0.000743162
0.000742609
0.00074208
0.000741576
0.000741094
0.000740634
0.000740194
0.000739773
0.000739371
0.000749555
0.000748692
0.000747872
0.000747092
0.000746351
0.000745646
0.000744974
0.000744334
0.000743724
0.000743141
0.000742586
0.000742055
0.000741548
0.000741063
0.000740601
0.000740158
0.000739735
0.00073933
0.000749556
0.000748694
0.000747875
0.000747095
0.000746355
0.00074565
0.000744979
0.000744338
0.000743729
0.000743146
0.000742591
0.000742059
0.000741553
0.000741068
0.000740606
0.000740161
0.00073974
0.000739332
0.000749568
0.000748728
0.000747928
0.000747166
0.000746439
0.000745747
0.000745087
0.000744456
0.000743855
0.00074328
0.000742731
0.000742206
0.000741704
0.000741224
0.000740764
0.000740324
0.000739904
0.000739501
0.000749567
0.000748728
0.000747927
0.000747165
0.000746437
0.000745745
0.000745084
0.000744453
0.00074385
0.000743275
0.000742725
0.000742199
0.000741696
0.000741215
0.000740755
0.000740315
0.000739893
0.000739489
0.000749555
0.000748693
0.000747873
0.000747093
0.000746351
0.000745644
0.000744971
0.00074433
0.000743717
0.000743133
0.000742575
0.000742042
0.000741532
0.000741046
0.00074058
0.000740135
0.000739708
0.000739301
0.000749554
0.000748692
0.00074787
0.00074709
0.000746345
0.000745638
0.000744963
0.00074432
0.000743706
0.000743121
0.000742561
0.000742027
0.000741516
0.000741028
0.000740561
0.000740114
0.000739687
0.000739277
0.000749554
0.000748694
0.000747872
0.000747094
0.00074635
0.000745645
0.00074497
0.000744329
0.000743715
0.000743132
0.000742572
0.000742039
0.000741527
0.000741038
0.000740566
0.000740116
0.000739681
0.000739266
0.000749556
0.000748699
0.000747873
0.000747102
0.000746354
0.000745657
0.000744977
0.000744342
0.000743719
0.000743136
0.000742561
0.000742018
0.000741473
0.000740955
0.000740427
0.000739924
0.000739412
0.000738928
0.000749594
0.000748707
0.000747853
0.000747091
0.000746326
0.000745635
0.000744908
0.000744247
0.000743525
0.000742857
0.000742113
0.000741392
0.000740559
0.000739718
0.000738785
0.000737866
0.000736849
0.00073589
0.000750038
0.00074859
0.00074752
0.000746705
0.00074579
0.000744843
0.000743697
0.000742536
0.000741016
0.000739508
0.000737528
0.000735542
0.000732943
0.000730346
0.000727949
0.000725025
0.000721898
0.000718781
0.000753424
0.00074635
0.000743467
0.000742081
0.000739192
0.000735406
0.000732135
0.000727446
0.000722241
0.0007164
0.000709017
0.000701939
0.000693414
0.000685474
0.000676514
0.000668629
0.000660219
0.000653228
0.000770368
0.000722429
0.000708118
0.000703348
0.000685772
0.000684974
0.000670539
0.00065498
0.000636121
0.000619154
0.000600357
0.000583948
0.000566131
0.000551029
0.000535055
0.000522146
0.000508746
0.000498414
0.000801098
0.000620609
0.000581883
0.000524652
0.000526338
0.000503453
0.00047195
0.000443471
0.000414744
0.000391847
0.000369317
0.00035154
0.000333661
0.000319692
0.000305488
0.000294656
0.000283507
0.000275306
0.000590785
0.000367532
0.000272022
0.000255697
0.000233234
0.000210776
0.000190581
0.000174688
0.000160825
0.000150828
0.000141686
0.000134873
0.000128386
0.000123423
0.000118618
0.00011482
0.000111155
0.000108329
0.000251329
0.000131761
9.0575e-05
7.12829e-05
6.3707e-05
5.99633e-05
5.79463e-05
5.70083e-05
5.66762e-05
5.69075e-05
5.73875e-05
5.81409e-05
5.91296e-05
6.01571e-05
6.13552e-05
6.26083e-05
6.32578e-05
6.32211e-05
9.28192e-06
1.50334e-05
1.89511e-05
2.12135e-05
2.24698e-05
2.29355e-05
2.30914e-05
2.3058e-05
2.28346e-05
2.25473e-05
2.22381e-05
2.19275e-05
2.16291e-05
2.13498e-05
2.10935e-05
2.08607e-05
2.0651e-05
2.04667e-05
1.63745e-12
1.84988e-10
9.41769e-10
3.70553e-09
1.23571e-08
3.76681e-08
9.75237e-08
1.92795e-07
3.10985e-07
4.35014e-07
5.45779e-07
6.31294e-07
6.87922e-07
7.08431e-07
6.98859e-07
6.69771e-07
6.15575e-07
5.2552e-07
4.47486e-07
3.80435e-07
3.16923e-07
2.55337e-07
1.95815e-07
1.40646e-07
9.1535e-08
5.35463e-08
2.83836e-08
1.42766e-08
7.26134e-09
3.95485e-09
2.401e-09
1.83169e-09
2.05622e-09
4.35967e-09
9.47513e-09
5.81248e-08
1.30582e-07
2.89082e-07
4.33533e-07
4.69519e-07
4.31212e-07
3.45954e-07
2.89439e-07
2.8657e-07
3.13669e-07
4.19869e-07
5.63691e-07
1.14127e-06
2.53163e-06
7.30198e-06
1.81662e-05
3.02303e-05
3.54357e-05
3.75136e-05
3.87699e-05
3.8375e-05
3.75944e-05
3.69783e-05
3.59494e-05
3.3819e-05
3.03266e-05
3.04324e-05
3.22359e-05
3.29322e-05
3.34754e-05
3.41957e-05
3.46918e-05
3.53441e-05
3.58746e-05
3.64628e-05
3.70034e-05
3.75598e-05
3.80958e-05
3.8635e-05
3.91636e-05
3.96915e-05
4.02133e-05
4.07328e-05
4.12487e-05
4.1762e-05
4.22728e-05
4.27814e-05
4.32879e-05
4.37928e-05
4.42957e-05
4.47974e-05
4.52971e-05
4.57958e-05
4.62927e-05
4.67885e-05
4.72825e-05
4.77743e-05
4.82634e-05
4.87493e-05
4.92314e-05
4.97096e-05
5.0184e-05
5.0656e-05
5.11279e-05
5.16047e-05
5.20937e-05
5.2583e-05
5.30753e-05
5.35728e-05
5.40752e-05
5.45841e-05
5.50992e-05
5.56215e-05
5.61512e-05
5.66892e-05
5.72358e-05
5.77919e-05
5.8358e-05
5.89349e-05
5.95235e-05
6.01245e-05
6.0739e-05
6.13678e-05
6.20122e-05
6.26732e-05
6.3352e-05
6.40502e-05
6.47689e-05
6.55099e-05
6.62743e-05
6.70643e-05
6.78803e-05
6.87252e-05
6.96191e-05
7.05555e-05
7.15004e-05
7.25151e-05
7.35522e-05
7.46616e-05
7.58325e-05
7.7067e-05
7.83472e-05
7.81891e-05
7.79366e-05
7.76686e-05
7.73897e-05
7.70986e-05
7.67963e-05
7.64834e-05
7.61606e-05
7.58286e-05
7.54929e-05
7.5132e-05
7.47822e-05
7.43998e-05
7.40342e-05
7.36326e-05
7.32537e-05
7.28353e-05
7.24468e-05
7.20187e-05
7.16108e-05
7.11851e-05
7.07633e-05
7.03363e-05
6.99095e-05
6.94813e-05
6.90532e-05
6.86249e-05
6.81976e-05
6.77712e-05
6.73474e-05
6.69262e-05
6.6509e-05
6.60956e-05
6.56867e-05
6.52813e-05
6.48792e-05
6.4477e-05
6.40711e-05
6.36532e-05
6.32141e-05
6.2723e-05
6.21247e-05
6.0518e-05
7.08774e-12
1.14249e-09
1.55062e-08
8.3634e-08
3.61454e-07
1.20814e-06
2.75339e-06
5.01813e-06
7.763e-06
1.08867e-05
1.40395e-05
1.69507e-05
1.94181e-05
2.1264e-05
2.23578e-05
2.26767e-05
2.23385e-05
2.15128e-05
1.92417e-05
1.61019e-05
1.23897e-05
9.10118e-06
6.40388e-06
4.31256e-06
2.71634e-06
1.67878e-06
1.0261e-06
6.37358e-07
4.0085e-07
2.63355e-07
1.9098e-07
1.70606e-07
1.58205e-07
3.04947e-07
4.48276e-07
3.41308e-06
7.57402e-06
1.53428e-05
2.11418e-05
2.31222e-05
2.18067e-05
1.94729e-05
1.71955e-05
1.62028e-05
1.67921e-05
1.70575e-05
2.02206e-05
2.76008e-05
3.83679e-05
4.86324e-05
5.94163e-05
6.86001e-05
7.72903e-05
8.64152e-05
9.77451e-05
0.000108218
0.000120762
0.000134145
0.000147721
0.000159811
0.000170472
0.000185522
0.000198554
0.000211219
0.000223171
0.000235091
0.00024631
0.000257119
0.000267599
0.000277683
0.000287513
0.000297031
0.000306344
0.000315419
0.000324326
0.000333047
0.000341628
0.000350057
0.000358365
0.000366544
0.000374613
0.000382568
0.000390421
0.00039817
0.000405822
0.000413377
0.00042084
0.00042821
0.000435492
0.000442682
0.000449785
0.000456792
0.000463698
0.00047049
0.00047715
0.000483651
0.00048995
0.000495989
0.000501674
0.000506888
0.000511476
0.000516001
0.000520367
0.000524635
0.000528772
0.000532791
0.000536682
0.000540447
0.000544082
0.000547584
0.000550951
0.000554181
0.000557272
0.000560222
0.000563029
0.000565691
0.000568207
0.000570576
0.000572796
0.000574866
0.000576785
0.000578552
0.000580166
0.000581625
0.000582928
0.000584073
0.000585057
0.000585876
0.000586526
0.000587037
0.00058737
0.000587586
0.000587526
0.000587387
0.000587147
0.000586919
0.000586686
0.000586593
0.000586355
0.000585972
0.000585448
0.000584788
0.00058399
0.000583053
0.000581969
0.000580929
0.000579447
0.000578318
0.000576505
0.000575151
0.000573068
0.000571489
0.000569156
0.000567359
0.00056482
0.00056277
0.00056019
0.000557741
0.000555152
0.00055252
0.000549821
0.000547067
0.00054426
0.000541402
0.000538496
0.000535548
0.000532564
0.000529549
0.00052651
0.00052345
0.000520368
0.000517259
0.000514123
0.000510905
0.000507569
0.00050403
0.000500164
0.000495653
0.000489762
0.000473499
1.92638e-11
3.30219e-09
6.22339e-08
3.78672e-07
1.05048e-06
2.97643e-06
6.26765e-06
1.08751e-05
1.65644e-05
2.30264e-05
2.98814e-05
3.66844e-05
4.28075e-05
4.7895e-05
5.17557e-05
5.42889e-05
5.56412e-05
5.5919e-05
5.43677e-05
5.14528e-05
4.67492e-05
4.07842e-05
3.3592e-05
2.64008e-05
1.98175e-05
1.41675e-05
9.62925e-06
6.42914e-06
4.09205e-06
2.72698e-06
1.94085e-06
1.56557e-06
1.32464e-06
2.24776e-06
4.21255e-06
1.74174e-05
3.64166e-05
5.45617e-05
6.36673e-05
6.17393e-05
4.95945e-05
4.06674e-05
4.02922e-05
4.67934e-05
5.40015e-05
6.35301e-05
7.64818e-05
8.85777e-05
0.000101174
0.000118049
0.000136396
0.000157488
0.000180958
0.000207567
0.00023713
0.000267632
0.000299583
0.000331099
0.000361655
0.000390676
0.000418337
0.000447203
0.000473082
0.000498972
0.000522657
0.000545865
0.000567922
0.000589226
0.000609845
0.000629834
0.000649319
0.000668322
0.000686932
0.000705166
0.000723082
0.000740693
0.000758034
0.000775113
0.000791953
0.000808557
0.00082494
0.000841105
0.000857058
0.000872802
0.000888341
0.000903673
0.0009188
0.00093372
0.00094843
0.000962924
0.000977194
0.000991225
0.001005
0.00101849
0.00103168
0.00104451
0.00105696
0.00106898
0.00108053
0.00109159
0.0011023
0.00111281
0.00112305
0.00113304
0.00114277
0.00115223
0.00116141
0.00117031
0.00117893
0.00118726
0.00119529
0.00120302
0.00121045
0.00121757
0.00122438
0.00123087
0.00123704
0.00124289
0.00124843
0.00125363
0.00125852
0.00126307
0.0012673
0.0012712
0.00127477
0.001278
0.0012809
0.00128345
0.00128567
0.00128757
0.00128912
0.00129037
0.00129127
0.00129183
0.00129215
0.00129239
0.0012924
0.00129221
0.00129171
0.00129089
0.00128975
0.00128831
0.00128656
0.00128451
0.00128217
0.00127976
0.00127664
0.00127382
0.00127008
0.00126674
0.00126242
0.00125856
0.00125369
0.00124935
0.00124402
0.00123911
0.00123357
0.00122806
0.00122232
0.00121646
0.00121047
0.00120435
0.00119812
0.00119179
0.00118535
0.00117883
0.00117224
0.00116559
0.00115889
0.00115216
0.00114539
0.00113857
0.00113168
0.00112465
0.00111738
0.00110969
0.0011013
0.00109141
0.00107822
0.00104869
7.0492e-11
1.19186e-08
1.87828e-07
8.09066e-07
2.5238e-06
6.95109e-06
1.37617e-05
2.29242e-05
3.37331e-05
4.50846e-05
5.60395e-05
6.60689e-05
7.46315e-05
8.11419e-05
8.60345e-05
8.913e-05
9.03614e-05
9.00832e-05
8.84275e-05
8.5206e-05
8.05998e-05
7.49881e-05
6.7548e-05
5.87083e-05
4.8958e-05
3.9198e-05
3.02199e-05
2.27469e-05
1.70103e-05
1.24056e-05
9.61417e-06
7.18444e-06
7.90968e-06
1.2081e-05
2.72274e-05
5.05785e-05
6.93717e-05
7.82348e-05
7.55687e-05
7.27523e-05
7.29928e-05
7.68385e-05
8.4758e-05
9.6037e-05
0.000110684
0.000122492
0.000142157
0.000164897
0.000191411
0.000223761
0.000259063
0.000298543
0.000340417
0.000384665
0.000429907
0.000475282
0.00052041
0.000564275
0.000606424
0.000646988
0.000685781
0.000724245
0.00076
0.000795043
0.000828392
0.00086068
0.000891867
0.000922172
0.000951679
0.000980481
0.00100867
0.0010363
0.00106344
0.00109012
0.00111639
0.00114226
0.00116776
0.00119291
0.00121772
0.00124219
0.00126634
0.00129016
0.00131366
0.00133684
0.0013597
0.00138223
0.00140444
0.00142631
0.00144785
0.00146904
0.00148986
0.00151031
0.00153037
0.00155
0.0015692
0.00158794
0.0016062
0.00162397
0.00164126
0.00165809
0.00167454
0.00169063
0.00170634
0.00172166
0.00173657
0.00175108
0.00176517
0.00177884
0.00179207
0.00180485
0.00181719
0.00182908
0.0018405
0.00185146
0.00186196
0.00187198
0.00188152
0.00189059
0.00189917
0.00190728
0.0019149
0.00192204
0.00192869
0.00193486
0.00194055
0.00194574
0.00195044
0.00195466
0.00195839
0.00196164
0.00196438
0.00196669
0.0019685
0.00196979
0.00197078
0.00197147
0.00197172
0.00197155
0.00197093
0.00196984
0.00196829
0.0019663
0.00196386
0.00196099
0.00195769
0.00195411
0.00194987
0.00194553
0.00194044
0.00193531
0.0019294
0.00192349
0.00191679
0.00191015
0.00190275
0.00189536
0.00188747
0.0018794
0.00187106
0.00186251
0.00185376
0.00184482
0.00183572
0.00182645
0.00181703
0.00180749
0.00179783
0.00178809
0.00177827
0.0017684
0.00175848
0.00174849
0.0017384
0.00172812
0.00171754
0.00170642
0.00169439
0.00168033
0.00166184
0.00162682
2.40311e-10
3.55985e-08
4.18409e-07
1.97808e-06
6.83706e-06
1.64034e-05
3.03765e-05
4.69649e-05
6.42374e-05
8.0415e-05
9.43065e-05
0.000104918
0.000112731
0.000118088
0.0001211
0.000122335
0.000121988
0.00012028
0.000117382
0.000113312
0.000108027
0.000102049
9.46552e-05
8.59836e-05
7.5953e-05
6.49059e-05
5.36631e-05
4.34985e-05
3.50993e-05
2.82167e-05
2.24491e-05
2.13127e-05
2.66846e-05
4.46446e-05
6.89884e-05
8.45301e-05
9.21155e-05
9.55217e-05
9.836e-05
0.000103568
0.000112676
0.000126576
0.000139527
0.000152704
0.000174617
0.000203502
0.000235808
0.000274585
0.000317937
0.000365997
0.000416568
0.000469876
0.000524277
0.000579432
0.00063434
0.000688563
0.000741704
0.000793311
0.000843053
0.000891165
0.000937804
0.000983367
0.00102688
0.0010692
0.00111012
0.00114991
0.00118865
0.00122648
0.00126347
0.00129973
0.00133531
0.00137028
0.00140469
0.00143858
0.00147196
0.00150487
0.00153732
0.00156932
0.00160088
0.001632
0.00166268
0.00169293
0.00172275
0.00175213
0.00178107
0.00180957
0.00183763
0.00186523
0.00189237
0.00191904
0.00194524
0.00197094
0.00199614
0.00202082
0.00204497
0.00206859
0.00209167
0.00211422
0.00213625
0.00215778
0.00217882
0.00219938
0.00221944
0.00223899
0.00225803
0.00227653
0.00229449
0.0023119
0.00232875
0.00234504
0.00236075
0.00237588
0.00239043
0.00240438
0.00241775
0.00243051
0.00244268
0.00245425
0.00246521
0.00247557
0.00248533
0.00249449
0.00250304
0.00251099
0.00251834
0.00252509
0.00253124
0.0025368
0.00254176
0.00254613
0.00254986
0.00255307
0.00255565
0.00255761
0.00255922
0.00256032
0.00256086
0.00256085
0.00256028
0.00255914
0.00255745
0.00255522
0.00255245
0.00254915
0.00254532
0.00254104
0.00253615
0.00253089
0.00252499
0.00251874
0.00251184
0.00250463
0.00249677
0.00248864
0.00247991
0.00247091
0.00246146
0.00245169
0.00244161
0.00243125
0.00242062
0.00240975
0.00239866
0.00238735
0.00237585
0.00236417
0.00235234
0.00234038
0.00232832
0.00231617
0.00230393
0.00229159
0.00227913
0.00226647
0.00225349
0.00223997
0.00222549
0.00220895
0.00218759
0.00215231
7.67601e-10
8.74735e-08
1.05319e-06
5.34316e-06
1.73607e-05
3.65391e-05
5.94973e-05
8.29273e-05
0.000103454
0.000119652
0.000131599
0.000140203
0.000145353
0.000147962
0.000148646
0.000147839
0.0001458
0.0001427
0.000138667
0.000133662
0.000127746
0.000121223
0.00011354
0.000104788
9.35725e-05
7.80267e-05
6.29946e-05
4.89584e-05
3.73785e-05
3.25303e-05
3.38085e-05
4.62023e-05
6.8245e-05
8.99149e-05
0.000105025
0.00011417
0.000120087
0.000126575
0.000137156
0.000153783
0.000164834
0.000178645
0.000202306
0.000231532
0.000267297
0.000309885
0.000357231
0.000410014
0.000465902
0.000524624
0.000584801
0.000646112
0.000707578
0.000768835
0.000829351
0.000888873
0.000946837
0.00100334
0.00105867
0.00111236
0.00116454
0.00121539
0.00126469
0.00131274
0.00135957
0.0014053
0.00145002
0.00149385
0.00153684
0.00157907
0.00162061
0.00166149
0.00170175
0.00174142
0.00178053
0.00181907
0.00185708
0.00189453
0.00193145
0.00196783
0.00200367
0.00203897
0.00207372
0.00210793
0.00214159
0.00217469
0.00220725
0.00223924
0.00227067
0.00230152
0.0023318
0.0023615
0.00239061
0.00241912
0.00244702
0.00247432
0.00250103
0.00252714
0.00255267
0.00257761
0.00260198
0.00262576
0.00264894
0.00267151
0.00269346
0.00271479
0.00273549
0.00275554
0.00277494
0.00279368
0.00281174
0.00282914
0.00284585
0.00286189
0.00287725
0.00289192
0.0029059
0.0029192
0.00293181
0.00294374
0.00295498
0.00296554
0.00297542
0.00298463
0.00299315
0.00300101
0.00300819
0.00301472
0.00302063
0.00302578
0.00303028
0.00303419
0.00303738
0.00303991
0.00304204
0.00304352
0.00304439
0.00304463
0.00304425
0.00304326
0.00304166
0.00303946
0.00303667
0.0030333
0.00302934
0.00302484
0.00301974
0.00301413
0.00300792
0.00300121
0.0029939
0.00298611
0.00297773
0.00296892
0.00295955
0.00294978
0.00293955
0.00292893
0.00291795
0.00290663
0.00289499
0.00288306
0.00287086
0.00285839
0.00284569
0.00283276
0.00281963
0.00280634
0.00279292
0.00277937
0.0027657
0.00275193
0.00273801
0.0027239
0.00270948
0.00269458
0.0026788
0.0026612
0.00263917
0.00260587
2.46861e-09
2.24547e-07
2.79069e-06
1.4576e-05
3.78989e-05
6.71482e-05
9.47189e-05
0.000117072
0.000134109
0.000146881
0.000155869
0.000161337
0.000164173
0.00016503
0.000164379
0.000162538
0.000159706
0.000155974
0.000151281
0.000145553
0.000138995
0.000131403
0.000122494
0.000106139
9.07295e-05
7.7154e-05
6.51328e-05
5.66718e-05
5.58556e-05
6.42599e-05
7.74971e-05
0.000102327
0.00012023
0.000133012
0.000142354
0.000150611
0.000161749
0.000178747
0.000187785
0.000201299
0.000224071
0.000252422
0.000288476
0.000330863
0.000379871
0.000434319
0.00049254
0.000554016
0.000617322
0.000682056
0.0007474
0.000812952
0.000878191
0.000942847
0.00100634
0.00106869
0.00113028
0.00119038
0.00124914
0.0013065
0.00136251
0.00141725
0.00147069
0.00152297
0.00157413
0.00162427
0.00167347
0.00172179
0.00176929
0.00181604
0.00186207
0.00190741
0.00195211
0.00199616
0.00203958
0.00208238
0.00212456
0.00216611
0.00220703
0.00224731
0.00228696
0.00232597
0.00236434
0.00240206
0.00243914
0.00247557
0.00251135
0.00254648
0.00258096
0.00261479
0.00264796
0.00268048
0.00271234
0.00274354
0.00277407
0.00280393
0.00283312
0.00286164
0.00288948
0.00291666
0.00294318
0.00296904
0.00299422
0.00301873
0.00304255
0.00306567
0.0030881
0.00310981
0.00313082
0.00315111
0.00317069
0.00318955
0.00320767
0.00322507
0.00324172
0.00325764
0.00327281
0.00328725
0.00330095
0.00331391
0.00332614
0.00333764
0.00334841
0.00335845
0.00336778
0.00337639
0.00338429
0.00339152
0.00339806
0.00340378
0.00340887
0.0034133
0.00341696
0.00341998
0.0034225
0.00342434
0.00342552
0.00342605
0.00342594
0.00342518
0.00342379
0.00342177
0.00341915
0.00341594
0.00341217
0.00340784
0.0034029
0.00339741
0.00339132
0.00338467
0.00337744
0.00336967
0.00336132
0.00335246
0.00334306
0.00333318
0.00332283
0.00331206
0.00330087
0.00328931
0.00327739
0.00326513
0.00325255
0.00323967
0.0032265
0.00321307
0.0031994
0.00318552
0.00317147
0.00315726
0.00314291
0.00312842
0.00311377
0.00309894
0.00308385
0.00306835
0.00305213
0.00303444
0.00301325
0.00298299
7.43244e-09
5.94556e-07
7.52565e-06
3.10632e-05
6.52059e-05
9.93703e-05
0.000127655
0.000148346
0.000162362
0.000170828
0.000175122
0.000176908
0.000176947
0.000175639
0.000173319
0.000170158
0.000166127
0.000161136
0.0001553
0.00014873
0.000141263
0.000132492
0.000115026
9.83341e-05
8.45013e-05
7.52441e-05
7.27255e-05
7.69096e-05
8.713e-05
0.000107899
0.000132988
0.000155704
0.000169595
0.000179537
0.000191085
0.000201012
0.000208258
0.00022119
0.000241432
0.000267802
0.000301912
0.000342402
0.000389892
0.000443167
0.000501531
0.000563466
0.000627799
0.000693904
0.000761007
0.000828704
0.000896502
0.000964078
0.0010309
0.00109681
0.00116228
0.00122664
0.0012899
0.00135192
0.00141273
0.00147232
0.0015307
0.00158793
0.00164403
0.00169907
0.00175309
0.00180617
0.00185836
0.00190972
0.00196029
0.00201012
0.00205925
0.00210769
0.00215545
0.00220255
0.00224898
0.00229473
0.00233981
0.00238419
0.00242787
0.00247085
0.0025131
0.00255463
0.00259544
0.00263552
0.00267488
0.00271351
0.00275142
0.00278861
0.00282509
0.00286085
0.0028959
0.00293024
0.00296388
0.0029968
0.00302902
0.00306052
0.0030913
0.00312134
0.00315067
0.0031793
0.00320723
0.00323445
0.00326097
0.00328676
0.00331183
0.00333618
0.00335978
0.00338264
0.00340476
0.00342612
0.00344671
0.00346655
0.00348561
0.00350391
0.00352143
0.00353819
0.00355417
0.00356939
0.00358384
0.00359752
0.00361045
0.00362262
0.00363404
0.00364472
0.00365465
0.00366385
0.00367232
0.00368013
0.00368718
0.00369345
0.00369906
0.003704
0.00370815
0.0037117
0.00371467
0.00371696
0.00371859
0.00371956
0.00371988
0.00371956
0.00371861
0.00371704
0.00371485
0.00371207
0.00370868
0.00370469
0.00370011
0.00369495
0.00368921
0.00368288
0.00367597
0.0036685
0.00366045
0.00365185
0.00364272
0.00363308
0.00362295
0.00361236
0.00360134
0.0035899
0.00357808
0.00356588
0.00355333
0.00354043
0.0035272
0.00351368
0.00349988
0.00348583
0.00347156
0.0034571
0.00344247
0.00342767
0.00341271
0.00339756
0.00338219
0.00336651
0.0033504
0.00333321
0.00331331
0.00328664
1.93342e-08
1.47856e-06
1.66932e-05
5.21175e-05
9.25264e-05
0.000126758
0.000152698
0.000170013
0.000180771
0.000186248
0.000187889
0.000186819
0.000184019
0.000180202
0.000175756
0.000170792
0.000165233
0.000159108
0.000152328
0.000145051
0.000137014
0.000125536
0.000113513
0.000106634
0.000102036
9.80036e-05
0.000102742
0.000117976
0.00013766
0.000158771
0.000178635
0.000195087
0.000206845
0.000215771
0.000225128
0.000237427
0.000255498
0.00027925
0.000310226
0.000347744
0.000392026
0.000442207
0.000497996
0.00055821
0.000621792
0.00068756
0.000754749
0.000822859
0.000891424
0.000960112
0.00102858
0.00109624
0.00116352
0.00123022
0.001296
0.00136078
0.00142452
0.00148716
0.00154871
0.00160916
0.00166853
0.00172686
0.00178419
0.00184056
0.00189601
0.0019506
0.00200436
0.00205735
0.0021096
0.00216116
0.00221205
0.00226229
0.00231188
0.00236082
0.00240908
0.00245664
0.00250349
0.00254962
0.00259501
0.00263963
0.00268347
0.00272654
0.00276881
0.00281031
0.00285105
0.00289107
0.0029303
0.00296876
0.00300643
0.00304333
0.00307947
0.00311486
0.00314949
0.00318337
0.0032165
0.00324888
0.00328053
0.00331145
0.00334165
0.00337112
0.00339987
0.00342788
0.00345516
0.00348169
0.00350748
0.00353252
0.00355681
0.00358033
0.00360309
0.00362507
0.00364628
0.00366671
0.00368636
0.00370523
0.00372331
0.00374061
0.00375713
0.00377287
0.00378784
0.00380203
0.00381546
0.00382812
0.00384003
0.00385118
0.00386159
0.00387127
0.00388022
0.00388852
0.00389601
0.00390279
0.00390889
0.00391432
0.00391897
0.00392306
0.00392652
0.00392932
0.00393147
0.00393297
0.00393385
0.0039341
0.00393374
0.00393277
0.00393121
0.00392905
0.0039263
0.00392298
0.00391908
0.0039146
0.00390955
0.00390393
0.00389774
0.00389097
0.00388364
0.00387576
0.00386735
0.00385841
0.00384898
0.00383908
0.00382872
0.00381792
0.00380671
0.00379509
0.00378309
0.0037707
0.00375796
0.00374487
0.00373148
0.00371779
0.00370385
0.00368967
0.00367528
0.0036607
0.00364593
0.00363097
0.00361582
0.00360041
0.0035846
0.00356796
0.00354921
0.00352565
4.30179e-08
3.41249e-06
3.00299e-05
7.58911e-05
0.000120251
0.000153963
0.000175897
0.000189634
0.000196113
0.000197195
0.000194779
0.000190242
0.000184513
0.000178166
0.000171427
0.000164228
0.000156817
0.000148753
0.000140792
0.000132439
0.000123962
0.000116279
0.000111293
0.000111295
0.000117668
0.000129769
0.000145715
0.000163389
0.000181433
0.000198426
0.000212632
0.000224053
0.000236116
0.000249433
0.000266383
0.000287812
0.000315557
0.000349509
0.000389859
0.000436018
0.000487673
0.000544124
0.000604708
0.000668379
0.00073418
0.000801297
0.000869205
0.000937533
0.00100597
0.00107397
0.00114146
0.00120888
0.00127547
0.00134128
0.00140618
0.00147013
0.00153309
0.00159504
0.00165598
0.00171592
0.00177487
0.00183288
0.00189
0.00194626
0.00200173
0.00205644
0.00211042
0.00216366
0.00221627
0.00226827
0.0023197
0.00237056
0.00242087
0.00247066
0.00252001
0.00256876
0.00261679
0.00266405
0.0027105
0.00275613
0.00280092
0.00284485
0.00288792
0.00293012
0.00297147
0.00301194
0.00305158
0.00309043
0.00312851
0.00316582
0.00320238
0.00323818
0.00327324
0.00330757
0.00334115
0.003374
0.00340613
0.00343753
0.0034682
0.00349814
0.00352734
0.0035558
0.00358352
0.00361049
0.00363671
0.00366218
0.00368689
0.00371084
0.00373402
0.00375644
0.00377807
0.00379893
0.00381901
0.00383831
0.00385682
0.00387455
0.0038915
0.00390767
0.00392308
0.00393771
0.00395158
0.00396469
0.00397705
0.00398867
0.00399954
0.00400969
0.00401915
0.0040279
0.00403589
0.00404319
0.00404982
0.00405577
0.00406102
0.00406569
0.00406972
0.00407311
0.00407588
0.00407803
0.00407957
0.00408052
0.00408087
0.00408065
0.00407986
0.00407849
0.00407657
0.00407409
0.00407106
0.00406747
0.00406333
0.00405863
0.00405338
0.00404757
0.00404121
0.0040343
0.00402685
0.0040189
0.00401044
0.0040015
0.0039921
0.00398225
0.00397196
0.00396124
0.0039501
0.00393855
0.00392661
0.00391429
0.00390162
0.00388863
0.00387534
0.00386177
0.00384796
0.00383391
0.00381964
0.00380518
0.00379053
0.00377568
0.00376053
0.00374476
0.00372734
0.00370718
8.16336e-08
6.98021e-06
4.41305e-05
9.58175e-05
0.000141764
0.000174549
0.000194871
0.000204478
0.000206603
0.000203836
0.000198063
0.000190583
0.000182203
0.000173266
0.000164537
0.000155767
0.000147823
0.000140818
0.000135345
0.000131237
0.000129405
0.000130782
0.000135801
0.000144582
0.000156562
0.000170839
0.000186289
0.000201906
0.000216337
0.000228866
0.000242201
0.000257314
0.000274253
0.000294363
0.000319397
0.000349859
0.000386156
0.000427947
0.000474941
0.000526631
0.000582578
0.000642162
0.000704673
0.000769263
0.000835185
0.000901861
0.000968893
0.00103597
0.00110249
0.0011689
0.00123485
0.00130016
0.00136464
0.00142823
0.00149088
0.00155257
0.00161331
0.0016731
0.00173197
0.00178993
0.00184695
0.00190312
0.00195853
0.00201324
0.00206731
0.00212082
0.00217393
0.00222684
0.00227927
0.00233119
0.00238259
0.00243347
0.00248386
0.00253373
0.00258299
0.00263163
0.00267962
0.00272687
0.00277338
0.00281911
0.00286402
0.00290808
0.00295128
0.00299363
0.00303513
0.00307583
0.00311573
0.00315485
0.00319321
0.00323079
0.00326764
0.00330373
0.0033391
0.00337373
0.00340763
0.0034408
0.00347325
0.00350498
0.00353598
0.00356625
0.00359578
0.00362459
0.00365266
0.00367999
0.00370657
0.00373241
0.0037575
0.00378184
0.00380542
0.00382825
0.0038503
0.00387159
0.00389211
0.00391186
0.00393083
0.00394902
0.00396644
0.0039831
0.00399899
0.00401412
0.0040285
0.00404213
0.00405502
0.00406718
0.0040786
0.00408931
0.00409933
0.00410863
0.00411722
0.00412513
0.00413238
0.00413897
0.00414491
0.00415026
0.00415497
0.00415907
0.00416256
0.00416547
0.0041678
0.00416956
0.00417076
0.00417141
0.00417152
0.00417109
0.00417012
0.00416863
0.00416661
0.00416407
0.004161
0.0041574
0.00415325
0.00414857
0.00414334
0.00413757
0.00413129
0.0041245
0.00411721
0.00410944
0.0041012
0.0040925
0.00408335
0.00407375
0.0040637
0.00405321
0.0040423
0.00403098
0.00401928
0.00400722
0.00399482
0.0039821
0.00396909
0.0039558
0.00394227
0.00392852
0.00391457
0.00390043
0.00388607
0.00387126
0.00385509
0.00383783
1.30194e-07
1.19848e-05
6.08157e-05
0.000118919
0.000164515
0.000194796
0.000210914
0.000216551
0.000215183
0.000209476
0.000201363
0.000191892
0.000182473
0.000173389
0.000165485
0.000158648
0.000153475
0.000150535
0.000149665
0.000151102
0.000155097
0.000161684
0.000170664
0.000181674
0.000194203
0.000207656
0.000220986
0.000233492
0.000246881
0.000262684
0.000280343
0.000299765
0.000322969
0.00035055
0.000383095