/*--------------------------------*- C++ -*----------------------------------*\
  =========                 |
  \\      /  F ield         | OpenFOAM: The Open Source CFD Toolbox
   \\    /   O peration     | Website:  https://openfoam.org
    \\  /    A nd           | Version:  8
     \\/     M anipulation  |
\*---------------------------------------------------------------------------*/
FoamFile
{
    version     2.0;
    format      ascii;
    class       volVectorField;
    location    "1600";
    object      wallShearStress;
}
// * * * * * * * * * * * * * * * * * * * * * * * * * * * * * * * * * * * * * //

dimensions      [0 2 -2 0 0 0 0];

internalField   uniform (0 0 0);

boundaryField
{
    inlet
    {
        type            calculated;
        value           uniform (0 0 0);
    }
    outlet
    {
        type            calculated;
        value           uniform (0 0 0);
    }
    upperWall
    {
        type            calculated;
        value           nonuniform List<vector> 
223
(
(-0.443909 0.00288827 0)
(-0.467491 0.00541239 0)
(-0.497501 0.00685792 0)
(-0.504474 0.00735229 0)
(-0.500662 0.00734766 0)
(-0.490366 0.00700043 0)
(-0.478538 0.00649764 0)
(-0.466373 0.00592587 0)
(-0.453938 0.00532951 0)
(-0.442226 0.00475401 0)
(-0.431459 0.00421816 0)
(-0.421684 0.00372539 0)
(-0.412895 0.00327881 0)
(-0.40503 0.00287786 0)
(-0.398023 0.00251947 0)
(-0.391789 0.00221121 0)
(-0.386208 0.00195858 0)
(-0.381238 0.00180389 0)
(-0.377261 0.00172025 0)
(-0.374126 0.00166555 5.75237e-22)
(-0.371078 0.00159138 0)
(-0.368123 0.00150705 0)
(-0.365257 0.001418 0)
(-0.36248 0.00132807 5.86009e-22)
(-0.359794 0.00123831 0)
(-0.3572 0.00115152 0)
(-0.354696 0.00106732 0)
(-0.352281 0.00098712 -1.19109e-21)
(-0.349954 0.000909977 1.1956e-21)
(-0.347715 0.000837019 1.20004e-21)
(-0.345561 0.000767135 0)
(-0.343491 0.000701103 -1.20872e-21)
(-0.341506 0.000637951 0)
(-0.339603 0.000578543 1.21719e-21)
(-0.337781 0.00052222 1.22137e-21)
(-0.336038 0.000469275 -1.22552e-21)
(-0.334374 0.000419542 0)
(-0.332785 0.000373167 0)
(-0.331268 0.000330275 0)
(-0.329822 0.000290994 0)
(-0.328441 0.00025537 -1.24584e-21)
(-0.327123 0.000223213 0)
(-0.325863 0.000194543 0)
(-0.324657 0.0001692 1.25793e-21)
(-0.323502 0.000146901 0)
(-0.322393 0.000127484 1.26602e-21)
(-0.321329 0.000110765 -1.27008e-21)
(-0.320304 9.64519e-05 1.27416e-21)
(-0.319317 8.41425e-05 0)
(-0.318365 7.40357e-05 0)
(-0.317447 6.57498e-05 0)
(-0.316558 5.9349e-05 1.2907e-21)
(-0.315699 5.44611e-05 -1.29491e-21)
(-0.314863 5.1107e-05 0)
(-0.314055 4.90733e-05 0)
(-0.313265 4.83899e-05 0)
(-0.312497 4.89227e-05 0)
(-0.311745 5.06999e-05 0)
(-0.31101 5.3597e-05 0)
(-0.310287 5.76288e-05 0)
(-0.309574 6.27959e-05 0)
(-0.308869 6.89541e-05 1.33331e-21)
(-0.308169 7.58098e-05 -1.33747e-21)
(-0.307479 8.33421e-05 0)
(-0.306776 9.19944e-05 0)
(-0.306101 0.000101544 0)
(-0.305375 0.000112337 -1.35338e-21)
(-0.304708 0.000122323 0)
(-0.303955 0.00013436 0)
(-0.303272 0.000148122 0)
(-0.302554 0.00015366 0)
(-0.301739 0.000535397 0)
(-0.303551 0.000736384 -2.75395e-21)
(-0.30382 0.000849012 0)
(-0.323796 0.0011603 0)
(-0.316239 0.000861778 0)
(-0.326997 0.000647965 0)
(-0.322865 0.000482462 0)
(-0.318798 0.000314013 0)
(-0.309189 0.000354805 0)
(-0.305378 0.000177195 2.9874e-21)
(-0.306105 -3.85291e-05 0)
(-0.299965 0.000370353 0)
(-0.299592 0.000520446 0)
(-0.306762 0.000346844 -3.08142e-21)
(-0.309196 0.00027524 0)
(-0.30823 2.24484e-05 -3.14881e-21)
(-0.302776 -0.000151641 0)
(-0.296994 -0.000114513 0)
(-0.296801 5.10345e-06 0)
(-0.296664 -0.000136381 -3.07783e-21)
(-0.325057 0.000153921 0)
(-0.319922 0.000623339 3.30626e-21)
(-0.30334 0.000977169 3.13511e-21)
(-0.299612 0.000973821 0)
(-0.295449 0.000781313 3.06354e-21)
(-0.294596 0.000703891 0)
(-0.302075 0.000203206 0)
(-0.302769 -5.8209e-05 0)
(-0.293969 0.000268719 -3.11849e-21)
(-0.293476 0.00042689 0)
(-0.298006 0.00017085 -3.17409e-21)
(-0.292838 -2.20847e-05 3.13141e-21)
(-0.334713 0.000263642 0)
(-0.313652 0.000468903 0)
(-0.307676 0.000255483 0)
(-0.291331 7.01807e-06 0)
(-0.330511 -0.000215147 0)
(-0.308581 3.80969e-05 0)
(-0.321919 0.000176826 0)
(-0.317653 0.0001568 -3.42008e-21)
(-0.346545 0.000367333 0)
(-0.35946 0.000314691 0)
(-0.338592 0.00021672 0)
(-0.340549 0.000433865 0)
(-0.346797 0.000916671 0)
(-0.314973 0.00165529 0)
(-0.302986 0.00206821 0)
(-0.283914 0.00152452 0)
(-0.283106 0.00115184 0)
(-0.282373 0.00140234 0)
(-0.281142 0.001186 0)
(-0.279938 0.00070763 0)
(-0.278885 0.000583661 -5.50386e-21)
(-0.277653 0.000233635 0)
(-0.276796 -0.000375635 0)
(-0.288258 -0.000513936 0)
(-0.316832 -0.000253011 6.17127e-21)
(-0.32407 -0.00015856 0)
(-0.303948 -0.000222962 0)
(-0.307439 1.49854e-05 5.71061e-21)
(-0.310392 0.000294461 0)
(-0.294568 0.000369397 -5.22538e-21)
(-0.298479 0.000635815 0)
(-0.300579 0.000612516 0)
(-0.281692 0.000388557 0)
(-0.284863 0.000334935 4.52556e-21)
(-0.271855 0.00105721 0)
(-0.259302 0.00129396 -3.78545e-21)
(-0.274023 0.0013324 0)
(-0.25711 0.00110286 0)
(-0.273599 0.00114638 0)
(-0.254885 0.00141912 0)
(-0.253603 0.000661164 0)
(-0.260825 5.88582e-05 0)
(-0.262988 0.000537227 0)
(-0.249072 0.000699208 0)
(-0.250654 0.000862354 0)
(-0.245753 0.0012008 0)
(-0.260528 0.00103999 0)
(-0.274767 0.00049344 -1.15572e-21)
(-0.264423 -0.000294819 8.17775e-22)
(-0.246775 2.13347e-05 0)
(-0.233922 0.000986569 0)
(-0.256661 0.00223329 0)
(-0.231341 0.00130744 0)
(-0.228957 0.000577348 -9.3528e-22)
(-0.237262 0.000834256 1.34533e-21)
(-0.241713 0.000257755 -1.78866e-21)
(-0.229235 0.000555052 0)
(-0.246906 0.00223569 -2.71906e-21)
(-0.219254 0.0026449 -5.4991e-21)
(-0.218585 0.00171353 0)
(-0.217031 0.00103359 -7.23926e-21)
(-0.215527 -0.000146798 8.08503e-21)
(-0.212639 -0.00128926 0)
(-0.208817 -0.000771051 0)
(-0.204776 0.000269953 0)
(-0.202704 0.000679078 0)
(-0.199759 7.67963e-05 0)
(-0.196319 3.79498e-05 -1.49141e-20)
(-0.193761 0.00122087 0)
(-0.199205 0.000949432 -1.67532e-20)
(-0.191472 0.00014065 0)
(-0.189209 0.000299516 0)
(-0.185196 -0.00067956 0)
(-0.180242 0.00049309 0)
(-0.182078 0.00120862 0)
(-0.178404 0.000300379 2.58584e-20)
(-0.176108 -0.00023275 0)
(-0.171676 0.000191779 0)
(-0.171782 0.00211607 -2.91145e-20)
(-0.173996 0.00223469 0)
(-0.17407 0.00141951 0)
(-0.172489 0.000941807 0)
(-0.170128 0.000696713 3.42815e-20)
(-0.166396 0.000558187 0)
(-0.161207 0.000504304 0)
(-0.153757 0.000591682 0)
(-0.143565 0.000880908 0)
(-0.130844 0.00132137 -5.62024e-20)
(-0.116743 0.00171285 0)
(-0.102851 0.00185453 0)
(-0.0902225 0.00170462 0)
(-0.0798698 0.00148258 9.44157e-20)
(-0.0690255 0.00133674 0)
(-0.0637207 0.0017394 0)
(-0.0348923 0.00143288 -1.40016e-19)
(-0.067293 0.000412943 0)
(-0.101349 0.00572182 1.19437e-17)
(-0.124782 0.010135 2.14069e-17)
(-0.13728 0.0127268 2.01046e-17)
(-0.144672 0.0141527 1.9317e-17)
(-0.150229 0.0150241 1.86876e-17)
(-0.154551 0.0156428 -1.81577e-17)
(-0.157701 0.0160804 -1.76669e-17)
(-0.160019 0.0163892 -6.01853e-36)
(-0.162171 0.0166182 -3.37062e-17)
(-0.164209 0.0168255 -1.6462e-17)
(-0.166419 0.0170155 7.88428e-34)
(-0.168802 0.0172283 -1.20371e-35)
(-0.171696 0.0174599 -3.02571e-17)
(-0.175093 0.0177527 -2.90941e-17)
(-0.179208 0.0180962 -2.77882e-17)
(-0.18399 0.018519 2.40741e-35)
(-0.189538 0.0190045 4.90193e-17)
(-0.195954 0.0195805 2.24809e-17)
(-0.203076 0.0202229 0)
(-0.21168 0.0209957 -3.50787e-17)
(-0.219902 0.02177 -1.22919e-20)
(-0.233326 0.0229184 3.00927e-36)
(-0.2376 0.0236379 1.32179e-17)
(-0.263035 0.0251837 -7.0723e-18)
)
;
    }
    lowerWall
    {
        type            calculated;
        value           nonuniform List<vector> 
250
(
(-0.623081 -0.00639822 0)
(-0.594561 -0.010101 0)
(-0.567872 -0.00995596 0)
(-0.554519 -0.00946278 0)
(-0.52101 -0.00832575 0)
(-0.614024 -0.00889637 0)
(-0.538993 -0.00616099 0)
(-0.531845 -0.00445118 0)
(-0.5727 -0.00426803 0)
(-0.58075 -0.00326613 0)
(-0.559917 -0.00308067 0)
(-0.501791 -0.00352946 0)
(-0.437127 -0.00229813 0)
(-0.43316 -0.0010666 0)
(-0.460622 -0.000354731 0)
(-0.515873 -0.000642538 0)
(-0.465547 -0.000537236 0)
(-0.493383 -0.000389051 0)
(0.00216829 0.000241741 0)
(0.00243062 -0.00261923 0)
(0.00270859 -0.00560344 0)
(0.0030081 -0.00873515 1.11188e-19)
(0.00325623 -0.0116978 -9.30086e-20)
(0.00350313 -0.015259 7.98383e-20)
(0.00314947 -0.0146725 -7.29112e-20)
(0.0101829 -0.0343163 0)
(-0.0450533 -0.107152 0)
(0.000222842 -0.000274597 0)
(5.99901e-05 -0.00078888 0)
(-7.33755e-06 -0.000874812 0)
(5.39858e-05 -0.000872727 0)
(3.00586e-05 -0.000835547 1.53241e-19)
(-0.000145723 -0.000263481 -1.48856e-19)
(-0.000581159 0.00118221 0)
(-0.00117449 0.0038853 -1.70425e-19)
(-0.00154699 0.00731829 1.30318e-19)
(-0.00148877 0.0105523 0)
(-0.00109428 0.0129346 0)
(-0.000560725 0.0141818 0)
(-4.89245e-05 0.0142704 0)
(0.000356152 0.0133926 0)
(0.000693661 0.0118306 0)
(0.00102425 0.00963272 0)
(0.00138854 0.0068345 0)
(0.0018023 0.00347924 0)
(-0.000142564 -0.00027775 0)
(0.000170487 -0.000447394 0)
(0.00048145 -0.000497831 0)
(0.000801426 -0.000425598 0)
(0.00105382 -0.000188951 -0)
(0.00109543 0.000200718 -0)
(0.000843487 0.000667212 1.42563e-20)
(0.000325928 0.00110333 -1.61213e-20)
(-0.000388004 0.00141888 0)
(-0.00120415 0.00157594 -9.17817e-21)
(-0.00204448 0.00158774 0)
(-0.0028444 0.00148468 0)
(-0.00355922 0.0013032 0)
(-0.0041641 0.00107385 4.50496e-21)
(-0.0046478 0.000817446 0)
(-0.00500612 0.000545611 0)
(-0.00523659 0.000266643 -3.90823e-21)
(-0.00534378 -2.55043e-05 -0)
(-0.00530258 -0.000328196 0)
(-0.00511173 -0.000620031 -0)
(-0.0047802 -0.000881084 4.21299e-21)
(-0.00431985 -0.00109109 -0)
(-0.00374889 -0.00122905 4.99899e-21)
(-0.00309492 -0.00127555 0)
(-0.00239591 -0.00121635 -0)
(-0.00170123 -0.00104828 8.16935e-21)
(-0.00106848 -0.000787676 0)
(-0.00055537 -0.000479344 -1.36594e-20)
(-0.000194978 -0.000196573 0)
(3.11606e-05 -3.09844e-06 2.33578e-20)
(0.000175751 0.000110663 0)
(0.000259378 0.000207352 0)
(0.000250228 0.000321572 0)
(0.00013764 0.000473834 0)
(-0.000112198 0.000675136 0)
(-0.000525657 0.000884745 -1.48598e-20)
(-0.00108302 0.00102485 0)
(-0.0016957 0.0010228 1.75066e-20)
(-0.00224464 0.000867844 0)
(-0.00263248 0.000609531 -1.39027e-20)
(-0.00282173 0.000334996 0)
(-0.00284288 0.000116256 0)
(-0.00275108 -1.88158e-06 1.37155e-20)
(-0.00262087 5.82106e-06 0)
(-0.00251936 0.000135357 1.4224e-20)
(-0.00245595 0.000329556 -1.43298e-20)
(-0.00237513 0.000439763 0)
(-0.00213103 0.000227779 -1.57206e-20)
(-0.00148604 -0.000404056 -1.86008e-20)
(-0.000235933 -0.00115243 0)
(0.00147508 -0.00183362 0)
(0.00338433 -0.00252333 0)
(0.00562102 -0.00319177 0)
(0.00809531 -0.00351273 -0)
(0.0106308 -0.00364291 3.56348e-21)
(0.013119 -0.00372033 0)
(0.0155978 -0.00369792 -2.71763e-21)
(0.0179894 -0.00357214 -0)
(0.0204082 -0.00339235 -0)
(0.02248 -0.00314315 2.11539e-21)
(0.0242947 -0.00290692 0)
(0.0261381 -0.00266048 -1.88315e-21)
(0.028854 -0.00247949 -0)
(0.0310706 -0.00230824 0)
(0.0331561 -0.0021537 -0)
(0.035223 -0.00200667 1.79055e-21)
(0.0371112 -0.00187077 0)
(0.0389906 -0.00175174 -0)
(0.0407501 -0.00164511 1.74296e-21)
(0.0424764 -0.00155119 0)
(0.0441279 -0.0014671 1.72206e-21)
(0.0457391 -0.00139196 0)
(0.0472968 -0.00132379 0)
(0.0488163 -0.00126183 0)
(0.0502933 -0.0012044 -1.69017e-21)
(0.0517343 -0.00115102 -0)
(0.0531387 -0.00110062 0)
(0.0545089 -0.00105275 -1.66948e-21)
(0.0558448 -0.00100681 -1.66262e-21)
(0.0571477 -0.000962532 -0)
(0.0584172 -0.000919398 -1.6486e-21)
(0.0596538 -0.00087731 0)
(0.0608568 -0.000835876 -3.26758e-21)
(0.0620264 -0.00079507 -0)
(0.0631616 -0.00075461 -3.23567e-21)
(0.0642625 -0.000714383 -0)
(0.0653275 -0.000674243 3.20079e-21)
(0.0663566 -0.000633949 0)
(0.0673477 -0.000593316 0)
(0.0683004 -0.000552365 0)
(0.0692129 -0.00051063 -3.11964e-21)
(0.0700842 -0.000468006 -0)
(0.0709123 -0.0004241 3.07241e-21)
(0.0716953 -0.000378515 0)
(0.0724307 -0.00033094 -3.02013e-21)
(0.0731163 -0.00028099 -2.99197e-21)
(0.073749 -0.000228675 -2.96247e-21)
(0.0743262 -0.000174491 -0)
(0.0748463 -0.000120282 0)
(0.0753088 -6.8988e-05 0)
(0.0757175 -2.53968e-05 0)
(0.0760784 1.19305e-05 0)
(0.0763932 4.75669e-05 0)
(0.0766621 8.26231e-05 0)
(0.0768845 0.000117412 0)
(0.07706 0.000152136 2.6261e-21)
(0.0771879 0.00018668 2.57902e-21)
(0.0772679 0.000221105 0)
(0.0772994 0.000255211 0)
(0.0772824 0.000289146 0)
(0.0772159 0.000322741 2.36882e-21)
(0.0771005 0.00035595 0)
(0.0769356 0.000388796 0)
(0.0767211 0.000421219 0)
(0.0764569 0.0004531 0)
(0.0761435 0.000484459 -2.05402e-21)
(0.0757808 0.000515308 0)
(0.0753691 0.000545561 0)
(0.0749088 0.000575227 1.83595e-21)
(0.0743999 0.000604322 -1.75824e-21)
(0.0738428 0.000632729 0)
(0.0732387 0.00066053 -1.5951e-21)
(0.0725873 0.00068774 0)
(0.0718893 0.00071437 1.42145e-21)
(0.071145 0.000740242 0)
(0.0703557 0.000765628 0)
(0.0695209 0.000790346 0)
(0.0686419 0.00081452 0)
(0.0677263 0.000837753 0)
(0.0667716 0.000860516 -1.66772e-21)
(0.0657636 0.000882222 -1.45085e-21)
(0.0647267 0.000903195 0)
(0.0636421 0.000922497 0)
(0.0625289 0.000938714 0)
(0.0613821 0.000949501 5.19078e-22)
(0.0602037 0.00095141 0)
(0.0589944 0.00094417 0)
(0.0577491 0.000948574 0)
(0.0564715 0.000965666 -5.28856e-22)
(0.0551599 0.000979225 8.12078e-22)
(0.0538218 0.000992082 0)
(0.0524575 0.00100418 0)
(0.0510685 0.00101563 1.71988e-21)
(0.0496562 0.00102634 2.04338e-21)
(0.0482233 0.00103643 0)
(0.046771 0.00104597 0)
(0.0453017 0.00105495 -3.08346e-21)
(0.0438137 0.00106282 3.45539e-21)
(0.0423131 0.00107023 0)
(0.0407962 0.00107637 0)
(0.0392703 0.00108186 4.65581e-21)
(0.0377312 0.00108608 0)
(0.0361874 0.00108979 0)
(0.0346341 0.00109237 6.00458e-21)
(0.0330795 0.00109467 0)
(0.0315183 0.00109598 7.0006e-21)
(0.0299583 0.00109716 0)
(0.028396 0.00109796 0)
(0.0268352 0.00109869 0)
(0.0252752 0.00109938 -9.2839e-21)
(0.0237173 0.00110019 0)
(0.0221616 0.00110107 0)
(0.0206087 0.00110213 0)
(0.0190588 0.00110331 0)
(0.0175124 0.00110478 0)
(0.0159697 0.00110659 0)
(0.014431 0.00110896 -1.46725e-20)
(0.0128961 0.001112 -1.56584e-20)
(0.0113649 0.00111586 0)
(0.00983705 0.00112057 0)
(0.0083123 0.00112599 0)
(0.00679085 0.00113196 2.04716e-20)
(0.00527329 0.00113885 0)
(0.00376119 0.00114533 -4.72096e-20)
(0.00225849 0.00114796 5.08507e-20)
(0.000775608 0.00114178 5.49011e-20)
(-0.000686475 0.00109863 -5.59678e-20)
(-0.00203101 0.00102128 5.3803e-20)
(-0.00351435 0.000854026 -5.19367e-20)
(-0.00382256 0.000465312 0)
(-0.00575956 0.00104144 -3.10552e-18)
(-0.00883478 0.000817226 -2.82041e-18)
(-0.0118805 0.000471418 -3.00927e-36)
(-0.0150034 0.000148306 -4.81055e-18)
(-0.0183262 -0.000187717 -8.95407e-18)
(-0.0218596 -0.000540657 -4.1808e-18)
(-0.0256147 -0.00091304 3.91353e-18)
(-0.0296146 -0.00130843 -6.01853e-36)
(-0.0338852 -0.00173116 3.00927e-36)
(-0.0384462 -0.00218376 3.23952e-18)
(-0.0433171 -0.00266808 3.04594e-18)
(-0.0485122 -0.00314735 0)
(-0.0540495 -0.00365573 0)
(-0.0599805 -0.00424346 0)
(-0.0663708 -0.0048928 -4.81012e-35)
(-0.0732151 -0.00559579 -3.49827e-35)
(-0.0806607 -0.00635384 5.41668e-35)
(-0.088577 -0.00717294 -3.76811e-18)
(-0.0975133 -0.00806252 -3.43149e-18)
(-0.106571 -0.00902784 6.01853e-36)
(-0.118092 -0.0100884 5.39542e-18)
(-0.127656 -0.0112556 8.95372e-18)
(-0.145035 -0.0124835 6.01853e-36)
(-0.15248 -0.0139958 -4.31986e-18)
(-0.18709 -0.0163277 -3.31019e-35)
)
;
    }
    frontAndBack
    {
        type            empty;
    }
}


// ************************************************************************* //
