/*--------------------------------*- C++ -*----------------------------------*\
  =========                 |
  \\      /  F ield         | OpenFOAM: The Open Source CFD Toolbox
   \\    /   O peration     | Website:  https://openfoam.org
    \\  /    A nd           | Version:  8
     \\/     M anipulation  |
\*---------------------------------------------------------------------------*/
FoamFile
{
    version     2.0;
    format      ascii;
    class       volVectorField;
    location    "1600";
    object      U;
}
// * * * * * * * * * * * * * * * * * * * * * * * * * * * * * * * * * * * * * //

dimensions      [0 1 -1 0 0 0 0];

internalField   nonuniform List<vector> 
12225
(
(9.76309 0.0455785 0)
(9.3167 0.0936569 0)
(8.86926 0.105307 0)
(8.45096 0.0978979 0)
(8.09068 0.0796861 0)
(7.78859 0.0705078 0)
(7.53677 0.0609559 0)
(7.3309 0.0410285 0)
(7.16375 0.0287907 0)
(7.02581 0.0190725 0)
(6.91318 0.0131516 0)
(6.80702 0.0130696 0)
(6.72142 0.00816224 0)
(6.64913 0.0155515 0)
(6.59896 0.017403 0)
(6.56332 0.00265132 0)
(6.53734 -0.00448347 0)
(6.5351 -0.00460009 0)
(10.0862 0.0593083 0)
(10.2472 0.0912419 0)
(10.3405 0.0894086 0)
(10.366 0.0862531 0)
(10.3459 0.0843384 0)
(10.3001 0.0785113 0)
(10.2197 0.0723201 0)
(10.1341 0.0679126 0)
(10.0432 0.0625064 0)
(9.94699 0.0588364 0)
(9.85261 0.0551028 0)
(9.76718 0.0497086 0)
(9.68063 0.0454173 0)
(9.60108 0.0383865 0)
(9.51175 0.0318915 0)
(9.43402 0.029054 0)
(9.3621 0.0237354 0)
(9.29671 0.0177144 0)
(10.0176 0.0413108 0)
(10.0767 0.0649126 0)
(10.1279 0.0707717 0)
(10.1686 0.0761908 0)
(10.2035 0.0800253 0)
(10.2332 0.0819676 0)
(10.2555 0.0804867 0)
(10.2695 0.0767749 0)
(10.2756 0.0742196 0)
(10.2757 0.0712375 0)
(10.2706 0.0685704 0)
(10.2635 0.0668488 0)
(10.2531 0.0636327 0)
(10.2407 0.0600458 0)
(10.2261 0.0557569 0)
(10.209 0.0504601 0)
(10.1895 0.0453899 0)
(10.1684 0.0396953 0)
(10.0072 0.030018 0)
(10.0397 0.0553891 0)
(10.0706 0.0646681 0)
(10.094 0.0703901 0)
(10.1137 0.0732474 0)
(10.1326 0.0737877 0)
(10.1502 0.0718649 0)
(10.1648 0.0684095 0)
(10.1767 0.0659029 0)
(10.1874 0.063861 0)
(10.1967 0.0617739 0)
(10.2051 0.0599103 0)
(10.2127 0.0577004 0)
(10.2195 0.0553958 0)
(10.2255 0.0522864 0)
(10.23 0.0480968 0)
(10.2328 0.043843 0)
(10.2347 0.039725 0)
(10.0044 0.023188 0)
(10.0274 0.0489671 0)
(10.0521 0.0595109 0)
(10.0709 0.0645889 0)
(10.0864 0.0673867 0)
(10.1012 0.0682729 0)
(10.1149 0.0671017 0)
(10.1263 0.0647519 0)
(10.1359 0.0627536 0)
(10.1448 0.060896 0)
(10.153 0.0589637 0)
(10.1607 0.0571373 0)
(10.1683 0.0550346 0)
(10.1755 0.0526594 0)
(10.1822 0.04967 0)
(10.188 0.0459794 0)
(10.1928 0.0421305 0)
(10.197 0.0383496 0)
(10.0029 0.0185558 0)
(10.0202 0.0423096 0)
(10.0409 0.0533724 0)
(10.0579 0.0587225 0)
(10.0719 0.0620567 0)
(10.0852 0.0634592 0)
(10.0975 0.0628211 0)
(10.1078 0.0610233 0)
(10.1167 0.0592332 0)
(10.1248 0.0574132 0)
(10.1323 0.0555138 0)
(10.1394 0.0535991 0)
(10.1463 0.0514538 0)
(10.1528 0.0489942 0)
(10.1589 0.0461057 0)
(10.1643 0.0427966 0)
(10.169 0.0393634 0)
(10.1731 0.0359235 0)
(10.002 0.0149127 0)
(10.0151 0.0360629 0)
(10.0325 0.0474278 0)
(10.0479 0.0530804 0)
(10.0609 0.0566397 0)
(10.0732 0.0582987 0)
(10.0846 0.0580611 0)
(10.0944 0.0567486 0)
(10.103 0.0552409 0)
(10.1108 0.0536045 0)
(10.1181 0.0518428 0)
(10.125 0.0499863 0)
(10.1315 0.0479023 0)
(10.1377 0.0455201 0)
(10.1433 0.0428134 0)
(10.1485 0.0398252 0)
(10.1529 0.0367146 0)
(10.1569 0.0335484 0)
(10.0014 0.0123346 0)
(10.0118 0.0313766 0)
(10.0268 0.0427346 0)
(10.0409 0.0485399 0)
(10.0531 0.0521309 0)
(10.0646 0.0539014 0)
(10.0753 0.0539461 0)
(10.0848 0.0529969 0)
(10.0932 0.0517084 0)
(10.1009 0.0502168 0)
(10.1081 0.0485374 0)
(10.1148 0.0467129 0)
(10.1211 0.0446582 0)
(10.127 0.0423474 0)
(10.1324 0.0397782 0)
(10.1374 0.0370117 0)
(10.1417 0.0341325 0)
(10.1456 0.031204 0)
(10.0011 0.0103996 0)
(10.0096 0.027374 0)
(10.0225 0.0384792 0)
(10.0354 0.0443509 0)
(10.0469 0.0479698 0)
(10.0577 0.0498611 0)
(10.0679 0.0501604 0)
(10.077 0.0494778 0)
(10.0852 0.048371 0)
(10.0927 0.047007 0)
(10.0997 0.0454274 0)
(10.1063 0.0436712 0)
(10.1124 0.0416936 0)
(10.1182 0.0394804 0)
(10.1234 0.0370569 0)
(10.1282 0.0344656 0)
(10.1325 0.0317847 0)
(10.1363 0.0290641 0)
(10.0008 0.00869336 0)
(10.0076 0.0234728 0)
(10.0186 0.0340299 0)
(10.0302 0.0398686 0)
(10.041 0.0434734 0)
(10.0511 0.0454382 0)
(10.0606 0.0459627 0)
(10.0694 0.0455261 0)
(10.0773 0.0446049 0)
(10.0846 0.0433719 0)
(10.0914 0.041901 0)
(10.0978 0.0402214 0)
(10.1038 0.0383286 0)
(10.1093 0.0362407 0)
(10.1144 0.0339653 0)
(10.119 0.0315685 0)
(10.1232 0.0290916 0)
(10.1269 0.0266003 0)
(10.0006 0.00717578 0)
(10.006 0.0197643 0)
(10.0151 0.029488 0)
(10.0255 0.0351471 0)
(10.0354 0.0386533 0)
(10.0448 0.040633 0)
(10.0537 0.0413252 0)
(10.062 0.0411114 0)
(10.0697 0.0403606 0)
(10.0767 0.0392683 0)
(10.0833 0.0379068 0)
(10.0895 0.0363243 0)
(10.0952 0.0345477 0)
(10.1006 0.0325975 0)
(10.1055 0.0304946 0)
(10.1099 0.0282967 0)
(10.114 0.0260394 0)
(10.1176 0.0237586 0)
(10.0005 0.00581142 0)
(10.0047 0.0162312 0)
(10.0122 0.0248838 0)
(10.0213 0.0301829 0)
(10.0302 0.0335023 0)
(10.0389 0.0354285 0)
(10.0472 0.0362268 0)
(10.055 0.0361817 0)
(10.0623 0.035598 0)
(10.0691 0.0346368 0)
(10.0755 0.033406 0)
(10.0814 0.0319452 0)
(10.0869 0.0303186 0)
(10.0921 0.0285166 0)
(10.0968 0.0266155 0)
(10.1011 0.0246127 0)
(10.105 0.0225793 0)
(10.1086 0.0205177 0)
(10.0004 0.00458429 0)
(10.0037 0.0129371 0)
(10.0098 0.0203098 0)
(10.0176 0.0250425 0)
(10.0256 0.0280635 0)
(10.0335 0.0298505 0)
(10.0412 0.0306643 0)
(10.0485 0.0307319 0)
(10.0555 0.0302756 0)
(10.062 0.0294521 0)
(10.068 0.0283528 0)
(10.0737 0.0270515 0)
(10.0791 0.0255699 0)
(10.084 0.0239648 0)
(10.0885 0.0222411 0)
(10.0927 0.0204659 0)
(10.0965 0.0186402 0)
(10.0999 0.016816 0)
(10.0003 0.00347489 0)
(10.0029 0.00985526 0)
(10.0079 0.0158081 0)
(10.0145 0.0197777 0)
(10.0216 0.0223688 0)
(10.0288 0.0239162 0)
(10.0358 0.0246493 0)
(10.0427 0.0247551 0)
(10.0492 0.0243816 0)
(10.0553 0.0236791 0)
(10.0612 0.0227148 0)
(10.0666 0.0215691 0)
(10.0717 0.0202594 0)
(10.0765 0.0188386 0)
(10.0808 0.0173201 0)
(10.0848 0.0157618 0)
(10.0885 0.0141662 0)
(10.0919 0.0125724 0)
(10.0002 0.0024454 0)
(10.0023 0.00694223 0)
(10.0065 0.011382 0)
(10.0121 0.0144228 0)
(10.0183 0.0164368 0)
(10.0248 0.0176338 0)
(10.0312 0.0181929 0)
(10.0376 0.018242 0)
(10.0437 0.0179106 0)
(10.0495 0.0172822 0)
(10.055 0.0164497 0)
(10.0602 0.0154405 0)
(10.0651 0.0143138 0)
(10.0697 0.0130731 0)
(10.0739 0.0117807 0)
(10.0778 0.010438 0)
(10.0813 0.00909044 0)
(10.0846 0.00773324 0)
(10.0002 0.0014669 0)
(10.0019 0.00413154 0)
(10.0054 0.00700424 0)
(10.0102 0.00896734 0)
(10.0158 0.0102559 0)
(10.0216 0.0109829 0)
(10.0275 0.0112563 0)
(10.0334 0.0111717 0)
(10.0392 0.0108031 0)
(10.0447 0.0102205 0)
(10.05 0.00947612 0)
(10.0549 0.00860731 0)
(10.0596 0.0076426 0)
(10.064 0.00660772 0)
(10.0681 0.0055292 0)
(10.0718 0.00442742 0)
(10.0753 0.00331896 0)
(10.0785 0.00222042 0)
(10.0002 0.00050098 0)
(10.0017 0.00135097 0)
(10.0047 0.00259999 0)
(10.009 0.00334068 0)
(10.0141 0.00376834 0)
(10.0194 0.00388455 0)
(10.025 0.00377244 0)
(10.0305 0.00344996 0)
(10.036 0.00298627 0)
(10.0412 0.00238893 0)
(10.0463 0.0017133 0)
(10.0511 0.000957039 0)
(10.0556 0.000159424 0)
(10.0598 -0.000681974 0)
(10.0638 -0.00153586 0)
(10.0675 -0.00240244 0)
(10.0709 -0.00326144 0)
(10.074 -0.00410645 0)
(10.0002 -0.000443422 0)
(10.0016 -0.00134939 0)
(10.0045 -0.00175061 0)
(10.0086 -0.0022677 0)
(10.0134 -0.002792 0)
(10.0186 -0.00334006 0)
(10.024 -0.00392455 0)
(10.0294 -0.00451999 0)
(10.0347 -0.00514479 0)
(10.0398 -0.00576961 0)
(10.0448 -0.00641795 0)
(10.0494 -0.00706018 0)
(10.0539 -0.00771891 0)
(10.058 -0.00836499 0)
(10.0619 -0.00901732 0)
(10.0656 -0.00964944 0)
(10.0689 -0.0102794 0)
(10.0721 -0.0108768 0)
(10.0002 -0.00133696 0)
(10.0017 -0.00389045 0)
(10.0047 -0.00584228 0)
(10.009 -0.007546 0)
(10.0139 -0.00895987 0)
(10.0192 -0.0101473 0)
(10.0246 -0.0111698 0)
(10.03 -0.0120426 0)
(10.0353 -0.0128042 0)
(10.0405 -0.0134713 0)
(10.0455 -0.0140769 0)
(10.0502 -0.0146271 0)
(10.0546 -0.015142 0)
(10.0588 -0.0156222 0)
(10.0626 -0.0160796 0)
(10.0663 -0.0165122 0)
(10.0696 -0.016928 0)
(10.0728 -0.0173158 0)
(10.0002 -0.00221467 0)
(10.0019 -0.00637293 0)
(10.0053 -0.00975132 0)
(10.01 -0.0125184 0)
(10.0152 -0.0146888 0)
(10.0208 -0.0164303 0)
(10.0264 -0.0178101 0)
(10.0321 -0.0189066 0)
(10.0376 -0.0197554 0)
(10.0429 -0.0204408 0)
(10.048 -0.0209795 0)
(10.0527 -0.0214344 0)
(10.0572 -0.0218003 0)
(10.0614 -0.0221262 0)
(10.0653 -0.0223999 0)
(10.069 -0.0226544 0)
(10.0724 -0.0228779 0)
(10.0755 -0.0230825 0)
(10.0003 -0.00314588 0)
(10.0023 -0.00896951 0)
(10.0063 -0.0137004 0)
(10.0116 -0.017385 0)
(10.0174 -0.0201986 0)
(10.0234 -0.0223799 0)
(10.0294 -0.0240519 0)
(10.0354 -0.0252816 0)
(10.0412 -0.026183 0)
(10.0467 -0.026821 0)
(10.0519 -0.0272883 0)
(10.0568 -0.0276038 0)
(10.0614 -0.0278368 0)
(10.0656 -0.0279839 0)
(10.0696 -0.0281006 0)
(10.0733 -0.0281682 0)
(10.0767 -0.0282308 0)
(10.0799 -0.0282557 0)
(10.0003 -0.00419149 0)
(10.003 -0.0118101 0)
(10.0078 -0.0178098 0)
(10.014 -0.0222622 0)
(10.0204 -0.0255913 0)
(10.0269 -0.0281298 0)
(10.0334 -0.0299953 0)
(10.0398 -0.0312974 0)
(10.0459 -0.0321717 0)
(10.0516 -0.0327382 0)
(10.0571 -0.0330796 0)
(10.0621 -0.0332553 0)
(10.0668 -0.0333155 0)
(10.0712 -0.0333005 0)
(10.0752 -0.0332354 0)
(10.079 -0.0331443 0)
(10.0824 -0.0330342 0)
(10.0856 -0.0329145 0)
(10.0005 -0.00542391 0)
(10.0039 -0.0150099 0)
(10.01 -0.0221388 0)
(10.0171 -0.0271802 0)
(10.0243 -0.0309191 0)
(10.0314 -0.0337325 0)
(10.0384 -0.035706 0)
(10.0453 -0.0369943 0)
(10.0517 -0.0377878 0)
(10.0578 -0.0382366 0)
(10.0634 -0.0384262 0)
(10.0687 -0.038438 0)
(10.0735 -0.0383183 0)
(10.078 -0.0381308 0)
(10.0821 -0.0378907 0)
(10.0859 -0.0376363 0)
(10.0894 -0.0373697 0)
(10.0927 -0.0371017 0)
(10.0007 -0.00694665 0)
(10.0054 -0.0186838 0)
(10.013 -0.0266877 0)
(10.0213 -0.0320921 0)
(10.0292 -0.0361689 0)
(10.037 -0.0392046 0)
(10.0446 -0.0412164 0)
(10.052 -0.0424219 0)
(10.0588 -0.0430791 0)
(10.0652 -0.0433642 0)
(10.0711 -0.0433727 0)
(10.0765 -0.0431875 0)
(10.0815 -0.0428825 0)
(10.0861 -0.0425059 0)
(10.0904 -0.0421049 0)
(10.0943 -0.0416952 0)
(10.0979 -0.0413038 0)
(10.1012 -0.0409134 0)
(10.001 -0.00888684 0)
(10.0075 -0.0229382 0)
(10.0171 -0.0314691 0)
(10.0266 -0.0370013 0)
(10.0353 -0.0413093 0)
(10.0438 -0.0444914 0)
(10.0522 -0.0464948 0)
(10.0602 -0.04761 0)
(10.0676 -0.0481376 0)
(10.0743 -0.0482582 0)
(10.0806 -0.048073 0)
(10.0864 -0.0476778 0)
(10.0917 -0.0471517 0)
(10.0965 -0.04656 0)
(10.1009 -0.0459526 0)
(10.105 -0.045362 0)
(10.1088 -0.0448009 0)
(10.1122 -0.0442634 0)
(10.0015 -0.011429 0)
(10.0107 -0.0276276 0)
(10.0229 -0.0364683 0)
(10.0338 -0.0422075 0)
(10.0435 -0.0466638 0)
(10.0532 -0.0497577 0)
(10.0627 -0.0515579 0)
(10.0716 -0.0524855 0)
(10.0798 -0.0528356 0)
(10.0874 -0.0528018 0)
(10.0944 -0.0524677 0)
(10.1008 -0.051934 0)
(10.1067 -0.0512818 0)
(10.1121 -0.050566 0)
(10.117 -0.0498583 0)
(10.1215 -0.0491799 0)
(10.1257 -0.0485472 0)
(10.1295 -0.0479251 0)
(10.0025 -0.0153573 0)
(10.0163 -0.0326961 0)
(10.0324 -0.0412058 0)
(10.0463 -0.0475488 0)
(10.0587 -0.0525711 0)
(10.071 -0.0556823 0)
(10.0831 -0.0572083 0)
(10.0945 -0.0577674 0)
(10.1049 -0.0577247 0)
(10.1146 -0.0572652 0)
(10.1235 -0.0565078 0)
(10.1317 -0.0555746 0)
(10.1392 -0.0545477 0)
(10.146 -0.0535146 0)
(10.1521 -0.0525345 0)
(10.1577 -0.0516564 0)
(10.1628 -0.0508825 0)
(10.1674 -0.05014 0)
(10.0064 -0.0230672 0)
(10.0339 -0.0392056 0)
(10.0624 -0.0447224 0)
(10.0869 -0.0508455 0)
(10.1099 -0.056788 0)
(10.1327 -0.0608918 0)
(10.1542 -0.0632776 0)
(10.1736 -0.0645515 0)
(10.1908 -0.0650854 0)
(10.2058 -0.0649889 0)
(10.2187 -0.06442 0)
(10.2295 -0.0635045 0)
(10.2384 -0.0623631 0)
(10.2454 -0.0611197 0)
(10.2507 -0.0598527 0)
(10.2546 -0.0586792 0)
(10.2574 -0.0576563 0)
(10.259 -0.0569036 0)
(10.043 -0.036547 0)
(10.1427 -0.0634886 0)
(10.2168 -0.0678737 0)
(10.2694 -0.0698265 0)
(10.3071 -0.0718589 0)
(10.3313 -0.0725592 0)
(10.3423 -0.0719751 0)
(10.3414 -0.0706359 0)
(10.3309 -0.0688599 0)
(10.3132 -0.0667747 0)
(10.2899 -0.0644825 0)
(10.2626 -0.0620734 0)
(10.2321 -0.0596289 0)
(10.1996 -0.05722 0)
(10.1657 -0.0549017 0)
(10.131 -0.0528099 0)
(10.0959 -0.0509363 0)
(10.0615 -0.0497198 0)
(9.88834 -0.0291923 0)
(9.66835 -0.0636375 0)
(9.43283 -0.0776736 0)
(9.18315 -0.0836733 0)
(8.94088 -0.0843525 0)
(8.71466 -0.0813694 0)
(8.50713 -0.0761395 0)
(8.31821 -0.0700046 0)
(8.14796 -0.0635096 0)
(7.99549 -0.0570015 0)
(7.85978 -0.0507634 0)
(7.73908 -0.0449233 0)
(7.63214 -0.0395441 0)
(7.53728 -0.034635 0)
(7.45339 -0.0301969 0)
(7.3789 -0.0262589 0)
(7.31242 -0.0229007 0)
(7.25289 -0.0205731 0)
(-0.00265305 0.00733179 0)
(-0.0123473 0.0122853 0)
(-0.0255321 0.0134453 0)
(-0.0395755 0.0115459 0)
(-0.0499165 0.00594781 0)
(-0.0492276 -0.00337028 0)
(-0.0339448 -0.0159726 -8.20539e-19)
(-0.00730097 -0.0291801 9.37394e-19)
(0.027442 -0.0391314 0)
(0.0673709 -0.0440633 5.4306e-19)
(0.109762 -0.0445743 0)
(0.151201 -0.0418036 0)
(0.188958 -0.0367775 0)
(0.221358 -0.0302941 -2.6508e-19)
(0.247524 -0.0229106 0)
(0.26702 -0.0149924 0)
(0.279502 -0.00673922 2.28787e-19)
(0.285165 0.00189973 0)
(0.282911 0.0108178 0)
(0.272943 0.0195289 0)
(0.255895 0.0272822 -2.45164e-19)
(0.232413 0.0332859 0)
(0.203422 0.036824 -2.902e-19)
(0.170324 0.0372863 0)
(0.134958 0.0342747 0)
(0.099579 0.0278183 -4.72322e-19)
(0.0666407 0.0186649 0)
(0.0385008 0.00855318 7.84093e-19)
(0.0168171 4.43771e-05 0)
(0.00193549 -0.00499255 -1.32766e-18)
(-0.00733586 -0.00726132 0)
(-0.0119861 -0.00877688 0)
(-0.0108868 -0.0107902 0)
(-0.00365439 -0.0142355 0)
(0.0107161 -0.0195424 0)
(0.0326391 -0.0255023 8.45296e-19)
(0.0606616 -0.0298445 0)
(0.090732 -0.0302261 -9.99831e-19)
(0.117833 -0.0261456 0)
(0.137798 -0.0188938 7.91326e-19)
(0.148655 -0.0108323 0)
(0.151303 -0.00416638 0)
(0.148271 -0.000390531 -7.79782e-19)
(0.143585 -0.000282231 0)
(0.140615 -0.00468032 -8.12368e-19)
(0.138703 -0.0132897 8.19043e-19)
(0.131991 -0.0224661 0)
(0.112941 -0.0227574 8.74722e-19)
(0.0762378 -0.00698943 1.00157e-18)
(0.0114708 0.0128524 0)
(-0.0828801 0.0314424 0)
(-0.184829 0.0543336 0)
(-0.297983 0.0780125 0)
(-0.42084 0.0981721 0)
(-0.550285 0.110499 -1.95683e-19)
(-0.68352 0.110195 0)
(-0.81616 0.108427 1.53548e-19)
(-0.942737 0.105266 0)
(-1.06425 0.100298 0)
(-1.1778 0.0944018 -1.17502e-19)
(-1.28377 0.087238 0)
(-1.38169 0.0813614 1.04459e-19)
(-1.4721 0.0720649 0)
(-1.55455 0.0645621 0)
(-1.63049 0.059815 0)
(-1.70082 0.0542704 -9.02287e-20)
(-1.76578 0.0498612 0)
(-1.8262 0.0459556 0)
(-1.88258 0.0425152 -8.36328e-20)
(-1.93543 0.0395281 0)
(-1.98516 0.0368927 -8.0319e-20)
(-2.03214 0.0345622 0)
(-2.07664 0.0324802 0)
(-2.11893 0.0305962 0)
(-2.15916 0.0288826 7.5128e-20)
(-2.19752 0.0272965 0)
(-2.23411 0.0258267 0)
(-2.26903 0.0244382 7.19836e-20)
(-2.30236 0.0231318 7.10277e-20)
(-2.33417 0.0218767 0)
(-2.36449 0.0206826 6.92129e-20)
(-2.39338 0.0195208 0)
(-2.42087 0.0184063 1.34996e-19)
(-2.44697 0.0173121 0)
(-2.47173 0.0162551 1.317e-19)
(-2.49515 0.0152092 0)
(-2.51725 0.0141907 -1.28482e-19)
(-2.53802 0.0131779 0)
(-2.55745 0.0121828 0)
(-2.57553 0.0111946 0)
(-2.5923 0.010217 1.22133e-19)
(-2.60778 0.0092348 0)
(-2.62194 0.00824997 -1.18953e-19)
(-2.63474 0.00725184 0)
(-2.64614 0.00623689 1.1573e-19)
(-2.65611 0.0051957 1.14097e-19)
(-2.6646 0.00412313 1.12447e-19)
(-2.67156 0.00302595 0)
(-2.67696 0.00193342 0)
(-2.68072 0.000931793 0)
(-2.68283 0.000110054 0)
(-2.68372 -0.000569254 0)
(-2.68341 -0.00121279 0)
(-2.68194 -0.00183078 0)
(-2.67932 -0.00244234 0)
(-2.67556 -0.00303803 -9.62682e-20)
(-2.67065 -0.00363056 -9.42659e-20)
(-2.6646 -0.00420772 0)
(-2.65741 -0.00478226 0)
(-2.64907 -0.00534164 0)
(-2.6396 -0.00589842 -8.58161e-20)
(-2.62899 -0.00644066 0)
(-2.61723 -0.00698002 0)
(-2.60435 -0.00750587 0)
(-2.59033 -0.00802831 0)
(-2.57518 -0.00853852 7.42055e-20)
(-2.5589 -0.00904448 0)
(-2.54149 -0.00953962 0)
(-2.52297 -0.0100296 -6.66272e-20)
(-2.50333 -0.0105102 6.39893e-20)
(-2.48257 -0.0109845 0)
(-2.46071 -0.0114509 5.85325e-20)
(-2.43775 -0.01191 0)
(-2.4137 -0.0123625 -5.28171e-20)
(-2.38856 -0.0128069 0)
(-2.36234 -0.0132464 0)
(-2.33504 -0.0136782 0)
(-2.30669 -0.0141082 0)
(-2.27729 -0.0145293 0)
(-2.24684 -0.0149398 6.77364e-20)
(-2.21536 -0.0153302 6.08142e-20)
(-2.18286 -0.0157188 0)
(-2.14938 -0.0160952 0)
(-2.11495 -0.0164443 0)
(-2.07959 -0.0167353 -3.11042e-20)
(-2.04333 -0.0169093 0)
(-2.00622 -0.0168767 0)
(-1.96832 -0.0166221 0)
(-1.92962 -0.0166518 2.33441e-21)
(-1.89001 -0.017007 -1.13723e-20)
(-1.84958 -0.0172806 0)
(-1.80834 -0.0175512 0)
(-1.76632 -0.0178049 -4.04382e-20)
(-1.72355 -0.0180515 -5.08356e-20)
(-1.68005 -0.0182866 0)
(-1.63586 -0.0185165 0)
(-1.591 -0.0187371 8.44309e-20)
(-1.54549 -0.0189524 -9.65048e-20)
(-1.49937 -0.0191596 0)
(-1.45267 -0.019361 0)
(-1.40542 -0.0195555 -1.35733e-19)
(-1.35765 -0.019743 0)
(-1.30937 -0.0199225 0)
(-1.26063 -0.0200948 -1.80205e-19)
(-1.21145 -0.0202609 0)
(-1.16185 -0.0204229 -2.13337e-19)
(-1.11186 -0.020583 0)
(-1.06149 -0.0207435 0)
(-1.01076 -0.020907 0)
(-0.959678 -0.0210755 2.90016e-19)
(-0.908245 -0.0212513 0)
(-0.856464 -0.0214352 0)
(-0.804334 -0.0216286 0)
(-0.751858 -0.0218313 0)
(-0.699039 -0.0220448 0)
(-0.645881 -0.0222705 0)
(-0.592384 -0.0225116 4.73415e-19)
(-0.538546 -0.0227704 5.0713e-19)
(-0.484362 -0.0230502 0)
(-0.429825 -0.0233515 0)
(-0.374928 -0.0236739 0)
(-0.319678 -0.024011 -6.71495e-19)
(-0.264106 -0.024354 0)
(-0.208284 -0.0247032 1.556e-18)
(-0.152359 -0.0250155 -1.67939e-18)
(-0.0966238 -0.0251725 -1.81659e-18)
(-0.0414465 -0.0250079 1.96967e-18)
(0.0103328 -0.0237495 -2.04835e-18)
(0.0675743 -0.0214992 2.01258e-18)
(0.0848278 -0.0106374 0)
(-0.000178373 0.0197421 0)
(-0.00565195 0.0345665 0)
(-0.0117339 0.0358185 2.18656e-18)
(-0.0121186 0.0266997 0)
(0.00148726 0.00551593 -2.28444e-18)
(0.0302391 -0.0302651 -1.4675e-18)
(0.0683258 -0.0706224 -4.63254e-19)
(0.111976 -0.104003 -3.30468e-19)
(0.157279 -0.124758 0)
(0.200862 -0.132397 -2.15646e-19)
(0.24053 -0.129395 0)
(0.2753 -0.119033 0)
(0.304824 -0.104135 3.20555e-19)
(0.329099 -0.0867652 1.52634e-19)
(0.348336 -0.0682638 -2.97436e-19)
(0.362838 -0.0494147 -2.93942e-19)
(0.372978 -0.0306005 -1.46997e-19)
(0.378937 -0.0119799 0)
(0.381661 0.00645156 0)
(0.381073 0.0245242 0)
(0.37679 0.0418878 -1.55417e-19)
(0.368322 0.057987 0)
(0.355116 0.0720754 4.97557e-19)
(0.336713 0.0831692 0)
(0.312911 0.0901577 0)
(0.283962 0.091975 2.01763e-19)
(0.250762 0.0879281 0)
(0.214953 0.078118 -2.55844e-19)
(0.178847 0.0636274 -5.99332e-19)
(0.145315 0.0462374 3.58499e-19)
(0.117407 0.02754 0)
(0.0983158 0.00837171 0)
(0.0893234 -0.0114103 0)
(0.0920551 -0.031006 -1.04206e-18)
(0.104747 -0.0505691 -8.77337e-19)
(0.123963 -0.0676122 -3.62787e-19)
(0.143966 -0.0752427 0)
(0.158925 -0.0700143 5.22936e-19)
(0.166254 -0.054797 0)
(0.165602 -0.0347372 -5.03004e-19)
(0.157584 -0.0160142 0)
(0.143223 -0.00322166 0)
(0.122876 0.00382684 6.39463e-19)
(0.0912991 0.00897453 0)
(0.0397993 0.0187486 2.63313e-18)
(-0.0448197 0.0448817 -7.23108e-19)
(-0.159426 0.0857646 0)
(-0.287508 0.129684 -2.95407e-19)
(-0.421927 0.172928 -2.15633e-19)
(-0.562433 0.210224 0)
(-0.705628 0.238787 0)
(-0.846726 0.258885 0)
(-0.984561 0.270362 0)
(-1.11589 0.273729 0)
(-1.23764 0.270354 8.68323e-20)
(-1.34826 0.26141 1.63347e-19)
(-1.44675 0.247724 -7.65485e-20)
(-1.53465 0.231345 0)
(-1.61216 0.213323 1.40617e-19)
(-1.6811 0.195306 -6.81618e-20)
(-1.74246 0.17793 0)
(-1.79749 0.161888 -6.36637e-20)
(-1.84786 0.147281 0)
(-1.89388 0.134136 0)
(-1.93658 0.122712 -1.19837e-19)
(-1.97627 0.11264 5.87469e-20)
(-2.01364 0.103851 -1.15546e-19)
(-2.04899 0.0961912 1.13641e-19)
(-2.08258 0.0894848 5.59442e-20)
(-2.11462 0.0835836 0)
(-2.14523 0.0783499 5.43447e-20)
(-2.17454 0.0736633 0)
(-2.20262 0.0694291 0)
(-2.22952 0.065556 0)
(-2.2553 0.0619873 5.144e-20)
(-2.27998 0.0586556 0)
(-2.30359 0.0555325 1.00449e-19)
(-2.32614 0.0525657 -1.48899e-19)
(-2.34764 0.0497467 -4.90708e-20)
(-2.36811 0.047033 0)
(-2.38754 0.0444294 -4.79051e-20)
(-2.40594 0.0418992 0)
(-2.42332 0.0394551 -9.35301e-20)
(-2.43968 0.0370639 0)
(-2.45502 0.0347411 -9.12739e-20)
(-2.46933 0.0324546 1.80167e-19)
(-2.48262 0.0302187 8.9014e-20)
(-2.49488 0.028009 0)
(-2.5061 0.0258353 0)
(-2.51626 0.0236939 0)
(-2.52542 0.0215831 -8.44123e-20)
(-2.53358 0.0194954 0)
(-2.54074 0.0174346 8.20514e-20)
(-2.54687 0.0153934 0)
(-2.55197 0.0133732 -2.38912e-19)
(-2.55608 0.0113648 -7.83886e-20)
(-2.55921 0.00936194 -7.71312e-20)
(-2.56143 0.00735965 0)
(-2.56282 0.00536819 0)
(-2.56346 0.00344392 0)
(-2.56346 0.00166147 0)
(-2.56245 6.66049e-06 0)
(-2.56035 -0.00159611 -1.38193e-19)
(-2.55715 -0.00315624 -1.35302e-19)
(-2.55284 -0.00469237 0)
(-2.5474 -0.00619702 6.45822e-20)
(-2.54085 -0.00768193 6.30522e-20)
(-2.53317 -0.00913548 0)
(-2.52437 -0.0105695 1.20083e-19)
(-2.51445 -0.0119715 0)
(-2.50341 -0.0133536 -5.69629e-20)
(-2.49124 -0.0147032 0)
(-2.47796 -0.0160322 0)
(-2.46356 -0.017329 1.0362e-19)
(-2.44804 -0.018604 0)
(-2.43141 -0.0198472 -4.81665e-20)
(-2.41366 -0.0210671 0)
(-2.3948 -0.0222558 0)
(-2.37483 -0.0234195 -4.31542e-20)
(-2.35376 -0.0245528 -4.08984e-20)
(-2.33159 -0.0256594 0)
(-2.30833 -0.0267365 3.75475e-20)
(-2.28398 -0.0277852 0)
(-2.25854 -0.0288049 -3.36668e-20)
(-2.23203 -0.0297939 -6.28722e-20)
(-2.20444 -0.0307538 0)
(-2.17581 -0.0316807 0)
(-2.14612 -0.032578 0)
(-2.1154 -0.03344 0)
(-2.08365 -0.0342688 -4.13771e-20)
(-2.05088 -0.0350604 -1.12035e-19)
(-2.01711 -0.0358221 0)
(-1.98238 -0.0365522 0)
(-1.94671 -0.0372531 0)
(-1.91011 -0.0379209 1.84961e-20)
(-1.87259 -0.0385706 0)
(-1.83412 -0.0392072 0)
(-1.7947 -0.0398392 -8.80703e-21)
(-1.75438 -0.0404465 1.42193e-23)
(-1.71325 -0.040994 6.55209e-21)
(-1.67134 -0.0414748 0)
(-1.62863 -0.0419138 0)
(-1.58515 -0.0423078 2.27337e-20)
(-1.54093 -0.0426673 -2.68742e-20)
(-1.49598 -0.0429893 0)
(-1.45034 -0.0432819 0)
(-1.40404 -0.0435418 -4.57922e-20)
(-1.35709 -0.0437748 1.53952e-19)
(-1.30954 -0.0439787 0)
(-1.26141 -0.0441569 0)
(-1.21273 -0.0443077 7.06524e-20)
(-1.16351 -0.0444311 0)
(-1.11379 -0.0445246 1.65978e-19)
(-1.0636 -0.0445896 -8.89247e-20)
(-1.01295 -0.0446268 0)
(-0.961881 -0.0446409 1.04527e-19)
(-0.910409 -0.0446353 2.21711e-19)
(-0.858553 -0.0446158 0)
(-0.806326 -0.0445862 0)
(-0.753738 -0.0445518 -1.34111e-19)
(-0.700792 -0.0445154 0)
(-0.647489 -0.0444803 2.97841e-19)
(-0.59383 -0.0444465 0)
(-0.539813 -0.0444142 0)
(-0.485439 -0.0443826 0)
(-0.43071 -0.0443535 0)
(-0.375625 -0.0443289 -1.91998e-19)
(-0.320181 -0.0443123 -2.00994e-19)
(-0.264371 -0.0443064 0)
(-0.208189 -0.0443113 0)
(-0.151628 -0.0443238 0)
(-0.0946908 -0.0443325 2.39081e-19)
(-0.0374065 -0.0443113 0)
(0.0201717 -0.0442093 -5.10983e-19)
(0.0779419 -0.0439552 5.14076e-19)
(0.135636 -0.0434209 5.15816e-19)
(0.193161 -0.0423963 5.14382e-19)
(0.248462 -0.0404097 5.20593e-19)
(0.306549 -0.036553 5.22689e-19)
(0.343261 -0.0247922 0)
(0.000349094 0.0223164 0)
(0.000795943 0.0386031 0)
(0.0066375 0.0313903 -2.33217e-18)
(0.0262332 -0.00118129 -1.64658e-18)
(0.0648423 -0.0589968 9.87747e-19)
(0.115133 -0.123163 6.41397e-19)
(0.16704 -0.174531 -3.5556e-22)
(0.21374 -0.204433 0)
(0.252483 -0.213362 0)
(0.283201 -0.206239 0)
(0.307049 -0.188695 0)
(0.325443 -0.165368 0)
(0.339581 -0.13943 -7.27081e-19)
(0.350316 -0.112781 0)
(0.358216 -0.0864456 2.31865e-19)
(0.363657 -0.060913 2.31256e-19)
(0.366909 -0.0363766 0)
(0.368172 -0.0129171 0)
(0.367691 0.00948993 0)
(0.365789 0.0310031 0)
(0.362721 0.0517504 2.4642e-19)
(0.358659 0.0716552 0)
(0.353512 0.0903405 -2.64243e-19)
(0.346886 0.107058 0)
(0.338093 0.120693 0)
(0.326294 0.129852 0)
(0.31072 0.133078 -6.62472e-19)
(0.291086 0.129213 0)
(0.267968 0.117803 3.93883e-19)
(0.242999 0.0992459 -8.79277e-19)
(0.21872 0.0747032 0)
(0.198024 0.0455796 0)
(0.183408 0.0135097 0)
(0.175016 -0.0206548 6.42884e-19)
(0.171611 -0.0535261 5.64876e-19)
(0.166864 -0.0750557 0)
(0.154279 -0.0762503 0)
(0.133621 -0.0596754 -7.64612e-19)
(0.105946 -0.0332691 -7.83328e-19)
(0.0713976 -0.00178141 8.61166e-19)
(0.0284465 0.0308029 0)
(-0.0313573 0.0607431 0)
(-0.1167 0.0956159 0)
(-0.222497 0.141661 0)
(-0.345266 0.19436 -4.28327e-19)
(-0.48 0.24891 -3.3709e-19)
(-0.619404 0.301827 2.74671e-19)
(-0.757207 0.347641 0)
(-0.888801 0.384298 0)
(-1.0106 0.411033 0)
(-1.12044 0.426587 0)
(-1.21783 0.431419 -1.48831e-19)
(-1.30235 0.426506 0)
(-1.37472 0.413096 0)
(-1.43633 0.392856 -1.23634e-19)
(-1.48939 0.367842 -1.16737e-19)
(-1.5361 0.34039 0)
(-1.57827 0.312355 2.17372e-19)
(-1.61722 0.284982 -1.0421e-19)
(-1.65402 0.259285 1.01102e-19)
(-1.68926 0.235778 0)
(-1.72335 0.214712 0)
(-1.75658 0.195975 0)
(-1.78914 0.179551 0)
(-1.82099 0.165332 8.96706e-20)
(-1.85207 0.152912 1.7595e-19)
(-1.8824 0.142078 8.62566e-20)
(-1.91197 0.132575 -8.47167e-20)
(-1.94073 0.124175 0)
(-1.96869 0.116684 1.63678e-19)
(-1.99582 0.109938 1.61031e-19)
(-2.02212 0.1038 1.58506e-19)
(-2.04756 0.0981583 -1.56091e-19)
(-2.07215 0.0929179 0)
(-2.09588 0.0880089 -2.27382e-19)
(-2.11872 0.0833678 0)
(-2.14069 0.0789528 7.35372e-20)
(-2.16176 0.0747211 7.26882e-20)
(-2.18192 0.0706497 0)
(-2.20118 0.0667085 0)
(-2.21953 0.0628867 1.3929e-19)
(-2.23695 0.059162 0)
(-2.25344 0.0555307 1.35494e-19)
(-2.269 0.0519755 0)
(-2.28362 0.0484957 -1.31763e-19)
(-2.29729 0.0450757 -2.5992e-19)
(-2.31002 0.0417155 0)
(-2.3218 0.0384031 0)
(-2.3326 0.0351391 0)
(-2.34243 0.0319237 -1.22479e-19)
(-2.35131 0.0287546 0)
(-2.35926 0.0256309 -1.18727e-19)
(-2.36625 0.0225522 0)
(-2.37228 0.0195226 0)
(-2.37734 0.0165465 2.25975e-19)
(-2.38144 0.0136267 0)
(-2.38458 0.0107705 1.09084e-19)
(-2.38678 0.00798402 0)
(-2.38804 0.00527858 1.05072e-19)
(-2.38834 0.00264733 0)
(-2.38763 5.70899e-05 0)
(-2.38587 -0.00251585 0)
(-2.38305 -0.00505584 2.89272e-19)
(-2.37916 -0.00755925 9.41071e-20)
(-2.37419 -0.0100219 0)
(-2.36814 -0.0124457 0)
(-2.361 -0.0148276 0)
(-2.35278 -0.0171693 0)
(-2.34347 -0.0194685 -8.25268e-20)
(-2.33308 -0.021726 1.60669e-19)
(-2.32159 -0.0239408 7.77127e-20)
(-2.30902 -0.026113 -1.50984e-19)
(-2.29536 -0.0282422 -1.46068e-19)
(-2.28061 -0.0303281 -7.03085e-20)
(-2.26477 -0.0323706 0)
(-2.24784 -0.0343687 -1.31037e-19)
(-2.22983 -0.0363228 0)
(-2.21073 -0.0382313 1.20783e-19)
(-2.19055 -0.0400951 5.74981e-20)
(-2.16929 -0.0419124 0)
(-2.14696 -0.0436842 -1.0505e-19)
(-2.12355 -0.0454088 -4.95283e-20)
(-2.09908 -0.0470868 0)
(-2.07354 -0.0487164 -4.4785e-20)
(-2.04694 -0.0502974 1.24714e-19)
(-2.01929 -0.0518283 0)
(-1.99061 -0.0533083 0)
(-1.96089 -0.0547362 0)
(-1.93016 -0.0561095 0)
(-1.89841 -0.0574247 5.50674e-20)
(-1.86566 -0.0586817 4.83888e-20)
(-1.83193 -0.0598842 0)
(-1.79725 -0.0610328 0)
(-1.76163 -0.0621257 0)
(-1.7251 -0.0631542 0)
(-1.68764 -0.0641156 0)
(-1.64928 -0.0650123 0)
(-1.61001 -0.0658603 5.5316e-21)
(-1.56988 -0.0666788 -9.84409e-22)
(-1.52896 -0.067454 0)
(-1.48726 -0.0681566 0)
(-1.44479 -0.068793 -1.93937e-20)
(-1.40156 -0.0693626 0)
(-1.3576 -0.0698719 3.38019e-20)
(-1.31293 -0.0703219 3.95285e-20)
(-1.26759 -0.0707178 0)
(-1.22159 -0.0710607 0)
(-1.17497 -0.071355 -6.1355e-20)
(-1.12775 -0.0716013 -1.3458e-19)
(-1.07996 -0.0718026 0)
(-1.03162 -0.0719578 0)
(-0.98276 -0.072066 0)
(-0.933398 -0.0721244 -9.71797e-20)
(-0.883562 -0.0721342 1.04524e-19)
(-0.833278 -0.0720972 0)
(-0.782571 -0.0720196 2.36444e-19)
(-0.731462 -0.071907 1.24561e-19)
(-0.679968 -0.0717675 -2.6658e-19)
(-0.628104 -0.0716074 0)
(-0.575877 -0.0714339 0)
(-0.523294 -0.071252 -3.12533e-19)
(-0.470355 -0.0710661 -1.65209e-19)
(-0.417059 -0.0708769 0)
(-0.363404 -0.0706837 0)
(-0.30939 -0.0704853 0)
(-0.255018 -0.0702831 0)
(-0.200284 -0.0700797 -4.06779e-19)
(-0.145185 -0.0698786 0)
(-0.0897141 -0.0696825 0)
(-0.0338632 -0.0694915 0)
(0.0223764 -0.0692996 0)
(0.079005 -0.0690884 0)
(0.136006 -0.068823 0)
(0.19333 -0.0684348 -4.88964e-19)
(0.250895 -0.067827 0)
(0.308491 -0.0668424 0)
(0.366118 -0.0652276 -1.01917e-18)
(0.422285 -0.0625016 5.15464e-19)
(0.480869 -0.0577326 -5.26692e-19)
(0.52707 -0.0459245 5.3773e-19)
(-0.00113726 0.0223461 0)
(0.00204096 0.0255083 5.06691e-18)
(0.0233326 -0.0155449 0)
(0.0700519 -0.0963754 8.78915e-19)
(0.129751 -0.182056 0)
(0.186585 -0.244897 0)
(0.231313 -0.276002 -3.2946e-19)
(0.262491 -0.279802 0)
(0.282739 -0.265358 0)
(0.295591 -0.240838 0)
(0.30391 -0.211687 0)
(0.309524 -0.180955 0)
(0.313426 -0.150185 8.20702e-19)
(0.316083 -0.120094 4.03452e-19)
(0.317666 -0.0909988 -4.00703e-19)
(0.318225 -0.0630431 0)
(0.317777 -0.0362895 0)
(0.316342 -0.0107803 0)
(0.31397 0.0134757 0)
(0.310757 0.036506 0)
(0.306846 0.0583457 4.33395e-19)
(0.302453 0.0789985 4.45151e-19)
(0.29778 0.098368 -4.61703e-19)
(0.292934 0.116138 4.84279e-19)
(0.287809 0.131675 0)
(0.282059 0.14396 0)
(0.275086 0.151568 5.87468e-19)
(0.266158 0.152829 0)
(0.25471 0.146214 0)
(0.240612 0.130674 7.58169e-19)
(0.224544 0.106054 8.46329e-19)
(0.207641 0.0733994 9.57934e-19)
(0.191265 0.0349223 0)
(0.174562 -0.00499677 0)
(0.150835 -0.0345641 -9.63117e-19)
(0.115662 -0.040923 0)
(0.0702472 -0.0249061 0)
(0.0158058 0.00724971 7.68819e-19)
(-0.0502136 0.049862 -7.05197e-19)
(-0.131794 0.10102 5.70401e-19)
(-0.227891 0.159118 0)
(-0.338055 0.220144 0)
(-0.459558 0.282212 6.16414e-19)
(-0.586678 0.344135 0)
(-0.713941 0.402888 4.38508e-19)
(-0.836331 0.453198 5.75329e-19)
(-0.948757 0.492135 -5.11977e-19)
(-1.04827 0.519598 3.08308e-19)
(-1.13412 0.535297 0)
(-1.20599 0.539849 0)
(-1.26495 0.534346 2.43297e-19)
(-1.31289 0.520222 1.13348e-19)
(-1.35187 0.499172 0)
(-1.38428 0.472937 0)
(-1.41244 0.443365 9.71117e-20)
(-1.43835 0.412256 1.87591e-19)
(-1.46342 0.381115 0)
(-1.48854 0.351068 -1.72622e-19)
(-1.5142 0.322823 1.67944e-19)
(-1.54056 0.296827 -1.62746e-19)
(-1.5676 0.273252 0)
(-1.59517 0.25209 0)
(-1.62312 0.233198 0)
(-1.65126 0.216431 0)
(-1.67938 0.201607 0)
(-1.70731 0.188458 -1.39946e-19)
(-1.73493 0.17676 0)
(-1.76212 0.166294 0)
(-1.78878 0.156857 0)
(-1.81486 0.148279 -2.59677e-19)