/*--------------------------------*- C++ -*----------------------------------*\
| =========                 |                                                 |
| \\      /  F ield         | OpenFOAM: The Open Source CFD Toolbox           |
|  \\    /   O peration     | Version:  v2012                                 |
|   \\  /    A nd           | Website:  www.openfoam.com                      |
|    \\/     M anipulation  |                                                 |
\*---------------------------------------------------------------------------*/
FoamFile
{
    version     2.0;
    format      ascii;
    class       volScalarField;
    location    "4500";
    object      nut;
}
// * * * * * * * * * * * * * * * * * * * * * * * * * * * * * * * * * * * * * //

dimensions      [0 2 -1 0 0 0 0];


internalField   nonuniform List<scalar> 
12225
(
0.0122671
0.00158819
0.000666128
0.000410104
0.00029404
0.000227808
0.000186418
0.000144347
0.000166362
0.000215706
0.000223836
0.000214195
0.000195169
0.000167531
0.000161399
0.000145528
0.00013232
0.000120132
0.0323823
0.00744532
0.00330638
0.00204329
0.00146802
0.00114429
0.00093866
0.000784865
0.00069038
0.00062689
0.000569545
0.000518712
0.000475211
0.000435565
0.000404972
0.000372248
0.000347115
0.000321094
0.0490123
0.01515
0.00728196
0.00457854
0.00330639
0.00258047
0.00211327
0.00178187
0.00154674
0.00137249
0.00123146
0.00111528
0.00101835
0.000936098
0.000866689
0.000804289
0.00075356
0.000700995
0.063054
0.0237783
0.0122894
0.00788814
0.00573397
0.00448496
0.0036744
0.00310418
0.00268715
0.00236995
0.0021179
0.00191314
0.001744
0.00160221
0.00148242
0.0013786
0.00129106
0.00120452
0.074932
0.0328517
0.0181452
0.0119262
0.00874549
0.00686412
0.00563086
0.00476129
0.00411867
0.0036257
0.00323514
0.00291874
0.00265799
0.00244004
0.00225596
0.00209832
0.00196334
0.00183979
0.0849536
0.0420208
0.0246655
0.0166359
0.0123325
0.00972587
0.0079954
0.0067674
0.00585402
0.00515003
0.00459189
0.00413982
0.00376742
0.00345634
0.00319351
0.00296906
0.00277612
0.00260656
0.0933822
0.0510219
0.0316642
0.0219415
0.016474
0.0130717
0.0107779
0.00913539
0.00790597
0.00695435
0.00619832
0.00558531
0.00508009
0.00465801
0.00430136
0.00399701
0.00373534
0.00350913
0.0993794
0.0583363
0.0378386
0.0268568
0.0204171
0.0163053
0.0134892
0.011453
0.00991905
0.0087267
0.00777696
0.00700569
0.00636942
0.00583762
0.00538815
0.00500468
0.00467515
0.00439182
0.104023
0.0645454
0.0433804
0.0314239
0.0241571
0.0194092
0.0161097
0.0137018
0.0118767
0.0104523
0.00931473
0.00838939
0.00762524
0.00698615
0.00644586
0.0059849
0.00558898
0.00524915
0.108368
0.0708939
0.0493757
0.0365496
0.0284517
0.0230231
0.0191863
0.0163548
0.0141927
0.0124969
0.0111382
0.0100305
0.00911456
0.00834784
0.00769936
0.00714607
0.00667097
0.00626327
0.112368
0.0772557
0.0557282
0.0421918
0.0332976
0.0271652
0.0227468
0.0194433
0.0168984
0.0148904
0.013275
0.0119546
0.0108606
0.00994396
0.00916815
0.00850607
0.00793759
0.00744939
0.115994
0.0834975
0.0623053
0.0482611
0.0386474
0.0318167
0.026789
0.0229739
0.0200047
0.0176452
0.0157379
0.0141737
0.012875
0.0117851
0.010862
0.0100738
0.0093969
0.00881484
0.119234
0.0894856
0.0689377
0.0546109
0.0443919
0.0369007
0.0312597
0.0269089
0.0234837
0.02074
0.0185097
0.0166735
0.015145
0.0138601
0.0127705
0.0118397
0.0110398
0.010351
0.122086
0.095084
0.075415
0.0610223
0.0503361
0.0422535
0.0360231
0.0311353
0.0272402
0.0240931
0.0215191
0.0193909
0.0176141
0.0161175
0.0148467
0.0137601
0.0128258
0.0120197
0.124546
0.100135
0.0814619
0.0671726
0.056158
0.047577
0.0408126
0.0354174
0.031066
0.0275197
0.0246013
0.0221778
0.0201482
0.018435
0.0169783
0.0157315
0.0146584
0.0137312
0.126578
0.104396
0.0866605
0.0725515
0.0613228
0.0523526
0.0451453
0.0393148
0.0345631
0.0306611
0.0274325
0.024741
0.0224806
0.020569
0.0189413
0.0175468
0.0163455
0.0153062
0.128011
0.107322
0.0902141
0.0762353
0.0648743
0.0556509
0.0481493
0.0420254
0.0370012
0.0328553
0.0294126
0.0265352
0.0241143
0.0220643
0.0203171
0.0188191
0.0175275
0.0164083
0.128006
0.107313
0.0902048
0.0762269
0.0648674
0.0556454
0.048145
0.0420221
0.0369988
0.0328537
0.0294117
0.0265349
0.0241147
0.0220651
0.0203184
0.0188205
0.0175286
0.0164082
0.126509
0.104255
0.0864922
0.0723807
0.0611613
0.052205
0.0450128
0.0391967
0.0344584
0.0305685
0.0273506
0.0246684
0.0224163
0.0205118
0.0188902
0.0175006
0.0163023
0.015263
0.124267
0.0995604
0.0807712
0.0664676
0.0554886
0.0469631
0.0402594
0.0349227
0.0306248
0.0271258
0.0242487
0.0218611
0.0198625
0.0181762
0.0167425
0.0155151
0.0144574
0.0135404
0.12136
0.0936399
0.0737261
0.0593348
0.0487592
0.0408248
0.0347467
0.0300003
0.0262308
0.0231928
0.0207127
0.018665
0.0169572
0.0155197
0.0142998
0.0132566
0.0123582
0.0115797
0.117686
0.0865903
0.0656967
0.0514791
0.0415374
0.0343608
0.0290183
0.0249322
0.0217348
0.0191848
0.0171184
0.0154211
0.0140105
0.0128262
0.0118228
0.0109656
0.0102279
0.00958885
0.11305
0.0784122
0.056921
0.0432687
0.0342296
0.0279652
0.0234365
0.0200435
0.0174263
0.0153598
0.0136966
0.012337
0.0112107
0.0102671
0.00946864
0.00878715
0.00820096
0.00769339
0.107169
0.0691009
0.0476371
0.035029
0.0271566
0.021922
0.0182437
0.0155401
0.0134818
0.0118707
0.0105819
0.00953231
0.00866515
0.00793988
0.00732684
0.00680388
0.00635416
0.00596493
0.0996761
0.0587036
0.0381279
0.0270699
0.0205782
0.0164329
0.0135949
0.0115437
0.00999934
0.00879952
0.00784422
0.00706852
0.00642881
0.00589439
0.00544291
0.00505787
0.00472675
0.00444031
0.0901097
0.0473665
0.0287363
0.0196847
0.0146976
0.0116311
0.0095785
0.0081152
0.0070235
0.0061808
0.00551234
0.00497024
0.00452345
0.00415038
0.00383513
0.00356622
0.00333474
0.00313472
0.0779076
0.0353826
0.0198606
0.0131383
0.00966105
0.00759295
0.00623349
0.0052741
0.00456424
0.00402037
0.00359042
0.00324081
0.00295212
0.00271091
0.00250654
0.00233205
0.00218113
0.00205119
0.06238
0.0232554
0.0119461
0.00765493
0.00556337
0.00435253
0.0035672
0.00301615
0.00261331
0.00231034
0.00207203
0.00187469
0.00171026
0.00157256
0.00145421
0.00135337
0.00126409
0.00118801
0.0426105
0.0117794
0.0054693
0.00341385
0.0024607
0.00192004
0.00157265
0.00132942
0.00115829
0.00104123
0.000949553
0.000865024
0.000791963
0.000730593
0.000670291
0.000626278
0.000581724
0.00054194
0.0168348
0.00255985
0.00110002
0.000683429
0.000493725
0.00038681
0.000318008
0.000268389
0.000267493
0.00033608
0.000374586
0.000354286
0.000319516
0.000292539
0.000240355
0.000284131
0.000266846
0.000218858
5.28779e-10
1.01547e-07
1.14783e-06
5.16866e-06
9.8616e-06
1.28034e-05
1.31249e-05
1.11697e-05
8.84787e-06
5.76824e-06
3.39693e-06
1.93919e-06
1.35835e-06
1.47269e-06
2.01009e-06
2.47884e-06
2.41134e-06
1.63429e-06
7.31228e-07
3.70848e-07
4.11537e-07
1.2207e-06
5.52061e-06
2.83994e-05
5.71826e-05
7.50057e-05
9.13936e-05
0.000105188
0.000117327
0.000127441
0.000136299
0.000143912
0.000150573
0.000156374
0.000161437
0.000165906
0.000169867
0.000173406
0.000176579
0.00017943
0.000181988
0.000184275
0.00018631
0.000188109
0.000189685
0.000191052
0.00019222
0.000193196
0.000193977
0.00019456
0.000194822
0.000195072
0.00019512
0.000194992
0.000194692
0.000194245
0.000193645
0.000192897
0.000192002
0.000190963
0.00018978
0.000188458
0.000186997
0.0001854
0.00018367
0.000181809
0.000179818
0.000177699
0.000175456
0.000173089
0.000170602
0.000167996
0.000165274
0.000162435
0.000159483
0.000156418
0.00015324
0.000149951
0.000146549
0.000143034
0.000139402
0.000135651
0.000131773
0.000127762
0.000123608
0.000119301
0.000114829
0.000110179
0.000105333
0.000100268
9.49575e-05
8.93741e-05
8.35113e-05
7.74372e-05
7.1432e-05
6.61718e-05
6.24445e-05
6.01215e-05
5.83742e-05
5.67694e-05
5.51934e-05
5.3625e-05
5.20629e-05
5.05086e-05
4.8964e-05
4.74312e-05
4.59128e-05
4.44151e-05
4.29667e-05
4.17344e-05
4.053e-05
3.93404e-05
3.81681e-05
3.70137e-05
3.5878e-05
3.4762e-05
3.36663e-05
3.25917e-05
3.15388e-05
3.05081e-05
2.94998e-05
2.85146e-05
2.75529e-05
2.66153e-05
2.57018e-05
2.48122e-05
2.39477e-05
2.31385e-05
2.24046e-05
2.16893e-05
2.09888e-05
2.03118e-05
1.96628e-05
1.90278e-05
1.8407e-05
1.78034e-05
1.72178e-05
1.66504e-05
1.6101e-05
1.55693e-05
1.50549e-05
1.45574e-05
1.40762e-05
1.36111e-05
1.31614e-05
1.2727e-05
1.23071e-05
1.19016e-05
1.151e-05
1.1132e-05
1.07672e-05
1.04153e-05
1.00759e-05
9.74885e-06
9.43363e-06
9.13007e-06
8.83782e-06
8.5567e-06
8.28644e-06
8.02687e-06
7.77777e-06
7.53898e-06
7.31034e-06
7.09165e-06
6.88272e-06
6.68329e-06
6.49305e-06
6.31154e-06
6.13825e-06
5.97241e-06
5.81309e-06
5.65923e-06
5.50872e-06
5.36148e-06
5.20813e-06
5.06435e-06
4.86111e-06
4.71915e-06
4.30507e-06
3.68191e-06
3.34203e-09
6.03685e-06
6.15626e-05
0.00013785
0.000181888
0.000206001
0.000215524
0.000214024
0.000205549
0.000188721
0.000167812
0.000147706
0.000137587
0.000143059
0.000156897
0.000165305
0.000167413
0.000168284
0.000173766
0.000183534
0.000199764
0.000218065
0.000235166
0.00025114
0.000262454
0.00027224
0.000281086
0.000294267
0.000313158
0.000327062
0.000339736
0.000350621
0.000360523
0.000369578
0.000377453
0.000384644
0.000391344
0.000397775
0.000404066
0.000410282
0.000416418
0.000422429
0.000428265
0.000433884
0.000439257
0.00044437
0.000449205
0.000453752
0.00045801
0.000461988
0.000465693
0.000469147
0.000472339
0.00047528
0.00047797
0.00048041
0.000482602
0.000484546
0.000486243
0.000487693
0.000488896
0.000489854
0.000490569
0.000491045
0.000491292
0.000491316
0.000491111
0.000490673
0.00049002
0.000489153
0.00048808
0.000486807
0.000485341
0.000483688
0.000481856
0.000479852
0.000477683
0.000475357
0.000472883
0.000470266
0.000467515
0.000464638
0.000461642
0.000458536
0.000455326
0.000452021
0.000448629
0.00044516
0.000441622
0.000438022
0.000434369
0.000430666
0.000426913
0.000423102
0.000419213
0.000415221
0.00041111
0.000406909
0.000402668
0.000398411
0.000394146
0.000389876
0.000385606
0.000381339
0.000377077
0.000372825
0.000368586
0.00036436
0.00036015
0.000355951
0.000351776
0.000347628
0.000343509
0.000339422
0.000335367
0.000331347
0.000327363
0.000323417
0.00031951
0.000315643
0.000311816
0.000308032
0.00030429
0.000300593
0.00029694
0.000293333
0.000289769
0.000286249
0.000282771
0.000279337
0.000275947
0.000272608
0.000269321
0.000266072
0.000262858
0.000259686
0.000256558
0.000253475
0.000250437
0.000247444
0.000244495
0.00024159
0.000238728
0.000235909
0.000233131
0.000230394
0.000227698
0.000225041
0.000222424
0.000219846
0.000217306
0.000214806
0.000212345
0.000209922
0.000207538
0.000205192
0.000202886
0.00020062
0.000198395
0.000196211
0.000194071
0.000191976
0.000189928
0.000187929
0.00018598
0.000184083
0.000182239
0.000180449
0.000178712
0.000177025
0.000175386
0.000173791
0.000172222
0.000170709
0.000169117
0.000167776
0.000165728
0.000165139
0.000162079
0.000160603
7.63265e-08
3.98446e-05
0.000162902
0.000245618
0.000298881
0.000329074
0.00033996
0.000336944
0.000323948
0.000304605
0.000284905
0.000272507
0.000270556
0.000277531
0.000288073
0.000299113
0.000312178
0.000329345
0.000350998
0.000376361
0.000403791
0.000432006
0.000471298
0.000517474
0.000563071
0.000607147
0.000650204
0.00069385
0.00073291
0.000763982
0.000788816
0.000808508
0.000824123
0.000836517
0.000846471
0.000854756
0.000862069
0.00086905
0.000876232
0.000883968
0.00089236
0.000901283
0.000910499
0.000919771
0.000928924
0.000937838
0.000946437
0.000954674
0.000962512
0.000969924
0.000976883
0.000983368
0.000989369
0.000994882
0.000999904
0.00100443
0.00100847
0.00101202
0.00101507
0.00101763
0.0010197
0.00102127
0.00102236
0.0010229
0.00102305
0.00102277
0.00102197
0.00102073
0.00101904
0.00101692
0.00101438
0.00101143
0.0010081
0.00100438
0.0010003
0.000995864
0.000991095
0.000986006
0.000980611
0.000974926
0.000968965
0.000962743
0.000956276
0.000949579
0.000942666
0.000935553
0.000928254
0.000920783
0.000913156
0.000905384
0.00089748
0.000889455
0.000881319
0.000873079
0.000864743
0.000856322
0.000847827
0.000839276
0.000830683
0.000822062
0.000813425
0.00080478
0.000796134
0.000787496
0.000778873
0.000770271
0.000761697
0.000753158
0.000744658
0.000736203
0.0007278
0.000719452
0.000711165
0.000702944
0.00069479
0.000686709
0.000678702
0.000670773
0.000662925
0.00065516
0.000647479
0.000639885
0.00063238
0.000624965
0.000617642
0.00061041
0.000603271
0.000596226
0.000589274
0.000582416
0.000575652
0.000568984
0.000562409
0.000555921
0.00054952
0.000543209
0.000536988
0.000530859
0.000524821
0.000518875
0.000513019
0.000507252
0.000501574
0.000495982
0.000490477
0.000485056
0.000479717
0.000474461
0.000469286
0.00046419
0.000459174
0.000454235
0.000449374
0.000444588
0.000439877
0.000435239
0.000430674
0.00042618
0.000421757
0.000417402
0.000413115
0.000408893
0.000404736
0.000400641
0.000396605
0.000392626
0.000388698
0.000384817
0.000380977
0.000377167
0.000373377
0.000369591
0.000365784
0.000361945
0.000357976
0.000353971
0.000349436
0.000345186
0.000338631
0.000326918
6.16237e-07
8.21607e-05
0.000213018
0.000308835
0.000372266
0.000409344
0.000424629
0.000424844
0.000414747
0.000401421
0.00039359
0.000393024
0.000402623
0.000420119
0.00044311
0.000471095
0.000504657
0.000544067
0.00058849
0.000652307
0.000726413
0.000806371
0.000890242
0.000960501
0.00102266
0.00107856
0.00112877
0.00117348
0.00121256
0.00124629
0.0012754
0.00130064
0.00132268
0.00134217
0.00135967
0.00137567
0.00139057
0.00140473
0.00141838
0.00143173
0.0014449
0.00145795
0.00147091
0.00148376
0.00149645
0.00150891
0.00152103
0.00153273
0.00154392
0.00155451
0.00156446
0.00157373
0.0015823
0.00159016
0.0015973
0.0016037
0.00160937
0.00161431
0.0016185
0.00162196
0.00162468
0.00162666
0.00162781
0.00162825
0.00162812
0.00162721
0.00162558
0.00162325
0.00162025
0.00161659
0.00161229
0.00160737
0.00160185
0.00159575
0.00158908
0.00158189
0.00157418
0.00156598
0.00155731
0.0015482
0.00153867
0.00152874
0.00151843
0.00150778
0.00149679
0.0014855
0.00147392
0.00146208
0.00145
0.0014377
0.0014252
0.00141251
0.00139966
0.00138666
0.00137353
0.00136028
0.00134692
0.00133349
0.00132
0.00130647
0.00129291
0.00127933
0.00126576
0.0012522
0.00123866
0.00122516
0.00121171
0.0011983
0.00118496
0.0011717
0.00115851
0.00114541
0.0011324
0.0011195
0.0011067
0.00109401
0.00108144
0.00106899
0.00105667
0.00104447
0.00103241
0.00102048
0.00100869
0.000997037
0.000985527
0.000974158
0.000962934
0.000951854
0.000940919
0.000930131
0.000919489
0.000908994
0.000898641
0.000888428
0.000878354
0.000868419
0.000858625
0.000848972
0.00083946
0.000830089
0.000820857
0.000811763
0.000802806
0.000793982
0.000785292
0.000776732
0.000768301
0.000759997
0.000751818
0.000743763
0.000735829
0.000728017
0.000720322
0.000712744
0.000705281
0.000697931
0.000690693
0.000683563
0.00067654
0.000669623
0.000662808
0.000656093
0.000649475
0.000642951
0.000636517
0.000630167
0.000623895
0.000617695
0.000611556
0.000605465
0.000599407
0.000593361
0.000587295
0.000581176
0.000574929
0.000568531
0.000561699
0.000554698
0.000546242
0.000529987
1.39963e-06
0.000101868
0.000234936
0.000354665
0.000433286
0.000480502
0.000503932
0.000512335
0.000513969
0.000515196
0.000522451
0.000539028
0.0005655
0.000600873
0.000644383
0.000696071
0.000756744
0.000840652
0.000936735
0.00103248
0.00112125
0.00120541
0.00128448
0.00135693
0.00142346
0.00148467
0.00154096
0.00159265
0.00164011
0.00168375
0.00172408
0.00176157
0.00179664
0.00182966
0.00186096
0.00189077
0.00191928
0.00194665
0.00197296
0.00199827
0.00202262
0.00204602
0.00206845
0.00208991
0.00211037
0.00212979
0.00214816
0.00216543
0.00218158
0.0021966
0.00221047
0.00222319
0.00223478
0.00224525
0.00225462
0.0022629
0.00227011
0.00227627
0.0022814
0.0022855
0.00228859
0.00229064
0.00229155
0.00229164
0.00229076
0.00228888
0.00228604
0.00228227
0.00227758
0.00227199
0.00226554
0.00225825
0.00225015
0.00224127
0.00223163
0.00222128
0.00221023
0.00219852
0.00218619
0.00217326
0.00215976
0.00214572
0.00213118
0.00211617
0.00210072
0.00208485
0.0020686
0.002052
0.00203508
0.00201786
0.00200037
0.00198265
0.0019647
0.00194656
0.00192825
0.0019098
0.00189122
0.00187253
0.00185378
0.00183496
0.00181612
0.00179726
0.0017784
0.00175957
0.00174076
0.00172201
0.00170333
0.00168472
0.00166619
0.00164777
0.00162946
0.00161128
0.00159322
0.0015753
0.00155753
0.00153991
0.00152245
0.00150516
0.00148805
0.0014711
0.00145434
0.00143777
0.00142138
0.00140518
0.00138918
0.00137337
0.00135776
0.00134235
0.00132713
0.00131212
0.0012973
0.00128269
0.00126827
0.00125404
0.00124001
0.00122616
0.00121252
0.00119906
0.00118579
0.00117272
0.00115984
0.00114714
0.00113463
0.0011223
0.00111015
0.00109819
0.00108639
0.00107477
0.00106332
0.00105204
0.00104092
0.00102997
0.00101918
0.00100854
0.000998061
0.000987735
0.000977559
0.00096753
0.000957646
0.000947904
0.000938301
0.000928832
0.000919495
0.000910285
0.000901196
0.000892222
0.000883356
0.000874589
0.000865909
0.000857301
0.000848746
0.000840219
0.000831685
0.000823102
0.0008144
0.000805518
0.000796251
0.000786636
0.000776468
0.000756692
2.32593e-06
0.000118228
0.000256264
0.000389877
0.00048669
0.000548391
0.000586141
0.000609631
0.000627568
0.000647209
0.000673756
0.000709796
0.00075603
0.000812727
0.000880434
0.000971359
0.00107677
0.00117842
0.00127751
0.00137277
0.00146325
0.00154903
0.00163005
0.00170631
0.00177809
0.00184574
0.00190961
0.00197002
0.00202732
0.00208182
0.00213386
0.00218371
0.00223163
0.00227782
0.00232244
0.00236561
0.00240742
0.00244793
0.00248716
0.00252513
0.00256182
0.00259722
0.00263129
0.00266401
0.00269534
0.00272524
0.00275366
0.00278056
0.00280591
0.00282967
0.00285183
0.00287234
0.00289121
0.00290841
0.00292394
0.00293781
0.00295001
0.00296055
0.00296944
0.0029767
0.00298236
0.00298644
0.00298886
0.00298976
0.00298929
0.00298732
0.00298398
0.00297927
0.00297326
0.00296601
0.00295756
0.00294796
0.00293727
0.00292554
0.00291282
0.00289915
0.00288458
0.00286916
0.00285294
0.00283594
0.00281823
0.00279983
0.00278079
0.00276116
0.00274096
0.00272025
0.00269906
0.00267743
0.00265539
0.00263299
0.00261026
0.00258723
0.00256393
0.0025404
0.00251666
0.00249275
0.00246869
0.00244452
0.00242026
0.00239593
0.00237157
0.0023472
0.00232283
0.0022985
0.00227421
0.00225
0.00222587
0.00220184
0.00217792
0.00215414
0.00213051
0.00210703
0.00208371
0.00206058
0.00203764
0.00201489
0.00199235
0.00197003
0.00194792
0.00192604
0.00190439
0.00188298
0.0018618
0.00184087
0.00182019
0.00179975
0.00177956
0.00175963
0.00173994
0.00172051
0.00170134
0.00168241
0.00166374
0.00164531
0.00162713
0.00160919
0.0015915
0.00157405
0.00155685
0.00153988
0.00152316
0.00150667
0.00149042
0.00147439
0.0014586
0.00144303
0.00142768
0.00141254
0.00139763
0.00138292
0.00136843
0.00135414
0.00134005
0.00132616
0.00131246
0.00129896
0.00128565
0.00127252
0.00125958
0.00124681
0.00123422
0.00122179
0.00120953
0.00119744
0.00118549
0.0011737
0.00116204
0.00115051
0.0011391
0.00112778
0.00111655
0.00110536
0.00109419
0.00108299
0.00107169
0.00106022
0.0010484
0.00103624
0.00102395
0.00100151
2.79454e-06
0.000126788
0.000269171
0.000407473
0.000526053
0.000607449
0.000663622
0.000705732
0.000743023
0.000782738
0.000829894
0.000887394
0.000956963
0.00104973
0.00115702
0.00126365
0.00136972
0.00147297
0.00157289
0.00166906
0.00176126
0.00184951
0.0019339
0.00201459
0.00209183
0.00216588
0.00223704
0.00230555
0.00237168
0.00243567
0.00249771
0.00255799
0.00261666
0.00267383
0.00272959
0.00278399
0.00283707
0.00288883
0.00293928
0.00298839
0.00303613
0.00308247
0.00312736
0.00317075
0.00321259
0.00325283
0.00329141
0.00332829
0.0033634
0.00339671
0.00342818
0.00345775
0.0034854
0.0035111
0.00353482
0.00355654
0.00357625
0.00359393
0.00360958
0.00362321
0.0036348
0.00364439
0.00365196
0.00365758
0.00366123
0.00366285
0.00366276
0.00366077
0.003657
0.00365148
0.00364427
0.00363542
0.00362501
0.00361307
0.00359969
0.00358492
0.00356883
0.00355148
0.00353295
0.00351329
0.00349259
0.0034709
0.00344829
0.00342483
0.00340058
0.0033756
0.00334995
0.00332369
0.00329688
0.00326958
0.00324182
0.00321366
0.00318516
0.00315634
0.00312726
0.00309794
0.00306845
0.00303879
0.00300903
0.00297918
0.00294928
0.00291936
0.00288944
0.00285956
0.00282974
0.0028
0.00277036
0.00274084
0.00271146
0.00268224
0.0026532
0.00262435
0.0025957
0.00256727
0.00253906
0.0025111
0.00248338
0.00245592
0.00242873
0.00240181
0.00237517
0.00234881
0.00232275
0.00229697
0.0022715
0.00224632
0.00222144
0.00219687
0.0021726
0.00214864
0.00212498
0.00210162
0.00207857
0.00205582
0.00203336
0.0020112
0.00198933
0.00196775
0.00194647
0.00192548
0.00190478
0.00188436
0.00186422
0.00184435
0.00182476
0.00180544
0.00178639
0.0017676
0.00174906
0.00173079
0.00171276
0.00169498
0.00167744
0.00166014
0.00164307
0.00162624
0.00160964
0.00159325
0.00157709
0.00156114
0.0015454
0.00152987
0.00151454
0.0014994
0.00148445
0.00146968
0.00145508
0.00144064
0.00142635
0.00141219
0.00139813
0.00138415
0.00137021
0.00135626
0.00134224
0.00132807
0.00131359
0.00129886
0.00128381
0.00125957
2.93957e-06
0.000128668
0.000270496
0.000406982
0.000537583
0.00064116
0.000718464
0.000780059
0.000836124
0.000894373
0.00096282
0.00105545
0.00116562
0.00128715
0.00140266
0.00151385
0.00162159
0.00172604
0.00182715
0.00192487
0.00201921
0.00211025
0.00219816
0.00228312
0.00236534
0.00244505
0.00252248
0.00259783
0.0026713
0.00274306
0.00281324
0.00288197
0.00294934
0.00301541
0.00308022
0.00314379
0.00320612
0.0032672
0.00332699
0.00338545
0.00344255
0.00349821
0.00355239
0.00360502
0.00365604
0.00370538
0.00375297
0.00379875
0.00384266
0.00388464
0.00392464
0.0039626
0.00399848
0.00403223
0.00406382
0.00409321
0.00412039
0.00414532
0.00416799
0.00418839
0.00420651
0.00422236
0.00423595
0.00424727
0.00425636
0.00426323
0.00426795
0.0042704
0.00427084
0.00426919
0.00426552
0.00425988
0.00425231
0.00424288
0.00423165
0.00421867
0.00420402
0.00418776
0.00416997
0.0041507
0.00413003
0.00410804
0.00408479
0.00406036
0.00403482
0.00400824
0.00398069
0.00395225
0.00392298
0.00389294
0.00386221
0.00383085
0.00379892
0.00376647
0.00373358
0.00370028
0.00366664
0.0036327
0.00359852
0.00356415
0.00352962
0.00349498
0.00346028
0.00342555
0.00339081
0.00335612
0.00332149
0.00328695
0.00325254
0.00321827
0.00318417
0.00315026
0.00311656
0.00308308
0.00304985
0.00301687
0.00298417
0.00295174
0.00291961
0.00288778
0.00285627
0.00282507
0.0027942
0.00276365
0.00273345
0.00270358
0.00267406
0.00264488
0.00261605
0.00258757
0.00255943
0.00253165
0.00250421
0.00247711
0.00245036
0.00242395
0.00239788
0.00237214
0.00234675
0.00232168
0.00229695
0.00227255
0.00224847
0.00222471
0.00220127
0.00217814
0.00215532
0.0021328
0.00211059
0.00208867
0.00206704
0.00204569
0.00202463
0.00200385
0.00198334
0.0019631
0.00194313
0.00192342
0.00190396
0.00188476
0.0018658
0.00184708
0.0018286
0.00181035
0.00179232
0.00177451
0.0017569
0.00173948
0.00172224
0.00170515
0.00168821
0.00167136
0.00165459
0.00163783
0.00162102
0.00160409
0.0015869
0.0015695
0.00155155
0.00152542
2.75537e-06
0.00012516
0.000263802
0.000395335
0.000519868
0.000632144
0.000726082
0.000807575
0.000891509
0.000987446
0.00109727
0.0012224
0.00135889
0.0014863
0.00160651
0.00172143
0.00183205
0.0019387
0.00204172
0.00214147
0.00223816
0.002332
0.00242318
0.00251193
0.00259843
0.0026829
0.00276553
0.00284649
0.00292592
0.00300397
0.00308074
0.0031563
0.00323072
0.00330402
0.00337622
0.0034473
0.00351726
0.00358605
0.00365362
0.00371991
0.00378487
0.00384842
0.00391048
0.00397098
0.00402984
0.00408698
0.00414233
0.00419581
0.00424735
0.00429687
0.00434432
0.00438963
0.00443274
0.00447361
0.00451218
0.00454843
0.0045823
0.00461378
0.00464284
0.00466947
0.00469364
0.00471537
0.00473464
0.00475148
0.00476588
0.00477787
0.00478747
0.00479471
0.00479964
0.0048022
0.00480259
0.00480077
0.00479681
0.00479075
0.00478264
0.00477256
0.00476056
0.0047467
0.00473106
0.0047137
0.00469469
0.00467411
0.00465201
0.00462849
0.0046036
0.00457743
0.00455004
0.00452152
0.00449192
0.00446132
0.0044298
0.00439742
0.00436424
0.00433033
0.00429576
0.0042606
0.00422489
0.0041887
0.0041521
0.00411512
0.00407784
0.0040403
0.00400254
0.00396462
0.00392658
0.00388847
0.00385031
0.00381215
0.00377402
0.00373596
0.003698
0.00366016
0.00362247
0.00358496
0.00354765
0.00351056
0.00347371
0.00343712
0.0034008
0.00336477
0.00332904
0.00329363
0.00325854
0.00322378
0.00318937
0.0031553
0.00312159
0.00308824
0.00305525
0.00302263
0.00299038
0.00295851
0.002927
0.00289586
0.0028651
0.00283471
0.00280468
0.00277503
0.00274574
0.00271682
0.00268826
0.00266006
0.00263222
0.00260474
0.0025776
0.00255081
0.00252437
0.00249826
0.00247249
0.00244704
0.00242193
0.00239713
0.00237265
0.00234849
0.00232463
0.00230108
0.00227783
0.00225487
0.0022322
0.00220982
0.00218771
0.00216589
0.00214433
0.00212303
0.00210199
0.00208119
0.00206063
0.00204029
0.00202015
0.00200021
0.00198042
0.00196077
0.0019412
0.00192168
0.00190213
0.00188248
0.00186259
0.00184254
0.00182178
0.00179345
2.3391e-06
0.000117868
0.000252634
0.000380648
0.000503524
0.000620029
0.000731023
0.000840511
0.000955921
0.00108229
0.00122079
0.00137085
0.00151306
0.00164493
0.00176909
0.00188742
0.00200104
0.00211058
0.00221644
0.00231881
0.0024181
0.00251469
0.00260888
0.00270094
0.00279107
0.0028795
0.00296641
0.00305194
0.00313624
0.0032194
0.00330153
0.00338266
0.00346285
0.00354209
0.00362039
0.00369771
0.00377402
0.00384926
0.00392337
0.00399627
0.00406788
0.00413813
0.00420691
0.00427415
0.00433974
0.0044036
0.00446563
0.00452577
0.00458391
0.00463997
0.0046939
0.00474561
0.00479504
0.00484213
0.00488683
0.0049291
0.00496888
0.00500615
0.00504088
0.00507305
0.00510265
0.00512965
0.00515407
0.00517591
0.00519517
0.00521187
0.00522604
0.00523769
0.00524687
0.00525359
0.00525791
0.00525984
0.0052595
0.00525689
0.00525208
0.00524511
0.00523606
0.00522498
0.00521194
0.005197
0.00518024
0.00516172
0.00514151
0.0051197
0.00509634
0.00507151
0.00504529
0.00501774
0.00498895
0.00495897
0.00492789
0.00489576
0.00486267
0.00482868
0.00479385
0.00475824
0.00472194
0.00468499
0.00464745
0.0046094
0.00457088
0.00453196
0.00449268
0.0044531
0.00441326
0.00437322
0.00433302
0.0042927
0.0042523
0.00421186
0.00417141
0.004131
0.00409065
0.0040504
0.00401027
0.00397029
0.00393049
0.00389088
0.00385149
0.00381234
0.00377345
0.00373483
0.0036965
0.00365847
0.00362075
0.00358336
0.0035463
0.00350959
0.00347323
0.00343722
0.00340158
0.00336631
0.0033314
0.00329687
0.00326271
0.00322893
0.00319552
0.0031625
0.00312985
0.00309758
0.00306568
0.00303416
0.00300301
0.00297224
0.00294183
0.00291179
0.00288211
0.00285279
0.00282382
0.00279521
0.00276695
0.00273903
0.00271145
0.00268421
0.00265731
0.00263073
0.00260447
0.00257854
0.00255292
0.00252761
0.00250261
0.00247791
0.00245351
0.00242939
0.00240555
0.00238199
0.00235869
0.00233563
0.00231281
0.0022902
0.00226777
0.00224549
0.00222333
0.00220123
0.00217911
0.00215692
0.00213452
0.00211194
0.00208864
0.00205798
1.92446e-06
0.000110212
0.000242404
0.000369699
0.000495434
0.000619938
0.000745128
0.00087488
0.00101264
0.00116036
0.0013182
0.00147983
0.00162746
0.00176378
0.00189177
0.00201343
0.00213003
0.00224237
0.002351
0.00245631
0.0025586
0.00265806
0.00275513
0.00285017
0.00294347
0.00303526
0.00312573
0.00321506
0.00330337
0.00339077
0.00347732
0.00356307
0.00364805
0.00373225
0.00381565
0.00389821
0.00397988
0.00406058
0.00414024
0.00421877
0.00429608
0.00437207
0.00444663
0.00451967
0.00459107
0.00466075
0.00472859
0.0047945
0.00485839
0.00492017
0.00497976
0.00503707
0.00509204
0.00514461
0.0051947
0.00524228
0.00528729
0.0053297
0.00536947
0.00540659
0.00544102
0.00547277
0.00550182
0.00552818
0.00555185
0.00557286
0.00559121
0.00560693
0.00562005
0.00563061
0.00563863
0.00564418
0.00564729
0.00564801
0.00564641
0.00564253
0.00563644
0.00562819
0.00561785
0.00560549
0.00559117
0.00557495
0.00555692
0.00553714
0.00551568
0.00549263
0.00546804
0.00544199
0.00541455
0.0053858
0.00535581
0.00532464
0.00529236
0.00525905
0.00522477
0.00518958
0.00515355
0.00511675
0.00507923
0.00504107
0.00500231
0.00496302
0.00492325
0.00488306
0.0048425
0.00480162
0.00476046
0.00471908
0.00467751
0.00463579
0.00459398
0.0045521
0.0045102
0.0044683
0.00442644
0.00438465
0.00434296
0.00430139
0.00425997
0.00421873
0.00417768
0.00413685
0.00409625
0.0040559
0.00401583
0.00397603
0.00393653
0.00389733
0.00385846
0.00381991
0.00378169
0.00374382
0.0037063
0.00366913
0.00363232
0.00359587
0.00355978
0.00352407
0.00348872
0.00345375
0.00341914
0.00338491
0.00335106
0.00331757
0.00328445
0.00325171
0.00321933
0.00318731
0.00315566
0.00312437
0.00309344
0.00306286
0.00303263
0.00300275
0.00297322
0.00294403
0.00291518
0.00288666
0.00285848
0.00283062
0.00280308
0.00277587
0.00274896
0.00272236
0.00269607
0.00267006
0.00264433
0.00261887
0.00259366
0.00256868
0.0025439
0.0025193
0.00249482
0.00247043
0.00244604
0.00242159
0.00239697
0.00237217
0.00234666
0.00231385
1.53456e-06
0.000102067
0.00023195
0.000358926
0.000487635
0.00061902
0.00075574
0.000899713
0.00105261
0.00121494
0.00138723
0.00155301
0.00170462
0.0018448
0.00197629
0.00210107
0.00222047
0.00233543
0.0024466
0.00255449
0.00265948
0.00276186
0.00286192
0.00295984
0.00305604
0.00315082
0.00324441
0.00333701
0.00342874
0.00351973
0.00361004
0.00369971
0.00378876
0.00387718
0.00396493
0.00405197
0.00413823
0.00422362
0.00430805
0.00439144
0.00447366
0.00455461
0.00463418
0.00471224
0.0047887
0.00486343
0.00493633
0.00500729
0.0050762
0.00514298
0.00520753
0.00526977
0.00532962
0.00538701
0.00544187
0.00549416
0.00554381
0.00559079
0.00563507
0.00567661
0.00571539
0.00575141
0.00578464
0.00581511
0.0058428
0.00586774
0.00588993
0.00590941
0.0059262
0.00594034
0.00595185
0.00596079
0.0059672
0.00597112
0.00597261
0.00597174
0.00596858
0.00596315
0.00595553
0.00594578
0.00593397
0.00592017
0.00590445
0.00588688
0.00586752
0.00584647
0.00582377
0.00579952
0.00577377
0.00574661
0.00571809
0.00568829
0.00565728
0.00562512
0.00559189
0.00555764
0.00552245
0.00548638
0.00544949
0.00541185
0.00537351
0.00533454
0.00529499
0.00525491
0.00521436
0.00517339
0.00513205
0.00509039
0.00504844
0.00500627
0.0049639
0.00492138
0.00487875
0.00483604
0.00479329
0.00475053