/*--------------------------------*- C++ -*----------------------------------*\
| =========                 |                                                 |
| \\      /  F ield         | OpenFOAM: The Open Source CFD Toolbox           |
|  \\    /   O peration     | Version:  v2012                                 |
|   \\  /    A nd           | Website:  www.openfoam.com                      |
|    \\/     M anipulation  |                                                 |
\*---------------------------------------------------------------------------*/
FoamFile
{
    version     2.0;
    format      ascii;
    class       volScalarField;
    location    "4500";
    object      p;
}
// * * * * * * * * * * * * * * * * * * * * * * * * * * * * * * * * * * * * * //

dimensions      [0 2 -2 0 0 0 0];


internalField   nonuniform List<scalar> 
12225
(
514.683
55.5351
2.37112
0.289551
-1.89031
-3.36585
-3.80669
-4.00916
-4.21697
-4.36659
-4.40914
-4.40986
-4.41073
-4.4404
-4.49427
-4.56818
-4.72379
-4.93851
-122.172
0.245832
-2.71116
-0.757297
-2.20808
-3.51638
-3.94278
-4.12854
-4.26656
-4.35781
-4.42939
-4.49027
-4.54636
-4.58592
-4.61671
-4.64914
-4.72515
-4.84855
-200.639
-16.1416
-2.33925
-0.350604
-1.89252
-3.23613
-3.76137
-4.01549
-4.18708
-4.30333
-4.39698
-4.46674
-4.51743
-4.54604
-4.56686
-4.58628
-4.62488
-4.62197
-110.61
-10.9673
-2.17006
-0.424437
-1.77959
-3.02012
-3.59097
-3.90241
-4.11525
-4.26001
-4.36364
-4.43407
-4.48174
-4.51077
-4.53062
-4.5408
-4.54313
-4.47792
-61.5664
-8.13921
-3.61563
-1.20257
-2.00727
-2.98981
-3.51982
-3.84368
-4.07094
-4.22683
-4.33525
-4.40903
-4.459
-4.48987
-4.50642
-4.50528
-4.48036
-4.39058
-45.7244
-8.77876
-5.25197
-2.19311
-2.42225
-3.09292
-3.52819
-3.82873
-4.04881
-4.20421
-4.31413
-4.3905
-4.44207
-4.47273
-4.48492
-4.47489
-4.43495
-4.33972
-35.7884
-9.27012
-6.3739
-3.11776
-2.91456
-3.28231
-3.59648
-3.85034
-4.04902
-4.19582
-4.30284
-4.3787
-4.42985
-4.45937
-4.46852
-4.45405
-4.40962
-4.32133
-27.772
-8.90106
-6.96758
-3.79632
-3.35504
-3.49172
-3.69425
-3.89613
-4.06806
-4.20183
-4.30266
-4.37569
-4.42542
-4.45412
-4.4625
-4.44808
-4.40642
-4.33043
-21.6841
-8.51417
-7.12851
-4.30452
-3.72279
-3.69996
-3.81083
-3.96104
-4.10328
-4.22085
-4.31293
-4.38145
-4.42895
-4.45686
-4.46554
-4.45334
-4.41768
-4.3555
-16.607
-8.13502
-7.08241
-4.74975
-4.07756
-3.92892
-3.95441
-4.04925
-4.15705
-4.25434
-4.3347
-4.39683
-4.44126
-4.46847
-4.47859
-4.47083
-4.44427
-4.3988
-12.6334
-7.67539
-6.90066
-5.09636
-4.4016
-4.1654
-4.11757
-4.15816
-4.22943
-4.30367
-4.37003
-4.42427
-4.46501
-4.49188
-4.50479
-4.50365
-4.48887
-4.46188
-9.69366
-7.14347
-6.62398
-5.32147
-4.6738
-4.39258
-4.29042
-4.28346
-4.31943
-4.3698
-4.42095
-4.46642
-4.50333
-4.53045
-4.54752
-4.55487
-4.55352
-4.54564
-7.66087
-6.59957
-6.30093
-5.42667
-4.87852
-4.59299
-4.4598
-4.41722
-4.42309
-4.45142
-4.48789
-4.52487
-4.55839
-4.58665
-4.60908
-4.62608
-4.63881
-4.64926
-6.3659
-6.10804
-5.9808
-5.43558
-5.01134
-4.75342
-4.61233
-4.54909
-4.53352
-4.54452
-4.56897
-4.59909
-4.63053
-4.66102
-4.68974
-4.7168
-4.74314
-4.77013
-5.61775
-5.71748
-5.70421
-5.38619
-5.08145
-4.86876
-4.73782
-4.66857
-4.64189
-4.64239
-4.6593
-4.68561
-4.71701
-4.75108
-4.78668
-4.82359
-4.86219
-4.90328
-5.2385
-5.45535
-5.50336
-5.32293
-5.11057
-4.9437
-4.83163
-4.76687
-4.7384
-4.73574
-4.75058
-4.77699
-4.81101
-4.85017
-4.8931
-4.93919
-4.98831
-5.04069
-5.09729
-5.33946
-5.41222
-5.29433
-5.13046
-4.99149
-4.894
-4.83625
-4.81128
-4.81121
-4.82914
-4.8598
-4.89941
-4.94545
-4.99628
-5.05098
-5.10902
-5.1702
-5.13492
-5.3952
-5.46938
-5.34338
-5.16967
-5.02411
-4.92396
-4.8669
-4.84506
-4.84998
-4.87419
-4.91204
-4.95937
-5.01341
-5.07222
-5.13464
-5.19988
-5.26758
-5.38703
-5.64946
-5.68528
-5.47028
-5.22127
-5.03106
-4.91015
-4.8472
-4.82827
-4.84059
-4.87424
-4.92202
-4.97907
-5.04214
-5.10918
-5.1788
-5.25028
-5.32314
-5.99612
-6.13105
-6.03695
-5.62964
-5.2419
-4.98243
-4.83619
-4.77148
-4.76213
-4.78857
-4.83711
-4.89884
-4.96818
-5.04177
-5.11758
-5.19443
-5.27167
-5.34913
-7.24348
-6.88343
-6.48824
-5.75618
-5.17777
-4.8481
-4.69189
-4.64213
-4.65631
-4.707
-4.77722
-4.85705
-4.94102
-5.02616
-5.11101
-5.19484
-5.27743
-5.35889
-9.63473
-7.95825
-6.97641
-5.76597
-4.97412
-4.60731
-4.47771
-4.46992
-4.52528
-4.61091
-4.70872
-4.80958
-4.90915
-5.00583
-5.0991
-5.18914
-5.27621
-5.36088
-13.9757
-9.38453
-7.39675
-5.56343
-4.58921
-4.2594
-4.21094
-4.27626
-4.38898
-4.51708
-4.64534
-4.76756
-4.88183
-4.98848
-5.0886
-5.18331
-5.27361
-5.36042
-20.8832
-10.9473
-7.54759
-5.05095
-4.01019
-3.83098
-3.92598
-4.09077
-4.26985
-4.44147
-4.59831
-4.73912
-4.86529
-4.97918
-5.0836
-5.1809
-5.27285
-5.36055
-29.7298
-11.9426
-7.02677
-4.11967
-3.25821
-3.37304
-3.66695
-3.94357
-4.18669
-4.39589
-4.57479
-4.7288
-4.86204
-4.97973
-5.08577
-5.18358
-5.27555
-5.36288
-43.0997
-12.6071
-5.46595
-2.72237
-2.40726
-2.95829
-3.48006
-3.85856
-4.15032
-4.38454
-4.57677
-4.73647
-4.87099
-4.98814
-5.09341
-5.19034
-5.28154
-5.36786
-84.5927
-17.3666
-3.65718
-1.25875
-1.68985
-2.71646
-3.43164
-3.86524
-4.1681
-4.4044
-4.60099
-4.76307
-4.89358
-5.0042
-5.1034
-5.19742
-5.28836
-5.37328
-177.879
-26.8428
-3.67322
-0.763469
-1.52882
-2.83747
-3.60938
-4.00932
-4.2608
-4.45592
-4.64091
-4.80914
-4.94218
-5.04716
-5.13133
-5.21258
-5.30074
-5.38263
-154.784
-9.62047
-3.26548
-1.06155
-1.83679
-3.21515
-3.90863
-4.21808
-4.40647
-4.54532
-4.68862
-4.84547
-4.99227
-5.11767
-5.20784
-5.27897
-5.35914
-5.44036
428.064
66.6123
7.06282
1.60612
-0.909306
-2.85117
-3.64677
-3.98805
-4.30479
-4.57403
-4.69867
-4.73465
-4.78649
-4.87903
-5.00873
-5.13717
-5.23155
-5.31801
-8.50576
-8.49296
-8.4829
-8.52481
-8.61771
-8.72068
-8.7996
-8.83851
-8.84125
-8.82307
-8.79545
-8.76691
-8.74545
-8.73689
-8.74196
-8.75428
-8.765
-8.76977
-8.77136
-8.77652
-8.78789
-8.82059
-8.91079
-9.08455
-9.33936
-9.65852
-10.0308
-10.4451
-10.8862
-11.3377
-11.7849
-12.2158
-12.6212
-12.9947
-13.332
-13.6307
-13.8898
-14.1094
-14.2901
-14.433
-14.5393
-14.6104
-14.6476
-14.6523
-14.6259
-14.5695
-14.4849
-14.3744
-14.2391
-14.0769
-13.8852
-13.6652
-13.4198
-13.1506
-12.8588
-12.5456
-12.212
-11.859
-11.4875
-11.0988
-10.6938
-10.2736
-9.83948
-9.3925
-8.93384
-8.46471
-7.98629
-7.4998
-7.00643
-6.50735
-6.00373
-5.49671
-4.98741
-4.4769
-3.96624
-3.45641
-2.94838
-2.44306
-1.94131
-1.44394
-0.951699
-0.465293
0.0146323
0.487485
0.95273
1.40989
1.85853
2.29828
2.72884
3.14993
3.56136
3.96296
4.35453
4.73608
5.10783
5.4698
5.8215
6.16256
6.49297
6.81296
7.12278
7.42263
7.71269
7.99315
8.26419
8.52601
8.77882
9.02285
9.2583
9.48539
9.70434
9.91539
10.1188
10.3148
10.5037
10.6856
10.8608
11.0297
11.1923
11.3489
11.4998
11.6451
11.7851
11.92
12.05
12.1754
12.2961
12.4126
12.5249
12.6333
12.7377
12.8388
12.9366
13.0312
13.1225
13.2107
13.2959
13.3783
13.458
13.535
13.6096
13.6819
13.7518
13.8196
13.8853
13.949
14.0107
14.0706
14.1286
14.1849
14.2396
14.2926
14.344
14.3938
14.4422
14.4891
14.5345
14.5786
14.6212
14.6625
14.7024
14.7411
14.7784
14.8144
14.8492
14.8827
14.915
14.9462
14.9763
15.0054
15.0337
15.0614
15.0889
15.1165
15.1452
15.176
15.2115
15.2531
15.3112
15.3717
-8.56365
-8.595
-8.66915
-8.76261
-8.86551
-8.95695
-9.01733
-9.04082
-9.02279
-8.9614
-8.87117
-8.77454
-8.69367
-8.64335
-8.62187
-8.61894
-8.62894
-8.65572
-8.69509
-8.71671
-8.73859
-8.81819
-8.98353
-9.22701
-9.53655
-9.90961
-10.3365
-10.7969
-11.2694
-11.7363
-12.1853
-12.6071
-12.9955
-13.3467
-13.6589
-13.9319
-14.1661
-14.3626
-14.5225
-14.647
-14.7372
-14.7942
-14.819
-14.8126
-14.7756
-14.7088
-14.6126
-14.4869
-14.3323
-14.1521
-13.9498
-13.7256
-13.4787
-13.2093
-12.9179
-12.6053
-12.2724
-11.9202
-11.5495
-11.1615
-10.7572
-10.3377
-9.90418
-9.45772
-8.99952
-8.53074
-8.05261
-7.56632
-7.07306
-6.57402
-6.07035
-5.56321
-5.05369
-4.54289
-4.03186
-3.52158
-3.01303
-2.50711
-2.00469
-1.50658
-1.01354
-0.526279
-0.0454403
0.428375
0.894623
1.35281
1.8025
2.2433
2.67485
3.09686
3.50907
3.91122
4.3031
4.68461
5.05583
5.41697
5.76823
6.10964
6.44104
6.76232
7.07353
7.3748
7.66627
7.94812
8.22053
8.4837
8.73783
8.98313
9.21984
9.4482
9.66842
9.88073
10.0854
10.2826
10.4726
10.6557
10.8321
11.002
11.1656
11.3233
11.4752
11.6215
11.7625
11.8984
12.0295
12.1559
12.2778
12.3953
12.5087
12.6181
12.7237
12.8255
12.9234
13.0181
13.1095
13.1979
13.2834
13.366
13.446
13.5233
13.5982
13.6708
13.741
13.8091
13.8751
13.9391
14.0011
14.0613
14.1196
14.1762
14.2311
14.2843
14.336
14.3861
14.4347
14.4818
14.5274
14.5717
14.6145
14.656
14.6961
14.7349
14.7724
14.8086
14.8435
14.8772
14.9097
14.941
14.9712
15.0004
15.0289
15.0567
15.0842
15.112
15.1407
15.1714
15.2063
15.2459
15.2996
15.3495
-8.69098
-8.77259
-8.89034
-8.99571
-9.07795
-9.13106
-9.15095
-9.13635
-9.08595
-9.00214
-8.89418
-8.77893
-8.68002
-8.61669
-8.58889
-8.58485
-8.60526
-8.66498
-8.77335
-8.92353
-9.11404
-9.35552
-9.65126
-9.99172
-10.3648
-10.7611
-11.1707
-11.5816
-11.9835
-12.3693
-12.7343
-13.0748
-13.3882
-13.6729
-13.9277
-14.1523
-14.3464
-14.5101
-14.6437
-14.7474
-14.8217
-14.8669
-14.8835
-14.8718
-14.8323
-14.7655
-14.6716
-14.5507
-14.4028
-14.2289
-14.0303
-13.8081
-13.5629
-13.2951
-13.0054
-12.6947
-12.3636
-12.0132
-11.6443
-11.258
-10.8553
-10.4372
-10.005
-9.55971
-9.10254
-8.63466
-8.15728
-7.67159
-7.17879
-6.68005
-6.17656
-5.66944
-5.15983
-4.6488
-4.13741
-3.62666
-3.11753
-2.61092
-2.10771
-1.60873
-1.11472
-0.626414
-0.144458
0.330544
0.798042
1.25754
1.70861
2.15085
2.58392
3.00754
3.42147
3.82551
4.21951
4.60339
4.9771
5.34068
5.69413
6.03749
6.37071
6.69379
7.00681
7.30989
7.60316
7.8868
8.16098
8.42589
8.68174
8.92874
9.16712
9.3971
9.61891
9.83277
10.0389
10.2376
10.4291
10.6136
10.7913
10.9626
11.1276
11.2865
11.4397
11.5872
11.7294
11.8664
11.9984
12.1256
12.2482
12.3665
12.4806
12.5906
12.6968
12.7993
12.8982
12.9939
13.0864
13.1758
13.2622
13.3457
13.4264
13.5046
13.5802
13.6534
13.7244
13.7931
13.8597
13.9242
13.9868
14.0474
14.1062
14.1633
14.2186
14.2723
14.3244
14.3748
14.4238
14.4712
14.5172
14.5618
14.605
14.6467
14.6871
14.7262
14.7639
14.8003
14.8355
14.8694
14.902
14.9335
14.9639
14.9933
15.0218
15.0497
15.0772
15.1049
15.1334
15.1635
15.1971
15.2337
15.2812
15.3148
-8.72884
-8.82588
-8.92689
-9.01316
-9.07724
-9.11648
-9.12843
-9.11048
-9.06273
-8.99032
-8.90467
-8.82274
-8.76267
-8.73711
-8.7507
-8.80558
-8.90575
-9.05507
-9.25417
-9.49734
-9.77509
-10.0805
-10.4079
-10.751
-11.1046
-11.4634
-11.8219
-12.1752
-12.5186
-12.848
-13.1603
-13.4526
-13.723
-13.9697
-14.1916
-14.3877
-14.5574
-14.7003
-14.8163
-14.9053
-14.9673
-15.0024
-15.0106
-14.9921
-14.9471
-14.8757
-14.7782
-14.655
-14.5065
-14.3334
-14.1363
-13.9157
-13.672
-13.4059
-13.1179
-12.8088
-12.4795
-12.1306
-11.7633
-11.3784
-10.977
-10.5601
-10.1289
-9.68444
-9.22796
-8.76064
-8.28365
-7.79819
-7.30546
-6.80664
-6.3029
-5.79539
-5.28524
-4.77353
-4.26133
-3.74964
-3.23944
-2.73166
-2.22716
-1.72678
-1.23129
-0.741407
-0.257793
0.218941
0.68824
1.14961
1.60259
2.0468
2.4819
2.90759
3.32363
3.72984
4.12606
4.51222
4.88826
5.25416
5.60987
5.95539
6.29071
6.61588
6.93098
7.23613
7.53145
7.81712
8.0933
8.3602
8.618
8.86691
9.10717
9.33898
9.56259
9.7782
9.98608
10.1865
10.3796
10.5657
10.745
10.9178
11.0842
11.2446
11.3991
11.5479
11.6914
11.8296
11.9628
12.0912
12.215
12.3344
12.4495
12.5606
12.6678
12.7713
12.8714
12.9681
13.0615
13.1518
13.2391
13.3235
13.4051
13.484
13.5604
13.6343
13.7059
13.7753
13.8425
13.9076
13.9708
14.032
14.0914
14.1489
14.2047
14.2589
14.3114
14.3623
14.4116
14.4595
14.5059
14.5508
14.5943
14.6363
14.6771
14.7164
14.7544
14.7911
14.8265
14.8606
14.8934
14.9251
14.9556
14.9851
15.0136
15.0415
15.0689
15.0962
15.1241
15.153
15.1844
15.2169
15.2563
15.275
-8.51524
-8.60006
-8.70017
-8.79719
-8.87435
-8.92681
-8.95361
-8.95566
-8.93754
-8.90768
-8.87825
-8.86324
-8.87538
-8.92414
-9.0156
-9.15282
-9.33575
-9.55974
-9.8163
-10.0974
-10.3974
-10.7124
-11.0378
-11.3687
-11.7008
-12.0304
-12.354
-12.6687
-12.9716
-13.2603
-13.533
-13.7879
-14.0235
-14.2387
-14.4326
-14.6041
-14.7527
-14.8777
-14.9787
-15.0554
-15.1075
-15.1347
-15.1369
-15.114
-15.0659
-14.9927
-14.8944
-14.7711
-14.6233
-14.4512
-14.2553
-14.036
-13.7938
-13.5291
-13.2427
-12.9351
-12.6072
-12.2597
-11.8937
-11.51
-11.1097
-10.6938
-10.2634
-9.81967
-9.36375
-8.89682
-8.42009
-7.93473
-7.44195
-6.94293
-6.43885
-5.93086
-5.42008
-4.90762
-4.39453
-3.88183
-3.37051
-2.86148
-2.35565
-1.85382
-1.35679
-0.865276
-0.379947
0.0985799
0.569747
1.03305
1.48804
1.93431
2.37152
2.79939
3.21765
3.62612
4.02464
4.4131
4.79145
5.15962
5.5176
5.86536
6.20291
6.53031
6.84763
7.15499
7.45251
7.74036
8.0187
8.28772
8.54762
8.79861
9.04091
9.27475
9.50033
9.71789
9.92767
10.1299
10.3248
10.5127
10.6937
10.8681
11.0362
11.1982
11.3542
11.5046
11.6495
11.7891
11.9237
12.0535
12.1787
12.2993
12.4157
12.5281
12.6364
12.7411
12.8422
12.9399
13.0343
13.1256
13.2138
13.299
13.3814
13.4612
13.5384
13.6131
13.6855
13.7555
13.8235
13.8893
13.953
14.0149
14.0748
14.1329
14.1893
14.2439
14.2969
14.3483
14.3982
14.4464
14.4932
14.5385
14.5824
14.6249
14.6659
14.7056
14.7439
14.7809
14.8165
14.8508
14.8839
14.9157
14.9463
14.9759
15.0044
15.0321
15.0592
15.086
15.1129
15.1402
15.1688
15.1967
15.2282
15.2344
-8.09458
-8.18309
-8.30418
-8.42696
-8.53217
-8.61253
-8.67087
-8.71314
-8.74705
-8.78246
-8.83032
-8.90089
-9.0021
-9.13869
-9.31274
-9.52317
-9.76526
-10.0334
-10.3222
-10.626
-10.9393
-11.2575
-11.5765
-11.893
-12.2041
-12.5078
-12.8021
-13.0855
-13.3565
-13.6138
-13.8563
-14.0827
-14.2922
-14.4835
-14.656
-14.8087
-14.9408
-15.0518
-15.1409
-15.2076
-15.2516
-15.2722
-15.2693
-15.2425
-15.1917
-15.1167
-15.0175
-14.894
-14.7465
-14.5751
-14.3802
-14.162
-13.921
-13.6577
-13.3727
-13.0666
-12.7401
-12.394
-12.0293
-11.6469
-11.2477
-10.8328
-10.4033
-9.96028
-9.50495
-9.03848
-8.56204
-8.07683
-7.58405
-7.08488
-6.58049
-6.07205
-5.56068
-5.04749
-4.53354
-4.01986
-3.50743
-2.99719
-2.49002
-1.98677
-1.48821
-0.995074
-0.50804
-0.0277248
0.445306
0.910545
1.36753
1.81587
2.25521
2.68525
3.10574
3.51647
3.91728
4.30806
4.68871
5.05919
5.41945
5.7695
6.10933
6.43902
6.75862
7.06825
7.36804
7.65814
7.93872
8.20997
8.47207
8.72522
8.96965
9.20556
9.4332
9.65278
9.86454
10.0687
10.2656
10.4553
10.6381
10.8144
10.9842
11.1479
11.3056
11.4576
11.6041
11.7453
11.8814
12.0126
12.1392
12.2612
12.3789
12.4925
12.6022
12.7081
12.8103
12.9091
13.0046
13.0969
13.186
13.2723
13.3557
13.4363
13.5144
13.59
13.6631
13.734
13.8027
13.8692
13.9337
13.9962
14.0568
14.1155
14.1725
14.2277
14.2813
14.3332
14.3835
14.4323
14.4795
14.5253
14.5696
14.6125
14.6539
14.6939
14.7326
14.7698
14.8058
14.8403
14.8736
14.9056
14.9363
14.9658
14.9943
15.0218
15.0484
15.0744
15.1001
15.1255
15.151
15.174
15.1983
15.1938
-7.63044
-7.72922
-7.87145
-8.02042
-8.1585
-8.27733
-8.38058
-8.47764
-8.57794
-8.6904
-8.82257
-8.97925
-9.16311
-9.37454
-9.6118
-9.87272
-10.1543
-10.4519
-10.7602
-11.0741
-11.3893
-11.7025
-12.011
-12.3127
-12.606
-12.8897
-13.1628
-13.4243
-13.6733
-13.9091
-14.1307
-14.3374
-14.5283
-14.7027
-14.8596
-14.9982
-15.1179
-15.218
-15.2976
-15.3562
-15.3933
-15.4082
-15.4007
-15.3703
-15.3166
-15.2396
-15.1389
-15.0146
-14.8668
-14.6955
-14.5008
-14.2832
-14.043
-13.7807
-13.4966
-13.1916
-12.8663
-12.5215
-12.158
-11.7767
-11.3787
-10.9649
-10.5364
-10.0944
-9.63988
-9.17415
-8.69833
-8.21363
-7.72123
-7.22231
-6.71805
-6.2096
-5.69809
-5.18462
-4.67025
-4.15603
-3.64292
-3.13188
-2.62378
-2.11948
-1.61976
-1.12535
-0.636939
-0.155141
0.31947
0.78638
1.24513
1.69531
2.13656
2.56858
2.99111
3.40393
3.80688
4.19983
4.58267
4.95536
5.31783
5.6701
6.01217
6.34409
6.66595
6.97783
7.27987
7.57222
7.85503
8.12849
8.39278
8.64811
8.89469
9.13273
9.36246
9.58411
9.79792
10.0041
10.2029
10.3946
10.5793
10.7574
10.9291
11.0945
11.254
11.4077
11.5558
11.6986
11.8363
11.969
12.0971
12.2206
12.3397
12.4547
12.5656
12.6728
12.7763
12.8762
12.9729
13.0662
13.1565
13.2438
13.3282
13.4098
13.4888
13.5653
13.6393
13.7111
13.7805
13.8478
13.9131
13.9763
14.0376
14.097
14.1546
14.2105
14.2646
14.3171
14.368
14.4173
14.4651
14.5113
14.5561
14.5994
14.6412
14.6816
14.7206
14.7583
14.7945
14.8293
14.8628
14.8949
14.9257
14.9552
14.9835
15.0107
15.0368
15.0619
15.0861
15.1093
15.1315
15.1496
15.1674
15.1535
-7.27704
-7.37038
-7.52259
-7.68854
-7.85565
-8.01703
-8.17223
-8.32912
-8.4959
-8.67833
-8.88043
-9.10329
-9.34546
-9.60608
-9.88455
-10.1785
-10.4842
-10.7973
-11.1134
-11.4291
-11.7416
-12.0483
-12.3478
-12.6384
-12.9193
-13.1896
-13.4486
-13.6956
-13.9302
-14.1516
-14.3593
-14.5526
-14.7307
-14.8931
-15.039
-15.1675
-15.2781
-15.3699
-15.4423
-15.4945
-15.5261
-15.5363
-15.5248
-15.491
-15.4346
-15.3553
-15.2529
-15.1274
-14.9786
-14.8066
-14.6116
-14.3938
-14.1536
-13.8914
-13.6077
-13.3031
-12.9783
-12.6341
-12.2712
-11.8907
-11.4934
-11.0804
-10.6528
-10.2115
-9.75787
-9.29293
-8.81788
-8.3339
-7.84218
-7.34388
-6.84018
-6.33221
-5.8211
-5.30794
-4.79379
-4.27968
-3.76658
-3.25543
-2.74711
-2.24247
-1.74229
-1.24731
-0.758198
-0.275587
0.199952
0.667902
1.1278
1.57923
2.02184
2.45531
2.87938
3.29382
3.69845
4.09314
4.47778
4.8523
5.21665
5.57084
5.91486
6.24878
6.57265
6.88658
7.19069
7.48511
7.77001
8.04555
8.31194
8.56935
8.81801
9.05811
9.2899
9.51358
9.72938
9.93755
10.1383
10.3319
10.5186
10.6985
10.872
11.0392
11.2004
11.3558
11.5057
11.6501
11.7894
11.9237
12.0533
12.1782
12.2988
12.4152
12.5275
12.636
12.7407
12.842
12.9398
13.0343
13.1257
13.214
13.2995
13.3821
13.4621
13.5396
13.6145
13.6871
13.7575
13.8256
13.8916
13.9556
14.0176
14.0778
14.1361
14.1926
14.2474
14.3005
14.3519
14.4018
14.4501
14.4968
14.5421
14.5858
14.6281
14.669
14.7084
14.7463
14.7828
14.8179
14.8516
14.8839
14.9148
14.9442
14.9723
14.9991
15.0245
15.0485
15.0712
15.0921
15.1109
15.1243
15.136
15.1141
-7.08921
-7.17536
-7.32969
-7.50228
-7.68598
-7.8787
-8.07709
-8.28312
-8.50125
-8.73382
-8.98112
-9.24314
-9.51976
-9.81056
-10.1136
-10.4257
-10.7431
-11.0626
-11.3811
-11.6959
-12.005
-12.3067
-12.5998
-12.8831
-13.1559
-13.4176
-13.6677
-13.9056
-14.131
-14.3434
-14.5421
-14.7268
-14.8967
-15.0512
-15.1896
-15.3113
-15.4154
-15.5014
-15.5685
-15.616
-15.6433
-15.6498
-15.6349
-15.5982
-15.5393
-15.4579
-15.3537
-15.2265
-15.0764
-14.9033
-14.7074
-14.489
-14.2482
-13.9856
-13.7016
-13.3968
-13.072
-12.7278
-12.3652
-11.9849
-11.588
-11.1754
-10.7482
-10.3075
-9.85448
-9.3902
-8.91585
-8.4326
-7.94161
-7.44407
-6.94111
-6.43389
-5.9235
-5.41103
-4.89753
-4.38401
-3.87144
-3.36076
-2.85284
-2.3485
-1.84854
-1.35367
-0.864572
-0.38187
0.0938677
0.562126
1.02244
1.47439
1.91762
2.35182
2.77671
3.19208
3.59773
3.99353
4.37937
4.75516
5.12086
5.47646
5.82196
6.15741
6.48288
6.79845
7.10425
7.40041
7.68707
7.96441
8.23261
8.49186
8.74235
8.98431
9.21795
9.44348
9.66114
9.87115
10.0737
10.2691
10.4576
10.6393
10.8145
10.9835
11.1464
11.3035
11.4549
11.601
11.7419
11.8777
12.0088
12.1352
12.2572
12.375
12.4887
12.5985
12.7045
12.807
12.906
13.0017
13.0942
13.1836
13.2702
13.3539
13.4349
13.5133
13.5892
13.6627
13.7339
13.8029
13.8697
13.9345
13.9973
14.0581
14.1171
14.1743
14.2298
14.2835
14.3355
14.386
14.4348
14.4821
14.5279
14.5721
14.6149
14.6561
14.6959
14.7343
14.7711
14.8065
14.8404
14.8728
14.9037
14.933
14.9609
14.9872
15.0118
15.0347
15.0557
15.0742
15.0897
15.0985
15.1048
15.0758
-7.06401
-7.15105
-7.29886
-7.46782
-7.65483
-7.85974
-8.07939
-8.31181
-8.55722
-8.81617
-9.08811
-9.37217
-9.66809
-9.97468
-10.2892
-10.6088
-10.9304
-11.2514
-11.5694
-11.8823
-12.1885
-12.4865
-12.7754
-13.0541
-13.3222
-13.579
-13.8241
-14.057
-14.2774
-14.4847
-14.6784
-14.8582
-15.0233
-15.1731
-15.3071
-15.4245
-15.5246
-15.6068
-15.6703
-15.7145
-15.7387
-15.7423
-15.7248
-15.6857
-15.6246
-15.5412
-15.4352
-15.3064
-15.1548
-14.9804
-14.7834
-14.5639
-14.3222
-14.0588
-13.7743
-13.469
-13.1439
-12.7995
-12.4367
-12.0565
-11.6597
-11.2474
-10.8206
-10.3804
-9.92791
-9.4643
-8.9907
-8.50827
-8.01818
-7.52156
-7.01958
-6.51335
-6.00398
-5.49253
-4.98005
-4.46753
-3.95593
-3.44618
-2.93914
-2.43563
-1.93642
-1.44224
-0.953758
-0.47158
0.00373004
0.47166
0.931749
1.38359
1.82682
2.26113
2.68624
3.10192
3.50799
3.90431
4.29074
4.66723
5.03372
5.39018
5.73664
6.07312
6.39969
6.71645
7.02349
7.32095
7.60898
7.88773
8.15738
8.41812
8.67014
8.91365
9.14885
9.37598
9.59524
9.80686
10.0111
10.2081
10.3982
10.5815
10.7583
10.9289
11.0933
11.252
11.405
11.5525
11.6949
11.8322
11.9647
12.0925
12.2159
12.335
12.45
12.5611
12.6684
12.7721
12.8723
12.9691
13.0627
13.1533
13.2408
13.3256
13.4076
13.4869
13.5638
13.6382
13.7103
13.7801
13.8478
13.9133
13.9769
14.0385
14.0982
14.1561
14.2121
14.2665
14.3192
14.3702
14.4196
14.4675
14.5138
14.5585
14.6017
14.6434
14.6836
14.7223
14.7595
14.7951
14.8292
14.8617
14.8926
14.9219
14.9495
14.9752
14.9991
15.0208
15.04
15.056
15.0682
15.0729
15.0742
15.0391
-7.17743
-7.25581
-7.38675
-7.54274
-7.72157
-7.92292
-8.14407
-8.38243
-8.63634
-8.90445
-9.18504
-9.47698
-9.77933
-10.0901
-10.4068
-10.7269
-11.0478
-11.3673
-11.6833
-11.9939
-12.2977
-12.5934
-12.8799
-13.1565
-13.4225
-13.6773
-13.9205
-14.1515
-14.37
-14.5754
-14.7672
-14.9449
-15.1079
-15.2557
-15.3875
-15.5028
-15.6007
-15.6807
-15.7421
-15.7841
-15.8062
-15.8078
-15.7883
-15.7473
-15.6844
-15.5992
-15.4915
-15.3611
-15.2081
-15.0323
-14.834
-14.6134
-14.3708
-14.1066
-13.8213
-13.5156
-13.19
-12.8454
-12.4826
-12.1024
-11.7058
-11.2939
-10.8676
-10.4281
-9.97645
-9.51376
-9.0412
-8.55991
-8.07104
-7.57574
-7.07514
-6.57034
-6.06243
-5.55249
-5.04152
-4.53052
-4.02043
-3.51215
-3.00654
-2.50441
-2.00652
-1.51357
-1.02624
-0.545125
-0.070786
0.396272
0.855592
1.30677
1.74944
2.1833
2.60807
3.02352
3.42948
3.82578
4.21231
4.58899
4.95577
5.31263
5.65957
5.99664
6.32389
6.6414
6.94929
7.24766
7.53667
7.81647
8.08723
8.34913
8.60236
8.84713
9.08362
9.31207
9.53268
9.74568
9.95128
10.1497
10.3412
10.5259
10.7042
10.8762
11.042
11.2021
11.3565
11.5054
11.6492
11.7878
11.9217
12.0508
12.1755
12.2959
12.4122
12.5245
12.6329
12.7378
12.8391
12.937
13.0317
13.1233
13.2119
13.2977
13.3806
13.461
13.5387
13.614
13.687
13.7576
13.8261
13.8924
13.9567
14.0191
14.0795
14.138
14.1948
14.2498
14.3031
14.3547
14.4047
14.4531
14.4999
14.5452
14.5888
14.631
14.6716
14.7107
14.7481
14.7841
14.8184
14.851
14.8819
14.911
14.9383
14.9635
14.9865
15.0069
15.0244
15.038
15.0471
15.0478
15.0446
15.0042
-7.35544
-7.41998
-7.53087
-7.66937
-7.83333
-8.02225
-8.23377
-8.46522
-8.71411
-8.97809
-9.25493
-9.54344
-9.84237
-10.1495
-10.4624
-10.7787
-11.0961
-11.4124
-11.7256
-12.0341
-12.3362
-12.6309
-12.9169
-13.1933
-13.4595
-13.7147
-13.9584
-14.19
-14.4091
-14.615
-14.8072
-14.9851
-15.1482
-15.2958
-15.4273
-15.542
-15.6392
-15.7182
-15.7785
-15.8194
-15.8401
-15.8403
-15.8194
-15.7769
-15.7124
-15.6257
-15.5166
-15.3848
-15.2304
-15.0535
-14.854
-14.6324
-14.389
-14.1241
-13.8383
-13.5322
-13.2064
-12.8618
-12.4992
-12.1194
-11.7235
-11.3124
-10.8871
-10.4487
-9.9983
-9.53707
-9.06609
-8.58651
-8.09946
-7.60607
-7.10746
-6.60471
-6.0989
-5.59107
-5.08223
-4.57335
-4.06538
-3.55919
-3.05563
-2.55548
-2.05952
-1.56843
-1.08286
-0.603413
-0.130642
0.334957
0.792932
1.24288
1.68445
2.11732
2.54123
2.95594
3.36128
3.75709
4.14324
4.51967
4.88631
5.24314
5.59017
5.92743
6.25498
6.57288
6.88126
7.18021
7.46988
7.75042
8.02199
8.28477
8.53894
8.78469
9.02223
9.25177
9.47351
9.68766
9.89446
10.0941
10.2868
10.4728
10.6523
10.8256
10.9928
11.1541
11.3098
11.46
11.605
11.7449
11.88
12.0104
12.1363
12.2579
12.3753
12.4888
12.5984
12.7043
12.8067
12.9057
13.0015
13.0941
13.1837
13.2704
13.3543
13.4355
13.5142
13.5904
13.6641
13.7356
13.8049
13.872
13.937
14.0001
14.0612
14.1204
14.1779
14.2335
14.2874
14.3396
14.3902
14.4391
14.4865
14.5322
14.5764
14.619
14.66
14.6994
14.7373
14.7734
14.8079
14.8407
14.8716
14.9006
14.9275
14.9521
14.9742
14.9934
15.0091
15.0204
15.0266
15.0236
15.0163
14.9716
-7.53
-7.58146
-7.67403
-7.79467
-7.94141
-8.11368
-8.30942
-8.52624
-8.76167
-9.01313
-9.27861
-9.55698
-9.84682
-10.1459
-10.4518
-10.7621
-11.0746
-11.3872
-11.6978
-12.0046
-12.3062
-12.6012
-12.8882
-13.1664
-13.4346
-13.6923
-13.9385
-14.1728
-14.3943
-14.6026
-14.797
-14.9768
-15.1415
-15.2904
-15.4228
-15.538
-15.6355
-15.7146
-15.7746
-15.8149
-15.8349
-15.8342
-15.8122
-15.7686
-15.703
-15.6151
-15.5047
-15.3718
-15.2164
-15.0384
-14.8382
-14.6159
-14.372
-14.1068
-13.8208
-13.5148
-13.1894
-12.8454
-12.4836
-12.1048
-11.7101
-11.3004
-10.8767
-10.4401
-9.99176
-9.5327
-9.06405
-8.58693
-8.10246
-7.61176
-7.1159
-6.61598
-6.11305
-5.60812
-5.10219
-4.59622
-4.09112
-3.58777
-3.08699
-2.58956
-2.09623
-1.60767
-1.12454
-0.647414
-0.176844
0.286681
0.742716
1.19086
1.63076
2.06211
2.48464
2.89812
3.30236
3.69721
4.08255
4.45829
4.82438
5.1808
5.52753
5.86463
6.19212
6.5101
6.81864
7.11787
7.40792
7.68893
7.96105
8.22446
8.47933
8.72586
8.96423
9.19465
9.41733
9.63247
9.84029
10.041
10.2348
10.4219
10.6026
10.777
10.9453
11.1078
11.2646
11.416
11.5622
11.7033
11.8396
11.9711
12.0982
12.2209
12.3394
12.454
12.5647
12.6717
12.7751
12.8752
12.9719
13.0655
13.1561
13.2437
13.3286
13.4107
13.4902
13.5672
13.6418
13.7141
13.7842
13.852
13.9178
13.9816
14.0434
14.1033
14.1614
14.2177
14.2722
14.325
14.3761
14.4256
14.4735
14.5198
14.5644
14.6075
14.6489
14.6887
14.7269
14.7634
14.7981
14.8309
14.8618
14.8907
14.9172
14.9413
14.9625
14.9805
14.9945
15.0036
15.007
15.0007
14.9897
14.9412
-7.65684
-7.69903
-7.77622
-7.8802
-8.00952
-8.16368
-8.34095
-8.53935
-8.75685
-8.99126
-9.24119
-9.50592
-9.78398
-10.0731
-10.3708
-10.6746
-10.9823
-11.2916
-11.6004
-11.9069
-12.2093
-12.5061
-12.7958
-13.0773
-13.3494
-13.6111
-13.8616
-14.1
-14.3256
-14.5376
-14.7353
-14.9182
-15.0855
-15.2365
-15.3706
-15.4872
-15.5856
-15.6652
-15.7253
-15.7655
-15.7852
-15.7839
-15.7612
-15.7167
-15.6502
-15.5614
-15.4502
-15.3166
-15.1605
-14.982
-14.7814
-14.559
-14.3151
-14.0502
-13.7648
-13.4596
-13.1353
-12.7926
-12.4323
-12.0554
-11.6628
-11.2554
-10.8343
-10.4005
-9.95515
-9.49923
-9.03389
-8.56022
-8.07931
-7.59226
-7.10013
-6.604
-6.10487
-5.60377
-5.10166
-4.59947
-4.0981
-3.59842
-3.10125
-2.60734
-2.1174
-1.63212
-1.15214
-0.678028
-0.210325
0.250486
0.703964
1.14971
1.58738
2.01667
2.43729
2.84904
3.25171
3.64515
4.02924
4.40389
4.76904
5.12467
5.47076
5.80735
6.13448
6.45222
6.76066
7.0599
7.35007
7.6313
7.90374
8.16756
8.42294
8.67004
8.90906
9.1402
9.36366
9.57963
9.78833
9.98995
10.1847
10.3728
10.5545
10.7299
10.8993
11.0629
11.2209
11.3734
11.5206
11.6629
11.8002
11.9329
12.061
12.1848
12.3044
12.42
12.5318
12.6398
12.7443
12.8453
12.943
13.0376
13.1291
13.2176
13.3034
13.3864
13.4668
13.5446
13.62
13.6931
13.7639
13.8325
13.8991
13.9635
14.026
14.0866
14.1454
14.2023
14.2574
14.3108
14.3626
14.4126
14.461
14.5078
14.5529
14.5965
14.6383
14.6786
14.7171
14.7538
14.7887
14.8217
14.8527
14.8814
14.9076
14.9312
14.9516
14.9683
14.9808
14.9878
14.9885
14.9793
14.965
14.9133
-7.71201
-7.75018
-7.81572
-7.90473
-8.01701
-8.15251
-8.31015
-8.48861
-8.68632
-8.90174
-9.13438
-9.38413
-9.64961
-9.92844
-10.218
-10.5159
-10.8195
-11.1267
-11.435
-11.7425
-12.0471
-12.3472
-12.641
-12.9272
-13.2044
-13.4714
-13.7272
-13.9708
-14.2013
-14.4179
-14.6198
-14.8062
-14.9766
-15.1303
-15.2665
-15.3847
-15.4842
-15.5646
-15.6251
-15.6654
-15.685
-15.6834
-15.6603
-15.6153
-15.5483
-15.4591
-15.3476
-15.2137
-15.0575
-14.8792
-14.679
-14.4571
-14.2141
-13.9504
-13.6666
-13.3632
-13.0409
-12.7006
-12.343
-11.9691
-11.5797
-11.1759
-10.7585
-10.3287
-9.88744
-9.43584
-8.97496
-8.50589
-8.02968
-7.54741
-7.06012
-6.56884
-6.07459
-5.57834
-5.08104
-4.58362
-4.08693
-3.59183
-3.09912
-2.60957
-2.12386
-1.64265
-1.16657
-0.696187
-0.232038
0.225401
0.675696
1.11845
1.55332
1.98
2.39821
2.80773
3.20836
3.59996
3.98238
4.35555
4.71939
5.07388
5.419
5.75478
6.08126
6.39849
6.70655
7.00555
7.29561
7.57685
7.84941
8.11346
8.36915
8.61667
8.85619
9.0879
9.31199
9.52867
9.73813
9.94057
10.1362
10.3252
10.5078
10.6842
10.8546
11.0192
11.1781
11.3317
11.48
11.6233
11.7617
11.8954
12.0246
12.1494
12.2701
12.3867
12.4995
12.6085
12.714
12.816
12.9147
13.0102
13.1026
13.1921
13.2787
13.3626
13.4438
13.5225
13.5987
13.6725
13.7441
13.8135
13.8807
13.9459
14.0091
14.0704
14.1297
14.1873
14.2431
14.2971
14.3494
14.4
14.449
14.4963
14.5419
14.586
14.6283
14.6689
14.7078
14.7449
14.78
14.8132
14.8442
14.8728
14.8987
14.9217
14.9414
14.957
14.968
14.9731
14.9715
14.9595
14.9422
14.8879
-7.69736
-7.73142
-7.7881
-7.86332
-7.95842
-8.07421
-8.21072
-8.36757
-8.54398
-8.73925
-8.95384
-9.18823
-9.44118
-9.7102
-9.99259
-10.2857
-10.5868
-10.8933
-11.2028
-11.5128
-11.8213
-12.1261
-12.4253
-12.7173
-13.0005
-13.2736
-13.5353
-13.7845
-14.0203
-14.2416
-14.4478
-14.638
-14.8115
-14.9677
-15.1059
-15.2257
-15.3264
-15.4075
-15.4686
-15.5091
-15.5288
-15.5272
-15.5041
-15.4591
-15.3921
-15.3031
-15.1919
-15.0585
-14.9031
-14.7259
-14.527
-14.3069
-14.0659
-13.8045
-13.5233
-13.223
-12.9041
-12.5675
-12.214
-11.8444
-11.4597
-11.0607
-10.6484
-10.2239
-9.78817
-9.34224
-8.88716
-8.42398
-7.95375
-7.4775
-6.99625
-6.51102
-6.02279
-5.5325
-5.04109
-4.54946
-4.05845
-3.5689
-3.08158
-2.59724
-2.1166
-1.64027
-1.16887
-0.702949
-0.243042
0.210373
0.656862
1.09603
1.52754
1.95108
2.36637
2.7732
3.17135
3.56068
3.94104
4.31236
4.67455
5.02757
5.37142
5.70611
6.03166
6.34813
6.65559
6.95414
7.24388
7.52493
7.79744
8.06154
8.31741
8.56519
8.80507
9.03723
9.26185
9.47913
9.68925
9.89241
10.0888
10.2786
10.4621
10.6394
10.8107
10.9763
11.1362
11.2907
11.4401
11.5843
11.7238
11.8585
11.9887
12.1146
12.2363
12.3539
12.4677
12.5777
12.6841
12.7871
12.8867
12.9831
13.0765
13.1668
13.2543
13.3391
13.4211
13.5006
13.5777
13.6523
13.7246
13.7948
13.8627
13.9286
13.9925
14.0545
14.1145
14.1727
14.2291
14.2838
14.3367
14.3879
14.4374
14.4852
14.5314
14.5759
14.6187
14.6598
14.6991
14.7365
14.7719
14.8053
14.8363
14.8649
14.8906
14.9132
14.9321
14.9467
14.9563
14.9597
14.9559
14.9415
14.9215
14.865
-7.6327
-7.6578
-7.70392
-7.76255
-7.83731
-7.93024
-8.04256
-8.17514
-8.3282
-8.50204
-8.69805
-8.91723
-9.15838
-9.41879
-9.69546
-9.98543
-10.2857