/*--------------------------------*- C++ -*----------------------------------*\
  =========                 |
  \\      /  F ield         | OpenFOAM: The Open Source CFD Toolbox
   \\    /   O peration     | Website:  https://openfoam.org
    \\  /    A nd           | Version:  8
     \\/     M anipulation  |
\*---------------------------------------------------------------------------*/
FoamFile
{
    version     2.0;
    format      ascii;
    class       volScalarField;
    location    "4500";
    object      p;
}
// * * * * * * * * * * * * * * * * * * * * * * * * * * * * * * * * * * * * * //

dimensions      [0 2 -2 0 0 0 0];

internalField   nonuniform List<scalar> 
12225
(
514.676
55.528
2.36364
0.281532
-1.89894
-3.37449
-3.81172
-4.02213
-4.23188
-4.36877
-4.41591
-4.42552
-4.4285
-4.45645
-4.50982
-4.57626
-4.72163
-4.94416
-122.179
0.238736
-2.71858
-0.765263
-2.21663
-3.52508
-3.9528
-4.1369
-4.28058
-4.38457
-4.45948
-4.51779
-4.56872
-4.60109
-4.62201
-4.64754
-4.71414
-4.80814
-200.646
-16.1486
-2.34659
-0.358486
-1.90097
-3.24495
-3.77236
-4.0226
-4.19528
-4.31954
-4.41221
-4.47941
-4.52803
-4.55325
-4.56829
-4.58383
-4.61569
-4.59885
-110.616
-10.9742
-2.1773
-0.432194
-1.7879
-3.02897
-3.60146
-3.90864
-4.11791
-4.2637
-4.36607
-4.43674
-4.48545
-4.51401
-4.53134
-4.53915
-4.5381
-4.4694
-61.573
-8.14602
-3.62276
-1.21019
-2.01541
-2.99853
-3.52941
-3.84918
-4.07169
-4.22637
-4.334
-4.40864
-4.45999
-4.49109
-4.50636
-4.50373
-4.47753
-4.38736
-45.731
-8.78546
-5.25897
-2.20054
-2.43016
-3.10131
-3.53678
-3.83374
-4.04972
-4.20354
-4.31259
-4.38931
-4.44175
-4.47266
-4.4842
-4.47344
-4.43335
-4.33879
-35.7948
-9.27671
-6.38076
-3.12498
-2.92218
-3.29027
-3.60418
-3.85508
-4.05049
-4.19567
-4.30165
-4.37743
-4.42904
-4.45876
-4.46768
-4.45307
-4.40907
-4.32201
-27.7783
-8.90749
-6.97422
-3.80324
-3.36226
-3.4991
-3.70116
-3.90065
-4.07
-4.20227
-4.30203
-4.37477
-4.42468
-4.45351
-4.46184
-4.44753
-4.40654
-4.33179
-21.6903
-8.52045
-7.13493
-4.31111
-3.72956
-3.70671
-3.817
-3.96535
-4.10565
-4.22192
-4.31298
-4.38104
-4.42849
-4.45643
-4.46513
-4.45315
-4.41815
-4.35715
-16.613
-8.14113
-7.08859
-4.756
-4.08387
-3.93508
-3.95995
-4.0534
-4.15977
-4.25597
-4.33543
-4.39704
-4.44126
-4.46843
-4.47861
-4.47112
-4.44519
-4.4007
-12.6394
-7.68133
-6.90661
-5.10231
-4.4075
-4.17106
-4.12266
-4.16221
-4.23241
-4.30577
-4.37136
-4.42508
-4.46558
-4.49238
-4.50538
-4.50453
-4.49025
-4.46408
-9.69948
-7.14925
-6.62972
-5.32715
-4.67936
-4.39787
-4.2952
-4.28747
-4.32265
-4.3723
-4.42282
-4.46785
-4.5045
-4.53156
-4.54872
-4.55632
-4.55542
-4.54813
-7.66654
-6.60521
-6.3065
-5.43213
-4.88381
-4.59802
-4.4644
-4.42125
-4.42653
-4.45431
-4.49029
-4.52689
-4.5602
-4.58838
-4.61089
-4.6281
-4.64117
-4.65207
-6.37146
-6.11355
-5.98623
-5.44087
-5.01646
-4.75829
-4.61685
-4.55319
-4.53718
-4.54777
-4.57185
-4.60169
-4.63294
-4.66337
-4.69213
-4.71937
-4.74595
-4.77331
-5.62322
-5.7229
-5.70954
-5.39139
-5.08647
-4.87356
-4.74234
-4.67278
-4.64578
-4.64599
-4.66263
-4.68873
-4.72
-4.75402
-4.78967
-4.8267
-4.86551
-4.90684
-5.24392
-5.46071
-5.50864
-5.32808
-5.11556
-4.94849
-4.83621
-4.77122
-4.74253
-4.73967
-4.75434
-4.78062
-4.81455
-4.8537
-4.89667
-4.94286
-4.99215
-5.0447
-5.10268
-5.34481
-5.41748
-5.29948
-5.13545
-4.99633
-4.89867
-4.84076
-4.81565
-4.81545
-4.83329
-4.86388
-4.90346
-4.94951
-5.0004
-5.05519
-5.11336
-5.17468
-5.14042
-5.40062
-5.47472
-5.34856
-5.17474
-5.029
-4.92872
-4.8715
-4.84957
-4.85441
-4.87859
-4.91642
-4.96378
-5.01785
-5.07675
-5.13927
-5.20464
-5.27245
-5.39271
-5.65507
-5.69077
-5.47563
-5.22639
-5.036
-4.91487
-4.85178
-4.83271
-4.84498
-4.87861
-4.92644
-4.98356
-5.04675
-5.1139
-5.18368
-5.25529
-5.3283
-6.00211
-6.13691
-6.04267
-5.63514
-5.24714
-4.98735
-4.84081
-4.77585
-4.76631
-4.79265
-4.84119
-4.90302
-4.97253
-5.04633
-5.12235
-5.19941
-5.27686
-5.35449
-7.24973
-6.88955
-6.49422
-5.7619
-5.18312
-4.85299
-4.69636
-4.64619
-4.66009
-4.71058
-4.78077
-4.86075
-4.94502
-5.03051
-5.11571
-5.19988
-5.28277
-5.36448
-9.64125
-7.96463
-6.98265
-5.77193
-4.9796
-4.61219
-4.48197
-4.47372
-4.52855
-4.61384
-4.71155
-4.81263
-4.91263
-5.00981
-5.10362
-5.19415
-5.28168
-5.3667
-13.9824
-9.39111
-7.40323
-5.5696
-4.59482
-4.26427
-4.21513
-4.27976
-4.39189
-4.51933
-4.64738
-4.76979
-4.88473
-4.99204
-5.09281
-5.18826
-5.27916
-5.36651
-20.89
-10.9541
-7.55425
-5.05732
-4.01595
-3.83594
-3.93008
-4.09423
-4.27234
-4.44315
-4.59964
-4.74082
-4.86768
-4.98227
-5.08748
-5.1858
-5.27854
-5.36683
-29.7366
-11.9495
-7.0336
-4.12621
-3.26415
-3.37809
-3.6712
-3.94699
-4.18932
-4.39734
-4.5759
-4.73005
-4.86444
-4.98255
-5.08934
-5.18853
-5.28142
-5.3693
-43.1066
-12.614
-5.47288
-2.72905
-2.41337
-2.96358
-3.48443
-3.86259
-4.15388
-4.38619
-4.57793
-4.73799
-4.87421
-4.99124
-5.09667
-5.19544
-5.28733
-5.37412
-84.5995
-17.3735
-3.66419
-1.26555
-1.69614
-2.72198
-3.43637
-3.87017
-4.17376
-4.41089
-4.60702
-4.768
-4.89988
-5.00756
-5.10562
-5.2025
-5.29217
-5.37707
-177.886
-26.8497
-3.68025
-0.770326
-1.53523
-2.84321
-3.61427
-4.01548
-4.27138
-4.46748
-4.6514
-4.8161
-4.95321
-5.04868
-5.1333
-5.22476
-5.3035
-5.38065
-154.79
-9.62737
-3.27249
-1.0684
-1.84324
-3.22103
-3.91388
-4.22525
-4.41782
-4.55935
-4.70269
-4.85423
-5.00739
-5.11871
-5.20606
-5.30232
-5.37571
-5.44121
428.057
66.6054
7.05586
1.5993
-0.915734
-2.85708
-3.65315
-3.99493
-4.31058
-4.57747
-4.70765
-4.75652
-4.80051
-4.90906
-5.03876
-5.13164
-5.23739
-5.34154
-8.52552
-8.51269
-8.50205
-8.54343
-8.63647
-8.74017
-8.82009
-8.8601
-8.86376
-8.84609
-8.81867
-8.7901
-8.76843
-8.75963
-8.76464
-8.77727
-8.78849
-8.79362
-8.79285
-8.79079
-8.79528
-8.828
-8.91823
-9.0896
-9.34262
-9.6604
-10.0316
-10.4454
-10.8864
-11.3384
-11.7864
-12.2184
-12.6251
-12.9999
-13.3385
-13.6385
-13.8988
-14.1196
-14.3013
-14.4451
-14.5523
-14.6241
-14.662
-14.6673
-14.6414
-14.5855
-14.5013
-14.3911
-14.2561
-14.0943
-13.9029
-13.6832
-13.438
-13.169
-12.8774
-12.5643
-12.2309
-11.8779
-11.5066
-11.118
-10.7131
-10.293
-9.8589
-9.41196
-8.95335
-8.48425
-8.00586
-7.51937
-7.026
-6.52691
-6.02327
-5.51622
-5.00688
-4.49633
-3.9856
-3.47571
-2.96761
-2.4622
-1.96036
-1.46288
-0.970533
-0.484009
-0.00395869
0.469024
0.934402
1.3917
1.84048
2.28039
2.7111
3.13236
3.54395
3.94571
4.33745
4.71917
5.09109
5.45322
5.80511
6.14636
6.47695
6.79713
7.10713
7.40716
7.6974
7.97803
8.24925
8.51125
8.76423
9.00842
9.24405
9.4713
9.69041
9.90162
10.1052
10.3014
10.4904
10.6724
10.8478
11.0168
11.1795
11.3363
11.4873
11.6328
11.7729
11.908
12.0381
12.1635
12.2844
12.401
12.5135
12.6219
12.7265
12.8276
12.9255
13.0202
13.1117
13.2
13.2853
13.3677
13.4475
13.5247
13.5993
13.6717
13.7417
13.8096
13.8754
13.9391
14.0009
14.0609
14.1191
14.1755
14.2302
14.2833
14.3348
14.3848
14.4333
14.4803
14.5259
14.5701
14.6128
14.6543
14.6943
14.7331
14.7705
14.8066
14.8415
14.8751
14.9075
14.9387
14.9689
14.9981
15.0264
15.0541
15.0816
15.1092
15.1379
15.1687
15.2041
15.2457
15.3036
15.3641
-8.58297
-8.61423
-8.68818
-8.78179
-8.88526
-8.97746
-9.03871
-9.06309
-9.04604
-8.98558
-8.89582
-8.799
-8.71738
-8.6661
-8.64404
-8.64084
-8.65041
-8.67585
-8.71113
-8.73137
-8.75572
-8.83369
-8.99345
-9.23303
-9.53992
-9.91091
-10.3367
-10.7968
-11.2697
-11.7375
-12.1877
-12.6108
-13.0006
-13.3531
-13.6666
-13.9408
-14.1762
-14.3737
-14.5345
-14.6598
-14.7508
-14.8085
-14.8339
-14.828
-14.7915
-14.7251
-14.6292
-14.5039
-14.3497
-14.1697
-13.9676
-13.7437
-13.497
-13.2277
-12.9365
-12.624
-12.2913
-11.9392
-11.5686
-11.1807
-10.7765
-10.3571
-9.92359
-9.47718
-9.01901
-8.55027
-8.07216
-7.58588
-7.09263
-6.59357
-6.08989
-5.58271
-5.07316
-4.56231
-4.05122
-3.54088
-3.03225
-2.52624
-2.02373
-1.52552
-1.03238
-0.544996
-0.0640353
0.409909
0.876295
1.33463
1.78447
2.22542
2.65713
3.07929
3.49166
3.89399
4.28605
4.66773
5.03912
5.40043
5.75187
6.09345
6.42502
6.74648
7.05788
7.35932
7.65097
7.933
8.20559
8.46893
8.72323
8.9687
9.20558
9.4341
9.65448
9.86695
10.0717
10.2691
10.4593
10.6425
10.819
10.9891
11.1529
11.3107
11.4627
11.6092
11.7503
11.8864
12.0175
12.1441
12.266
12.3837
12.4972
12.6067
12.7125
12.8143
12.9124
13.0071
13.0987
13.1872
13.2727
13.3555
13.4355
13.513
13.588
13.6606
13.7309
13.7991
13.8652
13.9292
13.9914
14.0516
14.11
14.1667
14.2217
14.2751
14.3269
14.3771
14.4258
14.473
14.5188
14.5632
14.6062
14.6478
14.688
14.7269
14.7645
14.8008
14.8358
14.8696
14.9021
14.9335
14.9638
14.9931
15.0215
15.0494
15.0769
15.1047
15.1334
15.1641
15.1989
15.2385
15.2921
15.342
-8.70999
-8.79183
-8.90979
-9.01562
-9.09851
-9.15235
-9.17298
-9.15916
-9.10958
-9.02649
-8.91896
-8.80357
-8.70382
-8.63927
-8.61053
-8.6057
-8.62472
-8.68144
-8.78505
-8.93211
-9.12245
-9.36321
-9.65726
-9.99639
-10.3685
-10.7642
-11.1736
-11.5849
-11.9875
-12.3741
-12.74
-13.0815
-13.3959
-13.6815
-13.9373
-14.1627
-14.3576
-14.5222
-14.6565
-14.7609
-14.8357
-14.8815
-14.8986
-14.8873
-14.8483
-14.7818
-14.6883
-14.5678
-14.4202
-14.2465
-14.0482
-13.8262
-13.5811
-13.3135
-13.024
-12.7134
-12.3825
-12.0322
-11.6634
-11.2772
-10.8745
-10.4566
-10.0244
-9.57915
-9.12203
-8.65418
-8.17682
-7.69114
-7.19834
-6.69959
-6.19608
-5.68894
-5.17928
-4.66821
-4.15676
-3.64595
-3.13674
-2.63005
-2.12675
-1.62766
-1.13355
-0.645126
-0.163048
0.312084
0.77972
1.23937
1.69058
2.13296
2.56619
2.98997
3.40407
3.80827
4.20244
4.58648
4.96038
5.32412
5.67775
6.02128
6.35468
6.67794
6.99114
7.2944
7.58785
7.87167
8.14602
8.41111
8.66713
8.9143
9.15285
9.38299
9.60496
9.81898
10.0253
10.2241
10.4158
10.6004
10.7783
10.9497
11.1148
11.2739
11.4272
11.5749
11.7172
11.8543
11.9864
12.1137
12.2365
12.3549
12.4691
12.5792
12.6855
12.7881
12.8871
12.9829
13.0755
13.165
13.2515
13.3351
13.416
13.4942
13.5699
13.6432
13.7143
13.783
13.8497
13.9143
13.977
14.0378
14.0967
14.1538
14.2093
14.2631
14.3152
14.3659
14.4149
14.4625
14.5086
14.5533
14.5966
14.6385
14.679
14.7182
14.756
14.7926
14.8278
14.8618
14.8945
14.926
14.9565
14.9859
15.0145
15.0424
15.0699
15.0976
15.1261
15.1562
15.1897
15.2263
15.2737
15.3072
-8.7494
-8.84684
-8.94811
-9.03464
-9.09908
-9.13878
-9.15123
-9.13383
-9.08656
-9.01445
-8.92872
-8.84617
-8.78497
-8.75799
-8.77012
-8.82343
-8.92182
-9.06893
-9.26538
-9.50615
-9.78242
-10.087
-10.4139
-10.7567
-11.1101
-11.4689
-11.8276
-12.1813
-12.5252
-12.8552
-13.1681
-13.4612
-13.7323
-13.9798
-14.2024
-14.3992
-14.5696
-14.7132
-14.8297
-14.9193
-14.9818
-15.0173
-15.026
-15.0079
-14.9633
-14.8922
-14.7951
-14.6721
-14.5239
-14.3511
-14.1542
-13.9337
-13.6903
-13.4243
-13.1365
-12.8276
-12.4983
-12.1496
-11.7824
-11.3976
-10.9962
-10.5794
-10.1482
-9.70387
-9.24744
-8.78014
-8.30318
-7.81773
-7.325
-6.82617
-6.32241
-5.81488
-5.30469
-4.79293
-4.28067
-3.76892
-3.25865
-2.75078
-2.24619
-1.74572
-1.25012
-0.76012
-0.276385
0.200478
0.669914
1.13142
1.58455
2.02891
2.46416
2.89001
3.30622
3.71259
4.10898
4.49531
4.87152
5.23759
5.59348
5.93917
6.27468
6.60003
6.9153
7.22063
7.51613
7.80198
8.07834
8.3454
8.60338
8.85246
9.09289
9.32487
9.54863
9.76441
9.97244
10.173
10.3663
10.5525
10.732
10.9049
11.0715
11.232
11.3866
11.5356
11.6791
11.8175
11.9508
12.0793
12.2033
12.3228
12.438
12.5492
12.6566
12.7602
12.8603
12.9571
13.0507
13.1411
13.2284
13.3129
13.3946
13.4736
13.5501
13.6241
13.6958
13.7653
13.8326
13.8978
13.961
14.0223
14.0818
14.1395
14.1954
14.2496
14.3023
14.3533
14.4028
14.4508
14.4973
14.5423
14.5859
14.6281
14.669
14.7084
14.7465
14.7833
14.8188
14.853
14.8859
14.9176
14.9482
14.9777
15.0063
15.0342
15.0616
15.0889
15.1168
15.1457
15.177
15.2095
15.2489
15.2675
-8.53752
-8.62243
-8.72253
-8.81963
-8.89699
-8.94971
-8.9768
-8.97907
-8.961
-8.93088
-8.9008
-8.88474
-8.89549
-8.94262
-9.03232
-9.16774
-9.34896
-9.57142
-9.82669
-10.1067
-10.406
-10.7203
-11.0453
-11.376
-11.7081
-12.0378
-12.3617
-12.6767
-12.98
-13.2693
-13.5426
-13.798
-14.0342
-14.2501
-14.4444
-14.6165
-14.7657
-14.8912
-14.9928
-15.0699
-15.1224
-15.15
-15.1526
-15.13
-15.0823
-15.0094
-14.9113
-14.7884
-14.6408
-14.469
-14.2733
-14.0541
-13.8121
-13.5476
-13.2612
-12.9538
-12.626
-12.2787
-11.9128
-11.5292
-11.129
-10.7131
-10.2828
-9.8391
-9.38321
-8.91632
-8.43961
-7.95426
-7.46148
-6.96245
-6.45836
-5.95034
-5.43953
-4.92702
-4.41387
-3.90111
-3.38971
-2.88061
-2.37468
-1.87276
-1.37562
-0.883991
-0.398542
0.0801135
0.551415
1.01486
1.46999
1.91641
2.35378
2.7818
3.20023
3.60886
4.00754
4.39618
4.77469
5.14304
5.50119
5.84913
6.18686
6.51444
6.83194
7.13947
7.43718
7.7252
8.00372
8.27292
8.53299
8.78415
9.02661
9.26062
9.48636
9.70409
9.91402
10.1164
10.3115
10.4995
10.6807
10.8552
11.0235
11.1855
11.3417
11.4922
11.6373
11.777
11.9118
12.0417
12.1669
12.2877
12.4042
12.5167
12.6251
12.7299
12.8311
12.9289
13.0234
13.1148
13.2031
13.2884
13.371
13.4508
13.5281
13.6029
13.6753
13.7455
13.8135
13.8794
13.9433
14.0052
14.0652
14.1235
14.1799
14.2347
14.2878
14.3394
14.3893
14.4377
14.4846
14.5301
14.5741
14.6167
14.6578
14.6976
14.7361
14.7731
14.8089
14.8433
14.8764
14.9083
14.9389
14.9685
14.9971
15.0248
15.0519
15.0787
15.1056
15.1329
15.1615
15.1893
15.2209
15.227
-8.11755
-8.20596
-8.32689
-8.44959
-8.55482
-8.63524
-8.69355
-8.73563
-8.76912
-8.80378
-8.85059
-8.91983
-9.01955
-9.15455
-9.32705
-9.53605
-9.77687
-10.0439
-10.3319
-10.6351
-10.9481
-11.266
-11.585
-11.9015
-12.2128
-12.5167
-12.8114
-13.0951
-13.3665
-13.6243
-13.8672
-14.0941
-14.304
-14.4959
-14.6688
-14.8219
-14.9545
-15.0659
-15.1554
-15.2226
-15.2668
-15.2879
-15.2853
-15.2588
-15.2083
-15.1336
-15.0346
-14.9114
-14.7641
-14.5929
-14.3982
-14.1802
-13.9394
-13.6762
-13.3913
-13.0853
-12.7589
-12.413
-12.0484
-11.666
-11.2669
-10.8521
-10.4227
-9.9797
-9.52441
-9.05797
-8.58156
-8.09636
-7.60358
-7.1044
-6.59999
-6.09153
-5.58012
-5.06689
-4.55288
-4.03914
-3.52664
-3.01631
-2.50906
-2.0057
-1.50704
-1.01379
-0.526639
-0.046197
0.426968
0.892345
1.34948
1.79797
2.23746
2.66765
3.0883
3.49919
3.90017
4.29112
4.67194
5.04259
5.40303
5.75325
6.09327
6.42313
6.74291
7.05272
7.35269
7.64297
7.92373
8.19515
8.45742
8.71074
8.95534
9.19142
9.41921
9.63895
9.85087
10.0552
10.2522
10.4421
10.6251
10.8015
10.9714
11.1352
11.2931
11.4452
11.5918
11.7331
11.8694
12.0007
12.1274
12.2496
12.3674
12.4811
12.5909
12.6969
12.7992
12.8981
12.9937
13.0861
13.1753
13.2617
13.3452
13.4259
13.5041
13.5797
13.653
13.724
13.7927
13.8593
13.9239
13.9865
14.0472
14.1061
14.1631
14.2185
14.2722
14.3242
14.3747
14.4236
14.471
14.5169
14.5613
14.6043
14.6458
14.686
14.7247
14.7621
14.7981
14.8328
14.8661
14.8982
14.9289
14.9585
14.987
15.0145
15.0411
15.0672
15.0929
15.1182
15.1437
15.1666
15.191
15.1864
-7.65254
-7.75122
-7.89328
-8.04207
-8.18002
-8.29865
-8.40155
-8.49805
-8.59755
-8.70897
-8.83993
-8.99532
-9.17789
-9.38808
-9.6242
-9.88412
-10.1649
-10.4618
-10.7696
-11.0833
-11.3985
-11.7117
-12.0204
-12.3223
-12.6158
-12.8998
-13.1732
-13.435
-13.6844
-13.9206
-14.1426
-14.3497
-14.541
-14.7158
-14.8731
-15.0121
-15.1322
-15.2326
-15.3126
-15.3715
-15.4089
-15.4242
-15.4169
-15.3868
-15.3334
-15.2566
-15.1562
-15.0321
-14.8845
-14.7133
-14.5189
-14.3015
-14.0614
-13.7992
-13.5153
-13.2104
-12.8852
-12.5405
-12.1771
-11.7959
-11.3979
-10.9842
-10.5558
-10.1138
-9.65935
-9.19365
-8.71785
-8.23316
-7.74076
-7.24184
-6.73756
-6.22908
-5.71753
-5.20402
-4.6896
-4.17531
-3.66213
-3.15101
-2.64283
-2.13843
-1.6386
-1.14408
-0.655546
-0.173622
0.301121
0.76817
1.22706
1.67739
2.11879
2.55097
2.97366
3.38664
3.78976
4.18287
4.56589
4.93875
5.3014
5.65384
5.99609
6.32819
6.65023
6.96229
7.26451
7.55703
7.84002
8.11365
8.37811
8.63362
8.88036
9.11857
9.34847
9.57028
9.78424
9.99058
10.1895
10.3814
10.5663
10.7445
10.9163
11.0819
11.2415
11.3953
11.5435
11.6865
11.8243
11.9572
12.0853
12.2089
12.3282
12.4432
12.5543
12.6616
12.7651
12.8652
12.962
13.0554
13.1458
13.2331
13.3176
13.3994
13.4785
13.5551
13.6292
13.701
13.7706
13.838
13.9033
13.9666
14.028
14.0876
14.1453
14.2013
14.2555
14.3082
14.3592
14.4086
14.4565
14.5029
14.5478
14.5912
14.6332
14.6737
14.7128
14.7506
14.7869
14.8218
14.8553
14.8875
14.9183
14.9479
14.9762
15.0034
15.0295
15.0546
15.0789
15.102
15.1242
15.1423
15.1601
15.1462
-7.2969
-7.39037
-7.54241
-7.70814
-7.87497
-8.03595
-8.19055
-8.34667
-8.51254
-8.69397
-8.895
-9.11686
-9.3581
-9.61787
-9.89558
-10.1889
-10.4942
-10.8069
-11.1229
-11.4387
-11.7512
-12.0581
-12.3578
-12.6487
-12.9299
-13.2005
-13.4598
-13.7072
-13.9421
-14.1639
-14.3719
-14.5656
-14.7441
-14.9068
-15.053
-15.1819
-15.2928
-15.3849
-15.4576
-15.5102
-15.542
-15.5525
-15.5412
-15.5077
-15.4515
-15.3725
-15.2703
-15.145
-14.9963
-14.8245
-14.6297
-14.4121
-14.172
-13.91
-13.6264
-13.3219
-12.9972
-12.6531
-12.2904
-11.9099
-11.5127
-11.0998
-10.6722
-10.231
-9.77736
-9.31245
-8.83742
-8.35345
-7.86173
-7.36342
-6.8597
-6.35171
-5.84056
-5.32736
-4.81315
-4.29898
-3.7858
-3.27457
-2.76617
-2.26143
-1.76115
-1.26605
-0.776819
-0.294082
0.181589
0.649677
1.10972
1.5613
2.00406
2.43768
2.86191
3.27651
3.68131
4.07617
4.46098
4.83567
5.20021
5.55457
5.89877
6.23286
6.55692
6.87102
7.17531
7.46991
7.75498
8.0307
8.29726
8.55484
8.80367
9.04394
9.27588
9.49973
9.71569
9.92402
10.1249
10.3187
10.5055
10.6856
10.8592
11.0266
11.1879
11.3434
11.4934
11.638
11.7774
11.9118
12.0415
12.1666
12.2873
12.4037
12.5162
12.6247
12.7296
12.8309
12.9288
13.0235
13.1149
13.2034
13.2889
13.3717
13.4518
13.5293
13.6044
13.677
13.7475
13.8157
13.8818
13.9459
14.0081
14.0683
14.1267
14.1834
14.2383
14.2915
14.3431
14.3931
14.4415
14.4884
14.5338
14.5777
14.6201
14.6611
14.7006
14.7386
14.7753
14.8104
14.8442
14.8765
14.9074
14.9369
14.965
14.9918
15.0172
15.0413
15.064
15.0848
15.1036
15.117
15.1287
15.1068
-7.10658
-7.19269
-7.34681
-7.51917
-7.70257
-7.89488
-8.09267
-8.29794
-8.51525
-8.74703
-8.99358
-9.25487
-9.53082
-9.82105
-10.1237
-10.4354
-10.7527
-11.0721
-11.3906
-11.7056
-12.0149
-12.3169
-12.6102
-12.8939
-13.167
-13.4291
-13.6795
-13.9178
-14.1435
-14.3562
-14.5553
-14.7403
-14.9105
-15.0653
-15.2041
-15.326
-15.4305
-15.5168
-15.5841
-15.6319
-15.6594
-15.6662
-15.6516
-15.6151
-15.5564
-15.4752
-15.3712
-15.2442
-15.0943
-14.9214
-14.7256
-14.5073
-14.2667
-14.0042
-13.7203
-13.4157
-13.091
-12.7469
-12.3843
-12.0041
-11.6073
-11.1948
-10.7676
-10.327
-9.87399
-9.40974
-8.93541
-8.45217
-7.96118
-7.46363
-6.96066
-6.4534
-5.94297
-5.43046
-4.9169
-4.40332
-3.89069
-3.37992
-2.87191
-2.36748
-1.86741
-1.37243
-0.88321
-0.400382
0.0754877
0.543883
1.00434
1.45644
1.89983
2.33418
2.75923
3.17476
3.58058
3.97655
4.36255
4.73852
5.1044
5.46017
5.80585
6.14148
6.46713
6.78288
7.08886
7.38519
7.67203
7.94954
8.21791
8.47733
8.728
8.97012
9.20392
9.42962
9.64743
9.8576
10.0603
10.2559
10.4445
10.6264
10.8017
10.9708
11.1339
11.2911
11.4427
11.5888
11.7298
11.8658
11.997
12.1235
12.2457
12.3635
12.4773
12.5872
12.6934
12.7959
12.895
12.9908
13.0834
13.173
13.2596
13.3434
13.4245
13.503
13.579
13.6526
13.7239
13.793
13.8599
13.9248
13.9877
14.0487
14.1078
14.1651
14.2207
14.2745
14.3267
14.3773
14.4263
14.4738
14.5196
14.564
14.6069
14.6483
14.6882
14.7266
14.7636
14.799
14.833
14.8654
14.8963
14.9258
14.9536
14.9799
15.0046
15.0275
15.0485
15.0669
15.0824
15.0913
15.0975
15.0685
-7.07871
-7.16555
-7.31325
-7.48204
-7.66878
-7.87334
-8.09257
-8.32448
-8.56931
-8.82766
-9.09904
-9.3826
-9.67809
-9.98436
-10.2987
-10.6181
-10.9397
-11.2608
-11.579
-11.8922
-12.1986
-12.497
-12.7861
-13.0653
-13.3337
-13.5909
-13.8363
-14.0696
-14.2903
-14.4979
-14.692
-14.872
-15.0375
-15.1876
-15.3219
-15.4396
-15.54
-15.6224
-15.6862
-15.7306
-15.755
-15.7589
-15.7416
-15.7027
-15.6419
-15.5586
-15.4528
-15.3242
-15.1728
-14.9985
-14.8016
-14.5823
-14.3408
-14.0775
-13.7931
-13.4879
-13.1629
-12.8186
-12.4559
-12.0757
-11.679
-11.2668
-10.84
-10.3999
-9.94745
-9.48387
-9.01029
-8.52787
-8.03777
-7.54115
-7.03915
-6.53289
-6.02348
-5.51198
-4.99944
-4.48686
-3.9752
-3.46536
-2.95823
-2.45462
-1.95531
-1.46102
-0.972412
-0.490108
-0.0146662
0.453401
0.913634
1.36562
1.80901
2.24347
2.66874
3.08458
3.49082
3.8873
4.27391
4.65057
5.01723
5.37388
5.72051
6.05717
6.38393
6.70086
7.00808
7.30572
7.59392
7.87284
8.14267
8.40357
8.65576
8.89944
9.13481
9.3621
9.58152
9.79329
9.99765
10.1948
10.385
10.5685
10.7455
10.9162
11.0808
11.2395
11.3926
11.5403
11.6828
11.8202
11.9528
12.0808
12.2043
12.3235
12.4387
12.5498
12.6572
12.761
12.8613
12.9582
13.052
13.1426
13.2303
13.3151
13.3972
13.4766
13.5535
13.6281
13.7002
13.7702
13.8379
13.9036
13.9673
14.029
14.0888
14.1468
14.2031
14.2576
14.3104
14.3616
14.4111
14.4591
14.5056
14.5504
14.5938
14.6356
14.6759
14.7147
14.752
14.7877
14.8218
14.8544
14.8854
14.9146
14.9422
14.968
14.9918
15.0135
15.0328
15.0488
15.061
15.0657
15.067
15.0319
-7.18963
-7.268
-7.39894
-7.55484
-7.73348
-7.93458
-8.15542
-8.39343
-8.64695
-8.91467
-9.19491
-9.48656
-9.78867
-10.0993
-10.4159
-10.736
-11.0571
-11.3767
-11.6929
-12.0039
-12.3079
-12.604
-12.8909
-13.1678
-13.4342
-13.6894
-13.9329
-14.1643
-14.3831
-14.5888
-14.781
-14.959
-15.1224
-15.2704
-15.4025
-15.518
-15.6163
-15.6965
-15.7581
-15.8004
-15.8227
-15.8245
-15.8052
-15.7644
-15.7017
-15.6167
-15.5092
-15.379
-15.2261
-15.0505
-14.8524
-14.6319
-14.3894
-14.1253
-13.8402
-13.5345
-13.2091
-12.8646
-12.5018
-12.1217
-11.7252
-11.3134
-10.8871
-10.4477
-9.99602
-9.53336
-9.06081
-8.57953
-8.09066
-7.59535
-7.09473
-6.5899
-6.08195
-5.57196
-5.06094
-4.54987
-4.03971
-3.53134
-3.02564
-2.52341
-2.02542
-1.53236
-1.04491
-0.563668
-0.0891969
0.377999
0.837462
1.28879
1.73161
2.16563
2.59055
3.00617
3.41229
3.80876
4.19546
4.57232
4.93927
5.29631
5.64343
5.98068
6.30811
6.6258
6.93386
7.23241
7.5216
7.80157
8.07251
8.33458
8.58798
8.8329
9.06957
9.29817
9.51894
9.73209
9.93784
10.1364
10.328
10.5129
10.6913
10.8634
11.0295
11.1896
11.3442
11.4932
11.6371
11.7759
11.9098
12.0391
12.1639
12.2844
12.4008
12.5132
12.6217
12.7267
12.8281
12.9261
13.0209
13.1126
13.2013
13.2871
13.3702
13.4506
13.5285
13.6039
13.6769
13.7477
13.8162
13.8827
13.9471
14.0096
14.0701
14.1288
14.1857
14.2409
14.2943
14.3461
14.3962
14.4448
14.4917
14.5371
14.5809
14.6232
14.6639
14.7031
14.7407
14.7767
14.811
14.8437
14.8747
14.9038
14.9311
14.9563
14.9793
14.9997
15.0172
15.0308
15.0399
15.0406
15.0374
14.9971
-7.36615
-7.43073
-7.54164
-7.68007
-7.8439
-8.03264
-8.24395
-8.47516
-8.7238
-8.98756
-9.26419
-9.55253
-9.85136
-10.1585
-10.4714
-10.7878
-11.1053
-11.4218
-11.7353
-12.0441
-12.3466
-12.6416
-12.9279
-13.2048
-13.4713
-13.7269
-13.971
-14.203
-14.4223
-14.6286
-14.8211
-14.9994
-15.1627
-15.3106
-15.4424
-15.5573
-15.6548
-15.7341
-15.7947
-15.8357
-15.8567
-15.8571
-15.8364
-15.7941
-15.7299
-15.6433
-15.5343
-15.4028
-15.2485
-15.0717
-14.8724
-14.651
-14.4076
-14.1429
-13.8572
-13.5512
-13.2255
-12.881
-12.5185
-12.1388
-11.7429
-11.3318
-10.9066
-10.4683
-10.0179
-9.5567
-9.08574
-8.60616
-8.11911
-7.62571
-7.12707
-6.62429
-6.11844
-5.61056
-5.10167
-4.59272
-4.08468
-3.5784
-3.07475
-2.57451
-2.07843
-1.58723
-1.10154
-0.621968
-0.149064
0.316672
0.774791
1.22489
1.66661
2.09963
2.5237
2.93858
3.34409
3.74006
4.12639
4.50299
4.8698
5.22681
5.57402
5.91146
6.23918
6.55727
6.86582
7.16495
7.45479
7.73551
8.00725
8.2702
8.52453
8.77046
9.00816
9.23786
9.45975
9.67407
9.88101
10.0808
10.2737
10.4598
10.6395
10.8128
10.9802
11.1416
11.2974
11.4478
11.5929
11.7329
11.8681
11.9986
12.1246
12.2463
12.3639
12.4774
12.5872
12.6932
12.7957
12.8948
12.9906
13.0833
13.173
13.2598
13.3438
13.4251
13.5039
13.5801
13.654
13.7256
13.795
13.8622
13.9274
13.9906
14.0518
14.1112
14.1688
14.2246
14.2787
14.331
14.3817
14.4308
14.4783
14.5242
14.5685
14.6113
14.6524
14.6919
14.7299
14.7661
14.8007
14.8335
14.8644
14.8934
14.9203
14.9449
14.967
14.9862
15.002
15.0133
15.0194
15.0165
15.0092
14.9644
-7.54007
-7.59155
-7.68412
-7.80471
-7.95134
-8.12348
-8.31907
-8.53574
-8.77101
-9.02234
-9.28771
-9.56598
-9.85578
-10.1549
-10.4608
-10.7713
-11.084
-11.3967
-11.7076
-12.0148
-12.3167
-12.612
-12.8994
-13.1779
-13.4465
-13.7045
-13.9511
-14.1857
-14.4076
-14.6162
-14.8109
-14.9911
-15.1561
-15.3052
-15.4379
-15.5535
-15.6512
-15.7305
-15.7908
-15.8313
-15.8516
-15.8511
-15.8293
-15.7859
-15.7204
-15.6327
-15.5225
-15.3898
-15.2345
-15.0568
-14.8567
-14.6345
-14.3907
-14.1256
-13.8398
-13.5339
-13.2086
-12.8647
-12.5029
-12.1242
-11.7295
-11.3199
-10.8963
-10.4597
-10.0114
-9.55237
-9.08373
-8.60661
-8.12214
-7.63142
-7.13554
-6.63559
-6.13261
-5.62763
-5.12164
-4.6156
-4.11042
-3.60699
-3.10612
-2.6086
-2.11515
-1.62648
-1.14323
-0.665977
-0.195274
0.268389
0.724567
1.17286
1.61292
2.04442
2.46711
2.88075
3.28516
3.68017
4.06568
4.4416
4.80786
5.16446
5.51137
5.84864
6.17632
6.49447
6.80319
7.1026
7.39282
7.674
7.9463
8.20987
8.46492
8.71161
8.95015
9.18073
9.40357
9.61886
9.82683
10.0277
10.2216
10.4089
10.5897
10.7642
10.9327
11.0953
11.2523
11.4038
11.5501
11.6913
11.8277
11.9593
12.0865
12.2093
12.328
12.4426
12.5534
12.6606
12.7641
12.8642
12.9611
13.0548
13.1454
13.2331
13.318
13.4002
13.4799
13.557
13.6317
13.7041
13.7742
13.8422
13.9082
13.9721
14.034
14.0941
14.1523
14.2087
14.2634
14.3164
14.3677
14.4174
14.4654
14.5118
14.5566
14.5998
14.6414
14.6813
14.7195
14.7561
14.7908
14.8237
14.8547
14.8835
14.9101
14.9342
14.9554
14.9733
14.9874
14.9965
14.9998
14.9936
14.9826
14.9341
-7.66687
-7.70905
-7.78624
-7.89019
-8.01942
-8.17349
-8.35064
-8.54892
-8.76632
-9.00064
-9.25049
-9.51514
-9.79317
-10.0823
-10.38
-10.684
-10.9918
-11.3013
-11.6104
-11.9172
-12.2199
-12.5169
-12.807
-13.0888
-13.3613
-13.6234
-13.8742
-14.113
-14.3389
-14.5512
-14.7493
-14.9325
-15.1001
-15.2514
-15.3858
-15.5027
-15.6013
-15.6811
-15.7415
-15.782
-15.8019
-15.8008
-15.7783
-15.7341
-15.6677
-15.5791
-15.4681
-15.3346
-15.1787
-15.0004
-14.7999
-14.5776
-14.3339
-14.0691
-13.7838
-13.4787
-13.1545
-12.8119
-12.4517
-12.0749
-11.6823
-11.275
-10.8539
-10.4202
-9.97483
-9.51894
-9.0536
-8.57993
-8.09901
-7.61194
-7.11979
-6.62362
-6.12445
-5.6233
-5.12112
-4.61886
-4.11742
-3.61765
-3.12039
-2.62637
-2.13633
-1.65094
-1.17083
-0.696595
-0.228759
0.23219
0.685812
1.13171
1.56953
1.99897
2.41976
2.83166
3.2345
3.62811
4.01237
4.38719
4.75252
5.10832
5.45459
5.79136
6.11867
6.43659
6.7452
7.04462
7.33496
7.61636
7.88898
8.15297
8.40851
8.65578
8.89497
9.12627
9.34988
9.56601
9.77486
9.97663
10.1715
10.3598
10.5416
10.7172
10.8867
11.0504
11.2085
11.3611
11.5085
11.6508
11.7883
11.9211
12.0493
12.1732
12.293
12.4087
12.5205
12.6286
12.7332
12.8343
12.9321
13.0268
13.1184
13.207
13.2928
13.3759
13.4564
13.5343
13.6099
13.683
13.754
13.8227
13.8894
13.954
14.0167
14.0774
14.1363
14.1934
14.2487
14.3023
14.3541
14.4044
14.4529
14.4999
14.5452
14.5888
14.6308
14.6712
14.7098
14.7466
14.7816
14.8146
14.8456
14.8743
14.9005
14.924
14.9444
14.9612
14.9736
14.9807
14.9814
14.9722
14.9579
14.9062
-7.72233
-7.76058
-7.82617
-7.91516
-8.02738
-8.16278
-8.32032
-8.49867
-8.69628
-8.91161
-9.14414
-9.39379
-9.65921
-9.93801
-10.2276
-10.5255
-10.8293
-11.1366
-11.4451
-11.7528
-12.0577
-12.358
-12.6522
-12.9387
-13.2162
-13.4836
-13.7397
-13.9837
-14.2145
-14.4314
-14.6337
-14.8205
-14.9912
-15.1451
-15.2816
-15.4001
-15.4999
-15.5805
-15.6414
-15.6819
-15.7017
-15.7003
-15.6774
-15.6327
-15.5659
-15.4768
-15.3655
-15.2317
-15.0757
-14.8976
-14.6975
-14.4758
-14.233
-13.9694
-13.6856
-13.3823
-13.0602
-12.72
-12.3625
-11.9886
-11.5993
-11.1955
-10.7782
-10.3484
-9.90715
-9.45557
-8.9947
-8.52562
-8.0494
-7.56711
-7.07979
-6.58848
-6.09418
-5.59788
-5.10052
-4.60302
-4.10625
-3.61107
-3.11826
-2.62861
-2.14279
-1.66146
-1.18526
-0.714753
-0.25047
0.207108
0.657546
1.10045
1.53547
1.9623
2.38067
2.79035
3.19115
3.58291
3.96551
4.33885
4.70287
5.05753
5.40283
5.73878
6.06543
6.38284
6.69108
6.99026
7.28049
7.5619
7.83464
8.09885
8.35472
8.6024
8.84208
9.07395
9.2982
9.51504
9.72464
9.92723
10.123
10.3122
10.4949
10.6714
10.8419
11.0067
11.1657
11.3194
11.4678
11.6112
11.7497
11.8836
12.0129
12.1378
12.2586
12.3753
12.4882
12.5973
12.7029
12.805
12.9037
12.9993
13.0918
13.1813
13.268
13.352
13.4333
13.5121
13.5884
13.6624
13.7341
13.8036
13.871
13.9364
13.9997
14.0611
14.1207
14.1784
14.2343
14.2885
14.341
14.3918
14.441
14.4884
14.5342
14.5784
14.6209
14.6616
14.7006
14.7377
14.7729
14.8061
14.8371
14.8657
14.8917
14.9147
14.9343
14.9499
14.9609
14.966
14.9644
14.9524
14.9351
14.8808
-7.70792
-7.74261
-7.79944
-7.87458
-7.96959
-8.08529
-8.22169
-8.37842
-8.55471
-8.74986
-8.9643
-9.19853
-9.45135
-9.72029
-10.0026
-10.2957
-10.5968
-10.9035
-11.2131
-11.5233
-11.832
-12.137
-12.4365
-12.7287
-13.0123
-13.2857
-13.5477
-13.7973
-14.0334
-14.2551
-14.4616
-14.6521
-14.8259
-14.9824
-15.121
-15.241
-15.342
-15.4234
-15.4848
-15.5256
-15.5455
-15.5442
-15.5212
-15.4765
-15.4097
-15.3208
-15.2098
-15.0766
-14.9214
-14.7443
-14.5456
-14.3256
-14.0848
-13.8235
-13.5425
-13.2422
-12.9234
-12.5869
-12.2335
-11.864
-11.4793
-11.0803
-10.6681
-10.2436
-9.80791
-9.36199
-8.90691
-8.44373
-7.97348
-7.49721
-7.01594
-6.53067
-6.04238
-5.55204
-5.06057
-4.56886
-4.07778
-3.58813
-3.10072
-2.61628
-2.13552
-1.65908
-1.18755
-0.721506
-0.261466
0.192087
0.63872
1.07804
1.5097
1.93339
2.34884
2.75583
3.15414
3.54364
3.92417
4.29566
4.65802
5.01122
5.35525
5.69011
6.01583
6.33248
6.64011
6.93884
7.22875
7.50998
7.78266
8.04693
8.30296
8.55091
8.79096
9.02328
9.24806
9.46548
9.67576
9.87907
10.0756
10.2656
10.4492
10.6266
10.7981
10.9637
11.1238
11.2784
11.4279
11.5723
11.7118
11.8466
11.977
12.1029
12.2247
12.3425
12.4563
12.5664
12.673
12.776
12.8757
12.9722
13.0656
13.1561
13.2436
13.3285
13.4106
13.4902
13.5674
13.6422
13.7146
13.7849
13.853
13.9191
13.9831
14.0452
14.1054
14.1638
14.2204
14.2752
14.3283
14.3797
14.4294
14.4774
14.5238
14.5684
14.6114
14.6526
14.6919
14.7294
14.7649
14.7983
14.8293
14.8579
14.8836
14.9061
14.925
14.9397
14.9492
14.9526
14.9489
14.9345
14.9145
14.858
-7.64421
-7.66991
-7.71603
-7.77465
-7.8494
-7.94228
-8.0545
-8.18696
-8.33989
-8.51355
-8.70935
-8.92831
-9.16925
-9.42948
-9.70602
-9.99589
-10.2961
-10.6038
-10.9161
-11.2304
-11.544
-11.8547
-12.1603
-12.4589
-12.7487
-13.0283
-13.2962
-13.5512
-13.7922
-14.0183
-14.2287
-14.4226
-14.5992
-14.758
-14.8984
-15.0198
-15.1219
-15.2042
-15.2662