/*--------------------------------*- C++ -*----------------------------------*\
  =========                 |
  \\      /  F ield         | OpenFOAM: The Open Source CFD Toolbox
   \\    /   O peration     | Website:  https://openfoam.org
    \\  /    A nd           | Version:  8
     \\/     M anipulation  |
\*---------------------------------------------------------------------------*/
FoamFile
{
    version     2.0;
    format      ascii;
    class       volVectorField;
    location    "4500";
    object      U;
}
// * * * * * * * * * * * * * * * * * * * * * * * * * * * * * * * * * * * * * //

dimensions      [0 1 -1 0 0 0 0];

internalField   nonuniform List<vector> 
12225
(
(9.2745 -4.73371 0)
(13.1094 -1.71343 0)
(12.4778 -0.395198 0)
(11.2771 -0.0422041 0)
(10.6314 0.0141384 0)
(10.2979 -9.40503e-05 0)
(10.0776 -0.0165234 0)
(9.91227 -0.00288838 0)
(9.77909 0.0348744 0)
(9.66231 0.0428923 0)
(9.55575 0.0248825 0)
(9.45767 0.00214136 0)
(9.36676 -0.0227925 0)
(9.28211 -0.0302259 0)
(9.20232 -0.0217885 0)
(9.13253 -0.021228 0)
(9.07015 -0.02104 0)
(9.08961 -0.0276962 0)
(10.2592 0.0928019 0)
(10.7814 0.199339 0)
(10.9594 0.245656 0)
(10.7469 0.229143 0)
(10.5875 0.172969 0)
(10.4527 0.115535 0)
(10.33 0.0823313 0)
(10.2327 0.0647297 0)
(10.155 0.0524763 0)
(10.0894 0.0472334 0)
(10.0323 0.0469924 0)
(9.98212 0.04899 0)
(9.93785 0.0517974 0)
(9.89832 0.0519425 0)
(9.8615 0.0483253 0)
(9.82885 0.0438436 0)
(9.79428 0.0300811 0)
(9.76827 0.0102861 0)
(9.87768 -0.24504 0)
(9.74285 0.00579114 0)
(10.1971 0.125744 0)
(10.3245 0.179364 0)
(10.3564 0.161548 0)
(10.3311 0.120077 0)
(10.2777 0.0904939 0)
(10.2252 0.0746655 0)
(10.1812 0.0658749 0)
(10.1438 0.0600285 0)
(10.1103 0.056208 0)
(10.0799 0.0536506 0)
(10.052 0.0511361 0)
(10.026 0.048762 0)
(10.0023 0.0460756 0)
(9.98117 0.0417685 0)
(9.95915 0.0316718 0)
(9.93458 0.0135806 0)
(9.83416 -0.443933 0)
(9.57654 -0.163146 0)
(9.91603 0.0336707 0)
(10.0933 0.134225 0)
(10.1892 0.145473 0)
(10.2168 0.120738 0)
(10.205 0.0978951 0)
(10.1824 0.0839092 0)
(10.1599 0.0756293 0)
(10.1389 0.0697118 0)
(10.119 0.065134 0)
(10.1001 0.0616371 0)
(10.0821 0.058613 0)
(10.0648 0.0562293 0)
(10.0483 0.0538551 0)
(10.0325 0.0501457 0)
(10.0148 0.0424201 0)
(9.99178 0.0306163 0)
(9.87825 -0.387476 0)
(9.61653 -0.196147 0)
(9.81623 -0.01867 0)
(9.96136 0.0916131 0)
(10.0698 0.122197 0)
(10.1219 0.113628 0)
(10.1354 0.0992641 0)
(10.1332 0.0884208 0)
(10.1257 0.0809482 0)
(10.1162 0.0753962 0)
(10.1056 0.0711238 0)
(10.0946 0.0678816 0)
(10.0833 0.0652541 0)
(10.0718 0.0631568 0)
(10.0601 0.0610452 0)
(10.0477 0.0581077 0)
(10.0328 0.0530829 0)
(10.0125 0.0469062 0)
(9.91439 -0.28804 0)
(9.68304 -0.185176 0)
(9.78717 -0.0532073 0)
(9.88917 0.0509995 0)
(9.98796 0.0936802 0)
(10.0476 0.099204 0)
(10.0751 0.0938743 0)
(10.0861 0.087518 0)
(10.0892 0.0821203 0)
(10.0879 0.0777643 0)
(10.0842 0.0743506 0)
(10.0789 0.07176 0)
(10.0726 0.0697419 0)
(10.0653 0.0681725 0)
(10.0572 0.0667267 0)
(10.0476 0.0650446 0)
(10.0354 0.0627852 0)
(10.0185 0.0611734 0)
(9.93763 -0.214041 0)
(9.74856 -0.167535 0)
(9.79244 -0.0752152 0)
(9.85608 0.0162208 0)
(9.93595 0.0644222 0)
(9.99281 0.0805954 0)
(10.0261 0.0835613 0)
(10.0447 0.0822434 0)
(10.0546 0.0797792 0)
(10.0593 0.0772873 0)
(10.0606 0.0751758 0)
(10.0596 0.0735592 0)
(10.057 0.0723896 0)
(10.053 0.0716359 0)
(10.0477 0.0711917 0)
(10.0407 0.0710174 0)
(10.0312 0.0712802 0)
(10.0182 0.0731548 0)
(9.95263 -0.167334 0)
(9.79947 -0.149676 0)
(9.81177 -0.0846411 0)
(9.84959 -0.00621003 0)
(9.9114 0.0419322 0)
(9.96107 0.0638973 0)
(9.99432 0.0725501 0)
(10.0156 0.0752862 0)
(10.0288 0.0755298 0)
(10.0367 0.0749035 0)
(10.041 0.0741478 0)
(10.0427 0.0735819 0)
(10.0425 0.0733236 0)
(10.0408 0.0734494 0)
(10.0375 0.0740069 0)
(10.0325 0.0751378 0)
(10.0254 0.0772067 0)
(10.0157 0.0812069 0)
(9.96406 -0.132089 0)
(9.84003 -0.131988 0)
(9.83337 -0.0876897 0)
(9.85306 -0.0213324 0)
(9.89927 0.0244159 0)
(9.94102 0.0495133 0)
(9.97207 0.0621235 0)
(9.99385 0.0680769 0)
(10.0086 0.0706961 0)
(10.0184 0.0717947 0)
(10.0246 0.0723178 0)
(10.0282 0.0727539 0)
(10.0298 0.0733611 0)
(10.0297 0.0743199 0)
(10.028 0.0757883 0)
(10.0248 0.0780093 0)
(10.0197 0.0814128 0)
(10.0129 0.0868101 0)
(9.97418 -0.100205 0)
(9.87757 -0.11239 0)
(9.85857 -0.085366 0)
(9.86387 -0.0323326 0)
(9.89487 0.00892922 0)
(9.92743 0.0352243 0)
(9.95439 0.0507173 0)
(9.97502 0.0594972 0)
(9.99014 0.0644444 0)
(10.0009 0.0673596 0)
(10.0085 0.0692985 0)
(10.0135 0.0708784 0)
(10.0166 0.0724773 0)
(10.018 0.0743702 0)
(10.0179 0.0768032 0)
(10.0164 0.0800779 0)
(10.0136 0.0846198 0)
(10.0095 0.0910454 0)
(9.98253 -0.0727091 0)
(9.91035 -0.0921961 0)
(9.88507 -0.078244 0)
(9.88001 -0.0386072 0)
(9.89746 -0.00337357 0)
(9.92043 0.0221694 0)
(9.94196 0.0391848 0)
(9.95999 0.0500815 0)
(9.97425 0.0570567 0)
(9.98518 0.0617056 0)
(9.99339 0.0650802 0)
(9.99941 0.0678643 0)
(10.0037 0.0705174 0)
(10.0064 0.0733858 0)
(10.0078 0.0767713 0)
(10.0081 0.0809937 0)
(10.0073 0.0864265 0)
(10.0058 0.0935057 0)
(9.98894 -0.0502566 0)
(9.93733 -0.072378 0)
(9.91073 -0.0674478 0)
(9.89917 -0.0399824 0)
(9.90566 -0.0116493 0)
(9.91955 0.0114527 0)
(9.93496 0.0285313 0)
(9.94934 0.0405811 0)
(9.96169 0.0490252 0)
(9.97188 0.0551125 0)
(9.98009 0.0597807 0)
(9.98659 0.063704 0)
(9.99163 0.0673727 0)
(9.99544 0.0711659 0)
(9.9982 0.075405 0)
(10.0001 0.0803923 0)
(10.0013 0.0864283 0)
(10.0021 0.093796 0)
(9.99348 -0.0329085 0)
(9.9582 -0.0538108 0)
(9.93368 -0.0542831 0)
(9.91898 -0.0367867 0)
(9.91755 -0.0154528 0)
(9.92366 0.00399562 0)
(9.93301 0.0197763 0)
(9.94318 0.0318776 0)
(9.9529 0.0410117 0)
(9.96163 0.0480217 0)
(9.96922 0.0536486 0)
(9.9757 0.058485 0)
(9.98118 0.0629939 0)
(9.98578 0.0675431 0)
(9.98965 0.0724361 0)
(9.99294 0.0779331 0)
(9.99587 0.0842559 0)
(9.99869 0.0915758 0)
(9.99643 -0.0202024 0)
(9.97327 -0.0372095 0)
(9.95261 -0.0400449 0)
(9.93731 -0.02981 0)
(9.93089 -0.0148228 0)
(9.93102 0.000367412 0)
(9.93504 0.0137752 0)
(9.94104 0.0248438 0)
(9.94782 0.0337601 0)
(9.95465 0.0409924 0)
(9.96117 0.0470511 0)
(9.96724 0.0523963 0)
(9.97281 0.0574132 0)
(9.9779 0.0624167 0)
(9.98261 0.0676611 0)
(9.98704 0.0733484 0)
(9.99135 0.0796296 0)
(9.99573 0.0865977 0)
(9.99816 -0.0112875 0)
(9.9833 -0.0229302 0)
(9.96682 -0.0257621 0)
(9.95243 -0.020076 0)
(9.94344 -0.0102409 0)
(9.93952 0.000676004 0)
(9.9394 0.0110311 0)
(9.94183 0.0201452 0)
(9.94582 0.0279265 0)
(9.95069 0.0345732 0)
(9.95597 0.040387 0)
(9.96139 0.0456777 0)
(9.96681 0.0507234 0)
(9.97216 0.0557559 0)
(9.97744 0.0609593 0)
(9.9827 0.0664704 0)
(9.98803 0.0723782 0)
(9.99354 0.0787234 0)
(9.99906 -0.00508066 0)
(9.98922 -0.0107803 0)
(9.97612 -0.0119161 0)
(9.96309 -0.0084818 0)
(9.9531 -0.00243356 0)
(9.94685 0.0045799 0)
(9.94399 0.0115588 0)
(9.94384 0.0180221 0)
(9.9457 0.0238404 0)
(9.94896 0.0290823 0)
(9.95317 0.0339031 0)
(9.95799 0.0384797 0)
(9.96321 0.0429767 0)
(9.96868 0.0475314 0)
(9.97435 0.0522481 0)
(9.98019 0.0571966 0)
(9.98623 0.0624121 0)
(9.99249 0.0678971 0)
(9.99942 -0.000367016 0)
(9.9918 0.000152373 0)
(9.98042 0.00183327 0)
(9.96821 0.00459488 0)
(9.9579 0.00792154 0)
(9.95061 0.0114032 0)
(9.94642 0.0148185 0)
(9.94498 0.0180904 0)
(9.94576 0.0212358 0)
(9.94825 0.0243207 0)
(9.95198 0.0274264 0)
(9.95661 0.03063 0)
(9.96186 0.0339937 0)
(9.96757 0.0375617 0)
(9.97362 0.0413577 0)
(9.97993 0.0453866 0)
(9.98648 0.0496341 0)
(9.99325 0.0540705 0)
(9.99935 0.00408502 0)
(9.9911 0.011174 0)
(9.97897 0.0161345 0)
(9.96616 0.0187382 0)
(9.95552 0.0196147 0)
(9.94819 0.0195486 0)
(9.94419 0.0191619 0)
(9.94311 0.018865 0)
(9.94438 0.0188979 0)
(9.94741 0.0193782 0)
(9.95174 0.0203463 0)
(9.95698 0.0217971 0)
(9.96287 0.0236996 0)
(9.96919 0.0260092 0)
(9.97583 0.0286743 0)
(9.98269 0.0316384 0)
(9.98974 0.0348437 0)
(9.99692 0.0382293 0)
(9.99882 0.00972996 0)
(9.98675 0.0240496 0)
(9.97122 0.0318478 0)
(9.95641 0.0332955 0)
(9.94558 0.0307064 0)
(9.93942 0.0263528 0)
(9.93734 0.0217505 0)
(9.93845 0.0177419 0)
(9.94186 0.0146977 0)
(9.94687 0.0127135 0)
(9.95292 0.0117335 0)
(9.95963 0.0116387 0)
(9.96674 0.0122899 0)
(9.97408 0.0135514 0)
(9.98155 0.0152983 0)
(9.98908 0.017421 0)
(9.99665 0.0198228 0)
(10.0042 0.0224205 0)
(9.99757 0.0182101 0)
(9.97773 0.040456 0)
(9.95664 0.0495788 0)
(9.93945 0.0474806 0)
(9.92961 0.0394263 0)
(9.92659 0.0296502 0)
(9.92848 0.0204938 0)
(9.93357 0.0129705 0)
(9.94055 0.00735239 0)
(9.94856 0.00352101 0)
(9.95704 0.00122577 0)
(9.96567 0.000176593 0)
(9.97428 0.000109482 0)
(9.98276 0.000791351 0)
(9.99108 0.00203546 0)
(9.99925 0.00369066 0)
(10.0073 0.0056338 0)
(10.0151 0.00776887 0)
(9.99502 0.0318146 0)
(9.96177 0.0621343 0)
(9.93372 0.0695526 0)
(9.91534 0.0601167 0)
(9.90932 0.0439533 0)
(9.91249 0.0276634 0)
(9.92084 0.0139977 0)
(9.93162 0.00364366 0)
(9.94322 -0.0036378 0)
(9.95479 -0.00837 0)
(9.96594 -0.011127 0)
(9.97652 -0.0123918 0)
(9.9865 -0.0125693 0)
(9.99594 -0.0119627 0)
(10.0049 -0.0108044 0)
(10.0135 -0.00926763 0)
(10.0217 -0.00747813 0)
(10.0296 -0.00553934 0)
(9.99018 0.0534619 0)
(9.93561 0.0901524 0)
(9.90098 0.0906287 0)
(9.88515 0.0687582 0)
(9.8878 0.041821 0)
(9.90121 0.0186616 0)
(9.91856 0.00142155 0)
(9.93627 -0.0103909 0)
(9.95285 -0.0179349 0)
(9.96786 -0.0223871 0)
(9.98129 -0.0246442 0)
(9.99332 -0.0253856 0)
(10.0042 -0.0250938 0)
(10.0141 -0.0241269 0)
(10.0232 -0.0227227 0)
(10.0318 -0.0210351 0)
(10.0399 -0.0191839 0)
(10.0476 -0.0172493 0)
(9.9819 0.0862471 0)
(9.89548 0.124258 0)
(9.85817 0.109884 0)
(9.85209 0.0697749 0)
(9.87033 0.0303398 0)
(9.89842 0.00145172 0)
(9.92658 -0.0172 0)
(9.95135 -0.028314 0)
(9.9722 -0.0344111 0)
(9.9896 -0.0373201 0)
(10.0042 -0.0381971 0)
(10.0167 -0.0377938 0)
(10.0276 -0.0366113 0)
(10.0372 -0.0349943 0)
(10.0459 -0.0331432 0)
(10.0539 -0.0311572 0)
(10.0613 -0.0291194 0)
(10.0684 -0.0270988 0)
(9.96925 0.13399 0)
(9.83823 0.163089 0)
(9.80793 0.122591 0)
(9.82311 0.0588007 0)
(9.86513 0.00730955 0)
(9.91139 -0.024024 0)
(9.95035 -0.0405859 0)
(9.98049 -0.0483637 0)
(10.0034 -0.0512237 0)
(10.0212 -0.051524 0)
(10.0353 -0.0504014 0)
(10.0469 -0.0485026 0)
(10.0565 -0.0462429 0)
(10.0648 -0.0438786 0)
(10.0722 -0.0415479 0)
(10.0789 -0.0392307 0)
(10.0852 -0.0369727 0)
(10.0911 -0.0348568 0)
(9.94951 0.207141 0)
(9.76128 0.207022 0)
(9.75726 0.123478 0)
(9.81042 0.0320115 0)
(9.88382 -0.02786 0)
(9.94874 -0.0559927 0)
(9.99527 -0.0660687 0)
(10.0266 -0.0677936 0)
(10.048 -0.0659583 0)
(10.063 -0.0631736 0)
(10.0743 -0.0598649 0)
(10.083 -0.0564841 0)
(10.09 -0.0531265 0)
(10.0957 -0.0501448 0)
(10.1009 -0.0474759 0)
(10.1056 -0.0449253 0)
(10.11 -0.0425145 0)
(10.1141 -0.0403479 0)
(9.91094 0.322718 0)
(9.65923 0.254545 0)
(9.71887 0.107407 0)
(9.83329 -0.0119228 0)
(9.94173 -0.0726519 0)
(10.0199 -0.0901611 0)
(10.0662 -0.0893194 0)
(10.0918 -0.0831323 0)
(10.1058 -0.0760206 0)
(10.1141 -0.0695983 0)
(10.1197 -0.064459 0)
(10.1236 -0.0601002 0)
(10.1261 -0.0563587 0)
(10.1279 -0.0531262 0)
(10.1295 -0.0505759 0)
(10.1313 -0.0482136 0)
(10.1329 -0.0456125 0)
(10.1345 -0.0434951 0)
(9.84404 0.43511 0)
(9.53798 0.261026 0)
(9.7269 0.0591349 0)
(9.92367 -0.0731154 0)
(10.0584 -0.121552 0)
(10.1345 -0.120191 0)
(10.1665 -0.105279 0)
(10.1758 -0.0906123 0)
(10.1759 -0.0784654 0)
(10.1726 -0.070354 0)
(10.1686 -0.0644085 0)
(10.1647 -0.0598223 0)
(10.1606 -0.0555405 0)
(10.1564 -0.052197 0)
(10.1529 -0.0503124 0)
(10.1506 -0.0482169 0)
(10.1482 -0.0456341 0)
(10.1458 -0.043915 0)
(9.83598 0.319666 0)
(9.55021 0.0912513 0)
(9.91739 -0.0687254 0)
(10.1507 -0.160112 0)
(10.2634 -0.172136 0)
(10.3032 -0.142727 0)
(10.2978 -0.112095 0)
(10.276 -0.0899509 0)
(10.2516 -0.0753726 0)
(10.2302 -0.0674503 0)
(10.2132 -0.0619139 0)
(10.1986 -0.057519 0)
(10.1843 -0.0523915 0)
(10.1703 -0.0482344 0)
(10.1594 -0.0467723 0)
(10.1504 -0.043947 0)
(10.1409 -0.0396704 0)
(10.1324 -0.0389265 0)
(10.2049 -0.0633775 0)
(10.4095 -0.191706 0)
(10.7164 -0.282558 0)
(10.6879 -0.282287 0)
(10.6191 -0.230103 0)
(10.5417 -0.163669 0)
(10.4545 -0.117043 0)
(10.3763 -0.0924957 0)
(10.3136 -0.0798684 0)
(10.2654 -0.067855 0)
(10.2261 -0.0589727 0)
(10.1924 -0.0539318 0)
(10.1597 -0.0536939 0)
(10.1305 -0.0530294 0)
(10.1086 -0.0475239 0)
(10.0852 -0.0454795 0)
(10.0625 -0.0482516 0)
(10.0457 -0.0447268 0)
(9.41631 4.45107 0)
(12.7294 2.07612 0)
(12.5649 0.621213 0)
(11.569 0.127657 0)
(10.9309 0.00343467 0)
(10.5866 -0.00206752 0)
(10.3638 0.0123127 0)
(10.2021 0.0302295 0)
(10.0796 0.0412443 0)
(9.97712 0.035689 0)
(9.88537 0.0255647 0)
(9.7981 0.0207409 0)
(9.72381 0.0274793 0)
(9.6629 0.0262717 0)
(9.60005 0.00145937 0)
(9.54295 -0.00539882 0)
(9.49688 0.00930023 0)
(9.44929 -0.00384014 0)
(-0.0275154 0.0934284 0)
(0.137021 -0.183514 0)
(0.32499 -0.3059 0)
(0.525477 -0.315119 0)
(0.702952 -0.272073 0)
(0.8335 -0.21108 0)
(0.909818 -0.14634 -8.60182e-20)
(0.940398 -0.0824954 8.66425e-20)
(0.919524 -0.0201729 0)
(0.85884 0.0345371 9.18631e-20)
(0.771683 0.0739596 0)
(0.672421 0.0920043 0)
(0.578499 0.0877227 0)
(0.505699 0.0666622 -1.43202e-19)
(0.455748 0.0377092 0)
(0.412402 0.00997308 0)
(0.352867 -0.00897336 1.87931e-19)
(0.262705 -0.00867842 0)
(0.135158 0.0293107 0)
(-0.0448422 0.112957 0)
(-0.300562 0.186497 -1.64803e-19)
(-0.594265 0.235264 0)
(-0.915689 0.266821 -7.62354e-20)
(-1.25194 0.296041 0)
(-1.59137 0.323658 0)
(-1.93111 0.336465 -4.13215e-20)
(-2.26353 0.335616 0)
(-2.58065 0.326492 3.454e-20)
(-2.87942 0.310354 0)
(-3.15643 0.289553 -3.13412e-20)
(-3.41078 0.266417 0)
(-3.64208 0.242537 0)
(-3.85105 0.218946 0)
(-4.03879 0.196352 0)
(-4.20673 0.175131 0)
(-4.35645 0.155488 2.82296e-20)
(-4.48952 0.13746 0)
(-4.60743 0.120976 -5.55706e-20)
(-4.71156 0.105907 0)
(-4.80312 0.092095 5.4772e-20)
(-4.88318 0.0793775 0)
(-4.95264 0.0676025 0)
(-5.01223 0.056642 -5.355e-20)
(-5.0626 0.0463995 0)
(-5.10424 0.0368156 -5.26583e-20)
(-5.13756 0.0278731 5.21805e-20)
(-5.16296 0.0196165 0)
(-5.18082 0.0121933 5.11536e-20)
(-5.19143 0.0058517 5.06012e-20)
(-5.19495 0.000801992 0)
(-5.19264 -0.00315157 0)
(-5.18572 -0.00644991 0)
(-5.17433 -0.00937237 0)
(-5.15881 -0.0120831 0)
(-5.13931 -0.0146517 -4.61818e-20)
(-5.11597 -0.0170918 0)
(-5.08889 -0.0194147 4.43166e-20)
(-5.0582 -0.0216295 0)
(-5.02398 -0.0237382 0)
(-4.98635 -0.0257428 -4.11385e-20)
(-4.94539 -0.0276437 0)
(-4.90123 -0.0294409 3.87628e-20)
(-4.85397 -0.0311341 0)
(-4.80373 -0.0327233 0)
(-4.75061 -0.0342086 0)
(-4.69475 -0.0355897 -3.33834e-20)
(-4.63626 -0.036867 0)
(-4.57527 -0.0380416 0)
(-4.51191 -0.039114 -2.8786e-20)
(-4.44631 -0.0400849 0)
(-4.37859 -0.0409559 -2.54447e-20)
(-4.30889 -0.0417281 0)
(-4.23734 -0.0424031 0)
(-4.16407 -0.0429825 0)
(-4.08921 -0.0434677 1.80672e-20)
(-4.01289 -0.0438603 0)
(-3.93525 -0.0441618 0)
(-3.85641 -0.0443747 1.18851e-20)
(-3.77649 -0.0445036 9.69134e-21)
(-3.69561 -0.0445552 0)
(-3.61391 -0.0445405 5.08977e-21)
(-3.53148 -0.0444682 0)
(-3.44843 -0.0443402 3.63061e-22)
(-3.36487 -0.0441435 0)
(-3.28091 -0.0438491 -1.01272e-20)
(-3.19665 -0.0434466 0)
(-3.11219 -0.0429816 2.13665e-20)
(-3.02762 -0.0425534 0)
(-2.94297 -0.0422341 0)
(-2.85829 -0.0419872 0)
(-2.77363 -0.0417469 -4.65621e-20)
(-2.68905 -0.041638 0)
(-2.60454 -0.0419055 6.08387e-20)
(-2.52006 -0.0425547 0)
(-2.43556 -0.043427 -7.65077e-20)
(-2.35131 -0.0443229 -8.48879e-20)
(-2.26754 -0.0447864 -9.35965e-20)
(-2.18452 -0.0445741 0)
(-2.1024 -0.043971 0)
(-2.02122 -0.043272 0)
(-1.94098 -0.0425673 0)
(-1.86169 -0.041867 0)
(-1.78337 -0.0411726 0)
(-1.70606 -0.0404857 0)
(-1.62977 -0.0398101 0)
(-1.55452 -0.0391515 1.92714e-19)
(-1.48034 -0.038517 2.07036e-19)
(-1.40724 -0.0379121 0)
(-1.33523 -0.0373257 0)
(-1.26433 -0.0367005 0)
(-1.1946 -0.036043 2.7431e-19)
(-1.12602 -0.0354091 0)
(-1.0586 -0.0347937 0)
(-0.992352 -0.0341983 0)
(-0.927265 -0.0336244 0)
(-0.863343 -0.0330742 -3.90965e-19)
(-0.800585 -0.0325501 0)
(-0.738987 -0.0320553 0)
(-0.678542 -0.0315933 4.89162e-19)
(-0.619243 -0.0311656 -5.28868e-19)
(-0.561085 -0.0307758 0)
(-0.504059 -0.0304342 -6.225e-19)
(-0.448152 -0.0301648 0)
(-0.393344 -0.030012 7.41511e-19)
(-0.339616 -0.0299869 0)
(-0.286953 -0.0300507 0)
(-0.23534 -0.0301907 0)
(-0.184748 -0.0304178 0)
(-0.135152 -0.0307475 0)
(-0.0865961 -0.0311986 -2.84735e-18)
(-0.0392927 -0.0316527 -3.2783e-18)
(0.00681273 -0.0313508 0)
(0.0522316 -0.0298506 0)
(0.0969725 -0.0279999 0)
(0.140894 -0.026282 2.68424e-18)
(0.183903 -0.0247492 0)
(0.22598 -0.0233757 0)
(0.267147 -0.022138 0)
(0.307436 -0.0210164 2.03966e-18)
(0.346878 -0.0199935 -1.93341e-18)
(0.385501 -0.0190553 0)
(0.423333 -0.0181901 0)
(0.460396 -0.0173889 -1.68673e-18)
(0.496716 -0.0166441 -1.62209e-18)
(0.532316 -0.0159496 0)
(0.567218 -0.0153003 0)
(0.601446 -0.0146918 1.46385e-18)
(0.635021 -0.0141205 -1.42038e-18)
(0.667968 -0.0135835 0)
(0.700307 -0.0130778 0)
(0.732063 -0.0126014 -1.31012e-18)
(0.763257 -0.0121521 0)
(0.793914 -0.0117282 0)
(0.824055 -0.0113281 -1.22263e-18)
(0.853704 -0.0109505 0)
(0.882885 -0.010594 -1.17356e-18)
(0.91162 -0.0102576 0)
(0.939933 -0.00994016 0)
(0.967847 -0.00964058 0)
(0.995385 -0.00935783 1.09157e-18)
(1.02257 -0.00909077 0)
(1.04942 -0.00883817 0)
(1.07595 -0.00859854 0)
(1.10217 -0.00837012 0)
(1.12811 -0.00815062 0)
(1.15375 -0.00793716 0)
(1.1791 -0.00772583 9.82771e-19)
(1.20413 -0.00751151 9.6985e-19)
(1.2288 -0.00728718 0)
(1.25305 -0.00704334 0)
(1.27676 -0.00676645 0)
(1.29977 -0.00643793 -9.24501e-19)
(1.32184 -0.00602804 0)
(1.34257 -0.00549805 1.81389e-18)
(1.36151 -0.00476096 -1.80052e-18)
(1.37725 -0.0037253 -1.79179e-18)
(1.38984 -0.00195391 1.79009e-18)
(1.39025 0.00132779 -1.79547e-18)
(1.38755 0.00807541 1.80879e-18)
(1.30829 0.0198886 0)
(0.096319 -0.269002 0)
(0.334074 -0.681286 0)
(0.514178 -0.706528 1.57357e-19)
(0.611816 -0.571348 0)
(0.662811 -0.408897 -1.11138e-19)
(0.68325 -0.253824 -1.08104e-19)
(0.677223 -0.112173 -5.62546e-20)
(0.646849 0.0155856 -5.61998e-20)
(0.603871 0.125404 0)
(0.544676 0.211924 -6.08085e-20)
(0.467864 0.2674 0)
(0.373378 0.283201 0)
(0.257574 0.256432 1.70494e-19)
(0.11024 0.211434 9.82863e-20)
(-0.0747897 0.206287 -1.84463e-19)
(-0.301063 0.27184 -1.43795e-19)
(-0.579048 0.383416 -5.7189e-20)
(-0.904982 0.513253 0)
(-1.25857 0.642616 0)
(-1.61667 0.756443 0)
(-1.97229 0.841997 -2.85753e-20)
(-2.31788 0.895563 0)
(-2.64778 0.919047 6.90636e-20)
(-2.9545 0.915465 0)
(-3.234 0.889028 0)
(-3.48463 0.844861 1.98198e-20)
(-3.70501 0.788294 0)
(-3.89595 0.724859 -1.97621e-20)
(-4.05934 0.658785 -4.17985e-20)
(-4.19872 0.592784 2.01689e-20)
(-4.31702 0.528958 0)
(-4.41711 0.469091 0)
(-4.50173 0.414011 0)
(-4.57326 0.364072 -4.426e-20)
(-4.63377 0.319234 -4.47663e-20)
(-4.68495 0.279224 -2.21904e-20)
(-4.72818 0.243632 0)
(-4.76457 0.211977 4.53085e-20)
(-4.795 0.18376 0)
(-4.82021 0.1585 -4.58802e-20)
(-4.84077 0.135757 0)
(-4.85718 0.115136 0)
(-4.86985 0.0962963 4.60907e-20)
(-4.87917 0.0789478 0)
(-4.88548 0.0628499 1.38173e-19)
(-4.88907 0.0478081 -4.56111e-20)
(-4.89024 0.033687 0)
(-4.88923 0.0204563 -4.4942e-20)
(-4.8863 0.00823206 -4.44853e-20)
(-4.88171 -0.00282356 0)
(-4.87456 -0.0127664 0)
(-4.86374 -0.0218924 0)
(-4.84923 -0.0304447 0)
(-4.83094 -0.0385378 0)
(-4.8089 -0.0462414 4.02193e-20)
(-4.78316 -0.0535924 7.9169e-20)
(-4.7538 -0.0606119 -3.8442e-20)
(-4.72091 -0.0673112 0)
(-4.68458 -0.0736961 7.34906e-20)
(-4.64489 -0.0797691 -3.5969e-20)
(-4.60195 -0.0855311 0)
(-4.55586 -0.0909817 -3.32689e-20)
(-4.50672 -0.096121 0)
(-4.45464 -0.10095 0)
(-4.39974 -0.105471 -5.9896e-20)
(-4.34213 -0.109684 2.83874e-20)
(-4.28193 -0.113588 -5.47044e-20)
(-4.21926 -0.117187 5.19855e-20)
(-4.15425 -0.120485 2.42957e-20)
(-4.08703 -0.123486 0)
(-4.01771 -0.126196 2.13627e-20)
(-3.94642 -0.128619 0)
(-3.87331 -0.130763 0)
(-3.79849 -0.132634 0)
(-3.72208 -0.134242 1.5636e-20)
(-3.64423 -0.135595 0)
(-3.56505 -0.136702 2.37691e-20)
(-3.48467 -0.137573 -2.99778e-20)
(-3.4032 -0.138219 -7.94294e-21)
(-3.32077 -0.13865 0)
(-3.23749 -0.138876 -4.14223e-21)
(-3.15348 -0.138907 0)
(-3.06884 -0.138755 -2.93278e-22)
(-2.98369 -0.138433 0)
(-2.89812 -0.137955 8.11307e-21)
(-2.81224 -0.137338 -2.35672e-20)
(-2.72611 -0.136596 -1.69651e-20)
(-2.63984 -0.135733 0)
(-2.55353 -0.134747 0)
(-2.46728 -0.133641 0)
(-2.38119 -0.132427 3.61857e-20)
(-2.29533 -0.131108 0)
(-2.20986 -0.129645 -4.66568e-20)
(-2.12494 -0.12797 0)
(-2.0407 -0.126042 1.71885e-19)
(-1.95721 -0.123889 6.36343e-20)
(-1.87448 -0.121605 6.9666e-20)
(-1.79246 -0.119301 0)
(-1.71113 -0.117032 0)
(-1.63054 -0.114798 0)
(-1.55075 -0.112576 0)
(-1.47182 -0.110352 0)
(-1.39378 -0.108121 2.19501e-19)
(-1.31668 -0.105884 2.34994e-19)
(-1.24054 -0.103645 0)
(-1.16538 -0.101406 -1.34767e-19)
(-1.09124 -0.0991705 -1.43547e-19)
(-1.01813 -0.0969396 0)
(-0.946089 -0.0947157 -3.23052e-19)
(-0.875125 -0.092503 0)
(-0.805232 -0.0903151 1.81333e-19)
(-0.73642 -0.0881578 0)
(-0.6687 -0.0860314 0)
(-0.602076 -0.0839382 -4.34475e-19)
(-0.536551 -0.0818796 0)
(-0.472125 -0.0798573 2.44847e-19)
(-0.408799 -0.0778742 0)
(-0.346572 -0.0759361 0)
(-0.285437 -0.0740517 2.89789e-19)
(-0.225385 -0.0722191 3.09096e-19)
(-0.16641 -0.0704329 0)
(-0.108505 -0.068696 -3.46394e-19)
(-0.0516776 -0.0670087 0)
(0.00407723 -0.0653624 3.82649e-19)
(0.0588005 -0.0637501 7.66176e-19)
(0.112526 -0.0621832 0)
(0.165253 -0.0606765 0)
(0.216983 -0.0592343 0)
(0.26773 -0.0578544 0)
(0.317528 -0.0565391 7.09226e-19)
(0.366445 -0.0552772 2.09641e-18)
(0.414569 -0.0538979 0)
(0.461812 -0.0522516 0)
(0.508034 -0.050477 0)
(0.553304 -0.0487298 -6.65617e-19)
(0.597704 -0.0470619 0)
(0.641262 -0.0454814 0)
(0.683995 -0.043986 1.28791e-18)
(0.725924 -0.0425691 6.36939e-19)
(0.767072 -0.0412233 6.32415e-19)
(0.807458 -0.039942 0)
(0.847106 -0.0387196 0)
(0.886035 -0.0375518 6.15873e-19)
(0.924268 -0.036435 -6.09637e-19)
(0.961825 -0.0353661 0)
(0.998729 -0.0343427 0)
(1.035 -0.0333626 -5.96781e-19)
(1.07066 -0.0324241 1.77636e-18)
(1.10573 -0.0315254 0)
(1.14023 -0.0306652 0)
(1.17419 -0.0298421 5.80315e-19)
(1.20762 -0.0290551 0)
(1.24055 -0.0283029 1.14492e-18)
(1.273 -0.0275847 -5.68532e-19)
(1.30499 -0.0268994 0)
(1.33654 -0.0262461 5.6242e-19)
(1.36768 -0.0256236 1.11756e-18)
(1.39842 -0.0250311 0)
(1.4288 -0.0244671 0)
(1.45882 -0.0239302 -5.49587e-19)
(1.48851 -0.0234187 0)
(1.51789 -0.0229302 1.08646e-18)
(1.54698 -0.0224619 0)
(1.57578 -0.02201 0)
(1.6043 -0.0215695 0)
(1.63254 -0.0211338 0)
(1.66051 -0.0206938 -5.2901e-19)
(1.68817 -0.0202375 -5.26242e-19)
(1.7155 -0.0197485 0)
(1.74243 -0.0192043 0)
(1.76887 -0.018573 0)
(1.79468 -0.0178092 5.16146e-19)
(1.81965 -0.0168458 0)
(1.84347 -0.0155798 -1.02488e-18)
(1.8657 -0.013834 1.02262e-18)
(1.88544 -0.011324 1.02223e-18)
(1.90223 -0.00730907 1.02332e-18)
(1.91244 -0.000518491 1.02849e-18)
(1.92474 0.012425 1.02038e-18)
(1.90518 0.0361861 0)
(0.116439 -0.859732 0)
(0.269011 -1.05684 0)
(0.316101 -0.826009 -1.26329e-19)
(0.315407 -0.584234 -1.08168e-19)
(0.297975 -0.373769 1.00488e-19)
(0.266766 -0.188642 1.0067e-19)
(0.220582 -0.0231819 -6.4481e-22)
(0.158685 0.124561 0)
(0.080946 0.255104 0)
(-0.0138698 0.366021 0)
(-0.12932 0.451732 0)
(-0.27347 0.512795 0)
(-0.459236 0.566623 -2.67327e-19)
(-0.697102 0.641363 0)
(-0.983331 0.753924 6.62751e-20)
(-1.30207 0.895893 5.71745e-20)
(-1.63535 1.044 0)
(-1.96629 1.17801 0)
(-2.27962 1.28539 0)
(-2.56351 1.3591 0)
(-2.81262 1.39484 3.49038e-20)
(-3.02655 1.39239 0)
(-3.20669 1.35643 -3.23467e-20)
(-3.35588 1.29418 0)
(-3.47859 1.21298 0)
(-3.57941 1.11921 0)
(-3.66316 1.01896 -6.85886e-20)
(-3.7342 0.917572 0)
(-3.79606 0.819165 3.31179e-20)
(-3.85152 0.726541 -7.07023e-20)
(-3.9025 0.641212 0)
(-3.95029 0.563916 0)
(-3.99565 0.494704 0)
(-4.03894 0.433189 3.65651e-20)
(-4.08028 0.378724 3.71525e-20)
(-4.11961 0.330536 0)
(-4.15681 0.28783 0)
(-4.1917 0.249843 -7.7802e-20)
(-4.22409 0.215882 -7.81949e-20)
(-4.25383 0.185336 7.84279e-20)
(-4.28078 0.157688 0)
(-4.30481 0.132507 0)
(-4.32584 0.109446 0)
(-4.34379 0.0882205 0)
(-4.35861 0.0685966 -7.70115e-20)
(-4.37024 0.0503745 -7.69134e-20)
(-4.3786 0.03337 7.62705e-20)
(-4.38357 0.0173822 0)
(-4.38497 0.00215482 0)
(-4.38263 -0.0125987 0)
(-4.37651 -0.0270113 0)
(-4.36666 -0.0409963 -7.11068e-20)
(-4.35315 -0.0544621 0)
(-4.33599 -0.0673971 0)
(-4.31523 -0.0798058 -6.69952e-20)
(-4.29094 -0.0916969 -6.49695e-20)
(-4.26316 -0.103078 0)
(-4.23197 -0.113953 1.24571e-19)
(-4.19746 -0.124324 -6.00315e-20)
(-4.15969 -0.13419 5.82549e-20)
(-4.11878 -0.143551 0)
(-4.07479 -0.152403 0)
(-4.02785 -0.160746 0)
(-3.97805 -0.168578 0)
(-3.9255 -0.175903 4.84233e-20)
(-3.87031 -0.182721 9.37775e-20)
(-3.81259 -0.189032 4.40579e-20)
(-3.75247 -0.194839 -4.17858e-20)
(-3.69006 -0.200149 0)
(-3.62548 -0.204968 7.54261e-20)
(-3.55887 -0.209304 7.0543e-20)
(-3.49033 -0.213166 6.55435e-20)
(-3.42 -0.216564 -6.04283e-20)
(-3.348 -0.21951 0)
(-3.27445 -0.222017 -7.41009e-20)
(-3.19949 -0.224097 0)
(-3.12323 -0.225766 2.00959e-20)
(-3.04579 -0.227038 1.58727e-20)
(-2.9673 -0.22793 0)
(-2.88787 -0.228459 0)
(-2.80762 -0.228643 1.53629e-20)
(-2.72665 -0.228498 0)
(-2.64509 -0.228044 2.92888e-21)
(-2.56304 -0.227298 0)
(-2.4806 -0.226278 9.99456e-21)
(-2.39787 -0.225002 3.47177e-20)
(-2.31494 -0.223493 0)
(-2.23193 -0.221774 0)
(-2.14892 -0.219862 0)
(-2.06601 -0.21777 4.45801e-20)
(-1.9833 -0.21551 0)
(-1.90088 -0.213098 5.94012e-20)
(-1.81885 -0.21054 0)
(-1.7373 -0.207816 0)
(-1.65631 -0.204899 -1.6705e-19)
(-1.57589 -0.201776 0)
(-1.49608 -0.19846 -9.93118e-20)
(-1.41688 -0.194994 0)
(-1.33832 -0.191436 -1.16591e-19)
(-1.26046 -0.187825 0)
(-1.18335 -0.184177 0)
(-1.10705 -0.180501 0)
(-1.0316 -0.176803 -4.6269e-19)
(-0.957026 -0.173089 -1.65043e-19)
(-0.88337 -0.169367 0)
(-0.810654 -0.165643 0)
(-0.738906 -0.161923 0)
(-0.668145 -0.158211 0)
(-0.598389 -0.154514 2.1884e-19)
(-0.52965 -0.150835 -4.5847e-19)
(-0.461934 -0.147185 -2.42674e-19)
(-0.395253 -0.143572 5.07663e-19)
(-0.329616 -0.140001 5.33462e-19)
(-0.265031 -0.136479 2.81381e-19)
(-0.201497 -0.133007 0)
(-0.139018 -0.129586 6.16232e-19)
(-0.0775934 -0.12622 0)
(-0.0172257 -0.12291 -6.73559e-19)
(0.0420917 -0.119659 -3.45159e-19)
(0.100372 -0.116469 0)
(0.157622 -0.11334 6.93124e-19)
(0.213847 -0.110277 3.48831e-19)
(0.269057 -0.10728 0)
(0.323263 -0.104339 3.48725e-19)
(0.376473 -0.101443 -1.05282e-18)
(0.428695 -0.0986017 0)
(0.479944 -0.0958249 0)
(0.530236 -0.0931154 0)
(0.579589 -0.0904741 0)
(0.628025 -0.0879056 -7.0775e-19)
(0.675578 -0.0854169 -7.10242e-19)
(0.722272 -0.0830231 0)
(0.768073 -0.0807112 0)
(0.812965 -0.0784421 0)
(0.857002 -0.0762147 0)
(0.900226 -0.0740451 0)
(0.942653 -0.0719421 0)
(0.984297 -0.0699081 -7.14019e-19)
(1.02517 -0.0679431 -1.08872e-21)
(1.0653 -0.0660454 0)
(1.1047 -0.0642129 0)
(1.14339 -0.0624438 -7.13853e-19)
(1.18139 -0.0607361 0)
(1.21872 -0.0590883 7.14902e-19)
(1.2554 -0.057499 7.14041e-19)
(1.29145 -0.0559667 0)
(1.32689 -0.0544903 0)
(1.36174 -0.0530687 -7.14575e-19)
(1.39603 -0.0517008 -1.42736e-18)
(1.42978 -0.0503857 0)
(1.46299 -0.0491223 0)
(1.49571 -0.0479097 0)
(1.52794 -0.046747 -7.13271e-19)
(1.55971 -0.0456333 7.1289e-19)
(1.59104 -0.0445676 0)
(1.62196 -0.0435487 1.42291e-18)
(1.65248 -0.0425757 7.10434e-19)
(1.68262 -0.041647 -1.42085e-18)
(1.71241 -0.040761 0)
(1.74186 -0.0399158 0)
(1.771 -0.0391087 -1.41705e-18)
(1.79984 -0.0383364 -7.08234e-19)
(1.8284 -0.0375946 0)
(1.8567 -0.0368775 0)
(1.88473 -0.0361777 0)
(1.91252 -0.0354849 0)
(1.94004 -0.0347856 -1.40691e-18)
(1.96729 -0.0340615 0)
(1.99425 -0.0332877 0)
(2.02085 -0.0324299 0)
(2.04703 -0.0314401 0)
(2.07267 -0.0302503 0)
(2.0976 -0.0287594 0)
(2.12155 -0.026816 -1.39756e-18)
(2.1442 -0.0241686 0)
(2.16487 -0.020412 0)
(2.18332 -0.0147538 -2.81633e-18)
(2.19676 -0.00587657 1.41819e-18)
(2.21145 0.00887713 -1.4163e-18)
(2.20635 0.0362551 1.41176e-18)
(0.0333156 -1.16608 0)
(0.0696742 -1.02976 3.59932e-19)
(0.0339182 -0.746798 0)
(-0.0105409 -0.506319 1.10877e-19)
(-0.0658786 -0.283598 0)
(-0.133746 -0.0740081 0)
(-0.216995 0.122847 -8.28052e-20)
(-0.317997 0.30623 0)
(-0.43888 0.475701 0)
(-0.582247 0.631815 0)
(-0.751954 0.777112 0)
(-0.953212 0.91769 0)
(-1.18865 1.06166 2.0419e-19)
(-1.45268 1.21244 9.24334e-20)
(-1.73082 1.36376 -8.36858e-20)
(-2.00472 1.50228 0)
(-2.25864 1.61418 0)
(-2.48252 1.6901 0)
(-2.67158 1.72634 0)
(-2.82441 1.72415 0)
(-2.94355 1.68739 6.01622e-20)
(-3.03457 1.62131 5.88457e-20)
(-3.10357 1.53276 -5.79929e-20)
(-3.15687 1.42938 5.76915e-20)
(-3.19986 1.31788 0)
(-3.23689 1.20367 0)
(-3.27142 1.09111 5.58447e-20)
(-3.3058 0.983479 0)
(-3.34132 0.882902 0)
(-3.37848 0.790418 5.86992e-20)
(-3.41729 0.706268 6.15172e-20)
(-3.4574 0.630227 6.22288e-20)
(-3.49829 0.561762 0)
(-3.53933 0.50018 0)
(-3.57991 0.444719 -6.4039e-20)
(-3.61947 0.394623 0)
(-3.65752 0.34918 0)
(-3.69365 0.307748 6.43119e-20)
(-3.7275 0.269762 -6.6032e-20)
(-3.7588 0.234733 6.60425e-20)
(-3.78732 0.202247 0)
(-3.81289 0.171952 0)
(-3.83534 0.143554 1.30018e-19)
(-3.85455 0.116801 0)
(-3.87041 0.0914811 1.2863e-19)
(-3.88284 0.0674183 1.91041e-19)
(-3.89174 0.0444687 -1.894e-19)
(-3.89705 0.0225118 1.25332e-19)
(-3.89874 0.00143075 0)
(-3.89679 -0.0188906 0)
(-3.89126 -0.0385302 1.19876e-19)
(-3.88218 -0.057507 5.84069e-20)
(-3.86959 -0.0758171 0)
(-3.85354 -0.0934592 0)
(-3.83405 -0.110433 5.49007e-20)
(-3.81117 -0.126737 1.08252e-19)
(-3.78497 -0.142371 0)
(-3.7555 -0.157331 -1.01799e-19)
(-3.72283 -0.171614 9.99697e-20)
(-3.68704 -0.185216 -9.69978e-20)
(-3.64821 -0.19813 0)
(-3.60642 -0.210353 0)
(-3.56178 -0.221878 0)
(-3.51438 -0.232703 0)
(-3.46433 -0.242832 0)
(-3.41172 -0.252266 -7.59247e-20)
(-3.35667 -0.261004 0)
(-3.29929 -0.26905 0)
(-3.23969 -0.276412 0)
(-3.178 -0.283098 -1.22625e-19)
(-3.11432 -0.289119 -5.67052e-20)
(-3.04879 -0.294487 -5.26039e-20)
(-2.98151 -0.299216 9.80428e-20)
(-2.91262 -0.303322 -4.53639e-20)
(-2.84223 -0.306821 3.98119e-20)
(-2.77046 -0.309732 0)
(-2.69743 -0.312075 -3.08891e-20)
(-2.62326 -0.31387 0)
(-2.54807 -0.315139 0)
(-2.47196 -0.315906 0)
(-2.39506 -0.316193 -2.54922e-20)
(-2.31746 -0.316024 8.48633e-21)
(-2.23929 -0.315422 4.76872e-21)
(-2.16064 -0.314413 -2.97965e-21)
(-2.08161 -0.31302 -2.10041e-20)