/*--------------------------------*- C++ -*----------------------------------*\
  =========                 |
  \\      /  F ield         | OpenFOAM: The Open Source CFD Toolbox
   \\    /   O peration     | Website:  https://openfoam.org
    \\  /    A nd           | Version:  8
     \\/     M anipulation  |
\*---------------------------------------------------------------------------*/
FoamFile
{
    version     2.0;
    format      ascii;
    class       volScalarField;
    location    "900";
    object      k;
}
// * * * * * * * * * * * * * * * * * * * * * * * * * * * * * * * * * * * * * //

dimensions      [0 2 -2 0 0 0 0];

internalField   nonuniform List<scalar> 
12225
(
0.315803
2.24554
2.00646
1.88846
1.79439
1.90015
1.27478
2.70238
2.13946
2.27638
2.82503
2.36168
1.72603
1.56399
1.49074
1.48511
2.06777
2.60799
0.295485
0.464549
0.525078
0.565959
0.595585
0.646078
0.614144
0.686721
0.714243
0.723885
0.771509
0.79591
0.833489
0.837617
0.839257
0.860144
0.8771
0.909646
0.346835
0.374397
0.383681
0.388396
0.388665
0.3885
0.381563
0.379041
0.375442
0.370207
0.368822
0.367151
0.368315
0.368913
0.370256
0.371187
0.373108
0.376134
0.365219
0.369344
0.371428
0.371404
0.369913
0.368553
0.364868
0.36048
0.356189
0.350887
0.346489
0.341667
0.337864
0.333817
0.330382
0.326924
0.323834
0.320893
0.371356
0.370383
0.369689
0.36854
0.367122
0.365322
0.363095
0.360161
0.357358
0.353979
0.351
0.347692
0.34487
0.341776
0.339116
0.336169
0.333649
0.330812
0.373213
0.371136
0.369469
0.367786
0.366214
0.364426
0.362624
0.360454
0.35838
0.356046
0.353904
0.351603
0.349541
0.347335
0.345368
0.343227
0.341338
0.33924
0.373707
0.371466
0.369476
0.367553
0.365814
0.364041
0.362357
0.360543
0.358806
0.356976
0.355255
0.35348
0.351832
0.350133
0.348567
0.346928
0.34543
0.343833
0.37381
0.371548
0.369479
0.367486
0.365658
0.363869
0.362191
0.360499
0.358884
0.357254
0.355708
0.354159
0.3527
0.351234
0.34986
0.348463
0.347161
0.345817
0.373834
0.371569
0.369466
0.367451
0.365576
0.363775
0.362084
0.360435
0.358867
0.35733
0.355867
0.354433
0.353072
0.351734
0.350466
0.349208
0.348022
0.346827
0.373835
0.371571
0.369447
0.367424
0.365522
0.363709
0.362001
0.360363
0.358807
0.357309
0.355884
0.354509
0.353201
0.351935
0.350731
0.349558
0.348443
0.347349
0.373833
0.371567
0.36943
0.367402
0.365485
0.363663
0.36194
0.360298
0.35874
0.357251
0.355836
0.354481
0.353192
0.351957
0.350779
0.349648
0.348568
0.347528
0.37383
0.371562
0.369417
0.367383
0.365457
0.363629
0.361896
0.360248
0.358681
0.35719
0.355771
0.354419
0.353131
0.351902
0.350731
0.349612
0.348542
0.34752
0.373828
0.371557
0.369407
0.367369
0.365436
0.363603
0.361862
0.360208
0.358636
0.357139
0.355715
0.354358
0.353065
0.351834
0.350659
0.349539
0.348469
0.34745
0.373827
0.371554
0.3694
0.367358
0.365422
0.363583
0.361838
0.360179
0.3586
0.357099
0.355669
0.354309
0.353011
0.351775
0.350596
0.349472
0.348398
0.347376
0.373826
0.371552
0.369395
0.367351
0.36541
0.363569
0.361819
0.360156
0.358574
0.357069
0.355636
0.354271
0.35297
0.35173
0.350547
0.34942
0.348343
0.347316
0.373825
0.37155
0.369392
0.367345
0.365403
0.363559
0.361806
0.36014
0.358556
0.357048
0.355612
0.354244
0.35294
0.351697
0.350512
0.349381
0.348302
0.347272
0.373825
0.371549
0.369391
0.367342
0.365399
0.363552
0.361798
0.36013
0.358544
0.357034
0.355596
0.354226
0.352921
0.351676
0.350489
0.349356
0.348276
0.347244
0.373825
0.371549
0.36939
0.367342
0.365397
0.363551
0.361796
0.360127
0.35854
0.357029
0.35559
0.354219
0.352913
0.351667
0.350479
0.349346
0.348264
0.347232
0.373825
0.371549
0.369391
0.367342
0.365399
0.363552
0.361798
0.36013
0.358543
0.357032
0.355593
0.354222
0.352916
0.351671
0.350482
0.349349
0.348268
0.347235
0.373825
0.37155
0.369392
0.367346
0.365403
0.363558
0.361805
0.360138
0.358552
0.357042
0.355604
0.354234
0.352929
0.351684
0.350497
0.349365
0.348284
0.347252
0.373826
0.371552
0.369396
0.367351
0.36541
0.363567
0.361816
0.360151
0.358567
0.35706
0.355624
0.354256
0.352953
0.35171
0.350525
0.349393
0.348314
0.347283
0.373827
0.371555
0.369401
0.36736
0.365422
0.363582
0.361834
0.360172
0.358592
0.357088
0.355656
0.354293
0.352992
0.351752
0.350568
0.349438
0.348358
0.347327
0.373829
0.371559
0.369409
0.367373
0.365439
0.363606
0.361863
0.360209
0.358635
0.35714
0.355714
0.354355
0.353056
0.351814
0.350624
0.349486
0.348395
0.34735
0.37383
0.371565
0.369424
0.367402
0.365479
0.363661
0.361932
0.360294
0.358731
0.357245
0.35582
0.354455
0.353136
0.351867
0.350636
0.349451
0.348306
0.347205
0.373831
0.371566
0.369472
0.367505
0.365623
0.363851
0.362144
0.360529
0.358961
0.357464
0.355995
0.354571
0.353156
0.351775
0.350408
0.34908
0.347778
0.346524
0.373782
0.371588
0.369752
0.36798
0.366228
0.364554
0.362851
0.361223
0.359573
0.357968
0.356321
0.354686
0.353002
0.351328
0.349628
0.347966
0.34632
0.344739
0.373493
0.37201
0.371237
0.370095
0.368707
0.367219
0.365456
0.3637
0.361766
0.359814
0.357696
0.355528
0.353241
0.350923
0.348593
0.346281
0.344069
0.34191
0.37214
0.37565
0.379408
0.380727
0.380976
0.380383
0.378713
0.376772
0.374513
0.372041
0.369502
0.366785
0.364302
0.361685
0.359621
0.357408
0.356052
0.354408
0.371692
0.412441
0.439893
0.46004
0.477315
0.491083
0.50292
0.512884
0.522441
0.53079
0.540049
0.548579
0.558879
0.568597
0.580153
0.591052
0.603912
0.614463
0.632457
1.12056
1.37677
1.50329
1.56271
1.57376
1.56571
1.54629
1.51586
1.48299
1.45016
1.41861
1.38916
1.36207
1.33746
1.31522
1.29518
1.27738
1.86491e-08
4.59789e-07
2.33899e-06
9.18035e-06
3.05871e-05
9.23766e-05
0.000241114
0.000478422
0.000773994
0.00108563
0.00136531
0.00158298
0.00172891
0.00178507
0.00176341
0.00169356
0.0015595
0.00133548
0.00113957
0.000970613
0.000809937
0.000653425
0.000501628
0.000360625
0.000234828
0.000137402
7.28197e-05
3.66143e-05
1.86142e-05
1.01338e-05
6.14806e-06
4.69383e-06
5.21099e-06
1.11099e-05
2.38842e-05
0.000148622
0.00033119
0.000738126
0.00111224
0.00121751
0.00112605
0.000910852
0.000773382
0.000774453
0.000853139
0.00111945
0.0014854
0.00295422
0.0066503
0.0206666
0.0552411
0.0991254
0.132854
0.148005
0.156986
0.162901
0.169877
0.163858
0.147998
0.139516
0.153984
0.153435
0.160208
0.175094
0.181718
0.191288
0.19942
0.207883
0.215831
0.223918
0.231634
0.239422
0.246965
0.254513
0.2619
0.269253
0.276489
0.283671
0.290758
0.297776
0.304713
0.311567
0.318347
0.325032
0.331649
0.338157
0.344599
0.350922
0.357163
0.363279
0.369284
0.375166
0.380918
0.386526
0.391983
0.397273
0.402396
0.40734
0.412119
0.416756
0.421325
0.42573
0.429996
0.43412
0.438099
0.441931
0.44561
0.449137
0.452501
0.455709
0.458744
0.46162
0.464316
0.466849
0.469195
0.471376
0.473366
0.475187
0.476816
0.478275
0.479539
0.480632
0.481531
0.482258
0.48279
0.483148
0.483303
0.483278
0.483188
0.48297
0.482344
0.481754
0.480829
0.479914
0.478877
0.477689
0.476301
0.474605
0.472822
0.470848
0.46876
0.466531
0.464188
0.461722
0.459152
0.456471
0.453696
0.450813
0.447823
0.444721
0.441555
0.438267
0.434941
0.431528
0.428072
0.424569
0.421032
0.417472
0.413894
0.410317
0.406751
0.4032
0.399672
0.396169
0.392698
0.389267
0.385881
0.382552
0.379284
0.376087
0.372953
0.369888
0.366873
0.363881
0.360857
0.357719
0.35435
0.350433
0.345355
0.329386
8.51637e-08
2.41495e-06
1.62295e-05
6.94846e-05
0.000260997
0.000737826
0.00172533
0.00312833
0.00475629
0.00643025
0.00796102
0.00922241
0.0101526
0.0107515
0.0110295
0.0109943
0.0108149
0.0104761
0.00988612
0.00907375
0.00804221
0.0068438
0.00552983
0.00420097
0.00291201
0.00192577
0.00121953
0.000752563
0.000455787
0.000278195
0.000177849
0.000132841
0.000101247
0.000171174
0.000216541
0.00156683
0.00340048
0.00705388
0.0102182
0.011991
0.0120131
0.0117613
0.0119252
0.0134913
0.017346
0.022795
0.0329584
0.0505994
0.0763488
0.101489
0.127206
0.14814
0.16438
0.177944
0.191867
0.207205
0.222686
0.238754
0.255882
0.274919
0.295233
0.313896
0.333955
0.35396
0.373098
0.392253
0.411
0.429554
0.447828
0.465965
0.483891
0.501711
0.519386
0.536975
0.55446
0.571871
0.589197
0.606454
0.623631
0.640735
0.657758
0.674697
0.691548
0.708303
0.724962
0.741509
0.757948
0.774258
0.790438
0.806454
0.822311
0.837994
0.853489
0.868777
0.883832
0.898633
0.913148
0.927344
0.941181
0.954617
0.967622
0.980382
0.992883
1.00512
1.01708
1.02876
1.04015
1.05122
1.06199
1.07242
1.08252
1.09226
1.10165
1.11067
1.11932
1.12758
1.13544
1.1429
1.14995
1.15659
1.1628
1.16859
1.17394
1.17885
1.18333
1.18735
1.19093
1.19406
1.19675
1.19899
1.20078
1.20214
1.2029
1.20338
1.2036
1.20353
1.20304
1.20242
1.20133
1.19983
1.19793
1.19564
1.19298
1.18995
1.18656
1.18283
1.17876
1.17434
1.16956
1.16448
1.15902
1.15331
1.14727
1.14098
1.13445
1.12768
1.12072
1.11358
1.10629
1.09888
1.09137
1.08378
1.07612
1.0684
1.06064
1.05285
1.04505
1.03725
1.02948
1.02175
1.01407
1.00643
0.998816
0.99118
0.98345
0.97551
0.967148
0.958043
0.9463
0.919406
2.06295e-07
6.11643e-06
4.64924e-05
0.000212254
0.000825407
0.00200518
0.00408685
0.00649554
0.00890889
0.0110985
0.012927
0.0143363
0.0153247
0.0159179
0.0161724
0.0161367
0.0159515
0.0155906
0.0150506
0.0143766
0.0135625
0.0126024
0.0114752
0.0101883
0.00874631
0.00710957
0.00542028
0.00391493
0.00261453
0.00173494
0.00119118
0.000894825
0.000675239
0.000984337
0.00161586
0.00667303
0.01431
0.0228876
0.0292427
0.0329939
0.0347056
0.0377709
0.0460671
0.061915
0.079297
0.0973998
0.117881
0.139055
0.159052
0.180597
0.201974
0.223906
0.246837
0.27162
0.298448
0.326372
0.354851
0.383503
0.412442
0.441247
0.469565
0.497252
0.524664
0.551201
0.577204
0.602663
0.627651
0.652254
0.676522
0.70052
0.72428
0.747851
0.771254
0.794516
0.817649
0.840667
0.863573
0.886371
0.90906
0.931636
0.954095
0.97643
0.998634
1.0207
1.04261
1.06437
1.08596
1.10737
1.12859
1.14959
1.17037
1.19091
1.21122
1.23126
1.25104
1.27054
1.28973
1.30863
1.3272
1.34547
1.36342
1.38106
1.39835
1.41528
1.43183
1.44799
1.46375
1.47907
1.49397
1.5084
1.52238
1.53587
1.54887
1.56136
1.57334
1.58478
1.59569
1.60604
1.61584
1.62506
1.63372
1.64179
1.64927
1.65616
1.66245
1.66814
1.67322
1.6777
1.68156
1.68482
1.68748
1.68954
1.69097
1.69181
1.69217
1.6921
1.69136
1.6901
1.68825
1.68584
1.68287
1.67936
1.67533
1.67078
1.66573
1.6602
1.65418
1.64768
1.64071
1.6333
1.62542
1.61716
1.60847
1.59943
1.59004
1.58033
1.57035
1.56012
1.54969
1.53907
1.52831
1.51742
1.50643
1.49535
1.4842
1.473
1.46178
1.45055
1.43934
1.42819
1.41709
1.40606
1.39509
1.38416
1.3732
1.36213
1.35078
1.33888
1.32458
1.29961
8.05303e-07
2.42415e-05
0.000190482
0.000770422
0.00229352
0.00535746
0.00901761
0.0125769
0.0156674
0.0181123
0.0198758
0.0209962
0.0215858
0.0216955
0.021565
0.0212106
0.0206443
0.019963
0.0191973
0.0183628
0.0174609
0.0164875
0.0154249
0.0142522
0.0129506
0.0114975
0.00991085
0.00825562
0.0067006
0.00516727
0.00406137
0.00298329
0.00310105
0.00475565
0.0116863
0.0264436
0.0410221
0.0526743
0.0617156
0.0703693
0.0810738
0.0947465
0.110395
0.1258
0.141768
0.159095
0.179327
0.200916
0.224635
0.250678
0.278408
0.308065
0.339313
0.371975
0.405524
0.439445
0.473422
0.507207
0.540696
0.573694
0.606088
0.637899
0.669151
0.699756
0.729855
0.75948
0.788707
0.817599
0.846209
0.874585
0.902766
0.930786
0.958666
0.986426
1.01408
1.04162
1.06907
1.09641
1.12364
1.15075
1.17774
1.20459
1.23129
1.25784
1.2842
1.31038
1.33637
1.36214
1.38768
1.41297
1.438
1.46276
1.48724
1.51144
1.53533
1.55891
1.58216
1.60508
1.62765
1.64985
1.67166
1.69308
1.71407
1.73461
1.75469
1.77428
1.79336
1.81193
1.82995
1.84742
1.8643
1.8806
1.89629
1.91136
1.92579
1.93957
1.95269
1.96513
1.97689
1.98795
1.9983
2.00795
2.01687
2.02508
2.03255
2.03929
2.04529
2.05055
2.05507
2.05885
2.0619
2.06423
2.06578
2.06657
2.06681
2.06639
2.06519
2.06329
2.06069
2.05741
2.05346
2.04886
2.04361
2.03774
2.03126
2.02419
2.01653
2.0083
1.99951
1.99017
1.98031
1.96996
1.95912
1.94784
1.93615
1.92407
1.91166
1.89894
1.88597
1.87277
1.85938
1.84583
1.83215
1.81836
1.80447
1.79052
1.77653
1.76252
1.74854
1.73461
1.72076
1.70699
1.69332
1.67974
1.66623
1.65274
1.63915
1.62528
1.60953
1.58646
2.73169e-06
8.19047e-05
0.000609036
0.00235134
0.00640507
0.0118852
0.0169747
0.0210394
0.0239204
0.0257189
0.026649
0.0269075
0.0267588
0.0263181
0.0256123
0.0247832
0.0238833
0.0229497
0.0220038
0.0210536
0.0200947
0.0191173
0.0181026
0.0170281
0.0158673
0.0145915
0.0131976
0.0117336
0.0103075
0.00884332
0.00743671
0.00779136
0.0116746
0.0241085
0.0448184
0.0646699
0.0812307
0.0942866
0.105413
0.116349
0.128005
0.140611
0.154178
0.169749
0.188473
0.210082
0.2346
0.26176
0.291237
0.322652
0.355571
0.389773
0.424901
0.460689
0.496833
0.533113
0.569375
0.60548
0.641329
0.676836
0.711935
0.746622
0.780887
0.814734
0.848216
0.881368
0.914236
0.946866
0.979299
1.01157
1.04371
1.07575
1.10769
1.13956
1.17135
1.20308
1.23472
1.26627
1.29773
1.32908
1.36031
1.39139
1.42232
1.45308
1.48364
1.514
1.54414
1.57404
1.60368
1.63304
1.6621
1.69086
1.71931
1.74743
1.77521
1.80263
1.82967
1.85632
1.88255
1.90835
1.93368
1.95854
1.98289
2.00671
2.02998
2.05268
2.07479
2.09628
2.11713
2.13732
2.15683
2.17565
2.19376
2.21113
2.22775
2.24361
2.25869
2.27298
2.28646
2.29913
2.31097
2.32198
2.33215
2.34147
2.34995
2.35756
2.36432
2.37021
2.37525
2.37942
2.38274
2.38522
2.38677
2.38744
2.3875
2.38669
2.38501
2.38252
2.37922
2.37513
2.37026
2.36464
2.35828
2.35119
2.3434
2.33493
2.32578
2.31596
2.30551
2.29444
2.28277
2.27054
2.25776
2.24446
2.23069
2.21648
2.20187
2.18691
2.17164
2.1561
2.14034
2.12438
2.10827
2.09201
2.07565
2.05919
2.04269
2.02616
2.00965
1.99319
1.97682
1.96056
1.94444
1.92845
1.91261
1.89692
1.88129
1.86564
1.84858
1.82619
8.74303e-06
0.000255655
0.00182052
0.00642873
0.0143913
0.0213612
0.0263038
0.0293409
0.0309243
0.0315133
0.0314393
0.0309983
0.0301678
0.0291567
0.0280493
0.0269095
0.0257806
0.0246885
0.023645
0.0226488
0.0216895
0.0207507
0.0198076
0.0188295
0.0177864
0.0166145
0.0152558
0.0136672
0.0120289
0.0119105
0.0141197
0.0227195
0.0410371
0.0653787
0.0885781
0.10734
0.121123
0.131301
0.140177
0.149551
0.160334
0.174017
0.191031
0.211302
0.235075
0.261909
0.291295
0.322668
0.35556
0.389659
0.4247
0.4605
0.496888
0.533732
0.570903
0.6083
0.645837
0.683423
0.720975
0.75842
0.795706
0.832804
0.869698
0.906386
0.942884
0.979211
1.01539
1.05146
1.08744
1.12336
1.15923
1.19508
1.23091
1.26672
1.30252
1.33829
1.37402
1.40969
1.4453
1.48081
1.5162
1.55146
1.58656
1.62148
1.6562
1.6907
1.72495
1.75894
1.79265
1.82604
1.8591
1.89183
1.9242
1.95619
1.9878
2.01899
2.04975
2.08005
2.10986
2.13917
2.16794
2.19615
2.22378
2.2508
2.27719
2.30292
2.32796
2.3523
2.3759
2.39875
2.42081
2.44208
2.46252
2.48213
2.50087
2.51874
2.53572
2.55178
2.56693
2.58113
2.5944
2.60671
2.61806
2.62844
2.63786
2.64629
2.65375
2.66023
2.66572
2.67023
2.67378
2.67636
2.67788
2.67846
2.67826
2.67707
2.67492
2.67184
2.66785
2.66297
2.65722
2.65061
2.64316
2.6349
2.62585
2.61602
2.60543
2.5941
2.58206
2.56932
2.55591
2.54188
2.52723
2.51201
2.49624
2.47998
2.46327
2.44616
2.4287
2.41092
2.39288
2.37461
2.35616
2.33754
2.31879
2.29993
2.281
2.26204
2.24309
2.22419
2.20539
2.18673
2.16822
2.14989
2.13179
2.11394
2.0963
2.07881
2.0603
2.03763
2.80848e-05
0.000768037
0.00493576
0.0150149
0.0245168
0.0305646
0.0338774
0.035432
0.0358667
0.0356221
0.0348766
0.0337445
0.0324169
0.0309989
0.029571
0.0281905
0.0268932
0.0256957
0.024599
0.0235917
0.022655
0.0217604
0.0208738
0.0199505
0.0190371
0.0182081
0.0176572
0.0178671
0.0200278
0.0261143
0.039245
0.0610418
0.0855241
0.108372
0.126679
0.13947
0.148322
0.155753
0.163853
0.174874
0.18945
0.207662
0.229552
0.254771
0.282885
0.313175
0.345065
0.378147
0.412174
0.446994
0.482502
0.51863
0.555323
0.592535
0.630215
0.66831
0.706758
0.745479
0.784409
0.823484
0.862649
0.901865
0.941103
0.980348
1.0196
1.05885
1.09812
1.13743
1.17678
1.2162
1.25569
1.29525
1.33489
1.3746
1.41436
1.45416
1.49398
1.53379
1.57356
1.61326
1.65287
1.69234
1.73167
1.7708
1.80973
1.84842
1.88685
1.92499
1.96281
2.00029
2.0374
2.07413
2.11046
2.14638
2.18185
2.21685
2.25134
2.28532
2.31874
2.35158
2.3838
2.4154
2.44633
2.47657
2.50609
2.53486
2.56286
2.59006
2.61642
2.64192
2.66655
2.69026
2.71305
2.73488
2.75574
2.77561
2.79447
2.8123
2.82908
2.84482
2.85948
2.87307
2.88558
2.897
2.90733
2.91655
2.92468
2.93171
2.93763
2.94246
2.9462
2.94886
2.95032
2.95079
2.9503
2.94872
2.94608
2.94241
2.93772
2.93205
2.9254
2.91781
2.90928
2.89985
2.88954
2.87836
2.86635
2.85351
2.83989
2.8255
2.81037
2.79455
2.77805
2.76092
2.74319
2.7249
2.70612
2.68689
2.66726
2.64727
2.62699
2.60644
2.58567
2.56472
2.5436
2.52236
2.50103
2.47966
2.4583
2.43699
2.41577
2.39471
2.37382
2.35317
2.33278
2.31273
2.29301
2.27357
2.25338
2.22977
8.44629e-05
0.00211561
0.0116841
0.0251977
0.0334427
0.0377785
0.0398013
0.0403813
0.0400649
0.0391
0.037663
0.035981
0.0341918
0.0324039
0.0306968
0.0291226
0.027707
0.0264542
0.0253533
0.0243835
0.0235183
0.0227238
0.0219224
0.0211678
0.0206242
0.0208084
0.0226941
0.0280364
0.0393842
0.0574473
0.0795045
0.101738
0.122156
0.138584
0.150198
0.15826
0.165351
0.174064
0.18585
0.201354
0.220648
0.243453
0.269354
0.297735
0.327976
0.359514
0.392014
0.425302
0.459299
0.493971
0.529307
0.565307
0.601975
0.639307
0.677283
0.715863
0.755002
0.794646
0.834736
0.875214
0.916026
0.957129
0.998486
1.04007
1.08187
1.12387
1.16608
1.20849
1.25111
1.29394
1.33698
1.38023
1.42367
1.46729
1.51105
1.55494
1.59891
1.64292
1.68695
1.73093
1.77484
1.81863
1.86227
1.90573
1.94897
1.99195
2.03465
2.07703
2.11907
2.16072
2.20197
2.24279
2.28316
2.32306
2.36246
2.40133
2.43964
2.47735
2.51444
2.55087
2.58662
2.62165
2.65593
2.68943
2.72213
2.75398
2.78497
2.81505
2.8442
2.87238
2.89957
2.92575
2.95088
2.97494
2.99792
3.01978
3.04051
3.06009
3.0785
3.09574
3.11178
3.12663
3.14026
3.15268
3.16389
3.17387
3.18263
3.19017
3.19648
3.20158
3.20547
3.20816
3.20955
3.20986
3.20904
3.20703
3.20387
3.19957
3.19417
3.18767
3.18011
3.1715
3.16187
3.15125
3.13966
3.12713
3.11367
3.09932
3.08411
3.06806
3.05121
3.03359
3.01524
2.99619
2.97649
2.95618
2.93533
2.91398
2.89219
2.87001
2.84748
2.82466
2.80159
2.77829
2.75482
2.73119
2.70747
2.68369
2.65991
2.63617
2.61254
2.58907
2.56579
2.54277
2.52007
2.49776
2.47586
2.45433
2.43225
2.40719
0.000219533
0.00499572
0.0212476
0.0342796
0.0409487
0.044073
0.045169
0.0449886
0.0439706
0.0423149
0.0403029
0.0381187
0.0359134
0.0338061
0.0318804
0.0301871
0.0287501
0.0275732
0.0266498
0.0259575
0.0255294
0.0254589
0.0258226
0.0270513
0.0295334
0.0342209
0.0428895
0.0565956
0.0738267
0.0930088
0.112273
0.129619
0.143838
0.154668
0.163137
0.171243
0.18104
0.193854
0.21025
0.230191
0.253336
0.279175
0.307156
0.336707
0.36737
0.398847
0.431009
0.463825
0.497308
0.531489
0.566407
0.602099
0.638597
0.67591
0.714034
0.752951
0.792634
0.833039
0.87412
0.915826
0.958109
1.00092
1.04423
1.088
1.13221
1.17684
1.22188
1.26732
1.31315
1.35938
1.40597
1.45293
1.50021
1.54779
1.59564
1.6437
1.69193
1.74026
1.78865
1.83704
1.88538
1.9336
1.98168
2.02957
2.07723
2.12461
2.17169
2.21842
2.26477
2.31069
2.35616
2.40115
2.44564
2.48961
2.53302
2.57582
2.618
2.65951
2.70032
2.74039
2.7797
2.8182
2.85586
2.89266
2.92855
2.9635
2.99748
3.03045
3.06238
3.09323
3.12298
3.1516
3.17905
3.20532
3.23037
3.2542
3.27676
3.29805
3.31804
3.33672
3.35409
3.37013
3.38483
3.3982
3.41022
3.42089
3.43022
3.43819
3.44483
3.45012
3.4541
3.45675
3.458
3.45807
3.45686
3.45438
3.45064
3.44566
3.43948
3.43211
3.42358
3.41391
3.40314
3.3913
3.3784
3.36447
3.34956
3.33367
3.31685
3.29912
3.28053
3.26111
3.24089
3.21991
3.19823
3.1759
3.15298
3.12952
3.10557
3.0812
3.05644
3.03135
3.00598
2.98035
2.95452
2.92851
2.90239
2.8762
2.85
2.82384
2.79778
2.77189
2.7462
2.72079
2.69573
2.67109
2.64692
2.62321
2.59907
2.57222
0.000488282
0.0100734
0.0308594
0.0424412
0.0478696
0.0501237
0.0505039
0.049674
0.0479842
0.0457507
0.0432175
0.0405954
0.0380581
0.0357401
0.0337333
0.0320928
0.0308432
0.0299621
0.0295164
0.0293869
0.0297933
0.0310261
0.0337062
0.0385991
0.0463986
0.0574015
0.0710637
0.0863825
0.102628
0.118594
0.133128
0.145554
0.155962
0.165137
0.17452
0.185607
0.199482
0.216556
0.236758
0.259732
0.285013
0.312111
0.340571
0.370013
0.400189
0.430985
0.462391
0.494446
0.52721
0.560753
0.595142
0.630431
0.666656
0.703849
0.742022
0.781174
0.821289
0.862341
0.904295
0.947111
0.990747
1.03516
1.08032
1.12619
1.17274
1.21994
1.26779
1.31625
1.36531
1.41496
1.46517
1.5159
1.56712
1.61877
1.67081
1.72316
1.77577
1.82855
1.88144
1.93436
1.98724
2.04003
2.09266
2.14509
2.19727
2.24915
2.30069
2.35185
2.40259
2.45285
2.5026
2.55182
2.60049
2.64857
2.69602
2.7428
2.78888
2.83421
2.87875
2.92248
2.96535
3.00731
3.04834
3.0884
3.12746
3.16547
3.2024
3.23822
3.27288
3.30635
3.33859
3.36958
3.39928
3.42767
3.45473
3.48042
3.50472
3.52762
3.54909
3.56912
3.58771
3.60484
3.62051
3.63471
3.64743
3.65869
3.66847
3.67678
3.68362
3.68902
3.69297
3.69547
3.69652
3.69624
3.69456
3.6915
3.6871
3.68136
3.67433
3.66601
3.65645
3.64567
3.63371
3.62058
3.60632
3.59097
3.57456
3.55711
3.53865
3.51923
3.49887
3.47763
3.45553
3.43261
3.40895
3.38459
3.3596
3.33403
3.30795
3.28139
3.25441
3.22707
3.1994
3.17145
3.14326
3.11488
3.08637
3.05778
3.02917
3.00059
2.97211
2.94379
2.91568
2.88786
2.8604
2.8334
2.8069
2.78091
2.75461
2.72606
0.000926942
0.0172955
0.0392546
0.0498634
0.0545986
0.056279
0.0561345
0.0547474
0.0525352
0.0498287
0.0469081
0.0440158
0.0413511
0.0390665
0.0372737
0.0360544
0.0355111
0.0354784
0.036174
0.0378189
0.0407262
0.0452371
0.0516123
0.0600229
0.0703972
0.0824371
0.0955709
0.109057
0.122226
0.134526
0.145712
0.155927
0.165828
0.176426
0.188743
0.203491
0.22096
0.241057
0.263476
0.287827
0.313718
0.340796
0.36877
0.397435
0.426691
0.456526
0.486988
0.518154
0.550115
0.582957
0.616757
0.65158
0.687481
0.724503
0.762673
0.802005
0.8425
0.884146
0.926923
0.970804
1.01576
1.06175
1.10874
1.15671
1.20562
1.25544
1.30614
1.3577
1.41009
1.46327
1.51721
1.57185
1.62714
1.683
1.73936
1.79614
1.85326
1.91062
1.96814
2.02571
2.08325
2.14069
2.19796
2.25501
2.31179
2.36823
2.42429
2.47993
2.53508
2.5897
2.64375
2.69721
2.75005
2.80223
2.8537
2.90442
2.95435
3.00345
3.05167
3.09898
3.14534
3.19069
3.23499
3.27822
3.32034
3.36129
3.40106
3.43959
3.47685
3.51279
3.54738
3.58059
3.61239
3.64275
3.67164
3.69904
3.72492
3.74925
3.77204
3.79325
3.81288
3.83093
3.84739
3.86226
3.87553
3.8872
3.89727
3.90575
3.91265
3.91798
3.92176
3.92399
3.92469
3.92392
3.92165
3.91791
3.91273
3.90613
3.89815
3.8888
3.87813
3.86616
3.85292
3.83846
3.82279
3.80597
3.78801
3.76897
3.74886
3.72773
3.7056
3.68252
3.65853
3.63368
3.60804
3.58167
3.55464
3.52699
3.49879
3.47009
3.44093
3.41136
3.38143
3.35118
3.32067
3.28995
3.25908
3.22812
3.19713
3.16616
3.13528
3.10455
3.07403
3.04379
3.01393
2.98454
2.95568
2.92737
2.89885
2.8684
0.00147996
0.024702
0.0472912
0.0573921
0.0616488
0.0628924
0.0623344
0.0605225
0.0579292
0.0549428
0.0518907
0.0490471
0.0466387
0.0448357
0.0438775
0.0436383
0.0442129
0.0457208
0.0482988
0.0520936
0.0572298
0.0637758
0.0717125
0.0809275
0.0911856
0.102119
0.113313
0.124401
0.13518
0.1456
0.15586
0.166466
0.178093
0.19136
0.206692
0.224242
0.243921
0.265487
0.288642
0.313092
0.338578
0.364887
0.391868
0.419437
0.447579
0.476336
0.505789
0.536037
0.567181
0.599314
0.632526
0.666895
0.702487
0.739358
0.77755
0.817092
0.858001
0.900283
0.943934
0.988944
1.03529
1.08295
1.13188
1.18207
1.23347
1.28605
1.33978
1.3946
1.4505
1.5074
1.56527
1.62403
1.68359
1.74384
1.80471
1.86607
1.92785
1.98991
2.05215
2.11446
2.17673
2.23888
2.30084
2.36253
2.42391
2.48491
2.54547
2.60552
2.66503
2.72394
2.78221
2.83981
2.89672
2.95288
3.00825
3.06277
3.11642
3.16913
3.22087
3.27159
3.32124
3.36978
3.41716
3.46334
3.50829
3.55197
3.59433
3.63534
3.67495
3.71311
3.7498
3.78498
3.81862
3.85068
3.88115
3.90999
3.93718
3.96269
3.98652
4.00865
4.02908
4.04779
4.0648
4.08008
4.09366
4.10551
4.11565
4.12408
4.13081
4.13588
4.13928
4.14105
4.14121
4.13981
4.13678
4.1322
4.1261
4.11851
4.10945
4.09897
4.08709
4.07384
4.05926
4.04339
4.02626
4.00791
3.98839
3.96772
3.94595
3.9231
3.89921
3.8743
3.84844
3.82168
3.7941
3.76576
3.73673
3.70706
3.6768
3.64601
3.61472
3.58299
3.55086
3.51837
3.4856
3.4526
3.41944
3.38618
3.35288
3.31958
3.28636
3.25327
3.22037
3.18776
3.15552
3.12376
3.09253
3.0619
3.03113
2.99875
0.00220522
0.0313502
0.0547223
0.0648741
0.0689802
0.0700015
0.0691583
0.0670383
0.0642271
0.0612045
0.0583512
0.0559547
0.0542486
0.0534708
0.0533992
0.054317
0.0562136
0.0591316
0.0631057
0.0681451
0.0742317
0.0813012
0.0892401
0.0978913
0.107067
0.116587
0.126316
0.136189
0.146258
0.156733
0.167959
0.180337
0.194206
0.209779
0.227109
0.246112
0.26661
0.288392
0.311251
0.335009
0.359524
0.384694
0.410464
0.436826
0.463816
0.49151
0.520002
0.549397
0.579805
0.611327
0.644061
0.678096
0.713513
0.750381
0.788753
0.828671
0.870168
0.913271
0.957992
1.00433
1.05229
1.10184
1.15297
1.20564
1.25983
1.31548
1.37256
1.43099
1.49073
1.5517
1.61382
1.677
1.74109
1.80598
1.87153
1.93761
2.00411
2.07092
2.1379
2.20493
2.2719
2.33871
2.40529
2.47157
2.53746
2.60289
2.66779
2.7321
2.79578
2.85878
2.92104
2.98256
3.04329
3.10319
3.16218
3.22023
3.27729
3.3333
3.38824
3.44204
3.49465
3.54602
3.59612
3.64489
3.69231
3.73832
3.7829
3.826
3.86756
3.90756
3.94595
3.9827
4.01777
4.05116
4.08281
4.11271
4.14083
4.16714
4.19164
4.21432
4.23517
4.2542
4.2714
4.28678
4.30033
4.31205
4.32194
4.33002
4.33631
4.34084
4.34362
4.34468
4.34409
4.34182
4.33782
4.33222
4.32503
4.31629
4.30603
4.29428
4.28108
4.26645
4.25045
4.23311
4.21446
4.19455
4.17343
4.15113
4.12769
4.10315
4.07752
4.05081
4.02312
3.99451
3.96505
3.93482
3.90387
3.87226
3.84004
3.80725
3.77395
3.74016
3.70592
3.6713
3.63637
3.6012
3.56586
3.53041
3.4949
3.45938
3.42391
3.38854
3.35336
3.31845
3.2839
3.24983
3.21628
3.18336
3.15038
3.11609
0.00305935
0.0374113
0.0622745
0.0726284
0.0766391
0.0774921
0.0764216
0.0740601
0.0711125
0.0682338
0.0658774
0.064314
0.0636317
0.0635938
0.0645563
0.0664818
0.0693236
0.073052
0.0776394
0.0830443
0.0892098
0.0960626
0.103525
0.111529
0.120023
0.128975
0.138403
0.148406
0.159139
0.170804
0.183606
0.197708
0.213185
0.230033
0.248171
0.267477
0.287808
0.309033
0.331036
0.353734
0.377072
0.401028
0.425614
0.450867
0.476857
0.503675
0.531429
0.560223
0.590162
0.621352
0.6539
0.687903
0.723455
0.760633
0.79951
0.840149
0.882604
0.92692
0.973129
1.02125
1.07128
1.12323
1.17707
1.23276
1.29028
1.34957
1.41055
1.47315
1.53726
1.60277
1.66956
1.73749
1.80639
1.8761
1.94643
2.01723
2.08839
2.15979
2.23133
2.30289
2.37434
2.44559
2.51657
2.58718
2.65734
2.72693
2.79583
2.86403
2.93152
2.99821
3.06408
3.1291
3.19321
3.25638
3.31853
3.37961
3.43957
3.49837
3.55596
3.61229
3.66731
3.72097
3.77321
3.824
3.8733
3.92108
3.96729
4.0119
4.05485
4.0961
4.13562
4.17337
4.20933
4.24347
4.27576
4.30618
4.33471
4.36131
4.38599
4.40874
4.42955
4.44842
4.46537
4.48038
4.49346
4.50463
4.51388
4.52123
4.52672
4.53038
4.53223
4.53229
4.5307
4.52724
4.52206
4.51522
4.50675
4.49669
4.48506
4.4719
4.45726
4.44116
4.42365
4.40476
4.38455
4.36305
4.34031
4.31638
4.2913
4.2651
4.2378
4.20936
4.17992
4.14955
4.11834
4.08633
4.05359
4.02016
3.9861
3.95146
3.91628
3.88058
3.84438
3.80777
3.77084
3.73366
3.6963
3.65881
3.62125
3.58366
3.54609
3.50858
3.47124
3.43416
3.39743
3.36116
3.32541
3.29029
3.25517
3.21908
0.00398088
0.0436797
0.0696659
0.0803112
0.0842975
0.0850142
0.0835907
0.0809391
0.0780593
0.0756387
0.0740759
0.0734189
0.0733645
0.0741605
0.0758644
0.0784204
0.0817675
0.0858559
0.0906486
0.096111
0.102215
0.108942
0.11628
0.124231
0.132816
0.142091
0.152134
0.163037
0.174903
0.187823
0.201838
0.216963
0.233159
0.25036
0.268478
0.287427
0.30713
0.327529
0.348587
0.370292
0.392649
0.415686
0.439455
0.464029
0.489482
0.515899
0.543394
0.572078
0.602067
0.633471
0.666406
0.700979
0.737298
0.775456
0.815542
0.857638
0.901815
0.948142
0.996669
1.04743
1.10042
1.15563
1.21304
1.27262
1.3343
1.39803
1.46368
1.53113
1.60022
1.67076
1.74254
1.81542
1.88919
1.96365
2.03861
2.11386
2.18921
2.26468
2.34024
2.41581
2.49123
2.56641
2.64128
2.71571
2.78959
2.86276
2.93513
3.0067
3.07746
3.14731
3.21619
3.28408
3.35093
3.41669
3.48128
3.54467
3.60679
3.66761
3.72708
3.78515
3.84178
3.89691
3.95049
4.00248
4.05286
4.10158
4.14862
4.19392
4.23747
4.27918
4.31905
4.35703
4.39311
4.42726
4.45946
4.48968
4.51792
4.54415
4.56836
4.59054
4.61068
4.6288
4.64489
4.65897
4.67105
4.68113
4.68924
4.6954
4.69964
4.70202
4.70254
4.70134
4.69827
4.69334
4.6867
4.67836
4.66836
4.65675
4.64356
4.62883
4.61259
4.59489
4.57577
4.55526
4.53341
4.51027
4.48589
4.46031
4.43358
4.40574
4.37681
4.34677
4.31574
4.28379
4.25098
4.21736
4.18299
4.14792
4.1122
4.07588
4.03902
4.00162
3.96365
3.92527
3.88656
3.84759
3.80842
3.76911
3.7297
3.69025
3.65077
3.61132
3.57201
3.53294
3.49421
3.45592
3.41812
3.38095
3.34383
3.30613
0.00492379
0.0497384
0.0768541
0.0877375
0.091659
0.0922009
0.0903814
0.0876106
0.0850451
0.0832898
0.0824906
0.0823364
0.0829093
0.0842727
0.0864625
0.0894144
0.0930773
0.0974145
0.102412
0.108066
0.114383
0.121378
0.129081
0.137531
0.146776
0.156868
0.167854
0.179774
0.192636
0.20643
0.221143
0.236738
0.253149
0.270319
0.288198
0.306755
0.325971
0.34585
0.366399
0.387649
0.409648
0.432474
0.456238
0.480997
0.506757
0.533631
0.561806
0.591379
0.622464
0.655174
0.689628
0.725946
0.764244
0.804623
0.847184
0.892016
0.939205
0.98882
1.04093
1.09557
1.1527
1.21228
1.27425
1.33857
1.40515
1.4739
1.5447
1.61739
1.69172
1.76741
1.84407
1.92156
1.99973
2.07843
2.15746
2.23655
2.31552
2.39452
2.4735
2.5523
2.63077
2.70896
2.78687
2.86424
2.9409
3.01677
3.09182
3.16597
3.23914
3.31121
3.38216
3.45192
3.52048
3.58775
3.65369
3.71824
3.78137
3.84304
3.90322
3.96187
4.01892
4.07435
4.12808
4.18011
4.23039
4.27892
4.32565
4.37056
4.41359
4.45471
4.49387
4.53105
4.56623
4.59941
4.63057
4.65967
4.68672
4.71169
4.73457
4.75537
4.77408
4.7907
4.80527
4.81778
4.82825
4.8367
4.84313
4.84758
4.8501
4.85076
4.84968
4.8467
4.84181
4.83515
4.82677
4.8167
4.80498
4.79166
4.77678
4.76037
4.74247
4.72312
4.70237
4.68025
4.6568
4.63207
4.60612
4.57899
4.55071
4.52135
4.49093
4.45952
4.42714
4.39383
4.35965
4.32465
4.28888
4.25239
4.21524
4.17747
4.13915
4.10028
4.06086
4.02101
3.98082
3.94033