/*--------------------------------*- C++ -*----------------------------------*\
  =========                 |
  \\      /  F ield         | OpenFOAM: The Open Source CFD Toolbox
   \\    /   O peration     | Website:  https://openfoam.org
    \\  /    A nd           | Version:  8
     \\/     M anipulation  |
\*---------------------------------------------------------------------------*/
FoamFile
{
    version     2.0;
    format      ascii;
    class       volScalarField;
    location    "900";
    object      omega;
}
// * * * * * * * * * * * * * * * * * * * * * * * * * * * * * * * * * * * * * //

dimensions      [0 0 -1 0 0 0 0];

internalField   nonuniform List<scalar> 
12225
(
32582.3
32582.3
46725.1
41002.4
44793.3
41009.1
38421.5
32582.3
38189.6
32582.3
32582.3
44022.1
45317.5
43137.4
46616
42704.3
32582.3
32582.3
10344.8
9058.89
12786.2
16100.5
17778.8
17245.6
16314.6
15695.6
15570.1
17227.8
15308
16649.5
17090.8
18448.9
19041.8
18785.2
18020
17520.7
2266.71
1800.98
2414.79
3285.94
3982.3
4563.51
5192.71
5471.76
5849.48
6177.34
6392.93
6682.07
6925.65
7080.3
7281.2
7427.69
7519.99
7647.08
816.884
816.483
819.615
983.568
1158.8
1336.14
1532.47
1703.98
1842.66
1986.06
2086.83
2217.24
2301.95
2408.85
2471.39
2566.21
2607.58
2701.09
505.308
541.419
522.182
553.42
598.245
655.917
715.865
783.446
835.671
895.846
937.419
991.909
1026.42
1074.8
1101.7
1144.67
1165.08
1205.25
442.032
467.338
460.153
460.522
468.563
486.393
505.136
530.978
551.533
577.133
595.255
619.088
634.606
656.536
669.253
689.423
699.422
718.571
440.876
439.571
441.449
440.428
439.018
441.356
445.127
453.158
459.863
469.526
476.512
486.234
492.722
502.124
507.827
516.848
521.633
530.434
439.422
437.589
435.489
433.974
432.241
432.089
432.12
433.372
435.058
438.357
440.748
444.578
447.109
451.138
453.578
457.687
459.892
464.184
439.075
437.041
434.792
432.909
430.929
429.512
428.186
427.639
427.052
427.265
427.561
428.302
428.837
429.963
430.634
431.984
432.741
434.378
438.997
436.865
434.691
432.737
430.766
429.055
427.363
426.003
424.709
423.709
422.765
422.129
421.45
421.084
420.622
420.459
420.178
420.253
438.993
436.805
434.673
432.697
430.768
428.993
427.261
425.689
424.166
422.802
421.471
420.31
419.16
418.183
417.194
416.384
415.533
414.884
438.998
436.786
434.667
432.676
430.764
428.969
427.244
425.626
424.068
422.612
421.206
419.897
418.631
417.46
416.323
415.277
414.259
413.327
439
436.778
434.663
432.662
430.755
428.95
427.228
425.595
424.036
422.558
421.144
419.803
418.519
417.303
416.138
415.033
413.975
412.973
439.001
436.775
434.66
432.654
430.747
428.936
427.212
425.574
424.013
422.529
421.112
419.764
418.476
417.251
416.08
414.965
413.898
412.882
439.001
436.773
434.657
432.648
430.739
428.926
427.2
425.559
423.996
422.507
421.089
419.737
418.448
417.219
416.045
414.926
413.857
412.836
439.001
436.772
434.655
432.645
430.734
428.918
427.191
425.547
423.982
422.491
421.071
419.717
418.426
417.195
416.019
414.898
413.827
412.804
439
436.769
434.651
432.639
430.727
428.909
427.18
425.534
423.967
422.475
421.053
419.697
418.405
417.172
415.995
414.872
413.8
412.776
439
436.769
434.651
432.638
430.726
428.908
427.178
425.532
423.964
422.471
421.049
419.692
418.399
417.165
415.988
414.864
413.792
412.767
439.001
436.771
434.654
432.643
430.731
428.914
427.185
425.539
423.973
422.48
421.058
419.702
418.409
417.176
415.998
414.875
413.802
412.778
439.001
436.772
434.655
432.645
430.735
428.918
427.19
425.546
423.98
422.488
421.067
419.712
418.42
417.187
416.011
414.888
413.817
412.793
439.002
436.773
434.658
432.648
430.74
428.924
427.199
425.555
423.992
422.502
421.084
419.73
418.442
417.212
416.041
414.923
413.859
412.842
439.001
436.775
434.663
432.652
430.748
428.932
427.214
425.575
424.027
422.546
421.149
419.811
418.554
417.351
416.225
415.147
414.14
413.174
438.993
436.78
434.667
432.654
430.762
428.963
427.299
425.729
424.294
422.934
421.695
420.523
419.491
418.506
417.67
416.858
416.193
415.525
438.905
436.822
434.687
432.728
430.988
429.481
428.274
427.313
426.682
426.175
425.86
425.762
425.825
425.985
426.38
426.748
427.462
427.967
438.305
437.385
435.276
434.559
434.315
435.327
436.528
438.871
442.189
445.266
449.095
452.563
456.831
460.598
465.137
468.95
473.503
477.089
436.022
444.482
444.131
451.285
459.347
470.267
485.003
499.641
516.024
530.65
546.631
560.46
575.848
588.776
603.396
615.137
628.715
639.002
411.992
498.435
518.495
559.343
607.131
658.87
717.143
771.81
828.144
876.738
926.887
968.558
1013.22
1048.99
1089.12
1119.65
1155.7
1181.52
443.419
791.271
1019.44
1248.85
1470.41
1689.67
1906.82
2098.91
2278
2424.93
2563.11
2673.22
2781.96
2866.97
2958.26
3027.14
3108.13
3166.19
1706.76
3884.43
5423.2
6563.49
7449.85
8106.31
8580.15
8916.21
9141.08
9274.78
9351.12
9372.45
9367.26
9347.83
9322.25
9286.19
9267.55
9240.71
19210.3
21938.1
23595.4
24493.9
24955.7
25052.6
24993.9
24845.6
24603.8
24337.3
24067
23803.8
23555.2
23324.1
23112.1
22919
22743.5
22586.6
11463.3
2494.65
2496.87
2499.12
2501.38
2503.67
2505.98
2508.3
2510.65
2513.02
2515.42
2517.83
2520.27
2522.73
2525.21
2527.72
2530.25
2532.8
2535.37
2537.97
2540.6
2543.25
2545.92
2548.62
2551.34
2554.09
2556.87
2559.67
2562.5
2565.35
2568.23
2571.14
2574.08
2577.04
2580.04
2583.06
2586.11
2589.19
2592.3
2595.43
2598.6
2601.8
2605.03
2608.29
2611.59
2614.91
2618.27
2621.66
2625.08
2628.54
2632.03
2635.55
2639.11
2642.71
2646.33
2650
2653.7
2657.44
2661.21
3135.74
3277.66
3417.46
3238.67
3405.76
3482.1
3568.7
3648.45
3727.8
3800.98
3874.74
3943.92
4012.82
4078.81
4143.94
4207.09
4269.19
4329.78
4389.28
4447.56
4504.71
4560.83
4615.82
4669.9
4722.83
4774.95
4825.92
4876.12
4925.18
4973.41
5020.51
5066.63
5111.7
5155.73
5198.61
5240.34
5280.82
5320.08
5358.06
5394.86
5430.66
5465.92
5500.15
5533.41
5565.75
5597.12
5627.57
5657.04
5685.56
5713.06
5739.6
5765.1
5789.62
5813.07
5835.54
5856.92
5877.31
5896.59
5914.87
5932.04
5948.21
5963.27
5977.33
5990.27
6002.22
6013.06
6022.9
6031.64
6039.41
6046.78
6052.27
6057.97
6060.54
6063.82
6065.83
6067.61
6068.32
6067.94
6065.55
6062.68
6058.6
6053.83
6048.18
6041.83
6034.67
6026.87
6018.33
6009.22
5999.21
5988.64
5977.3
5965.24
5952.75
5939.56
5925.99
5911.96
5897.57
5882.92
5868
5852.93
5837.79
5822.67
5807.59
5792.61
5777.74
5763.05
5748.56
5734.35
5720.49
5707.03
5694.02
5681.45
5669.31
5657.53
5645.83
5633.87
5620.91
5606.08
5586.73
5557.9
5439.88
11463.3
1992.94
995.16
808.285
690.825
622.501
629.405
625.401
614.269
591.867
567.841
544.46
522.921
505.118
492.935
484.324
483.636
485.638
512.06
560.148
644.213
745.464
855.5
964.774
1062.71
1138.4
1181.32
1175.46
1133.85
1055.88
932.675
779.154
648.768
564.787
498.268
461.898
455.995
463.965
485.763
517.516
549.453
585.533
675.602
807.12
1012.21
1327.98
1635.77
1847.93
1986.67
2053.48
2072.44
2059.69
2014.15
1966.66
1908.16
1847.45
1807.02
1775.36
1750.45
1736.83
1706.63
1699.64
1679.59
1673.89
1668.94
1666.02
1665.24
1666.61
1669.64
1673.85
1678.79
1684.65
1690.9
1697.72
1704.79
1712.17
1719.7
1727.38
1735.14
1742.95
1750.79
1758.62
1766.43
1774.17
1781.86
1789.44
1796.93
1804.28
1811.5
1818.52
1825.4
1832.07
1838.56
1844.85
1850.97
1856.98
1862.96
1869.08
1875.58
1882.87
1891.49
1899.76
1907.84
1915.7
1923.33
1930.74
1937.92
1944.87
1951.58
1958.07
1964.32
1970.33
1976.12
1981.67
1986.99
1992.07
1996.92
2001.54
2005.93
2010.09
2014.03
2017.74
2021.22
2024.49
2027.54
2030.37
2033.01
2035.46
2037.73
2039.73
2041.61
2043.17
2044.73
2046.08
2047.26
2048.01
2048.17
2047.59
2046.71
2045.62
2044.35
2042.89
2041.25
2039.43
2037.46
2035.33
2032.97
2030.45
2027.99
2024.53
2022.11
2018.54
2015.54
2012.11
2008.62
2005.1
2001.43
1997.76
1994
1990.24
1986.45
1982.65
1978.86
1975.08
1971.33
1967.61
1963.95
1960.34
1956.82
1953.38
1950.06
1946.85
1943.73
1940.82
1938.12
1935.73
1933.72
1932.64
1931.51
1940.46
11463.3
2009.08
814.306
641.535
680.833
681.122
653.426
598.032
538.599
482.74
433.344
391.398
358.437
332.608
312.728
297.459
286.807
278.725
276.538
278.881
289.325
307.654
339.726
383.461
438.311
498.48
559.746
606.565
637.434
635.48
613.752
572.768
510.671
442.538
391.875
384.59
395.764
420.614
459.375
532.557
644.321
798.609
992.81
1170.36
1318.16
1449.42
1537.21
1563.35
1560.95
1512.83
1458.89
1397.36
1340.03
1289.13
1243.46
1206.42
1179.22
1156.57
1138.36
1125.4
1114.78
1112.84
1104.77
1103.69
1101.74
1101.66
1102.53
1104.29
1106.61
1109.42
1112.59
1116.08
1119.78
1123.69
1127.73
1131.89
1136.13
1140.44
1144.79
1149.17
1153.57
1157.97
1162.35
1166.72
1171.06
1175.36
1179.61
1183.82
1187.96
1192.05
1196.07
1200.04
1203.97
1207.86
1211.75
1215.65
1219.61
1223.67
1227.87
1232.24
1236.65
1240.89
1245.02
1249.02
1252.9
1256.64
1260.26
1263.74
1267.09
1270.31
1273.4
1276.35
1279.17
1281.86
1284.41
1286.83
1289.11
1291.26
1293.28
1295.15
1296.9
1298.51
1300
1301.35
1302.57
1303.66
1304.63
1305.47
1306.19
1306.77
1307.26
1307.59
1307.84
1307.94
1307.92
1307.65
1307.15
1306.44
1305.61
1304.67
1303.62
1302.46
1301.19
1299.82
1298.35
1296.79
1295.08
1293.29
1291.49
1289.32
1287.46
1285.2
1283.07
1280.79
1278.45
1276.09
1273.65
1271.19
1268.68
1266.15
1263.59
1261.01
1258.43
1255.84
1253.25
1250.66
1248.09
1245.53
1243.01
1240.51
1238.07
1235.7
1233.42
1231.28
1229.34
1227.73
1226.61
1226.63
1228.14
1238.58
11463.3
2039.54
1014.88
978.53
902.032
773.022
656.209
549.702
465.596
402.824
355.562
318.651
289.881
267.79
250.898
238.073
228.485
221.562
216.998
215.306
216.362
219.458
227.757
241.925
263.366
291.844
326.294
361.249
392.591
415.827
421.998
415.577
393.817
395.463
434.203
525.139
592.188
650.494
722.435
824.22
957.416
1073.9
1152.66
1220.16
1272.67
1292.14
1255.97
1211.59
1166
1112.34
1066.98
1025.03
990.818
962.173
939.011
921.126
907.742
897.388
889.703
884.508
881.054
880.074
878.377
878.538
879.213
880.578
882.418
884.651
887.176
889.948
892.914
896.043
899.299
902.662
906.11
909.627
913.198
916.811
920.456
924.121
927.799
931.481
935.159
938.827
942.48
946.111
949.717
953.294
956.84
960.349
963.83
967.283
970.715
974.13
977.537
980.944
984.355
987.775
991.195
994.595
997.924
1001.15
1004.27
1007.3
1010.23
1013.06
1015.78
1018.4
1020.92
1023.33
1025.63
1027.82
1029.91
1031.88
1033.75
1035.5
1037.14
1038.67
1040.09
1041.39
1042.58
1043.66
1044.63
1045.48
1046.22
1046.84
1047.36
1047.76
1048.06
1048.24
1048.33
1048.29
1048.15
1047.89
1047.5
1046.96
1046.27
1045.46
1044.54
1043.53
1042.42
1041.21
1039.92
1038.53
1037.05
1035.49
1033.83
1032.08
1030.29
1028.33
1026.42
1024.35
1022.28
1020.13
1017.92
1015.68
1013.38
1011.05
1008.68
1006.28
1003.85
1001.4
998.941
996.468
993.989
991.507
989.027
986.553
984.094
981.653
979.247
976.895
974.618
972.461
970.48
968.78
967.518
967.225
968.333
974.776
11463.3
2318.46
1471.12
1184.68
939.951
726.673
560.683
449.479
373.654
320.707
283.036
256.174
236.766
222.15
210.784
201.896
195.116
190.168
186.857
185.26
185.49
186.817
190.708
197.507
208.299
224.077
245.07
268.794
292.697
311.297
327.098
358.015
418.094
522.62
613.3
682.698
752.959
829.282
901.671
965.002
1020.19
1067.81
1097.88
1105.86
1074.9
1028.17
990.807
949.087
912.075
878.015
850.459
826.849
808.103
793.008
781.35
772.669
766.425
762.03
759.452
758.013
757.654
758.117
759.006
760.631
762.629
764.987
767.615
770.463
773.486
776.656
779.945
783.336
786.81
790.356
793.959
797.611
801.303
805.024
808.768
812.527
816.294
820.061
823.824
827.576
831.313
835.029
838.722
842.388
846.023
849.627
853.196
856.737
860.249
863.731
867.186
870.609
873.999
877.344
880.637
883.862
887.006
890.057
893.019
895.889
898.664
901.343
903.924
906.406
908.786
911.064
913.239
915.31
917.273
919.13
920.876
922.513
924.038
925.451
926.751
927.937
929.008
929.965
930.805
931.532
932.142
932.637
933.016
933.279
933.427
933.46
933.401
933.209
932.903
932.475
931.924
931.242
930.435
929.513
928.487
927.361
926.136
924.812
923.392
921.879
920.278
918.587
916.803
914.934
912.994
910.953
908.872
906.703
904.484
902.201
899.861
897.472
895.034
892.554
890.036
887.485
884.906
882.304
879.685
877.052
874.41
871.76
869.109
866.461
863.823
861.21
858.629
856.096
853.63
851.266
849.055
847.083
845.479
844.613
844.931
848.211
11463.3
2933.86
1731.39
1206.69
831.751
586.66
443.422
354.612
299.179
263.277
238.629
220.769
207.217
196.671
188.249
181.511
176.275
172.434
169.929
168.876
169.213
170.612
173.917
179.165
187.069
198.833
215.436
237.135
265.844
308.555
364.701
457.999
568.566
658.553
727.052
789.47
841.86
882.422
917.021
950.516
967.672
969.761
940.844
909.616
876.752
842.517
812.86
784.571
761.05
740.898
724.626
711.298
700.921
692.978
687.222
683.312
681.077
680.113
679.968
680.69
682.132
684.122
686.496
689.259
692.285
695.535
698.96
702.53
706.217
710.003
713.874
717.817
721.822
725.88
729.982
734.121
738.289
742.478
746.682
750.894
755.106
759.312
763.507
767.685
771.84
775.969
780.067
784.13
788.155
792.136
796.075
799.971
803.823
807.631
811.389
815.093
818.739
822.316
825.818
829.239
832.571
835.811
838.958
842.009
844.961
847.813
850.563
853.207
855.744
858.172
860.492
862.699
864.793
866.77
868.629
870.369
871.988
873.484
874.856
876.104
877.227
878.223
879.092
879.835
880.45
880.937
881.296
881.525
881.616
881.613
881.472
881.198
880.796
880.265
879.603
878.81
877.89
876.848
875.692
874.424
873.046
871.56
869.967
868.271
866.479
864.589
862.601
860.521
858.355
856.1
853.775
851.371
848.901
846.364
843.765
841.109
838.401
835.647
832.851
830.019
827.156
824.267
821.36
818.437
815.503
812.56
809.615
806.671
803.737
800.823
797.94
795.1
792.324
789.638
787.086
784.738
782.695
781.212
780.62
781.759
11463.3
3436.53
1774.53
1033.91
649.614
456.822
358.948
303.549
267.951
242.768
223.825
209.109
197.317
187.618
179.601
173.081
167.979
164.289
162.131
161.61
162.517
165.146
169.968
177.369
188.129
202.822
224.961
259.952
314.699
400.02
506.378
597.7
667.625
727.514
774.567
809.908
838.26
860.242
869.363
865.843
842.988
820.47
793.807
768.167
742.898
719.332
698.965
681.096
666.394
654.223
644.539
636.982
631.4
627.521
625.343
624.482
624.407
625.352
627.031
629.327
632.131
635.339
638.856
642.636
646.618
650.763
655.041
659.428
663.907
668.464
673.089
677.771
682.504
687.28
692.092
696.932
701.793
706.667
711.547
716.425
721.294
726.148
730.979
735.783
740.553
745.286
749.974
754.615
759.203
763.735
768.206
772.62
776.973
781.263
785.484
789.636
793.711
797.709
801.623
805.445
809.169
812.792
816.313
819.727
823.033
826.228
829.309
832.273
835.117
837.837
840.429
842.891
845.224
847.425
849.494
851.427
853.224
854.883
856.402
857.78
859.016
860.11
861.062
861.87
862.535
863.057
863.435
863.658
863.739
863.706
863.518
863.183
862.706
862.086
861.325
860.422
859.383
858.21
856.909
855.483
853.933
852.262
850.472
848.565
846.531
844.386
842.133
839.777
837.323
834.774
832.14
829.422
826.626
823.756
820.817
817.814
814.754
811.643
808.486
805.288
802.058
798.799
795.52
792.225
788.917
785.601
782.281
778.965
775.658
772.371
769.115
765.902
762.749
759.679
756.728
753.952
751.428
749.326
747.813
747.368
11463.3
3576.99
1559.67
814.343
515.761
382.056
312.988
272.977
247.29
229.272
215.325
203.527
193.262
184.422
176.956
170.924
166.503
163.852
162.893
163.558
166.094
171.128
179.098
192.082
212.593
242.982
289.797
363.575
451.41
532.536
598.232
653.924
700.534
737.503
767.136
785.71
792.104
785.143
768.045
750.295
729.403
709.669
689.561
670.575
652.725
636.866
623.34
611.924
602.65
595.259
589.64
585.613
583.163
582.1
581.94
582.815
584.519
586.964
590.012
593.562
597.523
601.819
606.381
611.162
616.117
621.216
626.432
631.746
637.143
642.609
648.136
653.713
659.334
664.991
670.678
676.385
682.103
687.825
693.541
699.243
704.924
710.575
716.189
721.761
727.285
732.757
738.168
743.513
748.789
753.987
759.109
764.152
769.116
773.996
778.791
783.494
788.106
792.626
797.043
801.35
805.542
809.618
813.574
817.408
821.118
824.699
828.15
831.467
834.646
837.685
840.583
843.336
845.942
848.398
850.704
852.856
854.852
856.691
858.371
859.89
861.249
862.446
863.48
864.353
865.062
865.609
865.992
866.197
866.254
866.163
865.903
865.481
864.897
864.156
863.256
862.202
860.994
859.639
858.139
856.497
854.716
852.8
850.75
848.571
846.266
843.84
841.297
838.639
835.872
833.001
830.033
826.974
823.828
820.6
817.295
813.921
810.484
806.991
803.449
799.863
796.241
792.589
788.914
785.222
781.517
777.803
774.086
770.374
766.673
762.993
759.344
755.74
752.194
748.727
745.368
742.156
739.125
736.416
734.102
732.338
11463.3
3399.13
1279.07
660.365
442.294
347.299
296.124
265.156
243.806
227.706
214.925
204.366
195.388
187.732
181.435
176.714
173.905
173.151
174.773
178.733
186.078
198.121
216.073
244.938
288.957
348.364
416.293
479.081
536.209
586.016
628.755
664.501
695.082
716.163
723.65
720.149
707.397
693.086
676.691
660.994
645.314
630.441
615.909
602.315
589.965
579.266
570.294
562.959
557.209
552.926
550.029
548.592
548.187
548.741
550.249
552.599
555.674
559.379
563.617
568.305
573.369
578.745
584.376
590.217
596.229
602.385
608.661
615.039
621.498
628.026
634.609
641.237
647.898
654.585
661.297
668.017
674.735
681.442
688.128
694.783
701.398
707.966
714.48
720.93
727.308
733.596
739.808
745.938
751.98
757.929
763.781
769.537
775.196
780.752
786.203
791.542
796.768
801.871
806.849
811.699
816.417
820.999
825.443
829.746
833.906
837.92
841.784
845.494
849.047
852.44
855.67
858.734
861.631
864.357
866.909
869.287
871.487
873.507
875.346
877.003
878.475
879.764
880.869
881.79
882.526
883.079
883.441
883.605
883.611
883.433
883.071
882.526
881.802
880.901
879.824
878.574
877.155
875.569
873.821
871.915
869.852
867.639
865.277
862.771
860.126
857.346
854.435
851.398
848.24
844.966
841.585
838.102
834.523
830.854
827.101
823.272
819.376
815.419
811.41
807.354
803.259
799.133
794.982
790.813
786.631
782.441
778.25
774.066
769.896
765.75
761.638
757.571
753.564
749.633
745.802
742.108
738.587
735.33
732.352
729.556
11463.3
2971.08
1032.74
560.542
399.065
326.808
288.116
262.833
245.499
232.77
222.574
213.998
206.778
201.008
197.109
195.635
196.852
201.501
209.69
221.812
240.085
266.241
301.81
345.262
392.725
441.024
486.962
528.396
565.631
597.708
626.008
649.446
660.199
661.491
654.484
644.201
631.477
618.965
606.692
595.113
583.857
573.014
562.597
552.988
544.478
537.269
531.399
526.836
523.537
521.583
520.827
520.922
522.072
524.128
527.023
530.671
534.986
539.888
545.3
551.152
557.382
563.931
570.745
577.778
584.994
592.362
599.861
607.482
615.186
622.954
630.772
638.622
646.486
654.339
662.141
669.921
677.69
685.441
693.16
700.837
708.46
716.023
723.516
730.933
738.267
745.519
752.67
759.707
766.624
773.414
780.076
786.61
793.017
799.292
805.432
811.433
817.29
823.001
828.565
833.977
839.235
844.335
849.276
854.054
858.666
863.11
867.382
871.478
875.394
879.126
882.672
886.029
889.194
892.165
894.938
897.512
899.884
902.052
904.013
905.768
907.315
908.654
909.786
910.71
911.426
911.935
912.225
912.31
912.201
911.887
911.368
910.647
909.727
908.61
907.298
905.795
904.104
902.229
900.173
897.941
895.536
892.964
890.228
887.334
884.285
881.089
877.749
874.271
870.66
866.922
863.065
859.097
855.024
850.852
846.591
842.25
837.837
833.36
828.827
824.246
819.623
814.966
810.285
805.584
800.871
796.152
791.436
786.729
782.041
777.381
772.757
768.183
763.669
759.23
754.888
750.67
746.605
742.762
739.125
735.38
11463.3
2492.79
888.395
519.588
385.28
323.3
289.085
268.811
255.361
245.523
237.862
231.898
227.801
226.148
227.072
231.741
240.216
251.71
266.703
287.255
313.444
344.363
378.463
413.7
448.493
481.746
512.578
539.893
564.801
587.661
601.517
605.769
604.39
599.011
590.575
581.284
571.866
562.963
554.429
546.201
538.134
530.308
522.905
516.211
510.451
505.755
502.168
499.704
498.499
498.225
498.935
500.599
503.191
506.641
510.888
515.855
521.471
527.665
534.371
541.531
549.103
557.028
565.236
573.682
582.323
591.115
599.998
608.9
617.886
626.95
636.073
645.235
654.41
663.577
672.737
681.864
690.945
699.975
708.929
717.798
726.575
735.252
743.825
752.285
760.624
768.83
776.892
784.805
792.564
800.165
807.604
814.886
822.009
828.972
835.77
842.401
848.862
855.153
861.27
867.211
872.972
878.55
883.943
889.149
894.164
898.986
903.612
908.037
912.257
916.269
920.069
923.653
927.021
930.167
933.092
935.791
938.263
940.505
942.515
944.292
945.838
947.151
948.231
949.081
949.698
950.082
950.229
950.151
949.849
949.32
948.567
947.592
946.399
944.988
943.365
941.532
939.493
937.252
934.814
932.183
929.363
926.36
923.179
919.825
916.304
912.621
908.784
904.798
900.668
896.401
892.005
887.489
882.859
878.126
873.298
868.386
863.4
858.348
853.238
848.078
842.874
837.636
832.371
827.088
821.793
816.497
811.207
805.932
800.68
795.46
790.282
785.155
780.092
775.106
770.214
765.441
760.807
756.367
752.095
747.492
11463.3
2071.37
780.643
484.664
376.267
324.268
296.893
280.848
270.599
263.672
259.054
256.847
256.594
259.348
265.507
275.13
287.664
302.932
321.588
343.391
367.511
393.004
418.921
444.42
468.766
491.218
512.354
532.506
547.406
554.177
555.826
555.218
551.308
545.759
539.412
533.033
526.826
520.846
514.974
509.162
503.429
497.917
492.834
488.408
484.816
482.158
480.622
480.092
480.473
481.853
484.182
487.428
491.561
496.548
502.364
508.893
516.067
523.824
532.093
540.792
549.794
559.079
568.683
578.581
588.733
599.1
609.653
620.386
631.22
642.109
653.02
663.937
674.805
685.584
696.254
706.795
717.188
727.424
737.519
747.482
757.314
767.013
776.578
786.001
795.271
804.372
813.292
822.023
830.561
838.9
847.042
854.99
862.747
870.308
877.673
884.839
891.806
898.574
905.14
911.502
917.657
923.601
929.334
934.852
940.154
945.237
950.098
954.733
959.138
963.308
967.24
970.932
974.38
977.582
980.536
983.24
985.691
987.886
989.824
991.505
992.93
994.098
995.009
995.668
996.069
996.218
996.109
995.752
995.147
994.298
993.205
991.871
990.301
988.496
986.462
984.202
981.72
979.021
976.109
972.99
969.669
966.15
962.441
958.546
954.473
950.228
945.818
941.251
936.531
931.667
926.666
921.535
916.286
910.93
905.477
899.939
894.325
888.644
882.905
877.114
871.279
865.41
859.513
853.599
847.676
841.757
835.849
829.964
824.106
818.286
812.513
806.795
801.144
795.573
790.099
784.741
779.514
774.464
769.57
764.173
11463.3
1942.2
768.175
483.476
379.775
333.179
309.593
296.519
288.873
284.747
283.183
283.519
286.596
292.466
301.069
312.135
325.349
340.737
357.938
376.356
395.397
414.483
433.053
450.848
468.147
484.94
498.808
507.171
511.241
512.74
512.796
511.044
508.009
504.391
500.541
496.662
492.783
488.893
484.976
481.08
477.314
473.844
470.86
468.542
467.146
466.659
467.093
468.647
471.143
474.562
478.882
484.07
490.07
496.774
504.049
512.044
520.747
530.106
540.06
550.553
561.561
573.029
584.877
597.059
609.527
622.229
635.111
648.145
661.233
674.279
687.209
699.947
712.47
724.753
736.778
748.535
760.026
771.266
782.293
793.138
803.816
814.335
824.704
834.912
844.939
854.762
864.357
873.717
882.842
891.729
900.377
908.793
916.98
924.936
932.66
940.152
947.415
954.448
961.252
967.823
974.16
980.26
986.122
991.743
997.124
1002.26
1007.15
1011.8
1016.18
1020.31
1024.18
1027.79
1031.12
1034.19
1036.99
1039.51
1041.76
1043.73
1045.42
1046.83
1047.96
1048.82
1049.39
1049.7
1049.72
1049.49
1048.96
1048.18
1047.13
1045.81
1044.24
1042.42
1040.34
1038.01
1035.44
1032.63
1029.59
1026.32
1022.83
1019.11
1015.19
1011.06
1006.72
1002.19
997.48
992.586
987.521
982.292
976.907
971.373
965.698
959.885
953.953
947.914
941.781
935.562
929.267
922.906
916.486
910.016
903.503
896.956
890.381
883.791
877.199
870.617
864.054
857.52
851.021
844.565
838.16
831.815
825.541
819.354
813.268
807.299
801.459
795.785
790.276
784.131
11463.3
1883.93
745.602
481.522
387.112
345.135
324.507
313.584
307.854
305.418
305.007
307.155
311.828
318.728
327.548
337.975
349.753
362.622
376.23
390.175
404.068
417.845
431.652
445.066
456.523
464.592
470.263
474.164
476.272
477.141
477.308
476.641
475.379
473.807
472.048
470.171
468.21
466.212
464.26
462.503
461.176
460.408
460.186
460.66
461.977
464.109
466.983
470.392
474.687
479.952
486.194
493.388
501.502
510.516
520.45
531.216
542.782
555.073
568.014
581.54
595.598
610.11
624.987
640.162
655.605
671.22
686.864
702.405
717.752
732.843
747.597
761.948
775.85
789.276
802.217
814.678
826.677
838.282
849.6
860.741
871.709
882.529
893.23
903.79
914.168
924.318
934.183
943.769
953.087
962.129
970.895
979.392
987.624
995.59
1003.29
1010.73
1017.91
1024.84
1031.52
1037.93
1044.1
1050
1055.65
1061.03
1066.16
1071.02
1075.63
1079.96
1084.03
1087.81
1091.33
1094.55
1097.5
1100.15
1102.52
1104.6
1106.4
1107.9
1109.1
1110
1110.62
1110.93
1110.94
1110.68
1110.11
1109.26
1108.13
1106.72
1105.04
1103.09
1100.86
1098.37
1095.63
1092.62
1089.36
1085.86
1082.12
1078.15
1073.94
1069.51
1064.86
1060
1054.94
1049.67
1044.22
1038.58
1032.77
1026.79
1020.66
1014.38
1007.96
1001.39
994.719
987.942
981.073
974.121
967.095
960.003
952.855
945.659
938.424
931.157
923.862
916.56
909.264
901.986
894.735
887.52
880.348
873.225
866.157
859.155
852.232
845.402
838.681
832.081
825.611
819.299
813.178
806.322
11463.3
1851.36
743.662
488.188
398.366
358.772
339.364
329.179
324.039
322.02
321.844
324.399
329.106
335.508
343.183
351.808
361.181
371.082
381.28
391.629
402.274
412.46
421.219
428.479
434.469
439.643
443.739
446.98
449.533
451.601
453.347
454.864
456.117
457.136
457.984
458.722
459.413
460.125
460.919
461.819
462.71
464.023
466.08
469.136
473.261
478.368
484.465
491.671
499.926
509.247
519.648
531.087
543.512
556.886
571.184
586.339
602.41
619.172
636.485
654.242
672.346
690.693
709.176
727.684
746.069
764.239
782.131
799.64
816.658
833.073
848.769
863.694
877.82
891.165
903.758
915.618
926.738
937.297
947.555
957.881
968.092
978.231
988.414
998.552
1008.54
1018.32
1027.85
1037.11
1046.07
1054.73
1063.08
1071.12
1078.86
1086.3
1093.44
1100.29
1106.86
1113.15
1119.17
1124.91
1130.39
1135.6
1140.53
1145.19
1149.58
1153.71
1157.57
1161.15
1164.45
1167.47
1170.21
1172.66
1174.81
1176.67
1178.24
1179.5
1180.49
1181.17
1181.54
1181.6
1181.39
1180.85
1180
1178.86
1177.42
1175.7
1173.69
1171.4
1168.84
1166
1162.88
1159.5
1155.86
1151.97
1147.82
1143.43
1138.79
1133.93
1128.84
1123.52
1117.98
1112.24
1106.29
1100.15
1093.81
1087.3
1080.62
1073.77
1066.78
1059.64
1052.38
1045.01
1037.54
1029.97
1022.32
1014.59
1006.78
998.913
990.992
983.029
975.032
967.008
958.961
950.918
942.893
934.895
926.932
919.011
911.14
903.326
895.572
887.89
880.296
872.807
865.434
858.189
851.077
844.119
837.385
829.854
11463.3
1827.87
742.924
496.433
408.302
369.681
350.957
340.706
335.323
333.12
332.783
334.895
338.843
344.122
350.326
357.211
364.668
372.588
380.706
388.59
396.091
403.221
410.143
416.62
422.733
428.552
434.041
439.235
444.107
448.622
452.71
456.17
459.303
462.338
465.365
468.469
471.737
475.266
479.157
483.538
488.66
494.663
501.77
510.257
520.006
530.823
542.744
555.821
570.001
585.281
601.77
619.313
637.719
656.85
676.584
696.778
717.213
737.871
758.672
779.519
800.311
820.954
841.358
861.436
881.102
900.285
918.919
936.932
954.234
970.716
986.169
1000.64
1014.16
1026.82
1038.68
1049.8
1060.2
1069.92
1079.09
1087.9
1096.39
1104.87
1113.84
1122.87
1131.77
1140.44
1148.88
1157.03
1164.85
1172.32
1179.45
1186.24
1192.7
1198.82
1204.61
1210.09
1215.27
1220.17
1224.8
1229.15
1233.24
1237.05
1240.59
1243.87
1246.89
1249.65
1252.16
1254.41
1256.38
1258.09
1259.53
1260.69
1261.56
1262.15
1262.45
1262.46
1262.24
1261.69
1260.83
1259.68
1258.24
1256.52
1254.5
1252.19
1249.61
1246.74
1243.61
1240.2
1236.52
1232.58
1228.37
1223.91
1219.2
1214.24
1209.05
1203.62
1197.96
1192.08
1185.99
1179.68
1173.16
1166.44
1159.53
1152.43
1145.15
1137.7
1130.09
1122.33
1114.42
1106.38
1098.22
1089.98
1081.64
1073.22
1064.7
1056.12
1047.46
1038.74
1029.98
1021.19
1012.36
1003.54
994.724
985.931
977.164
968.431
959.738
951.095
942.507
933.985
925.53
917.157
908.887
900.731
892.7
884.803
877.046
869.438
862.097
853.928
11463.3
1815.11
745.448
501.762
414.811
377.132
358.584
348.131
342.561
340.192
339.737
341.561
345.153
350.073
355.888
362.397
369.421
376.789
384.466
392.488
400.498
408.393
416.285
424.128
431.971
439.846
447.763
455.743
463.672
471.518
479.347
487.297
495.418
503.783
512.483
521.619
531.299
541.636
552.74
564.734
577.763
591.847
606.978
622.995
639.87
657.711
676.557
696.438
717.264
738.843
760.931
783.623
806.737
830.035
853.326
876.464
899.288
921.717
943.65
965.018
985.755
1005.84
1025.24
1043.94
1061.94
1079.21
1095.76
1111.57
1126.63
1140.93
1154.48
1167.18
1179.02
1190.18
1200.74
1210.71
1220.17
1228.95
1237.05
1244.33
1251.25
1258.37
1265.61
1272.66
1279.42
1285.83
1291.9
1297.61
1302.96
1307.96
1312.62
1316.95
1320.96
1324.63
1327.99
1331.08
1333.92
1336.51
1338.87
1341
1342.9
1344.56
1346
1347.22
1348.23
1349.03
1349.62
1349.99
1350.13
1350.05
1349.76
1349.2
1348.39
1347.35
1346.07
1344.53
1342.76
1340.72
1338.42
1335.85
1333.03
1329.95
1326.62
1323.03
1319.2
1315.11
1310.78
1306.21
1301.4
1296.35
1291.06
1285.54
1279.8
1273.83
1267.66
1261.27
1254.68
1247.88
1240.89
1233.7
1226.32
1218.75
1211.01
1203.09
1195.01
1186.77
1178.37
1169.84
1161.16
1152.36
1143.43
1134.39
1125.25
1116.02
1106.7
1097.31
1087.85
1078.33
1068.77
1059.18
1049.56
1039.95
1030.36
1020.8
1011.27
1001.78
992.328
982.932
973.599
964.34
955.177
946.124
937.186
928.371
919.687
911.145
902.749
894.502
886.561
877.803
11463.3
1803.59
747.382
504.756
418.29
382.609
364.59
354.777
350.589
349.156
349.779
352.877
357.675
363.76
371.103
379.889
389.286
399.155
410.013
421.979
434.586
447.498
461.068
475.304
490.195
505.706
521.814
538.465
555.666
573.433
591.786
610.763
630.292
650.364
671.007
692.301
714.346
737.318
761.207
785.938
811.394
837.442
863.913
890.598
917.417
944.367
971.497
999.14
1027.03
1054.48
1081.07
1106.4
1130.5
1153.35
1174.98
1195.31
1214.36
1232.07
1248.51
1263.72
1277.8
1290.79
1302.83
1313.99
1324.32
1333.89
1342.75
1350.98
1358.62
1365.77
1372.67
1379.36
1385.85
1392.11
1398.01
1403.53
1408.57
1413.04
1417.27
1421.51
1426.05
1430.54
1434.31
1437.49
1440.21
1442.54
1444.56
1446.27
1447.72
1448.9
1449.81
1450.47
1450.88
1451.03
1450.95
1450.8
1450.46
1449.96
1449.31
1448.53
1447.6
1446.54
1445.34
1444.01
1442.55
1440.98
1439.27
1437.41
1435.41
1433.24
1430.92
1428.42
1425.74
1422.89
1419.85