/*--------------------------------*- C++ -*----------------------------------*\
| =========                 |                                                 |
| \\      /  F ield         | OpenFOAM: The Open Source CFD Toolbox           |
|  \\    /   O peration     | Version:  v2012                                 |
|   \\  /    A nd           | Website:  www.openfoam.com                      |
|    \\/     M anipulation  |                                                 |
\*---------------------------------------------------------------------------*/
FoamFile
{
    version     2.0;
    format      ascii;
    class       volScalarField;
    location    "900";
    object      omega;
}
// * * * * * * * * * * * * * * * * * * * * * * * * * * * * * * * * * * * * * //

dimensions      [0 0 -1 0 0 0 0];


internalField   nonuniform List<scalar> 
12225
(
38760.8
41517
43127.2
43936.2
44175.3
44120
43969.3
43693.5
43396.7
43110.7
42844.1
42597.3
42383.6
42179.8
42025.8
41854.2
41768.4
41614.5
3032.83
6733.88
9203.29
11299.5
12781.4
13757.2
14403.5
14823.9
15091.3
15328.1
15547.1
15789.4
16002.4
16221.3
16400.1
16560.8
16672.6
16748.5
585.821
1225.03
1746.74
2275.3
2736.72
3167.57
3480.18
3787.49
4012.49
4322.41
4551.26
4848.18
5051.33
5318.2
5483.01
5716.9
5836.76
6031.66
423.14
576.93
713.816
869.039
993.435
1129.87
1230.33
1350.15
1432.89
1548.38
1625.68
1735.18
1802.34
1902.93
1957.64
2047.99
2088.09
2171.41
434.661
462.317
503.54
556.13
595.413
642.94
677.602
723.258
754.922
798.813
828.047
870.129
896.106
935.661
957.583
994.079
1011.12
1045.43
437.295
440.69
449.185
465.635
477.767
494.486
506.396
523.78
536.202
554.145
566.532
584.465
596.068
613.49
623.667
640.326
648.555
664.473
437.974
436.951
437.249
439.594
442.145
446.496
449.553
454.812
458.548
464.855
469.275
476.291
480.983
488.29
492.78
500.103
504.027
511.254
438.753
436.689
435.058
434.301
433.823
434.133
434.509
435.496
436.063
437.619
438.814
441.24
442.875
445.804
447.611
450.812
452.545
455.995
438.945
436.771
434.683
433.021
431.492
430.315
429.263
428.53
427.837
427.526
427.423
427.514
427.598
428.029
428.387
429.253
429.721
430.955
438.987
436.797
434.664
432.74
430.905
429.255
427.678
426.292
424.967
423.831
422.761
421.937
421.095
420.546
419.9
419.618
419.118
419.069
438.996
436.792
434.669
432.69
430.789
429.024
427.319
425.747
424.224
422.836
421.479
420.279
419.088
418.066
417.031
416.173
415.277
414.565
438.999
436.784
434.666
432.673
430.764
428.97
427.247
425.629
424.072
422.613
421.204
419.891
418.621
417.441
416.298
415.24
414.214
413.267
439.001
436.778
434.663
432.661
430.754
428.947
427.224
425.591
424.032
422.553
421.139
419.798
418.515
417.298
416.133
415.027
413.968
412.964
439.001
436.775
434.66
432.653
430.745
428.933
427.209
425.57
424.009
422.523
421.107
419.759
418.472
417.247
416.076
414.96
413.893
412.877
439.001
436.773
434.657
432.648
430.738
428.923
427.197
425.555
423.991
422.502
421.083
419.732
418.442
417.213
416.039
414.92
413.85
412.83
439.001
436.772
434.655
432.644
430.733
428.916
427.187
425.543
423.977
422.486
421.065
419.711
418.419
417.187
416.011
414.889
413.818
412.795
439
436.769
434.651
432.638
430.725
428.906
427.176
425.53
423.962
422.469
421.046
419.689
418.396
417.162
415.984
414.861
413.788
412.763
439
436.769
434.651
432.637
430.724
428.904
427.174
425.526
423.958
422.463
421.039
419.682
418.388
417.153
415.974
414.849
413.776
412.75
439.001
436.771
434.654
432.641
430.729
428.91
427.179
425.532
423.964
422.47
421.046
419.688
418.394
417.159
415.98
414.855
413.781
412.755
439.001
436.772
434.655
432.643
430.731
428.912
427.183
425.536
423.968
422.474
421.051
419.693
418.399
417.165
415.987
414.862
413.789
412.763
439.001
436.772
434.656
432.645
430.735
428.917
427.188
425.542
423.976
422.483
421.062
419.706
418.416
417.184
416.01
414.889
413.821
412.801
439.005
436.772
434.659
432.648
430.742
428.926
427.205
425.564
424.009
422.525
421.123
419.785
418.523
417.317
416.181
415.092
414.07
413.087
439.022
436.755
434.656
432.657
430.779
428.997
427.335
425.762
424.295
422.919
421.656
420.48
419.414
418.404
417.503
416.629
415.878
415.119
439.053
436.606
434.658
432.83
431.238
429.807
428.633
427.559
426.705
426.015
425.545
425.252
425.096
425.073
425.125
425.253
425.509
425.627
438.392
436.501
435.691
435.275
435.588
436.419
437.715
439.063
441.098
443.112
445.835
448.385
451.492
454.185
457.366
459.967
463.123
465.541
439.354
440.346
444.396
452.419
462.717
472.268
483.021
492.819
503.984
514.114
525.54
535.536
546.615
555.882
566.222
574.516
584.088
591.375
447.409
467.235
495.168
543.066
590.276
631.04
671.687
706.949
743.758
775.255
808.936
836.701
866.943
890.768
917.571
937.714
961.543
978.505
483.941
645.014
793.38
1018.4
1209.54
1369.28
1515.29
1637.02
1753.71
1848.65
1943.66
2016.96
2094.46
2150.28
2214.22
2256.92
2311.01
2344.71
534.961
2486.77
3522.1
4483.25
5223.29
5816.24
6298.67
6682.77
6999.75
7249.01
7457.48
7612.89
7753.71
7849.54
7953.59
8016.89
8109.83
8162.46
20905
22155.7
23087.1
23771
24246.3
24572.3
24774.3
24901.4
24975.7
25009.7
25003.2
24984.9
24941.5
24888.2
24819.6
24751.7
24686
24622.9
11463.3
2495.07
2497.95
2501.2
2504.7
2508.46
2513.22
2519.62
2528.05
2538.32
2549.23
2560.31
2570.82
2580.4
2588.96
2596.38
2602.68
2607.8
2611.96
2614.48
2616.8
2617.75
2617.95
2616.03
2612.15
2606.08
2597.96
2588.45
2579.15
2572.59
2570.38
2571.72
2574.52
2577.52
2580.59
2583.71
2586.87
2590.03
2593.22
2597.17
2602.24
2610.71
2621.57
2631.41
2638.87
2642.12
2644.24
2644.98
2645.42
2646.42
2649.83
2656.53
2666.79
2672.92
2681.79
2696.87
2745.54
2917.62
3127.48
3324.17
3500.18
3658.57
3801.49
3932.64
4054.16
4168.82
4276.83
4375.61
4468.81
4555.7
4638.3
4716.46
4791.38
4863.18
4932.46
4999.42
5064.42
5127.56
5189.2
5249.28
5308.1
5365.57
5421.93
5477.07
5531.18
5584.16
5636.12
5687
5736.84
5785.6
5833.29
5879.85
5925.27
5969.5
6012.51
6054.25
6094.72
6133.93
6171.96
6209
6245.38
6280.83
6315.22
6348.68
6381.14
6412.62
6443.09
6472.55
6500.98
6528.38
6554.72
6580.01
6604.23
6627.38
6649.45
6670.44
6690.34
6709.16
6726.89
6743.53
6759.11
6773.61
6787.06
6799.47
6810.86
6821.22
6831.11
6839.02
6846.45
6852.76
6857.4
6861.06
6863.49
6864.93
6865.52
6865.21
6863.69
6861.25
6857.87
6853.56
6848.35
6842.26
6835.32
6827.54
6818.95
6809.59
6799.51
6788.86
6777.17
6765.24
6752.11
6738.95
6724.54
6710.31
6694.82
6679.74
6663.4
6647.71
6630.76
6614.47
6597.29
6580.3
6563.03
6545.64
6528.15
6510.61
6493.06
6475.56
6458.14
6440.81
6423.55
6406.3
6388.97
6371.42
6353.32
6334.2
6313.76
6294.76
6285.26
6189.21
11463.5
1998.49
1052.81
892.148
778.519
654.436
664.727
680.751
672.847
658.001
631.805
605.217
580.288
556.785
537.501
522.853
513.598
509.174
508.645
527.388
555.911
620.113
707.715
811.61
926.268
1041.84
1152.73
1243.21
1312.87
1329.84
1309.15
1246.57
1115.41
950.995
796.546
691.905
620.779
540.096
490.915
456.598
443.696
447.627
457.347
474.682
492.069
513.366
530.501
587.696
656.3
736.667
801.376
1068.36
1503.77
1892.89
2154.9
2302.19
2399.68
2454.16
2472.53
2454.7
2389.83
2320.52
2244.94
2177.56
2115.47
2063.16
2018.39
1982.07
1952.91
1930.3
1913.22
1900.73
1893.52
1887.21
1885.13
1883.7
1883.87
1886.28
1889.16
1893.11
1897.51
1902.45
1907.7
1913.22
1918.9
1924.69
1930.53
1936.37
1942.15
1947.86
1953.44
1958.9
1964.2
1969.36
1974.41
1979.4
1984.45
1989.74
1995.57
2002.35
2010.7
2019.21
2027.35
2035.35
2043.08
2050.62
2057.91
2064.98
2071.82
2078.43
2084.81
2090.96
2096.87
2102.56
2108.01
2113.24
2118.24
2123.01
2127.55
2131.88
2135.98
2139.87
2143.55
2147.02
2150.28
2153.32
2156.15
2158.64
2160.85
2162.55
2163.41
2164.07
2164.47
2164.64
2164.59
2164.35
2163.88
2163.19
2162.28
2161.16
2159.83
2158.3
2156.57
2154.67
2152.59
2150.4
2148.16
2144.91
2142.91
2138.9
2136.77
2132.38
2130.03
2125.31
2122.76
2117.77
2115.03
2109.82
2106.83
2101.76
2098.01
2093.61
2089.28
2084.89
2080.45
2075.99
2071.5
2067.01
2062.51
2058.02
2053.56
2049.14
2044.78
2040.46
2036.34
2032.48
2029.15
2027.76
2028.68
2043.22
11463.6
2044.47
828.193
638.714
676.995
740.678
723.641
681.772
618.581
556.085
499.382
449.706
406.676
373.248
347.294
327.258
312.066
300.769
293.143
288.21
288.766
295.088
306.604
329.989
365.255
412.521
472.939
542.075
615.825
682.334
733.554
765.257
759.275
735.701
678.162
603.342
526.655
449.602
391.332
358.193
358.251
369.678
387.596
404.62
419.001
466.263
552.524
696.995
904.94
1197.43
1413.72
1559.46
1690.53
1768.26
1789.47
1770.68
1724.82
1661.97
1588
1514.24
1445.41
1388.35
1339.47
1301.12
1270.05
1246.37
1228.01
1214.42
1204.41
1197.34
1192.94
1189.85
1188.78
1188.14
1188.52
1189.83
1191.66
1194.02
1196.65
1199.6
1202.73
1206.03
1209.44
1212.94
1216.49
1220.07
1223.67
1227.26
1230.84
1234.39
1237.92
1241.42
1244.92
1248.42
1251.94
1255.52
1259.21
1263.04
1267.07
1271.31
1275.65
1279.86
1283.94
1287.91
1291.75
1295.47
1299.07
1302.53
1305.87
1309.08
1312.16
1315.11
1317.93
1320.63
1323.19
1325.62
1327.92
1330.1
1332.14
1334.05
1335.84
1337.5
1339.03
1340.43
1341.69
1342.82
1343.8
1344.6
1345.23
1345.63
1345.82
1345.88
1345.83
1345.67
1345.43
1344.95
1344.42
1343.75
1342.96
1342.06
1341.05
1339.92
1338.68
1337.34
1335.89
1334.35
1332.69
1330.84
1329.11
1326.96
1325.11
1322.76
1320.78
1318.25
1316.15
1313.46
1311.24
1308.41
1306.08
1303.19
1300.62
1297.85
1295.07
1292.25
1289.4
1286.53
1283.63
1280.72
1277.8
1274.88
1271.97
1269.11
1266.31
1263.61
1261.1
1258.9
1257.23
1256.99
1258.8
1270.75
11463.6
2022.93
964.589
984.495
961.759
876.139
751.456
633.716
535.195
459.437
402.004
356.249
321.016
294.236
273.833
258.233
246.302
237.208
230.478
225.795
223.089
223.283
224.711
230.165
239.262
254.634
277.29
308.458
347.412
390.095
433.005
472.246
502.116
513.793
507.541
489.238
454.31
408.366
382.932
407.569
467.367
526.15
571.45
618.597
687.971
805.08
977.672
1168.01
1303.57
1374.72
1429.83
1463.89
1469.18
1394.91
1344.79
1288.73
1228.48
1172.27
1121.24
1077.63
1041.17
1012.13
988.957
971.363
957.944
948.169
941.129
936.294
933.434
931.683
931.213
931.173
932.091
933.445
935.252
937.425
939.853
942.502
945.308
948.249
951.287
954.403
957.574
960.785
964.021
967.271
970.526
973.778
977.024
980.259
983.485
986.705
989.923
993.145
996.379
999.632
1002.91
1006.22
1009.55
1012.87
1016.14
1019.31
1022.39
1025.37
1028.25
1031.04
1033.73
1036.31
1038.8
1041.18
1043.45
1045.63
1047.69
1049.65
1051.5
1053.24
1054.88
1056.41
1057.82
1059.13
1060.33
1061.41
1062.39
1063.25
1063.99
1064.61
1065.11
1065.47
1065.7
1065.8
1065.76
1065.61
1065.37
1065.02
1064.57
1064
1063.34
1062.57
1061.71
1060.74
1059.68
1058.53
1057.28
1055.94
1054.51
1053
1051.38
1049.67
1047.92
1046.02
1044.14
1042.1
1040.09
1037.9
1035.78
1033.47
1031.23
1028.81
1026.48
1023.97
1021.52
1018.99
1016.43
1013.84
1011.22
1008.58
1005.92
1003.24
1000.55
997.863
995.189
992.551
989.974
987.495
985.186
983.153
981.559
981.024
982.122
988.958
11463.7
2187.16
1461.63
1293.02
1053.53
829.363
645.704
514.82
424.276
360.528
314.572
282.384
259.106
241.494
227.764
216.882
208.3
201.705
196.826
193.433
191.353
190.955
191.52
193.743
197.626
204.393
214.68
229.571
250.395
276.556
305.226
334.046
361.036
382.487
394.266
392.307
387.333
400.924
465.265
567.282
637.419
699.082
775.101
876.945
991.384
1092.35
1165.2
1223.9
1258.64
1269.05
1243.39
1179.69
1128.85
1077.57
1033.4
988.447
949.23
914.996
886.013
862.271
843.321
828.71
817.693
809.76
804.227
800.63
798.863
798.136
798.095
798.955
800.395
802.255
804.514
807.048
809.816
812.769
815.863
819.072
822.367
825.732
829.148
832.601
836.08
839.574
843.074
846.573
850.066
853.547
857.014
860.462
863.892
867.305
870.7
874.078
877.437
880.777
884.093
887.375
890.611
893.787
896.886
899.897
902.82
905.654
908.395
911.042
913.593
916.047
918.4
920.652
922.802
924.847
926.787
928.621
930.347
931.964
933.473
934.872
936.159
937.334
938.396
939.344
940.177
940.893
941.491
941.969
942.323
942.55
942.647
942.638
942.502
942.257
941.904
941.446
940.881
940.207
939.432
938.553
937.573
936.493
935.316
934.042
932.673
931.212
929.66
928.021
926.285
924.468
922.577
920.596
918.561
916.437
914.268
912.009
909.718
907.338
904.935
902.445
899.946
897.365
894.771
892.131
889.46
886.76
884.033
881.282
878.513
875.73
872.941
870.162
867.4
864.671
861.998
859.416
856.982
854.783
852.939
851.855
852.076
855.4
11463.6
2852.22
1859
1353.7
955.698
677.186
511.053
404.353
337.044
294.032
264.813
243.483
227.051
213.953
203.404
194.849
187.935
182.465
178.321
175.412
173.685
173.306
173.815
175.382
178.414
183.109
189.937
199.563
212.933
230.625
251.616
273.993
295.388
315.733
337.148
371.882
437.899
547.818
647.337
722.157
794.006
870.594
944.674
1005.52
1052.04
1090.23
1113.56
1117.5
1075.54
1031.84
990.152
947.69
910.754
874.572
843.327
814.694
790.685
770.384
753.89
740.912
731.079
723.99
719.159
716.364
715.171
714.91
715.67
717.195
719.262
721.815
724.715
727.889
731.283
734.845
738.54
742.339
746.218
750.158
754.142
758.159
762.196
766.244
770.295
774.341
778.375
782.392
786.387
790.356
794.294
798.2
802.072
805.907
809.705
813.462
817.176
820.842
824.454
828.004
831.478
834.875
838.186
841.406
844.534
847.567
850.502
853.336
856.068
858.694
861.213
863.622
865.919
868.103
870.172
872.125
873.958
875.673
877.267
878.741
880.092
881.318
882.418
883.393
884.241
884.961
885.551
886.011
886.339
886.527
886.583
886.532
886.345
886.035
885.605
885.056
884.391
883.607
882.712
881.704
880.584
879.355
878.02
876.579
875.035
873.39
871.647
869.807
867.87
865.845
863.733
861.538
859.268
856.919
854.504
852.014
849.464
846.846
844.178
841.447
838.676
835.85
832.99
830.093
827.163
824.205
821.22
818.212
815.186
812.148
809.106
806.072
803.055
800.071
797.139
794.29
791.574
789.054
786.833
785.174
784.442
785.529
11464.1
3555.26
1960.28
1198.12
758.44
527.255
403.548
335.988
293.809
264.983
243.541
226.619
212.92
201.564
192.023
184.014
177.409
172.151
168.19
165.453
163.937
163.693
164.325
166.047
169.045
173.442
179.632
188.165
199.73
214.908
233.926
257.464
288.145
327.378
384.77
480.858
596.248
689.598
764.004
830.87
887.358
929.152
961.78
987.92
999.175
995.231
957.236
922.353
888.734
857.181
826.905
797.483
770.986
746.758
726.015
708.013
693.21
681.222
671.954
665.15
660.493
657.943
656.974
656.936
658.138
660.147
662.833
666.042
669.647
673.571
677.734
682.081
686.569
691.165
695.842
700.579
705.359
710.166
714.989
719.818
724.642
729.455
734.249
739.018
743.757
748.46
753.123
757.742
762.312
766.83
771.293
775.701
780.049
784.335
788.556
792.707
796.784
800.782
804.699
808.525
812.253
815.88
819.403
822.819
826.125
829.317
832.392
835.349
838.183
840.892
843.475
845.927
848.248
850.436
852.489
854.403
856.177
857.807
859.297
860.645
861.851
862.914
863.834
864.61
865.241
865.727
866.066
866.245
866.293
866.212
865.983
865.616
865.114
864.478
863.711
862.811
861.777
860.613
859.323
857.911
856.378
854.727
852.962
851.084
849.096
847.002
844.802
842.503
840.108
837.623
835.052
832.398
829.666
826.857
823.979
821.031
818.024
814.957
811.84
808.673
805.465
802.22
798.943
795.636
792.302
788.947
785.575
782.192
778.807
775.43
772.073
768.748
765.473
762.273
759.193
756.278
753.603
751.348
749.692
749.161
11470.8
3803.03
1777.19
940.388
583.486
424.11
344.103
297.057
266.494
244.891
228.637
215.652
204.636
194.986
186.493
179.112
172.844
167.745
163.916
161.471
160.401
160.632
161.988
164.715
168.798
174.245
181.516
191.444
204.872
222.968
248.744
286.942
344.822
432.979
536.944
626.775
699.516
764.184
817.067
855.918
885.002
903.925
909.931
897.05
868.237
839.94
811.358
786.727
763.212
740.516
718.372
697.584
679.129
662.957
649.319
638.001
629.04
622.248
617.466
614.714
613.629
613.582
614.856
617.071
620.129
623.838
628.067
632.704
637.655
642.852
648.233
653.752
659.374
665.069
670.814
676.592
682.387
688.185
693.976
699.748
705.493
711.205
716.876
722.501
728.074
733.591
739.045
744.436
749.755
755
760.168
765.257
770.265
775.187
780.022
784.765
789.415
793.97
798.425
802.769
806.995
811.102
815.085
818.941
822.668
826.262
829.721
833.04
836.218
839.251
842.137
844.873
847.457
849.889
852.164
854.283
856.243
858.044
859.684
861.162
862.478
863.631
864.621
865.448
866.111
866.611
866.944
867.097
867.113
866.971
866.667
866.207
865.593
864.83
863.917
862.858
861.654
860.308
858.824
857.202
855.448
853.563
851.551
849.415
847.158
844.784
842.296
839.697
836.994
834.19
831.293
828.306
825.233
822.077
818.843
815.538
812.167
808.735
805.247
801.708
798.125
794.504
790.849
787.163
783.451
779.718
775.969
772.211
768.453
764.705
760.978
757.283
753.637
750.058
746.557
743.194
740.027
737.182
734.734
732.872
11491.2
3709.23
1451.79
743.42
490.979
381.114
322.058
284.542
259.724
241.418
226.673
214.317
203.622
194.215
185.962
178.872
173.03
168.531
165.488
163.795
163.433
164.384
166.696
170.694
176.911
185.538
197.914
215.767
240.904
276.3
328.127
402.739
487.899
565.587
631.447
688.556
737.692
778.088
810.607
829.49
834.799
820.379
797.226
773.426
750.194
729.821
711.043
693.794
676.636
659.719
643.559
628.918
616.205
605.441
596.664
589.792
584.768
581.57
580.126
579.87
580.914
583.057
586.196
590.15
594.79
599.984
605.625
611.619
617.891
624.378
631.023
637.784
644.626
651.519
658.438
665.365
672.291
679.199
686.073
692.905
699.686
706.408
713.066
719.654
726.166
732.597
738.936
745.173
751.315
757.362
763.312
769.163
774.912
780.555
786.088
791.508
796.81
801.99
807.041
811.958
816.737
821.375
825.868
830.212
834.406
838.445
842.326
846.046
849.601
852.989
856.206
859.251
862.121
864.815
867.33
869.665
871.819
873.789
875.575
877.176
878.592
879.823
880.869
881.729
882.405
882.896
883.192
883.301
883.249
883.013
882.597
882.006
881.243
880.31
879.21
877.945
876.519
874.934
873.193
871.301
869.26
867.074
864.747
862.282
859.685
856.958
854.105
851.132
848.042
844.843
841.54
838.139
834.644
831.059
827.392
823.647
819.833
815.954
812.015
808.023
803.985
799.906
795.792
791.648
787.477
783.285
779.08
774.869
770.66
766.463
762.289
758.149
754.057
750.032
746.099
742.292
738.651
735.27
732.165
729.271
11522.5
3261.54
1153.53
618.782
435.456
351.469
305.514
277.638
257.275
241.716
229.21
218.437
208.821
200.201
192.633
186.265
181.29
177.828
176.086
175.845
177.371
180.37
185.399
193.473
205.499
222.134
247.204
283.321
332.031
391.906
455.811
515.806
571.307
620.676
664.003
700.891
732.983
755.504
763.234
755.649
737.56
718.275
698.877
681.875
666.803
653.305
640.352
627.542
614.607
602.034
590.419
580.23
571.662
564.746
559.482
555.802
553.892
553.315
553.958
555.835
558.816
562.773
567.59
573.138
579.298
585.962
593.035
600.433
608.093
615.971
623.991
632.11
640.294
648.509
656.722
664.9
672.998
681.03
689.012
696.94
704.802
712.589
720.295
727.914
735.44
742.867
750.188
757.406
764.502
771.469
778.302
785.002
791.566
797.992
804.274
810.41
816.396
822.226
827.9
833.415
838.766
843.95
848.964
853.803
858.466
862.948
867.247
871.359
875.281
879.008
882.539
885.872
889.003
891.932
894.657
897.176
899.488
901.592
903.486
905.169
906.643
907.908
908.963
909.81
910.449
910.88
911.089
911.105
910.924
910.539
909.955
909.176
908.204
907.043
905.695
904.165
902.455
900.57
898.512
896.287
893.898
891.349
888.645
885.79
882.789
879.647
876.369
872.958
869.422
865.765
861.996
858.12
854.142
850.069
845.908
841.666
837.351
832.967
828.522
824.021
819.471
814.879
810.25
805.591
800.905
796.202
791.488
786.77
782.058
777.361
772.689
768.053
763.466
758.945
754.511
750.193
746.019
742.063
738.306
734.465
11553.8
2733.03
973.483
564.481
415.649
344.148
304.128
279.491
262.77
249.987
239.291
229.886
221.521
214.246
208.283
203.821
201.459
200.946
202.611
206.295
212.436
221.133
233.918
252.045
276.395
308.238
346.705
389.861
435.41
480.757
523.913
563.679
599.869
631.806
660.566
683.894
693.935
694.072
683.064
669.325
653.851
639.992
627.77
617.183
607.46
598.053
588.518
578.814
569.172
560.089
552.016
545.233
539.862
535.923
533.57
532.675
532.929
534.513
537.26
541.096
545.922
551.64
558.177
565.401
573.191
581.452
590.094
599.029
608.16
617.369
626.714
636.171
645.702
655.271
664.836
674.364
683.847
693.26
702.584
711.816
720.935
729.936
738.816
747.57
756.194
764.68
773.019
781.2
789.217
797.068
804.753
812.27
819.62
826.798
833.801
840.625
847.268
853.728
860.001
866.086
871.977
877.672
883.166
888.456
893.54
898.415
903.078
907.524
911.752
915.757
919.537
923.09
926.413
929.507
932.369
934.999
937.394
939.554
941.479
943.167
944.62
945.838
946.823
947.575
948.098
948.381
948.437
948.269
947.879
947.265
946.432
945.384
944.124
942.655
940.982
939.108
937.038
934.775
932.325
929.692
926.88
923.894
920.741
917.424
913.95
910.323
906.55
902.636
898.586
894.407
890.107
885.693
881.17
876.548
871.835
867.038
862.165
857.222
852.216
847.151
842.035
836.876
831.68
826.453
821.202
815.937
810.664
805.392
800.129
794.884
789.668
784.49
779.362
774.301
769.326
764.461
759.726
755.179
750.79
746.095
11577.1
2236.27
842.535
518.341
397.527
339.635
307.981
288.282
274.505
263.88
255.128
247.743
241.679
237.079
234.71
234.236
236.235
240.907
247.743
256.483
268.254
284.335
304.911
329.79
358.32
389.502
421.998
454.771
486.976
517.795
546.315
572.393
596.806
618.571
630.448
633.386
629.363
622.14
611.825
601.673
592.285
584.225
577.051
570.366
563.731
556.914
549.875
542.804
536.043
529.99
524.958
521.109
518.644
517.619
517.663
519.098
521.823
525.73
530.7
536.647
543.474
551.058
559.206
567.933
577.233
587.033
597.244
607.783
618.589
629.636
640.823
652.086
663.38
674.681
685.916
697.029
707.992
718.779
729.374
739.775
750.008
760.085
770.011
779.786
789.405
798.858
808.13
817.209
826.087
834.762
843.232
851.5
859.563
867.418
875.062
882.492
889.705
896.701
903.478
910.034
916.363
922.463
928.329
933.958
939.35
944.501
949.409
954.072
958.485
962.645
966.551
970.199
973.59
976.723
979.597
982.212
984.566
986.659
988.489
990.059
991.369
992.419
993.213
993.752
994.036
994.068
993.847
993.381
992.671
991.719
990.529
989.106
987.453
985.574
983.474
981.158
978.631
975.897
972.962
969.83
966.507
962.999
959.311
955.45
951.421
947.232
942.888
938.395
933.76
928.99
924.091
919.071
913.94
908.707
903.382
897.973
892.486
886.929
881.308
875.627
869.895
864.118
858.304
852.46
846.596
840.723
834.847
828.976
823.119
817.283
811.479
805.716
800.007
794.368
788.815
783.37
778.046
772.892
767.883
762.394
11590.5
2025.81
809.86
511.798
399.058
347.101
319.158
302.088
290.487
281.971
275.538
270.821
268.106
267.255
268.402
272.112
278.251
286.595
296.905
309.894
325.677
344.057
364.651
386.912
410.2
433.903
457.493
480.434
502.02
522.681
542.69
560.694
572.423
576.9
577.34
575.204
570.448
564.818
558.921
553.601
548.851
544.556
540.416
536.216
531.832
527.277
522.696
518.348
514.551
511.634
510.024
509.483
510.009
511.755
514.606
518.546
523.347
529.191
536.108
544.026
552.86
562.524
572.98
584.116
595.825
608.015
620.578
633.416
646.456
659.65
672.91
686.121
699.224
712.16
724.876
737.324
749.473
761.311
772.852
784.127
795.19
806.075
816.799
827.368
837.774
847.996
858.004
867.787
877.335
886.643
895.71
904.537
913.123
921.463
929.553
937.392
944.978
952.311
959.39
966.214
972.778
979.079
985.112
990.877
996.371
1001.59
1006.54
1011.22
1015.61
1019.73
1023.56
1027.11
1030.37
1033.35
1036.04
1038.45
1040.58
1042.42
1043.98
1045.25
1046.24
1046.95
1047.39
1047.55
1047.44
1047.06
1046.4
1045.49
1044.31
1042.88
1041.19
1039.26
1037.08
1034.66
1032.01
1029.13
1026.03
1022.71
1019.18
1015.44
1011.5
1007.37
1003.05
998.552
993.878
989.037
984.037
978.885
973.587
968.151
962.58
956.885
951.081
945.177
939.181
933.102
926.946
920.721
914.432
908.085
901.687
895.242
888.762
882.257
875.738
869.214
862.695
856.186
849.695
843.23
836.799
830.414
824.088
817.836
811.674
805.619
799.684
793.906
788.281
782.042
11598.8
1953.48
787.208
507.323
405.316
358.422
333.633
318.734
308.915
302.233
298.086
296.256
296.006
297.941
301.998
308.092
316.078
325.839
337.454
350.853
365.655
381.594
398.34
415.443
432.523
449.235
465.301
481.192
497.14
511.089
521.173
526.6
529.427
530.415
530.422
529.186
527.356
525.457
523.657
522.074
520.638
519.299
518.075
516.765
515.361
513.973
512.76
511.964
511.682
511.905
512.629
514.392
517.32
521.493
526.905
533.612
541.778
551.289
561.899
573.466
585.881
599.047
612.882
627.267
642.109
657.332
672.738
688.191
703.577
718.77
733.67
748.253
762.523
776.575
790.264
803.467
816.143
828.304
840.013
851.372
862.523
873.549
884.462
895.283
905.991
916.531
926.829
936.887
946.692
956.233
965.503
974.502
983.227
991.673
999.837
1007.71
1015.31
1022.61
1029.64
1036.38
1042.82
1048.98
1054.84
1060.41
1065.67
1070.64
1075.31
1079.69
1083.76
1087.52
1090.98
1094.14
1096.99
1099.53
1101.77
1103.71
1105.35
1106.68
1107.71
1108.45
1108.89
1109.02
1108.88
1108.45
1107.72
1106.72
1105.44
1103.88
1102.06
1099.96
1097.6
1094.99
1092.12
1089.01
1085.66
1082.07
1078.25
1074.21
1069.95
1065.48
1060.81
1055.94
1050.88
1045.63
1040.21
1034.62
1028.87
1022.97
1016.93
1010.74
1004.43
997.99
991.449
984.813
978.089
971.284
964.405
957.458
950.45
943.387
936.278
929.119
921.93
914.724
907.512
900.304
893.106
885.924
878.766
871.637
864.546
857.506
850.532
843.64
836.843
830.157
823.59
817.174
810.934
803.982
11602.1
1909.81
779.017
512.411
416.403
373.15
350.641
337.025
328.151
322.653
320.084
319.429
320.798
324.314
329.539
336.273
344.359
353.68
364.094
375.399
387.357
399.735
412.274
424.752
436.994
448.866
460.177
470.24
478.298
484.71
490.001
494.292
497.973
501.187
504.06
506.586
508.912
511.13
513.263
515.305
517.178
518.775
519.834
520.79
521.886
523.272
525.115
527.587
530.821
534.971
540.311
546.842
554.657
563.754
574.138
585.889
599.161
613.825
629.495
645.888
662.848
680.252
697.985
715.921
733.913
751.816
769.589
787.132
804.332
821.067
837.221
852.699
867.471
881.555
894.849
907.329
918.978
929.839
940.078
949.903
959.71
969.666
979.658
989.765
999.914
1009.99
1019.91
1029.63
1039.08
1048.26
1057.14
1065.73
1074.02
1082.02
1089.7
1097.07
1104.13
1110.87
1117.32
1123.46
1129.29
1134.81
1140.01
1144.9
1149.47
1153.73
1157.67
1161.3
1164.62
1167.62
1170.3
1172.66
1174.69
1176.42
1177.82
1178.93
1179.73
1180.21
1180.37
1180.24
1179.82
1179.07
1178.04
1176.71
1175.1
1173.2
1171.02
1168.56
1165.83
1162.83
1159.57
1156.05
1152.27
1148.25
1143.99
1139.49
1134.77
1129.83
1124.67
1119.3
1113.73
1107.96
1102
1095.87
1089.56
1083.08
1076.46
1069.68
1062.77
1055.73
1048.58
1041.34
1034.01
1026.58
1019.08
1011.49
1003.84
996.116
988.34
980.515
972.65
964.738
956.807
948.87
940.937
933.014
925.108
917.224
909.37
901.55
893.771
886.052
878.41
870.858
863.408
856.074
848.863
841.798
834.942
827.311
11602.4
1879.43
775.762
521.56
429.92
388.28
366.987
354.196
345.841
341.087
339.093
338.768
340.678
344.422
349.55
355.802
362.995
371.014
379.727
389.004
398.722
408.798
419.193
429.547
439.602
449.164
457.968
466.129
473.709
480.837
487.578
493.869
499.504
504.865
510.09
515.186
520.215
525.236
530.302
535.44
540.622
545.926
551.558
557.575
564.094
571.248
579.161
587.934
597.658
608.453
620.455
633.7
648.41
664.282
681.11
698.75
716.942
735.426
754.216
773.334
792.695
812.2
831.744
851.225
870.531
889.556
908.218
926.435
944.123
961.183
977.503
992.911
1007.25
1020.43
1032.61
1043.94
1054.51
1064.38
1073.54
1082.11
1090.28
1098.26
1106.24
1114.76
1123.55
1132.35
1141.06
1149.56
1157.79
1165.71
1173.33
1180.65
1187.66
1194.36
1200.73
1206.79
1212.51
1217.93
1223.04
1227.85
1232.35
1236.54
1240.41
1243.96
1247.2
1250.12
1252.74
1255.05
1257.05
1258.74
1260.12
1261.18
1261.93
1262.36
1262.48
1262.33
1261.88
1261.11
1260.04
1258.68
1257.02
1255.07
1252.84
1250.32
1247.53
1244.47
1241.14
1237.54
1233.68
1229.57
1225.2
1220.58
1215.72
1210.63
1205.3
1199.76
1194
1188.03
1181.85
1175.48
1168.91
1162.15
1155.22
1148.12
1140.85
1133.43
1125.86
1118.15
1110.32
1102.37
1094.32
1086.2
1077.99
1069.7
1061.33
1052.88
1044.37
1035.8
1027.18
1018.52
1009.83
1001.14
992.448
983.763
975.089
966.429
957.791
949.183
940.611
932.079
923.597
915.189
906.869
898.647
890.535
882.545
874.683
866.965
859.497
851.224
11599.7
1860.4
777.938
531.764
442.308
402.108
381.855
369.51
361.541
357.314
355.644
355.474
357.572
361.29
366.328
372.488
379.638
387.748
396.546
405.947
415.715
425.666
435.69
445.816
456.06
466.45
477.098
487.655
498.204
508.803
519.473
530.24
541.225
552.399
563.724
575.183
586.753
598.443
610.257
622.215
634.417
646.985
660.079
673.719
687.968
702.921
718.676
735.223
752.503
770.493
789.187
808.575
828.57
848.905
869.46
890.107
910.686
931.042
951.082
970.763
990.039
1008.86
1027.19
1044.99
1062.21
1078.82
1094.8
1110.13
1124.8
1138.77
1152.04
1164.6
1176.46
1187.36
1197.53
1207.12
1216.24
1224.88
1232.89
1240.3
1247.02
1253.21
1259.53
1266.12
1272.67
1279.05
1285.21
1291.11
1296.72
1302.06
1307.11
1311.9
1316.41
1320.64
1324.59
1328.25
1331.63
1334.74
1337.6
1340.2
1342.53
1344.59
1346.37
1347.87
1349.1
1350.06
1350.76
1351.19
1351.35
1351.25
1350.89
1350.21
1349.28
1348.07
1346.6
1344.87
1342.88
1340.62
1338.1
1335.31
1332.26
1328.95
1325.39
1321.59
1317.54
1313.25
1308.72
1303.96
1298.96
1293.73
1288.27
1282.59
1276.69
1270.59
1264.27
1257.76
1251.05
1244.16
1237.07
1229.81
1222.36
1214.75
1206.98
1199.04
1190.96
1182.73
1174.36
1165.87
1157.25
1148.52
1139.67
1130.73
1121.7
1112.59
1103.39
1094.12
1084.79
1075.41
1065.97
1056.51
1047.01
1037.53
1028.06
1018.6
1009.15
999.715
990.309
980.938
971.613
962.351
953.172
944.082
935.087
926.199
917.427
908.784
900.277
891.915
883.843
874.976
11594.2
1842
780.704
538.695
452.55
415.562
396.796
385.516
378.9
375.968
375.228
376.829
380.783
386.564
393.938
402.794
413.054
423.757
435.584
448.621
462.555
477.287
493.05
509.942
528.026
547.323
567.753
589.108
611.237
633.981
657.209
680.861
704.916
729.255
753.847
778.643
803.33
827.805
852.019
875.974
899.716
923.326
946.856
970.303
993.703
1017.19
1041.2
1065.5
1089.43
1112.77
1135.36
1156.97
1177.17
1196.28
1214.39
1231.51
1247.59
1262.63
1276.64
1289.69
1301.86
1313.15
1323.63
1333.33
1342.3
1350.58
1358.2
1365.19
1371.6
1377.46
1382.84
1387.91
1392.85
1397.7
1402.39
1406.81
1410.91
1414.64
1417.8
1420.74
1423.71
1427.15
1430.74
1433.77
1436.25
1438.38
1440.26
1441.94
1443.44
1444.77
1445.93
1446.93
1447.75