/*--------------------------------*- C++ -*----------------------------------*\
  =========                 |
  \\      /  F ield         | OpenFOAM: The Open Source CFD Toolbox
   \\    /   O peration     | Website:  https://openfoam.org
    \\  /    A nd           | Version:  8
     \\/     M anipulation  |
\*---------------------------------------------------------------------------*/
FoamFile
{
    version     2.0;
    format      ascii;
    class       volScalarField;
    location    "900";
    object      p;
}
// * * * * * * * * * * * * * * * * * * * * * * * * * * * * * * * * * * * * * //

dimensions      [0 2 -2 0 0 0 0];

internalField   nonuniform List<scalar> 
12225
(
-4.22355
-5.11933
-5.51129
-5.63747
-5.76878
-5.92192
-6.0515
-6.15205
-6.23706
-6.31585
-6.39045
-6.46092
-6.52657
-6.59217
-6.66098
-6.73137
-6.81237
-6.90184
-4.49628
-5.14288
-5.47449
-5.60613
-5.73493
-5.8863
-6.02171
-6.1194
-6.20202
-6.28414
-6.36157
-6.43339
-6.50192
-6.56743
-6.63406
-6.7057
-6.77933
-6.83975
-4.71996
-5.14665
-5.45886
-5.61333
-5.74652
-5.89297
-6.02273
-6.12001
-6.20383
-6.28581
-6.36294
-6.43314
-6.49914
-6.56252
-6.62645
-6.69269
-6.75688
-6.80668
-4.86754
-5.17554
-5.46798
-5.62827
-5.75493
-5.88972
-6.01246
-6.10995
-6.19431
-6.27492
-6.35055
-6.41978
-6.48467
-6.54705
-6.60896
-6.67064
-6.72859
-6.77502
-4.98801
-5.22338
-5.48466
-5.6424
-5.7638
-5.8902
-6.00806
-6.10532
-6.18954
-6.26861
-6.34273
-6.41108
-6.47514
-6.53639
-6.59602
-6.65367
-6.70676
-6.75026
-5.10249
-5.27759
-5.50206
-5.65534
-5.77378
-5.89325
-6.00581
-6.10143
-6.18483
-6.26233
-6.33493
-6.40225
-6.46526
-6.52502
-6.58218
-6.63621
-6.6853
-6.72642
-5.20887
-5.33566
-5.52371
-5.66944
-5.78423
-5.89662
-6.0034
-6.09668
-6.17898
-6.25507
-6.32622
-6.39239
-6.45419
-6.51233
-6.56716
-6.61819
-6.66428
-6.70372
-5.29118
-5.38737
-5.54706
-5.68342
-5.79379
-5.90003
-6.00167
-6.09243
-6.17338
-6.24811
-6.31791
-6.3829
-6.44349
-6.50018
-6.55319
-6.60213
-6.6463
-6.68463
-5.35807
-5.43384
-5.57035
-5.69712
-5.80302
-5.90384
-6.00078
-6.08891
-6.16833
-6.24165
-6.3101
-6.3739
-6.43331
-6.4887
-6.54019
-6.58753
-6.63029
-6.66775
-5.42455
-5.48378
-5.59795
-5.71348
-5.81395
-5.90896
-6.00073
-6.08565
-6.16304
-6.2346
-6.30143
-6.36377
-6.42178
-6.47572
-6.52566
-6.57145
-6.61287
-6.6495
-5.48977
-5.53581
-5.6296
-5.73269
-5.82663
-5.91552
-6.00175
-6.08286
-6.15769
-6.22713
-6.29202
-6.35262
-6.40901
-6.46134
-6.50968
-6.55397
-6.59413
-6.62995
-5.5526
-5.58839
-5.66447
-5.75457
-5.84097
-5.92349
-6.00391
-6.08067
-6.15242
-6.21936
-6.28201
-6.3406
-6.39515
-6.44576
-6.49248
-6.53529
-6.57426
-6.60928
-5.61181
-5.63981
-5.70114
-5.77853
-5.85665
-5.93261
-6.0071
-6.07912
-6.14732
-6.21139
-6.27154
-6.32788
-6.38044
-6.42923
-6.47431
-6.51571
-6.55353
-6.58776
-5.66588
-5.68804
-5.73758
-5.80334
-5.873
-5.94231
-6.01094
-6.07804
-6.14236
-6.20329
-6.26073
-6.3147
-6.36515
-6.41209
-6.45554
-6.49557
-6.53228
-6.56573
-5.71281
-5.73069
-5.77119
-5.82706
-5.88871
-5.95164
-6.01469
-6.07697
-6.13734
-6.19503
-6.2497
-6.30125
-6.3496
-6.3947
-6.43659
-6.47532
-6.51099
-6.54369
-5.74986
-5.76471
-5.79871
-5.84688
-5.90173
-5.95903
-6.01717
-6.07514
-6.13184
-6.18645
-6.2385
-6.28777
-6.33414
-6.37754
-6.418
-6.45554
-6.49028
-6.5223
-5.77307
-5.78602
-5.81592
-5.85899
-5.90904
-5.96215
-6.0166
-6.07125
-6.12506
-6.17717
-6.22705
-6.27443
-6.31915
-6.36115
-6.40041
-6.43699
-6.47098
-6.50247
-5.77621
-5.78857
-5.81717
-5.85853
-5.90677
-5.95817
-6.01099
-6.06414
-6.11654
-6.16735
-6.21606
-6.26235
-6.30611
-6.34726
-6.3858
-6.42178
-6.45531
-6.48648
-5.75901
-5.77209
-5.80223
-5.84533
-5.89496
-5.9473
-6.00081
-6.05444
-6.10714
-6.15807
-6.20673
-6.25291
-6.29648
-6.33741
-6.37573
-6.41152
-6.44488
-6.47597
-5.72669
-5.74167
-5.77585
-5.8236
-5.87704
-5.9323
-5.98819
-6.04383
-6.09808
-6.15013
-6.19959
-6.24631
-6.29023
-6.33138
-6.36981
-6.40565
-6.43905
-6.47016
-5.68247
-5.70067
-5.74163
-5.79664
-5.85568
-5.91514
-5.97465
-6.03336
-6.09001
-6.14382
-6.19457
-6.24222
-6.28681
-6.32839
-6.3671
-6.40311
-6.43661
-6.46781
-5.6281
-5.65146
-5.70249
-5.76718
-5.83288
-5.89734
-5.96132
-6.02384
-6.08337
-6.13928
-6.1916
-6.24041
-6.2858
-6.32789
-6.36691
-6.40311
-6.4367
-6.46797
-5.56456
-5.59585
-5.66111
-5.73741
-5.81009
-5.87998
-5.9491
-6.01583
-6.0784
-6.13655
-6.19056
-6.24061
-6.28683
-6.32943
-6.36874
-6.40506
-6.43869
-6.46994
-5.4918
-5.53569
-5.62025
-5.70903
-5.78809
-5.86374
-5.93857
-6.00966
-6.07521
-6.13553
-6.19121
-6.24246
-6.28944
-6.33248
-6.37198
-6.40836
-6.44195
-6.47316
-5.40943
-5.47276
-5.58277
-5.68345
-5.76734
-5.84885
-5.92973
-6.00513
-6.0735
-6.13591
-6.19317
-6.24549
-6.29309
-6.3364
-6.37593
-6.41218
-6.44559
-6.47661
-5.31666
-5.40876
-5.55006
-5.66109
-5.74837
-5.83541
-5.92187
-6.00103
-6.07194
-6.1364
-6.19529
-6.24876
-6.29707
-6.34073
-6.38033
-6.41648
-6.44971
-6.48071
-5.21308
-5.3474
-5.51928
-5.63711
-5.72897
-5.82309
-5.91505
-5.99739
-6.07042
-6.13658
-6.19677
-6.2511
-6.29988
-6.34368
-6.38313
-6.41901
-6.45198
-6.48281
-5.08835
-5.30097
-5.49437
-5.60747
-5.70436
-5.80921
-5.90918
-5.99644
-6.07315
-6.14228
-6.20468
-6.26045
-6.31004
-6.35409
-6.39328
-6.42859
-6.46116
-6.49243
-4.90145
-5.27692
-5.50235
-5.59908
-5.69151
-5.80055
-5.90369
-5.99236
-6.07035
-6.14095
-6.20473
-6.26162
-6.31197
-6.35637
-6.39535
-6.42955
-6.46023
-6.48874
-4.64532
-5.20315
-5.49281
-5.59931
-5.69927
-5.81678
-5.9255
-6.01695
-6.09626
-6.1676
-6.23178
-6.28881
-6.339
-6.38289
-6.42092
-6.45277
-6.47908
-6.50026
-7.43442
-7.43453
-7.43457
-7.43454
-7.43423
-7.43303
-7.43054
-7.42724
-7.42409
-7.42208
-7.42222
-7.42469
-7.429
-7.43438
-7.44006
-7.44537
-7.44976
-7.4528
-7.45447
-7.45512
-7.45501
-7.45433
-7.45334
-7.4523
-7.45147
-7.45094
-7.45067
-7.45053
-7.45033
-7.44997
-7.44944
-7.44875
-7.44785
-7.44666
-7.44525
-7.44389
-7.44321
-7.44387
-7.44594
-7.44879
-7.45155
-7.45376
-7.45561
-7.45751
-7.45985
-7.4631
-7.46686
-7.47006
-7.47237
-7.47572
-7.4838
-7.50062
-7.52644
-7.56021
-7.60197
-7.65271
-7.71202
-7.77808
-7.84908
-7.92298
-7.99752
-8.07075
-8.14153
-8.20908
-8.27236
-8.33101
-8.38481
-8.43373
-8.47777
-8.51704
-8.55157
-8.58147
-8.60678
-8.62755
-8.6438
-8.65553
-8.66276
-8.66545
-8.6636
-8.65714
-8.6461
-8.63036
-8.60995
-8.58477
-8.55484
-8.5201
-8.4806
-8.43628
-8.38712
-8.33299
-8.27378
-8.20944
-8.14
-8.06544
-7.98576
-7.90094
-7.81099
-7.71599
-7.61605
-7.51114
-7.40083
-7.28483
-7.16325
-7.0362
-6.90367
-6.76569
-6.62221
-6.47327
-6.31885
-6.15899
-5.99369
-5.82301
-5.64699
-5.4657
-5.2792
-5.0876
-4.89097
-4.68944
-4.4831
-4.27212
-4.05661
-3.83674
-3.61265
-3.38453
-3.15254
-2.91689
-2.67775
-2.43532
-2.18982
-1.94147
-1.69055
-1.43728
-1.18189
-0.924609
-0.66573
-0.405599
-0.144464
0.117775
0.380984
0.644772
0.908809
1.17283
1.43654
1.69974
1.96213
2.22351
2.4836
2.74225
2.99926
3.25446
3.50764
3.75859
4.00712
4.25306
4.49625
4.73656
4.97384
5.20801
5.43896
5.66662
5.89091
6.11178
6.32918
6.54304
6.75331
6.95996
7.16294
7.36221
7.55775
7.74952
7.9375
8.12163
8.30188
8.47818
8.65052
8.81887
8.98359
9.14455
9.30483
9.45584
-7.43562
-7.4358
-7.43615
-7.43652
-7.43651
-7.4357
-7.4338
-7.43136
-7.42963
-7.42953
-7.43138
-7.435
-7.4399
-7.44542
-7.45094
-7.45597
-7.46013
-7.46324
-7.46508
-7.46547
-7.46449
-7.46248
-7.45987
-7.45712
-7.45466
-7.45276
-7.45147
-7.4506
-7.44993
-7.4493
-7.44869
-7.4481
-7.44744
-7.44663
-7.44564
-7.44487
-7.44502
-7.44659
-7.44936
-7.4524
-7.45457
-7.45552
-7.45568
-7.45507
-7.45388
-7.45368
-7.45686
-7.46351
-7.46993
-7.47646
-7.4866
-7.50179
-7.5238
-7.55597
-7.60053
-7.65648
-7.72114
-7.79215
-7.86684
-7.94263
-8.01745
-8.09027
-8.15985
-8.22489
-8.28528
-8.34103
-8.39211
-8.4386
-8.48054
-8.51804
-8.55114
-8.57989
-8.60431
-8.6244
-8.64017
-8.65157
-8.6586
-8.66119
-8.65934
-8.65296
-8.64204
-8.62651
-8.60634
-8.58145
-8.55185
-8.51747
-8.47836
-8.43448
-8.3858
-8.3322
-8.27357
-8.20989
-8.14115
-8.06736
-7.98849
-7.90453
-7.81542
-7.72111
-7.62146
-7.51638
-7.40601
-7.29047
-7.16967
-7.04347
-6.91185
-6.77477
-6.63223
-6.48422
-6.33074
-6.17181
-6.00745
-5.83771
-5.66262
-5.48225
-5.29667
-5.10596
-4.91023
-4.70957
-4.5041
-4.29395
-4.07927
-3.8602
-3.63689
-3.40953
-3.17828
-2.94333
-2.70487
-2.46309
-2.2182
-1.97044
-1.72005
-1.46727
-1.21229
-0.95532
-0.696543
-0.436204
-0.174617
0.0877732
0.350794
0.614388
0.878259
1.14213
1.40574
1.66886
1.93123
2.19261
2.45275
2.71147
2.9686
3.22395
3.47732
3.72848
3.97726
4.22347
4.46696
4.70758
4.94521
5.17972
5.41103
5.63906
5.86373
6.08498
6.30275
6.517
6.72767
6.93472
7.1381
7.33778
7.53372
7.72591
7.9143
8.09887
8.27962
8.45653
8.62955
8.79869
8.9642
9.1255
9.28779
9.4381
-7.43691
-7.4369
-7.43693
-7.437
-7.43708
-7.43712
-7.43734
-7.43827
-7.44037
-7.44379
-7.44833
-7.45362
-7.45925
-7.46479
-7.46986
-7.47416
-7.47748
-7.47972
-7.48079
-7.48065
-7.47932
-7.47692
-7.47362
-7.46965
-7.46523
-7.46065
-7.45621
-7.45219
-7.44877
-7.44606
-7.44398
-7.44232
-7.44082
-7.43953
-7.4389
-7.43961
-7.44216
-7.44631
-7.45068
-7.45345
-7.45334
-7.45128
-7.44937
-7.44906
-7.44985
-7.45165
-7.45699
-7.46709
-7.48124
-7.50002
-7.52437
-7.55454
-7.59109
-7.63461
-7.68518
-7.74179
-7.80283
-7.86682
-7.93222
-7.99769
-8.06218
-8.12501
-8.18553
-8.24303
-8.29715
-8.34772
-8.39458
-8.43768
-8.47694
-8.51233
-8.54381
-8.57133
-8.59484
-8.6143
-8.62963
-8.64078
-8.64769
-8.6503
-8.64853
-8.64234
-8.63167
-8.61645
-8.59663
-8.57217
-8.54301
-8.50913
-8.47053
-8.4272
-8.3791
-8.32612
-8.26815
-8.20517
-8.13718
-8.06419
-7.98617
-7.90311
-7.81499
-7.72175
-7.62328
-7.51944
-7.41027
-7.29582
-7.1761
-7.05102
-6.92054
-6.78462
-6.64327
-6.49645
-6.34418
-6.18645
-6.02332
-5.85478
-5.68091
-5.50175
-5.31737
-5.12785
-4.93329
-4.73379
-4.52947
-4.32044
-4.10686
-3.88887
-3.66662
-3.44027
-3.21002
-2.97604
-2.73851
-2.49762
-2.25359
-2.00665
-1.75705
-1.505
-1.25073
-0.994433
-0.736324
-0.476637
-0.215652
0.0462579
0.308894
0.572112
0.835642
1.09921
1.36257
1.62548
1.88768
2.14894
2.40901
2.66771
2.92485
3.18026
3.43371
3.685
3.93394
4.18035
4.42407
4.66494
4.90283
5.13763
5.36923
5.59756
5.82253
6.04407
6.26215
6.47669
6.68764
6.89496
7.09861
7.29854
7.49473
7.68714
7.87575
8.06054
8.24145
8.41847
8.59166
8.76106
8.92725
9.08908
9.25405
9.40025
-7.43804
-7.43776
-7.43739
-7.43741
-7.43859
-7.44132
-7.44542
-7.45051
-7.45626
-7.46236
-7.46852
-7.47447
-7.48
-7.48492
-7.48906
-7.4923
-7.49451
-7.49566
-7.49569
-7.4946
-7.49239
-7.48913
-7.48491
-7.47981
-7.47394
-7.46742
-7.46045
-7.45333
-7.4464
-7.44005
-7.43452
-7.43003
-7.42685
-7.42545
-7.42654
-7.43035
-7.43579
-7.44089
-7.44423
-7.44547
-7.44518
-7.44491
-7.44617
-7.4497
-7.45597
-7.46575
-7.47995
-7.49921
-7.52363
-7.55289
-7.58653
-7.62433
-7.66609
-7.71163
-7.76072
-7.81297
-7.86778
-7.92442
-7.98203
-8.03979
-8.09697
-8.15296
-8.20722
-8.2593
-8.30881
-8.3555
-8.39915
-8.4396
-8.47672
-8.51041
-8.54055
-8.56704
-8.58979
-8.6087
-8.62367
-8.6346
-8.64142
-8.64402
-8.64235
-8.63631
-8.62585
-8.6109
-8.5914
-8.56729
-8.53853
-8.50508
-8.46693
-8.42409
-8.37651
-8.32408
-8.26672
-8.20437
-8.13707
-8.06479
-7.98752
-7.90523
-7.81789
-7.72544
-7.62782
-7.52495
-7.41682
-7.30344
-7.18476
-7.06075
-6.93135
-6.79654
-6.6563
-6.51062
-6.35948
-6.20291
-6.04092
-5.87354
-5.70081
-5.52279
-5.33954
-5.15114
-4.95769
-4.75928
-4.55604
-4.34807
-4.13553
-3.91855
-3.6973
-3.47193
-3.24261
-3.00954
-2.77289
-2.53285
-2.28965
-2.0435
-1.79464
-1.5433
-1.28969
-1.03403
-0.776531
-0.517451
-0.257052
0.00437977
0.266635
0.529492
0.792696
1.05598
1.3191
1.58181
1.84386
2.105
2.36501
2.62369
2.88086
3.13632
3.38985
3.64126
3.89035
4.13693
4.38085
4.62195
4.86009
5.09515
5.32703
5.55563
5.78087
6.0027
6.22105
6.43586
6.64708
6.85465
7.05854
7.25869
7.45508
7.64767
7.83645
8.02139
8.20248
8.3797
8.55313
8.72277
8.88934
9.05111
9.21677
9.35668
-7.44034
-7.43976
-7.43937
-7.44081
-7.44506
-7.4514
-7.45875
-7.46642
-7.47393
-7.48098
-7.4874
-7.49314
-7.49814
-7.50233
-7.50563
-7.50797
-7.50927
-7.50949
-7.50859
-7.50657
-7.50342
-7.49918
-7.49389
-7.48761
-7.48041
-7.47234
-7.46351
-7.45413
-7.44452
-7.43519
-7.42675
-7.42
-7.4159
-7.41537
-7.41832
-7.42291
-7.42752
-7.43148
-7.43465
-7.43746
-7.44066
-7.44535
-7.4525
-7.46312
-7.47803
-7.49751
-7.52113
-7.54837
-7.57896
-7.61255
-7.64893
-7.68805
-7.72989
-7.77436
-7.82127
-7.87029
-7.92095
-7.97276
-8.02514
-8.07754
-8.12942
-8.18035
-8.22988
-8.27767
-8.32341
-8.36681
-8.40767
-8.44577
-8.48096
-8.51306
-8.54193
-8.56742
-8.58939
-8.60771
-8.62224
-8.63288
-8.6395
-8.642
-8.64028
-8.63427
-8.62389
-8.60906
-8.58972
-8.56581
-8.53729
-8.50411
-8.46626
-8.42375
-8.37654
-8.32451
-8.26759
-8.20574
-8.13899
-8.06731
-7.99068
-7.90906
-7.82242
-7.73071
-7.63386
-7.53182
-7.42457
-7.31208
-7.1943
-7.0712
-6.94273
-6.80886
-6.66956
-6.52484
-6.37466
-6.21906
-6.05802
-5.8916
-5.71982
-5.54275
-5.36043
-5.17296
-4.9804
-4.7829
-4.58052
-4.37342
-4.16171
-3.94556
-3.7251
-3.50051
-3.27195
-3.0396
-2.80365
-2.5643
-2.32174
-2.07622
-1.82796
-1.57718
-1.32409
-1.0689
-0.811867
-0.553222
-0.293233
-0.0321445
0.229804
0.492391
0.755337
1.01841
1.28135
1.54391
1.80584
2.06691
2.32688
2.58557
2.84278
3.09829
3.35191
3.60342
3.85264
4.09937
4.34346
4.58475
4.82309
5.05836
5.29046
5.51929
5.74477
5.96684
6.18542
6.40046
6.61189
6.81968
7.02377
7.22412
7.4207
7.61349
7.80244
7.98755
8.1688
8.34619
8.51977
8.68948
8.856
9.01709
9.18219
9.31527
-7.44461
-7.4437
-7.44424
-7.44876
-7.45626
-7.46478
-7.47342
-7.48169
-7.4893
-7.49616
-7.50228
-7.50765
-7.5122
-7.51587
-7.51859
-7.52029
-7.52093
-7.52046
-7.51886
-7.51613
-7.51226
-7.50729
-7.50124
-7.49409
-7.48584
-7.47661
-7.46652
-7.45577
-7.44474
-7.4341
-7.42468
-7.41769
-7.41417
-7.41389
-7.41546
-7.41779
-7.42083
-7.42496
-7.43046
-7.43723
-7.44557
-7.4567
-7.4716
-7.49039
-7.5128
-7.53845
-7.56706
-7.59823
-7.63174
-7.66741
-7.70511
-7.74477
-7.7863
-7.82958
-7.87444
-7.92064
-7.96785
-8.01574
-8.06393
-8.11207
-8.15977
-8.2067
-8.25253
-8.29695
-8.33967
-8.38044
-8.41903
-8.45521
-8.48879
-8.51956
-8.54734
-8.57196
-8.59324
-8.61101
-8.62512
-8.63543
-8.64181
-8.64412
-8.64228
-8.63619
-8.62576
-8.61092
-8.5916
-8.56775
-8.53931
-8.50624
-8.46854
-8.4262
-8.37918
-8.32741
-8.27077
-8.20925
-8.14289
-8.07165
-7.99551
-7.91443
-7.82836
-7.73724
-7.64103
-7.53967
-7.43313
-7.32135
-7.20431
-7.08195
-6.95423
-6.82113
-6.6826
-6.53864
-6.38923
-6.23439
-6.07412
-5.90845
-5.73742
-5.56108
-5.37948
-5.19272
-5.00086
-4.80403
-4.60232
-4.39586
-4.18479
-3.96925
-3.74939
-3.52537
-3.29737
-3.06556
-2.83013
-2.59127
-2.34919
-2.10414
-1.85631
-1.60592
-1.35321
-1.09837
-0.84166
-0.583322
-0.323608
-0.0627573
0.19898
0.461369
0.724146
0.987075
1.24989
1.51235
1.7742
2.03523
2.29519
2.5539
2.81115
3.06672
3.32041
3.57201
3.82132
4.06817
4.31238
4.5538
4.79228
5.02771
5.25996
5.48896
5.7146
5.93683
6.15557
6.37076
6.58236
6.79029
6.99452
7.19501
7.39172
7.58462
7.77368
7.95889
8.14022
8.31765
8.49121
8.66077
8.82695
8.98702
9.15128
9.27771
-7.44988
-7.44944
-7.4522
-7.45947
-7.46832
-7.47711
-7.48549
-7.49332
-7.50053
-7.5071
-7.51296
-7.51806
-7.5223
-7.52562
-7.52794
-7.52922
-7.52941
-7.52849
-7.52643
-7.52324
-7.51893
-7.51351
-7.50691
-7.49906
-7.4901
-7.48021
-7.46961
-7.45857
-7.44757
-7.43737
-7.4291
-7.42351
-7.42008
-7.41796
-7.4172
-7.41826
-7.42176
-7.42756
-7.43558
-7.44648
-7.46079
-7.47848
-7.49935
-7.52318
-7.54974
-7.57868
-7.60981
-7.64294
-7.67791
-7.71457
-7.75275
-7.79234
-7.83322
-7.87528
-7.91837
-7.96232
-8.00692
-8.05194
-8.09713
-8.14222
-8.18693
-8.231
-8.27415
-8.31611
-8.35662
-8.39544
-8.43234
-8.46707
-8.49943
-8.52918
-8.55613
-8.58006
-8.60077
-8.61808
-8.63182
-8.64181
-8.64792
-8.65001
-8.64797
-8.64171
-8.63113
-8.61616
-8.59674
-8.57279
-8.54428
-8.51118
-8.47346
-8.43114
-8.38419
-8.3325
-8.27598
-8.21465
-8.14852
-8.07758
-8.00178
-7.92109
-7.83544
-7.74478
-7.64907
-7.54824
-7.44224
-7.33103
-7.21457
-7.09279
-6.96568
-6.83316
-6.69524
-6.55186
-6.40306
-6.2488
-6.08912
-5.92401
-5.75355
-5.57774
-5.39669
-5.21043
-5.01909
-4.82274
-4.62151
-4.41551
-4.20489
-3.98978
-3.77034
-3.54673
-3.31911
-3.08767
-2.85259
-2.61407
-2.37233
-2.12759
-1.88005
-1.62994
-1.37747
-1.12287
-0.866372
-0.608237
-0.348696
-0.0880057
0.173602
0.43586
0.698542
0.961376
1.22413
1.48652
1.74835
2.00935
2.26933
2.52807
2.78536
3.04098
3.29473
3.54639
3.79578
4.04271
4.287
4.5285
4.76706
5.00257
5.23492
5.464
5.68974
5.91206
6.13091
6.34619
6.55787
6.76587
6.97016
7.1707
7.36746
7.5604
7.74949
7.93471
8.11603
8.2934
8.46682
8.63608
8.80175
8.96069
9.12414
9.24439
-7.45396
-7.4548
-7.46022
-7.46855
-7.47706
-7.48522
-7.49304
-7.50045
-7.50738
-7.51374
-7.51942
-7.52433
-7.52838
-7.5315
-7.53362
-7.53468
-7.53464
-7.53349
-7.5312
-7.52779
-7.52327
-7.51755
-7.51055
-7.50243
-7.49343
-7.48368
-7.47342
-7.4631
-7.45345
-7.44519
-7.43862
-7.43315
-7.42835
-7.42493
-7.42378
-7.42521
-7.42969
-7.43771
-7.44934
-7.46445
-7.48274
-7.504
-7.52799
-7.55442
-7.58307
-7.61373
-7.6462
-7.68032
-7.71592
-7.75285
-7.79098
-7.8302
-7.8704
-7.91147
-7.95328
-7.99569
-8.03854
-8.08167
-8.12488
-8.16796
-8.2107
-8.25286
-8.29421
-8.33452
-8.37354
-8.41105
-8.4468
-8.48056
-8.51209
-8.54115
-8.56752
-8.59097
-8.61127
-8.62823
-8.64166
-8.65136
-8.65719
-8.65902
-8.65673
-8.65021
-8.63939
-8.62419
-8.60453
-8.58037
-8.55166
-8.51837
-8.4805
-8.43805
-8.391
-8.33926
-8.28274
-8.22144
-8.15542
-8.08464
-8.00905
-7.92861
-7.84326
-7.75294
-7.65759
-7.55715
-7.45156
-7.34079
-7.22476
-7.10344
-6.97677
-6.84471
-6.70724
-6.56432
-6.41596
-6.26214
-6.10288
-5.93819
-5.76813
-5.59272
-5.41203
-5.22614
-5.03514
-4.83913
-4.63821
-4.43253
-4.2222
-4.00738
-3.78821
-3.56486
-3.33749
-3.10628
-2.87142
-2.63312
-2.3916
-2.14705
-1.8997
-1.64975
-1.39744
-1.14297
-0.886607
-0.628589
-0.369149
-0.108546
0.152982
0.415176
0.677802
0.940594
1.20331
1.46569
1.7275
1.98852
2.24853
2.50731
2.76464
3.0203
3.27411
3.52583
3.77527
4.02225
4.26658
4.50812
4.74673
4.98228
5.21468
5.44381
5.6696
5.89197
6.11086
6.32618
6.53787
6.74589
6.95019
7.15072
7.34747
7.54039
7.72946
7.91463
8.09587
8.2731
8.4463
8.61517
8.78024
8.93804
9.10074
9.21541
-7.45511
-7.45762
-7.46461
-7.47263
-7.48046
-7.48812
-7.49559
-7.50278
-7.50956
-7.51583
-7.52146
-7.52633
-7.53036
-7.53346
-7.53555
-7.5366
-7.53656
-7.53541
-7.53314
-7.52974
-7.52517
-7.51936
-7.51241
-7.50454
-7.49596
-7.4869
-7.47781
-7.46917
-7.46134
-7.45433
-7.44792
-7.44202
-7.43703
-7.43394
-7.43359
-7.43654
-7.44316
-7.45351
-7.46734
-7.48446
-7.50462
-7.52753
-7.55294
-7.58059
-7.61025
-7.64171
-7.67479
-7.70932
-7.74513
-7.7821
-7.8201
-7.85903
-7.89875
-7.93917
-7.98018
-8.02166
-8.06347
-8.10548
-8.14751
-8.1894
-8.23097
-8.27201
-8.31231
-8.35167
-8.38985
-8.42662
-8.46173
-8.49496
-8.52604
-8.55472
-8.58076
-8.60393
-8.62398
-8.64069
-8.65386
-8.66331
-8.66886
-8.67038
-8.66778
-8.66093
-8.64978
-8.63424
-8.61424
-8.58974
-8.56069
-8.52708
-8.48891
-8.4462
-8.39895
-8.34703
-8.29038
-8.22901
-8.16297
-8.09223
-8.01675
-7.93646
-7.85129
-7.76118
-7.66607
-7.56591
-7.46061
-7.35015
-7.23445
-7.11347
-6.98713
-6.85542
-6.71827
-6.5757
-6.42765
-6.27416
-6.11519
-5.95081
-5.78101
-5.60587
-5.42542
-5.23977
-5.04898
-4.85317
-4.65245
-4.44695
-4.2368
-4.02215
-3.80313
-3.57993
-3.3527
-3.12162
-2.88688
-2.6487
-2.40729
-2.16285
-1.91559
-1.66574
-1.4135
-1.1591
-0.902798
-0.644829
-0.385441
-0.124869
0.136618
0.398798
0.661397
0.924181
1.18688
1.44926
1.71109
1.97213
2.23217
2.49098
2.74834
3.00405
3.25789
3.50967
3.75914
4.00614
4.25048
4.49203
4.73065
4.96621
5.1986
5.42773
5.65352
5.87591
6.09479
6.3101
6.52176
6.72974
6.93398
7.13447
7.33116
7.52402
7.71303
7.89811
8.07921
8.25625
8.42916
8.59759
8.76204
8.91873
9.08071
9.19053
-7.4518
-7.4557
-7.46286
-7.47034
-7.47785
-7.48533
-7.49271
-7.49987
-7.5067
-7.51306
-7.51883
-7.52388
-7.52809
-7.53139
-7.53368
-7.53492
-7.53506
-7.53407
-7.53193
-7.52864
-7.52417
-7.51856
-7.51199
-7.50472
-7.49703
-7.48923
-7.48155
-7.47407
-7.46688
-7.46008
-7.45381
-7.44843
-7.44457
-7.44296
-7.44421
-7.44869
-7.45665
-7.46814
-7.48299
-7.50104
-7.52202
-7.54566
-7.57168
-7.59985
-7.62994
-7.66175
-7.69509
-7.7298
-7.76572
-7.80273
-7.8407
-7.8795
-7.91902
-7.95917
-7.99983
-8.0409
-8.08225
-8.12376
-8.16528
-8.20666
-8.24773
-8.28832
-8.32821
-8.36721
-8.40508
-8.44162
-8.47656
-8.50964
-8.54059
-8.56917
-8.5951
-8.61813
-8.63802
-8.65455
-8.6675
-8.67668
-8.68193
-8.68312
-8.68015
-8.67291
-8.66135
-8.64539
-8.62496
-8.60001
-8.57052
-8.53647
-8.49789
-8.45481
-8.40722
-8.35503
-8.29814
-8.2366
-8.17045
-8.09966
-8.02418
-7.94393
-7.85885
-7.76885
-7.6739
-7.5739
-7.46882
-7.35858
-7.24312
-7.12238
-6.9963
-6.86483
-6.72794
-6.5856
-6.43779
-6.28451
-6.12577
-5.96157
-5.79196
-5.61698
-5.43668
-5.25116
-5.06048
-4.86478
-4.66416
-4.45876
-4.2487
-4.03413
-3.81519
-3.59206
-3.36488
-3.13385
-2.89915
-2.66102
-2.41966
-2.17527
-1.92805
-1.67823
-1.42601
-1.17164
-0.915353
-0.657396
-0.398016
-0.137454
0.124033
0.386212
0.648815
0.911595
1.1743
1.43669
1.69853
1.9596
2.21967
2.4785
2.73589
2.99163
3.24552
3.49733
3.74682
3.99381
4.23814
4.47967
4.71825
4.95378
5.18613
5.41523
5.64099
5.86336
6.08221
6.29746
6.50905
6.71695
6.92111
7.1215
7.3181
7.51087
7.69978
7.88473
8.06566
8.24246
8.41504
8.58298
8.74678
8.9024
9.06369
9.16938
-7.4421
-7.44667
-7.45354
-7.46101
-7.46871
-7.47639
-7.48396
-7.49133
-7.49842
-7.50508
-7.51118
-7.51657
-7.52112
-7.52472
-7.52731
-7.52882
-7.52921
-7.52846
-7.52657
-7.52355
-7.51946
-7.51442
-7.50863
-7.50227
-7.4955
-7.48847
-7.48135
-7.47424
-7.46731
-7.46082
-7.45521
-7.45089
-7.44831
-7.448
-7.45049
-7.45608
-7.46499
-7.47724
-7.49276
-7.51134
-7.53275
-7.55673
-7.58303
-7.61143
-7.64173
-7.67373
-7.70725
-7.74214
-7.77823
-7.81539
-7.85347
-7.89238
-7.93199
-7.97222
-8.01293
-8.05404
-8.09542
-8.13696
-8.17851
-8.21995
-8.26109
-8.30176
-8.34175
-8.38086
-8.41886
-8.45553
-8.49061
-8.52382
-8.55492
-8.58359
-8.60957
-8.63261
-8.65245
-8.66885
-8.68159
-8.69049
-8.69541
-8.69621
-8.6928
-8.6851
-8.67305
-8.65658
-8.63562
-8.61014
-8.5801
-8.5455
-8.5064
-8.46284
-8.41484
-8.36227
-8.30506
-8.24327
-8.17693
-8.10603
-8.03047
-7.9502
-7.86512
-7.77518
-7.68031
-7.58043
-7.47549
-7.36541
-7.25014
-7.12957
-7.00369
-6.8724
-6.73571
-6.59354
-6.44591
-6.29278
-6.13419
-5.97012
-5.80064
-5.62574
-5.44555
-5.26008
-5.06947
-4.8738
-4.67324
-4.46787
-4.25786
-4.04331
-3.82441
-3.60128
-3.37412
-3.14308
-2.90839
-2.67027
-2.42892
-2.18454
-1.93733
-1.68751
-1.4353
-1.18092
-0.924633
-0.66668
-0.407293
-0.146737
0.114764
0.376939
0.639553
0.902333
1.16505
1.42745
1.68932
1.95041
2.2105
2.46934
2.72675
2.9825
3.23643
3.48827
3.73773
3.98468
4.22896
4.47042
4.70895
4.9444
5.17669
5.40572
5.63143
5.85374
6.07254
6.2877
6.49918
6.70696
6.91101
7.11129
7.30777
7.50043
7.68922
7.87402
8.05475
8.23128
8.4035
8.57094
8.73408
8.88869
9.0493
9.15158
-7.42449
-7.42907
-7.4361
-7.44434
-7.45274
-7.46091
-7.46883
-7.47655
-7.48405
-7.49119
-7.49779
-7.50365
-7.50863
-7.51263
-7.5156
-7.51749
-7.51826
-7.51792
-7.51648
-7.51398
-7.51048
-7.5061
-7.50095
-7.49517
-7.4889
-7.48226
-7.4754
-7.46855
-7.462
-7.4561
-7.45119
-7.44766
-7.44603
-7.44675
-7.45024
-7.45677
-7.46649
-7.47942
-7.49546
-7.51444
-7.53614
-7.56033
-7.58683
-7.61541
-7.64589
-7.6781
-7.71185
-7.74698
-7.78334
-7.82078
-7.85919
-7.89845
-7.93845
-7.97908
-8.02022
-8.06174
-8.10354
-8.1455
-8.18749
-8.22936
-8.27095
-8.31208
-8.35255
-8.39214
-8.43063
-8.46775
-8.50325
-8.53685
-8.56827
-8.5972
-8.62334
-8.64644
-8.66625
-8.68252
-8.69502
-8.70356
-8.70801
-8.70829
-8.70433
-8.69607
-8.68345
-8.6664
-8.64485
-8.61873
-8.58803
-8.55277
-8.51306
-8.46898
-8.42051
-8.36755
-8.30999
-8.24789
-8.18133
-8.11027
-8.03462
-7.95429
-7.86919
-7.77927
-7.68444
-7.58465
-7.47983
-7.36989
-7.25477
-7.13438
-7.00865
-6.87754
-6.741
-6.59899
-6.4515
-6.29852
-6.14005
-5.9761
-5.8067
-5.63189
-5.45175
-5.26633
-5.07574
-4.8801
-4.67956
-4.47423
-4.26424
-4.04972
-3.83082
-3.60771
-3.38054
-3.1495
-2.91481
-2.6767
-2.43536
-2.19099
-1.94379
-1.69398
-1.44177
-1.18739
-0.931108
-0.673156
-0.413773
-0.153214
0.108287
0.370465
0.633075
0.895859
1.15858
1.42099
1.68287
1.94398
2.20406
2.46291
2.72031
2.97607
3.23005
3.48193
3.73136
3.97823
4.22243
4.4638
4.70224
4.9376
5.1698
5.39874
5.62436
5.84663
6.06536
6.2804
6.49175
6.69939
6.9033
7.10344
7.29979
7.49233
7.68099
7.86563
8.04613
8.22237
8.39421
8.56114
8.72363
8.8773
9.03717
9.13678
-7.39856
-7.40298
-7.41094
-7.42058
-7.42998
-7.43871
-7.44707
-7.45531
-7.4635
-7.47141
-7.47874
-7.48524
-7.49076
-7.49526
-7.49872
-7.5011
-7.5024
-7.50259
-7.50169
-7.49973
-7.49678
-7.4929
-7.48821
-7.48279
-7.47678
-7.47034
-7.46371
-7.45717
-7.45098
-7.44548
-7.4411
-7.43827
-7.43746
-7.43907
-7.44345
-7.4508
-7.46124
-7.47474
-7.49121
-7.5105
-7.53242
-7.55681
-7.58348
-7.61225
-7.64298
-7.67548
-7.70958
-7.7451
-7.78188
-7.81979
-7.8587
-7.8985
-7.93907
-7.9803
-8.02206
-8.06425
-8.10675
-8.14944
-8.19217
-8.23479
-8.27713
-8.31902
-8.36026
-8.40062
-8.43983
-8.47766
-8.5138
-8.54795
-8.57977
-8.60893
-8.63514
-8.65816
-8.67779
-8.69378
-8.70586
-8.71383
-8.71763
-8.71725
-8.71265
-8.70379
-8.6906
-8.67297
-8.6508
-8.62401
-8.59254
-8.55652
-8.51616
-8.47158
-8.42272
-8.36935
-8.31144
-8.24904
-8.18228
-8.11107
-8.03534
-7.95496
-7.86985
-7.77994
-7.68517
-7.58548
-7.48078
-7.37102
-7.25607
-7.13587
-7.01031
-6.87939
-6.74301
-6.60119
-6.45386
-6.30106
-6.14272
-5.97891
-5.80961
-5.63492
-5.45485
-5.26952
-5.07896
-4.88337
-4.68287
-4.4776
-4.26765
-4.05317
-3.83431
-3.61124
-3.3841
-3.15311
-2.91845
-2.68039
-2.43909
-2.19476
-1.9476
-1.69782
-1.44564
-1.1913
-0.935057
-0.677135
-0.417794
-0.157259
0.1042
0.36635
0.628919
0.891677
1.15437
1.41676
1.67862
1.93969
2.19974
2.45854
2.71589
2.97163
3.22573
3.47772
3.72711
3.97388
4.21796
4.45924
4.69756
4.93282
5.1649
5.39374
5.61928
5.84153
6.06021
6.27511
6.4863
6.69379
6.89754
7.09754
7.29374
7.48617
7.67471
7.85917
8.03944
8.21537
8.38682
8.55324
8.71511
8.86788
9.027
9.12462
-7.36553
-7.37026
-7.37973
-7.39117
-7.40168
-7.41114
-7.42027
-7.42924
-7.43813
-7.44696
-7.45536
-7.46284
-7.46905
-7.47403
-7.47797
-7.48089
-7.48273
-7.48347
-7.48309
-7.48161
-7.47908
-7.47554
-7.47108
-7.46583
-7.45996
-7.45365
-7.44715
-7.44072
-7.43473
-7.42958
-7.42569
-7.42349
-7.42339
-7.42576
-7.43087
-7.43887
-7.44984
-7.46375
-7.48054
-7.50008
-7.52223
-7.54682
-7.5737
-7.60271
-7.6337
-7.66652
-7.70097
-7.7369
-7.77416
-7.81262
-7.85214
-7.89261
-7.93388
-7.97585
-8.01841
-8.06144
-8.10483
-8.14844
-8.19211
-8.23569
-8.27898
-8.3218
-8.36392
-8.40511
-8.44511
-8.48361
-8.52032
-8.55488
-8.58692
-8.61607
-8.64206
-8.66471
-8.68391
-8.69938
-8.71075
-8.71781
-8.72072
-8.71963
-8.71448
-8.70518
-8.69162
-8.67361
-8.65099
-8.62362
-8.59138
-8.55452
-8.51355
-8.46859
-8.41936
-8.36565
-8.30734
-8.24463
-8.17762
-8.10627
-8.03045
-7.95002
-7.86486
-7.77493
-7.68019
-7.58059
-7.47604
-7.36644
-7.25169
-7.13167
-7.0063
-6.87555
-6.73937
-6.59773
-6.4506
-6.29797
-6.13982
-5.97616
-5.807
-5.63242
-5.45248
-5.26728
-5.07689
-4.88143
-4.68101
-4.47577
-4.26583
-4.05136
-3.83251
-3.60948
-3.38243
-3.15157
-2.91709
-2.67918
-2.43803
-2.19384
-1.94682
-1.69716
-1.44511
-1.19092
-0.934833
-0.677068
-0.417881
-0.157508
0.103787
0.365762
0.62816
0.890744
1.15327
1.41549
1.67716
1.93804
2.19788
2.45648
2.71359
2.96911
3.22314
3.47516
3.72445
3.97107
4.21501
4.45614
4.69433
4.92946
5.16142
5.39014
5.61562
5.83796
6.05667
6.27143
6.48246
6.68979
6.8934
7.09325
7.28933
7.48168
7.67014
7.85444
8.03445
8.21008
8.38114
8.54705
8.70831
8.86025
9.01854
9.11485
-7.32837
-7.334
-7.34552
-7.35916
-7.37084
-7.38061
-7.39017
-7.4002
-7.4104
-7.42037
-7.42983
-7.43833
-7.44532
-7.45081
-7.45519
-7.45862
-7.46098
-7.4622
-7.46225
-7.46112
-7.45883
-7.45546
-7.4511
-7.44588
-7.43996
-7.43357
-7.42701
-7.4206
-7.41474
-7.40985
-7.40633
-7.4046
-7.40502
-7.40789
-7.41343
-7.42179
-7.43302
-7.44712
-7.46404
-7.48368
-7.50592
-7.53061
-7.55764
-7.58684
-7.61808
-7.65117
-7.68595
-7.72228
-7.76003
-7.79905
-7.83921
-7.88038
-7.92243
-7.96525
-8.0087
-8.05267
-8.097
-8.14153
-8.1861
-8.23054
-8.27464
-8.31821
-8.361
-8.40278
-8.44327
-8.48216
-8.51912
-8.55378
-8.58571
-8.61438
-8.63959
-8.66144
-8.67989
-8.6946
-8.70482
-8.71038
-8.71201
-8.71015
-8.70463
-8.69522
-8.68166
-8.66365
-8.64099
-8.61364
-8.58174
-8.54541
-8.50474
-8.45971
-8.41024
-8.35615
-8.29743
-8.23435
-8.16702
-8.09541
-8.01936
-7.93874
-7.85342
-7.76338
-7.66858
-7.56896
-7.46446
-7.35493
-7.24029
-7.12037
-6.99513
-6.86448
-6.72844
-6.58691
-6.43993
-6.28741
-6.12938
-5.9658
-5.79674
-5.62222
-5.44238
-5.25726
-5.067
-4.87163
-4.67127
-4.46602
-4.25608
-4.04158
-3.82274
-3.59973
-3.37277
-3.14205
-2.90774
-2.66999
-2.42901
-2.18499
-1.93813
-1.68864
-1.4368
-1.18283
-0.926953
-0.669422
-0.410461
-0.150343
0.110702
0.372401
0.634524
0.896815
1.15904
1.42094
1.68228
1.9428
2.20227
2.46044
2.71708
2.97198
3.22496
3.47588
3.72456
3.97081
4.21442
4.45524
4.69314
4.92797
5.15964
5.38805
5.61329
5.83557
6.05425
6.26883
6.47969
6.68686
6.89033
7.09006
7.28604
7.47838
7.66689
7.85108
8.03086
8.20618
8.37687
8.54231
8.703
8.85415
9.0116
9.10723
-7.29069
-7.29756
-7.31159
-7.32719
-7.33921
-7.34947
-7.36015
-7.37137
-7.38266
-7.39371
-7.4042
-7.41363
-7.42137
-7.42746
-7.4324
-7.43637
-7.43922
-7.44085
-7.44122
-7.44031
-7.43814
-7.43476
-7.43027
-7.42483
-7.41866
-7.412
-7.4052
-7.3986
-7.39263
-7.3877
-7.3842
-7.3825
-7.38294
-7.3858
-7.39129
-7.39953
-7.41061
-7.42453
-7.44125
-7.46071
-7.48282
-7.50747
-7.53456
-7.56392
-7.59538
-7.62877
-7.66393
-7.70071
-7.739
-7.77863
-7.81946
-7.86133
-7.90411
-7.94766
-7.99185
-8.03653
-8.08154
-8.12671
-8.17186
-8.21682
-8.26137
-8.30531
-8.34839
-8.39038
-8.431
-8.46996
-8.50691
-8.54144
-8.57287
-8.60027
-8.62353
-8.64353
-8.66077
-8.67511
-8.68585
-8.69243
-8.69468
-8.69285
-8.68715
-8.67753
-8.66375
-8.64552
-8.62262
-8.59519
-8.5636
-8.52779
-8.48739
-8.44223
-8.39251
-8.33808
-8.27908
-8.21571
-8.14812
-8.07626
-8
-7.91922
-7.8338
-7.74373
-7.64896
-7.54944
-7.44504
-7.33567
-7.22117
-7.10145
-6.97639
-6.84597
-6.71014
-6.56885
-6.42206
-6.26975
-6.11189
-5.94849
-5.77958
-5.60522
-5.42551
-5.24052