/*--------------------------------*- C++ -*----------------------------------*\
| =========                 |                                                 |
| \\      /  F ield         | OpenFOAM: The Open Source CFD Toolbox           |
|  \\    /   O peration     | Version:  v2012                                 |
|   \\  /    A nd           | Website:  www.openfoam.com                      |
|    \\/     M anipulation  |                                                 |
\*---------------------------------------------------------------------------*/
FoamFile
{
    version     2.0;
    format      ascii;
    class       surfaceScalarField;
    location    "900";
    object      phi;
}
// * * * * * * * * * * * * * * * * * * * * * * * * * * * * * * * * * * * * * //

dimensions      [0 3 -1 0 0 0 0];
oriented        oriented;


internalField   nonuniform List<scalar> 
24170
(
2.99986e-06
1.3401e-07
2.85503e-06
1.44844e-07
2.72638e-06
1.28666e-07
2.61065e-06
1.15725e-07
2.50721e-06
1.03423e-07
2.41625e-06
9.09327e-08
2.3373e-06
7.89238e-08
2.26927e-06
6.80244e-08
2.21059e-06
5.86819e-08
2.15963e-06
5.09534e-08
2.11533e-06
4.43032e-08
2.07692e-06
3.84036e-08
2.04386e-06
3.30652e-08
2.01573e-06
2.8123e-08
1.99238e-06
2.335e-08
1.97413e-06
1.82525e-08
1.96184e-06
1.22854e-08
8.43936e-12
1.96185e-06
3.51575e-06
7.47058e-08
3.54904e-06
1.11564e-07
3.56492e-06
1.12814e-07
3.56796e-06
1.12712e-07
3.56072e-06
1.10676e-07
3.54618e-06
1.05483e-07
3.52663e-06
9.84906e-08
3.50377e-06
9.09075e-08
3.47912e-06
8.33501e-08
3.45397e-06
7.61199e-08
3.42898e-06
6.93058e-08
3.40456e-06
6.28305e-08
3.38101e-06
5.66187e-08
3.35858e-06
5.05542e-08
3.33749e-06
4.44423e-08
3.31797e-06
3.77809e-08
3.30012e-06
3.01411e-08
1.92354e-08
3.28089e-06
3.83244e-06
5.44482e-08
3.85112e-06
9.28928e-08
3.86631e-06
9.76372e-08
3.87948e-06
9.95443e-08
3.89021e-06
9.99266e-08
3.89837e-06
9.73062e-08
3.90415e-06
9.27015e-08
3.90776e-06
8.72909e-08
3.9095e-06
8.16065e-08
3.90973e-06
7.58892e-08
3.90878e-06
7.02514e-08
3.90692e-06
6.46883e-08
3.90437e-06
5.91649e-08
3.90134e-06
5.35919e-08
3.89796e-06
4.78144e-08
3.89428e-06
4.14576e-08
3.89005e-06
3.43737e-08
2.56744e-08
3.88362e-06
4.21629e-06
4.27149e-08
4.22908e-06
8.01093e-08
4.23903e-06
8.76904e-08
4.24811e-06
9.04695e-08
4.25643e-06
9.16171e-08
4.26378e-06
8.99583e-08
4.27021e-06
8.62826e-08
4.2758e-06
8.17122e-08
4.28062e-06
7.67961e-08
4.28477e-06
7.1757e-08
4.28834e-06
6.66838e-08
4.29144e-06
6.15975e-08
4.29414e-06
5.64683e-08
4.2965e-06
5.12291e-08
4.29856e-06
4.57578e-08
4.30018e-06
3.98377e-08
4.30113e-06
3.34258e-08
2.63218e-08
4.30049e-06
4.64608e-06
3.39313e-08
4.65689e-06
6.9305e-08
4.6654e-06
7.91938e-08
4.67309e-06
8.2783e-08
4.6803e-06
8.43962e-08
4.68688e-06
8.33647e-08
4.69282e-06
8.03416e-08
4.69819e-06
7.63423e-08
4.70306e-06
7.19247e-08
4.7075e-06
6.73068e-08
4.7116e-06
6.25887e-08
4.71539e-06
5.78034e-08
4.71892e-06
5.29391e-08
4.7222e-06
4.79469e-08
4.72521e-06
4.27505e-08
4.7278e-06
3.72435e-08
4.72978e-06
3.14466e-08
2.5453e-08
4.73065e-06
5.12152e-06
2.70065e-08
5.13121e-06
5.96035e-08
5.13932e-06
7.10802e-08
5.14665e-06
7.54495e-08
5.15358e-06
7.74591e-08
5.15999e-06
7.69589e-08
5.16583e-06
7.45053e-08
5.17118e-06
7.10035e-08
5.1761e-06
6.70082e-08
5.18067e-06
6.2743e-08
5.18494e-06
5.83242e-08
5.18895e-06
5.37973e-08
5.19272e-06
4.91738e-08
5.19624e-06
4.44268e-08
5.19947e-06
3.95253e-08
5.20228e-06
3.44351e-08
5.2045e-06
2.92258e-08
2.40615e-08
5.20589e-06
5.64644e-06
2.15639e-08
5.65524e-06
5.08019e-08
5.66319e-06
6.3141e-08
5.67046e-06
6.81821e-08
5.6774e-06
7.0518e-08
5.68387e-06
7.04805e-08
5.68983e-06
6.85436e-08
5.69533e-06
6.55063e-08
5.70042e-06
6.19083e-08
5.70518e-06
5.79837e-08
5.70965e-06
5.38595e-08
5.71385e-06
4.95971e-08
5.71779e-06
4.52295e-08
5.72146e-06
4.07564e-08
5.7248e-06
3.61819e-08
5.72772e-06
3.15199e-08
5.73008e-06
2.68574e-08
2.23575e-08
5.73179e-06
4.40928e-06
1.83952e-08
4.41503e-06
4.5039e-08
4.42069e-06
5.74776e-08
4.42593e-06
6.29303e-08
4.43095e-06
6.54941e-08
4.4357e-06
6.57369e-08
4.44011e-06
6.4134e-08
4.4442e-06
6.14174e-08
4.44801e-06
5.80992e-08
4.45157e-06
5.44195e-08
4.45492e-06
5.05127e-08
4.45807e-06
4.64529e-08
4.46101e-06
4.22861e-08
4.46374e-06
3.80299e-08
4.46621e-06
3.3708e-08
4.46838e-06
2.9356e-08
4.47017e-06
2.50647e-08
2.09764e-08
4.47155e-06
5.14274e-06
1.55052e-08
5.14847e-06
3.9302e-08
5.15441e-06
5.15442e-08
5.16007e-06
5.72706e-08
5.16556e-06
6.00061e-08
5.17079e-06
6.05077e-08
5.17569e-06
5.92359e-08
5.18026e-06
5.6847e-08
5.18453e-06
5.38238e-08
5.18854e-06
5.0411e-08
5.1923e-06
4.67484e-08
5.19583e-06
4.29223e-08
5.19913e-06
3.89906e-08
5.20217e-06
3.49887e-08
5.20492e-06
3.09552e-08
5.20734e-06
2.69402e-08
5.20937e-06
2.3029e-08
1.93426e-08
5.21101e-06
5.99839e-06
1.29053e-08
6.004e-06
3.36872e-08
6.01014e-06
4.54016e-08
6.01618e-06
5.12311e-08
6.02212e-06
5.4064e-08
6.02784e-06
5.47844e-08
6.03325e-06
5.3831e-08
6.03832e-06
5.17725e-08
6.04309e-06
4.9057e-08
6.04757e-06
4.59325e-08
6.05177e-06
4.25425e-08
6.05571e-06
3.89834e-08
6.05938e-06
3.53242e-08
6.06275e-06
3.16144e-08
6.0658e-06
2.79028e-08
6.06849e-06
2.42483e-08
6.0708e-06
2.07244e-08
1.74294e-08
6.07271e-06
6.99658e-06
1.05877e-08
7.00197e-06
2.82941e-08
7.00824e-06
3.9131e-08
7.01461e-06
4.48658e-08
7.02097e-06
4.77056e-08
7.02717e-06
4.85796e-08
7.03309e-06
4.79117e-08
7.03869e-06
4.61765e-08
7.04397e-06
4.37791e-08
7.04893e-06
4.09633e-08
7.0536e-06
3.78763e-08
7.05797e-06
3.46202e-08
7.06202e-06
3.12717e-08
7.06574e-06
2.78911e-08
7.06911e-06
2.4534e-08
7.0721e-06
2.12575e-08
7.0747e-06
1.81263e-08
1.52121e-08
7.07691e-06
8.16107e-06
8.52673e-09
8.16617e-06
2.31978e-08
8.17248e-06
3.28211e-08
8.17912e-06
3.82293e-08
8.18586e-06
4.09697e-08
8.19252e-06
4.19173e-08
8.19895e-06
4.1481e-08
8.20507e-06
4.00516e-08
8.21088e-06
3.79755e-08
8.21635e-06
3.54872e-08
8.2215e-06
3.27322e-08
8.2263e-06
2.98146e-08
8.23076e-06
2.6816e-08
8.23485e-06
2.38e-08
8.23856e-06
2.08244e-08
8.24187e-06
1.79431e-08
8.24479e-06
1.5206e-08
1.26711e-08
8.24733e-06
9.51957e-06
6.68301e-09
9.52434e-06
1.8424e-08
9.5306e-06
2.65598e-08
9.53744e-06
3.13914e-08
9.54451e-06
3.39035e-08
9.5516e-06
3.48301e-08
9.55852e-06
3.45575e-08
9.56518e-06
3.33974e-08
9.57151e-06
3.16383e-08
9.57751e-06
2.94892e-08
9.58315e-06
2.7091e-08
9.58842e-06
2.45454e-08
9.5933e-06
2.19299e-08
9.59779e-06
1.9311e-08
9.60188e-06
1.67402e-08
9.60555e-06
1.42676e-08
9.60883e-06
1.19295e-08
9.77195e-09
9.61173e-06
1.11044e-05
5.01314e-09
1.11088e-05
1.39582e-08
1.1115e-05
2.04099e-08
1.1122e-05
2.44192e-08
1.11293e-05
2.65502e-08
1.11368e-05
2.73542e-08
1.11442e-05
2.71617e-08
1.11514e-05
2.62232e-08
1.11582e-05
2.47622e-08
1.11648e-05
2.29565e-08
1.11709e-05
2.09326e-08
1.11767e-05
1.87823e-08
1.1182e-05
1.65792e-08
1.1187e-05
1.43803e-08
1.11915e-05
1.22349e-08
1.11956e-05
1.01806e-08
1.11992e-05
8.24926e-09
6.47102e-09
1.12025e-05
1.29532e-05
3.47206e-09
1.29574e-05
9.74276e-09
1.29634e-05
1.43814e-08
1.29705e-05
1.73507e-08
1.29781e-05
1.89394e-08
1.29859e-05
1.95072e-08
1.29938e-05
1.93087e-08
1.30015e-05
1.85313e-08
1.30089e-05
1.73396e-08
1.3016e-05
1.58704e-08
1.30227e-05
1.42277e-08
1.3029e-05
1.2489e-08
1.30349e-05
1.07152e-08
1.30403e-05
8.95508e-09
1.30453e-05
7.24742e-09
1.30498e-05
5.62294e-09
1.3054e-05
4.10322e-09
2.71285e-09
1.30577e-05
1.51099e-05
2.00928e-09
1.5114e-05
5.67461e-09
1.512e-05
8.40786e-09
1.51271e-05
1.0158e-08
1.5135e-05
1.10457e-08
1.51433e-05
1.12643e-08
1.51516e-05
1.09731e-08
1.51599e-05
1.02946e-08
1.51679e-05
9.33579e-09
1.51755e-05
8.18855e-09
1.51828e-05
6.92658e-09
1.51897e-05
5.60667e-09
1.51962e-05
4.27385e-09
1.52022e-05
2.96393e-09
1.52077e-05
1.70506e-09
1.52128e-05
5.19045e-10
1.52175e-05
-5.80085e-10
-1.57406e-09
1.52218e-05
1.76259e-05
5.59903e-10
1.763e-05
1.58825e-09
1.76361e-05
2.30403e-09
1.76436e-05
2.6828e-09
1.76519e-05
2.72936e-09
1.76606e-05
2.49708e-09
1.76696e-05
2.03812e-09
1.76785e-05
1.40678e-09
1.76872e-05
6.4968e-10
1.76955e-05
-1.87922e-10
1.77035e-05
-1.06986e-09
1.77111e-05
-1.96408e-09
1.77182e-05
-2.84578e-09
1.77249e-05
-3.69385e-09
1.77311e-05
-4.49236e-09
1.77368e-05
-5.22878e-09
1.77421e-05
-5.89585e-09
-6.4816e-09
1.77471e-05
1.78276e-05
-7.99188e-10
1.78314e-05
-2.26675e-09
1.78372e-05
-3.4745e-09
1.78443e-05
-4.4221e-09
1.78522e-05
-5.19535e-09
1.78606e-05
-5.88065e-09
1.78692e-05
-6.51811e-09
1.78777e-05
-7.12583e-09
1.78861e-05
-7.70692e-09
1.78941e-05
-8.26664e-09
1.79019e-05
-8.80072e-09
1.79092e-05
-9.30545e-09
1.79161e-05
-9.77313e-09
1.79226e-05
-1.01984e-08
1.79287e-05
-1.05759e-08
1.79344e-05
-1.09013e-08
1.79397e-05
-1.11734e-08
-1.13843e-08
1.79446e-05
1.58826e-05
-2.05791e-09
1.58861e-05
-5.8026e-09
1.58914e-05
-8.72406e-09
1.58978e-05
-1.07908e-08
1.59048e-05
-1.22331e-08
1.59122e-05
-1.32728e-08
1.59197e-05
-1.404e-08
1.59272e-05
-1.4601e-08
1.59345e-05
-1.50142e-08
1.59416e-05
-1.53207e-08
1.59483e-05
-1.55503e-08
1.59547e-05
-1.57165e-08
1.59608e-05
-1.58302e-08
1.59665e-05
-1.58962e-08
1.59718e-05
-1.59187e-08
1.59768e-05
-1.58993e-08
1.59815e-05
-1.58403e-08
-1.5738e-08
1.59858e-05
1.41499e-05
-3.33573e-09
1.41535e-05
-9.33428e-09
1.41586e-05
-1.38325e-08
1.41646e-05
-1.68199e-08
1.41712e-05
-1.87608e-08
1.41779e-05
-2.00471e-08
1.41848e-05
-2.08675e-08
1.41915e-05
-2.13392e-08
1.4198e-05
-2.15624e-08
1.42043e-05
-2.16188e-08
1.42104e-05
-2.15591e-08
1.42161e-05
-2.14153e-08
1.42214e-05
-2.12095e-08
1.42265e-05
-2.09567e-08
1.42312e-05
-2.06677e-08
1.42357e-05
-2.03483e-08
1.42399e-05
-2.00037e-08
-1.96317e-08
1.42437e-05
1.26064e-05
-4.7382e-09
1.26102e-05
-1.3101e-08
1.26154e-05
-1.90477e-08
1.26213e-05
-2.27175e-08
1.26276e-05
-2.49894e-08
1.26339e-05
-2.64096e-08
1.26403e-05
-2.72047e-08
1.26465e-05
-2.75249e-08
1.26524e-05
-2.75273e-08
1.26581e-05
-2.7325e-08
1.26636e-05
-2.69816e-08
1.26687e-05
-2.65434e-08
1.26735e-05
-2.60389e-08
1.2678e-05
-2.54954e-08
1.26823e-05
-2.49248e-08
1.26863e-05
-2.43391e-08
1.269e-05
-2.37422e-08
-2.31346e-08
1.26935e-05
1.12314e-05
-6.38087e-09
1.12357e-05
-1.73315e-08
1.12412e-05
-2.45354e-08
1.12471e-05
-2.86115e-08
1.12531e-05
-3.10256e-08
1.12592e-05
-3.2475e-08
1.12651e-05
-3.31527e-08
1.12709e-05
-3.32675e-08
1.12764e-05
-3.30226e-08
1.12816e-05
-3.25494e-08
1.12865e-05
-3.19255e-08
1.12912e-05
-3.11989e-08
1.12956e-05
-3.04145e-08
1.12997e-05
-2.95978e-08
1.13035e-05
-2.87716e-08
1.13071e-05
-2.79438e-08
1.13105e-05
-2.71234e-08
-2.63071e-08
1.13137e-05
1.00067e-05
-8.42298e-09
1.00116e-05
-2.22184e-08
1.00174e-05
-3.03573e-08
1.00233e-05
-3.45038e-08
1.00292e-05
-3.69315e-08
1.00351e-05
-3.83058e-08
1.00407e-05
-3.87887e-08
1.00461e-05
-3.86426e-08
1.00512e-05
-3.81264e-08
1.0056e-05
-3.73805e-08
1.00606e-05
-3.64757e-08
1.00648e-05
-3.54723e-08
1.00688e-05
-3.44169e-08
1.00726e-05
-3.33457e-08
1.00761e-05
-3.22799e-08
1.00794e-05
-3.1233e-08
1.00825e-05
-3.02097e-08
-2.92078e-08
1.00854e-05
8.91573e-06
-1.10277e-08
8.92156e-06
-2.80502e-08
8.92775e-06
-3.655e-08
8.93368e-06
-4.0448e-08
8.9395e-06
-4.27409e-08
8.94515e-06
-4.39486e-08
8.95052e-06
-4.41545e-08
8.95561e-06
-4.3721e-08
8.96041e-06
-4.29298e-08
8.96494e-06
-4.19084e-08
8.96919e-06
-4.07275e-08
8.97317e-06
-3.9451e-08
8.97689e-06
-3.81332e-08
8.98036e-06
-3.68165e-08
8.9836e-06
-3.55239e-08
8.98664e-06
-3.42719e-08
8.98949e-06
-3.30642e-08
-3.18945e-08
8.99218e-06
7.94409e-06
-1.44566e-08
7.95115e-06
-3.50821e-08
7.95766e-06
-4.30408e-08
7.96363e-06
-4.64044e-08
7.96942e-06
-4.85329e-08
7.97496e-06
-4.94935e-08
7.98018e-06
-4.93743e-08
7.98509e-06
-4.86306e-08
7.98971e-06
-4.75545e-08
7.99406e-06
-4.62536e-08
7.99812e-06
-4.47909e-08
8.00191e-06
-4.32358e-08
8.00543e-06
-4.16544e-08
8.0087e-06
-4.00893e-08
8.01174e-06
-3.85737e-08
8.01459e-06
-3.71197e-08
8.01726e-06
-3.57358e-08
-3.44005e-08
8.01977e-06
7.07893e-06
-1.90346e-08
7.08748e-06
-4.36422e-08
7.09442e-06
-4.99921e-08
7.10061e-06
-5.2609e-08
7.10659e-06
-5.45091e-08
7.11224e-06
-5.51496e-08
7.11752e-06
-5.46573e-08
7.12247e-06
-5.35747e-08
7.1271e-06
-5.21948e-08
7.13144e-06
-5.05876e-08
7.13546e-06
-4.88158e-08
7.13918e-06
-4.69586e-08
7.14261e-06
-4.50833e-08
7.14577e-06
-4.32499e-08
7.14868e-06
-4.14879e-08
7.15138e-06
-3.9823e-08
7.15391e-06
-3.82595e-08
-3.6774e-08
7.15628e-06
6.30951e-06
-2.60327e-08
6.31975e-06
-5.39343e-08
6.32777e-06
-5.79864e-08
6.33499e-06
-5.98321e-08
6.34183e-06
-6.13573e-08
6.34815e-06
-6.14794e-08
6.35397e-06
-6.04746e-08
6.35934e-06
-5.89565e-08
6.36431e-06
-5.7167e-08
6.36888e-06
-5.51597e-08
6.37306e-06
-5.29897e-08
6.37684e-06
-5.0739e-08
6.38025e-06
-4.84962e-08
6.38331e-06
-4.63115e-08
6.38606e-06
-4.42384e-08
6.38854e-06
-4.23045e-08
6.39079e-06
-4.05148e-08
-3.88153e-08
6.39284e-06
5.62886e-06
-3.99967e-08
5.64273e-06
-6.7872e-08
5.65443e-06
-6.9686e-08
5.66513e-06
-7.05473e-08
5.67474e-06
-7.09788e-08
5.68316e-06
-6.99011e-08
5.69049e-06
-6.78163e-08
5.69687e-06
-6.53487e-08
5.70239e-06
-6.26876e-08
5.70708e-06
-5.98465e-08
5.71098e-06
-5.68856e-08
5.71413e-06
-5.38948e-08
5.71659e-06
-5.09538e-08
5.71842e-06
-4.81401e-08
5.71969e-06
-4.55104e-08
5.72052e-06
-4.31266e-08
5.721e-06
-4.09953e-08
-3.92455e-08
5.72143e-06
5.0487e-06
-8.64052e-08
5.07729e-06
-9.65378e-08
5.09809e-06
-9.0501e-08
5.11242e-06
-8.4892e-08
5.12133e-06
-7.9906e-08
5.12581e-06
-7.43894e-08
5.12675e-06
-6.8756e-08
5.12482e-06
-6.3435e-08
5.12056e-06
-5.84315e-08
5.11438e-06
-5.36633e-08
5.10664e-06
-4.91392e-08
5.09764e-06
-4.48998e-08
5.08767e-06
-4.09803e-08
5.07696e-06
-3.74248e-08
5.06579e-06
-3.43393e-08
5.05449e-06
-3.18184e-08
5.0433e-06
-2.98019e-08
-2.86126e-08
5.03266e-06
4.37014e-06
4.2736e-06
4.1831e-06
4.0982e-06
4.0183e-06
3.94391e-06
3.87515e-06
3.81171e-06
3.75328e-06
3.69962e-06
3.65048e-06
3.60558e-06
3.5646e-06
3.52718e-06
3.49284e-06
3.46102e-06
3.43122e-06
3.40261e-06
-1.03529e-08
1.03474e-08
-2.78722e-08
1.75083e-08
-4.74453e-08
1.95667e-08
-6.57108e-08
1.82568e-08
-7.7486e-08
1.17737e-08
-7.49076e-08
-2.58973e-09
-5.32811e-08
-2.16207e-08
-1.42152e-08
-3.90802e-08
3.76769e-08
-5.18815e-08
9.71529e-08
-5.94868e-08
1.58664e-07
-6.14987e-08
2.17997e-07
-5.93381e-08
2.72445e-07
-5.44362e-08
3.20264e-07
-4.78195e-08
3.60508e-07
-4.02327e-08
3.92661e-07
-3.21507e-08
4.16482e-07
-2.38108e-08
4.31771e-07
-1.52857e-08
4.38257e-07
-6.47747e-09
4.35507e-07
2.75538e-09
4.23251e-07
1.22626e-08
4.01622e-07
2.16362e-08
3.71127e-07
3.05009e-08
3.32625e-07
3.85122e-08
2.87383e-07
4.5246e-08
2.3722e-07
5.01762e-08
1.84506e-07
5.27169e-08
1.32203e-07
5.23145e-08
8.36244e-08
4.85824e-08
4.20962e-08
4.15379e-08
1.01223e-08
3.19755e-08
-1.16256e-08
2.17553e-08
-2.50457e-08
1.34207e-08
-3.29744e-08
7.93185e-09
-3.80933e-08
5.11672e-09
-4.21875e-08
4.09638e-09
-4.49928e-08
2.7967e-09
-4.29453e-08
-2.035e-09
-3.20012e-08
-1.09616e-08
-9.67097e-09
-2.23092e-08
2.34316e-08
-3.31216e-08
6.29474e-08
-3.95071e-08
1.01915e-07
-3.89802e-08
1.34478e-07
-3.25745e-08
1.5722e-07
-2.27475e-08
1.69133e-07
-1.19353e-08
1.70979e-07
-1.85128e-09
1.65921e-07
5.04281e-09
1.59012e-07
6.9098e-09
1.53661e-07
5.35055e-09
1.54498e-07
-8.32163e-10
1.66901e-07
-1.23953e-08
1.78233e-07
-1.13276e-08
1.69942e-07
8.30608e-09
1.30895e-07
3.90462e-08
5.23336e-08
7.85855e-08
-6.8238e-08
1.20566e-07
-2.22033e-07
1.538e-07
-3.97351e-07
1.75316e-07
-5.84677e-07
1.87314e-07
-7.75654e-07
1.90979e-07
-9.63306e-07
1.87636e-07
-1.14218e-06
1.78879e-07
-1.30876e-06
1.66568e-07
-1.46116e-06
1.52407e-07
-1.59884e-06
1.37667e-07
-1.72217e-06
1.23337e-07
-1.83218e-06
1.10001e-07
-1.93014e-06
9.79645e-08
-2.01748e-06
8.7341e-08
-2.09559e-06
7.81144e-08
-2.16577e-06
7.0178e-08
-2.22915e-06
6.33898e-08
-2.28674e-06
5.75843e-08
-2.33934e-06
5.26085e-08
-2.38764e-06
4.83141e-08
-2.43222e-06
4.45794e-08
-2.47351e-06
4.12986e-08
-2.51188e-06
3.83841e-08
-2.54764e-06
3.5764e-08
-2.58101e-06
3.33794e-08
-2.61219e-06
3.11858e-08
-2.64133e-06
2.91437e-08
-2.66855e-06
2.72266e-08
-2.69396e-06
2.54071e-08
-2.71762e-06
2.36699e-08
-2.73961e-06
2.19949e-08
-2.75998e-06
2.03724e-08
-2.77876e-06
1.87866e-08
-2.796e-06
1.72285e-08
-2.81168e-06
1.56857e-08
-2.82582e-06
1.41499e-08
-2.83841e-06
1.26088e-08
-2.84945e-06
1.10522e-08
-2.85891e-06
9.4677e-09
-2.86675e-06
7.84437e-09
-2.87292e-06
6.17081e-09
-2.87736e-06
4.43272e-09
-2.87999e-06
2.62748e-09
-2.8808e-06
8.06814e-10
-2.87993e-06
-8.70382e-10
-2.87761e-06
-2.32704e-09
-2.87395e-06
-3.66624e-09
-2.86898e-06
-4.97928e-09
-2.86269e-06
-6.28286e-09
-2.85511e-06
-7.58735e-09
-2.84622e-06
-8.89114e-09
-2.83602e-06
-1.01966e-08
-2.82452e-06
-1.15002e-08
-2.81171e-06
-1.2803e-08
-2.7976e-06
-1.41019e-08
-2.7822e-06
-1.5397e-08
-2.76551e-06
-1.66857e-08
-2.74753e-06
-1.79677e-08
-2.72828e-06
-1.92406e-08
-2.70777e-06
-2.05038e-08
-2.686e-06
-2.17554e-08
-2.663e-06
-2.29942e-08
-2.63877e-06
-2.42191e-08
-2.61333e-06
-2.54282e-08
-2.5867e-06
-2.66209e-08
-2.5589e-06
-2.77949e-08
-2.52994e-06
-2.89495e-08
-2.49985e-06
-3.00817e-08
-2.46865e-06
-3.11895e-08
-2.43638e-06
-3.22676e-08
-2.40307e-06
-3.33084e-08
-2.36875e-06
-3.43088e-08
-2.33348e-06
-3.52648e-08
-2.29732e-06
-3.61599e-08
-2.26022e-06
-3.71025e-08
-2.22213e-06
-3.80882e-08
-2.18312e-06
-3.90063e-08
-2.14325e-06
-3.98753e-08
-2.10253e-06
-4.07103e-08
-2.06102e-06
-4.1514e-08
-2.01873e-06
-4.22849e-08
-1.97571e-06
-4.30213e-08
-1.93199e-06
-4.3724e-08
-1.88759e-06
-4.43934e-08
-1.84256e-06
-4.50295e-08
-1.79693e-06
-4.56326e-08
-1.75073e-06
-4.62032e-08
-1.70398e-06
-4.67416e-08
-1.65674e-06
-4.7249e-08
-1.60901e-06
-4.77253e-08
-1.56084e-06
-4.81751e-08
-1.51225e-06
-4.85889e-08
-1.46327e-06
-4.89809e-08
-1.41393e-06
-4.93347e-08
-1.36427e-06
-4.96634e-08
-1.31432e-06
-4.9953e-08
-1.2641e-06
-5.02169e-08
-1.21365e-06
-5.0443e-08
-1.163e-06
-5.06496e-08
-1.11218e-06
-5.08264e-08
-1.06118e-06
-5.09938e-08
-1.01004e-06
-5.11411e-08
-9.58751e-07
-5.12863e-08
-9.07324e-07
-5.14259e-08
-8.55762e-07
-5.15601e-08
-8.04064e-07
-5.16966e-08
-7.52237e-07
-5.18251e-08
-7.00285e-07
-5.19497e-08
-6.48212e-07
-5.20706e-08
-5.96019e-07
-5.21918e-08
-5.43699e-07
-5.23177e-08
-4.91244e-07
-5.24525e-08
-4.38645e-07
-5.25976e-08
-3.85894e-07
-5.27491e-08
-3.32996e-07
-5.2896e-08
-2.79979e-07
-5.3015e-08
-2.26906e-07
-5.30719e-08
-1.73893e-07
-5.30108e-08
-1.21154e-07
-5.27375e-08
-6.91269e-08
-5.20256e-08
-1.84374e-08
-5.06884e-08
2.9235e-08
-4.7671e-08
7.37211e-08
-4.44851e-08
-2.07448e-08
9.44675e-08
-4.03003e-09
1.43673e-08
-1.19589e-08
2.54203e-08
-1.75597e-08
2.51551e-08
-1.35698e-08
1.42511e-08
7.69117e-09
-9.49209e-09
4.63697e-08
-4.12793e-08
9.86657e-08
-7.39142e-08
1.5892e-07
-9.93404e-08
2.21189e-07
-1.14147e-07
2.8066e-07
-1.18961e-07
3.35036e-07
-1.15869e-07
3.83107e-07
-1.07411e-07
4.24511e-07
-9.58341e-08
4.59353e-07
-8.26608e-08
4.87956e-07
-6.88289e-08
5.10685e-07
-5.48773e-08
5.27948e-07
-4.10674e-08
5.40167e-07
-2.75005e-08
5.4788e-07
-1.41842e-08
5.5168e-07
-1.04007e-09
5.51806e-07
1.21425e-08
5.47886e-07
2.55626e-08
5.39184e-07
3.92075e-08
5.24811e-07
5.2893e-08
5.03855e-07
6.62072e-08
4.75555e-07
7.84832e-08
4.3948e-07
8.87958e-08
3.95762e-07
9.60393e-08
3.45217e-07
9.91301e-08
2.89466e-07
9.72956e-08
2.31022e-07
9.04223e-08
1.73497e-07
7.92877e-08
1.21707e-07
6.52096e-08
8.01114e-08
4.95356e-08
5.15989e-08
3.36167e-08
3.74279e-08
1.82792e-08
3.75554e-08
2.64397e-09
4.99423e-08
-1.44055e-08
7.26822e-08
-3.37205e-08
1.04177e-07
-5.3792e-08
1.39324e-07
-6.82789e-08
1.71078e-07
-7.126e-08
1.94949e-07
-6.28573e-08
2.08999e-07
-4.66327e-08
2.13368e-07
-2.71224e-08
2.09702e-07
-8.28547e-09
1.99427e-07
8.41694e-09
1.85561e-07
1.88957e-08
1.72258e-07
2.02135e-08
1.48665e-07
2.89402e-08
9.61053e-08
5.17395e-08
-6.21256e-09
8.99318e-08
-1.61796e-07
1.44267e-07
-3.53245e-07
1.99763e-07
-5.62275e-07
2.4808e-07
-7.74305e-07
2.90619e-07
-9.79467e-07
3.25729e-07
-1.17401e-06
3.48346e-07
-1.35485e-06
3.56156e-07
-1.51845e-06
3.50903e-07
-1.66284e-06
3.35372e-07
-1.78786e-06
3.12645e-07
-1.89475e-06
2.85771e-07
-1.98561e-06
2.57418e-07
-2.06286e-06
2.29657e-07
-2.12901e-06
2.03818e-07
-2.18629e-06
1.80614e-07
-2.23657e-06
1.60279e-07
-2.28134e-06
1.42746e-07
-2.32178e-06
1.2778e-07
-2.35873e-06
1.15065e-07
-2.39282e-06
1.04263e-07
-2.42448e-06
9.50546e-08
-2.45404e-06
8.71483e-08
-2.48173e-06
8.03021e-08
-2.50772e-06
7.43094e-08
-2.53213e-06
6.90024e-08
-2.55507e-06
6.42422e-08
-2.5766e-06
5.99188e-08
-2.59677e-06
5.59455e-08
-2.61564e-06
5.22526e-08
-2.63324e-06
4.87857e-08
-2.64959e-06
4.55e-08
-2.66472e-06
4.23614e-08
-2.67865e-06
3.93404e-08
-2.69139e-06
3.64151e-08
-2.70296e-06
3.35649e-08
-2.71336e-06
3.07743e-08
-2.7226e-06
2.80286e-08
-2.73069e-06
2.5314e-08
-2.73762e-06
2.26204e-08
-2.7434e-06
1.99384e-08
-2.74804e-06
1.72588e-08
-2.75155e-06
1.45756e-08
-2.75396e-06
1.18837e-08
-2.7553e-06
9.18304e-09
-2.75561e-06
6.47616e-09
-2.75495e-06
3.77436e-09
-2.75343e-06
1.10309e-09
-2.75112e-06
-1.50482e-09
-2.74793e-06
-4.06203e-09
-2.74365e-06
-6.61795e-09
-2.73813e-06
-9.18619e-09
-2.73135e-06
-1.17584e-08
-2.72331e-06
-1.43339e-08
-2.71398e-06
-1.69141e-08
-2.70337e-06
-1.94972e-08
-2.69149e-06
-2.20822e-08
-2.67832e-06
-2.4666e-08
-2.66387e-06
-2.7247e-08
-2.64815e-06
-2.98216e-08
-2.63115e-06
-3.23879e-08
-2.61289e-06
-3.49425e-08
-2.59337e-06
-3.74831e-08
-2.5726e-06
-4.00062e-08
-2.55058e-06
-4.25095e-08
-2.52734e-06
-4.49899e-08
-2.50288e-06
-4.74449e-08
-2.47722e-06
-4.98714e-08
-2.45038e-06
-5.22669e-08
-2.42236e-06
-5.46287e-08
-2.3932e-06
-5.69535e-08
-2.3629e-06
-5.92388e-08
-2.3315e-06
-6.14809e-08
-2.29901e-06
-6.36765e-08
-2.26545e-06
-6.58213e-08
-2.23084e-06
-6.79118e-08
-2.1952e-06
-6.99463e-08
-2.15854e-06
-7.19222e-08
-2.12086e-06
-7.38397e-08
-2.08222e-06
-7.57398e-08
-2.0427e-06
-7.76136e-08
-2.00229e-06
-7.94135e-08
-1.96102e-06
-8.11393e-08
-1.91893e-06
-8.28011e-08
-1.87604e-06
-8.4401e-08
-1.83239e-06
-8.59352e-08
-1.78801e-06
-8.74015e-08
-1.74293e-06
-8.8801e-08
-1.69719e-06
-9.01341e-08
-1.65082e-06
-9.14007e-08
-1.60385e-06
-9.26012e-08
-1.55632e-06
-9.37364e-08
-1.50825e-06
-9.48073e-08
-1.45969e-06
-9.58154e-08
-1.41065e-06
-9.67613e-08
-1.36118e-06
-9.76506e-08
-1.31129e-06
-9.84754e-08
-1.26102e-06
-9.92485e-08
-1.2104e-06
-9.99574e-08
-1.15945e-06
-1.00608e-07
-1.10821e-06
-1.01192e-07
-1.05672e-06
-1.01714e-07
-1.00499e-06
-1.02172e-07
-9.53056e-07
-1.0258e-07
-9.00942e-07
-1.02939e-07
-8.48669e-07
-1.03266e-07
-7.96245e-07
-1.03564e-07
-7.43683e-07
-1.03848e-07
-6.90983e-07
-1.04125e-07
-6.3815e-07
-1.04392e-07
-5.85186e-07
-1.04659e-07
-5.32095e-07
-1.04915e-07
-4.7888e-07
-1.05164e-07
-4.25543e-07
-1.05406e-07
-3.72085e-07
-1.05649e-07
-3.185e-07
-1.05901e-07
-2.6478e-07
-1.06171e-07
-2.10915e-07
-1.06461e-07
-1.56898e-07
-1.06765e-07
-1.0273e-07
-1.07063e-07
-4.84301e-08
-1.07314e-07
5.94891e-09
-1.0745e-07
6.03196e-08
-1.07381e-07
1.14517e-07
-1.06935e-07
1.6827e-07
-1.05777e-07
2.21037e-07
-1.03455e-07
2.72407e-07
-9.90408e-08
3.18868e-07
-9.09464e-08
-6.5518e-08
3.63642e-07
1.30453e-09
1.30538e-08
4.54855e-09
2.2161e-08
1.68951e-08
1.27971e-08
4.88559e-08
-1.77193e-08
1.02175e-07
-6.28138e-08
1.68965e-07
-1.08074e-07
2.36976e-07
-1.41924e-07
2.98052e-07
-1.6042e-07
3.49041e-07
-1.65134e-07
3.89924e-07
-1.59846e-07
4.22323e-07
-1.48265e-07
4.4809e-07
-1.33178e-07
4.68701e-07
-1.16441e-07
4.85187e-07
-9.91464e-08
4.98239e-07
-8.18762e-08
5.08281e-07
-6.49161e-08
5.15603e-07
-4.83847e-08
5.20415e-07
-3.23095e-08
5.22915e-07
-1.66787e-08
5.23335e-07
-1.45529e-09
5.2204e-07
1.34429e-08
5.19443e-07
2.81655e-08
5.1581e-07
4.28455e-08
5.11152e-07
5.75568e-08
5.05116e-07
7.22473e-08
4.9693e-07
8.66749e-08
4.85384e-07
1.00346e-07
4.68973e-07
1.12456e-07
4.46209e-07
1.21897e-07
4.16124e-07
1.27385e-07
3.78853e-07
1.27696e-07
3.36159e-07
1.21985e-07
2.91388e-07
1.09982e-07
2.48822e-07
9.21042e-08
2.12979e-07
6.94573e-08
1.87863e-07
4.33964e-08
1.75556e-07
1.4947e-08
1.7584e-07
-1.46852e-08
1.86768e-07
-4.46524e-08
2.01606e-07
-6.86244e-08
2.11476e-07
-7.81494e-08
2.11337e-07
-7.112e-08
2.00959e-07
-5.24803e-08
1.81518e-07
-2.71977e-08
1.54601e-07
-2.09403e-10
1.21861e-07
2.44415e-08
7.85393e-08
5.17349e-08
1.19273e-08
8.5495e-08
-9.35937e-08
1.25734e-07
-2.42928e-07
1.78274e-07
-4.28831e-07
2.37645e-07
-6.35992e-07
2.97096e-07
-8.44204e-07
3.52482e-07
-1.04296e-06
3.98519e-07
-1.22669e-06
4.31813e-07
-1.38866e-06
4.52595e-07
-1.52385e-06
4.60914e-07
-1.63256e-06
4.57057e-07
-1.71869e-06
4.42287e-07
-1.78676e-06
4.18967e-07
-1.84132e-06
3.89937e-07
-1.88659e-06
3.57911e-07
-1.926e-06
3.2517e-07
-1.96202e-06
2.93435e-07
-1.9962e-06
2.63841e-07
-2.0294e-06
2.37012e-07
-2.06196e-06
2.13175e-07
-2.09396e-06
1.9228e-07
-2.12533e-06
1.74116e-07
-2.15594e-06
1.58389e-07
-2.18566e-06
1.44781e-07
-2.21436e-06
1.32972e-07
-2.24197e-06
1.22668e-07
-2.26843e-06
1.13611e-07
-2.29371e-06
1.0558e-07
-2.31778e-06
9.83842e-08
-2.34064e-06
9.18693e-08
-2.3623e-06
8.59056e-08
-2.38276e-06
8.03882e-08
-2.40205e-06
7.52331e-08
-2.42016e-06
7.0372e-08
-2.43712e-06
6.57503e-08
-2.45294e-06
6.13232e-08
-2.46763e-06
5.7055e-08
-2.48121e-06
5.29157e-08
-2.49367e-06
4.88812e-08
-2.50503e-06
4.49305e-08
-2.5153e-06
4.10462e-08
-2.52449e-06
3.72123e-08
-2.53259e-06
3.34151e-08
-2.53961e-06
2.96429e-08
-2.54555e-06
2.58858e-08
-2.55042e-06
2.2137e-08
-2.55423e-06
1.83898e-08
-2.55699e-06
1.46416e-08
-2.55869e-06
1.08927e-08
-2.55937e-06
7.14585e-09
-2.559e-06
3.40818e-09
-2.55759e-06
-3.12511e-10
-2.55508e-06
-4.01632e-09
-2.55142e-06
-7.72675e-09
-2.54658e-06
-1.14671e-08
-2.54053e-06
-1.52377e-08
-2.53326e-06
-1.90274e-08
-2.52477e-06
-2.2832e-08
-2.51503e-06
-2.6647e-08
-2.50406e-06
-3.04696e-08
-2.49185e-06
-3.42955e-08
-2.47839e-06
-3.81215e-08
-2.46369e-06
-4.19432e-08
-2.44775e-06
-4.57568e-08
-2.43058e-06
-4.9558e-08
-2.41217e-06
-5.33427e-08
-2.39255e-06
-5.71066e-08
-2.3717e-06
-6.08455e-08
-2.34965e-06
-6.45551e-08
-2.3264e-06
-6.82312e-08
-2.30197e-06
-7.18696e-08
-2.27637e-06
-7.54663e-08
-2.24962e-06
-7.90174e-08
-2.22172e-06
-8.25186e-08
-2.19271e-06
-8.59658e-08
-2.16259e-06
-8.93547e-08
-2.13138e-06
-9.26811e-08
-2.09911e-06
-9.59404e-08
-2.0658e-06
-9.91286e-08
-2.03147e-06
-1.02242e-07
-1.99613e-06
-1.0528e-07
-1.95981e-06
-1.0824e-07
-1.92253e-06
-1.11123e-07
-1.88433e-06
-1.13943e-07
-1.84525e-06
-1.16695e-07
-1.8053e-06
-1.19353e-07
-1.76453e-06
-1.21914e-07
-1.72295e-06
-1.24382e-07
-1.68059e-06
-1.26759e-07
-1.63749e-06
-1.29039e-07
-1.59367e-06
-1.31221e-07
-1.54916e-06
-1.33303e-07
-1.50401e-06
-1.35286e-07
-1.45824e-06
-1.37171e-07
-1.41189e-06
-1.38956e-07
-1.36498e-06
-1.40645e-07
-1.31755e-06
-1.42237e-07
-1.26963e-06
-1.43734e-07
-1.22125e-06
-1.45139e-07
-1.17245e-06
-1.46456e-07
-1.12324e-06
-1.47682e-07
-1.07366e-06
-1.48827e-07
-1.02374e-06
-1.49885e-07
-9.73491e-07
-1.50852e-07
-9.22957e-07
-1.51726e-07
-8.72166e-07
-1.52505e-07
-8.21144e-07
-1.53194e-07
-7.69921e-07
-1.53802e-07
-7.18516e-07
-1.54343e-07
-6.66952e-07
-1.5483e-07
-6.15238e-07
-1.55279e-07
-5.63386e-07
-1.55699e-07
-5.11399e-07
-1.56111e-07
-4.59281e-07
-1.56509e-07
-4.07034e-07
-1.56906e-07
-3.5466e-07
-1.57289e-07
-3.02163e-07
-1.5766e-07
-2.49544e-07
-1.58025e-07
-1.96801e-07
-1.58391e-07
-1.4393e-07
-1.58772e-07
-9.09225e-08
-1.59178e-07
-3.77671e-08
-1.59616e-07
1.55447e-08
-1.60077e-07
6.90131e-08
-1.60531e-07
1.22625e-07
-1.60926e-07
1.7635e-07
-1.61175e-07
2.30115e-07
-1.61144e-07
2.83792e-07
-1.60612e-07
3.37206e-07
-1.59191e-07
3.90051e-07
-1.56299e-07
4.41958e-07
-1.50948e-07
4.91955e-07
-1.40942e-07
-1.16994e-07
5.43431e-07
-8.22927e-10
1.38686e-08
9.46196e-09
1.1862e-08
4.75987e-08
-2.53473e-08
1.14952e-07
-8.50785e-08
1.94112e-07
-1.41975e-07
2.66698e-07
-1.80664e-07
3.23371e-07
-1.98596e-07
3.63252e-07
-2.00304e-07
3.89836e-07
-1.91717e-07
4.07474e-07
-1.77486e-07
4.19699e-07
-1.60487e-07
4.2879e-07
-1.4227e-07
4.35982e-07
-1.2363e-07
4.41815e-07
-1.04978e-07
4.46474e-07
-8.6531e-08
4.49968e-07
-6.84085e-08
4.52269e-07
-5.06802e-08
4.53347e-07
-3.33836e-08
4.53212e-07
-1.65384e-08
4.51913e-07
-1.51657e-10
4.49568e-07
1.57938e-08
4.464e-07
3.13389e-08
4.42721e-07
4.653e-08
4.38866e-07
6.14174e-08
4.35105e-07
7.60136e-08
4.31534e-07
9.02512e-08
4.27938e-07
1.03946e-07
4.23674e-07
1.16725e-07
4.17633e-07
1.27941e-07
4.08431e-07
1.36592e-07
3.94792e-07
1.41338e-07
3.76097e-07
1.40686e-07
3.5278e-07
1.33301e-07
3.26562e-07
1.18325e-07
3.00223e-07
9.57962e-08
2.76995e-07
6.66283e-08
2.5936e-07
3.25804e-08
2.47948e-07
-3.26521e-09
2.38145e-07
-3.48491e-08
2.21868e-07
-5.23414e-08
1.94323e-07
-5.06032e-08
1.55629e-07
-3.24247e-08
1.07103e-07
-3.95678e-09
4.77367e-08
3.2162e-08
-2.83653e-08
7.58867e-08
-1.29681e-07
1.25748e-07
-2.59749e-07
1.81799e-07
-4.17678e-07
2.4342e-07
-5.99314e-07
3.07369e-07
-7.90905e-07
3.69865e-07
-9.79147e-07
4.25888e-07
-1.15351e-06
4.71464e-07
-1.30527e-06
5.04238e-07
-1.43051e-06
5.23757e-07
-1.52977e-06
5.31076e-07
-1.60472e-06
5.27546e-07
-1.6586e-06
5.14795e-07
-1.69616e-06
4.94612e-07
-1.72271e-06
4.68836e-07
-1.74309e-06
4.39353e-07
-1.76107e-06
4.07913e-07
-1.77918e-06
3.76016e-07
-1.79885e-06
3.44838e-07
-1.82065e-06
3.15236e-07
-1.84457e-06
2.87759e-07
-1.87025e-06
2.62692e-07
-1.8972e-06
2.40118e-07
-1.92489e-06
2.19972e-07
-1.95286e-06
2.02091e-07
-1.98073e-06
1.86259e-07
-2.00819e-06
1.72237e-07
-2.035e-06
1.59781e-07
-2.06099e-06
1.48663e-07
-2.08605e-06
1.38675e-07
-2.1101e-06
1.29633e-07
-2.13309e-06
1.21377e-07
-2.15499e-06
1.13771e-07
-2.17578e-06
1.067e-07
-2.19545e-06
1.0007e-07
-2.21402e-06
9.3803e-08
-2.23148e-06
8.78344e-08
-2.24784e-06
8.21118e-08
-2.26311e-06
7.65918e-08
-2.27729e-06
7.12389e-08
-2.29039e-06
6.60231e-08
-2.30243e-06
6.09197e-08
-2.3134e-06
5.59071e-08
-2.32332e-06
5.09666e-08
-2.33219e-06
4.60815e-08
-2.34001e-06
4.12355e-08
-2.34679e-06
3.64171e-08
-2.35251e-06
3.16146e-08
-2.35719e-06
2.68198e-08
-2.36082e-06
2.20252e-08
-2.3634e-06
1.72265e-08
-2.36493e-06
1.24215e-08
-2.3654e-06
7.61007e-09
-2.36479e-06
2.79314e-09
-2.36307e-06
-2.02996e-09
-2.36023e-06
-6.86598e-09
-2.35623e-06
-1.17307e-08
-2.35106e-06
-1.66344e-08
-2.34473e-06
-2.15758e-08
-2.33721e-06
-2.65457e-08
-2.32851e-06
-3.15387e-08
-2.31861e-06
-3.65479e-08
-2.30751e-06
-4.15692e-08
-2.29521e-06
-4.6596e-08
-2.2817e-06
-5.16242e-08
-2.267e-06
-5.66472e-08