/*--------------------------------*- C++ -*----------------------------------*\
  =========                 |
  \\      /  F ield         | OpenFOAM: The Open Source CFD Toolbox
   \\    /   O peration     | Website:  https://openfoam.org
    \\  /    A nd           | Version:  8
     \\/     M anipulation  |
\*---------------------------------------------------------------------------*/
FoamFile
{
    version     2.0;
    format      ascii;
    class       volVectorField;
    location    "900";
    object      U;
}
// * * * * * * * * * * * * * * * * * * * * * * * * * * * * * * * * * * * * * //

dimensions      [0 1 -1 0 0 0 0];

internalField   nonuniform List<vector> 
12225
(
(9.79127 0.0495239 0)
(9.34851 0.101824 0)
(8.91263 0.105188 0)
(8.53031 0.0889469 0)
(8.18985 0.0761718 0)
(7.89317 0.0626169 0)
(7.64774 0.0482675 0)
(7.44653 0.0394519 0)
(7.27287 0.0346176 0)
(7.12605 0.0252629 0)
(7.00262 0.0293878 0)
(6.90634 0.0335811 0)
(6.83102 0.0223453 0)
(6.76967 0.0183555 0)
(6.71113 0.0128319 0)
(6.67072 -0.0018544 0)
(6.63967 -0.0121613 0)
(6.62857 -0.012706 0)
(10.0636 0.0564456 0)
(10.2045 0.0859444 0)
(10.2703 0.084046 0)
(10.2837 0.0818576 0)
(10.2569 0.0808145 0)
(10.2164 0.0761577 0)
(10.154 0.0705988 0)
(10.0786 0.0650997 0)
(9.99667 0.059677 0)
(9.9113 0.0557887 0)
(9.82713 0.0485104 0)
(9.73149 0.0418061 0)
(9.63766 0.0396786 0)
(9.554 0.0374445 0)
(9.47494 0.0347178 0)
(9.40403 0.0320007 0)
(9.34123 0.0274271 0)
(9.28283 0.0200158 0)
(10.0202 0.043217 0)
(10.0798 0.0677654 0)
(10.1262 0.0721647 0)
(10.1604 0.0747657 0)
(10.1875 0.0778037 0)
(10.2103 0.0789575 0)
(10.2263 0.0777785 0)
(10.234 0.0756866 0)
(10.2358 0.0740659 0)
(10.2328 0.0715345 0)
(10.2261 0.0691291 0)
(10.216 0.0660294 0)
(10.2018 0.0615113 0)
(10.1853 0.0579862 0)
(10.1684 0.0542862 0)
(10.1498 0.0494626 0)
(10.1299 0.043754 0)
(10.1078 0.0372817 0)
(10.0086 0.0323041 0)
(10.0454 0.0578669 0)
(10.0762 0.0651814 0)
(10.0986 0.0687382 0)
(10.1167 0.0711276 0)
(10.1334 0.0711466 0)
(10.148 0.0696941 0)
(10.1602 0.068141 0)
(10.1704 0.067001 0)
(10.1793 0.0654662 0)
(10.1871 0.0638978 0)
(10.194 0.0619296 0)
(10.1995 0.0589781 0)
(10.2037 0.0560575 0)
(10.207 0.0527181 0)
(10.2092 0.0484506 0)
(10.2097 0.0436834 0)
(10.2084 0.038894 0)
(10.0047 0.0243498 0)
(10.0306 0.0502471 0)
(10.0557 0.0592575 0)
(10.0744 0.0631874 0)
(10.0894 0.0657048 0)
(10.1032 0.0663482 0)
(10.1155 0.0656146 0)
(10.1261 0.0644863 0)
(10.1354 0.0634232 0)
(10.1441 0.0620849 0)
(10.1523 0.0606354 0)
(10.1601 0.0588392 0)
(10.1673 0.0563963 0)
(10.1738 0.0537391 0)
(10.1796 0.0506451 0)
(10.1847 0.0469161 0)
(10.1886 0.0428048 0)
(10.1914 0.0386995 0)
(10.0031 0.0194104 0)
(10.0219 0.0433367 0)
(10.043 0.0529579 0)
(10.0598 0.0576019 0)
(10.0735 0.0605982 0)
(10.0862 0.0618437 0)
(10.0976 0.0616316 0)
(10.1075 0.0607802 0)
(10.1164 0.0597969 0)
(10.1246 0.0585505 0)
(10.1325 0.0570928 0)
(10.14 0.055282 0)
(10.1469 0.0530103 0)
(10.1534 0.0504479 0)
(10.1593 0.0475153 0)
(10.1645 0.0441526 0)
(10.1689 0.0405089 0)
(10.1724 0.0368617 0)
(10.0022 0.0156806 0)
(10.0161 0.0371547 0)
(10.0337 0.0469205 0)
(10.0488 0.0520232 0)
(10.0615 0.0553089 0)
(10.0734 0.0569333 0)
(10.0843 0.0571371 0)
(10.0939 0.0565959 0)
(10.1026 0.055777 0)
(10.1106 0.0546681 0)
(10.1183 0.0532742 0)
(10.1255 0.051525 0)
(10.1322 0.0493936 0)
(10.1384 0.0469608 0)
(10.1441 0.0442185 0)
(10.1492 0.0411712 0)
(10.1536 0.0379254 0)
(10.1574 0.0346717 0)
(10.0016 0.0129996 0)
(10.0126 0.032254 0)
(10.0275 0.0420144 0)
(10.0411 0.0473736 0)
(10.053 0.0508161 0)
(10.0642 0.0526876 0)
(10.0747 0.0531979 0)
(10.0842 0.0529041 0)
(10.0927 0.0522101 0)
(10.1007 0.05118 0)
(10.1082 0.049817 0)
(10.1152 0.0481099 0)
(10.1217 0.0460721 0)
(10.1278 0.0437615 0)
(10.1333 0.0411943 0)
(10.1383 0.0383986 0)
(10.1427 0.0354497 0)
(10.1465 0.0324896 0)
(10.0012 0.0109965 0)
(10.0101 0.0283415 0)
(10.023 0.0378441 0)
(10.0355 0.04328 0)
(10.0466 0.0467558 0)
(10.0572 0.0487275 0)
(10.0671 0.0494193 0)
(10.0763 0.0493002 0)
(10.0846 0.0487334 0)
(10.0924 0.0478116 0)
(10.0998 0.046547 0)
(10.1066 0.0449424 0)
(10.113 0.0430237 0)
(10.1189 0.0408393 0)
(10.1243 0.0384267 0)
(10.1292 0.035822 0)
(10.1336 0.0331008 0)
(10.1374 0.0303747 0)
(10.001 0.00921716 0)
(10.0081 0.0244854 0)
(10.019 0.0335007 0)
(10.0302 0.0389116 0)
(10.0406 0.0423741 0)
(10.0504 0.0444056 0)
(10.0598 0.0452446 0)
(10.0685 0.0452755 0)
(10.0766 0.044824 0)
(10.0841 0.0439986 0)
(10.0913 0.0428292 0)
(10.0979 0.0413297 0)
(10.1042 0.0395357 0)
(10.1099 0.0374989 0)
(10.1152 0.0352547 0)
(10.12 0.0328567 0)
(10.1243 0.0303639 0)
(10.1281 0.027875 0)
(10.0007 0.00762501 0)
(10.0064 0.0207242 0)
(10.0155 0.0290474 0)
(10.0255 0.0343009 0)
(10.035 0.0376825 0)
(10.0441 0.0397229 0)
(10.0528 0.0406659 0)
(10.0611 0.0408204 0)
(10.0688 0.0404648 0)
(10.0761 0.0397242 0)
(10.0829 0.0386411 0)
(10.0893 0.0372471 0)
(10.0953 0.0355868 0)
(10.1009 0.0337071 0)
(10.106 0.031649 0)
(10.1107 0.0294644 0)
(10.1148 0.0272065 0)
(10.1186 0.0249444 0)
(10.0006 0.00619677 0)
(10.005 0.0171371 0)
(10.0126 0.0245566 0)
(10.0213 0.0294834 0)
(10.0299 0.0326887 0)
(10.0383 0.0346642 0)
(10.0464 0.0356509 0)
(10.0541 0.0358933 0)
(10.0615 0.0356205 0)
(10.0684 0.0349575 0)
(10.0749 0.0339664 0)
(10.081 0.0326857 0)
(10.0868 0.0311717 0)
(10.0921 0.0294557 0)
(10.097 0.0275979 0)
(10.1015 0.0256263 0)
(10.1055 0.0236011 0)
(10.1093 0.0215674 0)
(10.0004 0.00491371 0)
(10.004 0.0137511 0)
(10.0101 0.0200868 0)
(10.0176 0.0244989 0)
(10.0254 0.0274158 0)
(10.033 0.0292338 0)
(10.0405 0.0301907 0)
(10.0477 0.0304731 0)
(10.0547 0.0302602 0)
(10.0612 0.0296733 0)
(10.0674 0.0287767 0)
(10.0732 0.0276258 0)
(10.0787 0.0262585 0)
(10.0838 0.024728 0)
(10.0885 0.0230636 0)
(10.0928 0.0213179 0)
(10.0967 0.0195171 0)
(10.1003 0.0177184 0)
(10.0003 0.00374985 0)
(10.0031 0.0105709 0)
(10.0082 0.0156799 0)
(10.0146 0.0193914 0)
(10.0215 0.0218844 0)
(10.0284 0.0234461 0)
(10.0353 0.0242862 0)
(10.042 0.0245466 0)
(10.0485 0.0243622 0)
(10.0547 0.0238385 0)
(10.0606 0.0230384 0)
(10.0661 0.022017 0)
(10.0713 0.0208096 0)
(10.0761 0.0194623 0)
(10.0806 0.0180048 0)
(10.0847 0.016481 0)
(10.0885 0.0149143 0)
(10.0919 0.0133481 0)
(10.0003 0.0026772 0)
(10.0025 0.00756341 0)
(10.0067 0.0113424 0)
(10.0122 0.0141789 0)
(10.0182 0.016108 0)
(10.0245 0.017306 0)
(10.0308 0.0179363 0)
(10.0371 0.0181037 0)
(10.0431 0.0179064 0)
(10.049 0.0174195 0)
(10.0545 0.0167083 0)
(10.0598 0.0158075 0)
(10.0647 0.0147633 0)
(10.0693 0.0135977 0)
(10.0736 0.012355 0)
(10.0775 0.011053 0)
(10.0812 0.00972749 0)
(10.0845 0.00839921 0)
(10.0002 0.0016621 0)
(10.0021 0.00466611 0)
(10.0056 0.00703203 0)
(10.0104 0.00884186 0)
(10.0158 0.0100671 0)
(10.0215 0.010785 0)
(10.0273 0.0111114 0)
(10.0331 0.0111105 0)
(10.0388 0.0108438 0)
(10.0443 0.0103649 0)
(10.0495 0.00971668 0)
(10.0545 0.00893187 0)
(10.0592 0.00803837 0)
(10.0636 0.00706199 0)
(10.0677 0.00602757 0)
(10.0716 0.00495637 0)
(10.0751 0.0038678 0)
(10.0783 0.00278735 0)
(10.0002 0.000662912 0)
(10.0018 0.00178251 0)
(10.0049 0.00264564 0)
(10.0092 0.00329864 0)
(10.0141 0.0036786 0)
(10.0194 0.00380372 0)
(10.0249 0.00372734 0)
(10.0303 0.00347867 0)
(10.0357 0.0030867 0)
(10.041 0.00257496 0)
(10.046 0.00196855 0)
(10.0508 0.00128195 0)
(10.0553 0.000535356 0)
(10.0595 -0.000259759 0)
(10.0635 -0.0010846 0)
(10.0672 -0.00192942 0)
(10.0706 -0.00277864 0)
(10.0738 -0.00361522 0)
(10.0002 -0.000318865 0)
(10.0017 -0.00106714 0)
(10.0047 -0.00173025 0)
(10.0088 -0.00229106 0)
(10.0136 -0.00281436 0)
(10.0187 -0.00334209 0)
(10.024 -0.00387077 0)
(10.0293 -0.0044075 0)
(10.0346 -0.00495767 0)
(10.0397 -0.00552186 0)
(10.0446 -0.00610524 0)
(10.0492 -0.00670237 0)
(10.0536 -0.00731689 0)
(10.0578 -0.00793872 0)
(10.0617 -0.00857013 0)
(10.0653 -0.00919851 0)
(10.0687 -0.0098265 0)
(10.0718 -0.0104319 0)
(10.0002 -0.00125352 0)
(10.0018 -0.00377418 0)
(10.0049 -0.0058952 0)
(10.0092 -0.00759518 0)
(10.0141 -0.008967 0)
(10.0194 -0.0101025 0)
(10.0247 -0.0110498 0)
(10.0301 -0.011848 0)
(10.0354 -0.0125351 0)
(10.0405 -0.0131405 0)
(10.0454 -0.0136913 0)
(10.0501 -0.0142023 0)
(10.0545 -0.0146879 0)
(10.0586 -0.0151536 0)
(10.0624 -0.0156061 0)
(10.0661 -0.0160456 0)
(10.0694 -0.0164743 0)
(10.0726 -0.0168821 0)
(10.0002 -0.00217081 0)
(10.0021 -0.00641502 0)
(10.0056 -0.009907 0)
(10.0103 -0.0126209 0)
(10.0156 -0.0147192 0)
(10.0212 -0.0163637 0)
(10.0268 -0.0176479 0)
(10.0324 -0.0186415 0)
(10.0378 -0.0194117 0)
(10.0431 -0.0200213 0)
(10.048 -0.0205138 0)
(10.0528 -0.0209268 0)
(10.0572 -0.0212792 0)
(10.0614 -0.0215954 0)
(10.0652 -0.0218814 0)
(10.0689 -0.0221516 0)
(10.0723 -0.0224044 0)
(10.0754 -0.0226408 0)
(10.0003 -0.00314402 0)
(10.0025 -0.00917039 0)
(10.0067 -0.0139745 0)
(10.0121 -0.0175706 0)
(10.018 -0.0202686 0)
(10.024 -0.0223228 0)
(10.03 -0.0238568 0)
(10.0359 -0.0249697 0)
(10.0416 -0.0257648 0)
(10.047 -0.0263308 0)
(10.0522 -0.0267366 0)
(10.057 -0.0270249 0)
(10.0615 -0.0272381 0)
(10.0658 -0.0273959 0)
(10.0697 -0.0275261 0)
(10.0734 -0.0276304 0)
(10.0768 -0.0277285 0)
(10.08 -0.0278053 0)
(10.0003 -0.00423867 0)
(10.0032 -0.0121908 0)
(10.0084 -0.0182368 0)
(10.0147 -0.022558 0)
(10.0213 -0.0257256 0)
(10.0278 -0.028089 0)
(10.0343 -0.0297844 0)
(10.0406 -0.0309396 0)
(10.0467 -0.0316987 0)
(10.0523 -0.0321799 0)
(10.0577 -0.0324627 0)
(10.0627 -0.0326081 0)
(10.0673 -0.0326614 0)
(10.0716 -0.0326599 0)
(10.0756 -0.0326256 0)
(10.0794 -0.0325777 0)
(10.0828 -0.0325219 0)
(10.0861 -0.0324627 0)
(10.0005 -0.00554249 0)
(10.0043 -0.0156029 0)
(10.0108 -0.0227588 0)
(10.0182 -0.0276157 0)
(10.0256 -0.031138 0)
(10.0327 -0.0337217 0)
(10.0398 -0.0354875 0)
(10.0466 -0.0366089 0)
(10.053 -0.0372786 0)
(10.059 -0.0376348 0)
(10.0646 -0.0377685 0)
(10.0697 -0.0377501 0)
(10.0745 -0.0376343 0)
(10.079 -0.0374654 0)
(10.0831 -0.0372697 0)
(10.0869 -0.0370692 0)
(10.0905 -0.0368714 0)
(10.0937 -0.0366783 0)
(10.0007 -0.00715694 0)
(10.0059 -0.0195705 0)
(10.0141 -0.0275813 0)
(10.0228 -0.0327376 0)
(10.031 -0.036509 0)
(10.0389 -0.0392425 0)
(10.0466 -0.041007 0)
(10.054 -0.0420335 0)
(10.0609 -0.0425684 0)
(10.0672 -0.0427651 0)
(10.0731 -0.0427222 0)
(10.0785 -0.0425202 0)
(10.0836 -0.0422234 0)
(10.0882 -0.0418802 0)
(10.0924 -0.0415249 0)
(10.0964 -0.041177 0)
(10.1 -0.0408496 0)
(10.1034 -0.040535 0)
(10.001 -0.00921241 0)
(10.0083 -0.0242312 0)
(10.0188 -0.0327457 0)
(10.0289 -0.0379688 0)
(10.038 -0.0418776 0)
(10.0468 -0.0446708 0)
(10.0554 -0.04637 0)
(10.0635 -0.0472699 0)
(10.0709 -0.0476466 0)
(10.0778 -0.0476608 0)
(10.0841 -0.0474171 0)
(10.0899 -0.047008 0)
(10.0952 -0.0465061 0)
(10.1001 -0.0459688 0)
(10.1045 -0.0454348 0)
(10.1086 -0.0449295 0)
(10.1124 -0.0444605 0)
(10.1159 -0.0440213 0)
(10.0015 -0.0119643 0)
(10.0119 -0.0295308 0)
(10.0255 -0.038231 0)
(10.0374 -0.0435037 0)
(10.0478 -0.0474638 0)
(10.058 -0.0501275 0)
(10.0678 -0.0516069 0)
(10.077 -0.052292 0)
(10.0853 -0.0524762 0)
(10.093 -0.0522967 0)
(10.1 -0.0518614 0)
(10.1064 -0.0512653 0)
(10.1122 -0.0505847 0)
(10.1174 -0.0498793 0)
(10.1222 -0.0491966 0)
(10.1265 -0.0485593 0)
(10.1305 -0.0479777 0)
(10.1342 -0.0474315 0)
(10.0028 -0.0162837 0)
(10.0187 -0.0353314 0)
(10.0367 -0.0433944 0)
(10.0517 -0.0489702 0)
(10.0651 -0.0532813 0)
(10.0781 -0.0558848 0)
(10.0904 -0.0570782 0)
(10.1017 -0.0574287 0)
(10.1119 -0.0572618 0)
(10.1211 -0.0567256 0)
(10.1294 -0.055936 0)
(10.1368 -0.0550041 0)
(10.1434 -0.0540123 0)
(10.1492 -0.0530285 0)
(10.1543 -0.0521065 0)
(10.1587 -0.0512787 0)
(10.1627 -0.0505386 0)
(10.1661 -0.0498469 0)
(10.007 -0.0243765 0)
(10.038 -0.0433658 0)
(10.0667 -0.0485743 0)
(10.0912 -0.053556 0)
(10.1133 -0.0584802 0)
(10.1341 -0.061759 0)
(10.1527 -0.0634306 0)
(10.1687 -0.0640801 0)
(10.182 -0.064036 0)
(10.193 -0.0634619 0)
(10.2016 -0.0624968 0)
(10.2082 -0.0612731 0)
(10.2129 -0.0599144 0)
(10.2158 -0.0585144 0)
(10.2172 -0.0571642 0)
(10.2174 -0.0559539 0)
(10.2165 -0.0549193 0)
(10.2148 -0.0541444 0)
(10.0425 -0.0349497 0)
(10.1353 -0.0635393 0)
(10.2021 -0.0687568 0)
(10.2448 -0.0703233 0)
(10.2715 -0.0713952 0)
(10.2855 -0.0712064 0)
(10.2877 -0.069884 0)
(10.2797 -0.0679493 0)
(10.2637 -0.065692 0)
(10.2418 -0.0632335 0)
(10.2154 -0.0606478 0)
(10.1858 -0.0580174 0)
(10.1538 -0.0554064 0)
(10.1203 -0.0528867 0)
(10.0859 -0.0505488 0)
(10.0511 -0.0484622 0)
(10.0166 -0.0466431 0)
(9.98327 -0.0455727 0)
(9.88808 -0.0365262 0)
(9.66411 -0.0680889 0)
(9.42247 -0.0781848 0)
(9.17738 -0.0803361 0)
(8.94398 -0.0788907 0)
(8.72914 -0.0748805 0)
(8.53373 -0.06942 0)
(8.3572 -0.0633027 0)
(8.19912 -0.0570169 0)
(8.05843 -0.0509079 0)
(7.93375 -0.0451313 0)
(7.8235 -0.0397503 0)
(7.72629 -0.0348036 0)
(7.64058 -0.0303142 0)
(7.56499 -0.0262872 0)
(7.49818 -0.0228188 0)
(7.43815 -0.0200108 0)
(7.38412 -0.0182141 0)
(-0.00278618 0.00756092 0)
(-0.0127607 0.0125789 0)
(-0.0264112 0.0136758 0)
(-0.0407506 0.0116354 0)
(-0.0511397 0.00581183 0)
(-0.0500501 -0.00378429 0)
(-0.0341485 -0.016749 -8.09111e-19)
(-0.00679541 -0.0302368 9.16811e-19)
(0.0287637 -0.0403017 0)
(0.0696038 -0.0452147 5.23072e-19)
(0.112789 -0.0456196 0)
(0.154896 -0.042699 0)
(0.193185 -0.0375138 0)
(0.225998 -0.030878 -2.55663e-19)
(0.252461 -0.023357 0)
(0.27216 -0.015313 0)
(0.284755 -0.00694708 2.20818e-19)
(0.29045 0.00180487 0)
(0.28814 0.0108387 0)
(0.278013 0.0196777 0)
(0.260705 0.0275723 -2.3664e-19)
(0.236847 0.0337327 0)
(0.207375 0.0374354 -2.80149e-19)
(0.173678 0.038059 0)
(0.13761 0.03518 0)
(0.101438 0.0287856 -4.57138e-19)
(0.0676565 0.019569 0)
(0.0387153 0.00921898 7.64882e-19)
(0.0164111 0.000345472 0)
(0.00116344 -0.00503135 -1.30645e-18)
(-0.00835361 -0.00760337 0)
(-0.0131196 -0.00943564 0)
(-0.0118703 -0.011715 0)
(-0.00428258 -0.0153392 0)
(0.0105688 -0.0207376 0)
(0.0330426 -0.0267328 8.33109e-19)
(0.0615957 -0.0310018 0)
(0.0921482 -0.031269 -9.80178e-19)
(0.119579 -0.0270491 0)
(0.139701 -0.0197101 7.75665e-19)
(0.150668 -0.0117847 0)
(0.15377 -0.00540014 0)
(0.151553 -0.00187007 -7.60384e-19)
(0.147819 -0.00215671 0)
(0.145542 -0.00717655 -7.8502e-19)
(0.143134 -0.016328 7.90774e-19)
(0.134208 -0.0243904 0)
(0.111214 -0.0212216 8.63641e-19)
(0.0691084 -0.0028372 1.01294e-18)
(-0.00427781 0.016402 0)
(-0.10206 0.0363583 0)
(-0.20812 0.0616166 0)
(-0.32612 0.0857547 0)
(-0.454107 0.102736 0)
(-0.588533 0.109315 -1.83427e-19)
(-0.724213 0.112429 0)
(-0.856452 0.113459 1.43538e-19)
(-0.985279 0.108473 0)
(-1.10756 0.100988 0)
(-1.2218 0.0939485 -1.1231e-19)
(-1.32746 0.0868161 0)
(-1.42497 0.0801953 1.00246e-19)
(-1.5148 0.0721347 0)
(-1.59713 0.0645745 0)
(-1.67272 0.0590733 0)
(-1.74251 0.0539713 -8.7128e-20)
(-1.80711 0.0494698 0)
(-1.86711 0.0455329 0)
(-1.92307 0.0420898 -8.10766e-20)
(-1.97548 0.039059 0)
(-2.02476 0.0364031 -7.80153e-20)
(-2.07125 0.0340265 0)
(-2.11523 0.031912 0)
(-2.15695 0.0299839 0)
(-2.19658 0.028235 7.31609e-20)
(-2.23429 0.0266103 0)
(-2.2702 0.0251094 0)
(-2.3044 0.0236934 7.01534e-20)
(-2.33699 0.0223656 6.92226e-20)
(-2.36803 0.0210992 0)
(-2.39758 0.0198979 6.74333e-20)
(-2.42568 0.0187448 0)
(-2.45238 0.0176404 1.31422e-19)
(-2.4777 0.0165762 0)
(-2.50168 0.0155482 1.28057e-19)
(-2.52433 0.0145548 0)
(-2.54567 0.0135857 -1.24734e-19)
(-2.56574 0.0126443 0)
(-2.58455 0.0117227 0)
(-2.60213 0.0108048 0)
(-2.61847 0.00990413 1.18114e-19)
(-2.63352 0.00900089 0)
(-2.6473 0.00808758 -1.14768e-19)
(-2.65977 0.00715548 0)
(-2.67091 0.00619047 1.11382e-19)
(-2.68069 0.0051914 1.09675e-19)
(-2.68908 0.00414804 1.07961e-19)
(-2.69602 0.00308134 0)
(-2.70148 0.00202596 0)
(-2.70537 0.00106717 0)
(-2.70762 0.000270189 0)
(-2.70862 -0.000394667 0)
(-2.70847 -0.00101901 0)
(-2.70715 -0.00163061 0)
(-2.70468 -0.00223655 0)
(-2.70105 -0.00284042 -9.18021e-20)
(-2.69625 -0.00344066 -8.98579e-20)
(-2.69026 -0.00404086 0)
(-2.68309 -0.00463596 0)
(-2.67471 -0.00523189 0)
(-2.66513 -0.00582079 -8.1683e-20)
(-2.65433 -0.00641093 0)
(-2.6423 -0.0069921 0)
(-2.62905 -0.00757448 0)
(-2.61457 -0.00814603 0)
(-2.59885 -0.00871854 7.038e-20)
(-2.5819 -0.00927862 0)
(-2.56371 -0.00983923 0)
(-2.54429 -0.0103862 -6.28889e-20)
(-2.52364 -0.0109333 6.02561e-20)
(-2.50176 -0.0114659 0)
(-2.47867 -0.0119982 5.47692e-20)
(-2.45436 -0.0125156 0)
(-2.42885 -0.0130323 -4.89661e-20)
(-2.40214 -0.0135339 0)
(-2.37425 -0.0140347 0)
(-2.34519 -0.0145209 0)
(-2.31497 -0.0150051 0)
(-2.28361 -0.0154676 0)
(-2.25112 -0.0159293 5.87752e-20)
(-2.21752 -0.0163718 5.15363e-20)
(-2.18283 -0.0168018 0)
(-2.1471 -0.0172007 0)
(-2.11036 -0.0175277 0)
(-2.07268 -0.0177272 -2.02615e-20)
(-2.0341 -0.0177178 0)
(-1.99468 -0.0174786 0)
(-1.95438 -0.0175333 0)
(-1.9131 -0.0179146 1.52923e-20)
(-1.87092 -0.0182141 -2.49725e-20)
(-1.8279 -0.0185087 0)
(-1.78409 -0.0187909 0)
(-1.73952 -0.0190672 -5.62239e-20)
(-1.69421 -0.0193337 -6.74419e-20)
(-1.6482 -0.019596 0)
(-1.60153 -0.0198488 0)
(-1.55425 -0.0200978 1.03787e-19)
(-1.50639 -0.0203343 -1.16879e-19)
(-1.45798 -0.0205578 0)
(-1.40903 -0.0207596 0)
(-1.35956 -0.0209477 -1.59536e-19)
(-1.30965 -0.0211156 0)
(-1.25931 -0.0212722 0)
(-1.20861 -0.0214149 -2.08081e-19)
(-1.15755 -0.0215469 0)
(-1.10619 -0.0216697 -2.44311e-19)
(-1.05456 -0.0217869 0)
(-1.00266 -0.0219005 0)
(-0.950537 -0.0220147 0)
(-0.898184 -0.0221309 3.28284e-19)
(-0.845616 -0.0222518 0)
(-0.792836 -0.0223781 0)
(-0.739848 -0.0225106 0)
(-0.686658 -0.0226505 0)
(-0.633268 -0.0227986 0)
(-0.579685 -0.0229588 0)
(-0.525907 -0.023133 5.29504e-19)
(-0.47193 -0.023327 5.66574e-19)
(-0.417744 -0.0235411 0)
(-0.36334 -0.0237806 0)
(-0.308708 -0.0240397 0)
(-0.253858 -0.0243203 -7.47959e-19)
(-0.198811 -0.0246335 0)
(-0.143646 -0.0249569 1.73253e-18)
(-0.0885253 -0.0252124 -1.87028e-18)
(-0.0338639 -0.0252605 -2.02394e-18)
(0.020203 -0.0245442 2.08621e-18)
(0.0703025 -0.0225743 -2.02911e-18)
(0.125543 -0.0200654 1.96893e-18)
(0.140511 -0.00869374 0)
(-0.000308698 0.0203225 0)
(-0.00577324 0.0355102 0)
(-0.0122504 0.0365971 2.11876e-18)
(-0.0125504 0.0270498 0)
(0.00159524 0.00511055 -2.20491e-18)
(0.0311955 -0.0318639 -1.40004e-18)
(0.07027 -0.073124 -4.42074e-19)
(0.114818 -0.106876 -3.15926e-19)
(0.160869 -0.127571 0)
(0.205031 -0.134903 -2.06887e-19)
(0.24513 -0.131497 0)
(0.280224 -0.12072 0)
(0.309985 -0.10544 3.08508e-19)
(0.334428 -0.0877305 1.46951e-19)
(0.353774 -0.0689338 -2.86483e-19)
(0.368338 -0.0498219 -2.83154e-19)
(0.378498 -0.0307768 -1.41581e-19)
(0.384437 -0.0119376 0)
(0.387133 0.00670806 0)
(0.386503 0.0249921 0)
(0.382172 0.0425612 -1.49634e-19)
(0.373642 0.0588718 0)
(0.360353 0.0731806 4.78784e-19)
(0.341822 0.0844988 0)
(0.31783 0.0917041 0)
(0.288599 0.0937018 1.9378e-19)
(0.255006 0.0897582 0)
(0.218689 0.079925 -2.4526e-19)
(0.181992 0.0652607 -5.74143e-19)
(0.147848 0.0475542 3.43293e-19)
(0.119368 0.0284196 0)
(0.0998352 0.00871382 0)
(0.0905973 -0.0117126 0)
(0.0932993 -0.0318888 -1.00411e-18)
(0.106164 -0.0518272 -8.4693e-19)
(0.125616 -0.0690196 -3.5069e-19)
(0.145706 -0.0765015 0)
(0.160523 -0.0709772 5.07756e-19)
(0.167486 -0.0553901 0)
(0.166249 -0.035078 -4.91662e-19)
(0.15747 -0.0167483 0)
(0.141912 -0.00465714 0)
(0.11934 0.00251785 6.2385e-19)
(0.0839619 0.00936652 0)
(0.026487 0.0227252 2.42335e-18)
(-0.0665467 0.0535395 -6.16842e-19)
(-0.186973 0.0965887 0)
(-0.318548 0.141686 -2.63766e-19)
(-0.456674 0.184971 -1.95874e-19)
(-0.600919 0.221337 0)
(-0.746638 0.248789 0)
(-0.889943 0.26771 0)
(-1.02859 0.278141 0)
(-1.15944 0.280283 0)
(-1.28108 0.274748 8.2118e-20)
(-1.39062 0.263571 1.54627e-19)
(-1.48813 0.248836 -7.28036e-20)
(-1.57456 0.231686 0)
(-1.65095 0.213245 1.34976e-19)
(-1.71865 0.194791 -6.54895e-20)
(-1.77906 0.177292 0)
(-1.8335 0.161148 -6.12926e-20)
(-1.88328 0.146486 0)
(-1.92879 0.133392 0)
(-1.97101 0.121964 -1.15868e-19)
(-2.01041 0.111924 5.68622e-20)
(-2.04745 0.103171 -1.11946e-19)
(-2.08248 0.0955114 1.10197e-19)
(-2.11576 0.0888035 5.42892e-20)
(-2.14747 0.0828733 0)
(-2.17775 0.0776111 5.28069e-20)
(-2.20669 0.0728764 0)
(-2.23437 0.0685972 0)
(-2.26085 0.0646687 0)
(-2.28618 0.0610495 5.00807e-20)
(-2.31038 0.0576641 0)
(-2.33348 0.0544924 9.7809e-20)
(-2.35551 0.0514814 -1.44973e-19)
(-2.37648 0.0486231 -4.77634e-20)
(-2.39639 0.0458821 0)
(-2.41528 0.043255 -4.65987e-20)
(-2.43314 0.0407198 0)
(-2.44999 0.0382721 -9.08793e-20)
(-2.46582 0.0359002 0)
(-2.48064 0.0335957 -8.85502e-20)
(-2.49446 0.0313552 1.74672e-19)
(-2.50728 0.0291658 8.61953e-20)
(-2.5191 0.0270318 0)
(-2.52996 0.0249409 0)
(-2.53985 0.0228913 0)
(-2.54875 0.0208836 -8.13813e-20)
(-2.55665 0.0189109 0)
(-2.56354 0.0169664 7.88984e-20)
(-2.56943 0.0150403 0)
(-2.57433 0.0131224 -2.29096e-19)
(-2.57826 0.0112084 -7.50694e-20)
(-2.58126 0.0092802 -7.37701e-20)
(-2.58339 0.00733789 0)
(-2.58471 0.00538757 0)
(-2.58533 0.00349282 0)
(-2.58533 0.00172235 0)
(-2.58441 7.63565e-05 0)
(-2.58242 -0.00151648 -1.31396e-19)
(-2.57933 -0.00308142 -1.28565e-19)
(-2.57512 -0.00462897 0)
(-2.56977 -0.00616233 6.13144e-20)
(-2.56326 -0.00768156 5.98354e-20)
(-2.55559 -0.00918845 0)
(-2.54674 -0.0106789 1.1385e-19)
(-2.53671 -0.0121567 0)
(-2.52549 -0.0136146 -5.39593e-20)
(-2.51306 -0.0150589 0)
(-2.49943 -0.0164796 0)
(-2.48458 -0.017885 9.79975e-20)
(-2.46851 -0.0192629 0)
(-2.45123 -0.0206235 -4.54594e-20)
(-2.43273 -0.021953 0)
(-2.413 -0.0232629 0)
(-2.39206 -0.0245385 -4.05541e-20)
(-2.36991 -0.0257925 -3.83077e-20)
(-2.34655 -0.0270096 0)
(-2.32198 -0.0282033 3.49845e-20)
(-2.29622 -0.0293579 0)
(-2.26928 -0.0304869 -3.10834e-20)
(-2.24116 -0.0315744 -5.76291e-20)
(-2.21187 -0.032633 0)
(-2.18144 -0.0336471 0)
(-2.14987 -0.0346296 0)
(-2.11718 -0.0355672 0)
(-2.08339 -0.0364709 -3.55719e-20)
(-2.04851 -0.0373296 -9.42391e-20)
(-2.01257 -0.0381504 0)
(-1.97561 -0.0389248 0)
(-1.93766 -0.0396656 0)
(-1.89872 -0.0403824 1.17753e-20)
(-1.85879 -0.041095 0)
(-1.81787 -0.0417908 0)
(-1.77597 -0.0424545 5.9651e-21)
(-1.73321 -0.0430367 7.60734e-21)
(-1.68961 -0.0435416 1.4534e-20)
(-1.64519 -0.0439933 0)
(-1.59998 -0.0444015 0)
(-1.55401 -0.0447721 3.16334e-20)
(-1.50732 -0.0451044 -3.59793e-20)
(-1.45994 -0.0454037 0)
(-1.41192 -0.0456704 0)
(-1.36329 -0.0459099 -5.60727e-20)
(-1.31409 -0.046117 1.85758e-19)
(-1.26435 -0.0462867 0)
(-1.21408 -0.0464096 0)
(-1.16331 -0.0464877 8.24598e-20)
(-1.1121 -0.0465228 0)
(-1.06046 -0.0465157 1.91109e-19)
(-1.00845 -0.0464738 -1.01847e-19)
(-0.956097 -0.0463962 0)
(-0.903436 -0.0462911 1.18424e-19)
(-0.850496 -0.0461621 2.50237e-19)
(-0.7973 -0.0460167 0)
(-0.743867 -0.0458597 0)
(-0.690211 -0.0456971 -1.49686e-19)
(-0.636339 -0.0455324 0)
(-0.582255 -0.0453688 3.30494e-19)
(-0.527961 -0.0452058 0)
(-0.47346 -0.0450444 0)
(-0.418753 -0.0448848 0)
(-0.363842 -0.0447303 0)
(-0.308724 -0.0445843 -2.10127e-19)
(-0.253391 -0.044452 -2.19419e-19)
(-0.197834 -0.0443351 0)
(-0.142039 -0.0442362 0)
(-0.0859956 -0.0441486 0)
(-0.0297104 -0.0440572 2.58466e-19)
(0.0267844 -0.0439266 0)
(0.0834312 -0.0437127 -5.30221e-19)
(0.140135 -0.0433483 5.31236e-19)
(0.196637 -0.0426876 5.32283e-19)
(0.252898 -0.0413512 5.30353e-19)
(0.306654 -0.0389526 5.35867e-19)
(0.362959 -0.0347335 5.37704e-19)
(0.397832 -0.0221784 0)
(0.000276117 0.0230468 0)
(0.000779301 0.0396918 0)
(0.00667778 0.0321644 -2.26371e-18)
(0.0268836 -0.0015557 -1.58388e-18)
(0.0665873 -0.0613221 9.43289e-19)
(0.117948 -0.12703 6.13002e-19)
(0.170598 -0.178965 -3.65868e-22)
(0.21773 -0.20867 0)
(0.256699 -0.217041 0)
(0.287533 -0.209264 0)
(0.311445 -0.191102 0)
(0.329883 -0.167233 0)
(0.344053 -0.140835 -7.01722e-19)
(0.354812 -0.113792 0)
(0.362724 -0.0871174 2.23883e-19)
(0.368164 -0.0612866 2.23323e-19)
(0.371401 -0.0364854 0)
(0.37263 -0.0127838 0)
(0.372102 0.00984733 0)
(0.370144 0.031573 0)
(0.367016 0.0525304 2.37796e-19)
(0.362893 0.0726517 0)
(0.357697 0.0915665 -2.54803e-19)
(0.35104 0.108523 0)
(0.342237 0.122402 0)
(0.330436 0.131784 0)
(0.31485 0.135187 -6.37847e-19)
(0.295161 0.131412 0)
(0.271915 0.119969 3.78667e-19)
(0.24672 0.101225 -8.44636e-19)
(0.222126 0.076312 0)
(0.201051 0.0466291 0)
(0.186091 0.0138579 0)
(0.177389 -0.0209409 6.19799e-19)
(0.173737 -0.0541538 5.45923e-19)
(0.168464 -0.0756767 0)
(0.15485 -0.0764845 0)
(0.13278 -0.0594849 -7.50798e-19)
(0.103269 -0.0322946 -7.72347e-19)
(0.066519 0.000481578 8.57962e-19)
(0.0203563 0.0341736 0)
(-0.0456799 0.0659231 0)
(-0.137363 0.104705 0)
(-0.248737 0.154188 0)
(-0.376402 0.209088 -3.90221e-19)
(-0.514959 0.264927 -3.09599e-19)
(-0.65678 0.317777 2.54123e-19)
(-0.79575 0.36275 0)
(-0.927803 0.398262 0)
(-1.04918 0.423272 0)
(-1.15811 0.436843 0)
(-1.25406 0.439595 -1.40954e-19)
(-1.33669 0.432558 0)
(-1.40706 0.417046 0)
(-1.46721 0.394917 -1.17723e-19)
(-1.51928 0.368557 -1.11249e-19)
(-1.5654 0.340274 0)
(-1.6071 0.311608 2.08212e-19)
(-1.64585 0.283858 -1.00015e-19)
(-1.68263 0.257936 9.71366e-20)
(-1.718 0.23438 0)
(-1.7523 0.213399 0)
(-1.78573 0.194856 0)
(-1.81845 0.178531 0)
(-1.85042 0.164354 8.66494e-20)
(-1.88162 0.152 1.70181e-19)
(-1.91202 0.141186 8.35028e-20)
(-1.9416 0.13167 -8.20778e-20)
(-1.97033 0.123235 0)
(-1.9982 0.115687 1.5881e-19)
(-2.02519 0.108873 1.56336e-19)
(-2.0513 0.102655 1.5397e-19)
(-2.07651 0.0969295 -1.51694e-19)
(-2.10081 0.0916025 0)
(-2.1242 0.0866101 -2.21115e-19)
(-2.14666 0.0818893 0)
(-2.16821 0.0774021 7.15503e-20)
(-2.18882 0.073108 7.06925e-20)
(-2.20851 0.0689851 0)
(-2.22726 0.0650078 0)
(-2.24508 0.0611632 1.35399e-19)
(-2.26197 0.0574356 0)
(-2.27793 0.0538156 1.31568e-19)
(-2.29295 0.0502935 0)
(-2.30704 0.0468599 -1.27748e-19)
(-2.32019 0.0435085 -2.51732e-19)
(-2.33241 0.0402302 0)
(-2.34371 0.0370213 0)
(-2.35409 0.0338743 0)
(-2.36358 0.0307843 -1.18116e-19)
(-2.37215 0.0277535 0)
(-2.37977 0.024776 -1.14198e-19)
(-2.38645 0.0218492 0)
(-2.3922 0.0189657 0)
(-2.39702 0.0161266 2.16441e-19)
(-2.40093 0.01333 0)
(-2.40394 0.0105825 1.04193e-19)
(-2.40608 0.00788916 0)
(-2.40732 0.00525986 1.00126e-19)
(-2.40765 0.00269008 0)
(-2.40702 0.000148171 0)
(-2.40536 -0.00239193 0)
(-2.40265 -0.00492368 2.74712e-19)
(-2.39887 -0.00743666 8.9329e-20)
(-2.394 -0.00993107 0)
(-2.38802 -0.0124048 0)
(-2.38093 -0.0148588 0)
(-2.3727 -0.0172899 0)
(-2.36333 -0.0196984 -7.81564e-20)
(-2.3528 -0.0220807 1.52079e-19)
(-2.34111 -0.0244367 7.35356e-20)
(-2.32825 -0.0267625 -1.42792e-19)
(-2.3142 -0.0290573 -1.3807e-19)
(-2.29898 -0.0313174 -6.64089e-20)
(-2.28256 -0.0335414 0)
(-2.26495 -0.0357259 -1.23553e-19)
(-2.24615 -0.037869 0)
(-2.22615 -0.0399681 1.13561e-19)
(-2.20497 -0.0420211 5.39276e-20)
(-2.1826 -0.0440263 0)
(-2.15904 -0.0459815 -9.80611e-20)
(-2.13432 -0.0478858 -4.6032e-20)
(-2.10842 -0.0497364 0)
(-2.08136 -0.051533 -4.13239e-20)
(-2.05315 -0.0532718 1.14184e-19)
(-2.0238 -0.0549525 0)
(-1.99333 -0.0565709 0)
(-1.96174 -0.0581273 0)
(-1.92906 -0.0596174 0)
(-1.89529 -0.061041 4.75483e-20)
(-1.86047 -0.0623952 4.06477e-20)
(-1.8246 -0.0636812 0)
(-1.78773 -0.0648926 0)
(-1.74988 -0.0660301 0)
(-1.71106 -0.067094 0)
(-1.67127 -0.0680929 0)
(-1.63053 -0.0690304 0)
(-1.58889 -0.0699227 -3.73189e-21)
(-1.5464 -0.0707487 -1.0608e-21)
(-1.50309 -0.0714855 0)
(-1.45898 -0.0721427 0)
(-1.4141 -0.072729 -2.96969e-20)
(-1.36848 -0.0732489 0)
(-1.32215 -0.0737048 4.48002e-20)
(-1.27515 -0.0741 5.0759e-20)
(-1.22753 -0.0744395 0)
(-1.17931 -0.0747247 0)
(-1.13055 -0.0749539 -7.36366e-20)
(-1.08125 -0.0751195 -1.59631e-19)
(-1.03144 -0.0752142 0)
(-0.98116 -0.0752378 0)
(-0.930427 -0.0751937 0)
(-0.879288 -0.0750819 -1.11128e-19)
(-0.827778 -0.0749102 1.18803e-19)
(-0.775933 -0.074681 0)
(-0.723784 -0.0744036 2.66136e-19)
(-0.671359 -0.0740857 1.39646e-19)
(-0.61868 -0.0737366 -2.97479e-19)
(-0.565767 -0.0733651 0)
(-0.512632 -0.0729787 0)
(-0.459284 -0.0725846 -3.45008e-19)
(-0.405725 -0.0721859 -1.81719e-19)
(-0.351955 -0.0717842 0)
(-0.297977 -0.0713783 0)
(-0.243788 -0.0709706 0)
(-0.189389 -0.0705628 0)
(-0.134774 -0.0701608 -4.41157e-19)
(-0.0799334 -0.0697689 0)
(-0.0248546 -0.0693923 0)
(0.0304755 -0.0690306 0)
(0.0860684 -0.068676 0)
(0.141933 -0.068304 0)
(0.198057 -0.067869 0)
(0.254395 -0.067312 -5.11238e-19)
(0.310872 -0.0665477 0)
(0.367286 -0.065403 0)
(0.423653 -0.0635822 -1.05935e-18)
(0.478426 -0.0605783 5.34969e-19)
(0.535485 -0.0554179 -5.45618e-19)
(0.58018 -0.0427859 5.56756e-19)
(-0.00116392 0.0231425 0)
(0.00209456 0.0262688 4.91944e-18)
(0.0240468 -0.0161035 0)
(0.0719912 -0.0993017 8.39779e-19)
(0.132794 -0.186848 0)
(0.190214 -0.250259 0)
(0.235076 -0.280996 -3.16787e-19)
(0.266169 -0.284049 0)
(0.28628 -0.268831 0)
(0.299024 -0.243638 0)
(0.307278 -0.213923 0)
(0.312864 -0.182715 0)
(0.316762 -0.151534 7.92184e-19)
(0.319424 -0.121075 3.89587e-19)
(0.321013 -0.0916466 -3.87048e-19)
(0.321573 -0.0633835 0)
(0.321114 -0.0363445 0)
(0.319652 -0.0105672 0)
(0.317241 0.0139383 0)
(0.313973 0.0372012 0)
(0.309993 0.0592623 4.18793e-19)
(0.305517 0.0801281 4.30067e-19)
(0.300757 0.0997093 -4.45899e-19)
(0.295821 0.117692 4.67525e-19)
(0.290615 0.133441 0)
(0.2848 0.145924 0)
(0.277783 0.153701 5.66707e-19)
(0.268822 0.155073 0)
(0.257336 0.148481 0)
(0.243155 0.132832 7.30849e-19)
(0.226944 0.107932 8.15712e-19)
(0.209804 0.0748215 9.231e-19)
(0.193106 0.0357653 0)
(0.175905 -0.00456384 0)
(0.151273 -0.0340076 -9.36644e-19)
(0.114309 -0.0397055 0)
(0.0665676 -0.0223277 0)
(0.00896186 0.0115868 7.48761e-19)
(-0.0615943 0.0566049 -6.6678e-19)
(-0.14807 0.110912 5.32928e-19)
(-0.249155 0.17196 0)
(-0.364133 0.235292 0)
(-0.489407 0.299178 5.71681e-19)
(-0.619156 0.362309 0)
(-0.747879 0.42103 4.10069e-19)
(-0.870472 0.470234 5.40017e-19)
(-0.982059 0.507734 -4.81695e-19)
(-1.08032 0.533425 2.91278e-19)
(-1.16449 0.547136 0)
(-1.23441 0.549569 0)
(-1.29154 0.541926 2.31198e-19)
(-1.33783 0.525773 1.07793e-19)
(-1.37551 0.502914 0)
(-1.40711 0.475144 0)
(-1.43493 0.444344 9.26835e-20)
(-1.46089 0.412403 1.79322e-19)
(-1.48627 0.380807 0)
(-1.51183 0.3505 -1.65427e-19)
(-1.53802 0.322121 1.61193e-19)
(-1.56495 0.296057 -1.56378e-19)
(-1.59255 0.272485 0)
(-1.62065 0.251371 0)
(-1.64904 0.232545 0)
(-1.67755 0.215803 0)
(-1.70598 0.200964 0)
(-1.73415 0.187784 -1.35305e-19)
(-1.76194 0.176024 0)
(-1.78923 0.165466 0)
(-1.81593 0.155919 0)
(-1.84199 0.147212 -2.51841e-19)