/*--------------------------------*- C++ -*----------------------------------*\
  =========                 |
  \\      /  F ield         | OpenFOAM: The Open Source CFD Toolbox
   \\    /   O peration     | Website:  https://openfoam.org
    \\  /    A nd           | Version:  8
     \\/     M anipulation  |
\*---------------------------------------------------------------------------*/
FoamFile
{
    version     2.0;
    format      ascii;
    class       volVectorField;
    location    "600";
    object      wallShearStress;
}
// * * * * * * * * * * * * * * * * * * * * * * * * * * * * * * * * * * * * * //

dimensions      [0 2 -2 0 0 0 0];

internalField   uniform (0 0 0);

boundaryField
{
    inlet
    {
        type            calculated;
        value           uniform (0 0 0);
    }
    outlet
    {
        type            calculated;
        value           uniform (0 0 0);
    }
    upperWall
    {
        type            calculated;
        value           nonuniform List<vector> 
223
(
(-0.582193 -0.392359 0)
(-0.977814 -0.219377 0)
(-0.939335 -0.0567746 0)
(-0.81071 -0.00585779 0)
(-0.734594 0.0033137 0)
(-0.695452 0.00231582 0)
(-0.670934 0.000424251 0)
(-0.653508 -0.00144945 0)
(-0.64053 -0.00256144 0)
(-0.629828 -0.00218839 0)
(-0.620046 -0.0012852 0)
(-0.611041 -0.00107452 0)
(-0.602881 -0.00119889 0)
(-0.596433 -0.00150848 0)
(-0.590704 -0.000758844 0)
(-0.584884 0.000716371 0)
(-0.57967 0.000568894 0)
(-0.574754 0.000527353 0)
(-0.570656 0.000873459 0)
(-0.567272 0.000658043 4.20039e-22)
(-0.564526 0.000779836 0)
(-0.561789 0.00213353 0)
(-0.558814 0.00323264 0)
(-0.555725 0.00371564 4.51259e-22)
(-0.552711 0.0045936 0)
(-0.549597 0.00437962 0)
(-0.546862 0.003878 0)
(-0.544132 0.00380648 -9.4224e-22)
(-0.54125 0.00357134 9.51066e-22)
(-0.538459 0.00303543 9.59864e-22)
(-0.535808 0.00256497 0)
(-0.533189 0.00224979 -9.8031e-22)
(-0.530558 0.00198015 0)
(-0.527938 0.00175088 1.00288e-21)
(-0.525314 0.00157002 1.01474e-21)
(-0.522674 0.00144002 -1.02725e-21)
(-0.520009 0.00133568 0)
(-0.517326 0.00125338 0)
(-0.514622 0.00119007 0)
(-0.511893 0.00114178 0)
(-0.509138 0.00110535 -1.09217e-21)
(-0.506353 0.0010785 0)
(-0.503534 0.00105944 0)
(-0.500681 0.00104673 1.13195e-21)
(-0.497789 0.00103934 0)
(-0.494855 0.0010364 1.15817e-21)
(-0.491877 0.00103722 -1.17105e-21)
(-0.48885 0.00104114 1.18371e-21)
(-0.485772 0.00104773 0)
(-0.482641 0.00105558 0)
(-0.479456 0.00106408 0)
(-0.476216 0.00107221 1.23097e-21)
(-0.47293 0.00107878 -1.2416e-21)
(-0.469607 0.00108399 0)
(-0.466264 0.00108883 0)
(-0.462914 0.00109386 0)
(-0.459569 0.00109827 0)
(-0.456234 0.00110084 0)
(-0.452909 0.00110082 0)
(-0.44959 0.00109823 0)
(-0.44627 0.00109384 0)
(-0.442938 0.00108863 1.29196e-21)
(-0.439583 0.00108373 -1.29174e-21)
(-0.436194 0.00107998 0)
(-0.43276 0.00107803 0)
(-0.429269 0.00107812 0)
(-0.425715 0.00108025 -1.27836e-21)
(-0.422087 0.00108435 0)
(-0.418379 0.00109012 0)
(-0.414586 0.00109724 0)
(-0.410702 0.00110525 0)
(-0.406725 0.00111367 0)
(-0.402653 0.00112205 -2.4343e-21)
(-0.398484 0.00112984 0)
(-0.394221 0.0011365 0)
(-0.389866 0.00114154 0)
(-0.385424 0.00114463 0)
(-0.380905 0.00114579 0)
(-0.376319 0.00114485 0)
(-0.37168 0.00114151 0)
(-0.366998 0.00113551 2.09521e-21)
(-0.362285 0.00112669 0)
(-0.357547 0.00111515 0)
(-0.352791 0.00110116 0)
(-0.348018 0.00108533 -1.83955e-21)
(-0.343228 0.00106821 0)
(-0.338419 0.00105036 -1.69012e-21)
(-0.333587 0.00103245 0)
(-0.328727 0.00101535 0)
(-0.323833 0.000999866 0)
(-0.319022 0.000992048 -1.35093e-21)
(-0.316382 0.0010012 0)
(-0.313657 0.00101508 1.18044e-21)
(-0.310852 0.00102972 1.08975e-21)
(-0.307972 0.00104288 0)
(-0.305028 0.00105384 8.96046e-22)
(-0.30203 0.00106248 0)
(-0.298993 0.00107012 0)
(-0.295933 0.00107648 0)
(-0.292859 0.0010859 -4.54582e-22)
(-0.289792 0.00109134 0)
(-0.286736 0.00110444 -2.0516e-22)
(-0.283715 0.00110517 7.3106e-23)
(-0.280723 0.00111032 0)
(-0.277792 0.00111336 0)
(-0.274909 0.00110493 0)
(-0.272097 0.00110447 0)
(-0.269351 0.00105501 0)
(-0.266643 0.00097447 0)
(-0.264059 0.000820627 0)
(-0.261452 0.000705794 1.15516e-21)
(-0.259066 0.000797246 0)
(-0.256818 0.000893715 0)
(-0.254712 0.000972128 0)
(-0.252598 0.000878892 0)
(-0.250555 0.000706977 0)
(-0.248425 0.000756871 0)
(-0.246455 0.000759083 0)
(-0.244638 0.000710033 0)
(-0.242697 0.000800618 0)
(-0.240684 0.000887342 0)
(-0.239098 0.000794187 0)
(-0.237145 0.00071616 0)
(-0.235472 0.000818975 7.14943e-21)
(-0.233874 0.00078442 0)
(-0.232136 0.0005708 0)
(-0.23029 0.00056176 0)
(-0.228736 0.000696616 -8.7932e-21)
(-0.227161 0.000639352 0)
(-0.225464 0.000510991 0)
(-0.224125 0.000680763 -1.00406e-20)
(-0.222827 0.000790891 0)
(-0.221471 0.000672663 1.08903e-20)
(-0.220062 0.00106349 0)
(-0.218858 0.00110211 0)
(-0.21762 0.000930346 0)
(-0.216719 0.00108441 -1.25007e-20)
(-0.215617 0.00093453 0)
(-0.214647 0.000779097 1.33259e-20)
(-0.213908 0.000414697 0)
(-0.212567 0.000470063 0)
(-0.211664 0.000683591 0)
(-0.21086 0.000579915 0)
(-0.210041 0.00052062 0)
(-0.209156 0.000359229 0)
(-0.208 0.000219459 0)
(-0.206754 0.000122818 0)
(-0.20573 0.000388513 0)
(-0.204995 0.000584456 0)
(-0.204358 0.000272427 0)
(-0.20381 2.35376e-05 1.83983e-20)
(-0.20267 0.00034089 -1.89433e-20)
(-0.20233 0.000421079 0)
(-0.201781 0.00039384 0)
(-0.201193 0.000565504 0)
(-0.200557 0.000228989 0)
(-0.199638 0.000240212 -2.09682e-20)
(-0.199072 0.000427472 2.12987e-20)
(-0.198809 0.00028084 -2.16152e-20)
(-0.1987 0.000323674 0)
(-0.197922 0.000393402 -2.25021e-20)
(-0.1976 -0.000232422 -4.56466e-20)
(-0.196551 -0.000635973 0)
(-0.195635 -0.00033251 -4.79289e-20)
(-0.195407 -0.000110425 4.83808e-20)
(-0.194775 -5.79281e-06 0)
(-0.194317 2.4227e-05 0)
(-0.194054 0.000122716 0)
(-0.193419 0.000195645 0)
(-0.192778 0.000103642 0)
(-0.192837 0.000220385 -5.32134e-20)
(-0.192059 0.000327936 0)
(-0.191638 0.000443288 -5.51005e-20)
(-0.191154 0.00058752 0)
(-0.190739 0.000696097 0)
(-0.190732 0.000759056 0)
(-0.190249 0.000548522 0)
(-0.190094 0.000380625 0)
(-0.189976 0.000388746 6.02349e-20)
(-0.189222 1.87165e-05 0)
(-0.187839 -0.000299797 0)
(-0.186671 -0.000100726 -6.43955e-20)
(-0.185991 3.33399e-05 0)
(-0.185147 0.000152521 0)
(-0.184516 0.000253521 0)
(-0.182926 0.000325743 6.91659e-20)
(-0.181283 0.00027525 0)
(-0.180325 0.000271233 0)
(-0.178722 0.000376532 0)
(-0.177127 0.000448798 0)
(-0.175298 0.000520823 -7.69825e-20)
(-0.172618 0.000623963 0)
(-0.16937 0.00069917 0)
(-0.165855 0.000866854 0)
(-0.160712 0.00113799 8.88924e-20)
(-0.15367 0.00142966 0)
(-0.147322 0.00246997 0)
(-0.122723 0.00255743 -1.07593e-19)
(-0.141035 0.00686117 6.01853e-36)
(-0.16934 0.0133139 1.25291e-17)
(-0.186925 0.017143 2.35336e-17)
(-0.193319 0.018916 2.27031e-17)
(-0.19702 0.0197363 2.19442e-17)
(-0.20091 0.0203393 2.11897e-17)
(-0.205451 0.021019 -2.02276e-17)
(-0.209693 0.0215019 -1.95134e-17)
(-0.213966 0.0218637 0)
(-0.217573 0.0219886 -3.68293e-17)
(-0.219864 0.0221735 -1.80888e-17)
(-0.224532 0.0227125 3.49075e-34)
(-0.227428 0.0229048 -2.40741e-35)
(-0.231051 0.0233664 -3.2272e-17)
(-0.235452 0.0239522 -3.06571e-17)
(-0.242438 0.0247988 -2.84654e-17)
(-0.249622 0.0254573 0)
(-0.256932 0.0260736 4.94039e-17)
(-0.263949 0.0266501 2.26471e-17)
(-0.272776 0.0274476 2.40741e-35)
(-0.282669 0.0283573 -3.48624e-17)
(-0.291229 0.029002 -1.58551e-20)
(-0.3008 0.0295573 -3.00927e-36)
(-0.30538 0.0305117 1.34127e-17)
(-0.332966 0.0321998 -7.62539e-18)
)
;
    }
    lowerWall
    {
        type            calculated;
        value           nonuniform List<vector> 
250
(
(-0.653909 0.466638 0)
(-1.14095 0.204678 0)
(-1.03492 0.0379587 0)
(-0.869573 -0.000935968 0)
(-0.786941 -0.0041916 0)
(-0.746063 -0.00160779 0)
(-0.719879 0.00041624 0)
(-0.700646 -0.000651763 0)
(-0.68509 -0.00405596 0)
(-0.67132 -0.00471224 0)
(-0.658936 -0.00298824 0)
(-0.647723 -0.000864172 0)
(-0.637521 0.00142634 0)
(-0.628196 0.00210433 0)
(-0.619329 0.00136841 0)
(-0.611532 0.00135896 0)
(-0.604601 0.00169647 0)
(-0.605075 0.00195223 0)
(-0.00423763 -0.0229327 0)
(-0.00277591 -0.0177713 0)
(-0.000717929 -0.0145954 0)
(0.00189364 -0.0138712 8.9948e-20)
(0.00521752 -0.0152529 -7.84818e-20)
(0.00891492 -0.020852 6.27855e-20)
(0.0126917 -0.0200659 -4.84539e-20)
(0.0256255 -0.0632841 0)
(-0.0839683 -0.144701 0)
(0.000880313 -0.00384518 0)
(-0.00766519 0.0095333 0)
(-0.00852257 0.0328204 0)
(-0.00255719 0.0448706 0)
(0.0029485 0.0442901 1.82173e-20)
(0.00617951 0.0360969 -1.89568e-20)
(0.00818429 0.0241991 0)
(0.00945781 0.0101998 -5.41615e-20)
(0.00943217 -0.00400434 6.11342e-20)
(0.00793618 -0.0173858 0)
(0.0061443 -0.0291609 0)
(0.00438458 -0.0385323 0)
(0.00268977 -0.0451141 0)
(0.000988844 -0.0488578 0)
(-0.000882274 -0.0494994 0)
(-0.00281726 -0.0463993 0)
(-0.00437477 -0.0399077 0)
(-0.00490457 -0.0308451 0)
(0.00132961 -0.00151667 0)
(0.00134155 0.00652779 0)
(-0.00450683 0.0096215 0)
(-0.00959673 0.0097611 0)
(-0.0133852 0.00830478 0)
(-0.0158939 0.00624039 0)
(-0.0172711 0.00410221 1.49507e-21)
(-0.0177914 0.00200999 -1.52654e-21)
(-0.0173417 -3.99951e-06 0)
(-0.0160654 -0.00168493 -1.65215e-21)
(-0.0142 -0.00283854 0)
(-0.0120606 -0.00329996 0)
(-0.0100578 -0.003041 -0)
(-0.0085567 -0.00228482 2.56949e-21)
(-0.00761817 -0.00142441 0)
(-0.00694068 -0.000811885 0)
(-0.00612595 -0.000612424 -3.37572e-21)
(-0.00500241 -0.000980093 0)
(-0.00342937 -0.00235206 0)
(-0.000534147 -0.00503846 0)
(0.00432748 -0.0074007 3.04612e-21)
(0.00991434 -0.00889309 0)
(0.0158165 -0.00985177 1.47102e-21)
(0.0218654 -0.0106163 0)
(0.0280706 -0.0112692 -0)
(0.0343826 -0.0115165 8.45021e-22)
(0.0405176 -0.0113577 0)
(0.0491126 -0.0116039 -7.53966e-22)
(0.0589043 -0.0117572 -0)
(0.0686012 -0.0115856 7.70628e-22)
(0.078013 -0.0111723 0)
(0.0869891 -0.0105878 0)
(0.0954368 -0.0098938 0)
(0.103298 -0.00914016 -0)
(0.110547 -0.00836403 0)
(0.117183 -0.00759258 -8.11105e-22)
(0.123219 -0.00684317 -0)
(0.128677 -0.00612509 1.633e-21)
(0.133584 -0.00544258 0)
(0.137968 -0.004796 -1.63488e-21)
(0.141855 -0.00418361 -0)
(0.145269 -0.00360278 -0)
(0.14823 -0.00305071 1.62099e-21)
(0.150757 -0.00252511 0)
(0.152864 -0.00202487 1.60078e-21)
(0.154562 -0.00155102 -1.58746e-21)
(0.155865 -0.00110689 -0)
(0.156784 -0.000699286 -1.55485e-21)
(0.15733 -0.000338177 -1.53582e-21)
(0.157516 -3.99896e-05 -0)
(0.157411 0.000194619 0)
(0.15708 0.000391367 0)
(0.156526 0.000568101 0)
(0.155764 0.000731028 -0)
(0.154804 0.000884235 1.37576e-21)
(0.153652 0.00102837 0)
(0.152315 0.00116399 -1.30697e-21)
(0.150802 0.00129166 -0)
(0.149119 0.00141132 -0)
(0.147274 0.00152288 1.19052e-21)
(0.145275 0.00162641 0)
(0.143129 0.00172192 -1.10482e-21)
(0.140845 0.00180934 -0)
(0.138432 0.00188868 0)
(0.135898 0.00195988 -0)
(0.133252 0.00202308 9.16793e-22)
(0.130503 0.00207841 0)
(0.127661 0.00212599 -0)
(0.124735 0.00216591 7.63746e-22)
(0.121734 0.00219831 0)
(0.118667 0.00222353 6.57212e-22)
(0.115543 0.00224171 0)
(0.112371 0.0022531 0)
(0.109161 0.00225809 0)
(0.10592 0.0022569 -4.36126e-22)
(0.102657 0.00224983 -0)
(0.0993804 0.00223719 0)
(0.0960976 0.00221932 -2.65517e-22)
(0.092816 0.00219652 -2.08064e-22)
(0.089543 0.00216915 -0)
(0.0862852 0.00213754 -9.25872e-23)
(0.0830489 0.00210202 -0)
(0.0798403 0.00206301 4.67556e-23)
(0.0766646 0.00202083 -0)
(0.0735275 0.00197591 2.79184e-22)
(0.0704335 0.00192892 0)
(0.0673864 0.00188033 -5.11875e-22)
(0.0643905 0.00183089 -0)
(0.0614488 0.00178163 0)
(0.0585641 0.00173386 -0)
(0.0557379 0.00168926 9.78664e-22)
(0.0529721 0.00164997 0)
(0.0502665 0.00161817 -1.21412e-21)
(0.0476203 0.00159489 0)
(0.0457827 0.00160357 1.47593e-21)
(0.0442402 0.00162112 1.63446e-21)
(0.042701 0.00162604 1.7994e-21)
(0.0411735 0.00161308 0)
(0.0396632 0.00158975 0)
(0.0381693 0.0015641 0)
(0.0366909 0.00153826 0)
(0.035228 0.00151254 0)
(0.0337807 0.00148692 0)
(0.0323499 0.00146142 0)
(0.0309357 0.00143623 0)
(0.0295386 0.00141141 -3.69251e-21)
(0.0281591 0.00138718 -3.96821e-21)
(0.0267975 0.00136377 0)
(0.0254534 0.00134079 0)
(0.024128 0.00131672 0)
(0.022822 0.00129181 -5.26846e-21)
(0.021536 0.0012676 0)
(0.0202692 0.00124396 0)
(0.0190221 0.00122087 0)
(0.0177948 0.00119844 0)
(0.0165871 0.00117671 7.53774e-21)
(0.0153992 0.00115575 0)
(0.014231 0.00113567 0)
(0.0130825 0.00111655 -9.45723e-21)
(0.0119534 0.00109844 1.02351e-20)
(0.0108438 0.00108143 0)
(0.0097537 0.00106581 1.20722e-20)
(0.00868287 0.00105223 0)
(0.00763102 0.00104186 -1.44117e-20)
(0.00659743 0.00103498 0)
(0.00558182 0.00103058 0)
(0.00458409 0.00102838 0)
(0.00360385 0.00102867 0)
(0.00264063 0.00103172 0)
(0.00169492 0.00103745 5.57387e-20)
(0.000768194 0.00104304 6.42573e-20)
(-0.000141604 0.00103022 0)
(-0.0010389 0.000987284 0)
(-0.00192071 0.000934893 0)
(-0.00278704 0.000885419 -5.28722e-20)
(-0.00363775 0.000840514 0)
(-0.00447265 0.00079978 0)
(-0.00529215 0.000762732 0)
(-0.00609681 0.000728867 -4.04068e-20)
(-0.00688717 0.000697734 3.8358e-20)
(-0.00766378 0.00066895 0)
(-0.00842705 0.000642211 0)
(-0.00917747 0.000617272 3.36124e-20)
(-0.00991546 0.000593937 3.23728e-20)
(-0.0106414 0.000572035 0)
(-0.0113559 0.000551439 0)
(-0.0120591 0.000532033 -2.93486e-20)
(-0.0127517 0.000513717 2.85212e-20)
(-0.0134339 0.000496413 0)
(-0.0141063 0.000480052 0)
(-0.0147692 0.000464568 2.64323e-20)
(-0.0154231 0.000449913 0)
(-0.0160685 0.000436039 0)
(-0.0167057 0.000422902 2.47874e-20)
(-0.0173353 0.000410473 0)
(-0.0179578 0.000398711 2.38716e-20)
(-0.0185734 0.000387585 0)
(-0.0191828 0.000377068 0)
(-0.0197864 0.000367128 0)
(-0.0203846 0.000357733 -2.23563e-20)
(-0.0209779 0.000348851 0)
(-0.0215668 0.000340433 0)
(-0.0221514 0.000332439 0)
(-0.0227324 0.000324811 0)
(-0.0233097 0.000317451 0)
(-0.0238836 0.000310243 0)
(-0.0244537 0.000303047 -2.03836e-20)
(-0.0250197 0.000295686 -2.01533e-20)
(-0.0255809 0.000287848 0)
(-0.0261356 0.000279184 0)
(-0.026682 0.000269151 0)
(-0.0272162 0.000257001 1.93588e-20)
(-0.0277336 0.000241526 0)
(-0.0282253 0.000221286 -3.81316e-20)
(-0.0286822 0.000192233 3.79254e-20)
(-0.0290752 0.000152608 3.78163e-20)
(-0.0294065 7.78504e-05 -3.78551e-20)
(-0.029488 -3.9456e-05 3.8042e-20)
(-0.0295125 -0.000356658 -3.83944e-20)
(-0.0279777 -0.00061699 0)
(-0.0293503 -0.000516356 -2.433e-18)
(-0.0327741 -0.00134266 -2.26961e-18)
(-0.0364179 -0.00203372 -3.00927e-36)
(-0.0395385 -0.00257647 -4.06062e-18)
(-0.0424886 -0.00301903 -7.75737e-18)
(-0.0455609 -0.00342224 -3.71944e-18)
(-0.0487842 -0.00381991 3.56781e-18)
(-0.0521154 -0.0043016 6.01853e-36)
(-0.0556046 -0.00472107 0)
(-0.0592949 -0.00504228 3.15563e-18)
(-0.0632344 -0.00541984 3.02913e-18)
(-0.0674247 -0.0058281 3.00927e-36)
(-0.071908 -0.00626214 0)
(-0.076724 -0.00671891 0)
(-0.0819189 -0.00721078 -1.34712e-34)
(-0.0875405 -0.00775035 -1.00058e-34)
(-0.0936596 -0.00834926 1.32408e-34)
(-0.10033 -0.00901143 -4.15789e-18)
(-0.107694 -0.00973137 -3.81212e-18)
(-0.116757 -0.0106241 6.01853e-36)
(-0.127574 -0.0116273 6.13666e-18)
(-0.138429 -0.0127341 1.03491e-17)
(-0.153654 -0.0139274 -6.01853e-36)
(-0.162854 -0.0152944 -5.09807e-18)
(-0.191967 -0.0169822 1.80556e-35)
)
;
    }
    frontAndBack
    {
        type            empty;
    }
}


// ************************************************************************* //
