/*--------------------------------*- C++ -*----------------------------------*\
  =========                 |
  \\      /  F ield         | OpenFOAM: The Open Source CFD Toolbox
   \\    /   O peration     | Website:  https://openfoam.org
    \\  /    A nd           | Version:  8
     \\/     M anipulation  |
\*---------------------------------------------------------------------------*/
FoamFile
{
    version     2.0;
    format      ascii;
    class       volVectorField;
    location    "3500";
    object      wallShearStress;
}
// * * * * * * * * * * * * * * * * * * * * * * * * * * * * * * * * * * * * * //

dimensions      [0 2 -2 0 0 0 0];

internalField   uniform (0 0 0);

boundaryField
{
    inlet
    {
        type            calculated;
        value           uniform (0 0 0);
    }
    outlet
    {
        type            calculated;
        value           uniform (0 0 0);
    }
    upperWall
    {
        type            calculated;
        value           nonuniform List<vector> 
223
(
(-0.582193 -0.392359 0)
(-0.977814 -0.219377 0)
(-0.939335 -0.0567746 0)
(-0.81071 -0.00585779 0)
(-0.734594 0.00331368 0)
(-0.695452 0.00231536 0)
(-0.67094 0.000424034 0)
(-0.653508 -0.00144894 0)
(-0.640532 -0.00256387 0)
(-0.629821 -0.00218274 0)
(-0.620058 -0.0013098 0)
(-0.610955 -0.00110759 0)
(-0.603058 -0.00143383 0)
(-0.596109 -0.00123621 0)
(-0.59031 -0.00116451 0)
(-0.585589 -0.000792725 0)
(-0.580194 0.00120244 0)
(-0.574503 0.00275371 0)
(-0.570493 0.00152382 0)
(-0.567596 0.00112728 4.21624e-22)
(-0.564697 0.00162712 0)
(-0.561854 0.00208632 0)
(-0.558906 0.0031629 0)
(-0.555555 0.00369034 4.49435e-22)
(-0.552533 0.00367983 0)
(-0.549818 0.00345636 0)
(-0.547069 0.0037508 0)
(-0.544119 0.0037914 -9.43006e-22)
(-0.54125 0.00329328 9.51315e-22)
(-0.538563 0.00289462 9.59995e-22)
(-0.535863 0.00257291 0)
(-0.533181 0.00225618 -9.79014e-22)
(-0.530529 0.00195352 0)
(-0.527908 0.00172534 1.00136e-21)
(-0.525279 0.00154511 1.01366e-21)
(-0.52264 0.00141031 -1.02661e-21)
(-0.519981 0.00130403 0)
(-0.517305 0.00122271 0)
(-0.514605 0.00116182 0)
(-0.511879 0.00111638 0)
(-0.509127 0.00108308 -1.09238e-21)
(-0.506344 0.00105933 0)
(-0.503527 0.00104301 0)
(-0.500676 0.00103272 1.13235e-21)
(-0.497786 0.00102741 0)
(-0.494854 0.00102617 1.15852e-21)
(-0.491876 0.00102826 -1.17131e-21)
(-0.488851 0.00103307 1.18386e-21)
(-0.485773 0.0010404 0)
(-0.482641 0.00104887 0)
(-0.479455 0.00105796 0)
(-0.476216 0.00106662 1.2308e-21)
(-0.472929 0.00107362 -1.24141e-21)
(-0.469606 0.00107926 0)
(-0.466262 0.00108467 0)
(-0.462911 0.00109019 0)
(-0.459566 0.00109502 0)
(-0.456231 0.00109798 0)
(-0.452907 0.00109828 0)
(-0.449589 0.00109613 0)
(-0.446269 0.00109203 0)
(-0.442937 0.00108699 1.29202e-21)
(-0.439582 0.00108225 -1.29182e-21)
(-0.436194 0.00107866 0)
(-0.43276 0.00107689 0)
(-0.429269 0.00107708 0)
(-0.425715 0.00107929 -1.27846e-21)
(-0.422087 0.00108346 0)
(-0.418379 0.0010893 0)
(-0.414586 0.00109649 0)
(-0.410702 0.00110452 0)
(-0.406726 0.00111301 0)
(-0.402654 0.0011215 -2.43449e-21)
(-0.398485 0.00112936 0)
(-0.394222 0.00113602 0)
(-0.389867 0.00114113 0)
(-0.385425 0.00114431 0)
(-0.380907 0.00114547 0)
(-0.376321 0.00114457 0)
(-0.371682 0.0011413 0)
(-0.367001 0.00113534 2.09542e-21)
(-0.362288 0.00112651 0)
(-0.357551 0.00111495 0)
(-0.352795 0.00110106 0)
(-0.348022 0.00108525 -1.83976e-21)
(-0.343232 0.0010681 0)
(-0.338423 0.00105031 -1.69032e-21)
(-0.333591 0.00103237 0)
(-0.328732 0.00101528 0)
(-0.323838 0.000999835 0)
(-0.319025 0.000992012 -1.35111e-21)
(-0.316385 0.00100112 0)
(-0.313661 0.00101502 1.18063e-21)
(-0.310856 0.00102969 1.08994e-21)
(-0.307976 0.00104292 0)
(-0.305031 0.00105378 8.96233e-22)
(-0.302034 0.00106261 0)
(-0.298997 0.00106978 0)
(-0.295935 0.00107759 0)
(-0.292863 0.00108343 -4.54758e-22)
(-0.289793 0.00109695 0)
(-0.286741 0.00109698 -2.05288e-22)
(-0.283712 0.00110445 7.33164e-23)
(-0.28073 0.00111711 0)
(-0.277793 0.00111714 0)
(-0.274916 0.00110927 0)
(-0.272097 0.00107072 0)
(-0.269364 0.00104267 0)
(-0.266714 0.00127992 0)
(-0.26423 0.0013428 0)
(-0.261724 0.00090877 1.14755e-21)
(-0.259228 0.000567102 0)
(-0.256884 0.000606037 0)
(-0.254609 0.000914082 0)
(-0.252386 0.00107521 0)
(-0.250377 0.00100835 0)
(-0.248316 0.000986721 0)
(-0.246371 0.00134605 0)
(-0.244474 0.00102917 0)
(-0.242248 0.000448686 0)
(-0.240512 0.000579277 0)
(-0.238712 0.00106028 0)
(-0.237064 0.00133999 0)
(-0.235656 0.00119959 7.11358e-21)
(-0.234043 0.00114534 0)
(-0.232534 0.00100466 0)
(-0.231093 0.00106378 0)
(-0.229774 0.00048126 -8.72357e-21)
(-0.227817 -0.000257483 0)
(-0.226009 -0.000184893 0)
(-0.22441 7.08521e-05 -1.0098e-20)
(-0.222736 0.000323134 0)
(-0.22153 0.00032692 1.09154e-20)
(-0.220277 0.0002933 0)
(-0.218998 0.000357191 0)
(-0.218017 0.000411358 0)
(-0.216441 0.000381727 -1.2636e-20)
(-0.215309 0.000390506 0)
(-0.214109 0.000473839 1.34184e-20)
(-0.213079 0.000425398 0)
(-0.211771 0.000395622 0)
(-0.210527 0.000401853 0)
(-0.209595 0.000366854 0)
(-0.208739 0.000371832 0)
(-0.20801 0.000400895 0)
(-0.207206 0.000396287 0)
(-0.206042 0.000357397 0)
(-0.205312 0.000352694 0)
(-0.204554 0.000373829 0)
(-0.203716 0.000419301 0)
(-0.202815 0.000334732 1.8483e-20)
(-0.202252 0.000288764 -1.88282e-20)
(-0.20155 0.000359462 0)
(-0.200769 0.000297255 0)
(-0.200448 0.00032912 0)
(-0.199596 0.000369116 0)
(-0.199034 0.000429385 -2.09155e-20)
(-0.198492 0.000417441 2.13257e-20)
(-0.198083 0.000407291 -2.16859e-20)
(-0.197346 0.000807467 0)
(-0.19699 0.000452871 -2.24867e-20)
(-0.196257 -0.000106371 -4.62046e-20)
(-0.195541 6.26693e-05 0)
(-0.195452 0.000174477 -4.75424e-20)
(-0.194822 0.000206621 4.86069e-20)
(-0.194464 0.000288531 0)
(-0.194212 0.000381758 0)
(-0.19367 0.000356659 0)
(-0.193354 0.000647823 0)
(-0.19302 0.000410351 0)
(-0.192194 -0.000161288 -5.38137e-20)
(-0.19183 -2.11107e-05 0)
(-0.191429 0.000118566 -5.54023e-20)
(-0.191293 0.000184453 0)
(-0.190715 0.000247211 0)
(-0.190075 0.000169438 0)
(-0.190068 0.000213157 0)
(-0.189123 0.000303403 0)
(-0.188579 0.000333596 6.08386e-20)
(-0.187984 0.000392428 0)
(-0.187464 0.000645852 0)
(-0.186798 0.000469777 -6.37984e-20)
(-0.185649 0.000113851 0)
(-0.184359 0.000188806 0)
(-0.183682 0.000208921 0)
(-0.182754 0.000268477 6.89813e-20)
(-0.181605 0.000299872 0)
(-0.180596 0.000438667 0)
(-0.178602 0.000481944 0)
(-0.177411 0.000649959 0)
(-0.175366 0.00100635 -7.68073e-20)
(-0.173328 0.000959121 0)
(-0.171058 0.000933073 0)
(-0.166996 0.000986884 0)
(-0.162958 0.00103837 8.75722e-20)
(-0.156149 0.00136981 0)
(-0.148936 0.00230076 0)
(-0.123908 0.00224607 -1.07754e-19)
(-0.141635 0.0066653 6.01853e-36)
(-0.16974 0.0131947 1.25323e-17)
(-0.187009 0.0170629 2.35793e-17)
(-0.19354 0.0188607 2.26864e-17)
(-0.197036 0.0197 2.19982e-17)
(-0.200586 0.0202738 2.12557e-17)
(-0.205247 0.0209744 -2.02548e-17)
(-0.209637 0.0215128 -1.95334e-17)
(-0.213883 0.0218729 0)
(-0.218127 0.0220193 -3.66614e-17)
(-0.220257 0.0221818 -1.80763e-17)
(-0.224713 0.0227216 6.92131e-34)
(-0.227511 0.0229041 0)
(-0.231079 0.0233611 -3.22682e-17)
(-0.235462 0.0239474 -3.06545e-17)
(-0.242443 0.0247958 -2.84631e-17)
(-0.249622 0.0254557 0)
(-0.256932 0.0260699 4.94005e-17)
(-0.263935 0.0266563 2.26556e-17)
(-0.271716 0.0273464 0)
(-0.281082 0.0281716 -3.51287e-17)
(-0.290387 0.0289014 -1.52851e-20)
(-0.300208 0.0295022 -3.00927e-36)
(-0.305084 0.0304943 1.34163e-17)
(-0.332329 0.0321454 -7.64413e-18)
)
;
    }
    lowerWall
    {
        type            calculated;
        value           nonuniform List<vector> 
250
(
(-0.653909 0.466638 0)
(-1.14095 0.204678 0)
(-1.03492 0.0379586 0)
(-0.869573 -0.000935999 0)
(-0.786941 -0.00419163 0)
(-0.746063 -0.00160783 0)
(-0.719878 0.000416192 0)
(-0.700646 -0.000651799 0)
(-0.685089 -0.004056 0)
(-0.671319 -0.00471231 0)
(-0.658934 -0.00298831 0)
(-0.647721 -0.000864299 0)
(-0.637518 0.0014261 0)
(-0.628192 0.00210399 0)
(-0.619325 0.00136799 0)
(-0.611527 0.00135809 0)
(-0.604592 0.00169577 0)
(-0.605069 0.00194934 0)
(-0.00423428 -0.022826 0)
(-0.00275823 -0.0176406 0)
(-0.000680718 -0.0144889 0)
(0.00193612 -0.0137969 9.02642e-20)
(0.00525252 -0.0152097 -7.86666e-20)
(0.00894519 -0.020825 6.28663e-20)
(0.0127246 -0.020057 -4.84865e-20)
(0.0256546 -0.0632865 0)
(-0.0839665 -0.144713 0)
(0.000872916 -0.0038407 0)
(-0.00766513 0.00954582 0)
(-0.00851627 0.0328207 0)
(-0.00254992 0.044855 0)
(0.00295282 0.0442618 1.82221e-20)
(0.00618219 0.0360642 -1.89654e-20)
(0.00818668 0.0241628 0)
(0.00945998 0.0101628 -5.42255e-20)
(0.00943133 -0.00403983 6.11432e-20)
(0.00793314 -0.0174196 0)
(0.00614113 -0.0291918 0)
(0.00438167 -0.0385591 0)
(0.00268703 -0.045136 0)
(0.000986125 -0.0488745 0)
(-0.000886741 -0.0495099 0)
(-0.00281883 -0.0463928 0)
(-0.00439741 -0.0399043 0)
(-0.00491311 -0.0307441 0)
(0.00132868 -0.00151235 0)
(0.00133819 0.00652717 0)
(-0.00450899 0.00961861 0)
(-0.00959695 0.00975657 0)
(-0.013383 0.00829966 0)
(-0.0158893 0.00623539 0)
(-0.0172643 0.00409781 1.49569e-21)
(-0.0177831 0.00200633 -1.52729e-21)
(-0.0173317 -6.76996e-06 0)
(-0.0160542 -0.00168606 -1.65302e-21)
(-0.0141889 -0.00283743 0)
(-0.0120508 -0.00329642 0)
(-0.0100511 -0.00303594 -0)
(-0.00855337 -0.00228038 2.57018e-21)
(-0.00761663 -0.00142314 0)
(-0.00693837 -0.000815872 0)
(-0.00612094 -0.000623355 -3.37798e-21)
(-0.00499338 -0.0010002 0)
(-0.00340918 -0.0023852 0)
(-0.000489933 -0.00505663 0)
(0.00435898 -0.00740301 3.03354e-21)
(0.00994381 -0.00889474 0)
(0.0158448 -0.00984969 1.46925e-21)
(0.0218901 -0.0106166 0)
(0.0280958 -0.0112687 -0)
(0.0344063 -0.0115142 8.44718e-22)
(0.0405387 -0.0113546 0)
(0.0491453 -0.0116031 -7.54028e-22)
(0.0589353 -0.0117551 -0)
(0.0686295 -0.0115827 7.70689e-22)
(0.0780385 -0.0111689 0)
(0.0870114 -0.0105841 0)
(0.0954559 -0.00989015 0)
(0.103314 -0.00913667 -0)
(0.110561 -0.0083608 0)
(0.117194 -0.00758964 -8.11144e-22)
(0.123227 -0.00684049 -0)
(0.128683 -0.00612277 1.63307e-21)
(0.133588 -0.0054406 0)
(0.137971 -0.00479422 -1.63494e-21)
(0.141856 -0.00418215 -0)
(0.145269 -0.00360156 -0)
(0.14823 -0.00304964 1.62104e-21)
(0.150756 -0.00252425 0)
(0.152862 -0.00202419 1.60082e-21)
(0.154559 -0.00155037 -1.58751e-21)
(0.155861 -0.00110641 -0)
(0.15678 -0.000698965 -1.55489e-21)
(0.157326 -0.000337933 -1.53586e-21)
(0.157512 -3.98846e-05 -0)
(0.157407 0.000194678 0)
(0.157076 0.000391397 0)
(0.156521 0.00056811 0)
(0.15576 0.00073102 -0)
(0.1548 0.000884145 1.37581e-21)
(0.153648 0.00102827 0)
(0.152312 0.00116395 -1.30703e-21)
(0.150799 0.00129161 -0)
(0.149116 0.00141121 -0)
(0.147271 0.00152277 1.19059e-21)
(0.145272 0.00162637 0)
(0.143126 0.00172188 -1.10489e-21)
(0.140843 0.00180926 -0)
(0.138429 0.00188855 0)
(0.135896 0.00195983 -0)
(0.13325 0.00202306 9.16876e-22)
(0.130502 0.00207843 0)
(0.12766 0.00212604 -0)
(0.124734 0.00216594 7.63839e-22)
(0.121733 0.00219844 0)
(0.118666 0.0022237 6.5731e-22)
(0.115543 0.0022419 0)
(0.112371 0.0022533 0)
(0.109161 0.00225827 0)
(0.105921 0.00225704 -4.36238e-22)
(0.102658 0.00224985 -0)
(0.0993816 0.0022371 0)
(0.0960992 0.0022191 -2.65644e-22)
(0.0928179 0.00219621 -2.08196e-22)
(0.089545 0.0021687 -0)
(0.0862876 0.00213696 -9.27342e-23)
(0.0830517 0.0021014 -0)
(0.0798434 0.00206236 4.64339e-23)
(0.0766683 0.00202028 -0)
(0.0735313 0.00197551 2.78842e-22)
(0.0704376 0.00192859 0)
(0.0673907 0.00188009 -5.11517e-22)
(0.0643951 0.00183072 -0)
(0.0614536 0.00178154 0)
(0.0585689 0.00173378 -0)
(0.0557429 0.00168919 9.78271e-22)
(0.0529771 0.00164986 0)
(0.0502719 0.00161802 -1.2137e-21)
(0.0476258 0.00159478 0)
(0.045786 0.00160338 1.47542e-21)
(0.0442438 0.00162092 1.63391e-21)
(0.0427048 0.00162587 1.79882e-21)
(0.0411774 0.00161301 0)
(0.039667 0.00158966 0)
(0.0381734 0.00156396 0)
(0.0366952 0.00153818 0)
(0.0352323 0.00151246 0)
(0.0337852 0.00148686 0)
(0.0323542 0.00146137 0)
(0.0309402 0.00143611 0)
(0.0295433 0.00141132 -3.69141e-21)
(0.0281639 0.00138712 -3.96701e-21)
(0.0268023 0.00136368 0)
(0.0254584 0.00134069 0)
(0.0241329 0.00131663 0)
(0.0228272 0.00129172 -5.26678e-21)
(0.0215411 0.00126751 0)
(0.0202745 0.00124386 0)
(0.0190275 0.0012208 0)
(0.0178001 0.00119835 0)
(0.0165925 0.00117661 7.53497e-21)
(0.0154047 0.00115565 0)
(0.0142366 0.00113556 0)
(0.013088 0.00111643 -9.45337e-21)
(0.011959 0.00109832 1.02307e-20)
(0.0108495 0.0010813 0)
(0.00975935 0.00106567 1.20665e-20)
(0.00868854 0.00105207 0)
(0.00763672 0.00104168 -1.44042e-20)
(0.00660315 0.00103479 0)
(0.00558756 0.00103038 0)
(0.00458985 0.00102816 0)
(0.0036096 0.00102844 0)
(0.00264641 0.00103147 0)
(0.00170067 0.0010372 5.5692e-20)
(0.000773913 0.00104279 6.41968e-20)
(-0.00013589 0.00103016 0)
(-0.00103316 0.000987421 0)
(-0.00191499 0.000935051 0)
(-0.00278133 0.000885565 -5.29029e-20)
(-0.00363206 0.000840651 0)
(-0.00446701 0.000799912 0)
(-0.00528653 0.000762852 0)
(-0.00609122 0.000728983 -4.04227e-20)
(-0.00688164 0.000697845 3.83719e-20)
(-0.00765828 0.000669061 0)
(-0.00842162 0.000642319 0)
(-0.00917209 0.000617378 3.36221e-20)
(-0.00991013 0.00059404 3.23813e-20)
(-0.0106362 0.000572138 0)
(-0.0113506 0.00055154 0)
(-0.0120539 0.000532132 -2.93552e-20)
(-0.0127465 0.000513815 2.85272e-20)
(-0.0134288 0.000496511 0)
(-0.0141012 0.000480144 0)
(-0.0147641 0.000464658 2.64369e-20)
(-0.0154181 0.000449999 0)
(-0.0160635 0.000436122 0)
(-0.0167008 0.000422982 2.47912e-20)
(-0.0173304 0.000410545 0)
(-0.0179529 0.00039878 2.38751e-20)
(-0.0185686 0.000387648 0)
(-0.019178 0.00037713 0)
(-0.0197817 0.000367189 0)
(-0.0203799 0.000357784 -2.23591e-20)
(-0.0209732 0.000348912 0)
(-0.0215623 0.000340493 0)
(-0.0221469 0.000332497 0)
(-0.022728 0.000324867 0)
(-0.0233054 0.000317486 0)
(-0.0238792 0.000310276 0)
(-0.0244493 0.000303078 -2.03857e-20)
(-0.0250153 0.000295716 -2.01553e-20)
(-0.0255766 0.000287875 0)
(-0.0261312 0.00027921 0)
(-0.0266776 0.000269176 0)
(-0.0272118 0.000257026 1.93604e-20)
(-0.0277291 0.000241568 0)
(-0.0282211 0.00022133 -3.81348e-20)
(-0.028678 0.000192263 3.79284e-20)
(-0.029071 0.000152639 3.78193e-20)
(-0.0294023 7.79087e-05 -3.78578e-20)
(-0.0294839 -3.93799e-05 3.8045e-20)
(-0.0295085 -0.000356551 -3.83972e-20)
(-0.0279738 -0.000616867 0)
(-0.0293466 -0.000516218 -2.43315e-18)
(-0.0327701 -0.00134243 -2.26974e-18)
(-0.0364139 -0.00203342 3.00927e-36)
(-0.0395345 -0.00257613 -4.06085e-18)
(-0.0424847 -0.00301865 -7.75771e-18)
(-0.0455568 -0.00342182 -3.71965e-18)
(-0.0487807 -0.00381946 3.56774e-18)
(-0.0521078 -0.00429567 1.80556e-35)
(-0.0556158 -0.00470122 0)
(-0.0592909 -0.00508928 3.1574e-18)
(-0.0632433 -0.00549036 3.01755e-18)
(-0.0674452 -0.00582276 3.00927e-36)
(-0.0719304 -0.00623501 0)
(-0.0767424 -0.00669791 0)
(-0.0819311 -0.00719507 -1.17079e-34)
(-0.0875479 -0.0077404 -7.31157e-35)
(-0.0936638 -0.0083436 1.20371e-34)
(-0.100333 -0.00900837 -4.15814e-18)
(-0.107695 -0.00972993 -3.81235e-18)
(-0.116757 -0.0106234 1.20371e-35)
(-0.127573 -0.011627 6.13695e-18)
(-0.138428 -0.0127337 1.03497e-17)
(-0.153653 -0.013927 6.01853e-36)
(-0.162852 -0.0152938 -5.09833e-18)
(-0.191967 -0.0169815 -1.80556e-35)
)
;
    }
    frontAndBack
    {
        type            empty;
    }
}


// ************************************************************************* //
