/*--------------------------------*- C++ -*----------------------------------*\
  =========                 |
  \\      /  F ield         | OpenFOAM: The Open Source CFD Toolbox
   \\    /   O peration     | Website:  https://openfoam.org
    \\  /    A nd           | Version:  8
     \\/     M anipulation  |
\*---------------------------------------------------------------------------*/
FoamFile
{
    version     2.0;
    format      ascii;
    class       volScalarField;
    location    "1700";
    object      k;
}
// * * * * * * * * * * * * * * * * * * * * * * * * * * * * * * * * * * * * * //

dimensions      [0 2 -2 0 0 0 0];

internalField   nonuniform List<scalar> 
12225
(
1.32731
1.78318
1.88602
1.88908
1.73694
1.68811
1.36834
2.86756
2.3996
1.78333
1.83142
1.36782
2.23382
1.85836
1.44631
2.50644
2.0371
2.4383
0.557417
0.630975
0.654352
0.675005
0.678835
0.70919
0.688384
0.751732
0.78305
0.805739
0.824057
0.806812
0.842093
0.868184
0.879061
0.916821
0.948494
0.964812
0.548465
0.550575
0.547975
0.532888
0.518178
0.505249
0.495662
0.491287
0.49114
0.489651
0.485443
0.480515
0.474817
0.474724
0.473513
0.474865
0.478711
0.479543
0.54803
0.544938
0.540752
0.531111
0.521539
0.512842
0.506963
0.502063
0.49776
0.492568
0.486915
0.480552
0.474328
0.468404
0.463495
0.458565
0.454188
0.44962
0.548234
0.544929
0.541053
0.534784
0.528644
0.522988
0.518667
0.514785
0.511281
0.507169
0.502985
0.498191
0.493637
0.48871
0.48444
0.479694
0.475644
0.470933
0.548209
0.545191
0.541536
0.537053
0.532663
0.528502
0.525038
0.521785
0.518792
0.515528
0.51227
0.508692
0.505253
0.501545
0.498161
0.494442
0.491161
0.487439
0.548241
0.545117
0.541836
0.538231
0.534713
0.53133
0.528325
0.525469
0.522791
0.520028
0.517298
0.514431
0.511647
0.508733
0.505984
0.503061
0.500391
0.497472
0.548265
0.545053
0.541905
0.538664
0.535519
0.532491
0.529706
0.527053
0.524541
0.522027
0.519566
0.517059
0.514619
0.512127
0.509745
0.507276
0.504978
0.502534
0.548277
0.545012
0.541904
0.538832
0.535876
0.533034
0.530374
0.527837
0.525427
0.523063
0.520769
0.518484
0.516266
0.514043
0.511906
0.509737
0.507695
0.505572
0.548283
0.544985
0.541873
0.538876
0.536014
0.533278
0.530693
0.528232
0.525889
0.523624
0.521442
0.51931
0.517251
0.515224
0.513275
0.511333
0.509492
0.50762
0.548284
0.544968
0.54184
0.538862
0.536033
0.533341
0.530789
0.528362
0.526054
0.523842
0.521725
0.519683
0.517723
0.515821
0.513996
0.512211
0.510509
0.508821
0.548283
0.544959
0.541816
0.538835
0.536009
0.533325
0.530778
0.528358
0.526058
0.523865
0.521773
0.519772
0.517859
0.516021
0.514264
0.512567
0.510947
0.509372
0.548281
0.544952
0.5418
0.538812
0.53598
0.53329
0.530739
0.528313
0.526009
0.523815
0.521726
0.519733
0.517834
0.516019
0.514286
0.512627
0.511042
0.509521
0.548279
0.544947
0.541789
0.538796
0.535956
0.533261
0.530701
0.528269
0.525957
0.523757
0.521662
0.519667
0.517765
0.515953
0.514223
0.512572
0.510995
0.50949
0.548278
0.544943
0.541782
0.538784
0.53594
0.533239
0.530674
0.528235
0.525917
0.523711
0.52161
0.519609
0.517703
0.515885
0.514152
0.512499
0.51092
0.509414
0.548277
0.544942
0.541777
0.538776
0.535928
0.533224
0.530654
0.528212
0.525889
0.523678
0.521573
0.519567
0.517657
0.515835
0.514097
0.51244
0.510858
0.509348
0.548277
0.54494
0.541775
0.538772
0.535921
0.533214
0.530642
0.528197
0.52587
0.523657
0.521549
0.51954
0.517626
0.515801
0.514061
0.512401
0.510816
0.509303
0.548278
0.544939
0.541774
0.538769
0.535919
0.53321
0.530638
0.52819
0.525864
0.523648
0.52154
0.519529
0.517614
0.515787
0.514046
0.512384
0.510799
0.509284
0.548277
0.544941
0.541775
0.538772
0.53592
0.533214
0.53064
0.528196
0.525867
0.523653
0.521543
0.519535
0.517618
0.515793
0.51405
0.512389
0.510803
0.509289
0.548278
0.544942
0.541778
0.538776
0.535928
0.533222
0.530652
0.528206
0.525882
0.523667
0.52156
0.519551
0.517637
0.51581
0.514069
0.512406
0.510819
0.509302
0.548279
0.544945
0.541784
0.538785
0.535939
0.533237
0.530668
0.528226
0.525902
0.52369
0.521582
0.519571
0.517654
0.515823
0.514074
0.512402
0.510803
0.509273
0.54828
0.54495
0.541793
0.538798
0.535955
0.533254
0.530684
0.52824
0.52591
0.52369
0.521568
0.519542
0.517598
0.515738
0.513951
0.512237
0.510587
0.509003
0.548282
0.54496
0.541806
0.538812
0.535962
0.533246
0.53065
0.528173
0.525802
0.523534
0.521354
0.519256
0.517228
0.515267
0.513366
0.511525
0.509738
0.508005
0.548292
0.544983
0.541816
0.538785
0.535871
0.533071
0.530362
0.527759
0.525255
0.522848
0.520512
0.518242
0.51601
0.51382
0.511664
0.50955
0.507475
0.505444
0.548345
0.545027
0.541752
0.538533
0.535401
0.532362
0.529349
0.526447
0.52366
0.520998
0.518372
0.515771
0.513146
0.510528
0.507901
0.505303
0.502723
0.500187
0.548546
0.545115
0.541437
0.537689
0.534105
0.530522
0.52689
0.523455
0.520196
0.517133
0.514014
0.510858
0.507547
0.504198
0.50077
0.497378
0.493973
0.490663
0.549218
0.545469
0.540729
0.535943
0.531656
0.526985
0.522273
0.517988
0.51404
0.510442
0.506558
0.502531
0.498121
0.493633
0.489026
0.484486
0.480061
0.475774
0.551941
0.548205
0.541719
0.536034
0.531397
0.525179
0.519358
0.514037
0.509822
0.506358
0.502497
0.498378
0.493946
0.489392
0.48504
0.480699
0.477212
0.473668
0.571221
0.582577
0.588391
0.597179
0.605302
0.609683
0.615333
0.621446
0.629919
0.638792
0.648574
0.657681
0.668208
0.677234
0.686703
0.694606
0.704055
0.711239
1.01927
1.24987
1.43486
1.53651
1.58957
1.59229
1.58418
1.56351
1.53403
1.50285
1.47219
1.44302
1.41595
1.3911
1.36847
1.34791
1.32931
1.31269
1.98524e-08
4.86473e-07
2.48118e-06
9.78907e-06
3.26516e-05
9.91491e-05
0.000257683
0.00051168
0.000827515
0.00116016
0.00145846
0.00169067
0.00184607
0.00190758
0.00188538
0.00181297
0.00167254
0.00143739
0.00122852
0.0010482
0.000876174
0.000708453
0.000544906
0.000392901
0.000256388
0.00014999
7.919e-05
3.95214e-05
1.99234e-05
1.07898e-05
6.53291e-06
4.98402e-06
5.60339e-06
1.20337e-05
2.62284e-05
0.000160927
0.000361463
0.000797027
0.00119047
0.00128755
0.00118919
0.000953282
0.000808726
0.000810417
0.000890144
0.00119373
0.00160811
0.00331549
0.00753127
0.0232203
0.0576566
0.0897886
0.10666
0.116257
0.135375
0.139134
0.149284
0.139372
0.15319
0.169889
0.139422
0.162124
0.170047
0.179531
0.189222
0.19758
0.206663
0.214841
0.223329
0.231341
0.239428
0.247263
0.255068
0.262728
0.270317
0.277808
0.285215
0.292541
0.299779
0.30694
0.314013
0.321004
0.327907
0.33472
0.341445
0.348069
0.354599
0.361015
0.367325
0.373508
0.379563
0.385481
0.39125
0.396862
0.402305
0.407572
0.412661
0.417574
0.422345
0.427027
0.431575
0.435964
0.440217
0.444318
0.448273
0.452072
0.455716
0.459198
0.462517
0.465669
0.46865
0.471459
0.47409
0.476546
0.478818
0.480912
0.482817
0.484542
0.486075
0.487428
0.488585
0.489562
0.490342
0.490942
0.491345
0.491565
0.491582
0.491481
0.491278
0.490675
0.490081
0.48917
0.488245
0.487203
0.486013
0.484622
0.48294
0.481134
0.47915
0.477037
0.474787
0.472413
0.46992
0.467313
0.464603
0.461799
0.458929
0.455904
0.452869
0.449668
0.446484
0.443131
0.439826
0.436349
0.432958
0.429402
0.425905
0.422365
0.418828
0.415297
0.411776
0.408272
0.404787
0.401326
0.397893
0.394497
0.391144
0.387843
0.3846
0.381419
0.378299
0.375238
0.372213
0.369199
0.366141
0.362969
0.359554
0.355544
0.350326
0.333404
8.03859e-08
2.2507e-06
1.53027e-05
6.75568e-05
0.000252312
0.000774516
0.00179897
0.00327706
0.00498776
0.00674227
0.00834233
0.00965667
0.0106208
0.0112406
0.0115233
0.0114852
0.0112956
0.0109376
0.0103247
0.00948395
0.00841474
0.00717711
0.00581098
0.00443851
0.00308199
0.00204131
0.00129401
0.000799251
0.000483665
0.000295451
0.000188914
0.000140747
0.000107997
0.000182915
0.000238382
0.00167036
0.00366114
0.00748874
0.0107444
0.0125042
0.0124728
0.0121569
0.012329
0.0140125
0.0181553
0.0241941
0.0354892
0.0546596
0.0808353
0.10596
0.130252
0.148813
0.163625
0.177545
0.194894
0.210627
0.229628
0.247205
0.266937
0.285791
0.305013
0.326933
0.347394
0.367445
0.387577
0.407043
0.426478
0.445465
0.464326
0.482926
0.501383
0.519676
0.537849
0.555908
0.573869
0.591741
0.609526
0.627233
0.644855
0.662396
0.679849
0.697212
0.714478
0.731641
0.748693
0.765626
0.782431
0.799093
0.815602
0.831932
0.848078
0.86402
0.879741
0.895223
0.910437
0.925361
0.939957
0.954192
0.96802
0.98141
0.994508
1.00736
1.01993
1.03222
1.04423
1.05593
1.06732
1.07839
1.08913
1.09953
1.10957
1.11925
1.12855
1.13747
1.146
1.15413
1.16184
1.16914
1.17602
1.18246
1.18847
1.19403
1.19914
1.20379
1.20798
1.21171
1.21497
1.21777
1.22011
1.22197
1.22339
1.22418
1.22467
1.22489
1.22482
1.22432
1.22368
1.2226
1.22108
1.21916
1.21685
1.21416
1.2111
1.20768
1.20393
1.19986
1.19543
1.19074
1.18567
1.18038
1.17474
1.16889
1.16271
1.15636
1.14972
1.14291
1.13591
1.12876
1.12148
1.11408
1.10659
1.09902
1.09137
1.08365
1.07588
1.06808
1.06025
1.05241
1.04459
1.0368
1.02903
1.02128
1.01353
1.00572
0.997792
0.989645
0.981031
0.971632
0.959537
0.931225
2.21388e-07
6.65341e-06
5.11127e-05
0.000248454
0.000734966
0.0021016
0.00425837
0.00675888
0.00925835
0.0115226
0.0134108
0.0148654
0.0158848
0.0164957
0.0167549
0.0167178
0.0165255
0.0161519
0.015595
0.0149008
0.0140632
0.0130753
0.0119172
0.0105894
0.00911576
0.00743117
0.00568346
0.00411672
0.00276125
0.00183216
0.00125621
0.000944546
0.000710489
0.00105345
0.00175801
0.00707282
0.0151779
0.0239684
0.0304353
0.0341875
0.035877
0.0391467
0.0480933
0.0649208
0.0831568
0.102214
0.123639
0.145251
0.165719
0.187351
0.208776
0.230916
0.254798
0.281703
0.310308
0.339406
0.369111
0.398826
0.428805
0.458403
0.487726
0.516463
0.544419
0.571658
0.598363
0.624462
0.650112
0.675337
0.700236
0.724839
0.749205
0.773365
0.797353
0.821189
0.844888
0.868463
0.891918
0.915257
0.938478
0.961578
0.984553
1.0074
1.0301
1.05265
1.07504
1.09726
1.11929
1.14113
1.16276
1.18416
1.20531
1.22621
1.24683
1.26718
1.28723
1.30698
1.32641
1.34551
1.3643
1.38276
1.40089
1.41866
1.43607
1.45309
1.4697
1.4859
1.50166
1.51698
1.53184
1.54622
1.56011
1.57351
1.58639
1.59874
1.61056
1.62183
1.63254
1.64268
1.65224
1.66122
1.6696
1.67738
1.68454
1.69109
1.69702
1.70233
1.70701
1.71105
1.71447
1.71725
1.71941
1.72092
1.72179
1.72216
1.72212
1.72139
1.72013
1.71828
1.71586
1.71288
1.70936
1.7053
1.70074
1.69568
1.69014
1.68415
1.67767
1.6708
1.66345
1.65575
1.64759
1.63912
1.63023
1.62106
1.61151
1.60171
1.59164
1.58134
1.57085
1.56019
1.54938
1.53844
1.52738
1.51623
1.50498
1.49367
1.48232
1.47094
1.45958
1.44823
1.43693
1.42566
1.41441
1.40316
1.39185
1.38041
1.36865
1.35636
1.34163
1.31542
8.28291e-07
2.4913e-05
0.000196522
0.000821639
0.00235706
0.00557713
0.0093575
0.0130308
0.016219
0.0187412
0.02056
0.0217132
0.022318
0.0224266
0.0222909
0.0219224
0.0213369
0.0206338
0.0198443
0.0189847
0.0180559
0.0170541
0.0159609
0.0147537
0.0134158
0.0119223
0.0102913
0.00858782
0.00698077
0.00540298
0.00425007
0.00314411
0.00327546
0.00506474
0.0125093
0.0279541
0.0429629
0.0548916
0.0641392
0.0730642
0.0842651
0.0986006
0.114898
0.130955
0.147652
0.165817
0.186899
0.209139
0.233741
0.260569
0.289321
0.320152
0.352834
0.387016
0.421869
0.456937
0.491983
0.526825
0.561329
0.595284
0.628676
0.661344
0.693389
0.724791
0.755668
0.78605
0.816026
0.84565
0.874981
0.904066
0.932945
0.961651
0.990208
1.01863
1.04694
1.07513
1.10321
1.13117
1.15902
1.18674
1.21432
1.24176
1.26905
1.29616
1.32308
1.34981
1.37633
1.40262
1.42866
1.45444
1.47995
1.50516
1.53008
1.55467
1.57895
1.60289
1.62648
1.64971
1.67256
1.69502
1.71706
1.73866
1.7598
1.78046
1.80062
1.82026
1.83936
1.85791
1.87589
1.89329
1.91008
1.92626
1.9418
1.9567
1.97093
1.9845
1.99738
2.00956
2.02104
2.0318
2.04183
2.05113
2.05968
2.06749
2.07454
2.08082
2.08635
2.09111
2.0951
2.09833
2.10079
2.10247
2.10333
2.10361
2.10323
2.10206
2.10018
2.09759
2.09432
2.09037
2.08575
2.0805
2.07462
2.06814
2.06107
2.05344
2.04524
2.03653
2.02728
2.01756
2.00734
1.99669
1.98558
1.97408
1.96216
1.94991
1.93733
1.92447
1.91136
1.89803
1.88451
1.87082
1.85699
1.84303
1.82895
1.81479
1.80056
1.78631
1.77205
1.75782
1.74363
1.72951
1.71544
1.70143
1.68744
1.67347
1.65937
1.64502
1.62878
1.60468
2.84181e-06
8.52986e-05
0.000638155
0.00242304
0.00665218
0.0123104
0.0175542
0.0217414
0.0247075
0.0265575
0.0275127
0.0277757
0.0276215
0.0271668
0.0264389
0.0255841
0.0246565
0.0236947
0.0227205
0.0217425
0.0207556
0.01975
0.0187064
0.0176012
0.0164074
0.0150954
0.0136627
0.012159
0.0106867
0.00916153
0.00769709
0.00811559
0.0123525
0.0255193
0.0471106
0.0676662
0.0847174
0.0981043
0.109517
0.120808
0.132876
0.145984
0.160147
0.176509
0.19616
0.218702
0.24425
0.272408
0.303013
0.335572
0.369745
0.405243
0.441709
0.478793
0.516154
0.553586
0.590949
0.628134
0.665046
0.70157
0.737681
0.773307
0.808493
0.84324
0.877602
0.911617
0.945336
0.978803
1.01206
1.04514
1.07808
1.1109
1.14362
1.17624
1.20878
1.24124
1.2736
1.30586
1.33802
1.37006
1.40196
1.43371
1.4653
1.49671
1.52792
1.55891
1.58966
1.62017
1.6504
1.68035
1.70998
1.73929
1.76826
1.79688
1.82513
1.85299
1.88045
1.90748
1.93406
1.96017
1.98578
2.01086
2.03541
2.05938
2.08276
2.10553
2.12766
2.14915
2.16995
2.19007
2.20948
2.22815
2.24609
2.26327
2.27966
2.29527
2.31008
2.32407
2.33723
2.34956
2.36103
2.37165
2.3814
2.39027
2.39826
2.40537
2.41159
2.41692
2.42135
2.4249
2.42757
2.42928
2.43006
2.43018
2.42943
2.4278
2.42534
2.42205
2.41797
2.4131
2.40747
2.40109
2.39399
2.38619
2.37771
2.36857
2.35879
2.34839
2.3374
2.32583
2.31372
2.30109
2.28794
2.27433
2.26025
2.24577
2.23091
2.21571
2.20021
2.18445
2.16847
2.15228
2.13592
2.1194
2.10275
2.08599
2.06915
2.05227
2.03538
2.01852
2.00171
1.98499
1.96836
1.95184
1.93545
1.91918
1.90299
1.88679
1.86919
1.8459
9.08705e-06
0.000265783
0.0018874
0.00666922
0.0148989
0.0220762
0.0271621
0.030286
0.031912
0.0325148
0.0324363
0.0319798
0.0311231
0.0300808
0.0289399
0.0277661
0.0266036
0.0254796
0.0244057
0.0233808
0.0223939
0.0214284
0.0204583
0.0194525
0.0183789
0.0171727
0.015775
0.0141491
0.0126074
0.0125749
0.0149478
0.0240445
0.0432872
0.0685933
0.0925485
0.11183
0.125898
0.13626
0.145365
0.155074
0.166314
0.180688
0.198549
0.219779
0.244623
0.272536
0.303046
0.335555
0.369639
0.404952
0.441244
0.478303
0.515952
0.554031
0.592409
0.630986
0.669673
0.708387
0.747054
0.785586
0.823943
0.862082
0.899999
0.93769
0.975174
1.01247
1.04961
1.08663
1.12354
1.16037
1.19715
1.23388
1.27058
1.30725
1.34389
1.38048
1.41702
1.45349
1.48987
1.52615
1.5623
1.5983
1.63414
1.66979
1.70524
1.74045
1.7754
1.81009
1.84447
1.87854
1.91226
1.94563
1.97861
2.01119
2.04335
2.07507
2.10632
2.13707
2.1673
2.19698
2.22608
2.25458
2.28244
2.30966
2.33619
2.36201
2.3871
2.41144
2.43501
2.45777
2.47972
2.50083
2.52109
2.54047
2.55896
2.57655
2.59321
2.60894
2.62372
2.63754
2.6504
2.66227
2.67315
2.68303
2.69191
2.69979
2.70665
2.71249
2.71732
2.72114
2.72395
2.72567
2.72637
2.72627
2.72516
2.72306
2.72001
2.71603
2.71115
2.70538
2.69875
2.69128
2.68299
2.6739
2.66405
2.65344
2.64212
2.63009
2.6174
2.60405
2.5901
2.57555
2.56043
2.54478
2.52862
2.51198
2.49492
2.47748
2.45969
2.4416
2.42324
2.40465
2.38586
2.36688
2.34775
2.32849
2.30913
2.28973
2.27031
2.25092
2.2316
2.21237
2.19328
2.17435
2.15562
2.13714
2.11888
2.1008
2.08173
2.05824
2.93733e-05
0.000801462
0.00513105
0.0155634
0.0253493
0.0315661
0.0349672
0.036559
0.0369989
0.0367419
0.0359675
0.0347975
0.0334278
0.0319663
0.0304957
0.029075
0.0277404
0.026509
0.0253815
0.0243461
0.0233829
0.022463
0.0215509
0.0206001
0.0196565
0.0187989
0.0182157
0.0183856
0.0205421
0.02705
0.0410755
0.0639417
0.0893834
0.112991
0.131769
0.144789
0.153782
0.161405
0.16982
0.181406
0.196679
0.215768
0.238663
0.264954
0.294179
0.325584
0.358611
0.39285
0.428057
0.464075
0.500795
0.538145
0.576066
0.614503
0.653402
0.692708
0.732353
0.772261
0.812366
0.852603
0.892919
0.933269
0.973628
1.01398
1.05432
1.09466
1.135
1.17537
1.21577
1.25621
1.29671
1.33727
1.37789
1.41856
1.45926
1.49999
1.5407
1.58139
1.62203
1.66258
1.70301
1.74332
1.78345
1.8234
1.86312
1.9026
1.94181
1.98073
2.01931
2.05755
2.09541
2.13287
2.1699
2.20649
2.2426
2.2782
2.31327
2.34778
2.38169
2.41497
2.44759
2.47953
2.51075
2.54122
2.57093
2.59983
2.62789
2.65511
2.68143
2.70686
2.73135
2.7549
2.77748
2.79906
2.81964
2.83919
2.8577
2.87515
2.89153
2.90683
2.92103
2.93413
2.94612
2.95699
2.96673
2.97533
2.9828
2.98913
2.99432
2.99838
3.00131
3.00301
3.00361
3.00324
3.00175
2.99917
2.99552
2.99084
2.98515
2.97846
2.97082
2.96223
2.95274
2.94236
2.93113
2.91906
2.90619
2.89254
2.87814
2.86303
2.84723
2.83078
2.8137
2.79603
2.77778
2.75902
2.73978
2.72011
2.70006
2.67966
2.65896
2.638
2.61681
2.5954
2.57382
2.55209
2.53025
2.50835
2.48643
2.46455
2.44274
2.42105
2.39951
2.37819
2.35713
2.33641
2.31603
2.29597
2.2752
2.25081
8.90088e-05
0.00221573
0.0121697
0.026095
0.0345595
0.0389981
0.041063
0.0416467
0.0413113
0.0403066
0.0388181
0.0370793
0.0352326
0.0333896
0.0316319
0.0300126
0.0285574
0.0272701
0.0261387
0.0251418
0.0242512
0.0234321
0.0226066
0.0218336
0.0212879
0.0215063
0.0235112
0.0290848
0.0410426
0.0599889
0.0829077
0.105991
0.127079
0.143934
0.155771
0.163979
0.171301
0.180409
0.19276
0.209006
0.22918
0.252979
0.279941
0.30941
0.340744
0.373378
0.40699
0.441409
0.476556
0.512397
0.54892
0.586124
0.62401
0.662573
0.701787
0.74161
0.781993
0.82288
0.864211
0.905926
0.947973
0.990303
1.03288
1.07568
1.11868
1.16188
1.20528
1.24887
1.29266
1.33664
1.38082
1.42518
1.46972
1.5144
1.55922
1.60412
1.64909
1.69408
1.73905
1.78396
1.82878
1.87347
1.918
1.96233
2.00644
2.05029
2.09384
2.13708
2.17996
2.22245
2.26452
2.30616
2.34732
2.38798
2.4281
2.46766
2.50662
2.54495
2.5826
2.61955
2.65575
2.69119
2.72582
2.75961
2.79252
2.82454
2.85561
2.88573
2.91485
2.94295
2.97
2.99599
3.02089
3.04468
3.06733
3.08884
3.10917
3.12833
3.14629
3.16304
3.17857
3.19287
3.20594
3.21775
3.22831
3.2376
3.24564
3.25241
3.25791
3.26216
3.26516
3.2668
3.26727
3.26659
3.26468
3.26157
3.25729
3.25186
3.24532
3.23769
3.22899
3.21927
3.20854
3.19684
3.1842
3.17064
3.1562
3.14091
3.1248
3.10789
3.09024
3.07188
3.05282
3.03311
3.01278
2.99188
2.97047
2.94858
2.92626
2.90357
2.88054
2.85721
2.83362
2.8098
2.78577
2.76158
2.73727
2.71288
2.68848
2.66411
2.63982
2.61567
2.59169
2.56796
2.54455
2.52153
2.49895
2.4768
2.45412
2.42831
0.000232868
0.00524374
0.0220995
0.0354598
0.0422716
0.0454599
0.0465709
0.0463716
0.0453076
0.0435883
0.0415037
0.0392443
0.0369662
0.0347923
0.0328081
0.031065
0.0295865
0.0283757
0.0274252
0.0267133
0.026272
0.0261962
0.0265723
0.0278487
0.030427
0.0352987
0.0443379
0.0587489
0.0767447
0.0966961
0.116649
0.134563
0.149186
0.160291
0.168988
0.177391
0.187623
0.201037
0.218181
0.238997
0.263107
0.289971
0.318998
0.3496
0.381313
0.41385
0.447091
0.481006
0.515612
0.550939
0.587027
0.623916
0.661633
0.700187
0.73957
0.779763
0.820734
0.862438
0.904827
0.947848
0.991451
1.03559
1.08022
1.12531
1.17085
1.2168
1.26315
1.3099
1.35704
1.40455
1.45241
1.50061
1.54911
1.59789
1.64689
1.69608
1.7454
1.7948
1.84423
1.89362
1.94294
1.99214
2.04118
2.09002
2.13861
2.18693
2.23493
2.28258
2.32984
2.37668
2.42305
2.46894
2.5143
2.5591
2.60331
2.64689
2.6898
2.732
2.77345
2.81411
2.85394
2.89291
2.93097
2.9681
3.00425
3.03939
3.07349
3.1065
3.13841
3.16917
3.19877
3.22718
3.25438
3.28034
3.30504
3.32845
3.35057
3.37138
3.39086
3.40901
3.42581
3.44125
3.45532
3.46801
3.47932
3.48924
3.49777
3.5049
3.51065
3.51501
3.51801
3.51953
3.51978
3.51872
3.51633
3.51262
3.50764
3.50141
3.49397
3.48533
3.47553
3.46462
3.45261
3.43954
3.42545
3.41037
3.39433
3.37737
3.35951
3.3408
3.32128
3.30097
3.27992
3.25816
3.23574
3.2127
3.18911
3.165
3.14043
3.11545
3.09009
3.06441
3.03843
3.0122
2.98574
2.9591
2.93232
2.90547
2.87859
2.85174
2.82498
2.79836
2.77193
2.74578
2.71998
2.69464
2.66978
2.64543
2.6207
2.59319
0.000520324
0.0105803
0.0320251
0.0438563
0.0494029
0.0516936
0.0520564
0.0511764
0.049411
0.0470873
0.0444569
0.0417379
0.0391101
0.036712
0.0346378
0.0329426
0.0316512
0.0307368
0.0302729
0.0301336
0.0305419
0.0318043
0.0345644
0.0396389
0.0477699
0.0592622
0.0735461
0.0895258
0.106415
0.122965
0.137993
0.150819
0.161551
0.171033
0.180783
0.192353
0.206846
0.224665
0.245714
0.26961
0.295861
0.323953
0.353414
0.383858
0.415043
0.446863
0.479314
0.51244
0.546304
0.580976
0.616525
0.653006
0.690456
0.728903
0.768359
0.808821
0.850271
0.89268
0.93601
0.98022
1.02527
1.0711
1.1177
1.16501
1.213
1.26166
1.31096
1.36087
1.41138
1.46246
1.51408
1.56619
1.61876
1.67174
1.72505
1.77865
1.83245
1.8864
1.94041
1.99442
2.04836
2.10219
2.15585
2.20929
2.26247
2.31535
2.36788
2.42002
2.47173
2.52297
2.5737
2.62389
2.6735
2.72248
2.77081
2.81843
2.86531
2.9114
2.95665
3.00103
3.04448
3.08696
3.12844
3.16888
3.20823
3.24646
3.28352
3.31939
3.35402
3.38739
3.41947
3.45022
3.47964
3.50768
3.53433
3.55957
3.58337
3.60573
3.62664
3.64607
3.66403
3.6805
3.69546
3.70892
3.72087
3.7313
3.7402
3.74759
3.75347
3.75784
3.76071
3.76203
3.76195
3.76042
3.75745
3.75306
3.74729
3.74018
3.73174
3.72203
3.71106
3.69888
3.68553
3.67104
3.65545
3.6388
3.62112
3.60245
3.58282
3.56228
3.54086
3.5186
3.49554
3.47172
3.44719
3.42201
3.39624
3.36993
3.34312
3.31586
3.28819
3.26017
3.23183
3.20319
3.17431
3.14524
3.11602
3.08672
3.05738
3.02807
2.99885
2.96978
2.94091
2.91233
2.88413
2.85642
2.82924
2.80262
2.77575
2.74658
0.000989469
0.01814
0.0406519
0.0514987
0.0563279
0.0580224
0.0578378
0.056373
0.0540581
0.051234
0.0481909
0.0451792
0.0424054
0.0400271
0.0381587
0.0368748
0.0362915
0.036248
0.0369555
0.0386457
0.0416539
0.046342
0.0529903
0.061772
0.0725991
0.0851563
0.09884
0.112865
0.126536
0.139286
0.150871
0.16145
0.171726
0.182752
0.19559
0.210964
0.229159
0.250064
0.273351
0.29861
0.325434
0.353457
0.382382
0.412005
0.442232
0.473058
0.504537
0.53675
0.569791
0.603751
0.638704
0.67472
0.711854
0.750147
0.789628
0.830308
0.872186
0.91525
0.959477
1.00484
1.0513
1.09882
1.14737
1.19691
1.2474
1.29882
1.35113
1.40429
1.45828
1.51304
1.56854
1.62471
1.68149
1.7388
1.79657
1.85471
1.91314
1.97176
2.03048
2.08922
2.1479
2.20645
2.26482
2.32296
2.3808
2.4383
2.4954
2.55207
2.60825
2.6639
2.71899
2.77347
2.8273
2.88044
2.93284
2.98446
3.03525
3.08517
3.13416
3.18216
3.22914
3.27505
3.31984
3.36347
3.40591
3.4471
3.487
3.52558
3.5628
3.59863
3.63303
3.66598
3.69744
3.7274
3.75584
3.78272
3.80804
3.83178
3.85393
3.87447
3.89341
3.91073
3.92642
3.94048
3.95289
3.96365
3.97277
3.98025
3.98609
3.99031
3.99291
3.99389
3.99334
3.9912
3.98753
3.98234
3.97568
3.96757
3.95805
3.94716
3.93494
3.92143
3.90666
3.89068
3.87354
3.85527
3.83591
3.8155
3.79408
3.77169
3.74836
3.72413
3.69906
3.67318
3.64655
3.61925
3.59133
3.56283
3.53381
3.50432
3.47438
3.44406
3.41338
3.38238
3.35113
3.31966
3.28805
3.25634
3.22459
3.19286
3.16122
3.12972
3.09843
3.06744
3.03685
3.00676
2.97723
2.94832
2.91925
2.88823
0.00157757
0.025817
0.0489641
0.059273
0.0635928
0.0648268
0.0642046
0.0622905
0.0595701
0.0564433
0.0532484
0.0502695
0.0477411
0.0458432
0.044816
0.0445512
0.0451278
0.0466764
0.0493458
0.0532914
0.0586452
0.0654771
0.0737638
0.0833791
0.0940745
0.105464
0.117114
0.128644
0.139844
0.150665
0.161326
0.172356
0.184458
0.198268
0.214224
0.232471
0.252909
0.275283
0.299281
0.324598
0.350967
0.378172
0.406058
0.434545
0.463625
0.493345
0.523792
0.55507
0.587281
0.620523
0.654888
0.690456
0.727294
0.765459
0.804994
0.845928
0.888277
0.932046
0.977232
1.02382
1.07178
1.1211
1.17172
1.22363
1.27677
1.3311
1.38659
1.44319
1.50084
1.5595
1.61909
1.67952
1.74071
1.80254
1.86493
1.92776
1.99094
2.05436
2.11789
2.18144
2.24492
2.30826
2.37139
2.43424
2.49675
2.55885
2.6205
2.68164
2.74222
2.80221
2.86156
2.92023
2.97817
3.03533
3.09167
3.14713
3.20167
3.25524
3.30777
3.35921
3.40951
3.45863
3.5065
3.5531
3.59838
3.64229
3.68478
3.72583
3.76537
3.80339
3.83985
3.87472
3.90797
3.93958
3.96952
3.99777
4.02433
4.04918
4.07231
4.0937
4.11336
4.13127
4.14743
4.16182
4.17446
4.18532
4.19442
4.20176
4.20735
4.21121
4.21335
4.21379
4.21259
4.20968
4.20514
4.199
4.19131
4.18208
4.17136
4.1592
4.14562
4.13069
4.11443
4.0969
4.07814
4.05821
4.03713
4.01496
3.99174
3.96749
3.94226
3.91608
3.889
3.86108
3.8324
3.80302
3.77299
3.74237
3.71121
3.67954
3.64741
3.61485
3.5819
3.54862
3.51505
3.48127
3.44734
3.41331
3.37922
3.34516
3.31116
3.27729
3.24363
3.21028
3.17734
3.14491
3.11305
3.08185
3.05056
3.01767
0.00235217
0.0327154
0.0566164
0.0669695
0.0711358
0.0721405
0.0712176
0.0689781
0.0660233
0.0628488
0.0598481
0.0573211
0.0554998
0.0546541
0.0545609
0.0554924
0.0574477
0.0604767
0.0646133
0.069868
0.0762208
0.0836003
0.0918851
0.100907
0.110472
0.12039
0.130523
0.140798
0.151277
0.162176
0.17386
0.186739
0.201163
0.217345
0.235339
0.255051
0.276295
0.298853
0.322511
0.347087
0.372435
0.398454
0.425089
0.452337
0.480239
0.508875
0.538345
0.568758
0.600228
0.63286
0.666754
0.702003
0.738689
0.776884
0.816642
0.858005
0.901011
0.945684
0.992038
1.04007
1.08977
1.14113
1.19411
1.24867
1.30477
1.36236
1.42138
1.48176
1.54344
1.60632
1.67032
1.73531
1.80115
1.86771
1.93487
2.0025
2.0705
2.13873
2.20708
2.27543
2.34368
2.41175
2.47957
2.54707
2.61415
2.68074
2.74677
2.8122
2.87699
2.9411
3.00449
3.06711
3.12891
3.18982
3.2498
3.3088
3.36677
3.42365
3.47938
3.5339
3.58716
3.6391
3.68968
3.73885
3.78657
3.8328
3.87748
3.92057
3.96204
4.00184
4.03994
4.07633
4.11095
4.1438
4.17484
4.20408
4.23148
4.25705
4.28078
4.30265
4.32265
4.3408
4.35707
4.37146
4.38398
4.39463
4.40341
4.41032
4.41537
4.4186
4.42002
4.41969
4.41762
4.41372
4.40812
4.40086
4.39196
4.38147
4.36942
4.35586
4.34083
4.32437
4.30655
4.2874
4.26698
4.24534
4.22252
4.19858
4.17355
4.14747
4.12038
4.09227
4.06323
4.03333
4.00266
3.97128
3.93923
3.90658
3.87337
3.83964
3.80542
3.77073
3.73563
3.70016
3.66441
3.62844
3.5923
3.55607
3.51977
3.48348
3.44723
3.4111
3.37518
3.33956
3.30435
3.26965
3.23553
3.20208
3.16864
3.13391
0.00325099
0.0389556
0.064382
0.074948
0.0790186
0.0798525
0.0786926
0.0762017
0.0731032
0.0700745
0.0675852
0.0659065
0.0651552
0.0650936
0.0660655
0.0680497
0.0709962
0.0748748
0.0796548
0.0852926
0.0917263
0.0988765
0.106662
0.11501
0.123866
0.133196
0.14302
0.153438
0.164615
0.176755
0.190072
0.204726
0.220796
0.238272
0.257071
0.277064
0.298107
0.320064
0.34282
0.366288
0.390417
0.415186
0.440608
0.466725
0.493611
0.521363
0.550091
0.579905
0.610912
0.643224
0.67695
0.712193
0.749048
0.787598
0.827919
0.870077
0.91413
0.960126
1.0081
1.05806
1.11001
1.16394
1.21983
1.27762
1.33728
1.39872
1.46186
1.52659
1.5928
1.66037
1.72915
1.799
1.86972
1.94113
2.01309
2.08546
2.15814
2.23102
2.30399
2.37693
2.44972
2.52231
2.59459
2.66649
2.73788
2.80866
2.87873
2.94809
3.01671
3.08455
3.15156
3.2177
3.28289
3.34708
3.41022
3.47224
3.5331
3.59275
3.65112
3.70815
3.76378
3.81796
3.87065
3.92179
3.97135
4.01929
4.06555
4.11009
4.15287
4.19385
4.23302
4.27033
4.30576
4.33928
4.3709
4.40057
4.4283
4.45407
4.47788
4.49972
4.51958
4.53748
4.5534
4.56734
4.5793
4.5893
4.59734
4.60344
4.60761
4.60989
4.61029
4.60894
4.60566
4.60054
4.59367
4.58507
4.57479
4.56287
4.54934
4.53425
4.51765
4.4996
4.48013
4.45931
4.43719
4.41381
4.38924
4.36353
4.33672
4.30885
4.27997
4.25
4.21909
4.18732
4.15478
4.12152
4.08758
4.05303
4.01791
3.98226
3.94611
3.90945
3.87233
3.83485
3.79707
3.75908
3.72092
3.68265
3.64432
3.60596
3.56762
3.52938
3.49134
3.4536
3.41626
3.37942
3.34316
3.30758
3.27206
3.23563
0.00421744
0.0453979
0.0719887
0.0828626
0.0869111
0.0876079
0.0860849
0.0832954
0.0802692
0.0777181
0.0760432
0.0753217
0.075243
0.0760372
0.0777839
0.0804276
0.0839019
0.088156
0.0931485
0.0988431
0.105209
0.112225
0.11988
0.128171
0.137125
0.146793
0.15726
0.168616
0.180968
0.194403
0.208966
0.224663
0.241457
0.259275
0.278031
0.297636
0.318014
0.339109
0.360884
0.383329
0.406454
0.430286
0.454884
0.480325
0.506674
0.534031
0.562514
0.592237
0.623318
0.655876
0.690028
0.725889
0.76357
0.803172
0.844791
0.888512
0.934416
0.982573
1.03304
1.08583
1.14096
1.1984
1.25812
1.32007
1.38416
1.4503
1.51835
1.58812
1.65945
1.73212
1.80595
1.88075
1.95632
2.03245
2.10893
2.18559
2.26244
2.33941
2.41645
2.49344
2.57026
2.64682
2.72304
2.7988
2.87393
2.94832
3.02187
3.09462
3.16651
3.23749
3.3075
3.3765
3.44442
3.51119
3.57674
3.64104
3.70403
3.76566
3.82587
3.8846
3.94179
3.99739
4.05134
4.10363
4.15419
4.203
4.25001
4.29517
4.33845
4.3798
4.41921
4.45665
4.49212
4.52558
4.55702
4.58642
4.61376
4.63904
4.66225
4.6834
4.70248
4.71951
4.73448
4.74739
4.75825
4.76707
4.77387
4.77869
4.78155
4.78248
4.78157
4.77874
4.77395
4.76732
4.7589
4.74873
4.73685
4.72329
4.70811
4.69134
4.67305
4.65328
4.63208
4.60952
4.58563
4.56049
4.53415
4.50666
4.47807
4.44844
4.4178
4.38611
4.35349
4.32003
4.28579
4.25081
4.21516
4.17889
4.14204
4.10466
4.06679
4.02836
3.98945
3.95018
3.91062
3.87083
3.83087
3.79079
3.75064
3.71043
3.67021
3.63007
3.59013
3.55047
3.5112
3.47241
3.43417
3.39663
3.35919
3.32124
0.00520706
0.0516433
0.0793789
0.090501
0.094492
0.0950176
0.0930993
0.0902008
0.0875106
0.0856459
0.0847818
0.0846012
0.0851673
0.0865567
0.0888107
0.091867
0.0956679
0.100178
0.10538
0.111271
0.117856
0.125151
0.133186
0.142
0.151646
0.162169
0.173623
0.186038
0.199421
0.213756
0.229033
0.245206
0.26221
0.279985
0.298484
0.317677
0.33755
0.358108
0.379365
0.401352
0.424124
0.447766
0.472398
0.498046
0.524715
0.552566
0.581777
0.612445
0.644684
0.678616
0.714365
0.75206
0.791821
0.833763
0.877991
0.924607
0.973702
1.02536
1.07965
1.13659
1.19613
1.25822
1.32279
1.38977
1.45906
1.53051
1.60396
1.67916
1.75582
1.83356
1.91215
1.99144
2.07131
2.15157
2.23196
2.31232
2.39276
2.47321
2.55359
2.63375
2.7136
2.79319
2.87243
2.95107
3.02897
3.10604
3.18224
3.25748
3.3317
3.40483
3.47685
3.54767
3.61723
3.68546
3.7523
3.81771
3.88166
3.9441
4.00497
4.06422
4.12177
4.17759
4.23163
4.28386
4.33426
4.38278
4.4294
4.47407
4.51672
4.55735
4.59593
4.63245
4.66689
4.69926
4.72952
4.75766
4.78368
4.80756
4.82933
4.84897
4.86651
4.88195
4.8953
4.90655
4.91572
4.92281
4.92787
4.93094
4.93204
4.93129
4.92862
4.92391
4.91733
4.90892
4.89872
4.88678
4.87312
4.8578
4.84085
4.82234
4.8023
4.7808
4.75788
4.7336
4.70802
4.68119
4.65316
4.62401
4.59376
4.56249
4.53022
4.49705
4.46298
4.42807
4.39236
4.35592
4.31878
4.28103
4.24269
4.20382
4.16445
4.12454
4.08416
4.04341
4.00235
3.96106
3.91958
3.87796
3.83627
3.7945