/*--------------------------------*- C++ -*----------------------------------*\
  =========                 |
  \\      /  F ield         | OpenFOAM: The Open Source CFD Toolbox
   \\    /   O peration     | Website:  https://openfoam.org
    \\  /    A nd           | Version:  8
     \\/     M anipulation  |
\*---------------------------------------------------------------------------*/
FoamFile
{
    version     2.0;
    format      ascii;
    class       volScalarField;
    location    "1700";
    object      omega;
}
// * * * * * * * * * * * * * * * * * * * * * * * * * * * * * * * * * * * * * //

dimensions      [0 0 -1 0 0 0 0];

internalField   nonuniform List<scalar> 
12225
(
32582.3
48036.4
42501.2
40416.3
38754.4
45750
41263.2
32582.3
44617
48058.9
42230.2
40357.4
32582.3
42079.3
38530.7
32582.3
38676.2
32582.3
7662.79
10911.8
13546.8
14045.2
15270
17212.5
16851.3
15280.1
16601.6
17886.6
17589
17435.5
16405.3
16469.9
16398.4
16619
15983.8
15520.6
571.865
1689.88
2574.03
3503.15
4064.51
4534.31
4860.02
4928.1
5205.87
5516.94
5862.01
6049.85
6228.24
6424.61
6656.99
6836.39
6981.71
7173.1
543.251
742.812
961.118
1249.97
1503.52
1681.29
1798.52
1887.39
1968.46
2082.23
2175.3
2281.28
2365.27
2466.08
2540.21
2642.63
2693.64
2790.99
482.781
537.395
603.979
697.154
803.528
880.524
948.312
989.033
1010.19
1052.31
1085.93
1132.4
1166.58
1214.01
1242.96
1290.14
1312.02
1357.52
452.272
467.981
488.491
522.126
563.41
597.717
625.577
647.094
660.454
679.764
695.703
718.242
735.031
758.825
773.646
797.404
809.246
832.421
441.606
444.944
449.227
460.033
474.639
488.685
499.699
509.473
516.098
525.167
532.91
543.921
552.538
564.559
572.667
584.91
591.879
604.097
439.221
439.013
439.174
441.579
447.079
452.538
457.37
461.63
464.41
468.699
472.247
477.819
482.358
488.862
493.447
500.37
504.531
511.724
439.007
437.194
435.486
435.276
436.208
437.83
439.171
441.431
441.892
443.535
444.109
446.376
448.307
451.454
453.722
457.421
459.642
463.773
439.031
436.811
434.793
433.224
432.157
431.42
431.01
430.355
430.514
430.266
429.99
430.283
430.454
431.127
431.743
433.067
433.88
435.626
439.017
436.784
434.674
432.749
431.026
429.483
428.097
426.8
425.595
424.575
423.636
422.899
422.22
421.771
421.377
421.264
421.015
421.155
439.006
436.783
434.667
432.677
430.8
429.044
427.382
425.825
424.336
422.963
421.663
420.49
419.375
418.399
417.457
416.686
415.899
415.325
439.002
436.778
434.664
432.663
430.76
428.96
427.246
425.623
424.073
422.61
421.213
419.902
418.647
417.479
416.355
415.324
414.324
413.421
439.001
436.775
434.661
432.655
430.748
428.938
427.215
425.579
424.019
422.537
421.122
419.779
418.495
417.278
416.113
415.01
413.954
412.955
439.001
436.773
434.658
432.65
430.741
428.927
427.202
425.561
423.998
422.511
421.093
419.742
418.454
417.225
416.053
414.935
413.868
412.85
439.001
436.772
434.656
432.646
430.736
428.92
427.193
425.549
423.985
422.495
421.075
419.721
418.431
417.2
416.025
414.904
413.833
412.811
439.001
436.772
434.655
432.644
430.732
428.915
427.187
425.542
423.976
422.485
421.063
419.708
418.416
417.184
416.008
414.885
413.813
412.789
439.001
436.771
434.655
432.643
430.732
428.913
427.186
425.539
423.974
422.48
421.059
419.703
418.411
417.177
416.001
414.877
413.805
412.78
439.001
436.772
434.655
432.644
430.732
428.916
427.186
425.542
423.975
422.484
421.061
419.706
418.413
417.181
416.004
414.881
413.809
412.786
439.001
436.772
434.657
432.646
430.736
428.919
427.192
425.547
423.983
422.492
421.073
419.719
418.431
417.201
416.031
414.913
413.849
412.832
439.003
436.773
434.66
432.65
430.744
428.927
427.207
425.568
424.017
422.536
421.137
419.802
418.543
417.344
416.215
415.139
414.13
413.165
439.008
436.766
434.672
432.671
430.78
428.981
427.319
425.745
424.3
422.921
421.662
420.456
419.381
418.366
417.458
416.601
415.857
415.14
439.02
436.713
434.767
432.893
431.162
429.61
428.352
427.285
426.47
425.709
425.146
424.48
424.163
423.804
423.668
423.557
423.695
423.827
438.913
436.541
435.646
434.997
434.716
434.774
435.204
436.485
437.949
439.635
441.299
441.89
443.391
445.021
447.1
449.071
451.443
453.464
437.772
437.617
443.202
448.908
455.307
457.449
465.172
473.603
480.579
486.042
491.627
496.857
503.006
508.894
515.566
521.472
528.118
533.552
435.158
444.681
477.035
505.191
524.881
541.863
567.594
591.104
610.27
625.003
640.134
653.599
669.009
682.671
698.047
710.647
724.979
735.788
415.598
496.02
617.992
714.387
773.678
838.743
904.919
958.665
1005.96
1042.12
1079.21
1109.54
1144.21
1171.88
1203.97
1227.28
1255.53
1274.14
267.838
816.9
1288.3
1619.85
1848.66
2042.61
2210.56
2341.05
2451.16
2530.2
2606.8
2662.24
2724.78
2768
2821.64
2854.44
2900.76
2925.23
241.617
3063.41
5124.09
6406.95
7301.48
7894.06
8274.22
8513.53
8634.25
8675.74
8697.17
8687.05
8674.45
8662.93
8662.82
8666.51
8684.45
8690.43
16112.1
21848.4
23827
24747.9
25192.9
25220.9
25151.1
24994.1
24755.9
24503.2
24251.8
24009.8
23782.5
23571.6
23377.3
23199.5
23037.7
22892.5
11463.3
2494.65
2496.87
2499.12
2501.38
2503.67
2505.98
2508.3
2510.65
2513.02
2515.42
2517.83
2520.27
2522.73
2525.21
2527.72
2530.25
2532.8
2535.37
2537.97
2540.6
2543.25
2545.92
2548.62
2551.34
2554.09
2556.87
2559.67
2562.5
2565.35
2568.23
2571.14
2574.08
2577.04
2580.04
2583.06
2586.11
2589.19
2592.3
2595.43
2598.6
2601.8
2605.03
2608.29
2611.59
2614.91
2618.27
2621.66
2625.08
2628.54
2632.03
2635.55
2639.11
2642.71
2646.33
2650
2653.7
3139.24
3353.15
2665.03
3147.42
3227.46
3365.93
3450.74
3549.24
3628.64
3713.87
3789.65
3866.61
3938.49
4009.78
4078.12
4145.22
4210.4
4274.2
4336.56
4397.59
4457.41
4516
4573.47
4629.82
4685.1
4739.34
4792.52
4844.73
4895.86
4946.06
4995.16
5043.3
5090.31
5136.24
5181.06
5224.71
5267.17
5308.38
5348.3
5386.97
5424.4
5460.82
5496.58
5531.48
5565.3
5598.24
5630.2
5661.21
5691.26
5720.33
5748.41
5775.49
5801.56
5826.59
5850.61
5873.57
5895.51
5916.35
5936.17
5954.88
5972.56
5989.12
6004.65
6019.05
6032.42
6044.66
6055.87
6065.95
6075.01
6082.96
6090.38
6096.11
6101.85
6104.7
6107.99
6110.14
6111.96
6112.83
6112.56
6110.47
6107.66
6103.74
6099.04
6093.49
6087.16
6080.09
6072.28
6063.82
6054.77
6044.96
6034.88
6023.64
6012.49
6000.08
5987.97
5974.53
5961.61
5947.35
5933.57
5919.07
5904.62
5890.03
5875.39
5860.77
5846.18
5831.65
5817.21
5802.89
5788.77
5774.88
5761.31
5748.11
5735.29
5722.88
5710.85
5699.05
5687.26
5675.08
5661.95
5646.83
5626.91
5597.15
5471.86
11463.3
1994.38
1001.8
817.264
699.844
628.447
636.144
632.498
621.733
599.191
574.774
551.174
529.16
510.885
498.211
489.276
488.165
490.184
515.631
563.622
647.67
749.182
859.766
969.884
1068.94
1145.8
1190.1
1182.56
1150.81
1061.8
939.66
786.181
654.36
568.886
501.555
465.432
460.835
469.233
492.392
523.746
555.605
592.418
690.991
827.725
1043.98
1370.25
1676.54
1885.26
2010.64
2079.57
2093.86
2077.37
2042.02
1997
1930.33
1875.48
1831.48
1816.39
1776.42
1723.19
1732.85
1708.85
1701.33
1694.36
1688.21
1687.05
1686.44
1687.71
1691.06
1694.98
1700.19
1705.84
1712.2
1718.9
1725.98
1733.27
1740.75
1748.34
1756.01
1763.72
1771.44
1779.14
1786.81
1794.4
1801.91
1809.3
1816.57
1823.7
1830.67
1837.46
1844.1
1850.55
1856.82
1862.94
1868.95
1874.94
1881.05
1887.55
1894.77
1903.28
1911.79
1919.96
1928
1935.76
1943.31
1950.62
1957.71
1964.56
1971.17
1977.55
1983.69
1989.59
1995.26
2000.68
2005.87
2010.81
2015.52
2020
2024.24
2028.24
2032.02
2035.56
2038.88
2041.98
2044.87
2047.54
2050.02
2052.32
2054.36
2056.26
2057.86
2059.44
2060.82
2062.04
2062.87
2063.09
2062.55
2061.72
2060.7
2059.49
2058.09
2056.53
2054.81
2052.96
2051.02
2048.37
2046.64
2043.2
2041.39
2037.6
2035.58
2031.49
2029.27
2024.91
2022.33
2018.38
2015
2011.42
2007.76
2004.1
2000.41
1996.71
1993
1989.29
1985.59
1981.92
1978.29
1974.7
1971.17
1967.73
1964.37
1961.09
1957.93
1954.93
1952.15
1949.68
1947.57
1946.45
1945.42
1954.3
11463.3
2016.14
819.177
646.803
690.164
691.489
663.251
607.429
547.199
490.469
440.492
397.572
363.937
337.62
317.367
301.826
290.947
282.771
280.332
282.704
292.909
311.394
343.593
387.557
442.826
503.496
565.433
612.541
644.622
640.567
624.021
576.594
515.143
447.184
396.498
390.983
403.332
429.256
469.692
545.058
659.528
820.655
1020.86
1199.87
1348.08
1480.27
1558.72
1585.52
1575.9
1526.93
1471.31
1410.78
1355.69
1303.48
1256.63
1219.03
1190.81
1170.29
1154.59
1138.77
1131.85
1124.63
1118.7
1116.99
1115.3
1115.16
1116.03
1117.77
1120.1
1122.85
1126.02
1129.45
1133.13
1136.97
1140.97
1145.07
1149.26
1153.5
1157.78
1162.09
1166.41
1170.72
1175.02
1179.3
1183.55
1187.76
1191.92
1196.04
1200.1
1204.12
1208.08
1212.01
1215.92
1219.82
1223.74
1227.73
1231.81
1236.04
1240.44
1244.91
1249.24
1253.43
1257.51
1261.46
1265.28
1268.97
1272.52
1275.94
1279.23
1282.38
1285.39
1288.27
1291.01
1293.61
1296.08
1298.41
1300.6
1302.65
1304.57
1306.35
1308
1309.51
1310.89
1312.13
1313.25
1314.24
1315.11
1315.85
1316.46
1316.97
1317.32
1317.6
1317.74
1317.73
1317.52
1317.07
1316.41
1315.62
1314.73
1313.73
1312.63
1311.43
1310.13
1308.74
1307.27
1305.49
1304.01
1301.94
1300.33
1298.06
1296.32
1293.88
1292.02
1289.45
1287.4
1284.92
1282.55
1280.1
1277.61
1275.08
1272.53
1269.95
1267.36
1264.75
1262.13
1259.5
1256.88
1254.26
1251.66
1249.08
1246.54
1244.06
1241.66
1239.39
1237.32
1235.59
1234.35
1234.33
1235.92
1246.71
11463.3
2040.15
1019.66
984.471
916.342
785.07
666.471
558.257
472.8
408.961
360.906
323.292
294.157
271.833
254.766
241.766
232.025
224.99
220.341
218.598
219.612
222.732
231.091
245.378
267.042
295.798
330.451
365.714
397.409
420.775
427.373
420.619
399.048
401.827
444.197
537.845
605.084
664.875
739.347
845.4
981.657
1096.9
1175.99
1243.71
1292.99
1311.4
1267.09
1224.3
1175
1122.41
1076.61
1035.54
1001.69
972.826
949.494
931.432
918.139
908.296
901.302
895.694
892.325
890.66
889.011
889.154
889.862
891.206
893.039
895.258
897.768
900.518
903.467
906.568
909.801
913.134
916.552
920.036
923.571
927.146
930.75
934.373
938.007
941.644
945.277
948.901
952.509
956.098
959.665
963.208
966.726
970.219
973.691
977.145
980.588
984.026
987.467
990.918
994.38
997.848
1001.3
1004.69
1007.98
1011.17
1014.26
1017.25
1020.14
1022.92
1025.59
1028.16
1030.62
1032.98
1035.22
1037.35
1039.37
1041.28
1043.07
1044.75
1046.32
1047.77
1049.11
1050.34
1051.45
1052.44
1053.32
1054.09
1054.75
1055.29
1055.73
1056.05
1056.26
1056.37
1056.36
1056.24
1056.01
1055.65
1055.15
1054.5
1053.73
1052.85
1051.87
1050.81
1049.65
1048.4
1047.07
1045.65
1044.14
1042.49
1040.88
1039.03
1037.28
1035.28
1033.39
1031.25
1029.24
1026.99
1024.85
1022.56
1020.26
1017.91
1015.51
1013.08
1010.63
1008.14
1005.63
1003.1
1000.56
998.001
995.437
992.869
990.3
987.745
985.217
982.732
980.316
978.009
975.877
974.032
972.633
972.261
973.388
980.084
11463.3
2318.98
1486.32
1201.71
953.564
736.786
568.861
456.212
379.209
325.555
287.481
260.614
241.03
226.169
214.559
205.492
198.572
193.501
190.094
188.419
188.626
189.956
193.836
200.677
211.597
227.594
248.853
272.918
297.112
315.769
332.665
359.418
429.668
536.533
627.718
698.124
770.205
848.152
921.222
984.625
1039.98
1087.72
1115.02
1121.48
1085.33
1039.24
999.156
958.192
920.197
886.935
859.276
836.028
817.326
802.205
790.508
781.808
775.638
771.417
768.768
767.532
766.999
767.315
768.244
769.871
771.88
774.238
776.87
779.718
782.742
785.909
789.196
792.582
796.05
799.587
803.18
806.819
810.494
814.198
817.923
821.66
825.405
829.151
832.891
836.623
840.34
844.04
847.719
851.376
855.007
858.613
862.192
865.746
869.274
872.777
876.253
879.697
883.103
886.456
889.747
892.956
896.074
899.1
902.034
904.872
907.612
910.252
912.791
915.226
917.558
919.785
921.905
923.918
925.821
927.614
929.296
930.865
932.321
933.664
934.891
936.004
937.002
937.884
938.649
939.298
939.831
940.247
940.547
940.729
940.789
940.756
940.595
940.319
939.922
939.401
938.753
937.977
937.086
936.091
934.996
933.803
932.513
931.129
929.654
928.092
926.442
924.684
922.875
920.945
918.981
916.896
914.791
912.572
910.341
908
905.645
903.216
900.743
898.224
895.662
893.062
890.428
887.766
885.078
882.37
879.642
876.9
874.146
871.387
868.635
865.895
863.178
860.498
857.879
855.355
852.984
850.857
849.101
848.116
848.409
851.817
11463.3
2953.38
1753.66
1224.2
843.09
594.69
450.03
360.145
304.212
267.91
242.899
224.672
210.803
200.042
191.471
184.622
179.296
175.395
172.85
171.782
172.123
173.55
176.873
182.185
190.188
202.134
219.005
241.099
270.459
314.536
371.639
467.553
581.949
673.183
743
806.401
859.045
899.675
934.449
967.203
982.587
982.995
951.182
919.843
885.122
850.96
820.571
792.682
768.991
749.127
732.831
719.603
709.23
701.286
695.522
691.617
689.395
688.546
688.379
689.171
690.579
692.564
694.97
697.755
700.805
704.076
707.522
711.111
714.818
718.622
722.509
726.467
730.484
734.551
738.66
742.802
746.971
751.159
755.359
759.566
763.772
767.972
772.161
776.334
780.487
784.615
788.715
792.783
796.817
800.813
804.77
808.686
812.558
816.384
820.16
823.88
827.533
831.111
834.608
838.018
841.333
844.554
847.677
850.7
853.62
856.436
859.143
861.742
864.23
866.606
868.87
871.019
873.051
874.964
876.757
878.428
879.977
881.402
882.702
883.876
884.924
885.844
886.637
887.3
887.835
888.24
888.513
888.645
888.665
888.56
888.32
887.949
887.447
886.814
886.048
885.153
884.136
883.002
881.757
880.402
878.939
877.37
875.699
873.933
872.07
870.104
868.056
865.907
863.685
861.371
858.994
856.533
854.018
851.423
848.778
846.071
843.311
840.501
837.645
834.749
831.816
828.853
825.864
822.852
819.819
816.77
813.708
810.64
807.576
804.522
801.49
798.494
795.553
792.698
789.977
787.466
785.27
783.653
782.987
784.174
11463.3
3468.11
1797.5
1048.02
658.623
463.582
364.475
308.357
272.379
246.834
227.579
212.564
200.536
190.646
182.48
175.851
170.678
166.949
164.77
164.255
165.181
167.86
172.759
180.285
191.251
206.294
229.111
265.477
322.072
409.351
518.033
610.164
681.508
742.47
789.937
825.463
854.055
875.176
883.539
876.964
852.969
830.256
802.377
776.422
750.501
726.959
706.46
688.735
674.009
661.905
652.214
644.682
639.107
635.24
633.084
632.244
632.19
633.209
634.924
637.273
640.108
643.354
646.917
650.741
654.767
658.955
663.276
667.704
672.223
676.819
681.479
686.195
690.958
695.761
700.596
705.456
710.333
715.22
720.11
724.996
729.872
734.732
739.571
744.383
749.163
753.906
758.608
763.265
767.871
772.425
776.922
781.36
785.737
790.048
794.289
798.456
802.545
806.552
810.465
814.28
817.991
821.597
825.095
828.481
831.753
834.909
837.945
840.859
843.648
846.308
848.836
851.232
853.497
855.629
857.625
859.484
861.206
862.787
864.228
865.527
866.684
867.697
868.566
869.289
869.867
870.298
870.577
870.694
870.696
870.546
870.247
869.801
869.21
868.474
867.594
866.574
865.419
864.133
862.722
861.186
859.529
857.753
855.859
853.841
851.71
849.472
847.132
844.691
842.158
839.531
836.825
834.035
831.175
828.238
825.235
822.168
819.043
815.863
812.635
809.362
806.051
802.708
799.337
795.941
792.524
789.09
785.644
782.192
778.743
775.305
771.889
768.509
765.182
761.932
758.803
755.853
753.158
750.9
749.269
748.815
11463.3
3610.84
1577.06
823.903
521.381
386.963
317.488
277.119
251.062
232.778
218.63
206.68
196.239
187.231
179.617
173.467
168.963
166.274
165.335
166.037
168.622
173.712
181.801
194.926
215.693
246.671
294.759
370.88
461.145
543.828
610.507
666.842
714.008
751.369
781.341
799.08
804.628
796.041
777.937
759.491
738.065
717.942
697.28
678.053
659.981
644.126
630.572
619.181
609.889
602.503
596.884
592.873
590.459
589.434
589.301
590.228
591.985
594.499
597.613
601.231
605.258
609.62
614.251
619.099
624.123
629.289
634.571
639.95
645.409
650.935
656.518
662.148
667.818
673.519
679.246
684.988
690.737
696.485
702.224
707.947
713.646
719.315
724.948
730.539
736.083
741.576
747.01
752.379
757.68
762.908
768.061
773.133
778.124
783.028
787.843
792.565
797.194
801.721
806.135
810.433
814.61
818.664
822.593
826.393
830.061
833.596
836.993
840.251
843.366
846.337
849.164
851.843
854.372
856.751
858.975
861.044
862.956
864.71
866.303
867.736
869.007
870.115
871.058
871.836
872.448
872.894
873.159
873.255
873.207
872.988
872.602
872.05
871.335
870.458
869.421
868.228
866.883
865.391
863.755
861.98
860.068
858.024
855.849
853.551
851.132
848.594
845.943
843.182
840.318
837.353
834.297
831.152
827.926
824.62
821.24
817.791
814.279
810.709
807.086
803.416
799.705
795.959
792.184
788.383
784.56
780.72
776.868
773.012
769.158
765.318
761.501
757.721
753.991
750.333
746.768
743.339
740.115
737.231
734.768
732.937
11463.3
3425.57
1290.3
667.797
450.022
353.873
301.242
269.437
247.631
231.209
218.161
207.352
198.15
190.295
183.825
178.972
176.07
175.276
176.898
180.964
188.453
200.728
219.126
248.446
293.677
354.871
424.75
488.909
546.978
597.44
640.64
676.771
707.795
728.451
735.366
730.655
717.373
702.203
685.29
669.194
653.17
637.983
623.157
609.405
596.958
586.23
577.226
569.878
564.115
559.836
556.971
555.571
555.197
555.815
557.387
559.809
562.963
566.754
571.083
575.864
581.021
586.491
592.216
598.151
604.258
610.508
616.876
623.343
629.888
636.497
643.157
649.856
656.583
663.332
670.1
676.869
683.632
690.378
697.099
703.786
710.433
717.031
723.573
730.05
736.451
742.772
749.017
755.182
761.26
767.247
773.138
778.931
784.622
790.205
795.678
801.035
806.269
811.374
816.347
821.183
825.88
830.433
834.841
839.101
843.21
847.164
850.962
854.6
858.075
861.386
864.532
867.509
870.316
872.95
875.409
877.692
879.795
881.719
883.46
885.02
886.394
887.584
888.586
889.401
890.027
890.462
890.69
890.741
890.611
890.292
889.784
889.091
888.214
887.156
885.919
884.507
882.925
881.177
879.268
877.202
874.984
872.617
870.106
867.457
864.674
861.76
858.722
855.563
852.289
848.904
845.419
841.837
838.164
834.406
830.566
826.653
822.673
818.631
814.534
810.386
806.195
801.967
797.708
793.423
789.115
784.79
780.456
776.119
771.787
767.471
763.18
758.927
754.724
750.592
746.557
742.655
738.93
735.479
732.327
729.419
11463.3
2986.71
1040.47
567.917
404.992
331.477
292.507
266.834
249.177
236.17
225.708
216.871
209.396
203.389
199.246
197.598
198.651
203.232
211.446
223.782
242.404
269.24
305.897
350.967
399.932
449.547
496.433
538.488
576.166
608.663
637.393
660.624
670.873
671.76
664.197
653.261
640.104
627.147
614.563
602.71
591.199
580.122
569.517
559.792
551.211
543.963
538.069
533.497
530.204
528.281
527.554
527.712
528.928
531.066
534.051
537.798
542.219
547.233
552.762
558.735
565.089
571.761
578.698
585.854
593.192
600.68
608.302
616.036
623.848
631.718
639.631
647.568
655.508
663.424
671.281
679.124
686.953
694.758
702.526
710.249
717.918
725.526
733.066
740.529
747.913
755.212
762.407
769.487
776.447
783.282
789.989
796.564
803.005
809.307
815.467
821.479
827.34
833.048
838.599
843.989
849.214
854.274
859.164
863.882
868.426
872.793
876.98
880.984
884.802
888.433
891.874
895.124
898.181
901.041
903.704
906.166
908.426
910.482
912.332
913.976
915.412
916.639
917.656
918.46
919.053
919.424
919.572
919.519
919.256
918.782
918.098
917.207
916.111
914.813
913.316
911.626
909.745
907.68
905.436
903.018
900.43
897.679
894.769
891.707
888.497
885.145
881.657
878.037
874.292
870.427
866.451
862.37
858.191
853.92
849.563
845.128
840.623
836.054
831.427
826.747
822.022
817.258
812.462
807.638
802.792
797.932
793.065
788.197
783.338
778.497
773.685
768.912
764.191
759.539
754.98
750.544
746.261
742.207
738.373
734.479
11463.3
2500.95
899.303
527.879
391.552
328.235
293.36
272.8
259.088
248.987
241.056
234.828
230.457
228.622
229.368
233.951
242.485
254.179
269.515
290.634
317.671
349.635
384.843
421.122
456.759
490.667
521.956
549.652
574.93
597.9
611.446
615.444
613.696
607.937
599.107
589.447
579.741
570.569
561.809
553.366
545.098
537.098
529.561
522.779
516.964
512.241
508.644
506.202
505.029
504.789
505.568
507.315
510.003
513.564
517.93
523.026
528.778
535.116
541.971
549.284
557.021
565.101
573.463
582.06
590.848
599.776
608.772
617.806
626.922
636.109
645.345
654.609
663.874
673.125
682.364
691.561
700.711
709.799
718.809
727.734
736.568
745.305
753.938
762.46
770.858
779.119
787.238
795.208
803.022
810.679
818.173
825.504
832.667
839.659
846.477
853.119
859.581
865.861
871.954
877.859
883.571
889.089
894.41
899.533
904.455
909.175
913.688
917.992
922.086
925.967
929.634
933.085
936.318
939.331
942.121
944.687
947.026
949.137
951.019
952.67
954.089
955.274
956.225
956.94
957.418
957.645
957.639
957.399
956.924
956.215
955.276
954.107
952.714
951.098
949.264
947.217
944.962
942.504
939.849
937.004
933.974
930.765
927.383
923.836
920.13
916.27
912.263
908.116
903.834
899.424
894.894
890.252
885.505
880.661
875.729
870.716
865.631
860.481
855.271
850.007
844.695
839.344
833.959
828.547
823.115
817.671
812.223
806.78
801.348
795.939
790.561
785.225
779.943
774.732
769.611
764.606
759.739
755.07
750.579
745.796
11463.3
2077.19
787.707
490.437
381.498
328.967
301.307
285.012
274.527
267.375
262.501
260.09
259.727
262.411
268.605
278.399
291.215
306.86
326.093
348.598
373.478
399.708
426.287
452.34
477.133
499.971
521.454
541.798
556.669
563.214
564.729
563.812
559.644
553.831
547.233
540.623
534.213
528.038
521.985
516.002
510.113
504.472
499.295
494.811
491.19
488.528
487.021
486.522
486.968
488.424
490.849
494.21
498.475
503.618
509.591
516.285
523.633
531.57
540.022
548.897
558.051
567.521
577.318
587.406
597.743
608.289
619.022
629.913
640.889
651.904
662.927
673.941
684.881
695.721
706.446
717.033
727.466
737.75
747.903
757.929
767.832
777.61
787.258
796.766
806.117
815.297
824.294
833.101
841.714
850.128
858.342
866.354
874.161
881.759
889.148
896.325
903.289
910.037
916.568
922.876
928.96
934.818
940.45
945.855
951.031
955.975
960.687
965.163
969.403
973.404
977.166
980.688
983.967
987.001
989.79
992.331
994.623
996.664
998.452
999.987
1001.27
1002.29
1003.06
1003.56
1003.81
1003.78
1003.5
1002.96
1002.17
1001.12
999.815
998.266
996.472
994.438
992.169
989.669
986.944
984
980.844
977.483
973.923
970.171
966.235
962.122
957.839
953.394
948.794
944.046
939.157
934.133
928.983
923.714
918.336
912.859
907.293
901.647
895.928
890.144
884.3
878.401
872.454
866.467
860.445
854.397
848.333
842.262
836.192
830.131
824.086
818.067
812.084
806.145
800.264
794.456
788.74
783.137
777.662
772.366
767.232
761.63
11463.3
1948.24
775.013
489.202
384.646
338.001
314.228
300.953
293.114
288.808
287.14
287.386
290.45
296.399
305.175
316.508
330.075
345.915
363.62
382.558
402.098
421.626
440.571
458.703
476.32
493.327
507.265
515.541
519.45
520.912
520.853
518.901
515.698
511.91
507.894
503.853
499.82
495.779
491.721
487.697
483.822
480.27
477.234
474.896
473.518
473.06
473.571
475.211
477.806
481.341
485.795
491.129
497.281
504.121
511.587
519.794
528.723
538.316
548.512
559.252
570.524
582.241
594.334
606.752
619.445
632.353
645.422
658.618
671.827
684.958
697.939
710.698
723.225
735.5
747.513
759.259
770.748
782.01
793.083
803.995
814.759
825.383
835.866
846.19
856.331
866.263
875.964
885.432
894.662
903.654
912.404
920.91
929.169
937.178
944.938
952.448
959.709
966.719
973.476
979.976
986.219
992.203
997.93
1003.4
1008.61
1013.57
1018.26
1022.7
1026.87
1030.78
1034.43
1037.82
1040.94
1043.8
1046.39
1048.72
1050.77
1052.56
1054.07
1055.31
1056.28
1056.96
1057.38
1057.51
1057.36
1056.93
1056.22
1055.24
1053.97
1052.44
1050.64
1048.58
1046.25
1043.67
1040.85
1037.77
1034.47
1030.92
1027.16
1023.18
1018.99
1014.59
1010.01
1005.24
1000.29
995.173
989.896
984.467
978.894
973.184
967.346
961.382
955.309
949.14
942.884
936.55
930.145
923.675
917.147
910.566
903.938
897.268
890.564
883.839
877.102
870.365
863.635
856.919
850.225
843.561
836.936
830.359
823.846
817.411
811.071
804.844
798.742
792.806
787.035
780.666
11463.3
1890.6
752.649
487.801
392.757
350.381
329.501
318.39
312.497
309.966
309.518
311.677
316.423
323.463
332.485
343.174
355.256
368.464
382.416
396.693
410.884
424.938
439.014
452.626
464.172
472.259
477.899
481.826
483.862
484.686
484.806
484.018
482.656
480.977
479.108
477.118
475.047
472.946
470.906
469.084
467.732
466.952
466.737
467.254
468.624
470.814
473.737
477.235
481.664
487.092
493.52
500.921
509.264
518.545
528.758
539.827
551.711
564.328
577.603
591.468
605.865
620.7
635.88
651.335
667.038
682.853
698.64
714.254
729.626
744.686
759.362
773.594
787.353
800.625
813.41
825.721
837.614
849.176
860.525
871.73
882.802
893.765
904.625
915.345
925.876
936.169
946.179
955.919
965.388
974.581
983.495
992.126
1000.47
1008.52
1016.29
1023.77
1030.96
1037.88
1044.5
1050.84
1056.89
1062.65
1068.13
1073.32
1078.23
1082.87
1087.22
1091.29
1095.08
1098.59
1101.82
1104.77
1107.45
1109.85
1111.97
1113.82
1115.38
1116.65
1117.63
1118.34
1118.75
1118.86
1118.7
1118.24
1117.48
1116.43
1115.08
1113.45
1111.54
1109.35
1106.88
1104.14
1101.13
1097.85
1094.32
1090.54
1086.51
1082.24
1077.74
1073.01
1068.08
1062.93
1057.59
1052.06
1046.35
1040.47
1034.42
1028.23
1021.89
1015.42
1008.82
1002.09
995.264
988.346
981.347
974.274
967.131
959.927
952.668
945.358
938.005
930.61
923.184
915.745
908.302
900.866
893.444
886.043
878.669
871.329
864.031
856.788
849.616
842.529
835.543
828.674
821.929
815.341
808.94
801.848
11463.3
1858.72
750.91
494.625
404.223
364.316
344.708
334.372
329.12
327.052
326.868
329.47
334.259
340.793
348.632
357.454
367.04
377.167
387.587
398.14
408.98
419.309
428.176
435.509
441.565
446.781
450.915
454.198
456.771
458.856
460.614
462.133
463.347
464.315
465.107
465.787
466.424
467.088
467.842
468.704
469.536
470.881
473.019
476.217
480.457
485.696
491.955
499.349
507.819
517.391
528.08
539.831
552.598
566.352
581.056
596.669
613.199
630.417
648.181
666.381
684.906
703.641
722.466
741.254
759.837
778.138
796.072
813.519
830.366
846.5
861.85
876.379
890.108
903.065
915.261
926.69
937.507
947.895
958.198
968.565
978.883
989.228
999.624
1009.96
1020.15
1030.12
1039.84
1049.29
1058.44
1067.3
1075.84
1084.07
1091.98
1099.57
1106.82
1113.76
1120.38
1126.69
1132.69
1138.38
1143.75
1148.8
1153.55
1158
1162.14
1166
1169.55
1172.81
1175.78
1178.45
1180.84
1182.95
1184.77
1186.31
1187.57
1188.56
1189.25
1189.65
1189.74
1189.58
1189.11
1188.33
1187.27
1185.92
1184.27
1182.33
1180.09
1177.56
1174.76
1171.67
1168.3
1164.66
1160.75
1156.57
1152.14
1147.45
1142.52
1137.34
1131.94
1126.31
1120.47
1114.42
1108.17
1101.74
1095.13
1088.36
1081.42
1074.34
1067.13
1059.78
1052.32
1044.77
1037.14
1029.43
1021.63
1013.77
1005.85
997.86
989.824
981.743
973.626
965.47
957.292
949.111
940.937
932.777
924.638
916.526
908.447
900.408
892.413
884.484
876.635
868.882
861.236
853.711
846.315
839.069
832.043
824.268
11463.3
1836.55
750.727
503.093
414.351
375.494
356.617
346.257
340.796
338.559
338.213
340.356
344.358
349.735
356.054
363.082
370.695
378.79
387.075
395.114
402.755
410.03
417.081
423.682
429.922
435.86
441.467
446.765
451.705
456.26
460.352
463.75
466.875
469.898
472.914
476.01
479.279
482.82
486.74
491.174
496.397
502.535
509.847
518.606
528.54
539.571
551.738
565.092
579.579
595.215
612.153
630.137
648.996
668.603
688.832
709.518
730.47
751.657
772.976
794.317
815.561
836.598
857.323
877.634
897.432
916.64
935.18
952.968
969.898
985.803
1000.63
1014.45
1027.38
1039.5
1050.87
1061.53
1071.49
1080.83
1089.74
1098.36
1106.83
1115.59
1124.74
1133.92
1142.97
1151.81
1160.42
1168.75
1176.77
1184.46
1191.83
1198.86
1205.54
1211.87
1217.84
1223.47
1228.77
1233.76
1238.41
1242.74
1246.74
1250.42
1253.78
1256.84
1259.6
1262.06
1264.22
1266.09
1267.68
1268.99
1270.01
1270.75
1271.22
1271.41
1271.34
1271.03
1270.41
1269.52
1268.35
1266.91
1265.2
1263.22
1260.95
1258.41
1255.6
1252.5
1249.13
1245.47
1241.55
1237.35
1232.89
1228.16
1223.18
1217.94
1212.45
1206.73
1200.76
1194.57
1188.15
1181.52
1174.68
1167.65
1160.43
1153.03
1145.46
1137.74
1129.87
1121.86
1113.72
1105.46
1097.09
1088.66
1080.15
1071.56
1062.91
1054.18
1045.4
1036.56
1027.68
1018.76
1009.82
1000.87
991.924
982.99
974.07
965.169
956.294
947.452
938.651
929.896
921.195
912.572
904.042
895.617
887.306
879.124
871.075
863.176
855.532
847.12
11463.3
1825.77
754.09
508.587
420.955
383.145
364.476
353.957
348.338
345.951
345.486
347.327
350.964
355.982
361.916
368.574
375.752
383.297
391.159
399.4
407.579
415.669
423.769
431.825
439.892
447.987
456.129
464.313
472.37
480.329
488.255
496.299
504.489
512.916
521.677
530.884
540.65
551.096
562.329
574.477
587.691
601.973
617.308
633.477
650.563
668.644
687.763
707.963
729.106
751.01
773.415
796.561
820.121
843.879
867.666
891.318
914.685
937.66
960.129
981.995
1003.19
1023.65
1043.34
1062.23
1080.28
1097.48
1113.83
1129.31
1143.91
1157.67
1170.58
1182.48
1193.64
1204.18
1214.16
1223.65
1232.48
1240.68
1248.16
1255.05
1261.81
1268.93
1276.11
1283.11
1289.86
1296.31
1302.48
1308.34
1313.89
1319.14
1324.07
1328.68
1332.95
1336.89
1340.5
1343.78
1346.79
1349.5
1351.93
1354.05
1355.88
1357.42
1358.68
1359.67
1360.41
1360.89
1361.1
1361.03
1360.78
1360.26
1359.49
1358.48
1357.24
1355.77
1354.06
1352.13
1349.96
1347.55
1344.9
1342.01
1338.89
1335.53
1331.93
1328.09
1324.01
1319.68
1315.1
1310.28
1305.21
1299.9
1294.35
1288.56
1282.54
1276.3
1269.83
1263.13
1256.23
1249.12
1241.8
1234.29
1226.59
1218.71
1210.66
1202.44
1194.07
1185.56
1176.9
1168.11
1159.21
1150.18
1141.05
1131.82
1122.51
1113.11
1103.65
1094.11
1084.52
1074.87
1065.19
1055.47
1045.72
1035.98
1026.26
1016.56
1006.86
997.191
987.549
977.947
968.394
958.908
949.512
940.209
931.008
921.92
912.953
904.122
895.433
886.896
878.65
869.656
11463.3
1816.58
756.523
511.793
424.534
388.727
370.631
360.809
356.615
355.182
355.805
358.989
363.91
370.2
377.759
386.842
396.5
406.745
418.071
430.571
443.558
456.989
471.115
485.917
501.378
517.425
534.038
551.1
568.67
586.721
605.299
624.427
644.051
664.165
684.835
706.148
728.246
751.321
775.299
800.098
825.612
851.703
878.19
904.86
931.687
958.668
985.876
1013.79
1041.77
1069.25
1095.84
1121.16
1145.37
1168.45
1190.38
1211.1
1230.59
1248.79
1265.75
1281.48
1296.03
1309.46
1321.81
1333.16
1343.53
1352.98
1361.57
1369.38
1376.49
1383.15
1389.51
1395.64
1401.48
1406.96
1412.02
1416.67
1420.67
1424.38
1428.03
1431.99
1436.22
1440.19
1443.51
1446.41
1449
1451.32
1453.41
1455.3
1456.96
1458.4
1459.61
1460.57
1461.3
1461.79
1462.04
1462.05
1461.92
1461.58
1461.02
1460.24
1459.26
1458.08
1456.7
1455.15
1453.42
1451.51
1449.42
1447.14
1444.7
1442.08
1439.29
1436.33
1433.21
1429.92
1426.46
1422.83
1419.02
1415.03