/*--------------------------------*- C++ -*----------------------------------*\
  =========                 |
  \\      /  F ield         | OpenFOAM: The Open Source CFD Toolbox
   \\    /   O peration     | Website:  https://openfoam.org
    \\  /    A nd           | Version:  8
     \\/     M anipulation  |
\*---------------------------------------------------------------------------*/
FoamFile
{
    version     2.0;
    format      ascii;
    class       surfaceScalarField;
    location    "1700";
    object      phi;
}
// * * * * * * * * * * * * * * * * * * * * * * * * * * * * * * * * * * * * * //

dimensions      [0 3 -1 0 0 0 0];

internalField   nonuniform List<scalar> 
24170
(
2.99627e-06
1.3766e-07
2.85336e-06
1.43033e-07
2.72837e-06
1.24953e-07
2.62145e-06
1.06853e-07
2.52836e-06
9.30117e-08
2.44808e-06
8.02492e-08
2.38147e-06
6.66144e-08
2.32536e-06
5.6128e-08
2.27705e-06
4.83775e-08
2.23602e-06
4.11038e-08
2.20189e-06
3.41266e-08
2.17421e-06
2.76926e-08
2.15168e-06
2.25028e-08
2.13385e-06
1.78199e-08
2.12032e-06
1.35063e-08
2.10921e-06
1.10931e-08
2.1021e-06
7.04549e-09
6.05468e-10
2.10144e-06
3.51547e-06
7.85376e-08
3.54273e-06
1.15294e-07
3.5545e-06
1.12892e-07
3.55109e-06
1.10109e-07
3.53568e-06
1.08347e-07
3.51356e-06
1.0237e-07
3.48829e-06
9.18885e-08
3.4597e-06
8.46962e-08
3.42895e-06
7.91151e-08
3.39942e-06
7.06196e-08
3.37162e-06
6.19336e-08
3.34503e-06
5.43238e-08
3.31912e-06
4.84689e-08
3.29388e-06
4.31201e-08
3.27017e-06
3.72689e-08
3.24821e-06
3.30847e-08
3.22767e-06
2.75943e-08
2.22772e-08
3.20603e-06
3.83374e-06
5.69991e-08
3.85064e-06
9.85608e-08
3.86474e-06
9.88594e-08
3.87655e-06
9.82851e-08
3.88598e-06
9.8845e-08
3.89231e-06
9.5977e-08
3.89464e-06
8.95364e-08
3.89486e-06
8.44907e-08
3.89397e-06
8.00511e-08
3.89117e-06
7.34537e-08
3.88673e-06
6.63835e-08
3.88108e-06
5.99845e-08
3.87483e-06
5.47028e-08
3.86817e-06
4.97696e-08
3.86074e-06
4.4675e-08
3.85351e-06
4.02868e-08
3.84582e-06
3.52619e-08
3.02182e-08
3.83789e-06
4.21747e-06
4.40466e-08
4.22977e-06
8.60088e-08
4.23913e-06
8.93079e-08
4.24725e-06
9.00296e-08
4.2551e-06
9.08811e-08
4.26218e-06
8.88207e-08
4.26756e-06
8.41176e-08
4.2722e-06
7.98131e-08
4.27661e-06
7.56279e-08
4.27991e-06
7.01353e-08
4.28208e-06
6.4219e-08
4.28342e-06
5.8674e-08
4.28434e-06
5.38036e-08
4.28495e-06
4.91879e-08
4.28505e-06
4.46015e-08
4.28503e-06
4.03233e-08
4.28449e-06
3.5812e-08
3.12968e-08
4.28343e-06
4.64662e-06
3.4725e-08
4.65809e-06
7.4694e-08
4.66642e-06
8.10604e-08
4.67336e-06
8.31175e-08
4.68009e-06
8.41141e-08
4.68637e-06
8.25075e-08
4.6917e-06
7.8767e-08
4.69665e-06
7.48747e-08
4.70145e-06
7.08503e-08
4.7056e-06
6.60098e-08
4.70901e-06
6.08311e-08
4.71182e-06
5.58573e-08
4.71433e-06
5.12862e-08
4.71659e-06
4.69205e-08
4.71851e-06
4.26626e-08
4.72025e-06
3.85716e-08
4.72161e-06
3.44373e-08
3.03697e-08
4.72257e-06
5.12161e-06
2.77181e-08
5.13258e-06
6.3653e-08
5.14081e-06
7.27578e-08
5.14768e-06
7.61537e-08
5.15423e-06
7.74949e-08
5.16029e-06
7.63974e-08
5.16564e-06
7.33792e-08
5.17066e-06
6.98384e-08
5.17549e-06
6.60193e-08
5.17983e-06
6.16664e-08
5.18362e-06
5.70567e-08
5.18695e-06
5.25452e-08
5.18999e-06
4.8272e-08
5.19278e-06
4.41589e-08
5.19529e-06
4.01713e-08
5.19758e-06
3.63023e-08
5.19957e-06
3.24805e-08
2.87471e-08
5.20122e-06
5.6464e-06
2.23404e-08
5.65656e-06
5.36094e-08
5.66482e-06
6.45897e-08
5.67196e-06
6.90522e-08
5.67868e-06
7.07718e-08
5.68488e-06
7.01762e-08
5.69047e-06
6.77923e-08
5.69567e-06
6.4645e-08
5.70061e-06
6.11064e-08
5.70513e-06
5.7163e-08
5.70918e-06
5.30143e-08
5.71284e-06
4.88906e-08
5.7162e-06
4.49106e-08
5.7193e-06
4.10588e-08
5.72214e-06
3.73311e-08
5.72473e-06
3.37152e-08
5.72704e-06
3.01829e-08
2.67595e-08
5.72905e-06
4.40932e-06
1.91536e-08
4.41583e-06
4.71318e-08
4.42178e-06
5.86412e-08
4.42711e-06
6.36971e-08
4.43211e-06
6.57447e-08
4.43675e-06
6.55125e-08
4.44098e-06
6.35532e-08
4.4449e-06
6.07329e-08
4.44856e-06
5.74538e-08
4.45193e-06
5.37969e-08
4.45501e-06
4.99417e-08
4.45784e-06
4.60779e-08
4.46045e-06
4.23129e-08
4.46286e-06
3.86579e-08
4.46508e-06
3.51236e-08
4.4671e-06
3.16999e-08
4.46891e-06
2.83753e-08
2.5196e-08
4.47051e-06
5.14281e-06
1.621e-08
5.14921e-06
4.08218e-08
5.15549e-06
5.24274e-08
5.16135e-06
5.78835e-08
5.1669e-06
6.01974e-08
5.1721e-06
6.03114e-08
5.17689e-06
5.87697e-08
5.18132e-06
5.63062e-08
5.18547e-06
5.33238e-08
5.1893e-06
4.99773e-08
5.19282e-06
4.64319e-08
5.19607e-06
4.28476e-08
5.19906e-06
3.93261e-08
5.20183e-06
3.58992e-08
5.20438e-06
3.25829e-08
5.20671e-06
2.93781e-08
5.20881e-06
2.62888e-08
2.33384e-08
5.21068e-06
5.9985e-06
1.35282e-08
6.00466e-06
3.47149e-08
6.01116e-06
4.59576e-08
6.01746e-06
5.15998e-08
6.02354e-06
5.41149e-08
6.0293e-06
5.45465e-08
6.03467e-06
5.34052e-08
6.03967e-06
5.13091e-08
6.04435e-06
4.86542e-08
6.0487e-06
4.56409e-08
6.05272e-06
4.24249e-08
6.05642e-06
3.91487e-08
6.05985e-06
3.59074e-08
6.06302e-06
3.27347e-08
6.06593e-06
2.96673e-08
6.0686e-06
2.671e-08
6.07103e-06
2.38663e-08
2.11849e-08
6.07321e-06
6.99672e-06
1.10861e-08
7.00254e-06
2.89431e-08
7.00916e-06
3.9385e-08
7.01581e-06
4.49766e-08
7.02235e-06
4.75772e-08
7.02866e-06
4.82455e-08
7.03461e-06
4.74596e-08
7.0402e-06
4.57242e-08
7.04545e-06
4.34198e-08
7.05034e-06
4.07565e-08
7.05489e-06
3.78922e-08
7.0591e-06
3.49501e-08
7.063e-06
3.20073e-08
7.06661e-06
2.91292e-08
7.06993e-06
2.63381e-08
7.07298e-06
2.36515e-08
7.07577e-06
2.10913e-08
1.86719e-08
7.07829e-06
8.16122e-06
8.89616e-09
8.16666e-06
2.35475e-08
8.17328e-06
3.27947e-08
8.1802e-06
3.80788e-08
8.18715e-06
4.06364e-08
8.19395e-06
4.14486e-08
8.20046e-06
4.09498e-08
8.20664e-06
3.95593e-08
8.21246e-06
3.76026e-08
8.21793e-06
3.53054e-08
8.22303e-06
3.28036e-08
8.22777e-06
3.02083e-08
8.23218e-06
2.76078e-08
8.23625e-06
2.50457e-08
8.24002e-06
2.25637e-08
8.24349e-06
2.01829e-08
8.24665e-06
1.79116e-08
1.5795e-08
8.24955e-06
9.5197e-06
6.92899e-09
9.52476e-06
1.85141e-08
9.53131e-06
2.62722e-08
9.53842e-06
3.09851e-08
9.54571e-06
3.33493e-08
9.55297e-06
3.41909e-08
9.56003e-06
3.39048e-08
9.56677e-06
3.28107e-08
9.57319e-06
3.12014e-08
9.57923e-06
2.92626e-08
9.5849e-06
2.7136e-08
9.5902e-06
2.49166e-08
9.59512e-06
2.26747e-08
9.5997e-06
2.0468e-08
9.60393e-06
1.83259e-08
9.60784e-06
1.62762e-08
9.61144e-06
1.43245e-08
1.25139e-08
9.61472e-06
1.11045e-05
5.14981e-09
1.11092e-05
1.38196e-08
1.11156e-05
1.98735e-08
1.11229e-05
2.37512e-08
1.11305e-05
2.57514e-08
1.11382e-05
2.65028e-08
1.11457e-05
2.63288e-08
1.11531e-05
2.54866e-08
1.11601e-05
2.41913e-08
1.11667e-05
2.2615e-08
1.1173e-05
2.0869e-08
1.11789e-05
1.90389e-08
1.11844e-05
1.71896e-08
1.11895e-05
1.53634e-08
1.11942e-05
1.35941e-08
1.11986e-05
1.1897e-08
1.12027e-05
1.02941e-08
8.80374e-09
1.12064e-05
1.29533e-05
3.5072e-09
1.29577e-05
9.38723e-09
1.2964e-05
1.35862e-08
1.29714e-05
1.63916e-08
1.29793e-05
1.78465e-08
1.29875e-05
1.83741e-08
1.29956e-05
1.82162e-08
1.30035e-05
1.75544e-08
1.30112e-05
1.65459e-08
1.30185e-05
1.53164e-08
1.30254e-05
1.39562e-08
1.30319e-05
1.25327e-08
1.3038e-05
1.10937e-08
1.30437e-05
9.67509e-09
1.3049e-05
8.30091e-09
1.30539e-05
6.99016e-09
1.30585e-05
5.75374e-09
4.61687e-09
1.30627e-05
1.511e-05
1.93807e-09
1.51143e-05
5.08788e-09
1.51206e-05
7.30496e-09
1.51282e-05
8.83164e-09
1.51365e-05
9.55984e-09
1.51452e-05
9.73246e-09
1.51539e-05
9.4906e-09
1.51625e-05
8.94328e-09
1.51709e-05
8.18312e-09
1.51789e-05
7.28796e-09
1.51866e-05
6.31529e-09
1.51938e-05
5.3087e-09
1.52006e-05
4.2995e-09
1.5207e-05
3.31159e-09
1.52129e-05
2.36197e-09
1.52184e-05
1.46394e-09
1.52236e-05
6.24777e-10
-1.35507e-10
1.52283e-05
1.7626e-05
3.54461e-10
1.76304e-05
6.9447e-10
1.7637e-05
7.79418e-10
1.7645e-05
8.32237e-10
1.76539e-05
6.7036e-10
1.76632e-05
3.66194e-10
1.76728e-05
-4.13208e-11
1.76822e-05
-5.2985e-10
1.76915e-05
-1.06601e-09
1.77004e-05
-1.63342e-09
1.7709e-05
-2.20712e-09
1.77171e-05
-2.778e-09
1.77247e-05
-3.32936e-09
1.77319e-05
-3.856e-09
1.77386e-05
-4.34724e-09
1.77449e-05
-4.79982e-09
1.77507e-05
-5.2088e-09
-5.56239e-09
1.77561e-05
1.78277e-05
-1.17231e-09
1.7832e-05
-3.56249e-09
1.78383e-05
-5.55942e-09
1.78461e-05
-6.95819e-09
1.78548e-05
-8.02018e-09
1.7864e-05
-8.80605e-09
1.78733e-05
-9.3997e-09
1.78826e-05
-9.83775e-09
1.78917e-05
-1.01721e-08
1.79005e-05
-1.04202e-08
1.79089e-05
-1.06158e-08
1.79169e-05
-1.0761e-08
1.79245e-05
-1.08744e-08
1.79316e-05
-1.09522e-08
1.79382e-05
-1.10048e-08
1.79445e-05
-1.10268e-08
1.79503e-05
-1.10255e-08
-1.09877e-08
1.79557e-05
1.58828e-05
-2.61605e-09
1.58868e-05
-7.57093e-09
1.58927e-05
-1.14641e-08
1.58998e-05
-1.41361e-08
1.59078e-05
-1.59456e-08
1.59161e-05
-1.71266e-08
1.59245e-05
-1.78352e-08
1.59329e-05
-1.82021e-08
1.5941e-05
-1.83122e-08
1.59489e-05
-1.82611e-08
1.59564e-05
-1.80918e-08
1.59634e-05
-1.78543e-08
1.59701e-05
-1.75635e-08
1.59764e-05
-1.72456e-08
1.59823e-05
-1.69043e-08
1.59879e-05
-1.65524e-08
1.5993e-05
-1.61889e-08
-1.58142e-08
1.59978e-05
1.41501e-05
-4.09862e-09
1.41542e-05
-1.16387e-08
1.41601e-05
-1.73305e-08
1.4167e-05
-2.10818e-08
1.41745e-05
-2.34918e-08
1.41824e-05
-2.4945e-08
1.41902e-05
-2.5693e-08
1.41979e-05
-2.59105e-08
1.42054e-05
-2.57694e-08
1.42125e-05
-2.53902e-08
1.42193e-05
-2.48648e-08
1.42257e-05
-2.42473e-08
1.42317e-05
-2.35804e-08
1.42374e-05
-2.2889e-08
1.42426e-05
-2.21921e-08
1.42476e-05
-2.14979e-08
1.42522e-05
-2.08142e-08
-2.01365e-08
1.42565e-05
1.26067e-05
-5.72681e-09
1.2611e-05
-1.60133e-08
1.26171e-05
-2.3412e-08
1.2624e-05
-2.8033e-08
1.26314e-05
-3.08642e-08
1.26389e-05
-3.24724e-08
1.26464e-05
-3.31504e-08
1.26536e-05
-3.31479e-08
1.26606e-05
-3.26955e-08
1.26671e-05
-3.19625e-08
1.26733e-05
-3.10646e-08
1.26792e-05
-3.00698e-08
1.26846e-05
-2.90362e-08
1.26897e-05
-2.79909e-08
1.26945e-05
-2.69612e-08
1.26989e-05
-2.59533e-08
1.27031e-05
-2.49778e-08
-2.4029e-08
1.2707e-05
1.12317e-05
-7.63423e-09
1.12366e-05
-2.09091e-08
1.1243e-05
-2.98619e-08
1.12501e-05
-3.50807e-08
1.12574e-05
-3.81726e-08
1.12647e-05
-3.98141e-08
1.12719e-05
-4.03169e-08
1.12788e-05
-4.00039e-08
1.12852e-05
-3.91825e-08
1.12913e-05
-3.80643e-08
1.12971e-05
-3.67738e-08
1.13024e-05
-3.54033e-08
1.13074e-05
-3.40042e-08
1.1312e-05
-3.26234e-08
1.13163e-05
-3.12757e-08
1.13203e-05
-2.998e-08
1.13241e-05
-2.87347e-08
-2.75425e-08
1.13276e-05
1.0007e-05
-9.98293e-09
1.00126e-05
-2.65294e-08
1.00195e-05
-3.67597e-08
1.00267e-05
-4.22845e-08
1.0034e-05
-4.54608e-08
1.00411e-05
-4.70094e-08
1.0048e-05
-4.72184e-08
1.00546e-05
-4.65152e-08
1.00607e-05
-4.52772e-08
1.00663e-05
-4.37424e-08
1.00716e-05
-4.20519e-08
1.00765e-05
-4.02974e-08
1.0081e-05
-3.85461e-08
1.00853e-05
-3.68353e-08
1.00892e-05
-3.51916e-08
1.00928e-05
-3.36223e-08
1.00962e-05
-3.21335e-08
-3.07153e-08
1.00994e-05
8.91613e-06
-1.30211e-08
8.92264e-06
-3.30515e-08
8.92999e-06
-4.41012e-08
8.93732e-06
-4.96068e-08
8.94459e-06
-5.27318e-08
8.95163e-06
-5.40551e-08
8.95828e-06
-5.38643e-08
8.96446e-06
-5.27013e-08
8.9702e-06
-5.10139e-08
8.97551e-06
-4.90539e-08
8.98042e-06
-4.69559e-08
8.98494e-06
-4.48223e-08
8.98912e-06
-4.27201e-08
8.99297e-06
-4.06918e-08
8.99654e-06
-3.87605e-08
8.99986e-06
-3.69366e-08
9.00294e-06
-3.52179e-08
-3.3595e-08
9.00582e-06
7.94465e-06
-1.70005e-08
7.95228e-06
-4.06746e-08
7.96002e-06
-5.18396e-08
7.96746e-06
-5.70444e-08
7.97472e-06
-5.99882e-08
7.98164e-06
-6.09698e-08
7.98808e-06
-6.02999e-08
7.99403e-06
-5.86544e-08
7.99952e-06
-5.65081e-08
8.00458e-06
-5.41085e-08
8.00922e-06
-5.15952e-08
8.01347e-06
-4.90731e-08
8.01737e-06
-4.66141e-08
8.02094e-06
-4.42626e-08
8.02422e-06
-4.20437e-08
8.02726e-06
-3.99676e-08
8.03007e-06
-3.8027e-08
-3.62007e-08
8.03267e-06
7.07951e-06
-2.21742e-08
7.08862e-06
-4.97808e-08
7.09683e-06
-6.00453e-08
7.10452e-06
-6.47202e-08
7.11196e-06
-6.742e-08
7.11896e-06
-6.79719e-08
7.12544e-06
-6.67794e-08
7.13141e-06
-6.46268e-08
7.13689e-06
-6.1985e-08
7.14189e-06
-5.91068e-08
7.14642e-06
-5.61294e-08
7.15052e-06
-5.31681e-08
7.15421e-06
-5.03078e-08
7.15754e-06
-4.75888e-08
7.16055e-06
-4.50506e-08
7.16328e-06
-4.26949e-08
7.16577e-06
-4.05166e-08
-3.84883e-08
7.16806e-06
6.30975e-06
-2.94098e-08
6.32095e-06
-6.09516e-08
6.33023e-06
-6.93221e-08
6.33902e-06
-7.35027e-08
6.34748e-06
-7.58722e-08
6.35531e-06
-7.57952e-08
6.36244e-06
-7.39167e-08
6.36891e-06
-7.10831e-08
6.37469e-06
-6.77764e-08
6.37981e-06
-6.42205e-08
6.38427e-06
-6.05914e-08
6.38812e-06
-5.7022e-08
6.39142e-06
-5.35975e-08
6.39421e-06
-5.03848e-08
6.39657e-06
-4.74107e-08
6.39857e-06
-4.46883e-08
6.40025e-06
-4.21949e-08
-3.99104e-08
6.40167e-06
5.62891e-06
-4.34171e-08
5.64467e-06
-7.6678e-08
5.65813e-06
-8.27713e-08
5.67109e-06
-8.64509e-08
5.68292e-06
-8.76985e-08
5.69316e-06
-8.60282e-08
5.70171e-06
-8.2459e-08
5.70858e-06
-7.79508e-08
5.71383e-06
-7.30331e-08
5.7176e-06
-6.7993e-08
5.72005e-06
-6.30393e-08
5.72135e-06
-5.83135e-08
5.72165e-06
-5.39039e-08
5.72112e-06
-4.98532e-08
5.71991e-06
-4.61972e-08
5.71816e-06
-4.29426e-08
5.71602e-06
-4.00577e-08
-3.76917e-08
5.7138e-06
5.04884e-06
-8.99403e-08
5.08291e-06
-1.10712e-07
5.1075e-06
-1.07351e-07
5.12308e-06
-1.0202e-07
5.13071e-06
-9.53142e-08
5.13165e-06
-8.69619e-08
5.12717e-06
-7.79693e-08
5.11842e-06
-6.91965e-08
5.10644e-06
-6.10615e-08
5.09218e-06
-5.37347e-08
5.07638e-06
-4.72334e-08
5.05958e-06
-4.15139e-08
5.04223e-06
-3.65582e-08
5.02471e-06
-3.2328e-08
5.00726e-06
-2.87541e-08
4.99016e-06
-2.58491e-08
4.9737e-06
-2.35938e-08
-2.2295e-08
4.9583e-06
4.36661e-06
4.2559e-06
4.14855e-06
4.04653e-06
3.95122e-06
3.86426e-06
3.78629e-06
3.71709e-06
3.65603e-06
3.60229e-06
3.55506e-06
3.51355e-06
3.47699e-06
3.44466e-06
3.41591e-06
3.39006e-06
3.36646e-06
3.34417e-06
-8.45812e-09
8.46997e-09
-2.28512e-08
1.43955e-08
-3.8573e-08
1.574e-08
-5.2163e-08
1.3583e-08
-5.83096e-08
6.1668e-09
-5.09122e-08
-7.4126e-09
-2.76754e-08
-2.32167e-08
8.90759e-09
-3.65968e-08
5.46605e-08
-4.57373e-08
1.04654e-07
-5.00047e-08
1.5436e-07
-4.96971e-08
2.00577e-07
-4.62252e-08
2.41266e-07
-4.06858e-08
2.7514e-07
-3.38839e-08
3.01496e-07
-2.63565e-08
3.19897e-07
-1.84116e-08
3.30081e-07
-1.01884e-08
3.31708e-07
-1.64021e-09
3.24585e-07
7.11857e-09
3.08868e-07
1.57019e-08
2.85185e-07
2.36815e-08
2.54504e-07
3.06629e-08
2.18277e-07
3.62301e-08
1.78347e-07
3.99093e-08
1.37123e-07
4.12353e-08
9.72423e-08
3.98647e-08
6.15047e-08
3.5758e-08
3.21173e-08
2.9386e-08
1.03193e-08
2.18335e-08
-4.09368e-09
1.44289e-08
-1.19784e-08
7.93091e-09
-1.38531e-08
1.90056e-09
-9.42006e-09
-4.38136e-09
2.48948e-09
-1.18795e-08
2.3441e-08
-2.09083e-08
5.33224e-08
-2.98651e-08
8.81871e-08
-3.48332e-08
1.21715e-07
-3.3512e-08
1.48347e-07
-2.66114e-08
1.64862e-07
-1.64755e-08
1.71527e-07
-6.61816e-09
1.71301e-07
3.11556e-10
1.67525e-07
3.8294e-09
1.63807e-07
3.83364e-09
1.61921e-07
1.89173e-09
1.55701e-07
6.39371e-09
1.35323e-07
2.02519e-08
9.35354e-08
4.20704e-08
2.50889e-08
6.81751e-08
-6.67006e-08
9.19998e-08
-1.78621e-07
1.11734e-07
-3.07253e-07
1.28622e-07
-4.49345e-07
1.41985e-07
-5.97554e-07
1.48091e-07
-7.47968e-07
1.50344e-07
-8.97692e-07
1.49648e-07
-1.043e-06
1.45285e-07
-1.1815e-06
1.38468e-07
-1.31198e-06
1.30487e-07
-1.43283e-06
1.20833e-07
-1.54349e-06
1.10665e-07
-1.64495e-06
1.0145e-07
-1.73794e-06
9.30025e-08
-1.82325e-06
8.53022e-08
-1.90147e-06
7.82205e-08
-1.97345e-06
7.19735e-08
-2.0399e-06
6.64515e-08
-2.10152e-06
6.16099e-08
-2.15886e-06
5.73519e-08
-2.21247e-06
5.35988e-08
-2.26273e-06
5.02674e-08
-2.31002e-06
4.72861e-08
-2.35461e-06
4.45944e-08
-2.39675e-06
4.2135e-08
-2.43661e-06
3.987e-08
-2.47437e-06
3.77561e-08
-2.51013e-06
3.57716e-08
-2.54402e-06
3.38849e-08
-2.57609e-06
3.20855e-08
-2.60643e-06
3.03503e-08
-2.63509e-06
2.86753e-08
-2.66213e-06
2.70445e-08
-2.68757e-06
2.5456e-08
-2.71146e-06
2.38989e-08
-2.73382e-06
2.23699e-08
-2.75465e-06
2.08613e-08
-2.77401e-06
1.93648e-08
-2.79187e-06
1.78775e-08
-2.80827e-06
1.63974e-08
-2.82321e-06
1.49106e-08
-2.83668e-06
1.34331e-08
-2.84866e-06
1.19496e-08
-2.85914e-06
1.04547e-08
-2.86809e-06
8.93894e-09
-2.87548e-06
7.38792e-09
-2.88124e-06
5.796e-09
-2.88536e-06
4.13826e-09
-2.88773e-06
2.41781e-09
-2.88838e-06
6.65225e-10
-2.8874e-06
-9.5076e-10
-2.88504e-06
-2.36086e-09
-2.88138e-06
-3.65646e-09
-2.87647e-06
-4.93367e-09
-2.87029e-06
-6.1977e-09
-2.86286e-06
-7.46833e-09
-2.85416e-06
-8.7366e-09
-2.84421e-06
-1.00118e-08
-2.83298e-06
-1.12866e-08
-2.82048e-06
-1.25656e-08
-2.80671e-06
-1.3845e-08
-2.79166e-06
-1.51253e-08
-2.77533e-06
-1.64064e-08
-2.75773e-06
-1.76844e-08
-2.73885e-06
-1.89631e-08
-2.71869e-06
-2.02345e-08
-2.69727e-06
-2.15063e-08
-2.67457e-06
-2.27668e-08
-2.65063e-06
-2.40269e-08
-2.62541e-06
-2.52719e-08
-2.59896e-06
-2.6515e-08
-2.57127e-06
-2.77392e-08
-2.54236e-06
-2.89591e-08
-2.51223e-06
-3.01566e-08
-2.48091e-06
-3.13462e-08
-2.44841e-06
-3.25101e-08
-2.41476e-06
-3.36619e-08
-2.37996e-06
-3.47848e-08
-2.34406e-06
-3.58882e-08
-2.30707e-06
-3.69607e-08
-2.26904e-06
-3.80095e-08
-2.22997e-06
-3.90216e-08
-2.18993e-06
-3.99986e-08
-2.14896e-06
-4.09172e-08
-2.10715e-06
-4.17784e-08
-2.06454e-06
-4.25725e-08
-2.02123e-06
-4.32795e-08
-1.97712e-06
-4.40685e-08
-1.93216e-06
-4.49204e-08
-1.88645e-06
-4.56627e-08
-1.84006e-06
-4.63478e-08
-1.79302e-06
-4.69887e-08
-1.74538e-06
-4.75884e-08
-1.69719e-06
-4.81541e-08
-1.64847e-06
-4.86822e-08
-1.59926e-06
-4.9179e-08
-1.54961e-06
-4.96382e-08
-1.49953e-06
-5.00735e-08
-1.44907e-06
-5.0467e-08
-1.39826e-06
-5.08339e-08
-1.34711e-06
-5.11603e-08
-1.29567e-06
-5.14561e-08
-1.24397e-06
-5.17102e-08
-1.19204e-06
-5.19335e-08
-1.13993e-06
-5.21157e-08
-1.08767e-06
-5.22708e-08
-1.03527e-06
-5.23988e-08
-9.82766e-07
-5.25008e-08
-9.30171e-07
-5.25926e-08
-8.77495e-07
-5.26719e-08
-8.24744e-07
-5.27465e-08
-7.7192e-07
-5.28179e-08
-7.19027e-07
-5.28879e-08
-6.66067e-07
-5.29536e-08
-6.13045e-07
-5.30158e-08
-5.59965e-07
-5.30736e-08
-5.06827e-07
-5.31315e-08
-4.53627e-07
-5.31919e-08
-4.00359e-07
-5.32603e-08
-3.4701e-07
-5.33371e-08
-2.93578e-07
-5.34213e-08
-2.40061e-07
-5.35014e-08
-1.86484e-07
-5.35625e-08
-1.32896e-07
-5.35685e-08
-7.94193e-08
-5.34591e-08
-2.63012e-08
-5.30963e-08
2.60151e-08
-5.22965e-08
7.69233e-08
-5.08862e-08
1.24551e-07
-4.76098e-08
1.67849e-07
-4.32812e-08
-1.708e-08
1.84943e-07
-3.48038e-09
1.19724e-08
-9.65567e-09
2.05726e-08
-1.25141e-08
1.86455e-08
-4.97495e-09
6.0367e-09
1.81973e-08
-1.69652e-08
5.61264e-08
-4.53481e-08
1.04428e-07
-7.14988e-08
1.57447e-07
-8.96194e-08
2.09977e-07
-9.82579e-08
2.58605e-07
-9.86365e-08
3.01837e-07
-9.29242e-08
3.38942e-07
-8.33345e-08
3.69822e-07
-7.15652e-08
3.94667e-07
-5.8735e-08
4.13825e-07
-4.55169e-08
4.27681e-07
-3.22757e-08
4.36675e-07
-1.91861e-08
4.41362e-07
-6.33845e-09
4.42168e-07
6.3064e-09
4.38996e-07
1.88626e-08
4.31385e-07
3.12887e-08
4.18701e-07
4.33339e-08
4.00382e-07
5.45467e-08
3.76032e-07
6.4249e-08
3.45684e-07
7.1585e-08
3.09918e-07
7.56243e-08
2.7011e-07
7.55746e-08
2.28435e-07
7.10617e-08
1.87972e-07
6.23169e-08
1.5234e-07
5.00717e-08
1.2514e-07
3.51667e-08
1.08888e-07
1.81791e-08
1.05083e-07
-5.29747e-10
1.13285e-07
-2.00549e-08
1.31447e-07
-3.90381e-08
1.54216e-07
-5.26204e-08
1.74311e-07
-5.49087e-08
1.86633e-07
-4.58249e-08
1.89422e-07
-2.93854e-08
1.826e-07
-9.62614e-09
1.67639e-07
8.37281e-09
1.46042e-07
2.19921e-08
1.12226e-07
3.76884e-08
5.61332e-08
6.00392e-08
-3.14241e-08
8.9481e-08
-1.50416e-07
1.25489e-07
-2.92578e-07
1.62416e-07
-4.4754e-07
1.97087e-07
-6.08226e-07
2.28845e-07
-7.71333e-07
2.55126e-07
-9.33802e-07
2.74173e-07
-1.09127e-06
2.86062e-07
-1.23973e-06
2.90403e-07
-1.37829e-06
2.86597e-07
-1.50423e-06
2.76253e-07
-1.61649e-06
2.61878e-07
-1.71593e-06
2.44708e-07
-1.80375e-06
2.26281e-07
-1.88096e-06
2.07694e-07
-1.94965e-06
1.89519e-07
-2.01129e-06
1.72306e-07
-2.06675e-06
1.56909e-07
-2.11707e-06
1.43324e-07
-2.1632e-06
1.31427e-07
-2.20596e-06
1.20986e-07
-2.24588e-06
1.11885e-07
-2.28336e-06
1.03935e-07
-2.31873e-06
9.69715e-08
-2.3522e-06
9.0827e-08
-2.38396e-06
8.5359e-08
-2.41414e-06
8.04443e-08
-2.44283e-06
7.59779e-08
-2.47011e-06
7.18752e-08
-2.49604e-06
6.80637e-08
-2.52065e-06
6.44883e-08
-2.544e-06
6.11007e-08
-2.56609e-06
5.78671e-08
-2.58695e-06
5.47554e-08
-2.60661e-06
5.17456e-08
-2.62507e-06
4.88165e-08
-2.64234e-06
4.59566e-08
-2.65844e-06
4.31515e-08
-2.67337e-06
4.03944e-08
-2.68713e-06
3.7675e-08
-2.69974e-06
3.49874e-08
-2.71119e-06
3.23232e-08
-2.72149e-06
2.96756e-08
-2.73064e-06
2.70401e-08
-2.73866e-06
2.44069e-08
-2.74555e-06
2.17854e-08
-2.75131e-06
1.91675e-08
-2.75593e-06
1.65536e-08
-2.75943e-06
1.39427e-08
-2.76183e-06
1.13273e-08
-2.76313e-06
8.70952e-09
-2.7634e-06
6.08843e-09
-2.7627e-06
3.47119e-09
-2.76113e-06
8.78731e-10
-2.75878e-06
-1.6567e-09
-2.75558e-06
-4.13616e-09
-2.75133e-06
-6.60903e-09
-2.74589e-06
-9.09314e-09
-2.73925e-06
-1.15847e-08
-2.73139e-06
-1.408e-08
-2.7223e-06
-1.65845e-08
-2.71197e-06
-1.90942e-08
-2.70041e-06
-2.16129e-08
-2.68761e-06
-2.41357e-08
-2.67356e-06
-2.66655e-08
-2.65826e-06
-2.91975e-08
-2.64171e-06
-3.17332e-08
-2.6239e-06
-3.42683e-08
-2.60485e-06
-3.68026e-08
-2.58454e-06
-3.9333e-08
-2.56298e-06
-4.18572e-08
-2.54017e-06
-4.43736e-08
-2.51611e-06
-4.68784e-08
-2.49082e-06
-4.93714e-08
-2.46429e-06
-5.18468e-08
-2.43654e-06
-5.43056e-08
-2.40758e-06
-5.67402e-08
-2.37741e-06
-5.91524e-08
-2.34606e-06
-6.15328e-08
-2.31354e-06
-6.3884e-08
-2.27987e-06
-6.61956e-08
-2.24506e-06
-6.84703e-08
-2.20914e-06
-7.06971e-08
-2.17214e-06
-7.28775e-08
-2.13409e-06
-7.50011e-08
-2.095e-06
-7.70679e-08
-2.05493e-06
-7.90673e-08
-2.0139e-06
-8.09956e-08
-1.97195e-06
-8.28391e-08
-1.92911e-06
-8.46031e-08
-1.88537e-06
-8.62842e-08
-1.84074e-06
-8.78883e-08
-1.7953e-06
-8.94809e-08
-1.74916e-06
-9.10412e-08
-1.7023e-06
-9.2492e-08
-1.65477e-06
-9.38473e-08
-1.60661e-06
-9.51176e-08
-1.55786e-06
-9.63095e-08
-1.50856e-06
-9.74287e-08
-1.45874e-06
-9.84756e-08
-1.40845e-06
-9.94542e-08
-1.35772e-06
-1.00363e-07
-1.30658e-06
-1.01212e-07
-1.25506e-06
-1.01991e-07
-1.2032e-06
-1.02708e-07
-1.15101e-06
-1.03356e-07
-1.09854e-06
-1.03939e-07
-1.0458e-06
-1.04451e-07
-9.9284e-07
-1.04896e-07
-9.39688e-07
-1.05269e-07
-8.86378e-07
-1.05582e-07
-8.32931e-07
-1.05844e-07
-7.79372e-07
-1.06058e-07
-7.25716e-07
-1.06245e-07
-6.71973e-07
-1.06411e-07
-6.18151e-07
-1.06564e-07
-5.64252e-07
-1.06713e-07
-5.10277e-07
-1.06858e-07
-4.56229e-07
-1.06998e-07
-4.02111e-07
-1.07131e-07
-3.47923e-07
-1.07258e-07
-2.93666e-07
-1.07384e-07
-2.39334e-07
-1.07519e-07
-1.84921e-07
-1.07668e-07
-1.30414e-07
-1.07837e-07
-7.58087e-08
-1.08019e-07
-2.11077e-08
-1.08194e-07
3.3668e-08
-1.08328e-07
8.84783e-08
-1.08368e-07
1.43227e-07
-1.08197e-07
1.97767e-07
-1.07624e-07
2.51797e-07
-1.06314e-07
3.04603e-07
-1.0368e-07
3.55613e-07
-9.86078e-08
4.01499e-07
-8.91569e-08
-6.04737e-08
4.44902e-07
5.55468e-10
1.14367e-08
4.4296e-09
1.67128e-08
1.95682e-08
3.54341e-09
5.3781e-08
-2.81723e-08
1.05684e-07
-6.88509e-08
1.65522e-07
-1.05187e-07
2.23161e-07
-1.29128e-07
2.72874e-07
-1.39335e-07
3.13018e-07
-1.38397e-07
3.44307e-07
-1.29928e-07
3.68392e-07
-1.17007e-07
3.86834e-07
-1.0178e-07
4.00849e-07
-8.55801e-08
4.11258e-07
-6.91495e-08
4.18617e-07
-5.28784e-08
4.2329e-07
-3.69566e-08
4.2557e-07
-2.14713e-08
4.25691e-07
-6.46953e-09
4.2396e-07
8.03139e-09
4.20737e-07
2.20743e-08
4.16311e-07
3.57092e-08
4.10714e-07
4.8919e-08
4.03692e-07
6.15633e-08
3.94632e-07
7.32992e-08
3.82687e-07
8.35279e-08
3.66927e-07
9.13778e-08
3.46742e-07
9.57621e-08
3.22255e-07
9.55493e-08
2.94708e-07
8.98717e-08
2.66467e-07
7.83198e-08
2.40575e-07
6.10751e-08
2.19856e-07
3.89123e-08
2.06008e-07
1.33414e-08
1.98889e-07
-1.29213e-08
1.93921e-07
-3.40526e-08
1.83415e-07
-4.21113e-08
1.63371e-07
-3.48565e-08
1.33947e-07
-1.6396e-08
9.57897e-08
8.77751e-09
4.66557e-08
3.95203e-08
-1.94382e-08
7.44906e-08
-1.09281e-07
1.11865e-07
-2.24239e-07
1.52671e-07
-3.60789e-07
1.96615e-07
-5.12387e-07
2.41093e-07
-6.69847e-07
2.82979e-07
-8.2694e-07
3.19518e-07
-9.78529e-07
3.48702e-07
-1.11948e-06
3.69801e-07
-1.24682e-06
3.82469e-07
-1.35939e-06
3.86733e-07
-1.45657e-06
3.83226e-07
-1.53901e-06
3.72814e-07
-1.60912e-06
3.56691e-07
-1.66952e-06
3.36631e-07
-1.72219e-06
3.14527e-07
-1.76919e-06
2.91707e-07
-1.81214e-06
2.69225e-07
-1.85219e-06
2.47743e-07
-1.89038e-06
2.27707e-07
-1.92744e-06
2.09359e-07
-1.96343e-06
1.92905e-07
-1.99843e-06
1.78315e-07
-2.03244e-06
1.65439e-07
-2.06552e-06
1.54066e-07
-2.09765e-06
1.44013e-07
-2.1288e-06
1.3509e-07
-2.15896e-06
1.27128e-07
-2.1881e-06
1.19967e-07
-2.21621e-06
1.13466e-07
-2.24327e-06
1.07508e-07
-2.26928e-06
1.0199e-07
-2.29424e-06
9.68304e-08
-2.31813e-06
9.19583e-08
-2.34096e-06
8.73188e-08
-2.36273e-06
8.28658e-08
-2.38342e-06
7.8564e-08
-2.40305e-06
7.43838e-08
-2.4216e-06
7.03032e-08
-2.43908e-06
6.63033e-08
-2.45549e-06
6.23705e-08
-2.47082e-06
5.84927e-08
-2.48508e-06
5.46611e-08
-2.49827e-06
5.08673e-08
-2.51038e-06
4.71047e-08
-2.52141e-06
4.33664e-08
-2.53137e-06
3.96464e-08
-2.54026e-06
3.59378e-08
-2.5481e-06
3.224e-08
-2.55487e-06
2.85459e-08
-2.56059e-06
2.48646e-08
-2.56523e-06
2.11923e-08
-2.56882e-06
1.75272e-08
-2.57135e-06
1.38689e-08
-2.57284e-06
1.02198e-08
-2.57331e-06
6.57806e-09
-2.57275e-06
2.95123e-09
-2.57119e-06
-6.59693e-10
-2.56857e-06
-4.24838e-09
-2.56486e-06
-7.83945e-09
-2.56001e-06
-1.14528e-08
-2.55401e-06
-1.50968e-08
-2.54683e-06
-1.87587e-08
-2.53849e-06
-2.24392e-08
-2.52896e-06
-2.61329e-08
-2.51824e-06
-2.98414e-08
-2.50632e-06
-3.3561e-08
-2.49319e-06
-3.72921e-08
-2.47886e-06
-4.1032e-08
-2.46332e-06
-4.47793e-08
-2.44657e-06
-4.8532e-08
-2.42859e-06
-5.22867e-08
-2.4094e-06
-5.60416e-08
-2.38898e-06
-5.97915e-08
-2.36735e-06
-6.35352e-08
-2.3445e-06
-6.72665e-08
-2.32044e-06
-7.09844e-08
-2.29517e-06
-7.46823e-08
-2.2687e-06
-7.8359e-08
-2.24103e-06
-8.20073e-08
-2.21217e-06
-8.56248e-08
-2.18214e-06
-8.92039e-08
-2.15096e-06
-9.27413e-08
-2.11862e-06
-9.62294e-08
-2.08517e-06
-9.96639e-08
-2.0506e-06
-1.03038e-07
-2.01495e-06
-1.06346e-07
-1.97824e-06
-1.0958e-07
-1.9405e-06
-1.12733e-07
-1.90175e-06
-1.15797e-07
-1.86204e-06
-1.18766e-07
-1.82138e-06
-1.2163e-07
-1.77982e-06
-1.24381e-07
-1.73738e-06
-1.27023e-07
-1.69409e-06
-1.29559e-07
-1.64997e-06
-1.31993e-07
-1.60508e-06
-1.34348e-07
-1.5595e-06
-1.36609e-07
-1.51322e-06
-1.38742e-07
-1.4663e-06
-1.40748e-07
-1.41876e-06
-1.42632e-07
-1.37065e-06
-1.44401e-07
-1.322e-06
-1.4606e-07
-1.27284e-06
-1.47612e-07
-1.22323e-06
-1.49058e-07
-1.17318e-06
-1.50402e-07
-1.12274e-06
-1.51651e-07
-1.07193e-06
-1.52802e-07
-1.02078e-06
-1.53859e-07
-9.69322e-07
-1.54821e-07
-9.17577e-07
-1.55686e-07
-8.65574e-07
-1.56454e-07
-8.1335e-07
-1.57119e-07
-7.60932e-07
-1.57686e-07
-7.08352e-07
-1.58161e-07
-6.55632e-07
-1.58562e-07
-6.02793e-07
-1.58894e-07
-5.49854e-07
-1.59182e-07
-4.96824e-07
-1.59438e-07
-4.43709e-07
-1.59676e-07
-3.90514e-07
-1.59906e-07
-3.37238e-07
-1.60131e-07
-2.83883e-07
-1.6035e-07
-2.30452e-07
-1.6056e-07
-1.76945e-07
-1.60763e-07
-1.23359e-07
-1.60968e-07
-6.96905e-08
-1.61186e-07
-1.59299e-08
-1.61428e-07
3.79326e-08
-1.61698e-07
9.19036e-08
-1.6199e-07
1.45988e-07
-1.62277e-07
2.00171e-07
-1.62511e-07
2.5441e-07
-1.62606e-07
3.08631e-07
-1.62417e-07
3.62707e-07
-1.61698e-07
4.16413e-07
-1.6002e-07
4.69377e-07
-1.56642e-07
5.21171e-07
-1.50401e-07
5.70852e-07
-1.38837e-07
-1.11623e-07
6.22002e-07
-1.32568e-10
1.159e-08
1.33207e-08
3.27888e-09
5.42935e-08
-3.74065e-08
1.17929e-07
-9.18048e-08
1.86481e-07
-1.37393e-07
2.45383e-07
-1.6409e-07
2.88955e-07
-1.72695e-07
3.18181e-07
-1.68563e-07
3.36799e-07
-1.57012e-07
3.48561e-07
-1.41693e-07
3.56214e-07
-1.24658e-07
3.61376e-07
-1.06946e-07
3.64874e-07
-8.90797e-08
3.6705e-07
-7.13317e-08
3.68027e-07
-5.38591e-08
3.67827e-07
-3.67657e-08
3.66477e-07
-2.01275e-08
3.64005e-07
-4.00966e-09
3.60494e-07
1.15339e-08
3.56081e-07
2.64742e-08
3.50997e-07
4.0784e-08
3.45476e-07
5.44263e-08
3.39704e-07
6.73271e-08
3.33678e-07
7.93121e-08
3.27158e-07
9.00414e-08
3.19604e-07
9.89228e-08
3.10281e-07
1.05081e-07
2.98455e-07
1.07371e-07
2.83744e-07
1.04585e-07
2.66316e-07
9.57507e-08
2.47153e-07
8.02464e-08
2.27629e-07
5.84466e-08
2.08169e-07
3.28179e-08
1.84859e-07
1.03964e-08
1.50482e-07
3.35007e-10
1.02394e-07
5.9776e-09
4.177e-08
2.57737e-08
-3.2424e-08
5.77952e-08
-1.22851e-07
9.92103e-08
-2.30195e-07
1.4687e-07
-3.53116e-07
1.97415e-07
-4.89229e-07
2.4799e-07
-6.33254e-07
2.96701e-07
-7.78587e-07
3.41962e-07
-9.19074e-07
3.81584e-07
-1.04912e-06
4.1304e-07
-1.16497e-06
4.3538e-07
-1.26515e-06
4.48895e-07
-1.34925e-06
4.539e-07
-1.41808e-06
4.51306e-07
-1.47358e-06
4.42225e-07
-1.5182e-06
4.27831e-07
-1.55476e-06
4.09365e-07
-1.58615e-06
3.88064e-07
-1.61471e-06
3.65186e-07
-1.64204e-06
3.41844e-07
-1.66919e-06
3.18853e-07
-1.69675e-06
2.96775e-07
-1.72497e-06
2.75965e-07
-1.75392e-06
2.56656e-07
-1.78352e-06
2.38956e-07
-1.81351e-06
2.22893e-07
-1.84362e-06
2.08426e-07
-1.87362e-06
1.95435e-07
-1.90331e-06
1.83763e-07
-1.93255e-06
1.73252e-07
-1.96121e-06
1.63747e-07
-1.98918e-06
1.551e-07
-2.01639e-06
1.47176e-07
-2.04278e-06
1.39852e-07
-2.0683e-06
1.33024e-07
-2.09291e-06
1.26602e-07
-2.11658e-06
1.20508e-07
-2.13931e-06
1.14681e-07
-2.16106e-06
1.09069e-07
-2.18182e-06
1.03629e-07
-2.20158e-06
9.83291e-08
-2.22034e-06
9.31423e-08
-2.23808e-06
8.80475e-08
-2.2548e-06
8.30279e-08
-2.27049e-06
7.80706e-08
-2.28516e-06
7.31647e-08
-2.2988e-06
6.83019e-08
-2.3114e-06
6.3475e-08
-2.32296e-06
5.86779e-08
-2.3335e-06
5.39049e-08
-2.34299e-06
4.91503e-08
-2.35146e-06
4.44096e-08
-2.3589e-06
3.96752e-08
-2.36532e-06
3.49561e-08
-2.3707e-06
3.02404e-08
-2.37505e-06
2.55364e-08
-2.37836e-06
2.08406e-08
-2.38062e-06
1.61523e-08
-2.38185e-06
1.14711e-08
-2.38203e-06
6.79369e-09
-2.38117e-06
2.12072e-09
-2.37925e-06
-2.55343e-09
-2.37625e-06
-7.23142e-09
-2.37214e-06
-1.1932e-08
-2.36693e-06
-1.66637e-08
-2.36059e-06
-2.14322e-08
-2.35313e-06
-2.6227e-08
-2.34453e-06
-3.1049e-08
-2.33478e-06
-3.58906e-08
-2.32389e-06
-4.07541e-08
-2.31184e-06
-4.56336e-08
-2.29863e-06
-5.05307e-08
-2.28425e-06
-5.54404e-08
-2.2687e-06
-6.03628e-08
-2.25197e-06
-6.52934e-08
-2.23407e-06
-7.02293e-08
-2.21498e-06
-7.5167e-08
-2.19471e-06
-8.01003e-08
-2.17325e-06
-8.50269e-08
-2.15062e-06
-8.99386e-08
-2.1268e-06
-9.48344e-08