/*--------------------------------*- C++ -*----------------------------------*\
  =========                 |
  \\      /  F ield         | OpenFOAM: The Open Source CFD Toolbox
   \\    /   O peration     | Website:  https://openfoam.org
    \\  /    A nd           | Version:  8
     \\/     M anipulation  |
\*---------------------------------------------------------------------------*/
FoamFile
{
    version     2.0;
    format      ascii;
    class       volScalarField;
    location    "100";
    object      p;
}
// * * * * * * * * * * * * * * * * * * * * * * * * * * * * * * * * * * * * * //

dimensions      [0 2 -2 0 0 0 0];

internalField   nonuniform List<scalar> 
12225
(
557.988
98.8415
45.6786
43.598
41.4194
39.9458
39.5109
39.3029
39.0963
38.9641
38.921
38.9124
38.91
38.8863
38.8344
38.7735
38.6481
38.4443
-78.8667
43.5529
40.5966
42.5515
41.102
39.7955
39.3696
39.1876
39.0464
38.944
38.8705
38.8161
38.7711
38.7445
38.7333
38.7191
38.6601
38.5735
-157.333
27.1656
40.9692
42.9588
41.4181
40.076
39.5503
39.3025
39.1325
39.0102
38.9198
38.857
38.8139
38.794
38.7876
38.7806
38.755
38.7804
-67.3031
32.3406
41.1391
42.8857
41.5317
40.2924
39.7219
39.4175
39.2114
39.0683
38.9687
38.9017
38.8575
38.8338
38.8233
38.8225
38.8304
38.9065
-18.259
35.1701
39.6944
42.1084
41.3048
40.3235
39.7948
39.478
39.259
39.1074
39.0025
38.9311
38.8836
38.8568
38.8471
38.8557
38.8877
38.9828
-2.41638
34.5311
38.0588
41.1187
40.8907
40.2214
39.7882
39.4944
39.2819
39.1313
39.025
38.9512
38.9021
38.8748
38.8677
38.883
38.9273
39.0242
7.52047
34.0402
36.9377
40.195
40.3994
40.0331
39.7215
39.4737
39.2818
39.1397
39.0364
38.9633
38.9145
38.8879
38.8823
38.9001
38.9466
39.0342
15.5378
34.4102
36.3449
39.5174
39.9599
39.8248
39.625
39.4284
39.2622
39.1328
39.0355
38.9651
38.9175
38.891
38.8849
38.9011
38.9431
39.0164
21.6266
34.7982
36.185
39.0103
39.5933
39.6178
39.5096
39.3639
39.2263
39.1125
39.0236
38.9574
38.9117
38.8852
38.8777
38.8902
38.9245
38.9825
26.7047
35.1782
36.232
38.566
39.2395
39.3899
39.3669
39.2757
39.1716
39.0775
38.9998
38.9397
38.8966
38.8703
38.8603
38.8672
38.8912
38.9312
30.6791
35.6386
36.4145
38.2201
38.9163
39.1541
39.2042
39.1665
39.0981
39.0264
38.9622
38.9095
38.8698
38.8431
38.8296
38.829
38.8402
38.8609
33.6195
36.1711
36.6917
37.9955
38.6445
38.9273
39.0313
39.0405
39.0067
38.9583
38.9087
38.8644
38.8278
38.8004
38.7821
38.7722
38.7693
38.7705
35.6528
36.7153
37.0149
37.8903
38.4397
38.7266
38.8613
38.9056
38.9013
38.8743
38.8388
38.8024
38.7688
38.7397
38.7155
38.6955
38.6783
38.6612
36.9479
37.2067
37.3348
37.881
38.3063
38.5653
38.7076
38.7719
38.7885
38.7783
38.7543
38.7242
38.6923
38.6606
38.6298
38.5997
38.5689
38.5359
37.6957
37.5968
37.6107
37.9295
38.2349
38.4484
38.58
38.6499
38.6771
38.6769
38.66
38.6333
38.6011
38.5656
38.5279
38.4881
38.4456
38.3995
38.0743
37.858
37.8103
37.9911
38.2039
38.371
38.4833
38.5482
38.5767
38.5792
38.564
38.5369
38.5019
38.4613
38.4165
38.3679
38.3158
38.2598
38.2144
37.9725
37.8997
38.0176
38.1813
38.3201
38.4173
38.4747
38.4992
38.4987
38.4801
38.4486
38.4079
38.3605
38.3081
38.2514
38.1915
38.1283
38.1756
37.9151
37.8406
37.9662
38.1393
38.2841
38.3835
38.4397
38.4607
38.4548
38.4297
38.3908
38.3424
38.2871
38.2271
38.1632
38.0972
38.0288
37.9226
37.6597
37.6233
37.8374
38.0854
38.2745
38.3942
38.456
38.4736
38.4602
38.4253
38.3765
38.3182
38.2542
38.186
38.1157
38.0437
37.9716
37.3132
37.1776
37.2708
37.677
38.0633
38.3214
38.4662
38.5294
38.5375
38.5096
38.4598
38.3968
38.3265
38.2519
38.1754
38.0979
38.0209
37.9445
36.0659
36.4251
36.8193
37.5499
38.1268
38.4549
38.6095
38.6577
38.642
38.5899
38.5183
38.4372
38.3522
38.2662
38.1808
38.0967
38.0145
37.9346
33.6752
35.3506
36.3312
37.5402
38.3304
38.6956
38.8235
38.8297
38.7728
38.6856
38.5862
38.4842
38.3834
38.2862
38.1923
38.1024
38.0157
37.933
29.3349
33.9248
35.9114
37.7431
38.7158
39.0439
39.0908
39.0238
38.9094
38.7797
38.6498
38.5263
38.411
38.3036
38.2033
38.1085
38.0189
37.9338
22.4283
32.3626
35.7612
38.2564
39.2956
39.4732
39.3766
39.2101
39.0295
38.8561
38.6975
38.5553
38.4283
38.3139
38.2091
38.1118
38.0203
37.9345
13.5827
31.3684
36.2828
39.1885
40.0486
39.9323
39.6369
39.3586
39.1139
38.903
38.7223
38.5672
38.433
38.3151
38.2087
38.1103
38.0185
37.9328
0.213611
30.7049
37.8446
40.5867
40.9006
40.3483
39.8251
39.445
39.1519
38.916
38.7222
38.5618
38.4266
38.3096
38.2039
38.1054
38.0138
37.9288
-41.2787
25.9453
39.6544
42.0513
41.619
40.5912
39.875
39.4394
39.1354
38.8972
38.6991
38.5378
38.407
38.2981
38.1979
38.1001
38.009
37.9255
-134.564
16.4701
39.639
42.5475
41.781
40.4711
39.6984
39.2965
39.043
38.8438
38.6556
38.4904
38.3583
38.2607
38.1757
38.0849
37.9976
37.9197
-111.469
33.6939
40.0472
42.25
41.4736
40.094
39.3999
39.089
38.8989
38.7543
38.6041
38.4482
38.3001
38.1882
38.1035
38.0181
37.9356
37.8582
471.379
109.926
50.3761
44.918
42.4015
40.4584
39.6612
39.3221
39.0098
38.748
38.6275
38.5798
38.5196
38.4034
38.2687
38.1644
38.0718
37.9763
35.1171
35.1255
35.115
35.0579
34.968
34.8794
34.8194
34.7963
34.8014
34.821
34.8441
34.8622
34.8706
34.8695
34.8669
34.8694
34.8795
34.8933
34.9013
34.8768
34.7879
34.6127
34.3503
34.0136
33.618
33.1758
32.7057
32.2245
31.7495
31.2927
30.8654
30.4742
30.1246
29.8188
29.5589
29.3451
29.178
29.0571
28.9815
28.9491
28.9565
29.0006
29.0801
29.1979
29.3588
29.5654
29.8145
30.1036
30.4299
30.7929
31.1901
31.621
32.0826
32.5744
33.0928
33.6365
34.2015
34.7867
35.3873
36.0026
36.6284
37.2653
37.9098
38.5627
39.2196
39.8804
40.5392
41.1955
41.8435
42.4832
43.1087
43.7211
44.3153
44.8932
45.45
45.9887
46.5053
47.0036
47.4797
47.9374
48.3733
48.7893
49.1785
49.5435
49.8834
50.1993
50.4847
50.7401
50.9631
51.1559
51.3217
51.4616
51.5763
51.6655
51.7317
51.7811
51.8166
51.8407
51.8529
51.856
51.8533
51.8433
51.8286
51.8118
51.7969
51.7946
51.7834
51.7562
51.6945
51.5102
51.2094
50.5787
49.3356
47.3585
44.6914
41.5933
38.4063
35.4304
32.8903
30.9023
29.527
28.7744
28.637
29.0792
30.0391
31.438
33.1945
35.2195
37.4111
39.6509
41.8244
43.8681
45.7486
47.4475
48.9643
50.3131
51.5129
52.5867
53.5503
54.4114
55.1678
55.8194
56.3679
56.8225
57.1961
57.5069
57.7663
57.9791
58.1458
58.2609
58.3194
58.3204
58.2621
58.1458
57.9752
57.7551
57.4877
57.1768
56.8259
56.4362
56.0087
55.5485
55.0621
54.5527
54.0189
53.4636
52.8977
52.3364
51.7898
51.2658
50.7707
50.3102
49.8923
49.5222
49.207
48.9534
48.7663
48.6457
48.6247
48.6309
35.0402
34.9993
34.9193
34.8251
34.7313
34.6581
34.62
34.6223
34.6658
34.7404
34.8262
34.9023
34.9572
34.9906
35.0008
34.9826
34.9477
34.9286
34.9106
34.8376
34.6793
34.431
34.1042
33.7068
33.2529
32.7634
32.2617
31.7655
31.2892
30.8427
30.4334
30.0654
29.7409
29.4606
29.2247
29.0327
28.8845
28.7798
28.7181
28.6993
28.7238
28.7921
28.9034
29.0552
29.2427
29.4633
29.7177
30.0076
30.3328
30.6933
31.0876
31.5151
31.9737
32.4623
32.9782
33.5198
34.0837
34.668
35.2689
35.8845
36.5116
37.149
37.7937
38.445
39.0997
39.7568
40.4133
41.0675
41.7152
42.3545
42.9813
43.595
44.1921
44.772
45.332
45.8733
46.3945
46.8958
47.3742
47.8313
48.2669
48.6827
49.0724
49.4389
49.7806
50.0955
50.3822
50.6413
50.8688
51.0656
51.2362
51.3805
51.5007
51.5963
51.6719
51.7292
51.7713
51.7989
51.8142
51.8207
51.8187
51.8128
51.8065
51.789
51.7768
51.772
51.7425
51.713
51.5795
51.3129
50.977
50.2292
48.7888
46.5765
43.7345
40.5933
37.4809
34.6552
32.2706
30.4163
29.1361
28.4417
28.3274
28.7726
29.7253
31.1164
32.8775
34.9277
37.1651
39.4714
41.7056
43.7952
45.718
47.4492
48.986
50.3438
51.5477
52.6224
53.583
54.4355
55.1792
55.8159
56.3513
56.7961
57.1643
57.4715
57.7288
57.9406
58.1081
58.2267
58.2861
58.2865
58.2281
58.1128
57.9437
57.7245
57.4574
57.1472
56.7979
56.4103
55.984
55.523
55.0355
54.5269
53.9967
53.4457
52.8812
52.3171
51.7651
51.2367
50.7377
50.2741
49.854
49.4778
49.1561
48.8993
48.7116
48.5902
48.5664
48.5547
34.9213
34.833
34.7244
34.6299
34.5615
34.5261
34.5258
34.5618
34.6328
34.7303
34.8355
34.9231
34.9773
35.0008
34.9927
34.9386
34.8319
34.6788
34.4812
34.2311
33.9274
33.5756
33.1871
32.7717
32.3416
31.9092
31.4861
31.0794
30.6953
30.3376
30.0099
29.7141
29.4519
29.224
29.0312
28.8737
28.752
28.6663
28.6165
28.603
28.6267
28.6891
28.7913
28.9329
29.1123
29.3279
29.5789
29.8653
30.1865
30.5424
30.9319
31.3541
31.8075
32.2908
32.8018
33.339
33.8995
34.4811
35.0808
35.6962
36.3241
36.9625
37.6085
38.2604
38.9152
39.5709
40.2251
40.876
41.5211
42.1582
42.7844
43.3983
43.9973
44.5798
45.1443
45.6905
46.2173
46.7232
47.2082
47.6719
48.1129
48.53
48.9229
49.2925
49.6356
49.9526
50.2423
50.5027
50.7321
50.9352
51.1117
51.2614
51.3889
51.4937
51.5759
51.6367
51.6862
51.72
51.7396
51.7519
51.7503
51.7425
51.7297
51.7093
51.6814
51.6425
51.5825
51.4871
51.2695
51.0017
50.6255
49.652
47.8131
45.3163
42.4245
39.4135
36.5002
33.8636
31.6178
29.848
28.6043
27.9083
27.7737
28.1905
29.1149
30.4852
32.2417
34.3179
36.6217
39.0556
41.4434
43.6492
45.6524
47.436
48.9964
50.3571
51.5541
52.6188
53.5689
54.4088
55.1395
55.7641
56.2912
56.7317
57.0986
57.4066
57.6673
57.883
58.0504
58.1672
58.2269
58.2281
58.1712
58.0577
57.8908
57.6735
57.4083
57.0995
56.7506
56.3638
55.939
55.4773
54.9876
54.4768
53.9482
53.4028
52.8441
52.2804
51.7245
51.1898
50.6856
50.2181
49.7907
49.4056
49.0756
48.8115
48.6088
48.4703
48.4211
48.38
34.9736
34.8778
34.7757
34.6871
34.6255
34.593
34.5918
34.622
34.6769
34.7421
34.799
34.8287
34.8195
34.7668
34.6669
34.5148
34.3096
34.0566
33.7659
33.4457
33.103
32.7435
32.3734
31.9978
31.6227
31.2528
30.8934
30.5483
30.2215
29.9155
29.6333
29.3768
29.1482
28.9488
28.78
28.6429
28.5384
28.4671
28.4294
28.4259
28.4571
28.5239
28.6267
28.7657
28.9408
29.1517
29.3981
29.6799
29.9965
30.3477
30.7323
31.1498
31.5984
32.0771
32.5839
33.1172
33.6744
34.2534
34.8515
35.4663
36.0947
36.7343
37.3822
38.0362
38.6932
39.3512
40.0074
40.6596
41.3056
41.9431
42.5703
43.1853
43.7863
44.3713
44.9393
45.4893
46.0199
46.5303
47.02
47.4886
47.9343
48.3563
48.7542
49.1268
49.4739
49.7949
50.0873
50.3519
50.5891
50.7995
50.9854
51.1473
51.2836
51.3963
51.4869
51.5589
51.618
51.6622
51.6881
51.7057
51.7144
51.7083
51.7015
51.6915
51.6584
51.6071
51.528
51.3794
51.1443
50.8623
50.2448
48.8208
46.6349
43.9994
41.1519
38.2895
35.5522
33.0604
30.92
29.2049
27.9763
27.259
27.0797
27.4378
28.3021
29.6277
31.3556
33.4222
35.7551
38.2954
40.8893
43.3135
45.4765
47.3594
48.9635
50.3273
51.5097
52.5574
53.493
54.3205
55.0414
55.6603
56.1856
56.6288
57.0026
57.3174
57.5815
57.7991
57.9682
58.0852
58.1456
58.1478
58.0926
57.9813
57.8165
57.6011
57.3384
57.0311
56.6828
56.2972
55.8747
55.4153
54.9261
54.4134
53.8828
53.3392
52.785
52.2237
51.664
51.122
50.6121
50.1389
49.7015
49.3063
48.9696
48.6959
48.4809
48.3276
48.248
48.1844
35.3072
35.2097
35.0912
34.9797
34.8948
34.8389
34.8084
34.7961
34.7908
34.7783
34.7444
34.677
34.5683
34.4145
34.2159
33.9767
33.7053
33.4086
33.0926
32.7616
32.421
32.0752
31.7288
31.3849
31.0475
30.7188
30.4023
30.0998
29.8141
29.5466
29.2997
29.0746
28.8734
28.6971
28.5475
28.4256
28.3327
28.2699
28.2382
28.2385
28.2716
28.3385
28.4395
28.5754
28.7463
28.9526
29.194
29.4707
29.7823
30.1284
30.5081
30.9209
31.3651
31.8397
32.3428
32.8728
33.4273
34.0042
34.6008
35.2149
35.8434
36.4837
37.133
37.7888
38.4481
39.1084
39.7672
40.422
41.0704
41.7105
42.3401
42.9576
43.561
44.1493
44.7205
45.2738
45.8083
46.3225
46.8169
47.2892
47.7387
48.1657
48.5683
48.9458
49.298
49.6242
49.9231
50.1957
50.4405
50.6606
50.8553
51.0259
51.1701
51.2927
51.3962
51.4807
51.5475
51.5983
51.6322
51.652
51.6658
51.6705
51.6664
51.6492
51.6214
51.5699
51.4484
51.2771
51.06
50.6063
49.5561
47.7227
45.3265
42.6444
39.8665
37.1299
34.5347
32.166
30.1179
28.4597
27.2552
26.5312
26.3151
26.6139
27.4101
28.6763
30.3547
32.3805
34.6935
37.2374
39.9443
42.612
45.0344
47.1039
48.808
50.2003
51.3777
52.4151
53.3425
54.1652
54.8843
55.5063
56.0393
56.4926
56.8757
57.1988
57.4688
57.6899
57.8608
57.9786
58.0399
58.0437
57.9904
57.8819
57.7198
57.5072
57.2469
56.9416
56.5955
56.2115
55.7901
55.3344
54.8479
54.3354
53.8013
53.2538
52.6995
52.1398
51.5781
51.0298
50.5114
50.0281
49.5785
49.1731
48.8284
48.5471
48.3283
48.1639
48.0557
47.9744
35.8046
35.6928
35.5439
35.3949
35.2705
35.1708
35.0854
35.0026
34.911
34.7995
34.6601
34.4878
34.2812
34.0412
33.7724
33.4797
33.1689
32.8454
32.5148
32.1808
31.8474
31.5171
31.1926
30.8755
30.5679
30.2708
29.9861
29.7149
29.4589
29.2192
28.9976
28.7952
28.6137
28.4544
28.3189
28.2083
28.1242
28.0678
28.0403
28.0429
28.0766
28.1424
28.2412
28.3737
28.5403
28.7418
28.9781
29.2495
29.5557
29.8965
30.2712
30.6791
31.1188
31.5894
32.089
32.616
33.1679
33.7429
34.3382
34.9516
35.58
36.2211
36.8716
37.5291
38.1905
38.8533
39.5148
40.1725
40.8239
41.4672
42.1
42.7208
43.3275
43.9188
44.4936
45.0508
45.5888
46.1072
46.6055
47.0813
47.5356
47.967
48.3742
48.7574
49.1153
49.4475
49.7541
50.0334
50.2876
50.5149
50.7191
50.8977
51.0537
51.1876
51.3021
51.3958
51.4675
51.5268
51.5689
51.5939
51.6124
51.6234
51.6188
51.5998
51.5723
51.5166
51.3679
51.1791
50.8577
50.0658
48.5858
46.4629
43.9407
41.2545
38.5451
35.9064
33.4173
31.158
29.1928
27.6004
26.4354
25.7307
25.5097
25.7777
26.5246
27.7347
29.3512
31.324
33.597
36.0998
38.8041
41.5792
44.2313
46.5641
48.4674
49.9419
51.1415
52.1847
53.1173
53.9468
54.6753
55.3094
55.8552
56.3212
56.7162
57.0492
57.3267
57.5527
57.7268
57.8469
57.9103
57.9164
57.8659
57.7607
57.602
57.3928
57.1356
56.8339
56.4905
56.108
55.6878
55.2353
54.7519
54.2408
53.7054
53.1525
52.5917
52.0283
51.4656
50.9135
50.3863
49.8905
49.426
49.0077
48.653
48.3656
48.1399
47.9614
47.8381
47.7424
36.2413
36.1281
35.9569
35.7733
35.6016
35.4434
35.2883
35.1237
34.9413
34.7357
34.5053
34.2505
33.9743
33.6784
33.3662
33.0417
32.7102
32.3757
32.0425
31.7129
31.3895
31.0735
30.7664
30.4687
30.1817
29.9057
29.6419
29.3911
29.1544
28.9328
28.7278
28.5404
28.3721
28.2243
28.0984
27.9958
27.918
27.8661
27.8417
27.846
27.88
27.945
28.0419
28.1717
28.3349
28.5324
28.7644
29.0313
29.3328
29.6689
30.039
30.4425
30.8781
31.345
31.8412
32.3654
32.915
33.4882
34.0822
34.6949
35.3231
35.9644
36.6156
37.2743
37.9371
38.6018
39.2652
39.9252
40.5791
41.225
41.8605
42.4842
43.0939
43.6881
44.2664
44.827
45.3681
45.8905
46.3916
46.8716
47.3304
47.7661
48.1784
48.5672
48.9316
49.2703
49.5837
49.8718
50.134
50.3717
50.5851
50.7754
50.9436
51.0868
51.2106
51.3141
51.3938
51.4609
51.5121
51.5509
51.5766
51.5888
51.5897
51.5827
51.5666
51.5103
51.3501
51.0935
50.5141
49.3187
47.4818
45.1513
42.5478
39.8616
37.1981
34.6294
32.2187
30.0434
28.1554
26.6291
25.5098
24.8425
24.6428
24.9124
25.6432
26.8211
28.3962
30.3289
32.5619
35.0281
37.6887
40.465
43.2138
45.7476
47.8869
49.5297
50.7946
51.8655
52.8202
53.6694
54.4165
55.0672
55.6296
56.1112
56.5209
56.8662
57.1536
57.3865
57.5656
57.6892
57.7558
57.7652
57.7185
57.617
57.4627
57.2577
57.0049
56.7071
56.3671
55.9872
55.5696
55.1185
54.6357
54.1251
53.5906
53.0349
52.4654
51.8924
51.3246
50.7681
50.2324
49.7237
49.2437
48.8102
48.4423
48.1456
47.9103
47.7186
47.5813
47.469
36.4918
36.3829
36.1997
35.9936
35.7817
35.5667
35.3459
35.1112
34.8581
34.586
34.2976
33.994
33.6773
33.3495
33.0147
32.6761
32.338
32.0026
31.6729
31.3501
31.0357
30.7304
30.435
30.1498
29.8756
29.6126
29.3618
29.1234
28.8987
28.6883
28.4936
28.3156
28.1557
28.0151
27.8954
27.7977
27.7236
27.6745
27.6518
27.6567
27.6906
27.7546
27.8498
27.9772
28.1376
28.3319
28.5604
28.8236
29.1215
29.454
29.8205
30.2208
30.6535
31.1177
31.6117
32.1341
32.6823
33.2546
33.8483
34.4607
35.0891
35.7308
36.3827
37.0423
37.7062
38.3721
39.0367
39.698
40.3533
41.0006
41.6377
42.2628
42.874
43.4703
44.0507
44.6124
45.156
45.6814
46.185
46.6681
47.1305
47.57
47.9868
48.3806
48.7509
49.0965
49.4176
49.7143
49.9862
50.2332
50.4571
50.6589
50.8363
50.9909
51.125
51.2374
51.3296
51.4066
51.4683
51.5208
51.5512
51.567
51.5886
51.6153
51.6316
51.5772
51.3906
50.9917
50.0676
48.4932
46.3755
43.8872
41.2215
38.521
35.8775
33.3505
30.9945
28.875
27.0493
25.5764
24.5002
23.8735
23.7063
23.9983
24.7403
25.922
27.4985
29.4102
31.6136
34.0526
36.6818
39.434
42.1947
44.8108
47.1122
48.9551
50.3326
51.4597
52.4513
53.3303
54.1034
54.7778
55.3618
55.8631
56.2903
56.6504
56.9498
57.1916
57.3775
57.5062
57.5776
57.5914
57.5495
57.453
57.3041
57.1044
56.8569
56.5637
56.2277
55.8512
55.4366
54.986
54.5023
53.9907
53.4556
52.8975
52.3211
51.7374
51.1592
50.5932
50.0463
49.5239
49.029
48.5793
48.1962
47.8867
47.6421
47.441
47.2849
47.1564
36.5279
36.413
36.2285
36.0162
35.7854
35.5374
35.2748
34.9972
34.7049
34.3985
34.0806
33.7522
33.416
33.0746
32.7319
32.39
32.0521
31.7197
31.3947
31.0777
30.7701
30.4719
30.1841
29.9065
29.6399
29.3845
29.1409
28.9096
28.6916
28.4875
28.2987
28.1259
27.9706
27.834
27.7175
27.6224
27.5502
27.5023
27.48
27.4848
27.5179
27.5805
27.6739
27.799
27.9569
28.1483
28.3738
28.634
28.9288
29.2584
29.6222
30.0201
30.4506
30.9131
31.4058
31.9273
32.4752
33.0474
33.6414
34.2547
34.884
35.5269
36.1801
36.8409
37.5061
38.1731
38.839
39.5014
40.1575
40.8056
41.4434
42.0689
42.6802
43.2775
43.8583
44.42
44.9652
45.4917
45.9962
46.4811
46.9457
47.3876
47.8072
48.2048
48.5801
48.9319
49.2601
49.5647
49.844
50.1003
50.3349
50.547
50.7347
50.9007
51.0444
51.1675
51.2773
51.3617
51.4315
51.4952
51.5327
51.5612
51.6229
51.7011
51.7489
51.6897
51.464
50.8521
49.5834
47.7008
45.3668
42.7523
40.0239
37.2926
34.6429
32.1269
29.8011
27.7157
25.9272
24.4908
23.4555
22.8606
22.7276
23.0564
23.8336
25.0389
26.6348
28.56
30.7605
33.1873
35.7931
38.5145
41.2532
43.8829
46.2591
48.2404
49.7522
50.9627
52.0059
52.9273
53.7358
54.4412
55.0518
55.5769
56.0244
56.4021
56.7154
56.9684
57.1626
57.2984
57.3757
57.3955
57.3593
57.269
57.1261
56.9328
56.6911
56.4034
56.0718
55.6989
55.2867
54.8373
54.3532
53.8391
53.2999
52.7375
52.1547
51.5612
50.9702
50.3899
49.8271
49.2886
48.78
48.3161
47.9183
47.5946
47.3356
47.123
46.9518
46.8229
36.3619
36.2538
36.0833
35.8803
35.6512
35.3973
35.1231
34.8314
34.5253
34.207
33.8793
33.5437
33.2037
32.8613
32.5197
32.1806
31.8466
31.5185
31.1982
30.886
30.5831
30.2895
30.0059
29.7323
29.4696
29.2177
28.9774
28.7493
28.5342
28.3328
28.1464
27.9757
27.8223
27.6872
27.5719
27.4776
27.4057
27.3578
27.3351
27.339
27.3708
27.4319
27.5232
27.6462
27.8016
27.9904
28.2131
28.4706
28.7627
29.0897
29.4513
29.8471
30.276
30.7373
31.2292
31.7503
32.2981
32.8708
33.4655
34.0799
34.7106
35.3549
36.0096
36.6718
37.3383
38.0065
38.6735
39.3366
39.9933
40.6417
41.2797
41.9052
42.5166
43.1139
43.6944
44.2557
44.8007
45.3274
45.8317
46.3166
46.7828
47.2265
47.6477
48.0477
48.4259
48.7816
49.1148
49.4251
49.7119
49.9765
50.2209
50.4408
50.6381
50.8143
50.966
51.1006
51.2275
51.3215
51.399
51.4789
51.5379
51.587
51.6804
51.7991
51.8736
51.8113
51.511
50.6599
49.1224
47.0262
44.5332
41.8101
39.0062
36.2294
33.5489
31.0203
28.6951
26.6235
24.8545
23.4407
22.4323
21.8658
21.7622
22.1236
22.9402
24.187
25.8184
27.7717
29.9867
32.4139
35.0033
37.6884
40.3841
42.9917
45.3938
47.4528
49.0761
50.3804
51.4919
52.4664
53.3191
54.0615
54.7036
55.2558
55.7266
56.1238
56.4531
56.719
56.9235
57.0678
57.1526
57.1797
57.1504
57.0672
56.9312
56.745
56.5098
56.2282
55.9015
55.5321
55.1222
54.6742
54.1898
53.6727
53.1275
52.5581
51.9678
51.3639
50.7588
50.1612
49.5789
49.0213
48.4973
48.0195
47.6061
47.2662
46.989
46.7664
46.5932
46.4711
36.0859
35.994
35.8455
35.6614
35.4471
35.2043
34.9377
34.6514
34.3498
34.0359
33.713
33.383
33.0491
32.7131
32.3779
32.045
31.7166
31.3937
31.0777
30.7691
30.4691
30.1777
29.8959
29.6236
29.3617
29.1104
28.8706
28.6426
28.4277
28.2264
28.0399
27.8692
27.7157
27.5804
27.4648
27.3701
27.2977
27.2489
27.2252
27.2279
27.2582
27.3175
27.4069
27.5276
27.6806
27.8669
28.0871
28.342
28.6316
28.9564
29.3158
29.7099
30.1374
30.5975
31.0887
31.6094
32.1573
32.7303
33.3256
33.9408
34.5724
35.2176
35.8732
36.5364
37.2038
37.8728
38.5402
39.2036
39.8604
40.5089
41.1466
41.7714
42.3821
42.9785
43.5581
44.1188
44.6617
45.188
45.6931
46.1766
46.6427
47.0878
47.5107
47.9117
48.2911
48.6495
48.9871
49.301
49.5923
49.8638
50.1154
50.3421
50.5462
50.7312
50.8953
51.0393
51.169
51.2819
51.3833
51.4724
51.5489
51.6314
51.7381
51.8671
51.9532
51.9016
51.5136
50.4704
48.7593
46.5279
43.917
41.0951
38.2021
35.3603
32.6325
30.0759
27.7353
25.6632
23.9004
22.4985
21.5008
20.9506
20.867
21.2531
22.0991
23.382
25.0484
27.0309
29.2683
31.7042
34.2781
36.9235
39.5736
42.1515
44.5545
46.6469
48.3477
49.7401
50.9255
51.9582
52.8602
53.6436
54.321
54.9029
55.3992
55.8177
56.165
56.4451
56.6615
56.8156
56.9093
56.9444
56.9232
56.8474
56.7193
56.5403
56.3125
56.037
55.7157
55.3501
54.9427
54.4956
54.0107
53.4908
52.9397
52.3617
51.7616
51.1456
50.5242
49.9068
49.3029
48.7239
48.1811
47.6875
47.2574
46.9002
46.6077
46.3788
46.2084
46.085
35.798
35.723
35.597
35.4345
35.2403
35.0163
34.7672
34.4972
34.2111
33.9116
33.6019
33.2841
32.9613
32.6352
32.3087
31.9831
31.6608
31.3425
31.0299
30.7236
30.4247
30.1336
29.8513
29.578
29.3146
29.0617
28.82
28.5902
28.3734
28.1703
27.9822
27.8101
27.6553
27.5188
27.402
27.3063
27.2329
27.183
27.1582
27.1595
27.1884
27.246
27.3336
27.4524
27.6032
27.7872
28.0051
28.2575
28.5447
28.8671
29.2245
29.6166
30.0423
30.5009
30.991
31.5107
32.0579
32.6306
33.2259
33.8409
34.4726
35.1182
35.7741
36.4371
37.1047
37.7732
38.4401
39.1032
39.7592
40.4066
41.0428
41.6662
42.2758
42.8701
43.448
44.0078
44.5485
45.0726
45.5781
46.0596
46.5237
46.9696
47.3939
47.7962
48.1769
48.5372
48.8769
49.1938
49.4888
49.7652
50.0211
50.2534
50.4656
50.6605
50.8336
50.9865
51.1205
51.2402
51.3538
51.4511
51.5464
51.6519
51.7595
51.8906
52.0054
51.9699
51.4781
50.299
48.4922
46.1713
43.4714
40.5631
37.5998
34.6952
31.9205
29.3285
26.9667
24.8807
23.1136
21.71
20.7139
20.1663
20.0889
20.486
21.3503
22.6541
24.3422
26.3495
28.6097
31.0529
33.6098
36.2197
38.8279
41.3706
43.755
45.8541
47.6048
49.0707
50.3255
51.4169
52.3695
53.1962
53.9104
54.5238
55.0471
55.4882
55.8543
56.1501
56.3795
56.5446
56.6482
56.6924
56.6799
56.6124
56.4926
56.3214
56.1011
55.8322
55.5167
55.1555
54.7513
54.3055
53.82
53.2971
52.74
52.1522
51.5394
50.9077
50.2667
49.6265
48.998
48.3944
47.8284
47.3144
46.8653
46.4904
46.1862
45.9506
45.7797
45.6519
35.5661
35.5056
35.3988
35.2565
35.0829
34.88
34.6521
34.4028
34.1365
33.8553
33.5621
33.2588
32.9485
32.6331
32.3153
31.9966
31.6793
31.3644
31.0536
30.7477
30.4481
30.1553
29.8705
29.5941
29.3274
29.0708
28.8256
28.5924
28.3724
28.1664
27.9758
27.8014
27.6447
27.5067
27.3887
27.2919
27.2175
27.1668
27.141
27.1414
27.1691
27.2255
27.3115
27.4285
27.5773
27.7591
27.9745
28.2245
28.5092
28.829
29.1838
29.5732
29.9965
30.4531
30.9412
31.459
32.0047
32.576
33.17
33.784
34.4147
35.0592
35.7143
36.3763
37.0422
37.7094
38.375
39.0356
39.69
40.3348
40.9685
41.5896
42.1968
42.7878
43.3631
43.9212
44.4596
44.9803
45.4847
45.9658
46.4264
46.8702
47.2947
47.6986
48.0812
48.4431
48.7837
49.1024
49.4009
49.6809
49.941
50.1762
50.3938
50.5969
50.7712
50.9296
51.0791
51.2095
51.32
51.4234
51.5273
51.6375
51.7579
51.879
51.9922
51.9298
51.3496
50.121
48.2914
45.9315
43.1844
40.2246
37.2086
34.248
31.4255
28.7933
26.4035
24.2959
22.5155
21.1002
20.0973
19.541
19.4577
19.8545
20.723
22.0318
23.73
25.7535
28.0274
30.4701
33.0072
35.5833
38.1493
40.6506
43
45.089
46.8705
48.3935
49.7082
50.8549
51.8561
52.7259
53.4771
54.1228
54.6734
55.138
55.5234
55.8357
56.0785
56.2556
56.3693
56.4232
56.4197
56.3613
56.2499
56.0873
55.8745
55.6131
55.3038
54.9482
54.5476
54.1039
53.618
53.0919
52.5278
51.9286
51.2996
50.6476
49.9824
49.3148
48.6576
48.0251
47.4318
46.893
46.4229
46.0306
45.7162
45.4735
45.3013
45.1777
35.4356
35.3803
35.2871
35.1618
35.0068
34.8239
34.6169
34.3888
34.1429
33.8805
33.6039
33.3147
33.0161
32.7101
32.3995
32.0859
31.7717
31.458
31.1469
30.8392
30.5368
30.2402
29.951
29.6698
29.3982
29.1367
28.8868
28.6492
28.4253
28.216
28.0226
27.8461
27.6877
27.5485
27.4296
27.3322
27.2575
27.2065
27.1803
27.1802
27.2073
27.2627
27.3475
27.4629
27.6097
27.7892
28.0021
28.2492
28.5308
28.8475
29.1991
29.5855
30.0058
30.4592
30.9443
31.4594
32.0024
32.571
33.1623
33.7738
34.4019
35.0437
35.696
36.3556
37.0183
37.6825
38.3452
39.0017
39.6525
40.2936
40.9237
41.541
42.1438
42.7306
43.3019
43.8569
44.3923
44.9089
45.4104
45.8919
46.3509
46.7905
47.2128
47.6169
47.9995
48.3614
48.7039
49.025
49.3263
49.6083
49.8711
50.1075
50.3273
50.5341
50.7149
50.8772
51.0297
51.1688
51.2884
51.3901
51.4825
51.5861
51.6993
51.7941
51.8748
51.751
51.1366
49.9341
48.1372
45.7947
43.0451
40.065
37.0102
34.004
31.1342
28.4638
26.0423
23.9122
22.1124
20.6818
19.6635
19.0912
18.9935
19.3803
20.2403
21.5438
23.243
25.2704
27.5426
29.9724
32.485
35.0245
37.5447
39.9948
42.2971
44.3636
46.1619
47.7263
49.0905
50.2858
51.3319
52.2421
53.0291
53.7062
54.2838
54.7716
55.1765
55.5051
55.7618
55.9509
56.0753
56.139
56.145
56.0962
55.9939
55.8405
55.6362
55.383
55.0811
54.7321
54.3363
53.8952
53.4086
52.878
52.3045
51.6905
51.0411
50.3632
49.6678
48.967
48.276
47.6097
46.985
46.4179
45.9242
45.5136
45.1882
44.9394
44.7686
44.658
35.4193
35.3618
35.2758
35.1631
35.0239
34.8593
34.6718
34.4636
34.2369
33.992
33.7304
33.4536
33.1649
32.8662
32.5605
32.2496
31.936
31.6211
31.3073
30.9957
30.6884
30.3862
30.0911
29.8038
29.5262
29.259
29.004
28.7618
28.5341
28.3217
28.126
27.9479
27.7886
27.649
27.5302
27.4332
27.3591
27.3087
27.283
27.2832
27.3103
27.3653
27.4491
27.5631
27.7082
27.8854
28.0955
28.3395
28.6176
28.9306
29.2782
29.6605
30.0765
30.5257
31.0063
31.5172
32.0558
32.6199
33.2068
33.8138
34.4373
35.0745
35.7217
36.3764
37.0344
37.6933
38.3501
39.0018
39.6471
40.2825
40.9065
41.5183
42.1159
42.6979
43.264
43.8138
44.3447
44.8569
45.3528
45.8323
46.2917
46.7294
47.1473
47.548
47.9299
48.2918
48.6348
48.9583
49.2601
49.542
49.8066
50.0442
50.2659
50.4738
50.6582
50.8211
50.9727
51.1148
51.2369
51.3356
51.4277
51.5176
51.592
51.6435
51.6804
51.5096
50.8956
49.7564
48.0378
45.7548
43.0355
40.0594
36.9834
33.9448
31.0377
28.3361
25.8867
23.7358
21.9158
20.4686
19.4305
18.84
18.7234
19.092
19.9341
21.224
22.9127
24.9271
27.1794
29.5821
32.0608
34.5556
37.0217
39.4092
41.6538
43.6875
45.4903
47.0822
48.4851
49.7204
50.8056
51.752
52.5725
53.279
53.8828
54.3926
54.8166
55.1609
55.4314
55.632
55.7673
55.8403
55.856
55.8168
55.7247
55.5807
55.3864
55.1422
54.8494
54.5077
54.1176
53.6788
53.1907
52.6533
52.0674
51.4347
50.7602
50.0514
49.3207
48.5821
47.8529
47.1499
46.491
45.8948
45.3762
44.9474
44.6102
44.3574
44.1907
44.0974
35.4981
35.443
35.3598
35.2566
35.1318
34.9848
34.8167
34.6282
34.4201
34.1916
33.9435
33.6772
33.3959
33.1018
32.7981
32.4869
32.1709
31.8521
31.533
31.2151
30.9008
30.5915
30.2891
29.995
29.7109
29.4381
29.1781
28.9319
28.7012
28.4867
28.2899
28.1115
27.9526
27.814
27.6967
27.6013
27.5289
27.4801
27.4558
27.457
27.4845
27.5393
27.6225
27.7351
27.8782
28.0528
28.2597
28.5
28.774
29.0825
29.4253
29.8024
30.213
30.6566
31.1315
31.6362
32.1686
32.7264
33.3067
33.9068
34.5234
35.1534
35.7933
36.4402
37.0908
37.7419
38.3905
39.0349
39.6719
40.2995
40.9162
41.5209
42.1114
42.6864
43.246
43.7896
44.3158
44.8241
45.3134
45.7857
46.2432
46.6807
47.0959
47.4921
47.8722
48.232
48.574
48.8979
49.1963
49.4786
49.743
49.9842
50.208
50.4138
50.5954
50.76
50.9115
51.0464
51.1593
51.2599
51.3459
51.4117
51.4541
51.4625
51.4554
51.2819
50.6924
49.6083
47.9816
45.7856
43.1288
40.1847
37.119
34.0713
31.1484
28.4257
25.9577
23.7874
21.9503
20.4849
19.4284
18.8175
18.6792
19.0228
19.8401
21.106
22.7678
24.7496
26.963
29.3218
31.7503
34.1873
36.5861
38.9
41.0768
43.0695
44.8656
46.4738
47.904
49.1706
50.2878
51.2654
52.1153
52.8486
53.4762
54.0067
54.4487
54.8082
55.0918
55.3039
55.4496
55.5323
55.5575
55.5282
55.4467
55.3133
55.1299
54.8964
54.6135
54.2799
53.8952
53.458
52.9666
52.42
51.8189
51.1641
50.4613
49.7183
48.9492
48.1697
47.3991
46.6571
45.9625
45.3357
44.7917
44.3436
43.994
43.7376
43.5755
43.5002
35.6288
35.588
35.5136
35.4242
35.3177
35.192
35.0461
34.8791
34.6904
34.4778
34.2418
33.9837
33.7072
33.4147
33.1098
32.795
32.4738
32.1482
31.8215
31.4954
31.1729
30.8555
30.5456
30.2446
29.9546
29.6768
29.4131
29.1643
28.9321
28.7172
28.5209
28.3438
28.1869
28.0507
27.936
27.8434
27.7736
27.7271
27.7047
27.7072
27.7353
27.7901
27.8725
27.9836
28.1245
28.2962
28.4996
28.7357
29.005
29.3083
29.6452
30.0161
30.4201
30.8565
31.3239
31.8205
32.3445
32.8933
33.4644
34.0546
34.6613
35.2808
35.9104
36.5464
37.1865
37.8267
38.4648
39.0984
39.7251
40.3424
40.9505
41.5452
42.127
42.6933
43.2459
43.7814
44.3021
44.8047
45.2897
45.7554
46.2058
46.6394
47.057
47.4517
47.8269
48.1806
48.5187
48.8365
49.1342
49.4151
49.6795
49.9199
50.1415
50.3448
50.5248
50.6875
50.8335
50.9605
51.0631
51.1513
51.2271
51.2737
51.2842
51.2613
51.2193
51.0578
50.5191
49.4861
47.9431
45.8584
43.3031
40.4327
37.417
34.3943
31.4803
28.7523
26.2754
24.0908
22.2401
20.7578
19.6839
19.0507
18.8867
19.1997
19.9827
21.2088
22.8239
24.7522
26.9059
29.1997
31.5577
33.9196
36.2365
38.4668
40.5687
42.5139
44.294
45.9081
47.3545
48.6432
49.7843
50.7874
51.6619
52.4188
53.0674
53.6171
54.0753
54.4493
54.7449
54.968
55.1229
55.2152
55.2495
55.2302
55.159
55.0374
54.8655
54.6438
54.3712
54.0461
53.6663
53.2303
52.7348
52.1787
51.5616
50.8841
50.152
49.3737
48.5649
47.7428
46.9293
46.1457
45.4145
44.7554
44.186
43.718
43.357
43.097
42.94
42.8818
35.7574
35.7402
35.6933
35.634
35.5591
35.4643
35.3476
35.2065
35.0393
34.843
34.6182
34.3666
34.0924
33.7987
33.49
33.1692
32.8404
32.5063
32.1706
31.8356
31.5046
31.1792
30.8625
30.5557
30.2612
29.9802
29.7145
29.4649
29.2331
29.0195
28.8254
28.651
28.4974
28.3646
28.2536
28.1642
28.0975
28.0535
28.0331
28.0369
28.0658
28.1206
28.2022
28.3117
28.4502
28.6187
28.8182
29.0496
29.3135
29.6105
29.9405
30.3039
30.6994
31.1268
31.584
32.0705
32.5827
33.12
33.6781
34.2559
34.8485
35.4548
36.0697
36.6923
37.3176
37.9448
38.569
39.1897
39.8031
40.4096
41.0041
41.5895
42.1603
42.7188
43.2609
43.7891
44.3004
44.7973
45.276
45.7393
46.1819
46.6085
47.0185
47.4146
47.7896
48.1457
48.4782
48.7908
49.0838
49.361
49.6182
49.8536
50.0718
50.2682
50.4453
50.6033
50.7438
50.8639
50.9587
51.0306
51.084
51.1147
51.1044
51.0573
50.982
50.8098
50.3328
49.3856
47.9371
45.9836
43.5685