/*--------------------------------*- C++ -*----------------------------------*\
  =========                 |
  \\      /  F ield         | OpenFOAM: The Open Source CFD Toolbox
   \\    /   O peration     | Website:  https://openfoam.org
    \\  /    A nd           | Version:  8
     \\/     M anipulation  |
\*---------------------------------------------------------------------------*/
FoamFile
{
    version     2.0;
    format      ascii;
    class       volScalarField;
    location    "200";
    object      omega;
}
// * * * * * * * * * * * * * * * * * * * * * * * * * * * * * * * * * * * * * //

dimensions      [0 0 -1 0 0 0 0];

internalField   nonuniform List<scalar> 
12225
(
32582.3
32582.3
43321.4
51810.1
53745.9
46265.1
40194.5
46107
48780.9
42622.1
38789.3
32582.3
32582.3
42738.1
42401
46660
42711.7
32582.3
12438.9
10601.9
12298.1
15186.5
19203.4
18347.7
16194.8
18263.4
19770.3
18891.1
17579.5
17651.1
16692.5
17108.2
17284.4
18169.1
17945.6
17156.6
2857.07
2232.29
2228.72
3087.66
3979.6
4747.73
5027.06
5618.32
6039.24
6440.46
6648.15
6897.96
7009.11
7193.03
7341.43
7531.82
7629.72
7722.96
974.8
894.525
804.06
949.158
1143.77
1377.72
1547.71
1752.72
1906.92
2068.38
2173.82
2294.91
2362.99
2458.55
2512.13
2595.9
2634.38
2715.66
538.09
556.59
527.44
552.038
601.304
675.452
739.304
815.559
874.486
939.221
981.29
1031.55
1060.1
1101.13
1122.81
1158.99
1176.39
1212.14
448.909
469.237
461.662
461.59
472.873
496.986
520.391
550.728
574.908
602.466
620.601
642.166
654.562
672.259
681.755
697.849
706.114
722.411
439.896
439.447
440.58
439.567
439.984
445.4
452.421
463.148
472.304
483.343
490.815
499.65
504.732
511.876
515.756
522.406
526.029
533.085
439.15
436.902
435.469
433.869
432.958
433.309
434.545
437.976
441.285
445.559
448.695
452.345
454.579
457.422
459.109
461.747
463.261
466.393
439.008
436.756
434.737
432.912
431.102
430.135
429.005
429.098
429.504
430.508
431.348
432.382
433.057
433.744
434.483
435.202
435.44
436.867
438.993
436.784
434.667
432.747
430.798
429.22
427.67
426.486
425.471
424.773
424.118
423.619
423.076
422.642
422.158
421.83
421.257
421.179
438.997
436.788
434.669
432.699
430.78
429.021
427.332
425.803
424.349
423.057
421.811
420.692
419.585
418.602
417.605
416.754
415.836
415.123
439
436.784
434.667
432.677
430.768
428.975
427.256
425.645
424.099
422.655
421.264
419.964
418.706
417.534
416.395
415.341
414.311
413.365
439.001
436.779
434.664
432.663
430.757
428.951
427.23
425.599
424.041
422.564
421.151
419.811
418.529
417.312
416.146
415.04
413.98
412.975
439.002
436.775
434.66
432.654
430.747
428.936
427.213
425.575
424.014
422.529
421.113
419.765
418.478
417.252
416.081
414.965
413.898
412.88
439.001
436.773
434.657
432.648
430.74
428.925
427.2
425.559
423.996
422.508
421.089
419.738
418.448
417.219
416.045
414.926
413.856
412.836
439.001
436.772
434.655
432.644
430.734
428.918
427.19
425.547
423.982
422.491
421.071
419.717
418.426
417.195
416.019
414.898
413.827
412.804
439
436.769
434.651
432.639
430.727
428.908
427.179
425.534
423.967
422.475
421.053
419.697
418.405
417.171
415.995
414.872
413.799
412.776
439
436.769
434.651
432.638
430.726
428.907
427.177
425.531
423.964
422.471
421.048
419.692
418.399
417.165
415.988
414.864
413.791
412.767
439
436.772
434.654
432.643
430.731
428.914
427.185
425.539
423.972
422.48
421.058
419.701
418.409
417.175
415.998
414.874
413.802
412.777
439.001
436.772
434.656
432.645
430.734
428.918
427.19
425.545
423.979
422.487
421.066
419.711
418.419
417.186
416.01
414.887
413.815
412.792
439.002
436.773
434.658
432.648
430.74
428.924
427.198
425.554
423.991
422.5
421.082
419.729
418.441
417.211
416.04
414.921
413.856
412.837
439.004
436.773
434.663
432.652
430.748
428.932
427.213
425.573
424.023
422.542
421.144
419.808
418.551
417.347
416.218
415.135
414.122
413.148
439.015
436.765
434.671
432.656
430.769
428.97
427.304
425.728
424.279
422.912
421.673
420.504
419.467
418.477
417.622
416.786
416.091
415.387
439.057
436.714
434.72
432.766
431.077
429.531
428.339
427.324
426.611
426.069
425.754
425.634
425.675
425.863
426.16
426.471
427.053
427.446
439.139
436.67
435.688
435.027
435.066
435.302
436.835
438.868
441.922
444.885
448.668
452.133
456.314
459.961
464.293
467.887
472.225
475.617
439.44
439.084
448.494
451.337
460.592
471.662
485.757
499.508
515.256
529.618
545.474
559.278
574.456
587.151
601.358
612.748
625.957
635.996
447.382
473.46
507.802
552.072
606.504
660.15
717.588
770.581
825.722
873.882
923.842
965.576
1009.9
1045.42
1084.89
1115.06
1150.58
1176.28
465.647
690.452
912.203
1209.26
1457.24
1684.81
1901.45
2091.31
2268.86
2416.39
2555.07
2666.43
2775.2
2860.53
2951.23
3020.01
3100.77
3158.98
3572.2
3243.01
4885.53
6387.73
7417.41
8114.44
8592.02
8926.67
9147.9
9280.68
9354.3
9375.93
9368.63
9348.46
9319.99
9282.79
9261.22
9236.1
16112.1
20766.4
23122.6
24338.1
24920
25047.7
24993.2
24850.9
24606.5
24337.5
24065.3
23801.2
23552.2
23321.1
23109.3
22916.4
22741.3
22584.7
11463.3
2494.65
2496.87
2499.12
2501.38
2503.67
2505.98
2508.3
2510.65
2513.02
2515.42
2517.83
2520.27
2522.73
2525.21
2527.72
2530.25
2532.8
2535.37
2537.97
2540.6
2543.25
2545.92
2548.62
2551.34
2554.09
2556.87
2559.67
2562.5
2565.35
2568.23
2571.14
2574.08
2577.04
2580.04
2583.06
2586.11
2589.19
2592.3
2595.43
2598.6
2601.8
2605.03
2608.29
2611.59
2614.91
2618.27
2621.66
2625.08
2628.54
2632.03
2635.55
2639.11
2642.71
2646.33
2650
2653.7
2657.44
2661.21
2665.03
2668.88
2672.76
2676.69
2680.66
2684.67
2688.71
2692.8
2696.93
2701.1
2705.31
2709.57
2713.87
2718.21
2722.59
3425.96
3207.62
3797.38
4096.62
4429.21
4675.36
4905.23
5089.1
5252.84
5386.02
5498.62
5589.25
5666.61
5735.55
5804.33
5840.31
5861.93
5921.75
5937.26
5981.49
5996.11
6056.37
6046.47
6075.11
6132.74
6139.52
6192.57
6197.51
6210.96
6212.9
6204.01
6234.52
6216.14
6241.35
6225.73
6234.89
6259.45
6242.64
6251.33
6276.88
6255.25
6264.09
6293.94
6265.18
6274.33
6309.59
6267.44
6274.98
6288.46
6300.73
6318.53
6333.72
6393.96
6357.37
6378.68
6442.44
6406.5
6428.48
6495.05
6472.42
6456.1
6481.72
6562.22
6527.51
6563.27
6671.79
6646.66
6699.03
6839.58
6857.12
6921.59
6968.97
7009.09
7016.69
7076.47
7217.63
7211.43
7366.69
7356.77
7509.42
7492.68
7584.94
7595.65
7739.24
7775.76
7886.83
7974.6
8017.42
8220.09
8256.98
8348.91
8428.11
8508.42
8594.19
8674.56
8759.3
8685.49
8523.25
8343.36
8163.74
7964.08
7727.45
7563.99
7281.74
7149.92
6758.29
11463.3
2246.5
1193.21
978.813
916.969
869.004
826.101
788.846
759.689
739.192
726.253
719.281
717.941
719.711
724.176
731.334
740.38
750.797
762.379
774.819
788.068
801.517
815.158
830.516
851.554
874.826
899.477
923.934
947.618
970.013
989.772
1005.41
1017.79
1026.24
1028.93
1028.35
1017.48
1009.16
991.739
972.075
949.286
924.106
897.968
872.075
848.002
826.397
810.118
798.178
789.162
783.091
781.911
785.134
789.524
797.915
809.051
820.67
831.179
836.084
833.116
827.673
810.263
790.715
762.461
785.873
816.947
915.473
1086.1
1353.86
1739.3
2172.5
2563.15
2858.82
2989.63
3100.91
3235.29
3181.48
3254.91
3194.57
3027.99
2930.86
2806.95
2719.75
2634.16
2566.87
2508.24
2460.32
2421.56
2390.42
2365.37
2343.35
2325.48
2311.06
2297.18
2287.16
2276.18
2265.62
2253.17
2242.3
2230.65
2217.71
2208.19
2205.11
2210.91
2204.95
2199.67
2203.41
2213.71
2203.11
2192.75
2203.07
2190.86
2200.48
2190.51
2194.74
2208.21
2195.12
2199.91
2205.21
2213.11
2236.16
2235.99
2242.78
2245.27
2238.38
2248.69
2279.29
2282.42
2284.8
2271.96
2284.29
2310
2300.29
2312.83
2342.3
2333.89
2350.63
2391.3
2383.07
2407.49
2464.76
2462.07
2490.91
2550.51
2547.33
2586.82
2579.34
2585.72
2588.85
2593.08
2609.77
2609
2623.16
2629.13
2642.69
2650.19
2666.05
2681.94
2704.74
2724.58
2750.37
2775.01
2797.87
2828.84
2849.5
2879.2
2907.29
2938.72
2951.87
2972.39
2968.71
2928.24
2836.82
2755.53
2686.04
2619.69
2542.97
2475.82
2414.78
2425.3
2476.31
11463.3
2503.93
1538.23
1222.93
996.469
851.229
738.964
658.418
601.991
562.293
534.449
515.017
502.152
494.204
490.151
489.462
490.819
493.72
498.28
504.14
511.114
518.998
527.69
537.441
548.635
560.984
574.239
588.052
602.059
615.874
628.988
640.747
650.785
658.623
663.722
665.791
664.566
661.286
653.771
643.606
631.583
618.237
604.24
590.198
576.701
564.169
553.138
543.702
535.822
529.513
524.998
522.382
521.46
522.744
525.02
530.396
537.985
547.849
561.391
581.756
612.957
668.866
750.754
865.388
1025.35
1250.56
1536.61
1879.15
2240.68
2472.26
2640.82
2689.94
2787.63
2695.82
2506.47
2381.05
2142.77
2047.28
1933.02
1867.83
1801.52
1758.72
1720.8
1693.1
1670.24
1652.37
1638
1626.33
1616.67
1608.49
1601.52
1595.68
1590.89
1587.54
1583.09
1578.9
1574.3
1568.87
1563.85
1557.46
1550.62
1545.53
1553.28
1548.27
1550.79
1560.96
1561.18
1562.42
1563.01
1560.35
1562.91
1575.05
1568.88
1572.47
1586.47
1578.02
1582.09
1586.57
1592.91
1612.07
1608.5
1615.12
1621.58
1638.67
1632.23
1654.77
1656.01
1669.26
1662.73
1673.29
1695.94
1692.18
1701.86
1727.92
1728.06
1752.82
1754.33
1749.72
1782.11
1792.38
1795.67
1809.28
1833.35
1832.78
1840.25
1843.53
1846.68
1850.79
1848.97
1849.17
1848.02
1849.23
1848.23
1849.56
1851.99
1857.34
1864.86
1874.89
1886.32
1900.03
1914.74
1930.28
1946.3
1960.9
1966.99
1977.58
1983.21
1978.98
1957.98
1911.51
1850.97
1789.78
1737.55
1690.61
1645.42
1602.57
1550.31
1522.51
1525.48
1545.79
11463.3
3271.22
1867.11
1299.05
1001.53
812.919
689.245
606.272
549.212
509.245
481.009
461.307
447.632
438.373
432.483
429.293
428.299
428.925
430.488
433.349
437.347
442.323
448.178
454.937
462.566
470.971
480.023
489.546
499.348
509.19
518.777
527.758
535.794
542.526
547.627
550.85
552.029
551.338
548.661
543.806
537.616
530.487
522.778
514.818
506.911
499.296
492.209
485.819
480.291
475.802
472.604
470.998
471.465
474.156
480.243
491.54
510.193
539.222
582.961
645.198
736.049
872.539
1035.43
1228.29
1459.62
1716.21
1973.82
2163.25
2294.85
2348.35
2420.82
2313.28
2130.97
1970.83
1812.13
1703.31
1596.55
1541.98
1484.34
1449.83
1419.06
1398.8
1382.67
1371.29
1362.26
1355.8
1350.59
1346.55
1343.01
1340.22
1337.06
1333.76
1330.74
1335.82
1334.42
1332.1
1336.21
1331.84
1336.95
1334.9
1331.92
1332.98
1336.39
1338.65
1348.21
1349.86
1350.11
1354.03
1365.48
1368.15
1370.74
1382.4
1381.3
1380.68
1396.87
1388.54
1403.89
1397.53
1403.08
1422.11
1422.75
1441.99
1443.06
1443.24
1449.2
1459.71
1469.71
1491.24
1491.97
1516.9
1531.25
1538.73
1547.77
1556.58
1566.57
1575.43
1580.02
1576.2
1590.45
1612.27
1614.06
1636.07
1637.22
1647.74
1652.36
1653.58
1657.68
1663.72
1662.61
1660.88
1657.87
1654.45
1649.79
1645.01
1640.59
1638.08
1636.2
1637.45
1639.41
1645.49
1652.49
1660.77
1665.8
1680.5
1680.65
1677.11
1665.54
1635.75
1591.98
1536.25
1478.92
1426.06
1378.54
1334.74
1292.81
1256.02
1211.3
1190.72
1187.1
1190.02
11463.3
3768.57
1918.08
1235.09
905.675
726.971
621.058
553.698
508.378
476.899
454.725
438.992
427.87
420.154
415.041
412.018
410.763
410.897
411.77
413.603
416.486
420.263
424.904
430.331
436.458
443.202
450.464
458.122
466.041
474.062
481.995
489.61
496.672
502.925
508.145
512.149
514.851
516.233
516.302
515.183
512.977
509.986
506.457
502.602
498.617
494.679
490.982
487.737
485.232
483.812
483.914
486.097
491.237
500.565
516.068
540.916
580.259
641.376
733.298
853.941
994.251
1154.41
1333.64
1532.1
1730.72
1892.74
2009.93
2104.82
2113.42
2056.75
1912.16
1772.38
1635.95
1528.51
1438.12
1372.78
1321.15
1287.62
1259
1240.87
1226.83
1217.54
1212.2
1210.03
1207.5
1208.21
1207.3
1209.21
1208.65
1211.61
1211.78
1212.9
1215.11
1221.62
1224.07
1227.57
1230.73
1232.67
1236.5
1239.09
1241.74
1244.9
1248.62
1251.6
1255.31
1255.28
1264.65
1270.25
1276.41
1281.22
1285.92
1292.97
1295.66
1297.1
1308.77
1307.97
1319.62
1318.88
1324.48
1340.72
1343.53
1361.68
1370.09
1376.78
1383.13
1386.32
1408.31
1423.96
1435.12
1449.05
1460.23
1469.5
1477.64
1477.21
1500.95
1505.9
1525.1
1525.59
1554.68
1564.1
1583.26
1596.55
1606.37
1612.85
1626.67
1634.69
1645.79
1648.47
1659.11
1658.25
1657.65
1652.41
1644.14
1633.06
1619.79
1605.61
1587.99
1579.16
1559.86
1556.48
1552.01
1552.84
1554.34
1559.49
1555.55
1542.48
1507.85
1461.55
1406.4
1352.26
1300.29
1251.43
1205.43
1162.01
1120.53
1083.8
1044.84
1020.39
1003.11
1005.64
11463.3
3743.59
1715.27
1069.41
795.452
654.048
571.26
518.686
483.634
459.417
442.403
430.293
421.616
415.563
411.645
409.465
408.744
409.152
410.366
412.516
415.521
419.326
423.858
429.032
434.807
441.106
447.854
454.962
462.339
469.874
477.438
484.877
492.027
498.707
504.751
510.019
514.413
517.748
520.173
521.793
522.743
523.113
523.018
522.772
522.483
522.343
522.516
523.184
524.932
528.282
534.024
543.256
557.596
579.474
612.605
662.509
735.072
829.202
938.342
1064.31
1207.46
1362.69
1515.3
1652.92
1765.25
1857.16
1885.98
1867.92
1758.85
1654.84
1535.3
1435.04
1347.17
1280.22
1228.23
1190.41
1162.8
1144.34
1131.38
1124.06
1120.46
1120.14
1120.46
1121.94
1124.46
1128.19
1131.41
1135.56
1139
1143.41
1146.89
1150.79
1155.17
1160.28
1164.33
1168.45
1172.46
1176.33
1180.59
1184.53
1188.55
1192.63
1196.83
1200.95
1205.35
1209.42
1215.53
1221.17
1226.95
1232.51
1238.25
1244.27
1249.41
1254.63
1261.73
1266.4
1273.77
1278.82
1286.11
1296.03
1303.9
1314.74
1323.54
1332.09
1340.96
1350.86
1365.33
1378.07
1389.93
1402.24
1413.94
1425.63
1437.56
1449.18
1466.31
1480.82
1498.05
1513
1534.02
1551.38
1570.6
1588.34
1605.2
1621.13
1637.09
1646.37
1677.06
1690.59
1707.01
1710.36
1724.52
1723.11
1714.86
1698.61
1674.17
1642.52
1607.27
1569.69
1533.35
1504.97
1484.2
1470.94
1461.07
1450.41
1430
1394.28
1342.55
1292.32
1246.14
1203.34
1161.84
1121.74
1082.34
1044.14
1007.11
973.05
940.808
912.396
890.737
888.132
11463.3
3280.83
1463.7
945.08
726.953
612.58
544.656
501.392
472.64
452.838
438.859
429.118
422.474
418.248
415.83
414.844
415.048
416.209
418.233
421.04
424.558
428.726
433.511
438.879
444.794
451.21
458.081
465.349
472.954
480.82
488.866
496.976
505.021
512.846
520.339
527.427
534.085
540.316
546.047
551.241
555.91
560.076
563.857
567.401
570.924
574.715
579.159
584.84
592.508
603.024
617.408
637.297
664.803
702.497
753.228
819.055
899.827
994.157
1100.64
1215.58
1333.77
1447.05
1546.94
1632.68
1672.19
1686.15
1637.56
1559.13
1464.66
1381.39
1297.12
1228.93
1173.31
1132.7
1102.45
1081.48
1068.1
1061.14
1058.86
1056.98
1059.26
1063.21
1067.87
1073.57
1079.43
1085.48
1091.34
1097.25
1102.9
1108.51
1113.78
1118.98
1124.22
1129.43
1134.22
1138.88
1143.44
1147.94
1152.49
1156.91
1161.34
1165.72
1170.11
1174.51
1179.02
1183.67
1188.93
1194.21
1199.57
1204.88
1210.3
1215.83
1221.09
1226.55
1232.34
1237.78
1243.85
1249.7
1256.66
1264.48
1272.26
1280.85
1288.97
1297.28
1305.99
1315.67
1326.73
1337.23
1347.66
1358.38
1369.23
1380.5
1392.28
1404.88
1419.47
1434.16
1450
1466.31
1484.77
1502.96
1522.3
1541.78
1561.57
1581.73
1602.17
1622.24
1645.72
1660.7
1688.45
1699.01
1712.68
1725.24
1723.47
1711.98
1688.17
1651.3
1601
1542.32
1482.52
1429.49
1387.13
1357.87
1333.86
1306.61
1265.62
1219.99
1176.79
1136.5
1099.3
1065.33
1034.21
1005.06
974.86
944.809
914.829
887.028
859.717
837.313
812.364
805.364
11463.3
2769.86
1294.09
870.45
687.254
589.955
531.962
494.743
469.755
452.815
441.499
434.025
429.308
426.643
425.507
425.506
426.629
428.68
431.544
435.143
439.422
444.341
449.873
455.997
462.694
469.942
477.718
485.993
494.731
503.88
513.376
523.146
533.101
543.153
553.251
563.285
573.12
582.636
591.712
600.255
608.236
615.686
622.724
629.562
636.533
644.087
652.805
663.407
676.77
693.794
715.737
743.913
779.56
824.018
878.336
942.593
1016.22
1097.77
1184.93
1272.96
1357.33
1435.24
1504.19
1523.08
1512.89
1461.68
1401.16
1333.67
1265.54
1203.06
1145.02
1100.34
1066.53
1042.79
1027.5
1018.4
1014.77
1013.42
1013.66
1017.49
1023.27
1030.15
1037.6
1045.44
1053.29
1061.03
1068.53
1075.79
1082.74
1089.41
1095.75
1101.84
1107.73
1113.42
1118.82
1124.03
1129.08
1134.03
1138.91
1143.69
1148.4
1153.05
1157.64
1162.22
1166.83
1171.55
1176.49
1181.5
1186.57
1191.61
1196.67
1201.77
1206.77
1211.84
1216.94
1221.99
1227.2
1232.47
1238.23
1244.29
1250.46
1256.88
1263.21
1269.72
1276.5
1283.78
1291.55
1299.15
1306.79
1314.62
1322.64
1331.01
1339.8
1349.28
1359.7
1370.61
1382.24
1394.59
1408.06
1421.99
1436.8
1452.13
1468
1484.49
1501.06
1517.75
1535.08
1550.02
1567.26
1578.05
1586.44
1593.68
1592.81
1584.23
1565.43
1533.73
1487.29
1428.51
1364.79
1306.45
1258.55
1223.69
1190.44
1155.61
1118.58
1081.33
1045.15
1011.22
980.05
951.848
926.348
903.278
881.299
858.829
835.799
814.536
792.556
775.502
753.914
744.95
11463.3
2534.56
1242.01
849.08
676.014
584.098
529.583
495.324
473.269
458.864
449.545
443.744
440.481
439.033
438.765
439.579
441.553
444.443
448.142
452.581
457.719
463.529
469.998
477.119
484.892
493.316
502.389
512.098
522.426
533.338
544.784
556.7
569.013
581.686
594.582
607.414
619.929
631.939
643.329
654.027
664.033
673.421
682.363
691.127
700.082
709.664
720.414
733.044
748.412
767.554
791.44
820.68
856.022
898.242
947.572
1003.51
1064.98
1129.58
1195.9
1261.94
1323.42
1357.19
1366.75
1358.17
1325
1278.74
1231.07
1181.16
1131.69
1086.82
1049.73
1022.81
1003.68
991.04
984.347
981.289
980.851
982.078
986.563
993.075
1000.94
1009.6
1018.67
1027.89
1037.04
1045.97
1054.59
1062.86
1070.76
1078.27
1085.4
1092.19
1098.68
1104.88
1110.8
1116.48
1121.95
1127.26
1132.44
1137.48
1142.42
1147.25
1152
1156.67
1161.3
1165.94
1170.63
1175.32
1179.98
1184.58
1189.12
1193.59
1197.94
1202.24
1206.44
1210.57
1214.67
1218.74
1222.95
1227.25
1231.58
1235.96
1240.29
1244.66
1249.14
1253.82
1258.64
1263.4
1268.13
1272.92
1277.79
1282.85
1288.12
1293.79
1299.91
1306.4
1313.28
1320.65
1328.59
1336.97
1345.84
1355.11
1364.7
1374.59
1384.4
1394.07
1403.39
1411.52
1419.22
1423.75
1426.24
1426.86
1423.22
1414.46
1398.83
1373.94
1337.06
1288.98
1235.19
1184.96
1140.65
1101.43
1068.65
1036.14
1003.01
970.373
939.394
910.649
884.461
860.913
839.841
821.054
803.721
787.165
769.78
753.77
736.872
723.743
706.746
698.121
11463.3
2449.17
1207.82
835.432
671.035
583.883
533.041
501.632
481.724
469.078
461.243
456.747
454.572
453.851
454.133
455.812
458.559
462.223
466.715
471.978
477.984
484.714
492.163
500.334
509.239
518.89
529.292
540.438
552.303
564.84
577.976
591.614
605.633
619.884
634.122
648.062
661.489
674.267
686.285
697.475
707.877
717.605
726.849
735.867
745.005
754.689
765.417
777.815
792.66
810.839
832.975
859.571
891.125
927.857
969.307
1014.61
1063.48
1115.16
1164.34
1203.68
1219.38
1225.6
1228.64
1211.1
1182.74
1149.69
1115.29
1079.97
1046.99
1018.24
995.211
978.515
967.215
960.859
958.295
957.777
959.088
963.365
969.758
977.712
986.732
996.405
1006.41
1016.5
1026.49
1036.25
1045.67
1054.72
1063.36
1071.59
1079.39
1086.8
1093.85
1100.58
1106.99
1113.11
1118.98
1124.64
1130.11
1135.4
1140.53
1145.49
1150.31
1155
1159.57
1164.03
1168.4
1172.66
1176.8
1180.79
1184.62
1188.29
1191.78
1195.11
1198.26
1201.26
1204.11
1206.83
1209.51
1212.14
1214.71
1217.22
1219.65
1222.01
1224.35
1226.7
1229.05
1231.31
1233.48
1235.6
1237.7
1239.83
1242.02
1244.36
1246.87
1249.54
1252.38
1255.44
1258.75
1262.28
1266.03
1269.95
1273.97
1278.04
1281.97
1285.64
1288.88
1291.49
1293.37
1293.94
1293.49
1292.03
1288.59
1282.05
1270.63
1251.85
1221.34
1179.66
1131.46
1084.45
1038.7
1000.64
968.128
937.291
907.532
879.326
853.113
829.096
807.382
787.985
770.761
755.573
741.861
729.349
716.224
704.186
691.483
681.401
668.348
660.892
11463.3
2451.07
1207.37
835.641
673.81
589.612
541.022
511.479
493.151
481.866
475.232
471.832
470.469
470.215
471.1
473.469
476.919
481.304
486.55
492.615
499.48
507.131
515.557
524.728
534.664
545.38
556.88
569.146
582.133
595.761
609.923
624.48
639.273
654.119
668.82
683.19
697.085
710.415
723.102
735.106
746.429
757.091
767.228
777.026
786.743
796.688
806.765
817.471
829.519
843.582
860.328
880.545
904.897
933.56
965.892
1000.25
1035.46
1067.47
1093.43
1111.64
1120.1
1124
1121.97
1109.19
1091.5
1070.34
1047.07
1022.99
1000.34
980.823
965.426
954.435
947.557
944.38
943.506
944.204
947.553
953.046
960.281
968.843
978.351
988.468
998.916
1009.47
1019.97
1030.28
1040.3
1049.95
1059.2
1068.04
1076.45
1084.45
1092.08
1099.38
1106.3
1112.88
1119.17
1125.18
1130.94
1136.47
1141.76
1146.81
1151.65
1156.27
1160.68
1164.88
1168.88
1172.68
1176.27
1179.62
1182.72
1185.6
1188.24
1190.64
1192.81
1194.76
1196.5
1198.03
1199.41
1200.65
1201.76
1202.74
1203.58
1204.3
1204.91
1205.43
1205.86
1206.17
1206.28
1206.33
1206.27
1206.15
1205.98
1205.79
1205.62
1205.46
1205.3
1205.18
1205.11
1205.08
1205.11
1205.14
1205.14
1205.08
1204.88
1204.49
1203.85
1202.96
1201.8
1200.33
1198.65
1196.67
1193.48
1187.44
1176.05
1156.4
1125.92
1085.71
1039.97
995.807
951.527
914.993
883.242
854.254
827.709
803.626
781.852
762.251
744.698
729.153
715.44
703.462
692.783
683.212
673.516
664.597
655.195
647.553
637.599
631.394
11463.3
2450.31
1208.87
839.74
680.169
597.939
551.065
523.028
506.036
495.94
490.413
487.839
486.974
487.132
489.019
492.155
496.346
501.489
507.533
514.465
522.284
530.976
540.474
550.73
561.71
573.373
585.774
598.91
612.744
627.204
642.194
657.607
673.323
689.221
705.177
721.072
736.815
752.368
767.711
782.833
797.681
811.813
825.24
838.035
850.313
862.111
872.884
882.869
892.364
901.839
911.961
923.693
938.029
955.163
974.196
994.241
1013.91
1032.65
1049.02
1061.34
1067.13
1069.04
1065.74
1057.59
1045.35
1030.17
1013.28
996.076
980.395
966.358
955.112
947.033
942.113
939.973
939.633
941.178
944.956
950.611
957.835
966.305
975.714
985.777
996.24
1006.9
1017.6
1028.2
1038.61
1048.71
1058.46
1067.83
1076.8
1085.38
1093.56
1101.38
1108.79
1115.85
1122.56
1128.95
1135.01
1140.76
1146.2
1151.32
1156.14
1160.66
1164.88
1168.81
1172.46
1175.83
1178.94
1181.74
1184.25
1186.48
1188.43
1190.09
1191.47
1192.58
1193.45
1194.02
1194.37
1194.53
1194.48
1194.25
1193.84
1193.25
1192.51
1191.61
1190.58
1189.37
1188.01
1186.51
1184.86
1183.08
1181.19
1179.2
1177.14
1174.99
1172.75
1170.44
1168.07
1165.65
1163.17
1160.62
1157.99
1155.26
1152.44
1149.54
1146.59
1143.67
1140.84
1138.13
1135.51
1132.53
1127.98
1119.77
1105.19
1081.85
1048.89
1008.67
965.091
920.552
878.228
841.756
810.434
783.377
760.183
740.157
722.63
707.111
693.397
681.364
670.854
661.748
653.736
646.679
639.739
633.345
626.564
620.9
613.366
608.264
11463.3
2452.53
1212.82
845.486
687.563
606.961
561.589
534.944
519.249
510.423
506.071
504.395
504.067
505.078
507.886
511.93
517.035
523.124
530.182
538.225
547.278
557.335
568.319
580.079
592.439
605.408
619.033
633.354
648.432
664.266
680.809
698.021
715.864
734.306
753.312
772.733
792.347
812.125
832.069
852.181
872.175
891.376
909.779
927.228
943.497
958.351
971.966
984.285
995.242
1004.83
1013.08
1020.06
1026.1
1031.66
1037.67
1045.01
1053.17
1061.66
1070.07
1074.52
1075.04
1070.58
1064.12
1054.72
1043
1029.47
1014.85
999.946
985.434
972.441
961.984
954.303
949.354
946.885
946.317
947.695
951.043
956.172
962.826
970.738
979.642
989.285
999.435
1009.9
1020.52
1031.18
1041.75
1052.1
1062.2
1071.99
1081.44
1090.52
1099.23
1107.55
1115.48
1123.02
1130.16
1136.9
1143.24
1149.2
1154.76
1159.93
1164.73
1169.15
1173.21
1176.92
1180.29
1183.33
1186.03
1188.39
1190.41
1192.11
1193.48
1194.53
1195.24
1195.65
1195.77
1195.54
1195.09
1194.4
1193.48
1192.34
1190.98
1189.42
1187.69
1185.73
1183.58
1181.25
1178.74
1176.07
1173.23
1170.24
1167.1
1163.83
1160.44
1156.92
1153.27
1149.51
1145.63
1141.66
1137.6
1133.44
1129.19
1124.87
1120.51
1116.17
1111.91
1107.88
1104.13
1100.51
1096.74
1092
1084.63
1072.41
1052.97
1025.09
989.151
948.085
905.096
858.295
814.945
777.6
747.113
722.55
703.006
687.038
673.52
661.718
651.481
642.601
634.969
628.434
622.797
617.914
613.235
608.921
604.253
600.197
594.563
590.379
11463.3
2455.35
1216.83
851.058
694.584
615.45
571.507
546.261
531.944
524.547
521.34
520.429
521.031
523.723
527.865
533.206
539.63
547.106
555.66
565.35
576.227
588.28
601.39
615.367
630.049
645.334
661.207
677.834
695.303
713.821
733.24
753.555
774.797
797.018
820.167
843.917
867.961
892.268
916.705
941.055
965.028
988.66
1011.78
1034.13
1055.45
1075.47
1094
1110.79
1125.66
1138.41
1148.88
1157.04
1162.48
1164.92
1165.55
1164.54
1162.13
1158.47
1153.18
1145.78
1135.49
1123.84
1110.75
1096.41
1081.16
1065.18
1048.81
1032.52
1016.91
1002.86
991.45
982.426
975.71
971.315
969.12
968.994
970.643
974.152
979.265
985.778
993.449
1002.05
1011.38
1021.22
1031.42
1041.83
1052.31
1062.74
1073.01
1083.08
1092.88
1102.35
1111.45
1120.18
1128.48
1136.35
1143.76
1150.73
1157.24
1163.3
1168.92
1174.08
1178.81
1183.12
1187
1190.49
1193.58
1196.3
1198.64
1200.6
1202.18
1203.41
1204.27
1204.78
1204.89
1204.58
1203.98
1203.1
1201.95
1200.51
1198.82
1196.87
1194.69
1192.29
1189.67
1186.86
1183.86
1180.67
1177.31
1173.79
1170.1
1166.25
1162.26
1158.12
1153.86
1149.43
1144.86
1140.17
1135.37
1130.47
1125.48
1120.4
1115.27
1110.11
1104.97
1099.87
1094.89
1090.15
1085.44
1080.62
1074.97
1067.28
1055.61
1037.98
1012.78
980.095
941.184
897.799
851.867
802.162
757.104
719.803
691.328
670.091
654.491
642.56
632.71
624.258
617.145
611.114
606.061
601.824
598.285
595.302
592.529
589.969
587.029
584.295
580.161
576.727
11463.3
2457.28
1219.94
855.587
700.52
622.732
580.212
556.455
543.856
538.019
536.062
536.225
539.015
543.604
549.621
556.874
565.301
574.924
585.825
598.109
611.845
626.976
643.293
660.548
678.583
697.375
717.062
737.357
758.404
780.509
803.418
827.248
852.026
877.702
904.142
931.248
959.006
987.309
1015.99
1044.84
1073.64
1102.21
1130.29
1157.62
1183.91
1208.88
1232.24
1253.73
1273.07
1290
1304.32
1315.88
1324.12
1328.15
1329.56
1328.15
1323.78
1316.63
1306.77
1294.02
1278.59
1259.92
1238.99
1216.3
1192.69
1169.15
1146.25
1124.36
1103.65
1084.67
1068.2
1053.58
1040.51
1029.97
1022.8
1018.06
1015.55
1015.34
1016.98
1020.49
1025.53
1031.89
1039.33
1047.63
1056.59
1066.02
1075.75
1085.62
1095.53
1105.35
1115
1124.38
1133.44
1142.13
1150.42
1158.27
1165.66
1172.59
1179.03
1184.99
1190.46
1195.45
1199.96
1203.99
1207.57
1210.7
1213.41
1215.71
1217.59
1219.07
1220.15
1220.89
1221.2
1221.05
1220.41
1219.49
1218.24
1216.69
1214.83
1212.68
1210.25
1207.56
1204.62
1201.45
1198.06
1194.48
1190.71
1186.75
1182.63
1178.35
1173.92
1169.34
1164.63
1159.79
1154.81
1149.74
1144.57
1139.29
1133.92
1128.48
1122.98
1117.43
1111.85
1106.29
1100.79
1095.31
1089.79
1084.14
1078.17
1071.34
1062.47
1050.21
1032.59
1008.45
977.138
939.66
897.618
851.728
800.297
748.32
702.839
667.574
642.488
625.256
613.697
605.593
598.933
593.46
589.176
585.713
582.951
580.731
579.035
577.714
576.576
575.487
573.954
572.301
569.351
566.526
11463.3
2458.41
1222.11
858.933
705.186
628.718
587.726
565.853
555.282
551.388
550.964
553.494
558.773
565.936
574.638
584.737
596.234
609.224
623.865
640.314
658.588
678.458
699.503
721.49
744.271
767.52
791.235
815.139
839.637
864.863
891.062
918.367
946.745
976.129
1006.42
1037.52
1069.31
1101.68
1134.44
1167.4
1200.37
1233.11
1265.37
1296.89
1327.4
1356.59
1384.18
1409.85
1433.32
1454.28
1472.47
1487.64
1499.54
1507.57
1511.59
1512.09
1509.17
1502.69
1492.99
1480.57
1465.44
1446.56
1423.76
1397.58
1368.92
1338.82
1308.63
1279.5
1252.19
1226.62
1202.33
1180.02
1159.66
1141.45
1125.78
1112.25
1101.52
1094.2
1089.52
1087.3
1087.28
1089.31
1092.93
1097.89
1104.01
1110.99
1118.61
1126.68
1135.05
1143.58
1152.12
1160.55
1168.78
1176.74
1184.37
1191.62
1198.46
1204.84
1210.75
1216.18
1221.11
1225.54
1229.48
1232.92
1235.87
1238.37
1240.43
1242.06
1243.24
1244.04
1244.44
1244.44
1243.93
1243
1241.69
1240.03
1238.04
1235.73
1233.11
1230.19
1226.99
1223.53
1219.83
1215.9
1211.76
1207.43
1202.92
1198.25
1193.42
1188.46
1183.36
1178.15
1172.83
1167.39
1161.87
1156.26
1150.58
1144.83
1139.03
1133.18
1127.3
1121.4
1115.51
1109.57
1103.69
1097.57
1091.05
1083.97
1075.66
1065.19
1051.13
1032.35
1007.32
976.127
939.271
897.985
852.143
802.333
747.644
695.214
651.894
620.888
600.182
587.242
579.552
574.869
570.836
568.103
566.411
565.202
564.448
563.937
563.93
564.076
564.425
564.524
564.125
563.36
561.37
559.044
11463.3
2460.07
1224.13
861.769
709.28
634.253
595.217
575.784
567.691
565.864
568.223
574.388
583.213
594.135
606.892
621.438
637.891
656.478
677.482
701.011
726.75
754.168
781.725
809.337
836.763
863.697
890.722
918.444
947.158
976.92
1007.71
1039.47
1072.12
1105.6
1139.81
1174.66
1210.04
1245.84
1281.9
1318.07
1354.16
1389.98
1425.31
1459.89
1493.46
1525.74
1556.43
1585.24
1611.83
1635.9
1657.13
1675.25
1689.98
1701.12
1707.93
1710.79
1709.65
1704.58
1695.67
1683.18
1667.49
1648.52
1625.77
1599.44
1569.94
1537.92
1504.15
1469.63
1435.31
1402.01
1370.41
1341.4
1315.29
1291.5
1269.26
1249.05
1230.95
1215.2
1201.88
1191.92
1184.89
1180.42
1178.06
1177.7
1179.24
1182.04
1185.86
1190.54
1195.94
1201.8
1207.95
1214.23
1220.53
1226.72
1232.74
1238.49
1243.92
1248.97
1253.62
1257.82
1261.58
1264.86
1267.67
1269.98
1271.81
1273.24
1274.23
1274.83
1274.94
1274.74
1274.13
1273.08
1271.61
1269.76
1267.54
1264.98
1262.1
1258.91
1255.42
1251.64
1247.6
1243.31
1238.79
1234.07
1229.16
1224.07
1218.82
1213.42
1207.9
1202.26
1196.52
1190.7
1184.78
1178.78
1172.72
1166.62
1160.47
1154.3
1148.11
1141.9
1135.64
1129.34
1123.01
1116.35
1109.26
1101.69
1093.45
1083.44
1070.75
1054.25
1032.65
1005.64
972.866
935.679
894.881
850.67
802.847
748.653
693.444
643.704
605.428
580.272
564.264
555.54
551.403
549.515
547.583
547.587
548.038
548.657
549.58
550.8
552.263
553.873
555.299
556.247
556.738
556.75
555.596
553.692
11463.3
2463.38
1227.01
865.489
714.778
642.095
606.225
590.333
585.679
587.698
595.244
606.74
621.338
638.659
658.616
681.397
707.486
737.128
770.432
806.502
842.919
878.22
911.355
943.596
975.635
1008.31
1041.83
1076.22
1111.4
1147.26
1183.66
1220.49
1257.66
1295.07
1332.66
1370.37
1408.13
1445.88
1483.53
1521
1558.17
1594.9
1631.04
1666.38
1700.71
1733.77
1765.31
1795.03
1822.63
1847.78
1870.14
1889.4
1905.27
1917.51
1925.77
1929.88
1929.74
1925.21
1916.69
1904.29
1888.17
1868.42
1845.07
1818.26
1788.32
1755.67
1720.66
1683.84
1645.92
1607.64
1569.82
1533.43
1499.25
1467.64
1438.89
1413.25
1389.83
1368.05
1348.11
1330.05
1315.29
1303.49
1294.26
1287.42
1282.66
1279.67
1278.06
1277.77
1278.84
1280.59
1282.94
1285.72
1288.78
1291.97
1295.19
1298.32
1301.29
1304.02
1306.47
1308.58
1310.34
1311.71
1312.69
1313.24
1313.31
1313.18
1312.64
1311.74
1310.46
1308.85
1306.89
1304.57
1301.9
1298.9
1295.59
1291.97
1288.06