/*--------------------------------*- C++ -*----------------------------------*\
| =========                 |                                                 |
| \\      /  F ield         | OpenFOAM: The Open Source CFD Toolbox           |
|  \\    /   O peration     | Version:  v2012                                 |
|   \\  /    A nd           | Website:  www.openfoam.com                      |
|    \\/     M anipulation  |                                                 |
\*---------------------------------------------------------------------------*/
FoamFile
{
    version     2.0;
    format      ascii;
    class       volScalarField;
    location    "4100";
    object      nuTilda;
}
// * * * * * * * * * * * * * * * * * * * * * * * * * * * * * * * * * * * * * //

dimensions      [0 2 -1 0 0 0 0];


internalField   nonuniform List<scalar> 
12225
(
0.0122671
0.00158833
0.000666932
0.0004122
0.000298016
0.000234158
0.000195366
0.000157556
0.000177073
0.000222686
0.000230384
0.00022127
0.000203463
0.000178139
0.00017263
0.000158588
0.000147177
0.000136895
0.0323823
0.00744532
0.00330641
0.00204337
0.00146819
0.00114457
0.000939066
0.000785445
0.000691125
0.000627794
0.000570642
0.000520033
0.000476782
0.000437429
0.000407123
0.00037478
0.000350015
0.000324462
0.0490123
0.01515
0.00728196
0.00457856
0.00330642
0.00258052
0.00211335
0.00178198
0.00154689
0.00137268
0.0012317
0.00111557
0.00101869
0.000936509
0.000867168
0.000804844
0.000754193
0.000701725
0.063054
0.0237783
0.0122894
0.00788815
0.00573398
0.00448498
0.00367443
0.00310422
0.0026872
0.00237002
0.00211798
0.00191324
0.00174412
0.00160235
0.00148259
0.00137879
0.00129128
0.00120477
0.074932
0.0328517
0.0181452
0.0119262
0.00874549
0.00686413
0.00563087
0.0047613
0.00411869
0.00362573
0.00323518
0.00291878
0.00265804
0.0024401
0.00225603
0.0020984
0.00196344
0.00183991
0.0849536
0.0420208
0.0246655
0.0166359
0.0123325
0.00972587
0.00799541
0.0067674
0.00585404
0.00515005
0.00459191
0.00413984
0.00376745
0.00345638
0.00319355
0.00296911
0.00277617
0.00260662
0.0933822
0.0510219
0.0316642
0.0219415
0.016474
0.0130717
0.0107779
0.00913539
0.00790598
0.00695436
0.00619833
0.00558533
0.0050801
0.00465803
0.00430139
0.00399704
0.00373537
0.00350916
0.0993794
0.0583363
0.0378386
0.0268568
0.0204171
0.0163053
0.0134892
0.011453
0.00991905
0.00872671
0.00777697
0.0070057
0.00636944
0.00583763
0.00538817
0.00500469
0.00467517
0.00439184
0.104023
0.0645454
0.0433804
0.0314239
0.0241571
0.0194092
0.0161097
0.0137018
0.0118767
0.0104523
0.00931473
0.0083894
0.00762525
0.00698616
0.00644587
0.00598492
0.005589
0.00524917
0.108368
0.0708939
0.0493757
0.0365496
0.0284517
0.0230231
0.0191863
0.0163548
0.0141927
0.0124969
0.0111382
0.0100306
0.00911457
0.00834785
0.00769937
0.00714608
0.00667098
0.00626329
0.112368
0.0772557
0.0557282
0.0421918
0.0332976
0.0271652
0.0227468
0.0194433
0.0168984
0.0148904
0.013275
0.0119546
0.0108607
0.00994396
0.00916816
0.00850608
0.0079376
0.0074494
0.115994
0.0834975
0.0623054
0.0482611
0.0386474
0.0318167
0.026789
0.0229739
0.0200047
0.0176453
0.0157379
0.0141737
0.012875
0.0117851
0.010862
0.0100738
0.0093969
0.00881485
0.119234
0.0894856
0.0689377
0.0546109
0.0443919
0.0369007
0.0312597
0.0269089
0.0234837
0.02074
0.0185097
0.0166735
0.015145
0.0138601
0.0127705
0.0118397
0.0110399
0.010351
0.122086
0.095084
0.075415
0.0610223
0.0503361
0.0422535
0.0360231
0.0311353
0.0272402
0.0240931
0.0215191
0.0193909
0.0176141
0.0161175
0.0148467
0.0137601
0.0128258
0.0120198
0.124546
0.100135
0.0814619
0.0671726
0.056158
0.047577
0.0408126
0.0354174
0.031066
0.0275197
0.0246013
0.0221778
0.0201482
0.018435
0.0169783
0.0157315
0.0146584
0.0137312
0.126578
0.104396
0.0866605
0.0725515
0.0613228
0.0523526
0.0451453
0.0393148
0.0345631
0.0306611
0.0274325
0.024741
0.0224806
0.020569
0.0189413
0.0175468
0.0163455
0.0153062
0.128011
0.107322
0.0902141
0.0762353
0.0648743
0.0556509
0.0481493
0.0420254
0.0370012
0.0328553
0.0294126
0.0265352
0.0241143
0.0220643
0.0203171
0.0188191
0.0175275
0.0164083
0.128006
0.107313
0.0902048
0.0762269
0.0648674
0.0556454
0.048145
0.0420221
0.0369988
0.0328537
0.0294117
0.0265349
0.0241147
0.0220651
0.0203184
0.0188205
0.0175286
0.0164082
0.126509
0.104255
0.0864922
0.0723807
0.0611613
0.052205
0.0450128
0.0391967
0.0344584
0.0305685
0.0273506
0.0246684
0.0224163
0.0205118
0.0188902
0.0175006
0.0163023
0.015263
0.124267
0.0995604
0.0807712
0.0664676
0.0554886
0.0469631
0.0402594
0.0349227
0.0306248
0.0271258
0.0242487
0.0218611
0.0198625
0.0181762
0.0167425
0.0155151
0.0144574
0.0135404
0.12136
0.0936399
0.0737261
0.0593348
0.0487592
0.0408248
0.0347467
0.0300003
0.0262308
0.0231928
0.0207127
0.018665
0.0169572
0.0155197
0.0142998
0.0132566
0.0123582
0.0115797
0.117686
0.0865903
0.0656967
0.0514791
0.0415374
0.0343608
0.0290183
0.0249322
0.0217348
0.0191848
0.0171184
0.0154211
0.0140105
0.0128263
0.0118228
0.0109656
0.0102279
0.00958885
0.11305
0.0784122
0.056921
0.0432687
0.0342296
0.0279652
0.0234365
0.0200435
0.0174263
0.0153598
0.0136967
0.012337
0.0112107
0.0102671
0.00946865
0.00878716
0.00820097
0.00769339
0.107169
0.0691009
0.0476372
0.035029
0.0271566
0.021922
0.0182437
0.0155401
0.0134818
0.0118708
0.0105819
0.00953231
0.00866516
0.00793989
0.00732685
0.00680389
0.00635418
0.00596495
0.0996761
0.0587036
0.0381279
0.0270699
0.0205782
0.0164329
0.0135949
0.0115437
0.00999935
0.00879953
0.00784422
0.00706853
0.00642883
0.00589439
0.00544295
0.00505792
0.00472678
0.00444034
0.0901097
0.0473665
0.0287363
0.0196847
0.0146976
0.0116311
0.0095785
0.0081152
0.00702351
0.00618081
0.00551235
0.00497025
0.00452349
0.00415036
0.00383522
0.00356633
0.00333483
0.00313479
0.0779076
0.0353826
0.0198606
0.0131383
0.00966106
0.00759296
0.00623349
0.00527411
0.00456426
0.00402038
0.00359045
0.00324081
0.00295225
0.00271079
0.00250682
0.00233232
0.00218135
0.00205136
0.06238
0.0232554
0.0119461
0.00765493
0.00556338
0.00435255
0.00356722
0.00301619
0.00261336
0.0023104
0.00207214
0.00187472
0.00171061
0.00157223
0.001455
0.00135393
0.0012646
0.00118842
0.0426105
0.0117794
0.00546931
0.00341388
0.00246076
0.00192014
0.0015728
0.00132962
0.00115856
0.00104154
0.000949968
0.000865415
0.000792779
0.000730802
0.000671596
0.000626901
0.000583017
0.00054322
0.0168348
0.0025599
0.00110031
0.000684193
0.00049518
0.000389159
0.000321435
0.000273105
0.000272229
0.000339134
0.000377047
0.000357137
0.000322752
0.000296903
0.000246013
0.000286527
0.000272008
0.000224956
3.70919e-06
1.38329e-05
2.5609e-05
3.82432e-05
4.60367e-05
4.9833e-05
5.02188e-05
4.77915e-05
4.45828e-05
3.94339e-05
3.40882e-05
2.93599e-05
2.6751e-05
2.73196e-05
2.9638e-05
3.13289e-05
3.11009e-05
2.80751e-05
2.2803e-05
1.91836e-05
1.96952e-05
2.60202e-05
3.89528e-05
6.5151e-05
8.76134e-05
0.000101034
0.000113667
0.000124634
0.000134562
0.00014303
0.000150585
0.000157177
0.000163014
0.000168147
0.000172662
0.000176674
0.000180249
0.000183458
0.000186346
0.00018895
0.000191293
0.000193394
0.000195267
0.000196925
0.000198382
0.000199646
0.000200728
0.000201632
0.000202357
0.000202898
0.000203141
0.000203373
0.000203418
0.000203298
0.00020302
0.000202605
0.000202048
0.000201355
0.000200525
0.000199563
0.000198469
0.000197247
0.000195899
0.000194428
0.000192838
0.00019113
0.000189305
0.000187368
0.000185322
0.00018317
0.000180914
0.000178557
0.000176103
0.000173553
0.000170911
0.000168178
0.000165356
0.000162447
0.000159452
0.000156372
0.000153209
0.000149963
0.000146634
0.000143221
0.000139722
0.000136132
0.000132443
0.000128645
0.000124725
0.000120669
0.00011646
0.000112083
0.000107539
0.000102882
9.83235e-05
9.43585e-05
9.15595e-05
8.98173e-05
8.85069e-05
8.73029e-05
8.61196e-05
8.49408e-05
8.37649e-05
8.25925e-05
8.14245e-05
8.02618e-05
7.91059e-05
7.7961e-05
7.68486e-05
7.58975e-05
7.49632e-05
7.40354e-05
7.31156e-05
7.2204e-05
7.13011e-05
7.04072e-05
6.95226e-05
6.86478e-05
6.77829e-05
6.69282e-05
6.60838e-05
6.525e-05
6.44272e-05
6.36158e-05
6.28156e-05
6.20267e-05
6.12499e-05
6.05134e-05
5.98365e-05
5.91682e-05
5.85049e-05
5.78549e-05
5.72229e-05
5.65962e-05
5.59745e-05
5.53611e-05
5.47567e-05
5.41619e-05
5.35768e-05
5.30014e-05
5.24353e-05
5.18787e-05
5.13311e-05
5.07926e-05
5.0263e-05
4.97421e-05
4.923e-05
4.87265e-05
4.82315e-05
4.77449e-05
4.72666e-05
4.67967e-05
4.6335e-05
4.58816e-05
4.54363e-05
4.49994e-05
4.45707e-05
4.41505e-05
4.37388e-05
4.33357e-05
4.29416e-05
4.25565e-05
4.21809e-05
4.18148e-05
4.14586e-05
4.11123e-05
4.07759e-05
4.04493e-05
4.01319e-05
3.98229e-05
3.95209e-05
3.92243e-05
3.89293e-05
3.86356e-05
3.83243e-05
3.8027e-05
3.75975e-05
3.72905e-05
3.63594e-05
3.48407e-05
5.88175e-06
3.9943e-05
9.08992e-05
0.000151921
0.000191202
0.00021357
0.000222524
0.00022111
0.000213145
0.000197489
0.00017839
0.000160491
0.000151692
0.000156431
0.000168606
0.000176124
0.000178028
0.000178817
0.000183785
0.000192711
0.000207739
0.000224924
0.000241166
0.000256468
0.000267369
0.000276832
0.000285412
0.000298236
0.000316686
0.00033031
0.000342755
0.000353462
0.000363216
0.000372145
0.000379916
0.000387019
0.00039364
0.0004
0.000406224
0.000412376
0.000418452
0.000424408
0.000430191
0.000435761
0.00044109
0.000446161
0.000450959
0.000455471
0.000459699
0.000463648
0.000467327
0.000470758
0.000473929
0.00047685
0.000479522
0.000481947
0.000484126
0.000486058
0.000487744
0.000489185
0.000490381
0.000491333
0.000492044
0.000492517
0.000492763
0.000492787
0.000492582
0.000492147
0.000491497
0.000490635
0.000489569
0.000488303
0.000486845
0.000485201
0.000483379
0.000481386
0.000479229
0.000476915
0.000474452
0.000471849
0.000469113
0.000466252
0.000463275
0.00046019
0.000457005
0.000453728
0.000450368
0.000446931
0.000443425
0.000439858
0.000436237
0.000432567
0.000428847
0.00042507
0.000421218
0.000417264
0.000413193
0.000409034
0.000404836
0.000400625
0.000396407
0.000392186
0.000387966
0.00038375
0.000379542
0.000375344
0.000371161
0.000366994
0.000362844
0.000358707
0.000354595
0.000350512
0.000346461
0.000342442
0.000338459
0.000334511
0.000330602
0.000326732
0.000322903
0.000319116
0.000315371
0.000311671
0.000308015
0.000304405
0.000300843
0.000297327
0.000293857
0.000290432
0.000287051
0.000283717
0.000280428
0.000277191
0.00027401
0.000270867
0.000267763
0.000264703
0.000261689
0.000258721
0.000255801
0.000252927
0.000250099
0.000247317
0.000244579
0.000241886
0.000239236
0.000236629
0.000234064
0.000231541
0.00022906
0.00022662
0.000224221
0.000221862
0.000219544
0.000217265
0.000215027
0.000212829
0.000210671
0.000208555
0.00020648
0.000204448
0.00020246
0.000200516
0.00019862
0.000196772
0.000194974
0.000193227
0.000191532
0.00018989
0.000188299
0.000186757
0.000185262
0.00018381
0.000182384
0.000181012
0.000179573
0.000178362
0.000176517
0.000175988
0.000173249
0.000171921
1.28753e-05
7.44307e-05
0.000173977
0.000251167
0.000302738
0.000332284
0.000342976
0.00034001
0.000327254
0.000308321
0.00028912
0.000277088
0.000275199
0.000281959
0.000292201
0.000302958
0.000315723
0.000332546
0.00035383
0.000378835
0.000405949
0.000433898
0.000472891
0.000518798
0.000564191
0.000608111
0.000651046
0.000694589
0.000733574
0.000764593
0.000789389
0.000809055
0.00082465
0.000837029
0.000846972
0.000855247
0.000862552
0.000869525
0.0008767
0.000884427
0.00089281
0.000901725
0.000910932
0.000920196
0.00092934
0.000938246
0.000946838
0.000955068
0.0009629
0.000970307
0.00097726
0.000983741
0.000989737
0.000995245
0.00100026
0.00100479
0.00100883
0.00101237
0.00101542
0.00101798
0.00102005
0.00102162
0.0010227
0.00102324
0.0010234
0.00102311
0.00102232
0.00102107
0.00101938
0.00101727
0.00101473
0.00101178
0.00100845
0.00100473
0.00100065
0.000996222
0.000991456
0.000986369
0.000980977
0.000975294
0.000969335
0.000963117
0.000956654
0.000949962
0.000943056
0.00093595
0.000928659
0.000921197
0.000913577
0.000905814
0.000897918
0.000889902
0.000881773
0.000873542
0.000865215
0.000856803
0.000848318
0.000839776
0.000831194
0.000822584
0.000813958
0.000805324
0.00079669
0.000788064
0.000779453
0.000770865
0.000762305
0.000753779
0.000745293
0.000736853
0.000728465
0.000720133
0.000711863
0.000703658
0.000695521
0.000687457
0.000679469
0.000671559
0.00066373
0.000655985
0.000648325
0.000640752
0.000633268
0.000625875
0.000618575
0.000611367
0.000604253
0.000597232
0.000590305
0.000583473
0.000576735
0.000570094
0.000563546
0.000557086
0.000550714
0.000544431
0.00053824
0.000532141
0.000526134
0.000520218
0.000514393
0.000508657
0.00050301
0.000497451
0.000491977
0.000486588
0.000481283
0.000476062
0.000470921
0.000465862
0.000460882
0.00045598
0.000451156
0.000446407
0.000441734
0.000437134
0.000432608
0.000428153
0.000423768
0.000419453
0.000415205
0.000411023
0.000406906
0.000402851
0.000398857
0.000394918
0.000391033
0.000387194
0.000383397
0.000379632
0.000375888
0.00037215
0.000368392
0.000364605
0.000360692
0.000356746
0.000352281
0.000348098
0.00034166
0.000330158
2.1827e-05
0.000106504
0.000220164
0.00031246
0.000374797
0.000411448
0.000426586
0.000426798
0.000416794
0.000403602
0.000395857
0.000395298
0.000404794
0.000422116
0.000444908
0.000472688
0.000506047
0.000545264
0.000589514
0.000653142
0.000727087
0.000806918
0.00089069
0.000960886
0.001023
0.00107887
0.00112905
0.00117374
0.0012128
0.00124652
0.00127562
0.00130085
0.00132289
0.00134237
0.00135986
0.00137586
0.00139076
0.00140491
0.00141857
0.00143191
0.00144507
0.00145812
0.00147107
0.00148392
0.00149661
0.00150907
0.00152119
0.00153289
0.00154407
0.00155466
0.00156461
0.00157388
0.00158245
0.00159031
0.00159744
0.00160384
0.00160951
0.00161445
0.00161864
0.0016221
0.00162482
0.0016268
0.00162795
0.00162839
0.00162826
0.00162734
0.00162571
0.00162339
0.00162039
0.00161673
0.00161243
0.00160751
0.00160199
0.00159588
0.00158922
0.00158203
0.00157432
0.00156612
0.00155746
0.00154835
0.00153881
0.00152889
0.00151858
0.00150793
0.00149694
0.00148565
0.00147408
0.00146224
0.00145016
0.00143787
0.00142537
0.00141268
0.00139984
0.00138684
0.00137371
0.00136046
0.00134711
0.00133369
0.0013202
0.00130667
0.00129311
0.00127954
0.00126597
0.00125242
0.00123889
0.00122539
0.00121194
0.00119854
0.00118521
0.00117194
0.00115876
0.00114567
0.00113267
0.00111977
0.00110698
0.0010943
0.00108174
0.0010693
0.00105698
0.00104479
0.00103274
0.00102082
0.00100904
0.000997397
0.000985897
0.00097454
0.000963326
0.000952258
0.000941336
0.00093056
0.000919931
0.000909447
0.000899108
0.000888908
0.000878847
0.000868925
0.000859145
0.000849506
0.000840008
0.00083065
0.000821432
0.00081235
0.000803405
0.000794595
0.000785916
0.000777369
0.000768951
0.000760661
0.000752496
0.000744454
0.000736535
0.000728737
0.000721056
0.000713492
0.000706043
0.000698707
0.000691482
0.000684366
0.000677357
0.000670453
0.000663651
0.000656949
0.000650344
0.000643833
0.000637411
0.000631075
0.000624816
0.00061863
0.000612504
0.000606428
0.000600386
0.000594355
0.000588306
0.000582206
0.000575979
0.000569602
0.000562795
0.00055582
0.000547403
0.000531222
2.69611e-05
0.000121965
0.000240948
0.000357446
0.000435169
0.000482038
0.00050533
0.000513686
0.000515311
0.00051653
0.00052375
0.00054025
0.000566611
0.000601858
0.00064524
0.000696805
0.000757363
0.000841153
0.000937138
0.00103281
0.00112153
0.00120565
0.0012847
0.00135712
0.00142364
0.00148483
0.00154111
0.00159279
0.00164024
0.00168388
0.0017242
0.00176168
0.00179675
0.00182977
0.00186106
0.00189087
0.00191938
0.00194675
0.00197305
0.00199836
0.00202271
0.0020461
0.00206854
0.00209
0.00211045
0.00212988
0.00214824
0.00216551
0.00218166
0.00219668
0.00221055
0.00222327
0.00223486
0.00224533
0.00225469
0.00226297
0.00227019
0.00227635
0.00228147
0.00228557
0.00228867
0.00229071
0.00229162
0.00229171
0.00229083
0.00228895
0.00228611
0.00228234
0.00227765
0.00227206
0.00226561
0.00225832
0.00225022
0.00224134
0.0022317
0.00222135
0.0022103
0.00219859
0.00218626
0.00217333
0.00215983
0.00214579
0.00213125
0.00211624
0.00210079
0.00208492
0.00206868
0.00205208
0.00203516
0.00201794
0.00200045
0.00198273
0.00196478
0.00194665
0.00192834
0.00190988
0.0018913
0.00187262
0.00185387
0.00183506
0.00181621
0.00179736
0.0017785
0.00175967
0.00174087
0.00172212
0.00170343
0.00168483
0.00166631
0.00164789
0.00162958
0.0016114
0.00159334
0.00157543
0.00155766
0.00154005
0.0015226
0.00150531
0.0014882
0.00147126
0.00145451
0.00143794
0.00142156
0.00140537
0.00138937
0.00137357
0.00135797
0.00134256
0.00132736
0.00131235
0.00129754
0.00128294
0.00126853
0.00125431
0.00124029
0.00122645
0.00121281
0.00119937
0.00118611
0.00117304
0.00116017
0.00114748
0.00113498
0.00112265
0.00111051
0.00109855
0.00108676
0.00107515
0.0010637
0.00105243
0.00104132
0.00103037
0.00101958
0.00100895
0.000998479
0.000988158
0.000977986
0.000967962
0.000958082
0.000948344
0.000938744
0.000929279
0.000919944
0.000910736
0.00090165
0.000892679
0.000883816
0.000875052
0.000866375
0.00085777
0.000849219
0.000840696
0.000832168
0.000823591
0.000814896
0.000806022
0.000796764
0.00078716
0.000777008
0.000757262
3.08049e-05
0.00013531
0.000261401
0.000392193
0.00048819
0.000549576
0.000587179
0.00061059
0.000628473
0.00064806
0.000674541
0.000710504
0.000756655
0.000813268
0.000880894
0.000971736
0.00107707
0.00117867
0.00127773
0.00137296
0.00146342
0.00154918
0.00163019
0.00170643
0.0017782
0.00184584
0.0019097
0.00197011
0.00202741
0.00208191
0.00213394
0.00218379
0.0022317
0.00227789
0.00232251
0.00236568
0.00240749
0.00244799
0.00248722
0.00252519
0.00256188
0.00259727
0.00263135
0.00266407
0.0026954
0.00272529
0.00275371
0.00278061
0.00280596
0.00282973
0.00285188
0.00287239
0.00289126
0.00290846
0.00292399
0.00293786
0.00295005
0.00296059
0.00296948
0.00297675
0.0029824
0.00298648
0.0029889
0.0029898
0.00298933
0.00298736
0.00298402
0.00297931
0.0029733
0.00296605
0.0029576
0.002948
0.00293731
0.00292558
0.00291286
0.00289919
0.00288462
0.0028692
0.00285297
0.00283598
0.00281826
0.00279987
0.00278083
0.00276119
0.002741
0.00272029
0.0026991
0.00267747
0.00265543
0.00263303
0.0026103
0.00258727
0.00256397
0.00254044
0.0025167
0.00249279
0.00246874
0.00244456
0.0024203
0.00239598
0.00237162
0.00234725
0.00232288
0.00229855
0.00227426
0.00225005
0.00222592
0.00220189
0.00217798
0.0021542
0.00213056
0.00210709
0.00208378
0.00206065
0.00203771
0.00201497
0.00199243
0.00197011
0.00194801
0.00192613
0.00190448
0.00188308
0.00186191
0.00184098
0.0018203
0.00179987
0.0017797
0.00175977
0.00174009
0.00172067
0.0017015
0.00168259
0.00166392
0.0016455
0.00162733
0.0016094
0.00159172
0.00157428
0.00155708
0.00154012
0.0015234
0.00150692
0.00149067
0.00147465
0.00145886
0.00144329
0.00142794
0.00141281
0.0013979
0.0013832
0.0013687
0.00135441
0.00134033
0.00132644
0.00131275
0.00129924
0.00128593
0.0012728
0.00125986
0.00124709
0.00123449
0.00122207
0.00120981
0.00119771
0.00118576
0.00117396
0.0011623
0.00115077
0.00113935
0.00112804
0.0011168
0.00110561
0.00109444
0.00108324
0.00107194
0.00106047
0.00104865
0.0010365
0.00102422
0.00100178
3.23471e-05
0.000142479
0.000273864
0.0004096
0.000527342
0.000608419
0.000664437
0.000706452
0.000743674
0.000783324
0.000830415
0.00088785
0.000957356
0.00105005
0.00115729
0.00126388
0.00136991
0.00147314
0.00157303
0.00166919
0.00176138
0.00184962
0.001934
0.00201468
0.00209191
0.00216596
0.00223711
0.00230562
0.00237175
0.00243573
0.00249777
0.00255805
0.00261672
0.00267389
0.00272964
0.00278404
0.00283712
0.00288888
0.00293933
0.00298843
0.00303618
0.00308252
0.0031274
0.0031708
0.00321264
0.00325287
0.00329146
0.00332833
0.00336344
0.00339675
0.00342821
0.00345779
0.00348544
0.00351114
0.00353486
0.00355658
0.00357628
0.00359397
0.00360962
0.00362324
0.00363484
0.00364442
0.00365199
0.00365761
0.00366126
0.00366288
0.00366279
0.0036608
0.00365702
0.0036515
0.00364429
0.00363545
0.00362503
0.00361309
0.00359971
0.00358494
0.00356885
0.0035515
0.00353297
0.00351331
0.00349261
0.00347092
0.00344831
0.00342485
0.0034006
0.00337562
0.00334997
0.00332371
0.0032969
0.0032696
0.00324184
0.00321368
0.00318518
0.00315636
0.00312728
0.00309796
0.00306847
0.00303881
0.00300905
0.0029792
0.0029493
0.00291938
0.00288946
0.00285958
0.00282976
0.00280002
0.00277038
0.00274086
0.00271149
0.00268227
0.00265323
0.00262438
0.00259573
0.0025673
0.0025391
0.00251113
0.00248342
0.00245597
0.00242878
0.00240186
0.00237523
0.00234888
0.00232282
0.00229705
0.00227158
0.00224641
0.00222154
0.00219698
0.00217272
0.00214876
0.00212511
0.00210177
0.00207872
0.00205597
0.00203353
0.00201137
0.00198951
0.00196795
0.00194667
0.00192568
0.00190498
0.00188457
0.00186443
0.00184457
0.00182498
0.00180566
0.00178661
0.00176782
0.00174929
0.00173101
0.00171298
0.0016952
0.00167766
0.00166036
0.00164329
0.00162645
0.00160984
0.00159346
0.00157729
0.00156134
0.00154559
0.00153005
0.00151472
0.00149957
0.00148462
0.00146984
0.00145523
0.00144079
0.00142649
0.00141232
0.00139826
0.00138427
0.00137033
0.00135638
0.00134235
0.00132818
0.00131371
0.00129898
0.00128392
0.00125969
3.27882e-05
0.00014407
0.000275148
0.000409116
0.000538821
0.000642036
0.000719164
0.000780654
0.000836643
0.000894827
0.000963212
0.00105577
0.00116589
0.00128737
0.00140284
0.00151402
0.00162173
0.00172617
0.00182727
0.00192497
0.0020193
0.00211034
0.00219824
0.00228319
0.00236541
0.00244512
0.00252254
0.00259789
0.00267136
0.00274311
0.00281329
0.00288202
0.00294939
0.00301546
0.00308026
0.00314383
0.00320616
0.00326724
0.00332703
0.00338549
0.00344258
0.00349825
0.00355243
0.00360506
0.00365608
0.00370541
0.003753
0.00379878
0.00384269
0.00388467
0.00392467
0.00396263
0.00399851
0.00403226
0.00406385
0.00409324
0.00412042
0.00414535
0.00416802
0.00418841
0.00420654
0.00422239
0.00423597
0.0042473
0.00425638
0.00426325
0.00426797
0.00427042
0.00427085
0.00426921
0.00426554
0.00425989
0.00425232
0.00424289
0.00423166
0.00421868
0.00420403
0.00418778
0.00416998
0.00415071
0.00413004
0.00410805
0.0040848
0.00406037
0.00403483
0.00400825
0.0039807
0.00395226
0.00392299
0.00389295
0.00386222
0.00383086
0.00379893
0.00376648
0.00373358
0.00370029
0.00366664
0.00363271
0.00359853
0.00356415
0.00352963
0.00349499
0.00346029
0.00342555
0.00339082
0.00335613
0.0033215
0.00328696
0.00325255
0.00321828
0.00318418
0.00315027
0.00311657
0.0030831
0.00304987
0.00301689
0.00298419
0.00295177
0.00291964
0.00288782
0.00285631
0.00282511
0.00279425
0.00276371
0.00273352
0.00270366
0.00267414
0.00264497
0.00261615
0.00258768
0.00255955
0.00253177
0.00250434
0.00247726
0.00245051
0.00242411
0.00239805
0.00237232
0.00234693
0.00232187
0.00229715
0.00227275
0.00224867
0.00222491
0.00220147
0.00217834
0.00215552
0.002133
0.00211079
0.00208886
0.00206723
0.00204588
0.00202482
0.00200403
0.00198352
0.00196328
0.0019433
0.00192358
0.00190411
0.0018849
0.00186593
0.00184721
0.00182872
0.00181046
0.00179242
0.0017746
0.00175698
0.00173955
0.0017223
0.00170521
0.00168826
0.00167141
0.00165463
0.00163786
0.00162105
0.00160412
0.00158692
0.00156953
0.00155158
0.00152544
3.22254e-05
0.000141107
0.000268675
0.000397593
0.000521191
0.000633047
0.000726771
0.000808135
0.000891969
0.000987823
0.00109758
0.00122265
0.00135909
0.00148648
0.00160666
0.00172157
0.00183216
0.00193881
0.00204182
0.00214156
0.00223824
0.00233207
0.00242326
0.00251199
0.00259849
0.00268296
0.00276558
0.00284654
0.00292597
0.00300402
0.00308079
0.00315635
0.00323076
0.00330406
0.00337626
0.00344734
0.0035173
0.00358608
0.00365365
0.00371995
0.0037849
0.00384845
0.00391051
0.00397101
0.00402987
0.00408702
0.00414236
0.00419584
0.00424738
0.0042969
0.00434435
0.00438966
0.00443277
0.00447364
0.00451221
0.00454845
0.00458233
0.0046138
0.00464286
0.00466949
0.00469366
0.00471539
0.00473466
0.00475149
0.0047659
0.00477788
0.00478749
0.00479472
0.00479965
0.00480222
0.0048026
0.00480078
0.00479682
0.00479076
0.00478265
0.00477257
0.00476057
0.00474671
0.00473107
0.00471371
0.0046947
0.00467411
0.00465202
0.00462849
0.00460361
0.00457743
0.00455005
0.00452152
0.00449192
0.00446133
0.0044298
0.00439742
0.00436424
0.00433033
0.00429577
0.0042606
0.00422489
0.0041887
0.0041521
0.00411512
0.00407784
0.0040403
0.00400254
0.00396462
0.00392658
0.00388847
0.00385031
0.00381215
0.00377402
0.00373596
0.003698
0.00366016
0.00362248
0.00358497
0.00354766
0.00351057
0.00347372
0.00343713
0.00340082
0.0033648
0.00332907
0.00329366
0.00325858
0.00322383
0.00318943
0.00315537
0.00312167
0.00308832
0.00305535
0.00302274
0.0029905
0.00295863
0.00292713
0.00289601
0.00286525
0.00283486
0.00280485
0.0027752
0.00274592
0.002717
0.00268845
0.00266025
0.00263241
0.00260493
0.00257779
0.002551
0.00252455
0.00249844
0.00247267
0.00244722
0.0024221
0.0023973
0.00237282
0.00234864
0.00232478
0.00230122
0.00227796
0.00225499
0.00223231
0.00220992
0.00218781
0.00216597
0.0021444
0.00212309
0.00210204
0.00208123
0.00206066
0.00204031
0.00202017
0.00200021
0.00198042
0.00196076
0.00194119
0.00192166
0.0019021
0.00188245
0.00186256
0.0018425
0.00182174
0.00179341
3.08512e-05
0.000135012
0.000257909
0.000383077
0.000504933
0.000620966
0.000731702
0.00084103
0.000956325
0.00108261
0.00122104
0.00137106
0.00151323
0.00164508
0.00176922
0.00188754
0.00200115
0.00211068
0.00221652
0.00231889
0.00241817
0.00251476
0.00260895
0.002701
0.00279113
0.00287956
0.00296646
0.00305199
0.00313628
0.00321945
0.00330157
0.00338271
0.00346289
0.00354213
0.00362042
0.00369774
0.00377405
0.00384929
0.0039234
0.0039963
0.00406792
0.00413816
0.00420694
0.00427418
0.00433977
0.00440363
0.00446566
0.00452579
0.00458393
0.00464
0.00469393
0.00474563
0.00479506
0.00484216
0.00488686
0.00492912
0.0049689
0.00500617
0.0050409
0.00507307
0.00510266
0.00512967
0.00515409
0.00517592
0.00519519
0.00521189
0.00522605
0.0052377
0.00524688
0.0052536
0.00525792
0.00525985
0.00525951
0.0052569
0.00525208
0.00524511
0.00523606
0.00522498
0.00521194
0.005197
0.00518024
0.00516172
0.00514152
0.0051197
0.00509634
0.00507151
0.00504529
0.00501774
0.00498895
0.00495897
0.00492789
0.00489576
0.00486267
0.00482868
0.00479384
0.00475824
0.00472194
0.00468498
0.00464745
0.0046094
0.00457088
0.00453196
0.00449268
0.0044531
0.00441326
0.00437322
0.00433301
0.00429269
0.00425229
0.00421185
0.00417141
0.004131
0.00409065
0.0040504
0.00401028
0.0039703
0.0039305
0.00389089
0.00385151
0.00381236
0.00377348
0.00373486
0.00369654
0.00365851
0.0036208
0.00358342
0.00354637
0.00350967
0.00347332
0.00343732
0.00340169
0.00336642
0.00333153
0.003297
0.00326285
0.00322908
0.00319568
0.00316266
0.00313002
0.00309775
0.00306586
0.00303434
0.00300319
0.00297241
0.00294201
0.00291196
0.00288228
0.00285296
0.00282399
0.00279537
0.0027671
0.00273917
0.00271159
0.00268434
0.00265742
0.00263084
0.00260457
0.00257863
0.002553
0.00252768
0.00250267
0.00247796
0.00245354
0.00242941
0.00240557
0.00238199
0.00235868
0.00233561
0.00231278
0.00229016
0.00226772
0.00224544
0.00222327
0.00220116
0.00217904
0.00215684
0.00213444
0.00211186
0.00208856
0.00205789
2.93024e-05
0.000128713
0.00024809
0.00037227
0.000496887
0.000620875
0.000745783
0.000875361
0.00101301
0.00116065
0.00131843
0.00148001
0.00162762
0.00176391
0.00189189
0.00201354
0.00213012
0.00224246
0.00235109
0.00245639
0.00255867
0.00265812
0.00275519
0.00285023
0.00294352
0.00303531
0.00312578
0.00321511
0.00330342
0.00339081
0.00347736
0.00356311
0.00364809
0.00373229
0.00381568
0.00389824
0.00397991
0.00406061
0.00414027
0.00421881
0.00429612
0.0043721
0.00444666
0.0045197
0.0045911
0.00466078
0.00472862
0.00479453
0.00485842
0.0049202
0.00497978
0.00503709
0.00509207
0.00514463
0.00519472
0.0052423
0.00528731
0.00532972
0.00536949
0.00540661
0.00544104
0.00547278
0.00550184
0.00552819
0.00555187
0.00557287
0.00559122
0.00560694
0.00562006
0.00563061
0.00563864
0.00564418
0.00564729
0.00564801
0.00564641
0.00564253
0.00563644
0.00562819
0.00561785
0.00560549
0.00559117
0.00557495
0.00555692
0.00553714
0.00551568
0.00549263
0.00546804
0.00544199
0.00541455
0.0053858
0.00535581
0.00532464
0.00529236
0.00525905
0.00522477
0.00518958
0.00515355
0.00511674
0.00507923
0.00504106
0.00500231
0.00496302
0.00492325
0.00488306
0.0048425
0.00480162
0.00476046
0.00471907
0.0046775
0.00463579
0.00459398
0.0045521
0.0045102
0.0044683
0.00442644
0.00438465
0.00434296
0.0043014
0.00425999
0.00421875
0.0041777
0.00413688
0.00409629
0.00405595
0.00401587
0.00397609
0.00393659
0.00389741
0.00385854
0.00382
0.00378179
0.00374393
0.00370642
0.00366925
0.00363245
0.00359601
0.00355993
0.00352422
0.00348888
0.00345391
0.00341931
0.00338508
0.00335122
0.00331773
0.00328462
0.00325186
0.00321948
0.00318746
0.0031558
0.00312451
0.00309357
0.00306298
0.00303274
0.00300286
0.00297331
0.00294411
0.00291525
0.00288672
0.00285853
0.00283066
0.00280311
0.00277588
0.00274897
0.00272236
0.00269605
0.00267003
0.00264429
0.00261882
0.0025936
0.00256861
0.00254383
0.00251922
0.00249474
0.00247033
0.00244594
0.00242149
0.00239686
0.00237206
0.00234655
0.00231373
2.76156e-05
0.000122126
0.000238104
0.000361649
0.000489135
0.000619961
0.000756378
0.000900169
0.00105295
0.0012152
0.00138743
0.00155318
0.00170477
0.00184493
0.00197641
0.00210117
0.00222057
0.00233551
0.00244668
0.00255457
0.00265954
0.00276193
0.00286198
0.00295989
0.00305609
0.00315087
0.00324446
0.00333705
0.00342879
0.00351977
0.00361008
0.00369975
0.0037888
0.00387722
0.00396497
0.004052
0.00413826
0.00422365
0.00430809
0.00439147
0.00447369
0.00455464
0.00463421
0.00471227
0.00478873
0.00486346
0.00493635
0.00500731
0.00507623
0.005143
0.00520755
0.00526979
0.00532964
0.00538703
0.00544189
0.00549417
0.00554383
0.00559081
0.00563508
0.00567662
0.0057154
0.00575142
0.00578466
0.00581512
0.00584281
0.00586774
0.00588994
0.00590942
0.00592621
0.00594034
0.00595186
0.00596079
0.0059672
0.00597112
0.00597261
0.00597174
0.00596858
0.00596315
0.00595553
0.00594578
0.00593397
0.00592017
0.00590445
0.00588688
0.00586752
0.00584647
0.00582377
0.00579952
0.00577377
0.00574661
0.00571809
0.00568829
0.00565728
0.00562512
0.00559189
0.00555764
0.00552245
0.00548638
0.00544949
0.00541185
0.00537351
0.00533454
0.00529499
0.00525491
0.00521436
0.00517339
0.00513205
0.00509038
0.00504844
0.00500626
0.0049639
0.00492138
0.00487875
0.00483604
0.00479329
0.00475053
0.0047078