/*--------------------------------*- C++ -*----------------------------------*\
  =========                 |
  \\      /  F ield         | OpenFOAM: The Open Source CFD Toolbox
   \\    /   O peration     | Website:  https://openfoam.org
    \\  /    A nd           | Version:  8
     \\/     M anipulation  |
\*---------------------------------------------------------------------------*/
FoamFile
{
    version     2.0;
    format      ascii;
    class       volScalarField;
    location    "4100";
    object      p;
}
// * * * * * * * * * * * * * * * * * * * * * * * * * * * * * * * * * * * * * //

dimensions      [0 2 -2 0 0 0 0];

internalField   nonuniform List<scalar> 
12225
(
514.676
55.5278
2.36347
0.281356
-1.89912
-3.37466
-3.8119
-4.02231
-4.23205
-4.36895
-4.41609
-4.4257
-4.42869
-4.45664
-4.51002
-4.57646
-4.72183
-4.94435
-122.179
0.238561
-2.71875
-0.765439
-2.21681
-3.52525
-3.95298
-4.13708
-4.28076
-4.38474
-4.45966
-4.51797
-4.56891
-4.60127
-4.6222
-4.64773
-4.71434
-4.80833
-200.646
-16.1487
-2.34677
-0.358662
-1.90115
-3.24513
-3.77253
-4.02277
-4.19546
-4.31971
-4.41239
-4.47959
-4.52821
-4.55344
-4.56848
-4.58402
-4.61589
-4.59905
-110.617
-10.9744
-2.17747
-0.432369
-1.78808
-3.02915
-3.60164
-3.90882
-4.11809
-4.26388
-4.36625
-4.43692
-4.48563
-4.5142
-4.53153
-4.53934
-4.5383
-4.4696
-61.5732
-8.14619
-3.62293
-1.21037
-2.01559
-2.99871
-3.52959
-3.84936
-4.07187
-4.22654
-4.33418
-4.40882
-4.46017
-4.49128
-4.50655
-4.50392
-4.47772
-4.38756
-45.7311
-8.78563
-5.25914
-2.20071
-2.43034
-3.10149
-3.53695
-3.83392
-4.0499
-4.20372
-4.31277
-4.38949
-4.44193
-4.47284
-4.48439
-4.47363
-4.43354
-4.33899
-35.795
-9.27688
-6.38093
-3.12515
-2.92236
-3.29044
-3.60435
-3.85525
-4.05066
-4.19584
-4.30183
-4.37761
-4.42922
-4.45895
-4.46786
-4.45325
-4.40926
-4.3222
-27.7785
-8.90766
-6.97439
-3.80341
-3.36243
-3.49927
-3.70133
-3.90082
-4.07018
-4.20244
-4.3022
-4.37495
-4.42486
-4.45369
-4.46202
-4.44771
-4.40672
-4.33198
-21.6905
-8.52062
-7.13509
-4.31127
-3.72972
-3.70688
-3.81716
-3.96552
-4.10582
-4.22209
-4.31315
-4.38121
-4.42866
-4.4566
-4.4653
-4.45333
-4.41833
-4.35734
-16.6132
-8.14129
-7.08875
-4.75616
-4.08403
-3.93524
-3.96011
-4.05357
-4.15993
-4.25614
-4.33559
-4.3972
-4.44143
-4.46861
-4.47878
-4.4713
-4.44537
-4.40088
-12.6395
-7.68149
-6.90677
-5.10246
-4.40765
-4.17122
-4.12281
-4.16237
-4.23257
-4.30593
-4.37152
-4.42524
-4.46574
-4.49255
-4.50554
-4.5047
-4.49043
-4.46425
-9.69963
-7.1494
-6.62987
-5.3273
-4.67951
-4.39802
-4.29535
-4.28762
-4.3228
-4.37246
-4.42298
-4.46801
-4.50466
-4.53172
-4.54888
-4.55648
-4.55558
-4.54829
-7.66668
-6.60535
-6.30664
-5.43227
-4.88395
-4.59816
-4.46454
-4.42139
-4.42668
-4.45445
-4.49044
-4.52704
-4.56035
-4.58853
-4.61104
-4.62825
-4.64132
-4.65223
-6.37159
-6.11368
-5.98636
-5.44101
-5.0166
-4.75842
-4.61698
-4.55333
-4.53732
-4.54791
-4.57198
-4.60182
-4.63308
-4.6635
-4.69227
-4.71951
-4.74609
-4.77345
-5.62334
-5.72302
-5.70967
-5.39151
-5.08659
-4.87368
-4.74246
-4.6729
-4.6459
-4.64611
-4.66275
-4.68885
-4.72012
-4.75414
-4.78979
-4.82682
-4.86563
-4.90697
-5.24403
-5.46083
-5.50875
-5.3282
-5.11567
-4.9486
-4.83632
-4.77132
-4.74264
-4.73977
-4.75444
-4.78072
-4.81465
-4.8538
-4.89677
-4.94296
-4.99226
-5.04482
-5.10278
-5.34492
-5.41758
-5.29958
-5.13555
-4.99643
-4.89876
-4.84085
-4.81574
-4.81554
-4.83337
-4.86396
-4.90355
-4.9496
-5.00049
-5.05528
-5.11346
-5.17479
-5.14051
-5.40071
-5.47481
-5.34865
-5.17482
-5.02908
-4.9288
-4.87158
-4.84965
-4.85448
-4.87867
-4.9165
-4.96386
-5.01794
-5.07684
-5.13936
-5.20475
-5.27257
-5.39278
-5.65514
-5.69083
-5.47569
-5.22645
-5.03607
-4.91494
-4.85185
-4.83279
-4.84506
-4.8787
-4.92653
-4.98366
-5.04686
-5.11402
-5.18381
-5.25544
-5.32846
-6.00216
-6.13696
-6.04272
-5.63519
-5.24718
-4.9874
-4.84085
-4.7759
-4.76637
-4.79273
-4.84129
-4.90313
-4.97266
-5.04648
-5.12253
-5.19962
-5.27709
-5.35474
-7.24978
-6.8896
-6.49426
-5.76193
-5.18314
-4.85301
-4.69638
-4.64621
-4.66013
-4.71064
-4.78087
-4.86089
-4.94519
-5.03074
-5.11599
-5.20021
-5.28313
-5.36487
-9.64128
-7.96466
-6.98267
-5.77194
-4.9796
-4.61219
-4.48196
-4.47371
-4.52855
-4.61387
-4.71163
-4.81276
-4.91286
-5.01014
-5.10407
-5.19469
-5.28227
-5.36732
-13.9824
-9.39114
-7.40324
-5.5696
-4.59481
-4.26424
-4.21508
-4.27971
-4.39184
-4.5193
-4.6474
-4.7699
-4.88497
-4.99251
-5.09351
-5.1891
-5.28009
-5.36741
-20.89
-10.9541
-7.55426
-5.05731
-4.01592
-3.83589
-3.93001
-4.09414
-4.27223
-4.44305
-4.59959
-4.74082
-4.86791
-4.98287
-5.08844
-5.18699
-5.27981
-5.36804
-29.7366
-11.9495
-7.0336
-4.1262
-3.26412
-3.37804
-3.67111
-3.94687
-4.18917
-4.39716
-4.57571
-4.72996
-4.86452
-4.98327
-5.09056
-5.19007
-5.28301
-5.37075
-43.1066
-12.6141
-5.47289
-2.72904
-2.41334
-2.96352
-3.48434
-3.86245
-4.15368
-4.38594
-4.57764
-4.73768
-4.87418
-4.99203
-5.09838
-5.1974
-5.28928
-5.37562
-84.5995
-17.3735
-3.66419
-1.26553
-1.69611
-2.72192
-3.43627
-3.87002
-4.17353
-4.41061
-4.60654
-4.76765
-4.89947
-5.00876
-5.1094
-5.20615
-5.29534
-5.37944
-177.886
-26.8497
-3.68026
-0.770315
-1.5352
-2.84316
-3.61418
-4.01534
-4.27115
-4.46715
-4.65091
-4.81561
-4.95257
-5.05094
-5.13834
-5.22944
-5.30769
-5.38223
-154.791
-9.62739
-3.2725
-1.0684
-1.84321
-3.22098
-3.91379
-4.22511
-4.41758
-4.55905
-4.70215
-4.85389
-5.00622
-5.11997
-5.21047
-5.30306
-5.37725
-5.44309
428.057
66.6054
7.05585
1.59931
-0.915705
-2.85703
-3.65307
-3.99479
-4.31036
-4.57706
-4.70746
-4.75562
-4.80137
-4.90495
-5.02467
-5.11982
-5.22617
-5.33273
-8.52574
-8.51291
-8.50228
-8.54365
-8.63668
-8.74037
-8.82029
-8.8603
-8.86395
-8.84629
-8.81887
-8.7903
-8.76863
-8.75982
-8.76483
-8.77747
-8.78869
-8.79383
-8.79305
-8.79099
-8.79548
-8.82818
-8.9184
-9.08975
-9.34276
-9.66053
-10.0317
-10.4455
-10.8865
-11.3385
-11.7865
-12.2185
-12.6252
-13
-13.3386
-13.6386
-13.8989
-14.1197
-14.3014
-14.4453
-14.5524
-14.6243
-14.6621
-14.6675
-14.6415
-14.5856
-14.5014
-14.3912
-14.2563
-14.0944
-13.903
-13.6833
-13.4381
-13.1691
-12.8775
-12.5645
-12.231
-11.8781
-11.5068
-11.1181
-10.7132
-10.2931
-9.85903
-9.41209
-8.95348
-8.48437
-8.00598
-7.5195
-7.02612
-6.52703
-6.02339
-5.51635
-5.00701
-4.49645
-3.98573
-3.47583
-2.96773
-2.46232
-1.96048
-1.463
-0.970653
-0.484132
-0.0040858
0.468894
0.934272
1.39157
1.84036
2.28027
2.71098
3.13223
3.54382
3.94558
4.33732
4.71903
5.09095
5.45308
5.80497
6.14621
6.47681
6.79698
7.10698
7.407
7.69724
7.97787
8.24908
8.51107
8.76405
9.00824
9.24386
9.47111
9.69021
9.90142
10.105
10.3011
10.4901
10.6722
10.8476
11.0166
11.1793
11.3361
11.4871
11.6325
11.7727
11.9077
12.0379
12.1633
12.2842
12.4008
12.5132
12.6217
12.7263
12.8274
12.9253
13.02
13.1115
13.1998
13.2851
13.3676
13.4474
13.5245
13.5992
13.6716
13.7416
13.8095
13.8753
13.939
14.0009
14.0609
14.119
14.1755
14.2302
14.2833
14.3348
14.3848
14.4333
14.4803
14.5259
14.5701
14.6129
14.6543
14.6944
14.7331
14.7706
14.8067
14.8416
14.8752
14.9076
14.9388
14.969
14.9982
15.0265
15.0542
15.0817
15.1094
15.1381
15.1689
15.2043
15.2459
15.3038
15.3642
-8.58319
-8.61444
-8.68839
-8.78199
-8.88546
-8.97766
-9.0389
-9.06329
-9.04623
-8.98578
-8.89602
-8.7992
-8.71758
-8.6663
-8.64424
-8.64105
-8.65061
-8.67605
-8.71133
-8.73157
-8.75591
-8.83387
-8.99362
-9.23318
-9.54005
-9.91103
-10.3368
-10.7969
-11.2698
-11.7376
-12.1877
-12.6109
-13.0007
-13.3532
-13.6667
-13.9409
-14.1763
-14.3738
-14.5346
-14.6599
-14.7509
-14.8086
-14.834
-14.8281
-14.7916
-14.7252
-14.6294
-14.504
-14.3498
-14.1698
-13.9677
-13.7438
-13.4971
-13.2278
-12.9366
-12.6242
-12.2914
-11.9393
-11.5688
-11.1809
-10.7766
-10.3572
-9.92372
-9.47731
-9.01914
-8.5504
-8.07229
-7.58601
-7.09275
-6.5937
-6.09001
-5.58284
-5.07328
-4.56244
-4.05134
-3.541
-3.03237
-2.52637
-2.02386
-1.52565
-1.0325
-0.545119
-0.0641565
0.40979
0.876175
1.33451
1.78434
2.22529
2.657
3.07917
3.49153
3.89385
4.28591
4.66759
5.03898
5.40029
5.75172
6.0933
6.42487
6.74633
7.05772
7.35916
7.65081
7.93284
8.20542
8.46876
8.72305
8.96852
9.20539
9.43391
9.65429
9.86675
10.0715
10.2689
10.4591
10.6423
10.8188
10.9889
11.1527
11.3105
11.4625
11.609
11.7501
11.8861
12.0173
12.1438
12.2658
12.3835
12.497
12.6065
12.7123
12.8141
12.9122
13.0069
13.0985
13.187
13.2726
13.3553
13.4354
13.5128
13.5878
13.6605
13.7308
13.799
13.8651
13.9292
13.9913
14.0516
14.11
14.1667
14.2217
14.2751
14.3269
14.3771
14.4258
14.4731
14.5188
14.5632
14.6062
14.6478
14.6881
14.727
14.7646
14.8009
14.8359
14.8697
14.9022
14.9336
14.9639
14.9932
15.0216
15.0495
15.077
15.1048
15.1335
15.1642
15.1991
15.2386
15.2923
15.3421
-8.71021
-8.79203
-8.91
-9.01582
-9.09871
-9.15255
-9.17318
-9.15936
-9.10978
-9.02669
-8.91916
-8.80377
-8.70402
-8.63947
-8.61073
-8.6059
-8.62491
-8.68163
-8.78523
-8.93228
-9.12261
-9.36336
-9.65739
-9.99652
-10.3686
-10.7643
-11.1737
-11.585
-11.9876
-12.3742
-12.7401
-13.0816
-13.396
-13.6816
-13.9374
-14.1628
-14.3578
-14.5223
-14.6566
-14.761
-14.8359
-14.8816
-14.8987
-14.8875
-14.8484
-14.7819
-14.6884
-14.5679
-14.4203
-14.2466
-14.0483
-13.8263
-13.5812
-13.3136
-13.0241
-12.7135
-12.3826
-12.0323
-11.6635
-11.2773
-10.8747
-10.4567
-10.0245
-9.57928
-9.12215
-8.6543
-8.17694
-7.69126
-7.19846
-6.69972
-6.1962
-5.68906
-5.17941
-4.66833
-4.15688
-3.64607
-3.13686
-2.63017
-2.12687
-1.62778
-1.13367
-0.645247
-0.163168
0.311963
0.779598
1.23924
1.69045
2.13284
2.56606
2.98984
3.40394
3.80814
4.20231
4.58635
4.96024
5.32398
5.67761
6.02114
6.35453
6.67779
6.99099
7.29424
7.58769
7.8715
8.14585
8.41094
8.66696
8.91412
9.15266
9.3828
9.60477
9.81878
10.0251
10.2239
10.4156
10.6002
10.7781
10.9495
11.1146
11.2737
11.427
11.5747
11.717
11.8541
11.9862
12.1135
12.2363
12.3547
12.4689
12.579
12.6853
12.7879
12.887
12.9827
13.0754
13.1648
13.2513
13.3349
13.4158
13.4941
13.5698
13.6431
13.7142
13.783
13.8496
13.9143
13.9769
14.0377
14.0967
14.1538
14.2093
14.2631
14.3152
14.3659
14.4149
14.4625
14.5087
14.5534
14.5966
14.6385
14.6791
14.7183
14.7561
14.7926
14.8279
14.8618
14.8946
14.9261
14.9566
14.986
15.0146
15.0425
15.0701
15.0977
15.1262
15.1564
15.1899
15.2265
15.2738
15.3074
-8.74962
-8.84706
-8.94833
-9.03485
-9.09929
-9.13899
-9.15144
-9.13404
-9.08677
-9.01466
-8.92893
-8.84637
-8.78517
-8.75819
-8.77031
-8.82361
-8.92199
-9.0691
-9.26553
-9.5063
-9.78256
-10.0871
-10.414
-10.7568
-11.1102
-11.469
-11.8278
-12.1814
-12.5253
-12.8553
-13.1682
-13.4613
-13.7324
-13.9799
-14.2025
-14.3993
-14.5697
-14.7133
-14.8299
-14.9194
-14.9819
-15.0175
-15.0261
-15.0081
-14.9634
-14.8923
-14.7952
-14.6723
-14.524
-14.3512
-14.1543
-13.9339
-13.6904
-13.4244
-13.1366
-12.8277
-12.4984
-12.1497
-11.7825
-11.3977
-10.9963
-10.5795
-10.1484
-9.704
-9.24756
-8.78027
-8.3033
-7.81785
-7.32512
-6.82629
-6.32253
-5.815
-5.30481
-4.79306
-4.2808
-3.76904
-3.25877
-2.7509
-2.24632
-1.74584
-1.25024
-0.760241
-0.276505
0.200357
0.669791
1.1313
1.58442
2.02878
2.46403
2.88988
3.30609
3.71245
4.10885
4.49517
4.87139
5.23745
5.59334
5.93903
6.27453
6.59988
6.91515
7.22047
7.51597
7.80181
8.07817
8.34523
8.6032
8.85228
9.0927
9.32468
9.54844
9.76421
9.97224
10.1728
10.3661
10.5523
10.7318
10.9047
11.0713
11.2318
11.3864
11.5354
11.6789
11.8173
11.9506
12.0791
12.2031
12.3226
12.4378
12.549
12.6564
12.76
12.8601
12.9569
13.0505
13.1409
13.2283
13.3127
13.3944
13.4735
13.55
13.624
13.6957
13.7652
13.8325
13.8977
13.961
14.0223
14.0818
14.1394
14.1954
14.2496
14.3023
14.3533
14.4028
14.4508
14.4973
14.5423
14.586
14.6282
14.669
14.7085
14.7466
14.7834
14.8189
14.8531
14.886
14.9177
14.9483
14.9778
15.0064
15.0343
15.0617
15.089
15.1169
15.1458
15.1772
15.2097
15.2491
15.2677
-8.53776
-8.62268
-8.72277
-8.81986
-8.89721
-8.94994
-8.97702
-8.97929
-8.96122
-8.9311
-8.90101
-8.88494
-8.89568
-8.9428
-9.0325
-9.16791
-9.34912
-9.57158
-9.82683
-10.1069
-10.4061
-10.7204
-11.0454
-11.3762
-11.7082
-12.0379
-12.3618
-12.6768
-12.9802
-13.2694
-13.5427
-13.7981
-14.0343
-14.2502
-14.4446
-14.6167
-14.7658
-14.8913
-14.9929
-15.07
-15.1225
-15.1501
-15.1527
-15.1301
-15.0824
-15.0095
-14.9115
-14.7885
-14.6409
-14.4691
-14.2734
-14.0543
-13.8122
-13.5477
-13.2614
-12.9539
-12.6262
-12.2788
-11.9129
-11.5293
-11.1291
-10.7132
-10.2829
-9.83922
-9.38334
-8.91645
-8.43973
-7.95438
-7.4616
-6.96258
-6.45848
-5.95046
-5.43965
-4.92714
-4.41399
-3.90123
-3.38983
-2.88073
-2.3748
-1.87288
-1.37574
-0.884111
-0.398662
0.0799924
0.551293
1.01473
1.46986
1.91629
2.35365
2.78167
3.2001
3.60873
4.00741
4.39604
4.77456
5.1429
5.50105
5.84899
6.18672
6.51429
6.83179
7.13932
7.43702
7.72504
8.00356
8.27275
8.53282
8.78397
9.02643
9.26043
9.48617
9.70389
9.91383
10.1162
10.3113
10.4993
10.6805
10.855
11.0232
11.1853
11.3415
11.492
11.637
11.7768
11.9115
12.0414
12.1667
12.2875
12.404
12.5165
12.625
12.7297
12.8309
12.9287
13.0233
13.1146
13.2029
13.2883
13.3708
13.4507
13.528
13.6028
13.6752
13.7454
13.8134
13.8793
13.9432
14.0052
14.0652
14.1234
14.1799
14.2347
14.2878
14.3394
14.3893
14.4377
14.4847
14.5301
14.5741
14.6167
14.6579
14.6977
14.7361
14.7732
14.8089
14.8433
14.8765
14.9083
14.939
14.9686
14.9972
15.0249
15.052
15.0788
15.1057
15.133
15.1616
15.1894
15.221
15.2271
-8.11782
-8.20622
-8.32715
-8.44984
-8.55506
-8.63548
-8.69379
-8.73586
-8.76934
-8.804
-8.8508
-8.92003
-9.01974
-9.15473
-9.32722
-9.53621
-9.77702
-10.0441
-10.332
-10.6353
-10.9482
-11.2661
-11.5851
-11.9016
-12.213
-12.5169
-12.8115
-13.0952
-13.3667
-13.6244
-13.8673
-14.0942
-14.3041
-14.496
-14.6689
-14.822
-14.9546
-15.066
-15.1555
-15.2227
-15.267
-15.288
-15.2854
-15.2589
-15.2084
-15.1337
-15.0347
-14.9115
-14.7642
-14.593
-14.3983
-14.1803
-13.9395
-13.6763
-13.3914
-13.0854
-12.7591
-12.4131
-12.0485
-11.6662
-11.267
-10.8522
-10.4228
-9.97983
-9.52453
-9.0581
-8.58168
-8.09648
-7.6037
-7.10452
-6.60012
-6.09165
-5.58025
-5.06701
-4.553
-4.03926
-3.52676
-3.01643
-2.50918
-2.00582
-1.50716
-1.01391
-0.526759
-0.0463174
0.426846
0.892223
1.34936
1.79784
2.23733
2.66753
3.08817
3.49907
3.90004
4.29099
4.67181
5.04246
5.4029
5.75312
6.09313
6.42299
6.74277
7.05257
7.35254
7.64281
7.92357
8.19498
8.45725
8.71057
8.95516
9.19124
9.41903
9.63877
9.85068
10.055
10.252
10.4419
10.6249
10.8012
10.9712
11.135
11.2929
11.445
11.5916
11.7329
11.8692
12.0005
12.1272
12.2494
12.3672
12.4809
12.5907
12.6967
12.799
12.8979
12.9935
13.0859
13.1752
13.2615
13.345
13.4258
13.504
13.5796
13.6529
13.7239
13.7926
13.8593
13.9239
13.9865
14.0472
14.106
14.1631
14.2185
14.2722
14.3242
14.3747
14.4236
14.471
14.5169
14.5613
14.6043
14.6459
14.686
14.7248
14.7622
14.7982
14.8329
14.8662
14.8982
14.929
14.9586
14.9871
15.0146
15.0413
15.0673
15.093
15.1183
15.1438
15.1668
15.1911
15.1866
-7.65281
-7.75149
-7.89354
-8.04233
-8.18027
-8.2989
-8.40179
-8.49829
-8.59777
-8.70918
-8.84013
-8.99551
-9.17807
-9.38825
-9.62436
-9.88428
-10.165
-10.462
-10.7698
-11.0834
-11.3986
-11.7119
-12.0205
-12.3224
-12.616
-12.9
-13.1733
-13.4352
-13.6846
-13.9207
-14.1427
-14.3498
-14.5412
-14.7159
-14.8732
-15.0122
-15.1323
-15.2327
-15.3127
-15.3716
-15.409
-15.4243
-15.4171
-15.3869
-15.3335
-15.2567
-15.1563
-15.0322
-14.8846
-14.7134
-14.519
-14.3016
-14.0615
-13.7993
-13.5154
-13.2105
-12.8853
-12.5406
-12.1772
-11.796
-11.3981
-10.9843
-10.5559
-10.1139
-9.65948
-9.19377
-8.71798
-8.23328
-7.74089
-7.24196
-6.73768
-6.2292
-5.71765
-5.20414
-4.68972
-4.17543
-3.66225
-3.15113
-2.64295
-2.13855
-1.63872
-1.1442
-0.655666
-0.173742
0.301002
0.768049
1.22694
1.67727
2.11867
2.55084
2.97353
3.38652
3.78963
4.18275
4.56576
4.93862
5.30127
5.65371
5.99595
6.32805
6.65009
6.96215
7.26436
7.55688
7.83986
8.11349
8.37795
8.63345
8.88019
9.1184
9.34829
9.5701
9.78405
9.99039
10.1893
10.3812
10.5661
10.7443
10.9161
11.0817
11.2412
11.3951
11.5433
11.6863
11.8241
11.9569
12.0851
12.2087
12.328
12.443
12.5541
12.6614
12.765
12.8651
12.9618
13.0553
13.1456
13.233
13.3175
13.3993
13.4784
13.5549
13.6291
13.7009
13.7705
13.8379
13.9032
13.9666
14.028
14.0875
14.1453
14.2013
14.2555
14.3082
14.3592
14.4086
14.4565
14.5029
14.5478
14.5912
14.6332
14.6738
14.7129
14.7506
14.7869
14.8219
14.8554
14.8876
14.9184
14.948
14.9763
15.0035
15.0296
15.0547
15.079
15.1022
15.1244
15.1425
15.1602
15.1463
-7.29717
-7.39064
-7.54268
-7.7084
-7.87522
-8.03619
-8.19079
-8.34689
-8.51275
-8.69417
-8.8952
-9.11704
-9.35827
-9.61803
-9.89573
-10.1891
-10.4943
-10.8071
-11.1231
-11.4388
-11.7513
-12.0583
-12.3579
-12.6488
-12.93
-13.2006
-13.46
-13.7074
-13.9422
-14.164
-14.3721
-14.5657
-14.7442
-14.907
-15.0532
-15.1821
-15.2929
-15.385
-15.4577
-15.5103
-15.5421
-15.5526
-15.5413
-15.5078
-15.4517
-15.3726
-15.2705
-15.1451
-14.9965
-14.8247
-14.6298
-14.4122
-14.1722
-13.9101
-13.6265
-13.322
-12.9974
-12.6532
-12.2905
-11.91
-11.5128
-11.0999
-10.6723
-10.2311
-9.77749
-9.31257
-8.83754
-8.35357
-7.86185
-7.36354
-6.85982
-6.35183
-5.84068
-5.32748
-4.81327
-4.2991
-3.78592
-3.27469
-2.76628
-2.26155
-1.76126
-1.26617
-0.776937
-0.2942
0.181471
0.649559
1.1096
1.56118
2.00394
2.43756
2.86179
3.27639
3.68119
4.07604
4.46085
4.83554
5.20008
5.55444
5.89864
6.23273
6.55678
6.87088
7.17516
7.46976
7.75483
8.03055
8.2971
8.55468
8.8035
9.04377
9.27571
9.49955
9.71551
9.92383
10.1247
10.3185
10.5053
10.6854
10.859
11.0264
11.1877
11.3432
11.4932
11.6378
11.7772
11.9116
12.0413
12.1664
12.2871
12.4035
12.516
12.6246
12.7294
12.8308
12.9287
13.0233
13.1148
13.2032
13.2888
13.3716
13.4517
13.5292
13.6043
13.677
13.7474
13.8156
13.8818
13.9459
14.008
14.0683
14.1267
14.1833
14.2383
14.2915
14.3431
14.3931
14.4415
14.4885
14.5338
14.5777
14.6202
14.6611
14.7006
14.7387
14.7753
14.8105
14.8443
14.8766
14.9075
14.937
14.9651
14.9919
15.0173
15.0414
15.0641
15.0849
15.1038
15.1172
15.1289
15.1069
-7.10685
-7.19295
-7.34706
-7.51942
-7.70281
-7.89511
-8.0929
-8.29816
-8.51546
-8.74723
-8.99377
-9.25504
-9.53099
-9.82121
-10.1238
-10.4356
-10.7529
-11.0723
-11.3908
-11.7057
-12.0151
-12.317
-12.6104
-12.894
-13.1671
-13.4292
-13.6796
-13.9179
-14.1437
-14.3563
-14.5554
-14.7404
-14.9106
-15.0655
-15.2042
-15.3262
-15.4306
-15.5169
-15.5843
-15.632
-15.6596
-15.6663
-15.6517
-15.6152
-15.5565
-15.4753
-15.3713
-15.2443
-15.0944
-14.9215
-14.7258
-14.5074
-14.2668
-14.0043
-13.7205
-13.4158
-13.0911
-12.747
-12.3845
-12.0043
-11.6074
-11.1949
-10.7678
-10.3271
-9.87412
-9.40986
-8.93553
-8.45229
-7.96131
-7.46375
-6.96078
-6.45352
-5.94309
-5.43058
-4.91702
-4.40344
-3.8908
-3.38004
-2.87202
-2.36759
-1.86752
-1.37254
-0.883326
-0.400499
0.0753713
0.543767
1.00422
1.45632
1.89971
2.33406
2.75911
3.17464
3.58046
3.97643
4.36243
4.7384
5.10427
5.46004
5.80572
6.14135
6.46699
6.78274
7.08872
7.38504
7.67188
7.94939
8.21776
8.47717
8.72784
8.96996
9.20375
9.42944
9.64725
9.85741
10.0602
10.2557
10.4443
10.6262
10.8015
10.9706
11.1337
11.2909
11.4424
11.5886
11.7296
11.8656
11.9968
12.1233
12.2454
12.3633
12.4771
12.587
12.6932
12.7958
12.8949
12.9907
13.0833
13.1728
13.2595
13.3433
13.4244
13.5029
13.5789
13.6525
13.7238
13.7929
13.8598
13.9247
13.9876
14.0486
14.1078
14.1651
14.2207
14.2745
14.3267
14.3773
14.4263
14.4738
14.5197
14.5641
14.6069
14.6483
14.6882
14.7267
14.7636
14.7991
14.833
14.8655
14.8964
14.9258
14.9537
14.98
15.0047
15.0276
15.0486
15.067
15.0825
15.0914
15.0977
15.0687
-7.07896
-7.1658
-7.31349
-7.48227
-7.66901
-7.87357
-8.09279
-8.32469
-8.56951
-8.82785
-9.09922
-9.38278
-9.67825
-9.98452
-10.2989
-10.6183
-10.9399
-11.261
-11.5791
-11.8923
-12.1987
-12.4971
-12.7863
-13.0654
-13.3338
-13.591
-13.8364
-14.0697
-14.2904
-14.498
-14.6921
-14.8722
-15.0376
-15.1877
-15.322
-15.4397
-15.5401
-15.6225
-15.6863
-15.7307
-15.7551
-15.759
-15.7417
-15.7029
-15.642
-15.5587
-15.4529
-15.3243
-15.1729
-14.9987
-14.8017
-14.5824
-14.3409
-14.0776
-13.7932
-13.4881
-13.163
-12.8187
-12.456
-12.0759
-11.6791
-11.2669
-10.8402
-10.4
-9.94757
-9.48399
-9.01041
-8.52799
-8.03789
-7.54127
-7.03927
-6.53301
-6.0236
-5.5121
-4.99956
-4.48698
-3.97531
-3.46548
-2.95834
-2.45474
-1.95542
-1.46113
-0.972527
-0.490223
-0.0147807
0.453287
0.91352
1.36551
1.80889
2.24335
2.66862
3.08447
3.4907
3.88718
4.27379
4.65045
5.01711
5.37375
5.72039
6.05705
6.3838
6.70073
7.00795
7.30558
7.59378
7.8727
8.14252
8.40342
8.65561
8.89928
9.13465
9.36193
9.58134
9.79311
9.99747
10.1946
10.3848
10.5683
10.7453
10.916
11.0806
11.2393
11.3924
11.5401
11.6826
11.82
11.9526
12.0806
12.2041
12.3233
12.4385
12.5496
12.657
12.7608
12.8611
12.9581
13.0518
13.1424
13.2301
13.3149
13.397
13.4765
13.5535
13.628
13.7002
13.7701
13.8379
13.9036
13.9672
14.029
14.0888
14.1468
14.2031
14.2576
14.3104
14.3616
14.4112
14.4592
14.5056
14.5505
14.5938
14.6356
14.676
14.7148
14.752
14.7877
14.8219
14.8545
14.8854
14.9147
14.9423
14.9681
14.9919
15.0136
15.0329
15.0489
15.0611
15.0658
15.0671
15.032
-7.18987
-7.26823
-7.39917
-7.55506
-7.7337
-7.93479
-8.15563
-8.39363
-8.64714
-8.91485
-9.19509
-9.48673
-9.78883
-10.0995
-10.4161
-10.7362
-11.0572
-11.3769
-11.6931
-12.004
-12.3081
-12.6041
-12.891
-13.168
-13.4343
-13.6895
-13.9331
-14.1644
-14.3832
-14.5889
-14.7811
-14.9591
-15.1225
-15.2705
-15.4026
-15.5182
-15.6164
-15.6966
-15.7582
-15.8005
-15.8228
-15.8246
-15.8054
-15.7646
-15.7018
-15.6168
-15.5093
-15.3791
-15.2262
-15.0506
-14.8525
-14.632
-14.3895
-14.1255
-13.8403
-13.5347
-13.2092
-12.8647
-12.5019
-12.1218
-11.7254
-11.3135
-10.8873
-10.4478
-9.99615
-9.53348
-9.06093
-8.57965
-8.09078
-7.59547
-7.09485
-6.59002
-6.08207
-5.57208
-5.06106
-4.54999
-4.03982
-3.53146
-3.02576
-2.52353
-2.02553
-1.53248
-1.04502
-0.563781
-0.0893092
0.377887
0.837351
1.28868
1.7315
2.16551
2.59044
3.00606
3.41218
3.80865
4.19535
4.5722
4.93916
5.29619
5.64331
5.98056
6.30798
6.62567
6.93373
7.23228
7.52146
7.80143
8.07236
8.33443
8.58783
8.83275
9.06941
9.29801
9.51877
9.73192
9.93767
10.1362
10.3279
10.5128
10.6911
10.8632
11.0293
11.1894
11.3439
11.493
11.6369
11.7757
11.9096
12.0389
12.1637
12.2842
12.4006
12.513
12.6216
12.7265
12.8279
12.926
13.0208
13.1125
13.2012
13.287
13.3701
13.4505
13.5284
13.6038
13.6768
13.7476
13.8162
13.8826
13.9471
14.0095
14.0701
14.1288
14.1857
14.2409
14.2943
14.3461
14.3963
14.4448
14.4918
14.5371
14.581
14.6233
14.664
14.7032
14.7407
14.7767
14.8111
14.8438
14.8747
14.9039
14.9311
14.9564
14.9794
14.9998
15.0173
15.0309
15.04
15.0407
15.0375
14.9972
-7.36637
-7.43094
-7.54185
-7.68029
-7.84411
-8.03285
-8.24415
-8.47535
-8.72399
-8.98774
-9.26436
-9.5527
-9.85152
-10.1586
-10.4716
-10.788
-11.1055
-11.422
-11.7355
-12.0442
-12.3467
-12.6417
-12.9281
-13.2049
-13.4714
-13.727
-13.9711
-14.2031
-14.4225
-14.6287
-14.8212
-14.9995
-15.1629
-15.3108
-15.4425
-15.5575
-15.6549
-15.7343
-15.7948
-15.8359
-15.8569
-15.8573
-15.8365
-15.7942
-15.73
-15.6435
-15.5345
-15.4029
-15.2486
-15.0718
-14.8726
-14.6511
-14.4077
-14.143
-13.8573
-13.5513
-13.2257
-12.8812
-12.5186
-12.1389
-11.7431
-11.332
-10.9067
-10.4684
-10.018
-9.55682
-9.08586
-8.60628
-8.11923
-7.62583
-7.12719
-6.62441
-6.11856
-5.61068
-5.10178
-4.59284
-4.08479
-3.57852
-3.07486
-2.57462
-2.07855
-1.58734
-1.10165
-0.622079
-0.149174
0.316563
0.774682
1.22478
1.6665
2.09953
2.52359
2.93847
3.34398
3.73995
4.12628
4.50288
4.86969
5.2267
5.5739
5.91134
6.23906
6.55714
6.86569
7.16482
7.45466
7.73537
8.00711
8.27006
8.52439
8.77031
9.00801
9.2377
9.45959
9.6739
9.88084
10.0806
10.2735
10.4596
10.6393
10.8127
10.98
11.1414
11.2972
11.4476
11.5927
11.7327
11.8679
11.9984
12.1244
12.2461
12.3637
12.4772
12.587
12.693
12.7955
12.8946
12.9905
13.0832
13.1729
13.2597
13.3437
13.425
13.5038
13.5801
13.6539
13.7255
13.7949
13.8622
13.9274
13.9906
14.0518
14.1112
14.1688
14.2246
14.2786
14.331
14.3818
14.4309
14.4783
14.5242
14.5686
14.6113
14.6524
14.692
14.7299
14.7662
14.8007
14.8335
14.8645
14.8935
14.9204
14.945
14.9671
14.9863
15.0021
15.0134
15.0195
15.0166
15.0093
14.9645
-7.54028
-7.59176
-7.68433
-7.80491
-7.95154
-8.12368
-8.31926
-8.53592
-8.77119
-9.02252
-9.28788
-9.56615
-9.85594
-10.155
-10.461
-10.7714
-11.0841
-11.3969
-11.7077
-12.0149
-12.3168
-12.6121
-12.8995
-13.178
-13.4467
-13.7047
-13.9513
-14.1859
-14.4078
-14.6164
-14.8111
-14.9912
-15.1562
-15.3054
-15.4381
-15.5536
-15.6514
-15.7307
-15.7909
-15.8314
-15.8517
-15.8512
-15.8294
-15.786
-15.7206
-15.6328
-15.5227
-15.3899
-15.2347
-15.0569
-14.8568
-14.6346
-14.3908
-14.1257
-13.8399
-13.534
-13.2087
-12.8648
-12.503
-12.1243
-11.7297
-11.32
-10.8964
-10.4599
-10.0115
-9.55249
-9.08385
-8.60673
-8.12226
-7.63154
-7.13566
-6.63571
-6.13273
-5.62775
-5.12176
-4.61572
-4.11054
-3.6071
-3.10624
-2.60871
-2.11526
-1.62659
-1.14334
-0.666086
-0.195382
0.268282
0.724461
1.17275
1.61281
2.04432
2.467
2.88064
3.28505
3.68007
4.06558
4.44149
4.80776
5.16435
5.51126
5.84853
6.1762
6.49435
6.80307
7.10248
7.3927
7.67387
7.94616
8.20974
8.46478
8.71146
8.95
9.18057
9.4034
9.61869
9.82666
10.0275
10.2214
10.4087
10.5895
10.764
10.9325
11.0951
11.2521
11.4036
11.5499
11.6911
11.8275
11.9591
12.0863
12.2091
12.3278
12.4424
12.5533
12.6604
12.7639
12.8641
12.9609
13.0546
13.1452
13.233
13.3179
13.4001
13.4798
13.5569
13.6316
13.704
13.7742
13.8422
13.9081
13.972
14.034
14.0941
14.1523
14.2087
14.2634
14.3164
14.3677
14.4174
14.4654
14.5118
14.5566
14.5998
14.6414
14.6813
14.7196
14.7561
14.7909
14.8238
14.8547
14.8836
14.9102
14.9343
14.9555
14.9734
14.9875
14.9966
14.9999
14.9937
14.9827
14.9342
-7.66708
-7.70925
-7.78644
-7.89039
-8.01962
-8.17368
-8.35083
-8.54911
-8.7665
-9.00082
-9.25066
-9.51531
-9.79333
-10.0824
-10.3802
-10.6841
-10.992
-11.3014
-11.6105
-11.9173
-12.22
-12.5171
-12.8071
-13.089
-13.3614
-13.6235
-13.8743
-14.1131
-14.339
-14.5513
-14.7494
-14.9326
-15.1002
-15.2515
-15.3859
-15.5028
-15.6014
-15.6813
-15.7417
-15.7821
-15.802
-15.8009
-15.7784
-15.7342
-15.6679
-15.5793
-15.4682
-15.3347
-15.1788
-15.0005
-14.8
-14.5777
-14.334
-14.0692
-13.7839
-13.4789
-13.1546
-12.812
-12.4518
-12.075
-11.6824
-11.2751
-10.8541
-10.4203
-9.97495
-9.51905
-9.05372
-8.58005
-8.09913
-7.61206
-7.11991
-6.62374
-6.12457
-5.62341
-5.12124
-4.61898
-4.11753
-3.61777
-3.1205
-2.62648
-2.13644
-1.65105
-1.17094
-0.696701
-0.228864
0.232086
0.685708
1.13161
1.56943
1.99887
2.41966
2.83156
3.2344
3.62801
4.01227
4.38709
4.75242
5.10822
5.45449
5.79125
6.11856
6.43648
6.74509
7.0445
7.33484
7.61624
7.88885
8.15284
8.40837
8.65564
8.89482
9.12612
9.34972
9.56585
9.77469
9.97646
10.1714
10.3596
10.5414
10.717
10.8865
11.0502
11.2083
11.3609
11.5083
11.6506
11.7881
11.9208
12.0491
12.173
12.2927
12.4085
12.5203
12.6284
12.733
12.8341
12.932
13.0266
13.1182
13.2069
13.2927
13.3758
13.4563
13.5342
13.6098
13.683
13.7539
13.8227
13.8893
13.954
14.0166
14.0774
14.1363
14.1934
14.2487
14.3023
14.3542
14.4044
14.453
14.4999
14.5452
14.5889
14.6309
14.6712
14.7098
14.7467
14.7816
14.8147
14.8456
14.8743
14.9006
14.9241
14.9445
14.9613
14.9737
14.9808
14.9815
14.9723
14.958
14.9063
-7.72253
-7.76078
-7.82637
-7.91536
-8.02758
-8.16297
-8.32051
-8.49886
-8.69647
-8.91179
-9.14432
-9.39396
-9.65937
-9.93817
-10.2278
-10.5257
-10.8295
-11.1367
-11.4453
-11.7529
-12.0578
-12.3582
-12.6523
-12.9388
-13.2164
-13.4837
-13.7399
-13.9838
-14.2146
-14.4316
-14.6338
-14.8206
-14.9913
-15.1453
-15.2818
-15.4002
-15.5001
-15.5807
-15.6415
-15.682
-15.7018
-15.7005
-15.6776
-15.6328
-15.566
-15.477
-15.3656
-15.2319
-15.0759
-14.8977
-14.6976
-14.476
-14.2331
-13.9695
-13.6857
-13.3824
-13.0603
-12.7201
-12.3626
-11.9887
-11.5994
-11.1956
-10.7783
-10.3485
-9.90727
-9.45569
-8.99482
-8.52574
-8.04952
-7.56723
-7.07991
-6.58859
-6.0943
-5.59799
-5.10063
-4.60313
-4.10637
-3.61118
-3.11837
-2.62872
-2.1429
-1.66157
-1.18536
-0.714856
-0.250573
0.207006
0.657446
1.10035
1.53537
1.96221
2.38058
2.79026
3.19106
3.58282
3.96541
4.33875
4.70277
5.05743
5.40273
5.73868
6.06533
6.38274
6.69098
6.99015
7.28038
7.56179
7.83452
8.09873
8.35459
8.60226
8.84194
9.0738
9.29805
9.51487
9.72448
9.92706
10.1228
10.312
10.4947
10.6712
10.8417
11.0064
11.1655
11.3192
11.4676
11.611
11.7495
11.8833
12.0126
12.1376
12.2584
12.3751
12.488
12.5971
12.7027
12.8048
12.9036
12.9991
13.0916
13.1812
13.2679
13.3519
13.4332
13.512
13.5884
13.6623
13.7341
13.8036
13.871
13.9363
13.9997
14.0611
14.1207
14.1784
14.2343
14.2885
14.341
14.3918
14.441
14.4884
14.5343
14.5784
14.6209
14.6616
14.7006
14.7378
14.773
14.8062
14.8372
14.8658
14.8917
14.9148
14.9344
14.95
14.961
14.9661
14.9645
14.9525
14.9352
14.8809
-7.70813
-7.74282
-7.79964
-7.87478
-7.96979
-8.08549
-8.22188
-8.37861
-8.5549
-8.75004
-8.96447
-9.1987
-9.45152
-9.72045
-10.0028
-10.2958
-10.597
-10.9036
-11.2132
-11.5235
-11.8321
-12.1371
-12.4366
-12.7289
-13.0124
-13.2858
-13.5479
-13.7974
-14.0335
-14.2552
-14.4617
-14.6522
-14.8261
-14.9826
-15.1211
-15.2412
-15.3421
-15.4235
-15.4849
-15.5257
-15.5456
-15.5443
-15.5213
-15.4766
-15.4098
-15.321
-15.2099
-15.0768
-14.9215
-14.7444
-14.5457
-14.3257
-14.0849
-13.8236
-13.5426
-13.2423
-12.9236
-12.5871
-12.2336
-11.8641
-11.4794
-11.0804
-10.6682
-10.2437
-9.80803
-9.36211
-8.90703
-8.44385
-7.9736
-7.49733
-7.01605
-6.53078
-6.04249
-5.55215
-5.06068
-4.56897
-4.07788
-3.58824
-3.10082
-2.61638
-2.13562
-1.65918
-1.18765
-0.721608
-0.261567
0.191988
0.638622
1.07794
1.5096
1.9333
2.34875
2.75573
3.15405
3.54354
3.92408
4.29557
4.65793
5.01113
5.35515
5.69001
6.01573
6.33238
6.64001
6.93873
7.22864
7.50987
7.78254
8.04681
8.30284
8.55078
8.79082
9.02313
9.2479
9.46533
9.67559
9.87889
10.0754
10.2654
10.449
10.6264
10.7978
10.9635
11.1236
11.2782
11.4277
11.572
11.7116
11.8464
11.9767
12.1027
12.2245
12.3423
12.4561
12.5662
12.6728
12.7758
12.8755
12.9721
13.0655
13.1559
13.2435
13.3283
13.4105
13.4901
13.5673
13.6421
13.7146
13.7848
13.853
13.919
13.9831
14.0452
14.1054
14.1638
14.2204
14.2752
14.3283
14.3797
14.4294
14.4775
14.5238
14.5685
14.6114
14.6526
14.692
14.7295
14.765
14.7983
14.8294
14.8579
14.8837
14.9062
14.9251
14.9398
14.9493
14.9527
14.9489
14.9346
14.9146
14.8581
-7.64442
-7.67012
-7.71623
-7.77485
-7.8496
-7.94248
-8.0547
-8.18716
-8.34008
-8.51374
-8.70953
-8.92849
-9.16942
-9.42964
-9.70618
-9.99605
-10.2963
-10.604
-10.9163
-11.2305
-11.5441
-11.8548
-12.1604
-12.459
-12.7488
-13.0284
-13.2963
-13.5513
-13.7923
-14.0185
-14.2288
-14.4227
-14.5993
-14.7581
-14.8985
-15.02
-15.122
-15.2043
-15.2663
-15.3077
-15.3281
-15.3272