/*--------------------------------*- C++ -*----------------------------------*\
| =========                 |                                                 |
| \\      /  F ield         | OpenFOAM: The Open Source CFD Toolbox           |
|  \\    /   O peration     | Version:  v2012                                 |
|   \\  /    A nd           | Website:  www.openfoam.com                      |
|    \\/     M anipulation  |                                                 |
\*---------------------------------------------------------------------------*/
FoamFile
{
    version     2.0;
    format      ascii;
    class       volScalarField;
    location    "4100";
    object      p;
}
// * * * * * * * * * * * * * * * * * * * * * * * * * * * * * * * * * * * * * //

dimensions      [0 2 -2 0 0 0 0];


internalField   nonuniform List<scalar> 
12225
(
514.683
55.5347
2.37072
0.289137
-1.89074
-3.36629
-3.80714
-4.00958
-4.21733
-4.36691
-4.40943
-4.41011
-4.41092
-4.44054
-4.49442
-4.56842
-4.72418
-4.93911
-122.172
0.245429
-2.71156
-0.757711
-2.2085
-3.51682
-3.94323
-4.12896
-4.26692
-4.35811
-4.42965
-4.49048
-4.54655
-4.58613
-4.617
-4.64956
-4.72576
-4.84934
-200.639
-16.142
-2.33966
-0.351019
-1.89295
-3.23656
-3.76181
-4.01589
-4.18743
-4.30365
-4.39727
-4.46703
-4.51775
-4.54644
-4.56736
-4.58691
-4.62566
-4.62286
-110.61
-10.9677
-2.17048
-0.424854
-1.78002
-3.02056
-3.5914
-3.9028
-4.11562
-4.26038
-4.36405
-4.43454
-4.48229
-4.51141
-4.53134
-4.54162
-4.54402
-4.47882
-61.5668
-8.13962
-3.61604
-1.203
-2.0077
-2.99024
-3.52023
-3.84408
-4.07135
-4.2273
-4.3358
-4.40968
-4.45972
-4.49067
-4.50726
-4.50617
-4.48126
-4.39142
-45.7249
-8.77918
-5.25239
-2.19354
-2.42269
-3.09335
-3.52862
-3.82915
-4.04928
-4.20476
-4.31478
-4.39123
-4.44287
-4.47358
-4.4858
-4.47578
-4.43581
-4.3405
-35.7888
-9.27054
-6.37433
-3.11819
-2.915
-3.28275
-3.59692
-3.85078
-4.04953
-4.19642
-4.30353
-4.37947
-4.43067
-4.46022
-4.46938
-4.45492
-4.41044
-4.32206
-27.7724
-8.9015
-6.96802
-3.79677
-3.3555
-3.49218
-3.69471
-3.89661
-4.0686
-4.20245
-4.30336
-4.37646
-4.42623
-4.45495
-4.46335
-4.44891
-4.40721
-4.33114
-21.6846
-8.51463
-7.12897
-4.30498
-3.72326
-3.70043
-3.81131
-3.96155
-4.10385
-4.22149
-4.31363
-4.38219
-4.42973
-4.45767
-4.46636
-4.45414
-4.41844
-4.35618
-16.6074
-8.1355
-7.08289
-4.75023
-4.07805
-3.92942
-3.95492
-4.04979
-4.15764
-4.25498
-4.33539
-4.39757
-4.44202
-4.46925
-4.47937
-4.4716
-4.44499
-4.39947
-12.6339
-7.67588
-6.90116
-5.09687
-4.40211
-4.16592
-4.11811
-4.15873
-4.23003
-4.30432
-4.37071
-4.42499
-4.46575
-4.49264
-4.50555
-4.50439
-4.48957
-4.46254
-9.69417
-7.14398
-6.6245
-5.322
-4.67434
-4.39313
-4.29098
-4.28405
-4.32005
-4.37045
-4.42163
-4.46713
-4.50405
-4.53118
-4.54825
-4.55558
-4.55421
-4.54629
-7.66141
-6.60011
-6.30147
-5.42722
-4.87907
-4.59357
-4.46039
-4.41782
-4.42372
-4.45208
-4.48857
-4.52557
-4.5591
-4.58737
-4.60979
-4.62678
-4.63949
-4.64991
-6.36646
-6.1086
-5.98137
-5.43615
-5.01192
-4.75402
-4.61294
-4.54972
-4.53417
-4.54519
-4.56965
-4.59979
-4.63124
-4.66173
-4.69044
-4.71749
-4.74382
-4.77079
-5.61832
-5.71805
-5.70479
-5.38678
-5.08205
-4.86938
-4.73845
-4.66922
-4.64255
-4.64307
-4.65999
-4.68631
-4.71772
-4.75179
-4.78739
-4.82429
-4.86288
-4.90395
-5.2391
-5.45595
-5.50397
-5.32355
-5.1112
-4.94434
-4.83229
-4.76754
-4.73909
-4.73644
-4.75129
-4.77771
-4.81172
-4.85089
-4.89382
-4.9399
-4.98902
-5.04138
-5.09791
-5.34008
-5.41285
-5.29497
-5.1311
-4.99215
-4.89468
-4.83694
-4.81199
-4.81193
-4.82987
-4.86053
-4.90015
-4.94618
-4.99702
-5.05171
-5.10974
-5.17091
-5.13556
-5.39584
-5.47002
-5.34403
-5.17033
-5.02479
-4.92465
-4.86761
-4.84577
-4.85072
-4.87494
-4.91279
-4.96012
-5.01416
-5.07297
-5.13539
-5.20062
-5.26831
-5.38768
-5.65011
-5.68594
-5.47094
-5.22193
-5.03174
-4.91084
-4.84791
-4.829
-4.84133
-4.875
-4.92278
-4.97984
-5.04291
-5.10994
-5.17956
-5.25103
-5.32388
-5.99679
-6.13172
-6.03761
-5.6303
-5.24256
-4.9831
-4.83687
-4.77218
-4.76285
-4.78932
-4.83788
-4.89962
-4.96896
-5.04255
-5.11835
-5.19519
-5.27243
-5.34987
-7.24416
-6.8841
-6.48891
-5.75684
-5.17842
-4.84875
-4.69255
-4.64281
-4.65702
-4.70776
-4.778
-4.85785
-4.94183
-5.02696
-5.1118
-5.19562
-5.2782
-5.35965
-9.63542
-7.95893
-6.97708
-5.76663
-4.97476
-4.60794
-4.47835
-4.47059
-4.52598
-4.61166
-4.70953
-4.81041
-4.90999
-5.00664
-5.0999
-5.18992
-5.27699
-5.36165
-13.9764
-9.38521
-7.39742
-5.56408
-4.58983
-4.26001
-4.21154
-4.27689
-4.38967
-4.51785
-4.64619
-4.76845
-4.88271
-4.98932
-5.08938
-5.18407
-5.27438
-5.36121
-20.8839
-10.948
-7.54825
-5.05158
-4.01079
-3.83155
-3.92654
-4.09135
-4.2705
-4.44224
-4.5992
-4.74008
-4.86625
-4.98003
-5.08433
-5.18161
-5.27359
-5.36133
-29.7304
-11.9433
-7.02743
-4.1203
-3.2588
-3.37358
-3.66746
-3.94409
-4.18729
-4.39664
-4.57573
-4.72986
-4.86312
-4.9806
-5.0864
-5.1842
-5.27627
-5.36367
-43.1004
-12.6078
-5.4666
-2.72299
-2.40783
-2.9588
-3.48053
-3.85902
-4.15084
-4.38521
-4.57766
-4.73753
-4.87214
-4.98897
-5.09382
-5.19078
-5.28224
-5.36874
-84.5933
-17.3673
-3.65784
-1.25936
-1.69042
-2.71696
-3.43208
-3.86566
-4.16852
-4.40486
-4.60161
-4.76381
-4.89455
-5.0047
-5.10336
-5.19766
-5.28901
-5.37427
-177.88
-26.8434
-3.67387
-0.764084
-1.52938
-2.83796
-3.60981
-4.00968
-4.26109
-4.45607
-4.64107
-4.80923
-4.94274
-5.0468
-5.1302
-5.21266
-5.30142
-5.38362
-154.784
-9.62114
-3.26613
-1.06217
-1.83735
-3.21565
-3.90906
-4.21842
-4.40667
-4.54527
-4.68846
-4.84502
-4.99267
-5.11678
-5.20537
-5.27876
-5.36026
-5.44144
428.063
66.6116
7.06217
1.60551
-0.909866
-2.85166
-3.6472
-3.98836
-4.30488
-4.57394
-4.69839
-4.73476
-4.78564
-4.88051
-5.01293
-5.13853
-5.23109
-5.31737
-8.50635
-8.49355
-8.48348
-8.52539
-8.6183
-8.72126
-8.80017
-8.83908
-8.84181
-8.82362
-8.79601
-8.76747
-8.74601
-8.73745
-8.74252
-8.75485
-8.76557
-8.77033
-8.77192
-8.77708
-8.78845
-8.82116
-8.91136
-9.08512
-9.33993
-9.65909
-10.0313
-10.4457
-10.8867
-11.3383
-11.7855
-12.2164
-12.6218
-12.9953
-13.3326
-13.6313
-13.8904
-14.11
-14.2907
-14.4336
-14.54
-14.6111
-14.6483
-14.653
-14.6265
-14.5701
-14.4855
-14.375
-14.2398
-14.0776
-13.8858
-13.6659
-13.4205
-13.1512
-12.8594
-12.5462
-12.2126
-11.8595
-11.4881
-11.0993
-10.6943
-10.2742
-9.83999
-9.39299
-8.93432
-8.46517
-7.98674
-7.50023
-7.00684
-6.50774
-6.00411
-5.49708
-4.98776
-4.47725
-3.96657
-3.45673
-2.94869
-2.44337
-1.94161
-1.44423
-0.951988
-0.46558
0.0143454
0.487198
0.952442
1.4096
1.85824
2.29799
2.72854
3.14963
3.56107
3.96265
4.35422
4.73576
5.1075
5.46946
5.82116
6.16221
6.49261
6.81259
7.12239
7.42223
7.71228
7.99273
8.26376
8.52556
8.77836
9.02237
9.25781
9.48489
9.70382
9.91486
10.1183
10.3142
10.5031
10.685
10.8602
11.029
11.1916
11.3482
11.4991
11.6444
11.7844
11.9193
12.0494
12.1747
12.2954
12.4119
12.5242
12.6325
12.737
12.838
12.9359
13.0305
13.1218
13.21
13.2952
13.3776
13.4573
13.5344
13.609
13.6812
13.7512
13.819
13.8847
13.9483
14.0101
14.07
14.128
14.1844
14.2391
14.2921
14.3435
14.3934
14.4418
14.4888
14.5343
14.5784
14.6211
14.6624
14.7024
14.7411
14.7785
14.8146
14.8494
14.8829
14.9153
14.9465
14.9766
15.0057
15.0341
15.0618
15.0892
15.1169
15.1456
15.1764
15.2119
15.2536
15.3116
15.3721
-8.56423
-8.59558
-8.66974
-8.76319
-8.86609
-8.95753
-9.0179
-9.04139
-9.02335
-8.96196
-8.87172
-8.77508
-8.69422
-8.6439
-8.62243
-8.61951
-8.62951
-8.65629
-8.69565
-8.71725
-8.73913
-8.81874
-8.98409
-9.22757
-9.53711
-9.91018
-10.3371
-10.7975
-11.27
-11.7369
-12.1859
-12.6077
-12.9961
-13.3473
-13.6595
-13.9325
-14.1668
-14.3633
-14.5232
-14.6476
-14.7378
-14.7949
-14.8197
-14.8132
-14.7763
-14.7095
-14.6132
-14.4875
-14.333
-14.1527
-13.9504
-13.7263
-13.4794
-13.2099
-12.9185
-12.6059
-12.273
-11.9208
-11.5501
-11.1621
-10.7578
-10.3383
-9.9047
-9.45822
-9
-8.53121
-8.05306
-7.56675
-7.07348
-6.57442
-6.07074
-5.56358
-5.05406
-4.54325
-4.0322
-3.52191
-3.01335
-2.50742
-2.005
-1.50688
-1.01383
-0.526565
-0.0457218
0.428097
0.894347
1.35254
1.80223
2.24302
2.67457
3.09657
3.50877
3.91092
4.30279
4.68429
5.0555
5.41664
5.76789
6.10929
6.44068
6.76195
7.07315
7.3744
7.66587
7.94771
8.22011
8.48326
8.73737
8.98266
9.21936
9.4477
9.66791
9.8802
10.0848
10.282
10.472
10.6551
10.8315
11.0013
11.165
11.3227
11.4745
11.6209
11.7619
11.8978
12.0288
12.1552
12.2771
12.3946
12.508
12.6174
12.723
12.8248
12.9227
13.0173
13.1088
13.1972
13.2827
13.3653
13.4453
13.5227
13.5976
13.6701
13.7404
13.8085
13.8745
13.9385
14.0005
14.0607
14.119
14.1756
14.2306
14.2838
14.3355
14.3857
14.4343
14.4815
14.5272
14.5715
14.6144
14.6559
14.6961
14.735
14.7725
14.8088
14.8437
14.8774
14.9099
14.9413
14.9715
15.0008
15.0292
15.057
15.0846
15.1123
15.1411
15.1718
15.2067
15.2463
15.3001
15.35
-8.69157
-8.77318
-8.89093
-8.99631
-9.07854
-9.13165
-9.15153
-9.13693
-9.08652
-9.0027
-8.89473
-8.77947
-8.68056
-8.61725
-8.58945
-8.58541
-8.60582
-8.66553
-8.77388
-8.92406
-9.11457
-9.35607
-9.65182
-9.99228
-10.3654
-10.7617
-11.1712
-11.5822
-11.9841
-12.3699
-12.7349
-13.0754
-13.3888
-13.6735
-13.9283
-14.1529
-14.347
-14.5107
-14.6443
-14.7481
-14.8224
-14.8676
-14.8841
-14.8724
-14.833
-14.7661
-14.6723
-14.5514
-14.4035
-14.2295
-14.031
-13.8088
-13.5635
-13.2957
-13.0061
-12.6953
-12.3642
-12.0138
-11.6449
-11.2586
-10.8558
-10.4378
-10.0055
-9.56021
-9.10302
-8.63513
-8.15773
-7.67203
-7.17921
-6.68046
-6.17695
-5.66982
-5.16019
-4.64915
-4.13775
-3.62699
-3.11784
-2.61123
-2.10802
-1.60902
-1.11501
-0.626698
-0.144738
0.330266
0.797767
1.25727
1.70833
2.15057
2.58364
3.00725
3.42118
3.82521
4.21921
4.60307
4.97678
5.34035
5.69379
6.03714
6.37035
6.69342
7.00643
7.3095
7.60276
7.88639
8.16055
8.42545
8.68129
8.92828
9.16664
9.39661
9.6184
9.83225
10.0384
10.2371
10.4285
10.613
10.7907
10.962
11.1269
11.2859
11.439
11.5866
11.7287
11.8657
11.9977
12.1249
12.2475
12.3658
12.4799
12.5899
12.6961
12.7986
12.8975
12.9932
13.0857
13.1751
13.2614
13.345
13.4257
13.5039
13.5795
13.6528
13.7237
13.7924
13.859
13.9236
13.9861
14.0468
14.1057
14.1627
14.2181
14.2718
14.3239
14.3744
14.4234
14.4709
14.517
14.5616
14.6048
14.6467
14.6871
14.7262
14.764
14.8005
14.8357
14.8696
14.9023
14.9338
14.9642
14.9936
15.0221
15.05
15.0776
15.1053
15.1338
15.1639
15.1975
15.2341
15.2816
15.3152
-8.72945
-8.82649
-8.9275
-9.01377
-9.07784
-9.11708
-9.12902
-9.11107
-9.0633
-8.99089
-8.90524
-8.8233
-8.76323
-8.73767
-8.75127
-8.80614
-8.9063
-9.05561
-9.25471
-9.49787
-9.77563
-10.081
-10.4084
-10.7516
-11.1051
-11.4639
-11.8225
-12.1758
-12.5192
-12.8486
-13.1609
-13.4532
-13.7236
-13.9703
-14.1922
-14.3883
-14.558
-14.701
-14.817
-14.906
-14.968
-15.003
-15.0113
-14.9928
-14.9477
-14.8763
-14.7789
-14.6557
-14.5072
-14.3341
-14.137
-13.9163
-13.6726
-13.4065
-13.1185
-12.8095
-12.4801
-12.1312
-11.7639
-11.379
-10.9775
-10.5606
-10.1294
-9.68494
-9.22845
-8.76111
-8.2841
-7.79863
-7.30588
-6.80704
-6.30329
-5.79577
-5.2856
-4.77389
-4.26167
-3.74997
-3.23976
-2.73197
-2.22746
-1.72708
-1.23158
-0.74169
-0.258072
0.218664
0.687965
1.14933
1.60231
2.04652
2.48161
2.9073
3.32334
3.72954
4.12576
4.51191
4.88795
5.25383
5.60953
5.95504
6.29036
6.61552
6.93061
7.23574
7.53106
7.81671
8.09289
8.35977
8.61755
8.86646
9.1067
9.3385
9.56209
9.77769
9.98555
10.1859
10.379
10.5651
10.7444
10.9172
11.0836
11.244
11.3984
11.5473
11.6907
11.8289
11.9621
12.0905
12.2143
12.3337
12.4488
12.5599
12.6671
12.7706
12.8707
12.9674
13.0608
13.1511
13.2384
13.3228
13.4044
13.4833
13.5597
13.6336
13.7053
13.7746
13.8418
13.907
13.9701
14.0314
14.0908
14.1483
14.2042
14.2584
14.3109
14.3619
14.4113
14.4592
14.5056
14.5506
14.5941
14.6363
14.6771
14.7165
14.7545
14.7912
14.8267
14.8608
14.8937
14.9253
14.9559
14.9854
15.0139
15.0418
15.0692
15.0966
15.1244
15.1534
15.1848
15.2173
15.2567
15.2754
-8.51585
-8.60067
-8.70077
-8.7978
-8.87496
-8.92741
-8.95421
-8.95625
-8.93813
-8.90826
-8.87882
-8.86381
-8.87595
-8.92471
-9.01618
-9.15339
-9.33631
-9.5603
-9.81685
-10.0979
-10.398
-10.7129
-11.0384
-11.3693
-11.7014
-12.031
-12.3546
-12.6692
-12.9721
-13.2609
-13.5336
-13.7885
-14.0241
-14.2394
-14.4332
-14.6047
-14.7533
-14.8783
-14.9794
-15.0561
-15.1082
-15.1354
-15.1375
-15.1146
-15.0665
-14.9933
-14.895
-14.7718
-14.624
-14.4519
-14.256
-14.0367
-13.7944
-13.5298
-13.2433
-12.9357
-12.6078
-12.2603
-11.8943
-11.5106
-11.1103
-10.6943
-10.2639
-9.82018
-9.36424
-8.8973
-8.42055
-7.93517
-7.44238
-6.94334
-6.43924
-5.93124
-5.42045
-4.90797
-4.39487
-3.88216
-3.37083
-2.8618
-2.35595
-1.85412
-1.35708
-0.865558
-0.380226
0.0983045
0.569473
1.03278
1.48776
1.93403
2.37125
2.79911
3.21736
3.62583
4.02434
4.4128
4.79113
5.1593
5.51727
5.86502
6.20256
6.52995
6.84726
7.15461
7.45212
7.73996
8.01829
8.2873
8.54719
8.79816
9.04045
9.27427
9.49984
9.71739
9.92715
10.1294
10.3243
10.5121
10.6931
10.8676
11.0356
11.1976
11.3536
11.5039
11.6488
11.7885
11.9231
12.0528
12.178
12.2986
12.415
12.5273
12.6357
12.7404
12.8415
12.9392
13.0336
13.1249
13.213
13.2983
13.3807
13.4605
13.5377
13.6124
13.6848
13.7549
13.8228
13.8886
13.9524
14.0142
14.0742
14.1323
14.1887
14.2434
14.2965
14.3479
14.3978
14.4461
14.493
14.5383
14.5823
14.6248
14.6659
14.7056
14.744
14.781
14.8167
14.8511
14.8841
14.916
14.9466
14.9762
15.0047
15.0324
15.0595
15.0863
15.1132
15.1406
15.1692
15.1971
15.2287
15.2348
-8.09518
-8.18369
-8.30478
-8.42757
-8.53277
-8.61313
-8.67147
-8.71373
-8.74764
-8.78304
-8.8309
-8.90146
-9.00268
-9.13926
-9.31332
-9.52374
-9.76582
-10.034
-10.3228
-10.6266
-10.9399
-11.258
-11.5771
-11.8935
-12.2047
-12.5083
-12.8027
-13.0861
-13.3571
-13.6144
-13.8569
-14.0833
-14.2928
-14.4842
-14.6566
-14.8093
-14.9415
-15.0524
-15.1416
-15.2083
-15.2522
-15.2729
-15.27
-15.2432
-15.1924
-15.1174
-15.0181
-14.8947
-14.7472
-14.5758
-14.3808
-14.1627
-13.9217
-13.6584
-13.3733
-13.0672
-12.7407
-12.3946
-12.0299
-11.6474
-11.2482
-10.8333
-10.4038
-9.96079
-9.50545
-9.03896
-8.56251
-8.07728
-7.58448
-7.08529
-6.58089
-6.07243
-5.56105
-5.04785
-4.53388
-4.02019
-3.50775
-2.9975
-2.49032
-1.98706
-1.48849
-0.995355
-0.508317
-0.0279988
0.445034
0.910274
1.36726
1.8156
2.25494
2.68497
3.10545
3.51618
3.91699
4.30775
4.6884
5.05887
5.41913
5.76916
6.10899
6.43866
6.75826
7.06788
7.36766
7.65775
7.93832
8.20956
8.47164
8.72479
8.9692
9.2051
9.43272
9.65229
9.86403
10.0682
10.265
10.4547
10.6376
10.8138
10.9836
11.1473
11.305
11.4569
11.6034
11.7446
11.8807
12.0119
12.1385
12.2605
12.3782
12.4918
12.6015
12.7073
12.8096
12.9084
13.0039
13.0961
13.1853
13.2715
13.3549
13.4356
13.5137
13.5892
13.6624
13.7333
13.802
13.8685
13.933
13.9955
14.0561
14.1149
14.1719
14.2272
14.2808
14.3327
14.3831
14.432
14.4793
14.5251
14.5695
14.6124
14.6539
14.694
14.7327
14.77
14.806
14.8406
14.8739
14.9059
14.9366
14.9662
14.9946
15.0221
15.0488
15.0748
15.1005
15.1259
15.1514
15.1744
15.1987
15.1942
-7.63102
-7.7298
-7.87204
-8.021
-8.15909
-8.27792
-8.38116
-8.47822
-8.57852
-8.69098
-8.82315
-8.97982
-9.16368
-9.37511
-9.61236
-9.87329
-10.1549
-10.4525
-10.7607
-11.0746
-11.3899
-11.7031
-12.0116
-12.3133
-12.6066
-12.8903
-13.1634
-13.4248
-13.6739
-13.9096
-14.1313
-14.338
-14.529
-14.7033
-14.8602
-14.9989
-15.1186
-15.2186
-15.2982
-15.3569
-15.3939
-15.4089
-15.4014
-15.3709
-15.3173
-15.2402
-15.1396
-15.0153
-14.8675
-14.6961
-14.5015
-14.2839
-14.0437
-13.7813
-13.4973
-13.1923
-12.867
-12.5221
-12.1586
-11.7773
-11.3792
-10.9654
-10.537
-10.0949
-9.64039
-9.17464
-8.6988
-8.21408
-7.72166
-7.22273
-6.71845
-6.20998
-5.69846
-5.18497
-4.6706
-4.15636
-3.64324
-3.13219
-2.62408
-2.11978
-1.62005
-1.12563
-0.637215
-0.155413
0.3192
0.786111
1.24486
1.69504
2.13629
2.5683
2.99083
3.40365
3.80659
4.19953
4.58237
4.95504
5.31751
5.66977
6.01183
6.34375
6.66559
6.97747
7.2795
7.57184
7.85464
8.12808
8.39237
8.64768
8.89425
9.13228
9.362
9.58364
9.79743
10.0036
10.2024
10.394
10.5788
10.7569
10.9285
11.0939
11.2534
11.407
11.5552
11.698
11.8356
11.9684
12.0964
12.2199
12.339
12.454
12.5649
12.672
12.7755
12.8755
12.9721
13.0655
13.1557
13.243
13.3274
13.4091
13.4881
13.5645
13.6386
13.7103
13.7798
13.8471
13.9124
13.9756
14.0369
14.0964
14.154
14.2099
14.2641
14.3167
14.3676
14.417
14.4648
14.5111
14.5559
14.5993
14.6412
14.6817
14.7208
14.7584
14.7947
14.8295
14.863
14.8952
14.926
14.9555
14.9838
15.011
15.0371
15.0622
15.0865
15.1097
15.1319
15.15
15.1678
15.154
-7.2776
-7.37094
-7.52316
-7.68911
-7.85622
-8.0176
-8.1728
-8.3297
-8.49647
-8.6789
-8.88099
-9.10385
-9.34602
-9.60664
-9.88512
-10.1791
-10.4848
-10.7978
-11.114
-11.4297
-11.7421
-12.0489
-12.3483
-12.639
-12.9199
-13.1902
-13.4492
-13.6962
-13.9308
-14.1522
-14.3599
-14.5532
-14.7314
-14.8938
-15.0396
-15.1682
-15.2787
-15.3705
-15.4429
-15.4952
-15.5267
-15.537
-15.5254
-15.4917
-15.4353
-15.356
-15.2536
-15.1281
-14.9793
-14.8073
-14.6123
-14.3945
-14.1543
-13.8921
-13.6083
-13.3037
-12.9789
-12.6347
-12.2718
-11.8913
-11.494
-11.081
-10.6533
-10.2121
-9.75839
-9.29342
-8.81835
-8.33436
-7.84262
-7.3443
-6.84058
-6.3326
-5.82147
-5.3083
-4.79414
-4.28001
-3.7669
-3.25574
-2.74741
-2.24276
-1.74258
-1.24759
-0.758471
-0.275857
0.199684
0.667636
1.12753
1.57896
2.02157
2.45504
2.8791
3.29354
3.69816
4.09284
4.47748
4.85199
5.21634
5.57052
5.91454
6.24844
6.57231
6.88623
7.19033
7.48474
7.76963
8.04517
8.31154
8.56894
8.81759
9.05768
9.28945
9.51312
9.72891
9.93707
10.1378
10.3314
10.518
10.698
10.8714
11.0387
11.1998
11.3552
11.505
11.6495
11.7887
11.9231
12.0526
12.1776
12.2981
12.4145
12.5268
12.6352
12.74
12.8412
12.939
13.0335
13.1249
13.2132
13.2987
13.3813
13.4613
13.5388
13.6137
13.6863
13.7567
13.8248
13.8909
13.9549
14.0169
14.0771
14.1354
14.192
14.2468
14.3
14.3515
14.4014
14.4498
14.4966
14.5419
14.5858
14.6281
14.669
14.7085
14.7465
14.783
14.8182
14.8519
14.8842
14.915
14.9445
14.9726
14.9994
15.0248
15.0489
15.0716
15.0924
15.1113
15.1247
15.1364
15.1145
-7.08976
-7.1759
-7.33024
-7.50283
-7.68653
-7.87926
-8.07765
-8.28368
-8.50181
-8.73438
-8.98169
-9.2437
-9.52032
-9.81112
-10.1142
-10.4262
-10.7437
-11.0632
-11.3816
-11.6965
-12.0056
-12.3073
-12.6003
-12.8836
-13.1565
-13.4182
-13.6682
-13.9062
-14.1316
-14.344
-14.5427
-14.7274
-14.8973
-15.0518
-15.1902
-15.3119
-15.4161
-15.5021
-15.5692
-15.6167
-15.644
-15.6505
-15.6356
-15.5989
-15.54
-15.4586
-15.3544
-15.2272
-15.0771
-14.904
-14.7081
-14.4896
-14.2489
-13.9862
-13.7023
-13.3975
-13.0727
-12.7285
-12.3658
-11.9855
-11.5885
-11.1759
-10.7488
-10.3081
-9.855
-9.3907
-8.91633
-8.43306
-7.94206
-7.44449
-6.94152
-6.43427
-5.92387
-5.41138
-4.89787
-4.38434
-3.87176
-3.36107
-2.85313
-2.34879
-1.84882
-1.35395
-0.864844
-0.382138
0.0936023
0.561862
1.02217
1.47413
1.91736
2.35155
2.77644
3.1918
3.59745
3.99325
4.37908
4.75486
5.12056
5.47615
5.82165
6.15709
6.48255
6.79812
7.10391
7.40005
7.68671
7.96404
8.23223
8.49146
8.74195
8.9839
9.21752
9.44304
9.66069
9.87068
10.0733
10.2687
10.4571
10.6388
10.814
10.9829
11.1458
11.3029
11.4543
11.6004
11.7412
11.8771
12.0081
12.1345
12.2565
12.3743
12.488
12.5977
12.7038
12.8062
12.9052
13.0009
13.0934
13.1828
13.2693
13.353
13.434
13.5124
13.5883
13.6618
13.733
13.802
13.8689
13.9337
13.9965
14.0574
14.1165
14.1737
14.2292
14.283
14.3351
14.3856
14.4346
14.4819
14.5278
14.5721
14.6149
14.6562
14.6961
14.7344
14.7713
14.8067
14.8406
14.873
14.9039
14.9333
14.9612
14.9875
15.0121
15.0351
15.0561
15.0745
15.09
15.0989
15.1052
15.0762
-7.06454
-7.15159
-7.2994
-7.46836
-7.65537
-7.86029
-8.07994
-8.31236
-8.55778
-8.81673
-9.08866
-9.37272
-9.66864
-9.97524
-10.2898
-10.6093
-10.9309
-11.2519
-11.5699
-11.8829
-12.189
-12.4871
-12.7759
-13.0547
-13.3228
-13.5796
-13.8247
-14.0576
-14.278
-14.4853
-14.679
-14.8588
-15.0239
-15.1738
-15.3077
-15.4251
-15.5253
-15.6074
-15.671
-15.7151
-15.7393
-15.743
-15.7255
-15.6864
-15.6253
-15.5419
-15.4359
-15.3071
-15.1555
-14.9811
-14.7841
-14.5646
-14.3229
-14.0595
-13.7749
-13.4697
-13.1445
-12.8001
-12.4373
-12.0571
-11.6603
-11.2479
-10.8211
-10.3809
-9.92843
-9.4648
-8.99118
-8.50873
-8.01862
-7.52199
-7.01999
-6.51374
-6.00435
-5.49289
-4.98039
-4.46786
-3.95625
-3.44649
-2.93944
-2.43592
-1.9367
-1.44252
-0.954027
-0.471845
0.0034674
0.471399
0.931489
1.38333
1.82656
2.26086
2.68597
3.10165
3.50772
3.90402
4.29046
4.66694
5.03342
5.38988
5.73633
6.07281
6.39938
6.71613
7.02316
7.32061
7.60863
7.88737
8.15702
8.41774
8.66976
8.91325
9.14845
9.37556
9.59481
9.80642
10.0106
10.2076
10.3977
10.581
10.7578
10.9283
11.0928
11.2514
11.4044
11.5519
11.6942
11.8315
11.964
12.0918
12.2152
12.3343
12.4493
12.5604
12.6676
12.7713
12.8715
12.9683
13.0619
13.1524
13.24
13.3247
13.4067
13.486
13.5629
13.6373
13.7094
13.7792
13.8469
13.9125
13.9761
14.0377
14.0975
14.1554
14.2116
14.266
14.3187
14.3699
14.4194
14.4673
14.5136
14.5584
14.6017
14.6435
14.6838
14.7225
14.7597
14.7954
14.8295
14.862
14.8929
14.9222
14.9498
14.9755
14.9994
15.0211
15.0403
15.0564
15.0686
15.0733
15.0746
15.0395
-7.17795
-7.25633
-7.38727
-7.54327
-7.7221
-7.92346
-8.14461
-8.38297
-8.63689
-8.905
-9.18558
-9.47753
-9.77988
-10.0907
-10.4074
-10.7274
-11.0484
-11.3678
-11.6838
-11.9945
-12.2982
-12.5939
-12.8805
-13.1571
-13.4231
-13.6779
-13.9211
-14.1521
-14.3706
-14.576
-14.7678
-14.9455
-15.1086
-15.2563
-15.3882
-15.5034
-15.6014
-15.6814
-15.7427
-15.7848
-15.8069
-15.8085
-15.789
-15.748
-15.6851
-15.5999
-15.4922
-15.3618
-15.2088
-15.033
-14.8348
-14.6141
-14.3715
-14.1073
-13.822
-13.5163
-13.1907
-12.846
-12.4832
-12.103
-11.7064
-11.2945
-10.8682
-10.4287
-9.97697
-9.51427
-9.04168
-8.56037
-8.07149
-7.57617
-7.07554
-6.57073
-6.06281
-5.55284
-5.04186
-4.53085
-4.02074
-3.51245
-3.00683
-2.50469
-2.00679
-1.51385
-1.02651
-0.545387
-0.0710453
0.396014
0.855335
1.30651
1.74918
2.18304
2.60781
3.02326
3.42921
3.8255
4.21203
4.58871
4.95548
5.31234
5.65928
5.99634
6.32359
6.6411
6.94897
7.24734
7.53635
7.81614
8.08689
8.34878
8.602
8.84676
9.08324
9.31168
9.53228
9.74526
9.95084
10.1493
10.3407
10.5255
10.7037
10.8756
11.0415
11.2015
11.3559
11.5049
11.6486
11.7872
11.921
12.0502
12.1748
12.2952
12.4114
12.5237
12.6322
12.737
12.8383
12.9362
13.0309
13.1225
13.211
13.2968
13.3797
13.46
13.5378
13.6131
13.686
13.7567
13.8251
13.8915
13.9559
14.0182
14.0787
14.1373
14.1942
14.2492
14.3026
14.3543
14.4044
14.4529
14.4998
14.5451
14.5889
14.6311
14.6717
14.7109
14.7484
14.7843
14.8186
14.8513
14.8822
14.9113
14.9386
14.9638
14.9868
15.0072
15.0247
15.0384
15.0475
15.0482
15.045
15.0047
-7.35595
-7.42049
-7.53139
-7.66989
-7.83385
-8.02277
-8.2343
-8.46575
-8.71464
-8.97863
-9.25547
-9.54398
-9.84291
-10.15
-10.463
-10.7793
-11.0966
-11.4129
-11.7262
-12.0346
-12.3368
-12.6314
-12.9174
-13.1939
-13.4601
-13.7153
-13.959
-14.1906
-14.4097
-14.6156
-14.8078
-14.9857
-15.1488
-15.2964
-15.4279
-15.5426
-15.6398
-15.7189
-15.7792
-15.8201
-15.8409
-15.841
-15.8201
-15.7776
-15.7132
-15.6265
-15.5173
-15.3856
-15.2312
-15.0542
-14.8548
-14.6331
-14.3897
-14.1248
-13.839
-13.5328
-13.2071
-12.8625
-12.4998
-12.1201
-11.7241
-11.313
-10.8876
-10.4492
-9.99884
-9.53757
-9.06658
-8.58698
-8.09991
-7.6065
-7.10787
-6.6051
-6.09927
-5.59142
-5.08257
-4.57368
-4.06569
-3.55949
-3.05592
-2.55577
-2.05979
-1.56869
-1.08312
-0.603672
-0.130897
0.334703
0.792679
1.24263
1.68419
2.11706
2.54097
2.95568
3.36102
3.75682
4.14298
4.5194
4.88604
5.24286
5.58989
5.92715
6.25469
6.57259
6.88096
7.17991
7.46957
7.75011
8.02167
8.28444
8.5386
8.78435
9.02188
9.2514
9.47313
9.68727
9.89405
10.0937
10.2864
10.4724
10.6519
10.8251
10.9923
11.1536
11.3092
11.4594
11.6044
11.7443
11.8793
12.0097
12.1356
12.2572
12.3746
12.488
12.5976
12.7035
12.8059
12.9049
13.0006
13.0932
13.1827
13.2694
13.3533
13.4345
13.5132
13.5893
13.6631
13.7346
13.8039
13.871
13.9361
13.9992
14.0604
14.1197
14.1772
14.2329
14.2869
14.3392
14.3899
14.4389
14.4863
14.5322
14.5764
14.6191
14.6602
14.6997
14.7375
14.7737
14.8082
14.841
14.8719
14.9009
14.9278
14.9524
14.9745
14.9937
15.0095
15.0208
15.0269
15.024
15.0168
14.972
-7.5305
-7.58196
-7.67454
-7.79518
-7.94192
-8.11419
-8.30994
-8.52677
-8.76219
-9.01366
-9.27914
-9.55752
-9.84736
-10.1464
-10.4523
-10.7627
-11.0752
-11.3877
-11.6983
-12.0052
-12.3068
-12.6017
-12.8888
-13.1669
-13.4352
-13.6928
-13.9391
-14.1733
-14.3949
-14.6032
-14.7976
-14.9774
-15.1421
-15.291
-15.4234
-15.5387
-15.6362
-15.7153
-15.7753
-15.8156
-15.8356
-15.8349
-15.813
-15.7693
-15.7037
-15.6158
-15.5055
-15.3726
-15.2171
-15.0392
-14.8389
-14.6167
-14.3727
-14.1075
-13.8216
-13.5155
-13.1901
-12.8461
-12.4842
-12.1054
-11.7107
-11.301
-10.8773
-10.4407
-9.9923
-9.53321
-9.06454
-8.5874
-8.10291
-7.61218
-7.11631
-6.61637
-6.11342
-5.60847
-5.10253
-4.59654
-4.09143
-3.58807
-3.08728
-2.58984
-2.0965
-1.60794
-1.1248
-0.647669
-0.177095
0.286432
0.742467
1.19061
1.63051
2.06186
2.48439
2.89787
3.3021
3.69695
4.08229
4.45803
4.82412
5.18053
5.52727
5.86436
6.19185
6.50982
6.81837
7.11759
7.40764
7.68864
7.96075
8.22416
8.47902
8.72554
8.96391
9.19432
9.41699
9.63211
9.83991
10.0406
10.2344
10.4215
10.6021
10.7765
10.9448
11.1073
11.2641
11.4155
11.5616
11.7027
11.8389
11.9705
12.0975
12.2202
12.3387
12.4532
12.5639
12.6709
12.7743
12.8743
12.971
13.0646
13.1551
13.2427
13.3275
13.4096
13.4891
13.5661
13.6407
13.713
13.7831
13.851
13.9168
13.9806
14.0425
14.1025
14.1607
14.217
14.2717
14.3246
14.3758
14.4254
14.4734
14.5197
14.5645
14.6076
14.6491
14.689
14.7272
14.7636
14.7984
14.8312
14.8621
14.891
14.9175
14.9416
14.9628
14.9808
14.9949
15.004
15.0074
15.0011
14.9902
14.9417
-7.65733
-7.69952
-7.77672
-7.8807
-8.01002
-8.16419
-8.34146
-8.53986
-8.75737
-8.99178
-9.24171
-9.50644
-9.78451
-10.0736
-10.3713
-10.6751
-10.9828
-11.2921
-11.601
-11.9075
-12.2099
-12.5066
-12.7964
-13.0779
-13.35
-13.6117
-13.8622
-14.1006
-14.3262
-14.5382
-14.736
-14.9188
-15.0861
-15.2372
-15.3713
-15.4879
-15.5863
-15.6658
-15.726
-15.7662
-15.7859
-15.7846
-15.7619
-15.7175
-15.651
-15.5622
-15.451
-15.3173
-15.1612
-14.9828
-14.7822
-14.5597
-14.3158
-14.0509
-13.7655
-13.4603
-13.136
-12.7933
-12.433
-12.0561
-11.6634
-11.256
-10.8349
-10.4011
-9.95568
-9.49975
-9.03438
-8.56069
-8.07976
-7.59269
-7.10054
-6.60439
-6.10524
-5.60412
-5.10199
-4.59979
-4.09841
-3.59872
-3.10153
-2.60761
-2.11767
-1.63238
-1.15239
-0.678279
-0.210572
0.25024
0.70372
1.14947
1.58714
2.01642
2.43705
2.84879
3.25146
3.6449
4.02899
4.40364
4.76879
5.12442
5.47051
5.8071
6.13423
6.45197
6.7604
7.05964
7.3498
7.63103
7.90347
8.16729
8.42266
8.66975
8.90877
9.1399
9.36335
9.57931
9.78799
9.9896
10.1844
10.3724
10.5541
10.7295
10.8989
11.0624
11.2204
11.3728
11.5201
11.6623
11.7996
11.9322
12.0603
12.1841
12.3037
12.4192
12.531
12.6389
12.7434
12.8444
12.9421
13.0366
13.128
13.2166
13.3023
13.3852
13.4656
13.5434
13.6188
13.6919
13.7628
13.8314
13.898
13.9625
14.0251
14.0858
14.1446
14.2016
14.2568
14.3104
14.3622
14.4124
14.4609
14.5078
14.553
14.5966
14.6385
14.6788
14.7174
14.7541
14.7891
14.8221
14.853
14.8817
14.9079
14.9314
14.9518
14.9686
14.9811
14.9881
14.9889
14.9797
14.9654
14.9137
-7.71248
-7.75065
-7.81619
-7.90521
-8.0175
-8.153
-8.31065
-8.48911
-8.68683
-8.90225
-9.1349
-9.38465
-9.65014
-9.92897
-10.2186
-10.5164
-10.8201
-11.1272
-11.4355
-11.743
-12.0476
-12.3477
-12.6415
-12.9277
-13.2049
-13.472
-13.7278
-13.9714
-14.2019
-14.4185
-14.6204
-14.8069
-14.9773
-15.1309
-15.2672
-15.3854
-15.4849
-15.5653
-15.6258
-15.6661
-15.6857
-15.6841
-15.661
-15.6161
-15.5491
-15.4598
-15.3483
-15.2144
-15.0582
-14.8799
-14.6797
-14.4579
-14.2149
-13.9512
-13.6673
-13.3639
-13.0416
-12.7013
-12.3437
-11.9698
-11.5804
-11.1765
-10.7591
-10.3292
-9.88797
-9.43635
-8.97546
-8.50636
-8.03013
-7.54783
-7.06052
-6.56923
-6.07496
-5.57869
-5.08138
-4.58394
-4.08724
-3.59212
-3.09941
-2.60984
-2.12412
-1.64291
-1.16682
-0.696435
-0.232282
0.22516
0.675457
1.11822
1.55308
1.97976
2.39797
2.80749
3.20812
3.59972
3.98214
4.35531
4.71915
5.07364
5.41877
5.75455
6.08102
6.39825
6.70632
7.00532
7.29537
7.57661
7.84917
8.11321
8.3689
8.61641
8.85593
9.08763
9.31172
9.52838
9.73783
9.94025
10.1359
10.3249
10.5074
10.6838
10.8542
11.0187
11.1777
11.3312
11.4795
11.6227
11.7611
11.8947
12.0239
12.1487
12.2693
12.3859
12.4986
12.6076
12.713
12.815
12.9136
13.0091
13.1015
13.1909
13.2775
13.3613
13.4425
13.5212
13.5974
13.6712
13.7428
13.8123
13.8796
13.9448
14.0081
14.0694
14.1289
14.1866
14.2425
14.2966
14.349
14.3998
14.4489
14.4963
14.542
14.5861
14.6285
14.6692
14.7081
14.7452
14.7804
14.8135
14.8445
14.8731
14.899
14.922
14.9417
14.9573
14.9683
14.9734
14.9719
14.9599
14.9426
14.8883
-7.69782
-7.73189
-7.78857
-7.86378
-7.95889
-8.07469
-8.2112
-8.36806
-8.54447
-8.73975
-8.95435
-9.18874
-9.4417
-9.71073
-9.99312
-10.2862
-10.5873
-10.8938
-11.2033
-11.5134
-11.8218
-12.1266
-12.4258
-12.7178
-13.001
-13.2741
-13.5358
-13.7851
-14.0209
-14.2422
-14.4484
-14.6386
-14.8121
-14.9683
-15.1066
-15.2263
-15.3271
-15.4082
-15.4693
-15.5099
-15.5295
-15.528
-15.5048
-15.4598
-15.3929
-15.3038
-15.1926
-15.0593
-14.9039
-14.7266
-14.5277
-14.3076
-14.0666
-13.8052
-13.5241
-13.2237
-12.9048
-12.5682
-12.2147
-11.8451
-11.4603
-11.0613
-10.649
-10.2245
-9.7887
-9.34275
-8.88765
-8.42445
-7.95419
-7.47792
-6.99666
-6.51141
-6.02315
-5.53285
-5.04143
-4.54978
-4.05876
-3.56919
-3.08186
-2.59751
-2.11686
-1.64053
-1.16912
-0.703193
-0.243282
0.210136
0.656627
1.0958
1.52731
1.95085
2.36614
2.77296
3.17112
3.56045
3.94082
4.31213
4.67432
5.02735
5.3712
5.70589
6.03144
6.34791
6.65537
6.95392
7.24366
7.52472
7.79722
8.06133
8.31719
8.56497
8.80485
9.037
9.26161
9.47888
9.68899
9.89214
10.0885
10.2783
10.4618
10.6391
10.8104
10.9759
11.1358
11.2903
11.4396
11.5838
11.7232
11.8579
11.988
12.1139
12.2355
12.3531
12.4668
12.5768
12.6831
12.7861
12.8856
12.982
13.0753
13.1656
13.253
13.3377
13.4198
13.4992
13.5763
13.6509
13.7233
13.7935
13.8615
13.9275
13.9914
14.0535
14.1136
14.172
14.2285
14.2832
14.3363
14.3876
14.4373
14.4852
14.5315
14.5761
14.619
14.6601
14.6994
14.7368
14.7723
14.8056
14.8366
14.8652
14.8909
14.9134
14.9324
14.947
14.9566
14.96
14.9563
14.942
14.9219
14.8655
-7.63315
-7.65825
-7.70437
-7.76301
-7.83777
-7.9307
-8.04303
-8.17561
-8.32869
-8.50253
-8.69855
-8.91774
-9.1589
-9.41931
-9.69599
-9.98595
-10.2862
-10.5939
-10.9062
-11.2203
-11.5337
-11.8442
-12.1496
-12.448