/*--------------------------------*- C++ -*----------------------------------*\
  =========                 |
  \\      /  F ield         | OpenFOAM: The Open Source CFD Toolbox
   \\    /   O peration     | Website:  https://openfoam.org
    \\  /    A nd           | Version:  8
     \\/     M anipulation  |
\*---------------------------------------------------------------------------*/
FoamFile
{
    version     2.0;
    format      ascii;
    class       surfaceScalarField;
    location    "4100";
    object      phi;
}
// * * * * * * * * * * * * * * * * * * * * * * * * * * * * * * * * * * * * * //

dimensions      [0 3 -1 0 0 0 0];

internalField   nonuniform List<scalar> 
24170
(
3.92539e-06
-7.91498e-07
3.76465e-06
1.6075e-07
3.63345e-06
1.31209e-07
3.43331e-06
2.00144e-07
3.28028e-06
1.53027e-07
3.18901e-06
9.11905e-08
3.13091e-06
5.81104e-08
3.08609e-06
4.58912e-08
3.04612e-06
4.23234e-08
3.01059e-06
3.81625e-08
2.97876e-06
3.38022e-08
2.94904e-06
3.07701e-08
2.92187e-06
2.73777e-08
2.89642e-06
2.52001e-08
2.87227e-06
2.36054e-08
2.85193e-06
1.94841e-08
2.84097e-06
9.85712e-09
-6.37553e-09
2.84668e-06
3.58445e-06
-9.19499e-07
3.80424e-06
-5.90413e-08
3.74282e-06
1.92629e-07
3.6906e-06
2.52374e-07
3.63729e-06
2.06333e-07
3.59023e-06
1.3828e-07
3.55289e-06
9.55995e-08
3.52309e-06
7.56596e-08
3.49853e-06
6.65695e-08
3.47732e-06
5.9215e-08
3.45871e-06
5.25292e-08
3.44253e-06
4.72646e-08
3.42795e-06
4.2338e-08
3.41466e-06
3.87867e-08
3.40269e-06
3.57307e-08
3.39122e-06
3.1053e-08
3.38036e-06
2.08427e-08
4.78244e-09
3.36943e-06
3.68518e-06
-7.92482e-07
3.83639e-06
-2.10251e-07
3.91494e-06
1.14082e-07
3.94502e-06
2.22293e-07
3.94408e-06
2.07264e-07
3.92749e-06
1.54897e-07
3.90755e-06
1.15615e-07
3.88932e-06
9.36444e-08
3.874e-06
8.11965e-08
3.86056e-06
7.19158e-08
3.84834e-06
6.42561e-08
3.83728e-06
5.81355e-08
3.82691e-06
5.27794e-08
3.8174e-06
4.84756e-08
3.80891e-06
4.44343e-08
3.80097e-06
3.92545e-08
3.79195e-06
3.02087e-08
1.7799e-08
3.77944e-06
4.05359e-06
-6.4151e-07
4.1146e-06
-2.71259e-07
4.20799e-06
2.06915e-08
4.26635e-06
1.63932e-07
4.2907e-06
1.82926e-07
4.29287e-06
1.52749e-07
4.28571e-06
1.22819e-07
4.27631e-06
1.02843e-07
4.26727e-06
8.96862e-08
4.25873e-06
7.98177e-08
4.25056e-06
7.19499e-08
4.24283e-06
6.56351e-08
4.23534e-06
6.02468e-08
4.22823e-06
5.56939e-08
4.22149e-06
5.13534e-08
4.21464e-06
4.63467e-08
4.20598e-06
3.91855e-08
3.06617e-08
4.19351e-06
4.50491e-06
-5.09114e-07
4.51536e-06
-2.81708e-07
4.58529e-06
-4.92343e-08
4.64665e-06
1.02566e-07
4.68258e-06
1.46992e-07
4.69688e-06
1.38473e-07
4.69946e-06
1.20237e-07
4.69723e-06
1.04926e-07
4.69331e-06
9.32551e-08
4.68868e-06
8.40575e-08
4.68366e-06
7.66422e-08
4.67851e-06
7.06085e-08
4.67321e-06
6.54951e-08
4.66783e-06
6.11067e-08
4.66227e-06
5.70061e-08
4.65606e-06
5.27047e-08
4.64786e-06
4.75928e-08
4.26072e-08
4.63612e-06
5.00014e-06
-3.94663e-07
4.98614e-06
-2.67704e-07
5.03069e-06
-9.37791e-08
5.08506e-06
4.81978e-08
5.12454e-06
1.07516e-07
5.14608e-06
1.1694e-07
5.15584e-06
1.10489e-07
5.1594e-06
1.01285e-07
5.15985e-06
9.2608e-08
5.15859e-06
8.50839e-08
5.15629e-06
7.87434e-08
5.15333e-06
7.34432e-08
5.14984e-06
6.89345e-08
5.14589e-06
6.50647e-08
5.14136e-06
6.15881e-08
5.13584e-06
5.83111e-08
5.12839e-06
5.51504e-08
5.30535e-08
5.11808e-06
5.54382e-06
-2.97475e-07
5.51664e-06
-2.40529e-07
5.54055e-06
-1.17686e-07
5.58388e-06
4.87024e-09
5.62166e-06
6.97343e-08
5.64656e-06
9.20461e-08
5.66107e-06
9.59683e-08
5.66906e-06
9.32471e-08
5.67315e-06
8.84245e-08
5.67481e-06
8.33014e-08
5.6749e-06
7.85522e-08
5.6739e-06
7.43761e-08
5.67204e-06
7.07665e-08
5.6694e-06
6.76969e-08
5.66591e-06
6.5101e-08
5.66127e-06
6.29897e-08
5.65494e-06
6.1549e-08
6.15342e-08
5.6465e-06
4.34788e-06
-2.39242e-07
4.32251e-06
-2.15162e-07
4.33078e-06
-1.25951e-07
4.35419e-06
-1.85364e-08
4.3784e-06
4.55258e-08
4.39646e-06
7.39848e-08
4.40841e-06
8.40227e-08
4.41597e-06
8.56736e-08
4.42059e-06
8.37678e-08
4.42325e-06
8.05979e-08
4.42456e-06
7.71969e-08
4.4249e-06
7.40033e-08
4.42446e-06
7.11808e-08
4.42334e-06
6.88112e-08
4.42151e-06
6.69381e-08
4.41884e-06
6.56724e-08
4.41514e-06
6.52705e-08
6.63509e-08
4.41035e-06
5.08621e-06
-1.85599e-07
5.05777e-06
-1.86718e-07
5.0584e-06
-1.26578e-07
5.07686e-06
-3.70025e-08
5.09918e-06
2.32139e-08
5.11773e-06
5.54361e-08
5.13124e-06
7.05069e-08
5.14059e-06
7.63167e-08
5.14686e-06
7.74756e-08
5.15094e-06
7.64973e-08
5.15344e-06
7.46765e-08
5.15477e-06
7.26667e-08
5.15514e-06
7.07974e-08
5.15468e-06
6.9265e-08
5.15341e-06
6.82111e-08
5.15128e-06
6.78146e-08
5.14821e-06
6.83519e-08
7.02736e-08
5.14429e-06
5.94839e-06
-1.38193e-07
5.91832e-06
-1.56649e-07
5.91161e-06
-1.19866e-07
5.924e-06
-4.93969e-08
5.94286e-06
4.35849e-09
5.96058e-06
3.77166e-08
5.97479e-06
5.6291e-08
5.98546e-06
6.56463e-08
5.9932e-06
6.97357e-08
5.99867e-06
7.10173e-08
6.00242e-06
7.09155e-08
6.00484e-06
7.02399e-08
6.00618e-06
6.94583e-08
6.00657e-06
6.88677e-08
6.0061e-06
6.86884e-08
6.00478e-06
6.91363e-08
6.00267e-06
7.04625e-08
7.29765e-08
5.99997e-06
6.95439e-06
-9.8313e-08
6.92402e-06
-1.26278e-07
6.91113e-06
-1.06984e-07
6.9168e-06
-5.50659e-08
6.93087e-06
-9.71063e-09
6.94635e-06
2.22392e-08
6.96015e-06
4.24926e-08
6.9714e-06
5.4396e-08
6.98017e-06
6.09613e-08
6.98684e-06
6.43475e-08
6.9918e-06
6.59551e-08
6.99537e-06
6.66646e-08
6.9978e-06
6.70305e-08
6.99924e-06
6.74241e-08
6.99982e-06
6.81134e-08
6.99963e-06
6.93246e-08
6.99883e-06
7.12677e-08
7.41294e-08
6.99768e-06
8.12719e-06
-6.64878e-08
8.09793e-06
-9.70212e-08
8.08056e-06
-8.96091e-08
8.07955e-06
-5.4059e-08
8.08793e-06
-1.80896e-08
8.09985e-06
1.03225e-08
8.11198e-06
3.03586e-08
8.12286e-06
4.35218e-08
8.13202e-06
5.17951e-08
8.1395e-06
5.68674e-08
8.14548e-06
5.99751e-08
8.15018e-06
6.19696e-08
8.15378e-06
6.34309e-08
8.15644e-06
6.47567e-08
8.15832e-06
6.62332e-08
8.15958e-06
6.80739e-08
8.1604e-06
7.04407e-08
7.34388e-08
8.16109e-06
9.49368e-06
-4.24388e-08
9.4668e-06
-7.0143e-08
9.44683e-06
-6.96406e-08
9.43991e-06
-4.71321e-08
9.44229e-06
-2.04683e-08
9.44965e-06
2.95502e-09
9.45895e-06
2.10639e-08
9.4684e-06
3.407e-08
9.47716e-06
4.30357e-08
9.48491e-06
4.912e-08
9.49159e-06
5.32929e-08
9.49727e-06
5.62908e-08
9.50205e-06
5.86456e-08
9.50607e-06
6.07375e-08
9.50947e-06
6.28334e-08
9.51243e-06
6.51195e-08
9.51515e-06
6.77139e-08
7.067e-08
9.51792e-06
1.10854e-05
-2.51592e-08
1.10618e-05
-4.65029e-08
1.1041e-05
-4.88071e-08
1.10294e-05
-3.55521e-08
1.10261e-05
-1.71703e-08
1.10284e-05
6.043e-10
1.1034e-05
1.5474e-08
1.10411e-05
2.697e-08
1.10487e-05
3.54908e-08
1.10561e-05
4.17147e-08
1.1063e-05
4.63121e-08
1.10695e-05
4.98416e-08
1.10754e-05
5.27334e-08
1.10808e-05
5.53016e-08
1.10859e-05
5.77664e-08
1.10908e-05
6.02716e-08
1.10956e-05
6.28976e-08
6.56678e-08
1.11006e-05
1.29396e-05
-1.31188e-08
1.29194e-05
-2.62789e-08
1.28988e-05
-2.82524e-08
1.28839e-05
-2.06882e-08
1.28758e-05
-8.99644e-09
1.28732e-05
3.14414e-09
1.28748e-05
1.39391e-08
1.28789e-05
2.27874e-08
1.28847e-05
2.97433e-08
1.28913e-05
3.51417e-08
1.28982e-05
3.93818e-08
1.29052e-05
4.28265e-08
1.29122e-05
4.57679e-08
1.29191e-05
4.84231e-08
1.29259e-05
5.09412e-08
1.29327e-05
5.34137e-08
1.29398e-05
5.58837e-08
5.83543e-08
1.29471e-05
1.50998e-05
-4.48326e-09
1.50822e-05
-8.67631e-09
1.50621e-05
-8.11402e-09
1.50448e-05
-3.45882e-09
1.50327e-05
3.10898e-09
1.50259e-05
9.93779e-09
1.50237e-05
1.61608e-08
1.5025e-05
2.1463e-08
1.50289e-05
2.58517e-08
1.50346e-05
2.94829e-08
1.50414e-05
3.25524e-08
1.5049e-05
3.52408e-08
1.50571e-05
3.76913e-08
1.50655e-05
4.00053e-08
1.50742e-05
4.22452e-08
1.50832e-05
4.44405e-08
1.50925e-05
4.65937e-08
4.86866e-08
1.51021e-05
1.76171e-05
2.89292e-09
1.75999e-05
8.52286e-09
1.75787e-05
1.30291e-08
1.7559e-05
1.62772e-08
1.75436e-05
1.84716e-08
1.75336e-05
1.99567e-08
1.75287e-05
2.10509e-08
1.75282e-05
2.19921e-08
1.75311e-05
2.29378e-08
1.75366e-05
2.39833e-08
1.7544e-05
2.51749e-08
1.75527e-05
2.65253e-08
1.75624e-05
2.80233e-08
1.75727e-05
2.96436e-08
1.75836e-05
3.13496e-08
1.7595e-05
3.31002e-08
1.76067e-05
3.48496e-08
3.6553e-08
1.76188e-05
1.78181e-05
1.10001e-08
1.77994e-05
2.72122e-08
1.77768e-05
3.56235e-08
1.7756e-05
3.70576e-08
1.77402e-05
3.43252e-08
1.77302e-05
2.99451e-08
1.77257e-05
2.54988e-08
1.77259e-05
2.17762e-08
1.77298e-05
1.90731e-08
1.77364e-05
1.73977e-08
1.77449e-05
1.66299e-08
1.77549e-05
1.66006e-08
1.77658e-05
1.71385e-08
1.77773e-05
1.80866e-08
1.77894e-05
1.93122e-08
1.78018e-05
2.07021e-08
1.78144e-05
2.21665e-08
2.36298e-08
1.78274e-05
1.58702e-05
2.21332e-08
1.58478e-05
4.95809e-08
1.58233e-05
6.01314e-08
1.58032e-05
5.72336e-08
1.57899e-05
4.76091e-08
1.57834e-05
3.63702e-08
1.57827e-05
2.61957e-08
1.57864e-05
1.81449e-08
1.57931e-05
1.23631e-08
1.58019e-05
8.61014e-09
1.5812e-05
6.49441e-09
1.5823e-05
5.62616e-09
1.58345e-05
5.66238e-09
1.58462e-05
6.32677e-09
1.58581e-05
7.39923e-09
1.58701e-05
8.71536e-09
1.58821e-05
1.01476e-08
1.16053e-08
1.58942e-05
1.41313e-05
3.95385e-08
1.41021e-05
7.87063e-08
1.40745e-05
8.77869e-08
1.40557e-05
7.60372e-08
1.40469e-05
5.64119e-08
1.40462e-05
3.70377e-08
1.40512e-05
2.12085e-08
1.40597e-05
9.58023e-09
1.40704e-05
1.76073e-09
1.4082e-05
-3.05046e-09
1.40941e-05
-5.60612e-09
1.41063e-05
-6.56243e-09
1.41184e-05
-6.41666e-09
1.41303e-05
-5.55899e-09
1.41419e-05
-4.2593e-09
1.41534e-05
-2.71831e-09
1.41646e-05
-1.07298e-09
5.78304e-10
1.41756e-05
1.25772e-05
6.73554e-08
1.25392e-05
1.16739e-07
1.25091e-05
1.17888e-07
1.24942e-05
9.08897e-08
1.24928e-05
5.78122e-08
1.25002e-05
2.96809e-08
1.25122e-05
9.12867e-09
1.25264e-05
-4.49877e-09
1.25409e-05
-1.28373e-08
1.25552e-05
-1.73492e-08
1.25689e-05
-1.92844e-08
1.25819e-05
-1.94998e-08
1.25941e-05
-1.86536e-08
1.26057e-05
-1.71517e-08
1.26167e-05
-1.53023e-08
1.26273e-05
-1.32938e-08
1.26375e-05
-1.12583e-08
-9.27719e-09
1.26473e-05
1.11862e-05
1.10916e-07
1.11384e-05
1.6457e-07
1.11088e-05
1.4752e-07
1.11022e-05
9.74837e-08
1.11117e-05
4.83115e-08
1.11289e-05
1.23997e-08
1.11486e-05
-1.04635e-08
1.11678e-05
-2.37296e-08
1.11855e-05
-3.05101e-08
1.12014e-05
-3.3292e-08
1.12157e-05
-3.3555e-08
1.12285e-05
-3.2358e-08
1.12402e-05
-3.03015e-08
1.12509e-05
-2.78495e-08
1.12608e-05
-2.52376e-08
1.12701e-05
-2.26315e-08
1.1279e-05
-2.01181e-08
-1.77493e-08
1.12875e-05
9.93908e-06
1.76451e-07
9.88248e-06
2.21163e-07
9.85873e-06
1.71262e-07
9.86593e-06
9.02748e-08
9.8896e-06
2.46378e-08
9.91759e-06
-1.55571e-08
9.94391e-06
-3.67966e-08
9.96668e-06
-4.6412e-08
9.98571e-06
-4.96131e-08
1.00017e-05
-4.92899e-08
1.00152e-05
-4.71276e-08
1.00269e-05
-4.40007e-08
1.00371e-05
-4.05354e-08
1.00463e-05
-3.69934e-08
1.00546e-05
-3.3563e-08
1.00623e-05
-3.03407e-08
1.00696e-05
-2.73559e-08
-2.4637e-08
1.00765e-05
8.81963e-06
2.69916e-07
8.75785e-06
2.82944e-07
8.74788e-06
1.81225e-07
8.77481e-06
6.33226e-08
8.81458e-06
-1.51297e-08
8.85212e-06
-5.30927e-08
8.88268e-06
-6.72307e-08
8.90623e-06
-7.00278e-08
8.92427e-06
-6.7621e-08
8.93842e-06
-6.33755e-08
8.94984e-06
-5.84083e-08
8.95925e-06
-5.33428e-08
8.96726e-06
-4.84898e-08
8.97427e-06
-4.39847e-08
8.98055e-06
-3.98423e-08
8.98633e-06
-3.60981e-08
8.99172e-06
-3.27616e-08
-2.97727e-08
8.99687e-06
7.81391e-06
3.96675e-07
7.75391e-06
3.42943e-07
7.76868e-06
1.6644e-07
7.82053e-06
1.14608e-08
7.87567e-06
-7.02745e-08
7.91912e-06
-9.64918e-08
7.94967e-06
-9.78359e-08
7.97057e-06
-9.06519e-08
7.98483e-06
-8.15935e-08
7.99524e-06
-7.35596e-08
8.00315e-06
-6.61194e-08
8.00938e-06
-5.9434e-08
8.01449e-06
-5.33503e-08
8.0189e-06
-4.82004e-08
8.02279e-06
-4.3641e-08
8.02632e-06
-3.9658e-08
8.02968e-06
-3.61454e-08
-3.30413e-08
8.03292e-06
6.90424e-06
5.66768e-07
6.86137e-06
3.85805e-07
6.91716e-06
1.10634e-07
6.99674e-06
-6.81332e-08
7.06253e-06
-1.36071e-07
7.10529e-06
-1.39269e-07
7.13031e-06
-1.22549e-07
7.14447e-06
-1.04618e-07
7.15207e-06
-8.89997e-08
7.15708e-06
-7.58137e-08
7.16036e-06
-6.66918e-08
7.16269e-06
-5.95617e-08
7.16421e-06
-5.41877e-08
7.16558e-06
-4.93238e-08
7.16674e-06
-4.46778e-08
7.1678e-06
-4.09198e-08
7.1689e-06
-3.79462e-08
-3.48293e-08
7.17005e-06
6.07162e-06
7.97662e-07
6.08526e-06
3.72164e-07
6.19865e-06
-2.77343e-09
6.29989e-06
-1.69398e-07
6.36526e-06
-2.01462e-07
6.39754e-06
-1.71503e-07
6.41011e-06
-1.35217e-07
6.41342e-06
-1.0695e-07
6.41238e-06
-8.58111e-08
6.40987e-06
-7.40389e-08
6.40747e-06
-6.45131e-08
6.40485e-06
-5.76144e-08
6.4024e-06
-5.13082e-08
6.40041e-06
-4.66147e-08
6.39831e-06
-4.28211e-08
6.39634e-06
-3.97741e-08
6.39516e-06
-3.70767e-08
-3.40739e-08
6.39404e-06
5.35805e-06
1.05451e-06
5.50649e-06
2.23716e-07
5.64777e-06
-1.44085e-07
5.73564e-06
-2.57314e-07
5.77646e-06
-2.42346e-07
5.78324e-06
-1.78422e-07
5.77527e-06
-1.26643e-07
5.76327e-06
-9.4006e-08
5.74975e-06
-7.56734e-08
5.73929e-06
-6.39812e-08
5.73025e-06
-5.65428e-08
5.72234e-06
-4.99582e-08
5.71447e-06
-4.45743e-08
5.70775e-06
-4.04658e-08
5.70181e-06
-3.67926e-08
5.69622e-06
-3.36257e-08
5.69181e-06
-3.27838e-08
-3.02733e-08
5.68743e-06
5.04576e-06
1.01105e-06
5.36491e-06
-9.54499e-08
5.35251e-06
-1.31767e-07
5.33285e-06
-2.37745e-07
5.296e-06
-2.0565e-07
5.25017e-06
-1.32586e-07
5.20891e-06
-8.47352e-08
5.17485e-06
-6.08267e-08
5.14636e-06
-4.98318e-08
5.12483e-06
-4.29116e-08
5.10668e-06
-3.93243e-08
5.09047e-06
-3.56205e-08
5.07519e-06
-3.14354e-08
5.06203e-06
-2.78012e-08
5.05044e-06
-2.46844e-08
5.03899e-06
-2.19381e-08
5.02944e-06
-2.30853e-08
-2.1033e-08
5.02142e-06
5.4676e-06
5.37215e-06
5.24037e-06
5.00261e-06
4.79694e-06
4.66444e-06
4.57967e-06
4.51835e-06
4.46847e-06
4.42538e-06
4.38572e-06
4.34961e-06
4.31802e-06
4.29031e-06
4.26571e-06
4.24383e-06
4.22109e-06
4.20054e-06
2.31279e-08
-2.31256e-08
2.37197e-07
-2.1407e-07
4.89315e-07
-2.52086e-07
7.09576e-07
-2.20239e-07
8.77289e-07
-1.67692e-07
9.88415e-07
-1.11116e-07
1.04408e-06
-5.56499e-08
1.0465e-06
-2.42044e-09
1.001e-06
4.55134e-08
9.17719e-07
8.32675e-08
8.1192e-07
1.0581e-07
7.02734e-07
1.09174e-07
6.09954e-07
9.27781e-08
5.43671e-07
6.62954e-08
4.92532e-07
5.11594e-08
4.33357e-07
5.98788e-08
3.47054e-07
8.61658e-08
2.21957e-07
1.2587e-07
4.36559e-08
1.77886e-07
-2.01806e-07
2.44832e-07
-5.04338e-07
3.02278e-07
-8.45326e-07
3.40737e-07
-1.20966e-06
3.64346e-07
-1.58706e-06
3.77405e-07
-1.96866e-06
3.8164e-07
-2.34449e-06
3.75851e-07
-2.70652e-06
3.62058e-07
-3.0496e-06
3.43089e-07
-3.36989e-06
3.20306e-07
-3.66506e-06
2.95178e-07
-3.93425e-06
2.69195e-07
-4.17778e-06
2.43528e-07
-4.39666e-06
2.18887e-07
-4.59238e-06
1.95725e-07
-4.76665e-06
1.7427e-07
-4.92125e-06
1.54604e-07
-5.05794e-06
1.36687e-07
-5.17834e-06
1.20403e-07
-5.28393e-06
1.0559e-07
-5.376e-06
9.20695e-08
-5.45566e-06
7.9658e-08
-5.52384e-06
6.81836e-08
-5.58133e-06
5.74909e-08
-5.62878e-06
4.7446e-08
-5.66672e-06
3.79399e-08
-5.69561e-06
2.88853e-08
-5.71582e-06
2.02107e-08
-5.7277e-06
1.18865e-08
-5.73174e-06
4.04054e-09
-5.7288e-06
-2.93915e-09
-5.71997e-06
-8.83772e-09
-5.706e-06
-1.39644e-08
-5.68732e-06
-1.86808e-08
-5.66417e-06
-2.31482e-08
-5.63673e-06
-2.74448e-08
-5.60513e-06
-3.15985e-08
-5.5695e-06
-3.56243e-08
-5.52997e-06
-3.9529e-08
-5.48666e-06
-4.33135e-08
-5.43968e-06
-4.69769e-08
-5.38917e-06
-5.05165e-08
-5.33524e-06
-5.3929e-08
-5.27803e-06
-5.72108e-08
-5.21767e-06
-6.03587e-08
-5.1543e-06
-6.33702e-08
-5.08805e-06
-6.62422e-08
-5.01908e-06
-6.89713e-08
-4.94753e-06
-7.15551e-08
-4.87353e-06
-7.39921e-08
-4.79725e-06
-7.62809e-08
-4.71883e-06
-7.84209e-08
-4.63842e-06
-8.04116e-08
-4.55617e-06
-8.22534e-08
-4.47222e-06
-8.39469e-08
-4.38673e-06
-8.54933e-08
-4.29983e-06
-8.68942e-08
-4.21168e-06
-8.81521e-08
-4.12241e-06
-8.92693e-08
-4.03216e-06
-9.02496e-08
-3.94106e-06
-9.10964e-08
-3.84925e-06
-9.18134e-08
-3.75685e-06
-9.24047e-08
-3.66397e-06
-9.28723e-08
-3.57075e-06
-9.32213e-08
-3.47729e-06
-9.34582e-08
-3.3837e-06
-9.35943e-08
-3.29005e-06
-9.36455e-08
-3.19643e-06
-9.36212e-08
-3.10291e-06
-9.35226e-08
-3.00955e-06
-9.33546e-08
-2.9164e-06
-9.31481e-08
-2.82346e-06
-9.29496e-08
-2.73069e-06
-9.27664e-08
-2.63813e-06
-9.25586e-08
-2.54587e-06
-9.22562e-08
-2.45411e-06
-9.17623e-08
-2.36313e-06
-9.09822e-08
-2.27319e-06
-8.99376e-08
-2.18441e-06
-8.87845e-08
-2.09678e-06
-8.76298e-08
-2.01031e-06
-8.64739e-08
-1.925e-06
-8.53006e-08
-1.8409e-06
-8.41027e-08
-1.75802e-06
-8.28793e-08
-1.67639e-06
-8.16329e-08
-1.59603e-06
-8.03672e-08
-1.51694e-06
-7.90861e-08
-1.43915e-06
-7.77922e-08
-1.36267e-06
-7.64835e-08
-1.28753e-06
-7.51393e-08
-1.21376e-06
-7.37716e-08
-1.14136e-06
-7.24081e-08
-1.07031e-06
-7.10439e-08
-1.00064e-06
-6.96801e-08
-9.32322e-07
-6.83178e-08
-8.65366e-07
-6.69585e-08
-7.99765e-07
-6.56043e-08
-7.3551e-07
-6.4258e-08
-6.72592e-07
-6.29215e-08
-6.11001e-07
-6.15942e-08
-5.50728e-07
-6.02768e-08
-4.91759e-07
-5.8972e-08
-4.34077e-07
-5.76859e-08
-3.77657e-07
-5.64242e-08
-3.22478e-07
-5.51826e-08
-2.68524e-07
-5.39577e-08
-2.15774e-07
-5.27535e-08
-1.64208e-07
-5.15693e-08
-1.13818e-07
-5.0393e-08
-6.45956e-08
-4.92246e-08
-1.66635e-08
-4.7934e-08
3.01102e-08
-4.67751e-08
7.60322e-08
-4.59231e-08
1.20996e-07
-4.49651e-08
1.649e-07
-4.39044e-08
2.07741e-07
-4.28402e-08
2.49535e-07
-4.1793e-08
2.90313e-07
-4.07758e-08
3.30105e-07
-3.97904e-08
3.68943e-07
-3.88357e-08
4.06854e-07
-3.79095e-08
4.43867e-07
-3.70107e-08
4.80007e-07
-3.61379e-08
5.15301e-07
-3.52906e-08
5.49773e-07
-3.4468e-08
5.83448e-07
-3.367e-08
6.16349e-07
-3.28962e-08
6.48502e-07
-3.21465e-08
6.7993e-07
-3.14209e-08
7.10656e-07
-3.07194e-08
7.40704e-07
-3.00421e-08
7.701e-07
-2.93889e-08
7.98866e-07
-2.87599e-08
8.27026e-07
-2.8155e-08
8.54606e-07
-2.75742e-08
8.81628e-07
-2.70174e-08
9.08117e-07
-2.64844e-08
9.34097e-07
-2.59751e-08
9.5959e-07
-2.54889e-08
9.84618e-07
-2.50249e-08
1.0092e-06
-2.4582e-08
1.03337e-06
-2.41582e-08
1.05712e-06
-2.37506e-08
1.08048e-06
-2.33554e-08
1.10345e-06
-2.29667e-08
1.12603e-06
-2.25765e-08
1.1482e-06
-2.21733e-08
1.16995e-06
-2.17414e-08
1.19121e-06
-2.12586e-08
1.2119e-06
-2.06939e-08
1.23191e-06
-2.00031e-08
1.25103e-06
-1.91223e-08
1.26899e-06
-1.79542e-08
1.28535e-06
-1.63545e-08
1.2994e-06
-1.4048e-08
1.31002e-06
-1.06242e-08
1.31459e-06
-4.55993e-09
1.30775e-06
6.85519e-09
1.27821e-06
2.95352e-08
7.23284e-08
1.20588e-06
2.54178e-07
-2.77324e-07
4.90077e-07
-4.49965e-07
6.39663e-07
-4.01668e-07
7.24296e-07
-3.0487e-07
7.6381e-07
-2.07197e-07
7.69756e-07
-1.17066e-07
7.48824e-07
-3.47116e-08
7.0664e-07
3.97546e-08
6.4628e-07
1.05879e-07
5.67652e-07
1.61886e-07
4.70039e-07
2.0343e-07
3.51771e-07
2.27431e-07
2.06812e-07
2.37745e-07
2.36185e-08
2.49506e-07
-2.08594e-07
2.8338e-07
-4.94232e-07
3.45611e-07
-8.32189e-07
4.24212e-07
-1.21204e-06
5.05741e-07
-1.61586e-06
5.81659e-07
-2.0173e-06
6.46217e-07
-2.40732e-06
6.92251e-07
-2.7828e-06
7.16201e-07
-3.13774e-06
7.1929e-07
-3.46517e-06
7.04835e-07
-3.75993e-06
6.76409e-07
-4.02107e-06
6.37003e-07
-4.24902e-06
5.90005e-07
-4.44503e-06
5.39109e-07
-4.61203e-06
4.87306e-07
-4.75351e-06
4.36667e-07
-4.87286e-06
3.88543e-07
-4.97324e-06
3.43907e-07
-5.05752e-06
3.03173e-07
-5.12822e-06
2.66428e-07
-5.18746e-06
2.3351e-07
-5.23697e-06
2.04115e-07
-5.27816e-06
1.77875e-07
-5.31215e-06
1.54397e-07
-5.33986e-06
1.33301e-07
-5.36203e-06
1.14233e-07
-5.37925e-06
9.68841e-08
-5.39206e-06
8.09875e-08
-5.40089e-06
6.63213e-08
-5.40615e-06
5.27038e-08
-5.40819e-06
3.99883e-08
-5.40737e-06
2.80597e-08
-5.404e-06
1.68403e-08
-5.39841e-06
6.29532e-09
-5.39075e-06
-3.61931e-09
-5.38059e-06
-1.30933e-08
-5.36706e-06
-2.23667e-08
-5.34956e-06
-3.14689e-08
-5.3279e-06
-4.0334e-08
-5.30209e-06
-4.89585e-08
-5.27219e-06
-5.73491e-08
-5.23828e-06
-6.55121e-08
-5.20045e-06
-7.34504e-08
-5.15881e-06
-8.11632e-08
-5.11348e-06
-8.86475e-08
-5.06456e-06
-9.58975e-08
-5.01217e-06
-1.02906e-07
-4.95643e-06
-1.09667e-07
-4.89747e-06
-1.1617e-07
-4.83542e-06
-1.22411e-07
-4.77041e-06
-1.28383e-07
-4.70257e-06
-1.34081e-07
-4.63204e-06
-1.39496e-07
-4.55897e-06
-1.44624e-07
-4.4835e-06
-1.49462e-07
-4.40578e-06
-1.54009e-07
-4.32594e-06
-1.58261e-07
-4.24413e-06
-1.62219e-07
-4.1605e-06
-1.65882e-07
-4.07519e-06
-1.69253e-07
-3.98835e-06
-1.72333e-07
-3.90012e-06
-1.75126e-07
-3.81064e-06
-1.77636e-07
-3.72004e-06
-1.79869e-07
-3.62846e-06
-1.8183e-07
-3.53603e-06
-1.83526e-07
-3.44287e-06
-1.84965e-07
-3.34913e-06
-1.86154e-07
-3.2549e-06
-1.87102e-07
-3.1603e-06
-1.87818e-07
-3.06544e-06
-1.88315e-07
-2.97043e-06
-1.88606e-07
-2.87537e-06
-1.88704e-07
-2.78037e-06
-1.88621e-07
-2.68553e-06
-1.88366e-07
-2.59093e-06
-1.87948e-07
-2.4967e-06
-1.87386e-07
-2.40296e-06
-1.8669e-07
-2.30987e-06
-1.85852e-07
-2.21759e-06
-1.84838e-07
-2.12624e-06
-1.83611e-07
-2.03586e-06
-1.82139e-07
-1.94642e-06
-1.80419e-07
-1.85787e-06
-1.78491e-07
-1.77022e-06
-1.76433e-07
-1.68355e-06
-1.74298e-07
-1.59793e-06
-1.721e-07
-1.51339e-06
-1.69839e-07
-1.42997e-06
-1.67518e-07
-1.34771e-06
-1.65139e-07
-1.26664e-06
-1.62709e-07
-1.18678e-06
-1.60232e-07
-1.10815e-06
-1.57714e-07
-1.03078e-06
-1.55159e-07
-9.54697e-07
-1.52569e-07
-8.79894e-07
-1.49943e-07
-8.06371e-07
-1.47296e-07
-7.34141e-07
-1.4464e-07
-6.63208e-07
-1.41978e-07
-5.93573e-07
-1.39316e-07
-5.25237e-07
-1.36656e-07
-4.58198e-07
-1.34e-07
-3.92451e-07
-1.31353e-07
-3.27993e-07
-1.28719e-07
-2.64812e-07
-1.26105e-07
-2.02898e-07
-1.2351e-07
-1.42242e-07
-1.20934e-07
-8.28341e-08
-1.18382e-07
-2.46662e-08
-1.15856e-07
3.22752e-08
-1.13368e-07
8.8018e-08
-1.10928e-07
1.4258e-07
-1.08521e-07
1.9597e-07
-1.06146e-07
2.48206e-07
-1.03806e-07
2.99313e-07
-1.01501e-07
3.4932e-07
-9.92334e-08
3.98387e-07
-9.70016e-08
4.46487e-07
-9.48754e-08
4.93403e-07
-9.28397e-08
5.39203e-07
-9.07656e-08
5.83965e-07
-8.86665e-08
6.2772e-07
-8.65952e-08
6.70499e-07
-8.45707e-08
7.12324e-07
-8.26e-08
7.53219e-07
-8.06844e-08
7.93207e-07
-7.88228e-08
8.32311e-07
-7.70134e-08
8.70556e-07
-7.52547e-08
9.07965e-07
-7.35455e-08
9.44561e-07
-7.18847e-08
9.80367e-07
-7.02719e-08
1.01541e-06
-6.87064e-08
1.0497e-06
-6.71881e-08
1.08327e-06
-6.57166e-08
1.11615e-06
-6.42921e-08
1.14835e-06
-6.29146e-08
1.17989e-06
-6.15841e-08
1.21081e-06
-6.03005e-08
1.24112e-06
-5.9064e-08
1.27084e-06
-5.78743e-08
1.3e-06
-5.67314e-08
1.32862e-06
-5.5635e-08
1.35673e-06
-5.45848e-08
1.38433e-06
-5.358e-08
1.41147e-06
-5.26193e-08
1.43814e-06
-5.17012e-08
1.46439e-06
-5.08228e-08
1.49021e-06
-4.99804e-08
1.51563e-06
-4.91682e-08
1.54066e-06
-4.83786e-08
1.56529e-06
-4.76003e-08
1.58953e-06
-4.68181e-08
1.61337e-06
-4.60106e-08
1.63678e-06
-4.51483e-08
1.65971e-06
-4.41902e-08
1.6821e-06
-4.30787e-08
1.70383e-06
-4.17322e-08
1.72474e-06
-4.00325e-08
1.74459e-06
-3.78031e-08
1.76301e-06
-3.47744e-08
1.77945e-06
-3.04857e-08
1.79302e-06
-2.41847e-08
1.80274e-06
-1.42776e-08
1.80761e-06
1.99338e-09
1.80573e-06
3.14197e-08
8.8028e-08
1.79002e-06
2.46008e-07
-5.23353e-07
3.42325e-07
-5.46286e-07
3.58614e-07
-4.17954e-07
3.4757e-07
-2.93816e-07
3.19868e-07
-1.7949e-07
2.75785e-07
-7.29828e-08
2.14609e-07
2.64668e-08
1.35289e-07
1.19069e-07
3.67654e-08
2.04404e-07
-8.31262e-08
2.81773e-07
-2.3009e-07
3.50394e-07
-4.14646e-07
4.11988e-07
-6.50206e-07
4.73303e-07
-9.4369e-07
5.42995e-07
-1.28494e-06
6.24626e-07
-1.65203e-06
7.12709e-07
-2.02414e-06
7.96315e-07
-2.3844e-06
8.65984e-07
-2.71891e-06
9.16156e-07
-3.01713e-06
9.44429e-07
-3.2752e-06
9.50319e-07
-3.4941e-06
9.35103e-07
-3.6768e-06
9.02003e-07
-3.82737e-06
8.55403e-07
-3.95051e-06
7.99553e-07
-4.05164e-06
7.38138e-07
-4.1361e-06
6.7446e-07
-4.20826e-06
6.11277e-07
-4.27158e-06
5.50621e-07
-4.32866e-06
4.93747e-07
-4.38137e-06
4.41261e-07
-4.43086e-06
3.93397e-07
-4.47776e-06
3.50071e-07
-4.52233e-06
3.11002e-07
-4.56462e-06
2.758e-07
-4.60453e-06
2.44025e-07
-4.64189e-06
2.15237e-07
-4.67652e-06
1.89021e-07
-4.70822e-06
1.65e-07
-4.73683e-06
1.42842e-07
-4.76221e-06
1.22266e-07
-4.78425e-06
1.03033e-07
-4.80288e-06
8.49453e-08
-4.81801e-06
6.78381e-08
-4.82959e-06
5.15713e-08
-4.83756e-06
3.60257e-08
-4.84182e-06
2.10997e-08
-4.84222e-06
6.6992e-09
-4.83856e-06
-7.28232e-09
-4.83069e-06
-2.09592e-08
-4.81867e-06
-3.43911e-08
-4.80257e-06
-4.75657e-08
-4.78244e-06
-6.04605e-08
-4.75834e-06
-7.30673e-08
-4.7303e-06
-8.53797e-08
-4.69843e-06
-9.73917e-08
-4.66278e-06
-1.09097e-07
-4.62346e-06
-1.20486e-07
-4.58055e-06
-1.31549e-07
-4.53418e-06
-1.42274e-07
-4.48443e-06
-1.5265e-07
-4.43144e-06
-1.62663e-07
-4.37531e-06
-1.723e-07
-4.31617e-06
-1.8155e-07
-4.25415e-06
-1.90405e-07
-4.18937e-06
-1.98855e-07
-4.12198e-06
-2.06889e-07
-4.0521e-06
-2.145e-07
-3.97988e-06
-2.21683e-07
-3.90546e-06
-2.28434e-07
-3.82897e-06
-2.3475e-07
-3.75056e-06
-2.40629e-07
-3.67036e-06
-2.46074e-07
-3.58853e-06
-2.51084e-07
-3.5052e-06
-2.55663e-07
-3.42051e-06
-2.59817e-07
-3.3346e-06
-2.6355e-07
-3.2476e-06
-2.66871e-07
-3.15964e-06
-2.69787e-07
-3.07085e-06
-2.72309e-07
-2.98137e-06
-2.74446e-07
-2.89132e-06
-2.7621e-07
-2.8008e-06
-2.77614e-07
-2.70995e-06
-2.7867e-07
-2.61887e-06
-2.79394e-07
-2.52768e-06
-2.798e-07
-2.43648e-06
-2.79905e-07
-2.34538e-06
-2.79721e-07
-2.25448e-06
-2.79263e-07
-2.16389e-06
-2.78542e-07
-2.0737e-06
-2.77572e-07
-1.98403e-06
-2.76361e-07
-1.89498e-06
-2.74904e-07
-1.80663e-06
-2.7319e-07
-1.71904e-06
-2.71204e-07
-1.63223e-06
-2.68943e-07
-1.54623e-06
-2.66424e-07
-1.46104e-06
-2.63682e-07
-1.37671e-06
-2.60763e-07
-1.2933e-06
-2.57702e-07
-1.21088e-06
-2.5452e-07
-1.12949e-06
-2.51227e-07
-1.04918e-06
-2.47835e-07
-9.69963e-07
-2.44353e-07
-8.91883e-07
-2.40789e-07
-8.14963e-07
-2.37152e-07
-7.39226e-07
-2.33452e-07
-6.64691e-07
-2.29695e-07
-5.91372e-07
-2.25889e-07
-5.19275e-07
-2.22041e-07
-4.48409e-07
-2.18163e-07
-3.78784e-07
-2.14266e-07
-3.10405e-07
-2.10358e-07
-2.43275e-07
-2.06447e-07
-1.77394e-07
-2.02538e-07
-1.12761e-07
-1.98635e-07
-4.93704e-08
-1.94744e-07
1.27831e-08
-1.90873e-07
7.37038e-08
-1.87026e-07
1.334e-07
-1.83207e-07
1.91884e-07
-1.7942e-07
2.49169e-07
-1.75668e-07
3.0527e-07
-1.71958e-07
3.60199e-07
-1.68298e-07
4.13961e-07
-1.64691e-07
4.66573e-07
-1.61135e-07
5.18055e-07
-1.57629e-07
5.68426e-07
-1.54178e-07
6.17708e-07
-1.50784e-07
6.65931e-07
-1.47456e-07
7.13136e-07
-1.44208e-07
7.59308e-07
-1.41048e-07
8.04413e-07
-1.37944e-07
8.48497e-07
-1.34851e-07
8.91607e-07
-1.31777e-07
9.33765e-07
-1.28753e-07
9.7499e-07
-1.25796e-07
1.0153e-06
-1.2291e-07
1.05472e-06
-1.20099e-07
1.09326e-06
-1.17363e-07
1.13094e-06
-1.147e-07
1.1678e-06
-1.1211e-07
1.20385e-06
-1.09591e-07
1.2391e-06
-1.07143e-07
1.2736e-06
-1.04765e-07
1.30735e-06
-1.02456e-07
1.34038e-06
-1.00216e-07
1.37271e-06
-9.80451e-08
1.40436e-06
-9.59433e-08
1.43536e-06
-9.39106e-08
1.46573e-06
-9.19469e-08
1.49548e-06
-9.00522e-08
1.52464e-06
-8.82266e-08
1.55324e-06
-8.64698e-08
1.58129e-06
-8.47818e-08
1.60882e-06
-8.31621e-08
1.63585e-06
-8.161e-08
1.66239e-06
-8.01246e-08
1.68848e-06
-7.8704e-08
1.71413e-06
-7.73457e-08
1.73935e-06
-7.60458e-08
1.76417e-06
-7.47986e-08
1.7886e-06
-7.35962e-08
1.81265e-06
-7.24274e-08
1.83633e-06
-7.12766e-08
1.85963e-06
-7.0122e-08
1.88256e-06
-6.89338e-08
1.90508e-06
-6.76707e-08
1.92717e-06
-6.62754e-08
1.94876e-06
-6.46676e-08
1.96976e-06
-6.27343e-08
1.99004e-06
-6.03126e-08
2.0094e-06
-5.7162e-08
2.02755e-06
-5.2919e-08
2.04406e-06
-4.69932e-08
2.05832e-06
-3.84446e-08
2.06956e-06
-2.55137e-08
2.0769e-06
-5.35651e-09
2.08081e-06
2.75151e-08
8.54859e-08
2.08335e-06
9.37376e-08
-6.17101e-07
6.23954e-08
-5.14957e-07
1.3913e-08
-3.69464e-07
-4.3177e-08
-2.36719e-07
-1.12673e-07
-1.09988e-07
-1.98043e-07
1.23912e-08
-3.02272e-07
1.30697e-07
-4.27775e-07
2.44572e-07
-5.77129e-07
3.53757e-07
-7.53717e-07
4.58361e-07
-9.62297e-07
5.58972e-07
-1.20718e-06
6.56878e-07
-1.48717e-06
7.53285e-07
-1.79146e-06
8.47278e-07
-2.10134e-06
9.34505e-07
-2.3972e-06
1.00856e-06
-2.66454e-06
1.06365e-06
-2.8951e-06
1.09652e-06
-3.0856e-06
1.10665e-06
-3.23686e-06
1.09569e-06
-3.35324e-06
1.0667e-06
-3.44128e-06
1.02315e-06
-3.5081e-06
9.68827e-07
-3.56021e-06
9.07524e-07
-3.60311e-06
8.42456e-07
-3.64123e-06
7.76255e-07
-3.6778e-06
7.11035e-07
-3.71487e-06
6.48343e-07
-3.75343e-06
5.89183e-07
-3.79376e-06
5.34075e-07
-3.83567e-06
4.83173e-07
-3.87867e-06
4.36399e-07
-3.92212e-06
3.93518e-07
-3.96533e-06
3.54211e-07
-4.00765e-06
3.18116e-07
-4.04848e-06
2.84861e-07
-4.08733e-06
2.5409e-07
-4.12378e-06
2.25471e-07
-4.15749e-06
1.98705e-07
-4.18818e-06
1.73528e-07
-4.21562e-06
1.4971e-07
-4.23964e-06
1.27054e-07
-4.26009e-06
1.05395e-07
-4.27684e-06
8.45906e-08
-4.28979e-06
6.45216e-08
-4.29885e-06
4.50863e-08
-4.30395e-06
2.61985e-08
-4.30503e-06
7.78138e-09
-4.30208e-06
-1.02388e-08
-4.29511e-06
-2.79232e-08
-4.2842e-06
-4.52997e-08
-4.2694e-06
-6.23652e-08
-4.25076e-06
-7.9107e-08
-4.22831e-06
-9.55124e-08
-4.20212e-06
-1.11568e-07
-4.17226e-06
-1.27259e-07
-4.13878e-06
-1.42571e-07
-4.10178e-06
-1.57486e-07
-4.06135e-06
-1.71986e-07
-4.01756e-06
-1.86055e-07
-3.97054e-06
-1.99673e-07
-3.92038e-06
-2.12822e-07
-3.8672e-06
-2.25482e-07
-3.81111e-06
-2.37638e-07
-3.75224e-06
-2.49279e-07
-3.6907e-06
-2.6039e-07
-3.62663e-06
-2.70957e-07
-3.56016e-06
-2.80971e-07
-3.49142e-06
-2.90423e-07
-3.42055e-06
-2.9931e-07
-3.34767e-06
-3.07625e-07
-3.27293e-06
-3.15368e-07
-3.19647e-06
-3.22539e-07
-3.11841e-06
-3.29139e-07
-3.0389e-06
-3.35173e-07
-2.95807e-06
-3.40647e-07
-2.87605e-06
-3.45568e-07
-2.79298e-06
-3.49945e-07
-2.70898e-06
-3.53788e-07
-2.62418e-06
-3.57111e-07
-2.5387e-06
-3.59926e-07
-2.45266e-06
-3.62247e-07
-2.36618e-06
-3.64091e-07
-2.27938e-06
-3.65473e-07
-2.19236e-06
-3.66412e-07
-2.10524e-06
-3.66925e-07
-2.01811e-06
-3.6703e-07
-1.93109e-06
-3.66745e-07
-1.84426e-06
-3.66086e-07
-1.75774e-06
-3.65069e-07
-1.6716e-06
-3.63709e-07
-1.58594e-06
-3.62017e-07
-1.50085e-06
-3.59999e-07
-1.41638e-06
-3.57656e-07
-1.33259e-06
-3.54992e-07
-1.24952e-06
-3.52015e-07
-1.1672e-06
-3.48746e-07
-1.08567e-06
-3.45216e-07
-1.00497e-06
-3.4146e-07
-9.25161e-07
-3.37509e-07
-8.46295e-07
-3.33386e-07
-7.68413e-07
-3.29109e-07
-6.91554e-07
-3.24694e-07
-6.15751e-07
-3.20156e-07
-5.41033e-07
-3.15507e-07
-4.67425e-07
-3.1076e-07
-3.94949e-07
-3.05928e-07
-3.23624e-07
-3.0102e-07
-2.53463e-07
-2.9605e-07
-1.84475e-07
-2.91029e-07
-1.16671e-07
-2.85967e-07
-5.00587e-08
-2.80879e-07
1.53567e-08
-2.75774e-07
7.95705e-08
-2.70661e-07
1.42581e-07
-2.65549e-07