/*--------------------------------*- C++ -*----------------------------------*\
  =========                 |
  \\      /  F ield         | OpenFOAM: The Open Source CFD Toolbox
   \\    /   O peration     | Website:  https://openfoam.org
    \\  /    A nd           | Version:  8
     \\/     M anipulation  |
\*---------------------------------------------------------------------------*/
FoamFile
{
    version     2.0;
    format      ascii;
    class       volScalarField;
    location    "400";
    object      k;
}
// * * * * * * * * * * * * * * * * * * * * * * * * * * * * * * * * * * * * * //

dimensions      [0 2 -2 0 0 0 0];

internalField   nonuniform List<scalar> 
12225
(
0.670386
1.31584
1.55576
1.64534
1.64034
1.60623
2.17862
1.86797
1.66957
1.56388
1.33796
2.44845
1.9762
1.71141
2.16173
2.73938
2.27627
1.71933
0.401656
0.434786
0.486447
0.53218
0.562666
0.584638
0.616763
0.676676
0.71941
0.772359
0.762511
0.805457
0.82853
0.860227
0.871705
0.882498
0.922077
0.923385
0.378802
0.380248
0.386865
0.385511
0.381408
0.37713
0.378052
0.374373
0.37263
0.376375
0.375366
0.37376
0.374824
0.375173
0.375427
0.376039
0.377528
0.376423
0.375146
0.373769
0.373073
0.370764
0.368372
0.365403
0.363484
0.360159
0.35687
0.353004
0.349087
0.344211
0.339561
0.334753
0.330401
0.326099
0.32264
0.318915
0.374376
0.372261
0.370473
0.368379
0.366638
0.364569
0.362814
0.360541
0.358322
0.355512
0.352782
0.349518
0.346441
0.343022
0.340018
0.336768
0.334133
0.331187
0.374112
0.372
0.370059
0.368063
0.366399
0.364636
0.363062
0.361248
0.359524
0.357506
0.35555
0.353341
0.351252
0.348976
0.34692
0.344721
0.342828
0.340761
0.374004
0.371943
0.370019
0.368103
0.366417
0.364741
0.363218
0.361621
0.360108
0.358486
0.356919
0.355253
0.353661
0.351996
0.350444
0.348836
0.347376
0.34584
0.373968
0.371919
0.370007
0.368136
0.366428
0.364772
0.363243
0.36172
0.360279
0.358814
0.357407
0.355972
0.354597
0.353201
0.351881
0.350545
0.3493
0.348021
0.373953
0.371903
0.369986
0.368137
0.366416
0.364765
0.363223
0.361727
0.360312
0.35892
0.35759
0.356272
0.355011
0.35376
0.352569
0.351385
0.350267
0.349142
0.373945
0.371891
0.369962
0.36812
0.366388
0.364734
0.363179
0.361688
0.360278
0.358917
0.357621
0.356364
0.355163
0.353995
0.35288
0.351792
0.350755
0.349735
0.37394
0.371882
0.369941
0.368097
0.366354
0.364695
0.363127
0.361633
0.360215
0.35886
0.357572
0.356336
0.355158
0.354027
0.352946
0.351906
0.350911
0.349951
0.373937
0.371876
0.369926
0.368076
0.366324
0.364659
0.363081
0.361579
0.360153
0.358794
0.3575
0.356266
0.35509
0.353967
0.352895
0.351871
0.35089
0.349952
0.373935
0.371871
0.369915
0.368061
0.366301
0.364631
0.363044
0.361536
0.360102
0.358736
0.357436
0.356197
0.355015
0.353889
0.352815
0.35179
0.350809
0.349874
0.373934
0.371867
0.369907
0.368048
0.366284
0.364608
0.363017
0.361502
0.360062
0.358691
0.357385
0.35614
0.354954
0.353822
0.352743
0.351713
0.350728
0.349789
0.373933
0.371865
0.369902
0.368039
0.366271
0.364592
0.362996
0.361477
0.360033
0.358657
0.357347
0.356098
0.354907
0.353771
0.352687
0.351653
0.350665
0.349722
0.373933
0.371863
0.369898
0.368034
0.366263
0.364581
0.362981
0.36146
0.360012
0.358633
0.357319
0.356067
0.354873
0.353735
0.352647
0.35161
0.350619
0.349673
0.373932
0.371862
0.369897
0.36803
0.366258
0.364574
0.362973
0.36145
0.359999
0.358618
0.357302
0.356048
0.354852
0.35371
0.352621
0.351582
0.350588
0.34964
0.373932
0.371863
0.369896
0.368031
0.366257
0.364573
0.36297
0.361447
0.359995
0.358614
0.357296
0.356041
0.354843
0.353701
0.35261
0.35157
0.350576
0.349627
0.373933
0.371862
0.369898
0.368031
0.36626
0.364575
0.362974
0.361449
0.359999
0.358617
0.3573
0.356044
0.354847
0.353704
0.352614
0.351573
0.350579
0.34963
0.373933
0.371864
0.369899
0.368035
0.366264
0.364581
0.362981
0.361458
0.360008
0.358628
0.357312
0.356057
0.354861
0.353719
0.35263
0.35159
0.350597
0.349649
0.373933
0.371866
0.369903
0.368041
0.366272
0.364591
0.362993
0.361472
0.360025
0.358647
0.357333
0.356081
0.354887
0.353747
0.35266
0.351622
0.35063
0.349681
0.373934
0.371869
0.369909
0.368049
0.366284
0.364606
0.363012
0.361495
0.360053
0.358679
0.35737
0.356122
0.354932
0.353794
0.352708
0.351668
0.35067
0.349713
0.373935
0.371874
0.369918
0.368062
0.366303
0.364632
0.363047
0.361541
0.360108
0.358743
0.357441
0.356197
0.355008
0.353865
0.352766
0.351704
0.350671
0.349664
0.373938
0.371883
0.369931
0.368086
0.366344
0.364695
0.363137
0.361651
0.360236
0.35888
0.357578
0.356323
0.355108
0.353921
0.352759
0.351607
0.350452
0.349288
0.373949
0.371899
0.369956
0.368157
0.366483
0.364902
0.363401
0.361943
0.360534
0.359156
0.357806
0.356473
0.355148
0.353816
0.352461
0.351075
0.349607
0.348079
0.373999
0.371951
0.370076
0.368481
0.367025
0.365595
0.364174
0.362703
0.361234
0.359717
0.358197
0.356622
0.35501
0.353333
0.351528
0.349662
0.347499
0.345259
0.374219
0.372332
0.370913
0.370096
0.369172
0.368027
0.366724
0.365139
0.363475
0.361531
0.359642
0.357435
0.355264
0.35284
0.35018
0.34746
0.343973
0.340483
0.375244
0.375434
0.376598
0.379106
0.379789
0.37965
0.379016
0.377712
0.375928
0.373263
0.371395
0.368243
0.366355
0.363174
0.360663
0.35768
0.353696
0.349839
0.384125
0.398472
0.429875
0.45513
0.474955
0.489964
0.502075
0.511949
0.521938
0.530208
0.540428
0.54899
0.559836
0.569564
0.580272
0.591205
0.600735
0.610712
0.761005
1.09561
1.3417
1.48261
1.55439
1.5696
1.56292
1.54566
1.51566
1.48282
1.44992
1.41832
1.38879
1.36168
1.33688
1.31453
1.29408
1.27591
1.921e-08
4.73023e-07
2.40558e-06
9.44023e-06
3.14463e-05
9.5242e-05
0.000247854
0.000489965
0.000790202
0.00110469
0.00138513
0.0016012
0.00174454
0.001794
0.00176932
0.0016926
0.00155479
0.00132123
0.00112713
0.000958169
0.00079729
0.000640262
0.000488827
0.000348192
0.000224401
0.000129902
6.83635e-05
3.43622e-05
1.75974e-05
9.69217e-06
6.06909e-06
4.69453e-06
7.28596e-06
1.45629e-05
3.16914e-05
0.00018695
0.000418697
0.000854473
0.00120422
0.00122894
0.00112152
0.000906038
0.000795392
0.000820778
0.000918787
0.0012715
0.00178582
0.00389206
0.00926767
0.0291795
0.0658908
0.105504
0.124355
0.130032
0.123192
0.11505
0.14509
0.154364
0.138655
0.16214
0.17643
0.144382
0.171109
0.174798
0.18486
0.193662
0.201699
0.210282
0.218146
0.226258
0.233989
0.241789
0.249366
0.256941
0.264366
0.271758
0.279034
0.286262
0.293388
0.300457
0.307429
0.314336
0.321147
0.327883
0.33452
0.341072
0.347517
0.353865
0.360099
0.36622
0.372213
0.37807
0.383779
0.389332
0.394715
0.399922
0.404947
0.409795
0.414488
0.419075
0.423567
0.427882
0.432062
0.436093
0.439974
0.443702
0.447271
0.450682
0.453927
0.457007
0.459917
0.462655
0.465218
0.467606
0.469816
0.471846
0.473696
0.475365
0.476852
0.478157
0.479281
0.480222
0.480983
0.481564
0.481968
0.482195
0.482249
0.482188
0.482002
0.48143
0.48099
0.480014
0.479187
0.478169
0.477094
0.475844
0.474398
0.472715
0.470917
0.468964
0.466892
0.464695
0.462383
0.459962
0.457437
0.454816
0.452104
0.449316
0.446457
0.443536
0.440569
0.437502
0.434449
0.431267
0.428132
0.424873
0.421674
0.418419
0.415192
0.411968
0.40875
0.405543
0.40235
0.39917
0.39601
0.392873
0.389768
0.386698
0.383672
0.38069
0.377751
0.374847
0.371968
0.369077
0.366133
0.363045
0.35969
0.355756
0.350588
0.334388
8.61309e-08
2.43731e-06
1.64192e-05
7.05907e-05
0.000263783
0.000754239
0.00176365
0.00319115
0.00484147
0.00653088
0.00806636
0.00932453
0.0102416
0.010829
0.011081
0.0110355
0.0108496
0.0104835
0.00986861
0.00902535
0.0079696
0.00674685
0.00542643
0.00408304
0.00281677
0.00185367
0.00117036
0.000720876
0.000436877
0.000267525
0.000176195
0.000125469
0.000137564
0.000209077
0.000311782
0.00193543
0.00425866
0.00807642
0.0110509
0.012415
0.0123177
0.012078
0.0125438
0.0147295
0.0190614
0.0257398
0.0383653
0.0594987
0.0845163
0.109921
0.133892
0.153348
0.168025
0.180275
0.192597
0.209963
0.226906
0.244632
0.262409
0.28244
0.301183
0.31937
0.340753
0.359623
0.37899
0.398023
0.416648
0.435175
0.453411
0.471529
0.489465
0.5073
0.525013
0.542645
0.560189
0.577666
0.595069
0.612409
0.629677
0.646879
0.664003
0.681052
0.698013
0.714885
0.731652
0.748313
0.76485
0.781259
0.797523
0.81363
0.829564
0.845303
0.860828
0.876118
0.891149
0.905892
0.920315
0.934385
0.948062
0.961313
0.974206
0.986877
0.999257
1.01137
1.02319
1.03472
1.04593
1.05682
1.06738
1.0776
1.08746
1.09696
1.10609
1.11483
1.12319
1.13115
1.1387
1.14585
1.15257
1.15887
1.16474
1.17018
1.17518
1.17975
1.18387
1.18754
1.19078
1.19358
1.19594
1.19786
1.19938
1.20028
1.20091
1.20116
1.20123
1.20092
1.20038
1.19962
1.19843
1.19686
1.19491
1.19261
1.18995
1.18696
1.18364
1.18
1.17607
1.17185
1.16737
1.16265
1.15767
1.15248
1.14702
1.14138
1.1355
1.12946
1.12325
1.11691
1.11046
1.1039
1.09725
1.0905
1.08368
1.07677
1.06979
1.06274
1.05564
1.04851
1.04135
1.03418
1.02699
1.01977
1.0125
1.00513
0.997587
0.989748
0.981395
0.972226
0.960235
0.932936
2.15833e-07
6.42582e-06
4.89876e-05
0.000227057
0.000815676
0.00205162
0.00416904
0.00660785
0.00904132
0.0112385
0.0130666
0.0144671
0.0154422
0.0160206
0.0162502
0.0162052
0.0160068
0.015622
0.0150652
0.0143728
0.0135387
0.0125565
0.0114048
0.010101
0.00862836
0.0069737
0.00528646
0.00379633
0.00252075
0.0016745
0.00117584
0.000850022
0.000806332
0.00115984
0.00222786
0.00817253
0.0172274
0.0255508
0.0314024
0.0345811
0.0362318
0.04053
0.0515717
0.0682397
0.0858966
0.104866
0.125995
0.1468
0.167117
0.188471
0.209909
0.232053
0.255097
0.27992
0.306676
0.334628
0.363893
0.392524
0.421423
0.449985
0.478059
0.505648
0.532779
0.559107
0.584941
0.610287
0.635173
0.659723
0.683952
0.707935
0.7317
0.755289
0.778725
0.802031
0.825218
0.848296
0.871271
0.894143
0.916911
0.939572
0.96212
0.984549
1.00685
1.02901
1.05102
1.07288
1.09455
1.11605
1.13734
1.15842
1.17927
1.19988
1.22022
1.24029
1.26007
1.27955
1.29872
1.31757
1.3361
1.35431
1.3722
1.38974
1.40692
1.42372
1.44012
1.45611
1.47166
1.48678
1.50144
1.51562
1.52933
1.54253
1.55522
1.56739
1.57903
1.59012
1.60066
1.61064
1.62004
1.62887
1.63711
1.64477
1.65183
1.65829
1.66416
1.66942
1.67409
1.67816
1.68163
1.68451
1.68679
1.68847
1.68958
1.6901
1.69027
1.68988
1.68896
1.68754
1.68559
1.68311
1.68012
1.67663
1.67265
1.6682
1.6633
1.65796
1.6522
1.64605
1.63951
1.63263
1.62538
1.61782
1.6099
1.6017
1.59317
1.58442
1.5754
1.56618
1.55677
1.54719
1.53746
1.52759
1.51758
1.50746
1.49721
1.48686
1.47643
1.46593
1.45538
1.4448
1.43419
1.42356
1.41287
1.40211
1.39122
1.38011
1.36861
1.35648
1.34177
1.31629
8.28244e-07
2.49281e-05
0.000196124
0.000789126
0.0023533
0.00547489
0.00917465
0.0127554
0.0158498
0.0182862
0.0200341
0.0211337
0.0217032
0.0217868
0.0216439
0.0212681
0.0206843
0.0199858
0.0192041
0.0183536
0.0174354
0.0164453
0.0153644
0.0141734
0.0128518
0.0113797
0.00978084
0.00812741
0.00657474
0.00508721
0.00396142
0.00304054
0.00337641
0.00605942
0.015212
0.0313209
0.0455443
0.0566852
0.0656287
0.0747263
0.0863242
0.100714
0.116298
0.131957
0.148382
0.166835
0.187751
0.209468
0.233953
0.260195
0.288471
0.318419
0.349852
0.382521
0.416033
0.449964
0.483913
0.517527
0.55085
0.583641
0.615857
0.647496
0.678526
0.708985
0.738947
0.76848
0.797636
0.826481
0.85506
0.883422
0.911602
0.939632
0.967532
0.99532
1.023
1.05059
1.07808
1.10547
1.13276
1.15993
1.18698
1.2139
1.24068
1.2673
1.29374
1.32001
1.34607
1.37191
1.39753
1.4229
1.44801
1.47285
1.49739
1.52163
1.54555
1.56914
1.5924
1.6153
1.63784
1.66
1.68175
1.70308
1.72395
1.74436
1.76428
1.7837
1.80259
1.82093
1.83871
1.85591
1.87252
1.88851
1.90388
1.91861
1.93269
1.9461
1.95883
1.97088
1.98222
1.99287
2.00279
2.012
2.02049
2.02825
2.03528
2.04157
2.04714
2.05198
2.05608
2.05947
2.06213
2.06409
2.06527
2.06575
2.06575
2.06502
2.06362
2.06158
2.05889
2.05557
2.05162
2.04707
2.04193
2.03621
2.02994
2.02313
2.0158
2.00799
1.99971
1.99098
1.98181
1.97224
1.96225
1.9519
1.94117
1.93012
1.91875
1.90712
1.89524
1.88315
1.87085
1.85837
1.84572
1.83292
1.81996
1.80687
1.79366
1.78037
1.76701
1.75361
1.74018
1.72672
1.71325
1.69973
1.68616
1.6725
1.65863
1.6444
1.62813
1.60443
2.80297e-06
8.40163e-05
0.000623942
0.00241202
0.00654753
0.0120854
0.0171993
0.0212616
0.0241263
0.0259034
0.0268135
0.0270496
0.0268882
0.0264272
0.0257034
0.0248552
0.023936
0.0229835
0.0220195
0.0210518
0.0200758
0.0190818
0.0180502
0.0169578
0.0157774
0.0144828
0.013078
0.0116142
0.0101946
0.00862908
0.00751491
0.00839503
0.0140514
0.0293392
0.0508687
0.0706309
0.0865889
0.099152
0.11011
0.12121
0.133123
0.146077
0.160082
0.176788
0.196586
0.219001
0.244282
0.271853
0.301861
0.333537
0.366764
0.401084
0.436268
0.472045
0.508166
0.544438
0.580638
0.616636
0.652382
0.687772
0.72276
0.757326
0.79147
0.825222
0.858619
0.891705
0.924523
0.957117
0.989524
1.02178
1.05391
1.08595
1.1179
1.14977
1.18158
1.21331
1.24498
1.27655
1.30804
1.33942
1.37068
1.4018
1.43277
1.46358
1.4942
1.52462
1.55482
1.58478
1.61449
1.64392
1.67306
1.7019
1.73041
1.75858
1.78639
1.81383
1.84088
1.86752
1.89372
1.91947
1.94474
1.96951
1.99375
2.01744
2.04056
2.06308
2.08499
2.10625
2.12686
2.1468
2.16603
2.18455
2.20233
2.21937
2.23564
2.25113
2.26583
2.27972
2.2928
2.30505
2.31647
2.32705
2.33679
2.34567
2.3537
2.36088
2.3672
2.37267
2.37729
2.38106
2.384
2.3861
2.38727
2.38767
2.38742
2.38633
2.38445
2.38181
2.37842
2.37429
2.36944
2.36389
2.35765
2.35074
2.34318
2.335
2.32622
2.31686
2.30694
2.2965
2.28555
2.27412
2.26222
2.24987
2.23709
2.22392
2.21039
2.19653
2.18238
2.16796
2.1533
2.13842
2.12334
2.10806
2.09261
2.077
2.06125
2.04539
2.02945
2.01347
1.99745
1.98143
1.96541
1.9494
1.93341
1.91745
1.90145
1.88533
1.86768
1.84456
8.97598e-06
0.000262229
0.00186623
0.00658403
0.0146348
0.0216318
0.026569
0.0295885
0.0311527
0.0317217
0.0316335
0.0311719
0.0303223
0.0292913
0.0281633
0.0270025
0.0258525
0.0247401
0.0236769
0.022662
0.0216847
0.0207285
0.0197675
0.0187708
0.0177018
0.0164951
0.0150905
0.0134842
0.0121201
0.0124284
0.0157882
0.0265831
0.0474827
0.0725644
0.0951942
0.112932
0.125706
0.135384
0.144328
0.154081
0.165636
0.180448
0.198493
0.219867
0.244583
0.27206
0.301927
0.333597
0.36677
0.401055
0.436263
0.472163
0.50863
0.54553
0.582745
0.620181
0.657728
0.6953
0.732828
0.770238
0.807481
0.84453
0.881375
0.918018
0.954476
0.99077
1.02693
1.06297
1.09894
1.13484
1.1707
1.20654
1.24236
1.27817
1.31395
1.34971
1.38543
1.4211
1.4567
1.49221
1.5276
1.56287
1.59799
1.63293
1.66768
1.70221
1.73651
1.77055
1.80431
1.83776
1.8709
1.9037
1.93613
1.96817
1.99981
2.03103
2.06179
2.09208
2.12186
2.15112
2.17983
2.20796
2.23548
2.26238
2.28862
2.31418
2.33903
2.36315
2.38652
2.40911
2.4309
2.45187
2.47201
2.49129
2.50969
2.5272
2.5438
2.55948
2.57423
2.58804
2.60089
2.61278
2.62371
2.63366
2.64264
2.65065
2.65768
2.66373
2.66882
2.67293
2.67609
2.67829
2.67942
2.67973
2.67919
2.67772
2.67535
2.67211
2.66802
2.66309
2.65734
2.65079
2.64346
2.63537
2.62655
2.61701
2.60679
2.59591
2.5844
2.57228
2.55959
2.54634
2.53256
2.51826
2.50348
2.48826
2.47261
2.45659
2.44023
2.42356
2.40661
2.3894
2.37196
2.3543
2.33643
2.31838
2.30018
2.28185
2.26343
2.24495
2.22645
2.20796
2.1895
2.1711
2.15278
2.1346
2.11653
2.09851
2.07935
2.05588
2.8879e-05
0.000788256
0.0050511
0.0152902
0.0248316
0.0308777
0.0341859
0.0357349
0.0361594
0.0359017
0.0351343
0.0339782
0.0326245
0.0311794
0.0297242
0.0283172
0.0269945
0.0257733
0.0246544
0.0236264
0.02267
0.0217559
0.0208501
0.0199104
0.0190136
0.0182377
0.0178333
0.0183807
0.0213064
0.0289366
0.0445248
0.0678471
0.0924083
0.114654
0.131801
0.143511
0.151888
0.159458
0.168344
0.180495
0.196172
0.215515
0.238421
0.26449
0.293199
0.323862
0.356019
0.389304
0.42352
0.458509
0.494178
0.530453
0.567288
0.604634
0.642439
0.680646
0.719183
0.757975
0.79696
0.836075
0.875269
0.914504
0.953754
0.993008
1.03226
1.07152
1.1108
1.1501
1.18946
1.22887
1.26835
1.3079
1.34752
1.3872
1.42694
1.46671
1.50649
1.54627
1.586
1.62567
1.66525
1.7047
1.74401
1.78314
1.82208
1.86078
1.89923
1.9374
1.97526
2.0128
2.04998
2.08677
2.12316
2.15912
2.19462
2.22964
2.26415
2.29812
2.33151
2.36431
2.39648
2.428
2.45883
2.48896
2.51834
2.54695
2.57476
2.60175
2.62788
2.65314
2.67749
2.70092
2.72341
2.74492
2.76545
2.78497
2.80347
2.82093
2.83733
2.85267
2.86694
2.88012
2.89222
2.90322
2.91313
2.92193
2.92964
2.93625
2.94176
2.94619
2.94953
2.95179
2.95287
2.95304
2.95219
2.95032
2.94743
2.94357
2.93875
2.93299
2.92632
2.91875
2.91031
2.90102
2.89091
2.88
2.86832
2.85591
2.84278
2.82898
2.81453
2.79946
2.78379
2.76754
2.75076
2.73347
2.71572
2.69755
2.67899
2.66008
2.64085
2.62134
2.60156
2.58153
2.56127
2.54081
2.52018
2.49941
2.47854
2.45761
2.43667
2.41574
2.39487
2.3741
2.35348
2.33307
2.31288
2.29289
2.27203
2.24757
8.6877e-05
0.00217019
0.0119413
0.0255411
0.0338081
0.0381498
0.0401735
0.0407489
0.0404231
0.0394405
0.0379806
0.0362709
0.0344512
0.0326313
0.0308923
0.0292875
0.0278435
0.0265654
0.0254424
0.0244542
0.0235736
0.0227676
0.0219567
0.0212288
0.0207984
0.0212879
0.0238352
0.0304189
0.0435537
0.0630446
0.085603
0.107902
0.127679
0.143122
0.153871
0.161591
0.169127
0.17875
0.191651
0.208306
0.228655
0.252392
0.279032
0.307942
0.338515
0.370272
0.402956
0.436423
0.470608
0.505476
0.541015
0.577222
0.6141
0.651637
0.689808
0.728568
0.767871
0.807661
0.84788
0.888471
0.929381
0.970568
1.012
1.05365
1.0955
1.13755
1.17979
1.22223
1.26487
1.30772
1.35076
1.394
1.43742
1.481
1.52473
1.56856
1.61248
1.65644
1.7004
1.74432
1.78817
1.83192
1.87552
1.91894
1.96215
2.00513
2.04783
2.09023
2.13229
2.17399
2.2153
2.25618
2.29661
2.33656
2.37599
2.41488
2.4532
2.49091
2.52798
2.56438
2.60008
2.63504
2.66923
2.70262
2.73518
2.76688
2.79769
2.82756
2.85649
2.88443
2.91136
2.93725
2.96209
2.98584
3.00849
3.03001
3.05039
3.06961
3.08765
3.1045
3.12016
3.13461
3.14784
3.15985
3.17065
3.18021
3.18856
3.19568
3.20158
3.20627
3.20976
3.21203
3.21302
3.21299
3.21181
3.20948
3.20604
3.20151
3.19592
3.18929
3.18164
3.17301
3.16341
3.15288
3.14144
3.12912
3.11596
3.10197
3.08721
3.07168
3.05545
3.03852
3.02094
3.00273
2.98392
2.96456
2.94469
2.92435
2.90359
2.88243
2.86093
2.83911
2.81699
2.7946
2.77195
2.74909
2.72603
2.70283
2.67953
2.65617
2.63279
2.60945
2.58618
2.56304
2.5401
2.51744
2.49508
2.47301
2.45026
2.42433
0.000225538
0.00511466
0.0216017
0.0346925
0.0413806
0.0445194
0.045623
0.0454392
0.0444086
0.0427318
0.0406919
0.0384745
0.036233
0.0340885
0.0321271
0.0304017
0.0289385
0.0277447
0.0268151
0.026131
0.0257362
0.0257309
0.0262785
0.0277179
0.0305886
0.0360254
0.0460233
0.0607764
0.0787532
0.0982861
0.117412
0.134284
0.147845
0.158201
0.166625
0.175233
0.185916
0.199811
0.217278
0.238195
0.26216
0.28865
0.317095
0.346953
0.377822
0.409471
0.44181
0.474822
0.508523
0.54294
0.578108
0.614064
0.650827
0.688401
0.726779
0.76594
0.805852
0.846472
0.88775
0.929637
0.972085
1.01505
1.05849
1.10238
1.1467
1.19142
1.23654
1.28205
1.32793
1.37419
1.4208
1.46776
1.51502
1.56257
1.61037
1.65837
1.70652
1.75477
1.80308
1.85138
1.89963
1.94779
1.9958
2.04364
2.09125
2.13861
2.18567
2.2324
2.27876
2.32473
2.37025
2.41531
2.45986
2.50387
2.54731
2.59015
2.63234
2.67385
2.71465
2.7547
2.79397
2.8324
2.86998
2.90667
2.94242
2.97722
3.01102
3.04379
3.07549
3.1061
3.13559
3.16392
3.19108
3.21704
3.24177
3.26525
3.28747
3.3084
3.32803
3.34634
3.36333
3.37898
3.39329
3.40625
3.41786
3.42812
3.43703
3.44459
3.45081
3.45569
3.45925
3.46146
3.46233
3.46201
3.46041
3.45757
3.4535
3.44824
3.44181
3.43425
3.42557
3.41582
3.40501
3.39318
3.38036
3.36658
3.35188
3.33629
3.31984
3.30257
3.28451
3.26571
3.24618
3.22597
3.20511
3.18366
3.16165
3.13914
3.11617
3.09277
3.06899
3.04486
3.0204
2.99565
2.97062
2.94536
2.9199
2.89428
2.86855
2.84277
2.81698
2.79123
2.76557
2.74006
2.71479
2.68984
2.66524
2.64102
2.61626
2.58865
0.000500861
0.0102903
0.0312882
0.0429199
0.0483904
0.0506683
0.0510572
0.0502221
0.0485177
0.0462592
0.0436936
0.0410335
0.0384561
0.036099
0.034058
0.0323923
0.0311291
0.0302588
0.0298342
0.0297635
0.0302942
0.0317623
0.0348635
0.0403631
0.0489159
0.0606946
0.0748453
0.0905812
0.107002
0.122881
0.137138
0.149273
0.159522
0.16886
0.178779
0.190705
0.205545
0.223574
0.244627
0.268313
0.294156
0.321672
0.350424
0.380073
0.410421
0.441393
0.472996
0.505276
0.538293
0.572112
0.606794
0.642386
0.678922
0.716425
0.754905
0.794355
0.834759
0.876087
0.918302
0.961363
1.00523
1.04986
1.09521
1.14126
1.18797
1.23532
1.28329
1.33186
1.38101
1.43072
1.48097
1.53171
1.58292
1.63454
1.68652
1.7388
1.79132
1.84401
1.89679
1.94961
2.00239
2.05508
2.10763
2.16
2.21212
2.26396
2.31548
2.36664
2.41738
2.46768
2.5175
2.56679
2.61552
2.66365
2.71114
2.75795
2.80405
2.84939
2.89393
2.93764
2.98046
3.02237
3.06332
3.10327
3.14219
3.18005
3.2168
3.2524
3.28683
3.32004
3.35202
3.38271
3.41211
3.44019
3.46692
3.49227
3.51623
3.53877
3.55988
3.57955
3.59776
3.61451
3.62978
3.64358
3.6559
3.66675
3.67611
3.684
3.69042
3.69539
3.69892
3.70097
3.70161
3.7009
3.6988
3.69535
3.69057
3.68449
3.67714
3.66856
3.65878
3.64782
3.63573
3.62254
3.60827
3.59298
3.57669
3.55945
3.54127
3.52221
3.5023
3.48158
3.46008
3.43784
3.41491
3.39135
3.3672
3.34251
3.31733
3.29169
3.26563
3.23919
3.21241
3.1853
3.1579
3.13025
3.1024
3.07439
3.04626
3.01808
2.98989
2.96175
2.93371
2.90584
2.87823
2.85097
2.82411
2.79769
2.77084
2.74161
0.000948333
0.0176072
0.0397467
0.0504452
0.0552291
0.0569324
0.0567988
0.0554089
0.0531825
0.0504504
0.0474961
0.0445649
0.0418617
0.0395448
0.0377325
0.0365208
0.0360107
0.0360285
0.0368408
0.0386727
0.0418569
0.0467362
0.0535553
0.0624398
0.0732826
0.08571
0.0990834
0.112691
0.125867
0.138111
0.14926
0.159563
0.169781
0.180945
0.194012
0.209592
0.227868
0.248684
0.271704
0.296538
0.322804
0.350163
0.378351
0.407196
0.43663
0.466661
0.497348
0.528771
0.561017
0.594169
0.628293
0.663456
0.699705
0.737079
0.775602
0.815282
0.856119
0.898096
0.941193
0.98538
1.03062
1.07689
1.12414
1.17235
1.22147
1.27148
1.32236
1.37407
1.42657
1.47985
1.53385
1.58853
1.64381
1.69964
1.75595
1.81265
1.86967
1.92692
1.98432
2.04177
2.0992
2.15654
2.21373
2.27071
2.32743
2.38384
2.43989
2.49552
2.55069
2.60536
2.65948
2.71302
2.76593
2.81817
2.86969
2.92045
2.97041
3.01953
3.06776
3.11505
3.16137
3.20666
3.25088
3.294
3.33597
3.37677
3.41634
3.45465
3.49166
3.52733
3.56163
3.59454
3.62602
3.65605
3.68461
3.71166
3.73718
3.76117
3.78359
3.80444
3.8237
3.84137
3.85744
3.87191
3.88477
3.89603
3.90569
3.91375
3.92022
3.92512
3.92847
3.93024
3.93051
3.92929
3.92656
3.92237
3.91676
3.90976
3.90139
3.8917
3.88071
3.86847
3.85502
3.84038
3.82461
3.80774
3.78981
3.77086
3.75092
3.73004
3.70825
3.68558
3.66208
3.6378
3.61279
3.58712
3.56083
3.53397
3.5066
3.47874
3.45043
3.42172
3.39263
3.36319
3.33345
3.30345
3.27325
3.24288
3.2124
3.18186
3.15131
3.12081
3.09042
3.06021
3.03028
3.00072
2.97159
2.94294
2.91397
2.88297
0.00151007
0.0250619
0.0478269
0.0580392
0.062367
0.0636487
0.063114
0.0613083
0.0587073
0.0556997
0.0526173
0.0497395
0.0473032
0.0454862
0.0445448
0.0443314
0.0449773
0.0466055
0.0493542
0.053372
0.0587781
0.0656283
0.0738825
0.0834083
0.0939357
0.105073
0.116412
0.127617
0.138506
0.149076
0.159595
0.170613
0.182794
0.196715
0.212736
0.230943
0.251207
0.273269
0.296833
0.321614
0.347366
0.373894
0.401065
0.428818
0.457158
0.486139
0.515846
0.54638
0.577836
0.610306
0.643873
0.678612
0.714587
0.751847
0.790432
0.830367
0.871666
0.914331
0.958357
1.00373
1.05043
1.09842
1.14766
1.19814
1.24981
1.30263
1.35656
1.41157
1.46761
1.52463
1.58258
1.64138
1.70094
1.76116
1.82196
1.88324
1.9449
2.00685
2.06896
2.13114
2.1933
2.25536
2.31724
2.3789
2.44025
2.50124
2.5618
2.62188
2.68143
2.74041
2.79877
2.85648
2.91348
2.96972
3.02516
3.07974
3.13342
3.18617
3.23792
3.28863
3.33825
3.38673
3.43402
3.48009
3.52489
3.56838
3.61054
3.6513
3.69064
3.72852
3.7649
3.79975
3.83304
3.86476
3.89487
3.92335
3.95018
3.97533
3.9988
4.02057
4.04062
4.05896
4.07558
4.09047
4.10364
4.11509
4.12482
4.13283
4.13915
4.14378
4.14674
4.14806
4.14777
4.14587
4.14235
4.13729
4.13071
4.12265
4.11314
4.10222
4.08993
4.07631
4.06141
4.04525
4.0279
4.00939
3.98976
3.96906
3.94733
3.92461
3.90092
3.8763
3.8508
3.82448
3.7974
3.76963
3.74123
3.71225
3.68272
3.65269
3.62219
3.59126
3.55991
3.5282
3.49618
3.4639
3.43141
3.39876
3.36599
3.33317
3.30033
3.26753
3.23485
3.20235
3.17015
3.13833
3.10695
3.0761
3.04501
3.01221
0.00225398
0.0317845
0.0553681
0.0656289
0.0698083
0.0708715
0.0700599
0.0679553
0.0651442
0.0621064
0.0592286
0.0568038
0.0550822
0.0543067
0.0542472
0.0552145
0.0572045
0.0602528
0.0643908
0.0696232
0.0759235
0.0832182
0.0913831
0.100253
0.109636
0.119358
0.129292
0.139392
0.149736
0.160562
0.172228
0.185117
0.199536
0.215661
0.233509
0.252973
0.273869
0.295988
0.319133
0.343135
0.367863
0.393229
0.419192
0.445756
0.47297
0.500916
0.529689
0.559395
0.590141
0.622026
0.655142
0.689578
0.725409
0.7627
0.801502
0.841852
0.883783
0.927317
0.972462
1.01922
1.06757
1.11751
1.169
1.22202
1.27651
1.33243
1.38974
1.44837
1.50826
1.56934
1.63154
1.69474
1.75881
1.82364
1.8891
1.95507
2.02146
2.08814
2.155
2.22191
2.28878
2.35552
2.42206
2.48834
2.55426
2.61974
2.68471
2.7491
2.81286
2.87597
2.93838
3.00004
3.0609
3.12091
3.18
3.23814
3.29526
3.35133
3.40629
3.46009
3.51267
3.56399
3.61399
3.66263
3.70988
3.7557
3.80004
3.84287
3.88415
3.92383
3.96187
3.99827
4.03297
4.06598
4.09725
4.12677
4.15451
4.18046
4.2046
4.22691
4.2474
4.26606
4.28288
4.29787
4.31103
4.32236
4.33186
4.33954
4.34542
4.34952
4.35187
4.35249
4.35144
4.34865
4.34415
4.33803
4.33031
4.32104
4.31025
4.29798
4.28427
4.26917
4.25272
4.23497
4.21597
4.19575
4.17439
4.15191
4.12837
4.10379
4.07822
4.05165
4.02416
3.99584
3.96674
3.93694
3.90649
3.87544
3.84384
3.81171
3.77911
3.74604
3.71253
3.67864
3.64443
3.60997
3.5753
3.54048
3.50554
3.47054
3.43552
3.40053
3.36564
3.33095
3.29656
3.26256
3.22901
3.19601
3.16286
3.12832
0.00311514
0.037876
0.0629656
0.0734523
0.0775542
0.0784594
0.0774322
0.075097
0.0721584
0.0692698
0.066893
0.0653004
0.064597
0.0645525
0.0655322
0.0675179
0.0704509
0.074298
0.0790276
0.0845958
0.0909416
0.0979897
0.105663
0.113895
0.122632
0.131848
0.141572
0.151909
0.16302
0.175103
0.188349
0.202898
0.218805
0.236048
0.25454
0.274155
0.294756
0.316217
0.338433
0.361329
0.384859
0.409011
0.433803
0.459281
0.485522
0.512621
0.540683
0.569814
0.600115
0.631693
0.664649
0.699079
0.735073
0.772707
0.81205
0.853161
0.896091
0.940882
0.987562
1.03614
1.08663
1.139
1.19324
1.2493
1.30715
1.36671
1.42792
1.49069
1.55491
1.62048
1.68728
1.75518
1.824
1.89357
1.96376
2.03441
2.10543
2.17671
2.24815
2.31962
2.39102
2.46225
2.53325
2.60392
2.67419
2.74392
2.81302
2.88138
2.94902
3.01589
3.08197
3.14719
3.2115
3.27484
3.33714
3.39835
3.45843
3.51731
3.57495
3.6313
3.6863
3.7399
3.79204
3.84269
3.89181
3.93937
3.98533
4.02964
4.07227
4.11317
4.15231
4.18968
4.22523
4.25896
4.29085
4.32086
4.34899
4.37522
4.39952
4.4219
4.44235
4.46086
4.47745
4.49211
4.50484
4.51565
4.52455
4.53154
4.53665
4.5399
4.54133
4.541
4.53892
4.53495
4.52926
4.52188
4.51285
4.5022
4.48997
4.47621
4.46097
4.44428
4.4262
4.40678
4.38606
4.3641
4.34096
4.31669
4.29132
4.26492
4.2375
4.20903
4.17961
4.14935
4.11832
4.08658
4.05417
4.02116
3.98759
3.9535
3.91892
3.88384
3.84829
3.81236
3.77612
3.73962
3.70293
3.66609
3.62914
3.59212
3.55506
3.51801
3.48107
3.44433
3.40788
3.37183
3.33623
3.3012
3.26607
3.22993
0.00404046
0.0441446
0.0703914
0.0811895
0.0852804
0.0860579
0.0846927
0.0820723
0.0791982
0.0767619
0.0751677
0.0744815
0.0744062
0.0751944
0.0769319
0.0795524
0.0829907
0.0871958
0.0921289
0.0977559
0.10405
0.110993
0.118573
0.126788
0.135666
0.145258
0.155644
0.166905
0.17914
0.192426
0.206794
0.222244
0.238735
0.256195
0.274543
0.293696
0.313586
0.334161
0.355393
0.377273
0.399816
0.423052
0.44704
0.471859
0.49759
0.524317
0.55215
0.581199
0.611577
0.643397
0.67677
0.711803
0.748599
0.78725
0.827841
0.870449
0.915144
0.961986
1.01102
1.06228
1.11574
1.1714
1.22923
1.28918
1.35118
1.41515
1.48098
1.54851
1.6176
1.68805
1.75971
1.83241
1.90597
1.9802
2.0549
2.12987
2.20508
2.28048
2.35603
2.43159
2.50702
2.58227
2.65725
2.73185
2.80593
2.87937
2.95204
3.02385
3.09484
3.16494
3.23412
3.30231
3.36945
3.43547
3.5003
3.56389
3.62619
3.68715
3.74672
3.80485
3.86148
3.91657
3.97006
4.02191
4.07209
4.12058
4.16734
4.21234
4.25552
4.29686
4.33633
4.37389
4.40954
4.44325
4.47502
4.50482
4.53264
4.55847
4.58229
4.6041
4.62389
4.64168
4.65746
4.67125
4.68304
4.69285
4.70067
4.70653
4.71045
4.71247
4.71262
4.71106
4.70752
4.70212
4.69497
4.68608
4.67551
4.66328
4.64943
4.63403
4.6171
4.5987
4.57888
4.55769
4.53519
4.51143
4.48646
4.46034
4.43314
4.40488
4.37563
4.34535
4.31413
4.28208
4.24925
4.2157
4.18148
4.14666
4.11127
4.07536
4.03897
4.00208
3.96468
3.92691
3.88883
3.85051
3.812
3.77334
3.73457
3.69574
3.65683
3.61792
3.57912
3.54053
3.50223
3.46431
3.42683
3.38993
3.35299
3.31544
0.00498927
0.0502264
0.0775977
0.0886437
0.0926888
0.0933011
0.0915507
0.0888079
0.0862403
0.0844538
0.0836265
0.0834514
0.0839971
0.0853794
0.0876179
0.0906483
0.0944174
0.0988895
0.10405
0.109895
0.11643
0.12367
0.131641
0.14038
0.149931
0.160337
0.171639
0.183864
0.197022
0.211086
0.226038
0.241842
0.258434
0.275762
0.293782
0.312471
0.331817
0.351831
0.372526
0.393935
0.416113
0.43914
0.463127
0.488164
0.514257
0.541485
0.570041
0.600016
0.631529
0.664694
0.699629
0.736453
0.775275
0.816196
0.859308
0.904698
0.952441
1.0026
1.05525
1.11039
1.16799
1.228
1.29035
1.35499
1.42182
1.49075
1.56164
1.63428
1.70844
1.78379
1.86008
1.93719
2.015
2.09336
2.17201
2.25074
2.3296
2.40858
2.48754
2.56633
2.64491
2.7233
2.80143
2.87906
2.95604
3.03225
3.1076
3.18206
3.25554
3.32798
3.39933
3.46952
3.53849
3.60615
3.67244
3.7373
3.8007
3.8626
3.92296
3.98172
4.03884
4.09426
4.14794
4.19984
4.24994
4.29823
4.34468
4.38927
4.43194
4.47266
4.51139
4.54814
4.58289
4.61563
4.64635
4.67504
4.70168
4.72627
4.7488
4.76926
4.78767
4.80402
4.81834
4.83063
4.84089
4.84914
4.85537
4.85961
4.86189
4.86226
4.86092
4.85759
4.85232
4.84524
4.83638
4.82579
4.81349
4.79953
4.78395
4.7668
4.74813
4.72797
4.7064
4.68345
4.65918
4.63365
4.60692
4.57904
4.55007
4.52006
4.48906
4.45714
4.42433
4.39069
4.35626
4.3211
4.28528
4.24884
4.21183
4.17431
4.13631
4.09783
4.05887
4.01953
3.97989
3.94001
3.89994
3.85971
3.81939
3.779
3.7385
3.698
3.65761