/*--------------------------------*- C++ -*----------------------------------*\
  =========                 |
  \\      /  F ield         | OpenFOAM: The Open Source CFD Toolbox
   \\    /   O peration     | Website:  https://openfoam.org
    \\  /    A nd           | Version:  8
     \\/     M anipulation  |
\*---------------------------------------------------------------------------*/
FoamFile
{
    version     2.0;
    format      ascii;
    class       volVectorField;
    location    "400";
    object      wallShearStress;
}
// * * * * * * * * * * * * * * * * * * * * * * * * * * * * * * * * * * * * * //

dimensions      [0 2 -2 0 0 0 0];

internalField   uniform (0 0 0);

boundaryField
{
    inlet
    {
        type            calculated;
        value           uniform (0 0 0);
    }
    outlet
    {
        type            calculated;
        value           uniform (0 0 0);
    }
    upperWall
    {
        type            calculated;
        value           nonuniform List<vector> 
223
(
(-0.443992 0.00298189 0)
(-0.470709 0.00546453 0)
(-0.497244 0.00688761 0)
(-0.503856 0.00740492 0)
(-0.500315 0.00738951 0)
(-0.490146 0.00702936 0)
(-0.478317 0.0065176 0)
(-0.466321 0.00594034 0)
(-0.453916 0.00533683 0)
(-0.442234 0.00475341 0)
(-0.43151 0.00420942 0)
(-0.421791 0.00371187 0)
(-0.413067 0.00326329 0)
(-0.405275 0.00286537 0)
(-0.398312 0.00251647 0)
(-0.392112 0.00222769 0)
(-0.386489 0.00199884 0)
(-0.381449 0.00187028 0)
(-0.377335 0.00180955 0)
(-0.374043 0.00177433 5.95212e-22)
(-0.370805 0.00171524 0)
(-0.367633 0.0016403 0)
(-0.364533 0.00155276 0)
(-0.361523 0.0014573 6.07144e-22)
(-0.358616 0.00135808 0)
(-0.355816 0.0012569 0)
(-0.353138 0.00115841 0)
(-0.350566 0.00106763 -1.23527e-21)
(-0.348094 0.000984129 1.24031e-21)
(-0.345714 0.000904454 1.24532e-21)
(-0.343433 0.000825679 0)
(-0.341256 0.000747074 -1.25529e-21)
(-0.339192 0.000669308 0)
(-0.337242 0.000593611 1.26514e-21)
(-0.335406 0.000521264 1.26998e-21)
(-0.333679 0.000453507 -1.27475e-21)
(-0.332055 0.000391196 0)
(-0.330527 0.000334805 0)
(-0.329084 0.000284207 0)
(-0.327724 0.000239346 0)
(-0.326435 0.000199867 -1.29737e-21)
(-0.325215 0.000165327 0)
(-0.324054 0.000135347 0)
(-0.322953 0.000109617 1.31032e-21)
(-0.3219 8.75614e-05 0)
(-0.320899 6.87369e-05 1.31893e-21)
(-0.319939 5.28956e-05 -1.32325e-21)
(-0.319023 3.98356e-05 1.32762e-21)
(-0.318142 2.92567e-05 0)
(-0.3173 2.1061e-05 0)
(-0.316484 1.53978e-05 0)
(-0.315701 1.16289e-05 1.34548e-21)
(-0.314939 9.64662e-06 -1.35007e-21)
(-0.314204 9.4903e-06 0)
(-0.313484 1.07709e-05 0)
(-0.312787 1.32137e-05 0)
(-0.312097 1.68558e-05 0)
(-0.311428 2.21836e-05 0)
(-0.310756 2.91126e-05 0)
(-0.310107 3.69954e-05 0)
(-0.309441 4.55298e-05 0)
(-0.308808 5.39696e-05 1.39406e-21)
(-0.308137 6.30448e-05 -1.39906e-21)
(-0.307512 7.28309e-05 0)
(-0.306845 8.32374e-05 0)
(-0.306172 9.51071e-05 0)
(-0.305567 0.000104874 -1.41974e-21)
(-0.304779 0.000118548 0)
(-0.304148 0.000124144 0)
(-0.303301 0.00015975 0)
(-0.302679 0.000394663 0)
(-0.303873 0.000541617 0)
(-0.30396 0.000635251 -2.92403e-21)
(-0.303913 0.000687086 0)
(-0.309509 0.000411831 0)
(-0.30869 0.000207703 0)
(-0.307035 0.000202236 0)
(-0.305538 0.00024561 0)
(-0.301411 0.000312657 0)
(-0.29965 0.000268991 0)
(-0.299272 0.000139412 3.07761e-21)
(-0.300152 2.51513e-05 0)
(-0.299069 -1.57266e-05 0)
(-0.348931 -0.000174054 0)
(-0.360633 0.000520747 -3.72824e-21)
(-0.340827 0.000992873 0)
(-0.326242 0.00084968 -3.35099e-21)
(-0.317086 0.000818681 0)
(-0.317993 0.00049115 0)
(-0.314728 0.000125491 0)
(-0.306632 -8.30037e-05 -3.21699e-21)
(-0.29731 -3.44551e-06 0)
(-0.337541 0.00042633 3.58141e-21)
(-0.321323 0.000608178 3.40575e-21)
(-0.312612 0.000444546 0)
(-0.310009 0.000332192 3.33012e-21)
(-0.295789 1.11056e-05 0)
(-0.328437 -0.00011486 0)
(-0.327597 -4.66387e-07 0)
(-0.357632 0.000317533 -3.88719e-21)
(-0.331195 0.00113007 0)
(-0.307035 0.00118739 -3.29239e-21)
(-0.297275 0.000884781 3.20292e-21)
(-0.292997 0.000723922 0)
(-0.299169 0.000453382 0)
(-0.292093 -6.44939e-05 0)
(-0.317708 0.000271492 0)
(-0.301538 0.000742492 0)
(-0.29066 0.000535433 0)
(-0.290149 0.000687766 0)
(-0.28969 0.000919749 -3.11946e-21)
(-0.296042 0.00129283 0)
(-0.288091 0.000851175 0)
(-0.28766 0.000700353 0)
(-0.292725 0.00115723 0)
(-0.286189 0.00102369 0)
(-0.285512 0.000274096 0)
(-0.285081 -0.000518564 0)
(-0.329906 -4.7997e-05 0)
(-0.300617 0.000376982 0)
(-0.283222 -0.000178376 0)
(-0.329349 -0.000176818 0)
(-0.342945 -0.000267718 0)
(-0.338483 0.000147563 -7.0502e-21)
(-0.30411 0.00111223 0)
(-0.284104 0.00120205 0)
(-0.277239 0.000599705 0)
(-0.276491 0.000103838 5.47559e-21)
(-0.304876 0.000515525 0)
(-0.283655 0.000984665 0)
(-0.273053 0.000602793 5.11164e-21)
(-0.289973 0.000107638 0)
(-0.307844 0.000645487 -5.61881e-21)
(-0.281005 0.0012601 0)
(-0.268114 0.000771343 0)
(-0.291506 0.000931374 0)
(-0.265685 0.000837944 4.25547e-21)
(-0.294175 0.000904826 0)
(-0.263087 0.000745186 -3.90878e-21)
(-0.290428 0.000736297 0)
(-0.260311 0.000623541 0)
(-0.283849 0.000768474 0)
(-0.25719 0.00117616 0)
(-0.255523 0.000421373 0)
(-0.265441 -0.000162901 0)
(-0.266798 0.000378386 0)
(-0.250195 0.000570525 0)
(-0.252199 -8.10279e-05 0)
(-0.245374 0.000908795 0)
(-0.243626 0.00245861 0)
(-0.241562 0.00229404 -1.20051e-21)
(-0.239783 0.00096699 9.38958e-22)
(-0.238316 0.000785582 0)
(-0.236916 0.00045555 0)
(-0.234651 -6.72392e-05 0)
(-0.253838 0.00114375 0)
(-0.231447 0.000432692 -6.57743e-22)
(-0.229031 -0.000779792 1.0538e-21)
(-0.225839 -0.000433909 -1.44846e-21)
(-0.222727 -0.000203699 0)
(-0.219036 0.00085991 -2.22207e-21)
(-0.227315 0.00233814 -5.22506e-21)
(-0.217406 0.00269027 0)
(-0.217425 0.00187343 -6.4149e-21)
(-0.216438 0.000717749 7.47128e-21)
(-0.214931 0.000621483 0)
(-0.212632 0.000540323 0)
(-0.220565 0.000132732 0)
(-0.20602 9.48128e-05 0)
(-0.2055 0.00189837 0)
(-0.203474 0.00107832 -1.29599e-20)
(-0.200252 -0.000240142 0)
(-0.198731 0.000949754 -1.57923e-20)
(-0.201229 0.000881796 0)
(-0.194416 0.000659978 0)
(-0.19478 -0.000100351 0)
(-0.187744 -0.000864145 0)
(-0.184241 0.000200014 0)
(-0.183674 0.00142663 2.31389e-20)
(-0.183966 0.0016094 0)
(-0.182447 0.00130495 0)
(-0.179587 0.00100739 -2.71815e-20)
(-0.175162 0.000606675 0)
(-0.169534 0.000344815 0)
(-0.164686 0.000323311 0)
(-0.161183 0.000304389 3.64208e-20)
(-0.157633 0.00034708 0)
(-0.152886 0.000410034 0)
(-0.145804 0.000532292 0)
(-0.135661 0.000886105 0)
(-0.12339 0.00134793 -5.84371e-20)
(-0.11038 0.00165196 0)
(-0.0983409 0.00167651 0)
(-0.0875054 0.0015172 0)
(-0.0787918 0.00133574 9.48972e-20)
(-0.06888 0.00130792 0)
(-0.0640497 0.00175774 0)
(-0.0354415 0.00148068 -1.39316e-19)
(-0.0675646 0.000461302 1.20371e-35)
(-0.101425 0.00575826 1.19009e-17)
(-0.124647 0.0101481 2.13641e-17)
(-0.13695 0.0127238 2.00934e-17)
(-0.144206 0.01412 1.93295e-17)
(-0.149617 0.014983 1.8718e-17)
(-0.153902 0.0155852 -1.8199e-17)
(-0.156903 0.0160204 -1.77234e-17)
(-0.159313 0.0163135 6.01853e-36)
(-0.161435 0.0165541 -3.38505e-17)
(-0.163669 0.016768 -1.65417e-17)
(-0.165844 0.0169852 5.41668e-34)
(-0.168405 0.0171935 -1.20371e-35)
(-0.171342 0.0174477 -3.04327e-17)
(-0.174952 0.017744 -2.93135e-17)
(-0.179143 0.0181107 -2.79754e-17)
(-0.184114 0.0185394 -2.40741e-35)
(-0.189796 0.0190436 4.93981e-17)
(-0.196393 0.0196301 2.26873e-17)
(-0.203722 0.0202907 2.40741e-35)
(-0.212488 0.0210803 -3.54159e-17)
(-0.220958 0.0218701 -1.2427e-20)
(-0.234606 0.0230459 0)
(-0.239123 0.0237801 1.33685e-17)
(-0.265087 0.0253702 -7.16446e-18)
)
;
    }
    lowerWall
    {
        type            calculated;
        value           nonuniform List<vector> 
250
(
(-0.62468 -0.00635974 0)
(-0.595601 -0.0102261 0)
(-0.568642 -0.0102003 0)
(-0.542364 -0.00972359 0)
(-0.519672 -0.00854676 0)
(-0.501155 -0.0063427 0)
(-0.523107 -0.0063047 0)
(-0.479215 -0.00573056 0)
(-0.462609 -0.00416259 0)
(-0.454159 -0.00305865 0)
(-0.447429 -0.00153746 0)
(-0.498601 -0.00222915 0)
(-0.452758 -0.00216173 0)
(-0.433046 -0.00074106 0)
(-0.461333 -0.000318621 0)
(-0.503458 -0.000831389 0)
(-0.465211 -0.00139959 0)
(-0.423073 -0.000554097 0)
(0.00210912 5.77915e-05 0)
(0.00233495 -0.00275664 0)
(0.00259926 -0.00566717 0)
(0.00297232 -0.00878626 1.15162e-19)
(0.00340404 -0.0119742 -9.81896e-20)
(0.00365348 -0.015992 8.82879e-20)
(0.00308206 -0.0162617 -8.06938e-20)
(0.00764325 -0.0357077 0)
(-0.0555826 -0.121567 0)
(0.000222746 -0.000275489 0)
(5.81595e-05 -0.000788807 0)
(-7.65116e-06 -0.000874211 0)
(5.51313e-05 -0.000873488 0)
(3.06636e-05 -0.000834306 1.5392e-19)
(-0.000148606 -0.000255096 -1.49226e-19)
(-0.000589492 0.00120473 0)
(-0.0011834 0.00391908 -1.7144e-19)
(-0.00154999 0.00734735 1.31631e-19)
(-0.00148454 0.0105617 0)
(-0.00108628 0.0129152 0)
(-0.000553197 0.0141294 0)
(-4.51467e-05 0.0141835 0)
(0.000355613 0.0132778 0)
(0.00068905 0.0116871 0)
(0.00101394 0.00946193 0)
(0.00136998 0.00664247 0)
(0.00177101 0.00328129 0)
(-0.000143016 -0.000277978 0)
(0.000169795 -0.000447441 0)
(0.000480009 -0.000498224 0)
(0.000799994 -0.000425885 0)
(0.00105176 -0.000188582 -0)
(0.00109134 0.000201067 -0)
(0.000837927 0.000666321 1.46317e-20)
(0.000319949 0.00110007 -1.64287e-20)
(-0.000392663 0.00141227 0)
(-0.00120582 0.00156597 -9.38755e-21)
(-0.00204144 0.00157498 0)
(-0.00283548 0.00146991 0)
(-0.00354351 0.0012871 0)
(-0.00414124 0.00105697 4.66378e-21)
(-0.00461762 0.000800029 0)
(-0.00496857 0.000527707 0)
(-0.00519147 0.000248376 -4.06197e-21)
(-0.00529129 -4.46439e-05 -0)
(-0.00524098 -0.000347735 0)
(-0.00504138 -0.00063826 -0)
(-0.00470193 -0.00089638 4.39338e-21)
(-0.00423475 -0.00110176 -0)
(-0.00365878 -0.00123318 5.22674e-21)
(-0.00300251 -0.00127138 0)
(-0.00230517 -0.00120253 -0)
(-0.00161728 -0.00102478 8.57698e-21)
(-0.000997564 -0.000756583 0)
(-0.000503274 -0.000446394 -1.43393e-20)
(-0.000163008 -0.000169409 0)
(4.84739e-05 1.62894e-05 2.39705e-20)
(0.000183698 0.000131249 0)
(0.000254416 0.000239695 0)
(0.000217947 0.000367985 0)
(7.65067e-05 0.000533084 0)
(-0.000211166 0.000743115 0)
(-0.000663704 0.000945522 -1.39108e-20)
(-0.00124633 0.00105903 0)
(-0.00185708 0.00102053 1.70695e-20)
(-0.00237757 0.000835815 0)
(-0.00272055 0.000566442 -1.40161e-20)
(-0.00286764 0.000302833 0)
(-0.00286114 0.000108664 0)
(-0.00275951 1.89834e-05 1.39594e-20)
(-0.00263281 5.66853e-05 0)
(-0.00253702 0.000203894 1.44027e-20)
(-0.00246532 0.000381034 -1.45307e-20)
(-0.00234323 0.000395527 0)
(-0.0019799 2.29107e-05 -1.65365e-20)
(-0.00113369 -0.00071323 -2.02609e-20)
(0.000413217 -0.00136388 0)
(0.00218776 -0.00195757 0)
(0.00415747 -0.00261609 0)
(0.00639519 -0.00326979 0)
(0.00888023 -0.00373534 -0)
(0.0114308 -0.00378489 3.3851e-21)
(0.0138928 -0.00379167 0)
(0.01629 -0.00376548 -2.66576e-21)
(0.0189868 -0.00363569 -0)
(0.020808 -0.00335137 -0)
(0.0237236 -0.00323239 2.21082e-21)
(0.0265545 -0.00302776 0)
(0.0264932 -0.00253897 -1.92395e-21)
(0.0297075 -0.00245133 -0)
(0.031514 -0.00227733 0)
(0.033696 -0.0021273 -0)
(0.0357053 -0.00198262 1.84611e-21)
(0.037589 -0.00185466 0)
(0.0394525 -0.00174193 -0)
(0.0412068 -0.00164076 1.79826e-21)
(0.0429306 -0.00155142 0)
(0.044581 -0.00147104 1.7772e-21)
(0.0461963 -0.00139889 0)
(0.0477579 -0.001333 0)
(0.0492851 -0.0012724 0)
(0.0507685 -0.00121592 -1.74612e-21)
(0.0522188 -0.00116278 -0)
(0.0536305 -0.00111221 0)
(0.0550096 -0.00106375 -1.7268e-21)
(0.0563528 -0.00101685 -1.72047e-21)
(0.0576632 -0.000971112 -0)
(0.058938 -0.000926412 -1.70753e-21)
(0.0601797 -0.000882393 0)
(0.0613854 -0.000838973 -3.38743e-21)
(0.0625571 -0.000795921 -0)
(0.0636916 -0.000753097 -3.35708e-21)
(0.0647903 -0.000710457 -0)
(0.0658509 -0.000667819 3.32314e-21)
(0.0668733 -0.000625007 0)
(0.0678558 -0.000581933 0)
(0.0687976 -0.000538392 0)
(0.0696971 -0.000494211 -3.24193e-21)
(0.0705528 -0.000448937 -0)
(0.0713625 -0.000402372 3.19341e-21)
(0.0721244 -0.000354167 0)
(0.0728356 -0.000304117 -3.13914e-21)
(0.0734943 -0.000252034 -3.10979e-21)
(0.0740978 -0.00019797 -3.07902e-21)
(0.074644 -0.000142901 0)
(0.0751321 -8.91814e-05 0)
(0.0755636 -4.10305e-05 0)
(0.0759445 -1.01048e-06 0)
(0.0762787 3.49004e-05 0)
(0.076567 7.02443e-05 0)
(0.076809 0.000105046 0)
(0.0770042 0.000139732 0)
(0.0771522 0.000174286 2.72832e-21)
(0.0772522 0.000208678 2.67974e-21)
(0.0773043 0.000242911 0)
(0.0773074 0.000276974 0)
(0.0772617 0.000310784 0)
(0.0771666 0.000344364 2.46452e-21)
(0.0770219 0.000377634 0)
(0.0768274 0.00041053 0)
(0.0765834 0.000443017 0)
(0.0762898 0.000475107 0)
(0.0759466 0.000506766 -2.14553e-21)
(0.0755538 0.000537886 0)
(0.075112 0.000568472 0)
(0.0746213 0.000598462 1.92544e-21)
(0.0740824 0.000627775 -1.84702e-21)
(0.0734957 0.000656435 0)
(0.072862 0.000684399 -1.68233e-21)
(0.0721817 0.000711617 0)
(0.0714558 0.000738044 1.50686e-21)
(0.0706849 0.000763654 0)
(0.0698705 0.00078841 0)
(0.0690132 0.000812351 0)
(0.0681174 0.000835249 0)
(0.0671832 0.000857307 0)
(0.0661975 0.000877862 -1.82443e-21)
(0.0651903 0.00089771 -1.60565e-21)
(0.0641251 0.000915916 0)
(0.0630413 0.000931749 0)
(0.0619216 0.000943858 0)
(0.0607748 0.000949337 6.66368e-22)
(0.059599 0.000945807 0)
(0.0583962 0.000940122 0)
(0.0571619 0.000946269 0)
(0.0558987 0.000959203 -3.79957e-22)
(0.0546079 0.00096908 6.60534e-22)
(0.0532941 0.000978061 0)
(0.0519584 0.000985995 0)
(0.0506024 0.000992966 1.55211e-21)
(0.0492281 0.000999061 1.86695e-21)
(0.0478367 0.00100433 0)
(0.0464297 0.00100886 0)
(0.0450083 0.00101266 -2.87057e-21)
(0.0435744 0.00101591 3.22676e-21)
(0.0421291 0.00101871 0)
(0.0406742 0.00102125 0)
(0.0392104 0.00102355 4.36995e-21)
(0.0377373 0.0010253 0)
(0.0362591 0.00102696 0)
(0.0347725 0.00102803 5.64412e-21)
(0.0332839 0.00102915 0)
(0.0317889 0.00103 6.58122e-21)
(0.0302931 0.00103119 0)
(0.0287935 0.00103258 0)
(0.0272931 0.0010343 0)
(0.0257907 0.00103662 -8.72557e-21)
(0.0242864 0.00103947 0)
(0.0227802 0.00104291 0)
(0.0212719 0.00104695 0)
(0.0197616 0.00105157 0)
(0.0182493 0.00105686 0)
(0.016735 0.00106289 0)
(0.0152186 0.0010698 -1.38134e-20)
(0.0136998 0.00107771 -1.47512e-20)
(0.0121783 0.00108673 0)
(0.0106536 0.00109686 0)
(0.00912536 0.00110798 0)
(0.00759365 0.00111987 1.93622e-20)
(0.00605908 0.00113269 0)
(0.00452339 0.00114541 -4.47791e-20)
(0.0029906 0.001155 4.8313e-20)
(0.00146985 0.00115595 5.2259e-20)
(-3.45588e-05 0.00112539 -5.47026e-20)
(-0.0014297 0.00106057 5.38401e-20)
(-0.00298274 0.000893465 -5.1859e-20)
(-0.00332237 0.000500192 0)
(-0.00533542 0.00110935 -3.08906e-18)
(-0.00849067 0.00087642 -2.79811e-18)
(-0.0116242 0.000525593 0)
(-0.0148515 0.000197141 -4.75801e-18)
(-0.0182916 -0.000148386 -8.84908e-18)
(-0.0219482 -0.000513599 -4.12997e-18)
(-0.0258289 -0.000898577 3.86538e-18)
(-0.0299581 -0.00130771 -1.20371e-35)
(-0.034359 -0.00174371 6.01853e-36)
(-0.0390425 -0.00221182 3.20252e-18)
(-0.0440287 -0.00270293 3.01321e-18)
(-0.0493295 -0.00319422 6.01853e-36)
(-0.0549607 -0.00372095 0)
(-0.06098 -0.00432205 0)
(-0.0674374 -0.00498159 -2.1347e-35)
(-0.0743384 -0.00569369 9.87415e-36)
(-0.0818327 -0.00646068 9.0278e-36)
(-0.089779 -0.0072867 -3.75136e-18)
(-0.0987431 -0.00818353 -3.41994e-18)
(-0.107802 -0.00915159 6.01853e-36)
(-0.119331 -0.010219 5.38903e-18)
(-0.128912 -0.0113844 8.95714e-18)
(-0.146226 -0.0126208 6.01853e-36)
(-0.15379 -0.0141217 -4.34216e-18)
(-0.188121 -0.0164957 -9.0278e-36)
)
;
    }
    frontAndBack
    {
        type            empty;
    }
}


// ************************************************************************* //
