/*--------------------------------*- C++ -*----------------------------------*\
  =========                 |
  \\      /  F ield         | OpenFOAM: The Open Source CFD Toolbox
   \\    /   O peration     | Website:  https://openfoam.org
    \\  /    A nd           | Version:  8
     \\/     M anipulation  |
\*---------------------------------------------------------------------------*/
FoamFile
{
    version     2.0;
    format      ascii;
    class       volVectorField;
    location    "1500";
    object      U;
}
// * * * * * * * * * * * * * * * * * * * * * * * * * * * * * * * * * * * * * //

dimensions      [0 1 -1 0 0 0 0];

internalField   nonuniform List<vector> 
12225
(
(9.2745 -4.73371 0)
(13.1094 -1.71343 0)
(12.4778 -0.395198 0)
(11.2771 -0.0422041 0)
(10.6314 0.0141384 0)
(10.2979 -9.39929e-05 0)
(10.0776 -0.0165233 0)
(9.91229 -0.00288895 0)
(9.77911 0.0348732 0)
(9.66234 0.0428909 0)
(9.55578 0.024881 0)
(9.45772 0.00213951 0)
(9.36682 -0.0227968 0)
(9.2822 -0.0302328 0)
(9.20245 -0.021796 0)
(9.1327 -0.0212478 0)
(9.07046 -0.0210644 0)
(9.08981 -0.0277876 0)
(10.2592 0.0928019 0)
(10.7814 0.199339 0)
(10.9594 0.245656 0)
(10.7469 0.229143 0)
(10.5875 0.172969 0)
(10.4527 0.115534 0)
(10.33 0.0823309 0)
(10.2327 0.0647282 0)
(10.155 0.0524727 0)
(10.0894 0.0472279 0)
(10.0324 0.0469856 0)
(9.98216 0.0489816 0)
(9.9379 0.0517865 0)
(9.89839 0.0519265 0)
(9.86158 0.0483005 0)
(9.82894 0.0438003 0)
(9.7944 0.0300228 0)
(9.76842 0.0101415 0)
(9.87768 -0.24504 0)
(9.74285 0.00579112 0)
(10.1971 0.125744 0)
(10.3245 0.179364 0)
(10.3564 0.161548 0)
(10.3311 0.120076 0)
(10.2777 0.0904928 0)
(10.2252 0.0746632 0)
(10.1813 0.0658705 0)
(10.1438 0.0600221 0)
(10.1103 0.0561997 0)
(10.08 0.0536396 0)
(10.052 0.0511209 0)
(10.0261 0.0487399 0)
(10.0023 0.0460425 0)
(9.98127 0.0417148 0)
(9.95926 0.0315876 0)
(9.93471 0.0134219 0)
(9.83416 -0.443933 0)
(9.57654 -0.163146 0)
(9.91603 0.0336705 0)
(10.0933 0.134224 0)
(10.1892 0.145472 0)
(10.2168 0.120737 0)
(10.205 0.0978931 0)
(10.1825 0.0839059 0)
(10.1599 0.075624 0)
(10.1389 0.0697043 0)
(10.1191 0.0651236 0)
(10.1002 0.0616228 0)
(10.0821 0.0585929 0)
(10.0648 0.0562003 0)
(10.0484 0.0538128 0)
(10.0326 0.0500812 0)
(10.0149 0.0423238 0)
(9.99187 0.0304642 0)
(9.87825 -0.387476 0)
(9.61653 -0.196147 0)
(9.81623 -0.0186704 0)
(9.96136 0.0916123 0)
(10.0698 0.122195 0)
(10.1219 0.113626 0)
(10.1354 0.0992612 0)
(10.1332 0.0884164 0)
(10.1257 0.0809416 0)
(10.1162 0.0753871 0)
(10.1056 0.0711111 0)
(10.0946 0.0678639 0)
(10.0833 0.0652294 0)
(10.0718 0.0631217 0)
(10.0601 0.0609955 0)
(10.0478 0.058036 0)
(10.0329 0.052982 0)
(10.0125 0.0467632 0)
(9.91439 -0.28804 0)
(9.68304 -0.185176 0)
(9.78717 -0.0532079 0)
(9.88917 0.0509984 0)
(9.98796 0.0936784 0)
(10.0476 0.0992013 0)
(10.0751 0.0938704 0)
(10.0861 0.0875123 0)
(10.0892 0.0821123 0)
(10.0879 0.0777533 0)
(10.0842 0.0743354 0)
(10.079 0.071739 0)
(10.0726 0.069713 0)
(10.0654 0.0681324 0)
(10.0572 0.0666716 0)
(10.0476 0.064969 0)
(10.0354 0.0626838 0)
(10.0185 0.0610396 0)
(9.93763 -0.214041 0)
(9.74856 -0.167536 0)
(9.79244 -0.0752159 0)
(9.85609 0.0162194 0)
(9.93595 0.0644199 0)
(9.99282 0.080592 0)
(10.0261 0.0835564 0)
(10.0447 0.0822366 0)
(10.0546 0.0797698 0)
(10.0593 0.0772744 0)
(10.0606 0.0751582 0)
(10.0596 0.0735352 0)
(10.0571 0.0723572 0)
(10.0531 0.0715922 0)
(10.0477 0.0711334 0)
(10.0407 0.0709405 0)
(10.0312 0.0711812 0)
(10.0183 0.0730306 0)
(9.95263 -0.167334 0)
(9.79947 -0.149677 0)
(9.81177 -0.084642 0)
(9.84959 -0.00621173 0)
(9.91141 0.0419295 0)
(9.96107 0.0638933 0)
(9.99432 0.0725443 0)
(10.0156 0.0752782 0)
(10.0289 0.075519 0)
(10.0367 0.0748889 0)
(10.041 0.0741282 0)
(10.0427 0.0735557 0)
(10.0426 0.0732886 0)
(10.0408 0.0734032 0)
(10.0375 0.0739468 0)
(10.0325 0.0750608 0)
(10.0254 0.0771104 0)
(10.0157 0.0810899 0)
(9.96406 -0.132089 0)
(9.84003 -0.131989 0)
(9.83337 -0.0876908 0)
(9.85306 -0.0213344 0)
(9.89927 0.0244128 0)
(9.94103 0.0495087 0)
(9.97207 0.0621171 0)
(9.99386 0.0680681 0)
(10.0087 0.0706841 0)
(10.0184 0.0717788 0)
(10.0246 0.0722966 0)
(10.0282 0.0727259 0)
(10.0298 0.0733244 0)
(10.0297 0.0742725 0)
(10.028 0.0757279 0)
(10.0248 0.0779338 0)
(10.0197 0.0813206 0)
(10.0129 0.0867007 0)
(9.97418 -0.100205 0)
(9.87757 -0.11239 0)
(9.85857 -0.0853672 0)
(9.86387 -0.0323348 0)
(9.89487 0.00892578 0)
(9.92743 0.0352192 0)
(9.95439 0.0507102 0)
(9.97503 0.0594875 0)
(9.99015 0.0644313 0)
(10.001 0.0673424 0)
(10.0085 0.0692759 0)
(10.0135 0.070849 0)
(10.0166 0.0724394 0)
(10.018 0.0743222 0)
(10.018 0.0767432 0)
(10.0165 0.0800046 0)
(10.0136 0.0845324 0)
(10.0095 0.0909437 0)
(9.98253 -0.0727092 0)
(9.91035 -0.0921968 0)
(9.88507 -0.0782454 0)
(9.88002 -0.0386096 0)
(9.89746 -0.00337738 0)
(9.92043 0.0221638 0)
(9.94196 0.039177 0)
(9.96 0.0500709 0)
(9.97426 0.0570427 0)
(9.98519 0.0616872 0)
(9.9934 0.0650564 0)
(9.99942 0.0678338 0)
(10.0037 0.0704789 0)
(10.0064 0.073338 0)
(10.0078 0.0767129 0)
(10.0081 0.0809237 0)
(10.0073 0.0863445 0)
(10.0058 0.093412 0)
(9.98894 -0.0502567 0)
(9.93733 -0.0723787 0)
(9.91073 -0.0674494 0)
(9.89917 -0.039985 0)
(9.90566 -0.0116534 0)
(9.91955 0.0114467 0)
(9.93497 0.0285229 0)
(9.94934 0.0405698 0)
(9.9617 0.0490104 0)
(9.97189 0.0550933 0)
(9.98009 0.0597562 0)
(9.98659 0.0636731 0)
(9.99164 0.0673344 0)
(9.99545 0.0711192 0)
(9.9982 0.075349 0)
(10.0001 0.0803266 0)
(10.0013 0.0863526 0)
(10.0021 0.0937107 0)
(9.99348 -0.0329087 0)
(9.9582 -0.0538116 0)
(9.93368 -0.0542848 0)
(9.91898 -0.0367896 0)
(9.91755 -0.0154572 0)
(9.92366 0.00398926 0)
(9.93301 0.0197676 0)
(9.94318 0.0318659 0)
(9.9529 0.0409964 0)
(9.96163 0.0480022 0)
(9.96922 0.053624 0)
(9.9757 0.0584545 0)
(9.98118 0.0629567 0)
(9.98578 0.0674985 0)
(9.98964 0.0723837 0)
(9.99293 0.0778725 0)
(9.99586 0.0841871 0)
(9.99868 0.0914991 0)
(9.99643 -0.0202026 0)
(9.97327 -0.0372104 0)
(9.95261 -0.0400467 0)
(9.93731 -0.0298131 0)
(9.9309 -0.0148274 0)
(9.93102 0.000360861 0)
(9.93504 0.0137663 0)
(9.94105 0.024832 0)
(9.94782 0.0337449 0)
(9.95465 0.0409731 0)
(9.96117 0.0470272 0)
(9.96724 0.052367 0)
(9.9728 0.057378 0)
(9.9779 0.0623752 0)
(9.9826 0.067613 0)
(9.98703 0.0732936 0)
(9.99134 0.079568 0)
(9.99571 0.0865297 0)
(9.99816 -0.0112878 0)
(9.9833 -0.0229311 0)
(9.96682 -0.025764 0)
(9.95243 -0.0200791 0)
(9.94344 -0.0102455 0)
(9.93953 0.000669429 0)
(9.9394 0.0110222 0)
(9.94183 0.0201336 0)
(9.94582 0.0279117 0)
(9.95069 0.0345547 0)
(9.95597 0.0403643 0)
(9.96139 0.0456504 0)
(9.9668 0.050691 0)
(9.97215 0.0557182 0)
(9.97743 0.0609163 0)
(9.98269 0.0664218 0)
(9.98801 0.0723243 0)
(9.99351 0.0786643 0)
(9.99906 -0.00508093 0)
(9.98922 -0.0107813 0)
(9.97612 -0.0119181 0)
(9.96309 -0.00848494 0)
(9.9531 -0.0024382 0)
(9.94685 0.00457345 0)
(9.94399 0.0115502 0)
(9.94384 0.018011 0)
(9.94569 0.0238264 0)
(9.94896 0.029065 0)
(9.95317 0.0338823 0)
(9.95799 0.038455 0)
(9.9632 0.0429479 0)
(9.96867 0.0474984 0)
(9.97434 0.0522108 0)
(9.98018 0.057155 0)
(9.98621 0.0623663 0)
(9.99247 0.0678471 0)
(9.99942 -0.000367278 0)
(9.99181 0.000151322 0)
(9.98042 0.00183131 0)
(9.96821 0.00459176 0)
(9.9579 0.00791698 0)
(9.95061 0.0113969 0)
(9.94642 0.0148103 0)
(9.94498 0.01808 0)
(9.94576 0.0212228 0)
(9.94825 0.0243051 0)
(9.95198 0.0274078 0)
(9.9566 0.0306084 0)
(9.96185 0.0339689 0)
(9.96756 0.0375338 0)
(9.9736 0.0413266 0)
(9.97992 0.0453524 0)
(9.98646 0.0495968 0)
(9.99323 0.0540298 0)
(9.99935 0.00408477 0)
(9.9911 0.0111729 0)
(9.97897 0.0161326 0)
(9.96616 0.0187351 0)
(9.95552 0.0196102 0)
(9.94819 0.0195425 0)
(9.94419 0.0191541 0)
(9.94311 0.0188551 0)
(9.94437 0.0188859 0)
(9.94741 0.0193639 0)
(9.95174 0.0203299 0)
(9.95698 0.0217785 0)
(9.96286 0.0236791 0)
(9.96918 0.0259867 0)
(9.97582 0.02865 0)
(9.98268 0.0316121 0)
(9.98972 0.0348152 0)
(9.9969 0.0381983 0)
(9.99882 0.00972974 0)
(9.98675 0.0240486 0)
(9.97122 0.031846 0)
(9.95641 0.0332926 0)
(9.94558 0.0307021 0)
(9.93942 0.0263469 0)
(9.93734 0.0217428 0)
(9.93845 0.0177324 0)
(9.94186 0.0146863 0)
(9.94686 0.0127003 0)
(9.95291 0.0117188 0)
(9.95962 0.0116228 0)
(9.96673 0.0122733 0)
(9.97407 0.0135343 0)
(9.98154 0.0152808 0)
(9.98907 0.0174029 0)
(9.99663 0.0198035 0)
(10.0042 0.022399 0)
(9.99757 0.0182099 0)
(9.97773 0.0404552 0)
(9.95664 0.0495771 0)
(9.93945 0.0474778 0)
(9.92961 0.0394221 0)
(9.92658 0.0296444 0)
(9.92848 0.0204862 0)
(9.93357 0.012961 0)
(9.94055 0.00734117 0)
(9.94855 0.00350853 0)
(9.95704 0.00121236 0)
(9.96567 0.000162823 0)
(9.97427 9.651e-05 0)
(9.98276 0.000779958 0)
(9.99108 0.00202606 0)
(9.99924 0.00368195 0)
(10.0072 0.00562465 0)
(10.0151 0.00775745 0)
(9.99502 0.0318145 0)
(9.96177 0.0621336 0)
(9.93372 0.0695511 0)
(9.91534 0.0601143 0)
(9.90932 0.0439495 0)
(9.91249 0.0276578 0)
(9.92084 0.0139901 0)
(9.93162 0.00363401 0)
(9.94322 -0.00364912 0)
(9.95479 -0.00838244 0)
(9.96594 -0.01114 0)
(9.97652 -0.0124035 0)
(9.98651 -0.012579 0)
(9.99594 -0.0119668 0)
(10.0049 -0.0108029 0)
(10.0135 -0.00926225 0)
(10.0217 -0.0074749 0)
(10.0296 -0.00553951 0)
(9.99018 0.0534618 0)
(9.93561 0.0901518 0)
(9.90098 0.0906274 0)
(9.88515 0.0687561 0)
(9.8878 0.0418175 0)
(9.90121 0.0186563 0)
(9.91856 0.0014139 0)
(9.93626 -0.0104011 0)
(9.95285 -0.0179472 0)
(9.96786 -0.0224007 0)
(9.98129 -0.0246571 0)
(9.99332 -0.0253977 0)
(10.0042 -0.0251008 0)
(10.0141 -0.0241233 0)
(10.0232 -0.0227023 0)
(10.0318 -0.0210076 0)
(10.0399 -0.0191618 0)
(10.0475 -0.0172401 0)
(9.9819 0.086247 0)
(9.89548 0.124257 0)
(9.85817 0.109883 0)
(9.85209 0.0697731 0)
(9.87033 0.0303367 0)
(9.89842 0.00144674 0)
(9.92657 -0.0172075 0)
(9.95134 -0.0283247 0)
(9.9722 -0.0344251 0)
(9.9896 -0.0373358 0)
(10.0042 -0.0382128 0)
(10.0168 -0.0378057 0)
(10.0276 -0.036621 0)
(10.0372 -0.0349828 0)
(10.0459 -0.033089 0)
(10.0539 -0.0310873 0)
(10.0613 -0.02907 0)
(10.0683 -0.0270806 0)
(9.96925 0.133989 0)
(9.83823 0.163088 0)
(9.80793 0.12259 0)
(9.82311 0.0587991 0)
(9.86512 0.00730697 0)
(9.91138 -0.0240283 0)
(9.95035 -0.0405932 0)
(9.98048 -0.0483747 0)
(10.0034 -0.0512395 0)
(10.0212 -0.0515424 0)
(10.0353 -0.0504206 0)
(10.0469 -0.0485163 0)
(10.0565 -0.0462592 0)
(10.0649 -0.0438645 0)
(10.0723 -0.0414308 0)
(10.0789 -0.0390772 0)
(10.0852 -0.0368862 0)
(10.091 -0.0348385 0)
(9.94951 0.20714 0)
(9.76128 0.207022 0)
(9.75726 0.123477 0)
(9.81042 0.0320103 0)
(9.88382 -0.027862 0)
(9.94874 -0.0559963 0)
(9.99526 -0.066075 0)
(10.0266 -0.0678043 0)
(10.048 -0.0659754 0)
(10.063 -0.063196 0)
(10.0743 -0.0598884 0)
(10.083 -0.0564963 0)
(10.09 -0.0531531 0)
(10.0959 -0.0501367 0)
(10.1011 -0.0473013 0)
(10.1056 -0.0446741 0)
(10.1099 -0.0423832 0)
(10.114 -0.0403282 0)
(9.91094 0.322718 0)
(9.65923 0.254544 0)
(9.71887 0.107406 0)
(9.83329 -0.0119236 0)
(9.94173 -0.0726533 0)
(10.0199 -0.0901637 0)
(10.0662 -0.0893243 0)
(10.0917 -0.0831415 0)
(10.1058 -0.0760409 0)
(10.1141 -0.0696214 0)
(10.1198 -0.0644971 0)
(10.1236 -0.0600792 0)
(10.1262 -0.0563831 0)
(10.1281 -0.0532747 0)
(10.1299 -0.0503416 0)
(10.1313 -0.04759 0)
(10.1327 -0.0453871 0)
(10.1343 -0.0435525 0)
(9.84404 0.43511 0)
(9.53798 0.261026 0)
(9.7269 0.0591347 0)
(9.92367 -0.0731158 0)
(10.0584 -0.121553 0)
(10.1344 -0.120193 0)
(10.1664 -0.105283 0)
(10.1758 -0.090621 0)
(10.1759 -0.0784847 0)
(10.1725 -0.0703807 0)
(10.1686 -0.0644378 0)
(10.1647 -0.0597607 0)
(10.1605 -0.0556951 0)
(10.1568 -0.0526568 0)
(10.1537 -0.0498461 0)
(10.1505 -0.0471181 0)
(10.1476 -0.0453065 0)
(10.1457 -0.0440879 0)
(9.83598 0.319666 0)
(9.55021 0.0912511 0)
(9.91739 -0.0687256 0)
(10.1507 -0.160112 0)
(10.2634 -0.172136 0)
(10.3032 -0.142728 0)
(10.2978 -0.112097 0)
(10.276 -0.0899573 0)
(10.2516 -0.0753893 0)
(10.2302 -0.0674606 0)
(10.2132 -0.0619445 0)
(10.1983 -0.0574648 0)
(10.1842 -0.0528812 0)
(10.1714 -0.0489192 0)
(10.1601 -0.0449543 0)
(10.1494 -0.0416366 0)
(10.1403 -0.0409553 0)
(10.1327 -0.0403921 0)
(10.2049 -0.0633775 0)
(10.4095 -0.191706 0)
(10.7164 -0.282558 0)
(10.6879 -0.282287 0)
(10.6191 -0.230103 0)
(10.5417 -0.163669 0)
(10.4545 -0.117044 0)
(10.3763 -0.092501 0)
(10.3137 -0.0798709 0)
(10.2654 -0.0678689 0)
(10.2262 -0.0589172 0)
(10.1917 -0.0543227 0)
(10.1604 -0.0537322 0)
(10.1328 -0.0526583 0)
(10.1064 -0.0517476 0)
(10.0822 -0.0507094 0)
(10.0645 -0.0463927 0)
(10.0475 -0.042102 0)
(9.41631 4.45107 0)
(12.7294 2.07612 0)
(12.5649 0.621213 0)
(11.569 0.127657 0)
(10.9309 0.00343481 0)
(10.5866 -0.00206746 0)
(10.3638 0.0123115 0)
(10.2022 0.0302368 0)
(10.0795 0.0412052 0)
(9.97727 0.0358157 0)
(9.88483 0.0251227 0)
(9.79872 0.0219483 0)
(9.72287 0.0252572 0)
(9.6553 0.0213102 0)
(9.59822 0.0165235 0)
(9.54944 0.0154011 0)
(9.49768 0.000306074 0)
(9.44803 -0.0116775 0)
(-0.0276593 0.0935846 0)
(0.136921 -0.183493 0)
(0.324888 -0.305977 0)
(0.525433 -0.315252 0)
(0.703023 -0.272228 0)
(0.833702 -0.211239 0)
(0.910148 -0.146489 -8.59917e-20)
(0.94083 -0.0826253 8.66065e-20)
(0.920067 -0.0202816 0)
(0.859447 0.0344729 9.18167e-20)
(0.772296 0.0739675 0)
(0.67297 0.0920967 0)
(0.578912 0.0878759 0)
(0.505962 0.0668226 -1.43159e-19)
(0.455972 0.0378037 0)
(0.412766 0.00991407 0)
(0.353522 -0.00929676 1.87793e-19)
(0.263688 -0.00942137 0)
(0.136424 0.0281107 0)
(-0.042528 0.112168 0)
(-0.298769 0.186203 -1.65623e-19)
(-0.592384 0.235175 0)
(-0.913701 0.266852 -7.63656e-20)
(-1.25011 0.295925 0)
(-1.58959 0.323611 0)
(-1.9294 0.336502 -4.13449e-20)
(-2.26195 0.335682 0)
(-2.57919 0.326594 3.45494e-20)
(-2.87811 0.310475 0)
(-3.15526 0.289682 -3.13449e-20)
(-3.40974 0.266545 0)
(-3.64116 0.242659 0)
(-3.85025 0.219059 0)
(-4.03809 0.196454 0)
(-4.20613 0.175221 0)
(-4.35592 0.155567 2.82295e-20)
(-4.48906 0.137529 0)
(-4.60703 0.121035 -5.55701e-20)
(-4.71121 0.105958 0)
(-4.80282 0.0921389 5.47713e-20)
(-4.88292 0.0794153 0)
(-4.9524 0.0676352 0)
(-5.01203 0.0566704 -5.35492e-20)
(-5.06242 0.0464241 0)
(-5.10407 0.0368369 -5.26575e-20)
(-5.13741 0.0278916 5.21797e-20)
(-5.16283 0.0196323 0)
(-5.18071 0.0122064 5.11528e-20)
(-5.19133 0.00586183 5.06004e-20)
(-5.19487 0.000809264 0)
(-5.19255 -0.00314623 0)
(-5.18564 -0.00644531 0)
(-5.17426 -0.00936835 0)
(-5.15875 -0.0120797 0)
(-5.13925 -0.0146486 -4.61811e-20)
(-5.11591 -0.017089 0)
(-5.08884 -0.0194122 4.4316e-20)
(-5.05815 -0.0216271 0)
(-5.02394 -0.0237361 0)
(-4.98631 -0.0257409 -4.11379e-20)
(-4.94536 -0.027642 0)
(-4.9012 -0.0294394 3.87623e-20)
(-4.85394 -0.0311329 0)
(-4.8037 -0.0327223 0)
(-4.75058 -0.0342078 0)
(-4.69472 -0.0355891 -3.33828e-20)
(-4.63624 -0.0368666 0)
(-4.57525 -0.0380414 0)
(-4.51189 -0.0391139 -2.87854e-20)
(-4.44628 -0.0400849 0)
(-4.37857 -0.0409558 -2.5444e-20)
(-4.30887 -0.0417278 0)
(-4.23732 -0.0424028 0)
(-4.16405 -0.0429824 0)
(-4.08919 -0.0434688 1.80665e-20)
(-4.01288 -0.0438641 0)
(-3.93523 -0.0441707 0)
(-3.85639 -0.0443912 1.18844e-20)
(-3.77647 -0.0445283 9.69057e-21)
(-3.69559 -0.0445846 0)
(-3.61388 -0.0445632 5.08868e-21)
(-3.53144 -0.0444673 0)
(-3.4484 -0.0443004 3.61092e-22)
(-3.36485 -0.0440673 0)
(-3.28091 -0.0437744 -1.01291e-20)
(-3.19666 -0.0434304 0)
(-3.11219 -0.0430486 2.13722e-20)
(-3.0276 -0.0426479 0)
(-2.94293 -0.042257 0)
(-2.85827 -0.0419187 0)
(-2.77363 -0.0416954 -4.65652e-20)
(-2.68904 -0.0416697 0)
(-2.60453 -0.0419314 6.08411e-20)
(-2.52004 -0.0425365 0)
(-2.43555 -0.0434264 -7.65117e-20)
(-2.3513 -0.0443292 -8.48908e-20)
(-2.26753 -0.0447841 -9.35996e-20)
(-2.18451 -0.0445762 0)
(-2.10239 -0.0439714 0)
(-2.02121 -0.0432731 0)
(-1.94097 -0.0425681 0)
(-1.86168 -0.041868 0)
(-1.78336 -0.0411736 0)
(-1.70605 -0.0404867 0)
(-1.62976 -0.0398111 0)
(-1.55452 -0.0391525 1.92717e-19)
(-1.48034 -0.038518 2.07039e-19)
(-1.40723 -0.0379131 0)
(-1.33522 -0.0373266 0)
(-1.26433 -0.0367014 0)
(-1.1946 -0.0360438 2.74313e-19)
(-1.12602 -0.0354099 0)
(-1.0586 -0.0347944 0)
(-0.99235 -0.0341989 0)
(-0.927263 -0.033625 0)
(-0.863342 -0.0330746 -3.90968e-19)
(-0.800584 -0.0325504 0)
(-0.738986 -0.0320555 0)
(-0.678542 -0.0315935 4.89164e-19)
(-0.619243 -0.0311657 -5.2887e-19)
(-0.561085 -0.0307757 0)
(-0.504059 -0.030434 -6.225e-19)
(-0.448152 -0.0301646 0)
(-0.393345 -0.0300117 7.41509e-19)
(-0.339617 -0.0299865 0)
(-0.286954 -0.0300504 0)
(-0.235341 -0.0301903 0)
(-0.184749 -0.0304174 0)
(-0.135153 -0.0307471 0)
(-0.0865974 -0.0311983 -2.84729e-18)
(-0.0392935 -0.0316524 -3.2782e-18)
(0.00681251 -0.0313507 0)
(0.0522312 -0.0298508 0)
(0.0969718 -0.0280002 0)
(0.140893 -0.0262823 2.68431e-18)
(0.183902 -0.0247496 0)
(0.225979 -0.0233762 0)
(0.267146 -0.0221387 0)
(0.307435 -0.0210171 2.03969e-18)
(0.346878 -0.0199944 -1.93344e-18)
(0.385502 -0.0190563 0)
(0.423334 -0.0181912 0)
(0.460398 -0.0173901 -1.68674e-18)
(0.496719 -0.0166454 -1.62209e-18)
(0.53232 -0.0159509 0)
(0.567224 -0.0153015 0)
(0.601454 -0.014693 1.46384e-18)
(0.635032 -0.0141217 -1.42036e-18)
(0.667981 -0.0135845 0)
(0.700323 -0.0130788 0)
(0.732081 -0.0126022 -1.3101e-18)
(0.763278 -0.0121529 0)
(0.793936 -0.0117289 0)
(0.824079 -0.0113287 -1.2226e-18)
(0.853729 -0.010951 0)
(0.882911 -0.0105945 -1.17353e-18)
(0.911647 -0.0102581 0)
(0.939961 -0.00994052 0)
(0.967875 -0.00964088 0)
(0.995413 -0.00935805 1.09154e-18)
(1.0226 -0.00909094 0)
(1.04944 -0.00883826 0)
(1.07597 -0.00859858 0)
(1.1022 -0.00837009 0)
(1.12814 -0.00815055 0)
(1.15378 -0.00793703 0)
(1.17913 -0.00772569 9.82744e-19)
(1.20416 -0.00751135 9.69825e-19)
(1.22883 -0.00728703 0)
(1.25307 -0.00704319 0)
(1.27678 -0.00676632 0)
(1.2998 -0.00643782 -9.24482e-19)
(1.32187 -0.00602795 0)
(1.34261 -0.00549797 1.81386e-18)
(1.36154 -0.00476088 -1.80049e-18)
(1.37729 -0.0037252 -1.79176e-18)
(1.38987 -0.00195378 1.79006e-18)
(1.39029 0.00132794 -1.79544e-18)
(1.38759 0.00807578 1.80876e-18)
(1.30832 0.0198894 0)
(0.0962961 -0.26858 0)
(0.334148 -0.681173 0)
(0.514379 -0.706744 1.57337e-19)
(0.612132 -0.571697 0)
(0.663226 -0.409275 -1.11109e-19)
(0.683756 -0.254193 -1.08067e-19)
(0.677815 -0.112518 -5.6231e-20)
(0.647528 0.0152793 -5.61749e-20)
(0.604612 0.125163 0)
(0.545495 0.211782 -6.07717e-20)
(0.46877 0.267398 0)
(0.374396 0.283375 0)
(0.258766 0.256717 1.70382e-19)
(0.111684 0.211519 9.82397e-20)
(-0.0731002 0.205846 -1.84767e-19)
(-0.299139 0.271036 -1.44236e-19)
(-0.576987 0.382539 -5.73491e-20)
(-0.902958 0.51246 0)
(-1.25666 0.641989 0)
(-1.61487 0.75605 0)
(-1.97059 0.841856 -2.86013e-20)
(-2.31613 0.895605 0)
(-2.64614 0.919201 6.90876e-20)
(-2.95303 0.915714 0)
(-3.23269 0.889342 0)
(-3.48351 0.845224 1.98199e-20)
(-3.70405 0.788676 0)
(-3.89515 0.725238 -1.97608e-20)
(-4.05867 0.659149 -4.17959e-20)
(-4.19817 0.593125 2.01667e-20)
(-4.31656 0.529268 0)
(-4.41673 0.469366 0)
(-4.5014 0.414252 0)
(-4.57298 0.36428 -4.42566e-20)
(-4.63353 0.319412 -4.47631e-20)
(-4.68474 0.279375 -2.21886e-20)
(-4.728 0.243761 0)
(-4.7644 0.212086 4.53056e-20)
(-4.79486 0.183851 0)
(-4.82007 0.158577 -4.58779e-20)
(-4.84065 0.135822 0)
(-4.85706 0.115192 0)
(-4.86975 0.096344 4.60891e-20)
(-4.87907 0.0789889 0)
(-4.88538 0.0628855 1.38169e-19)
(-4.88898 0.0478391 -4.561e-20)
(-4.89015 0.0337142 0)
(-4.88914 0.02048 -4.4941e-20)
(-4.88621 0.00825233 -4.44846e-20)
(-4.88163 -0.00280657 0)
(-4.87448 -0.012752 0)
(-4.86366 -0.0218797 0)
(-4.84916 -0.0304333 0)
(-4.83087 -0.0385275 0)
(-4.80883 -0.0462319 4.02188e-20)
(-4.7831 -0.0535836 7.9168e-20)
(-4.75374 -0.0606038 -3.84415e-20)
(-4.72086 -0.0673037 0)
(-4.68452 -0.0736891 7.34897e-20)
(-4.64484 -0.0797627 -3.59685e-20)
(-4.6019 -0.0855251 0)
(-4.55581 -0.0909762 -3.32685e-20)
(-4.50668 -0.0961158 0)
(-4.4546 -0.100945 0)
(-4.3997 -0.105467 -5.98951e-20)
(-4.3421 -0.109679 2.8387e-20)
(-4.2819 -0.113584 -5.47034e-20)
(-4.21923 -0.117184 5.19846e-20)
(-4.15422 -0.120482 2.42952e-20)
(-4.087 -0.123483 0)
(-4.01768 -0.126193 2.13622e-20)
(-3.9464 -0.128616 0)
(-3.87328 -0.13076 0)
(-3.79846 -0.132632 0)
(-3.72206 -0.13424 1.56355e-20)
(-3.64421 -0.135593 0)
(-3.56503 -0.1367 2.37679e-20)
(-3.48464 -0.13757 -2.9976e-20)
(-3.40318 -0.138215 -7.94223e-21)
(-3.32075 -0.138644 0)
(-3.23747 -0.138869 -4.14143e-21)
(-3.15346 -0.138902 0)
(-3.06883 -0.138754 -2.91677e-22)
(-2.98367 -0.138437 0)
(-2.8981 -0.137964 8.11461e-21)
(-2.8122 -0.137347 -2.35714e-20)
(-2.72608 -0.136596 -1.69683e-20)
(-2.63983 -0.135724 0)
(-2.55353 -0.134736 0)
(-2.46727 -0.13364 0)
(-2.38116 -0.132434 3.61874e-20)
(-2.29531 -0.131111 0)
(-2.20984 -0.129641 -4.66595e-20)
(-2.12492 -0.127969 0)
(-2.04068 -0.126043 1.71893e-19)
(-1.95719 -0.123888 6.36368e-20)
(-1.87447 -0.121605 6.96685e-20)
(-1.79245 -0.1193 0)
(-1.71112 -0.117032 0)
(-1.63052 -0.114798 0)
(-1.55074 -0.112576 0)
(-1.47181 -0.110352 0)
(-1.39377 -0.108121 2.19507e-19)
(-1.31667 -0.105885 2.35e-19)
(-1.24053 -0.103645 0)
(-1.16537 -0.101407 -1.3477e-19)
(-1.09123 -0.0991711 -1.4355e-19)
(-1.01812 -0.0969403 0)
(-0.946081 -0.0947163 -3.23058e-19)
(-0.875117 -0.0925037 0)
(-0.805224 -0.0903158 1.81336e-19)
(-0.736412 -0.0881585 0)
(-0.668692 -0.0860321 0)
(-0.602069 -0.0839388 -4.3448e-19)
(-0.536544 -0.0818802 0)
(-0.472118 -0.0798579 2.4485e-19)
(-0.408793 -0.0778747 0)
(-0.346565 -0.0759365 0)
(-0.28543 -0.0740521 2.89791e-19)
(-0.225379 -0.0722194 3.09098e-19)
(-0.166403 -0.0704331 0)
(-0.108499 -0.0686961 -3.46397e-19)
(-0.0516717 -0.0670087 0)
(0.00408295 -0.0653623 3.82651e-19)
(0.0588059 -0.06375 7.66178e-19)
(0.112531 -0.062183 0)
(0.165258 -0.0606762 0)
(0.216988 -0.059234 0)
(0.267734 -0.0578541 0)
(0.317532 -0.0565389 7.09226e-19)
(0.366449 -0.055277 2.09641e-18)
(0.414573 -0.053898 0)
(0.461816 -0.0522518 0)
(0.508038 -0.0504774 0)
(0.553308 -0.0487304 -6.65614e-19)
(0.597709 -0.0470626 0)
(0.641267 -0.0454823 0)
(0.684001 -0.0439871 1.28791e-18)
(0.725931 -0.0425703 6.36934e-19)
(0.767079 -0.0412247 6.3241e-19)
(0.807466 -0.0399435 0)
(0.847114 -0.0387213 0)
(0.886045 -0.0375537 6.15866e-19)
(0.924279 -0.0364369 -6.09629e-19)
(0.961838 -0.035368 0)
(0.998743 -0.0343447 0)
(1.03502 -0.0333646 -5.96771e-19)
(1.07068 -0.032426 1.77633e-18)
(1.10575 -0.0315272 0)
(1.14025 -0.0306669 0)
(1.17421 -0.0298438 5.80303e-19)
(1.20765 -0.0290567 0)
(1.24058 -0.0283045 1.1449e-18)
(1.27303 -0.0275862 -5.68517e-19)
(1.30502 -0.0269007 0)
(1.33657 -0.0262473 5.62405e-19)
(1.36771 -0.0256248 1.11753e-18)
(1.39846 -0.0250321 0)
(1.42883 -0.0244679 0)
(1.45886 -0.023931 -5.49571e-19)
(1.48855 -0.0234193 0)
(1.51793 -0.0229308 1.08643e-18)
(1.54702 -0.0224624 0)
(1.57581 -0.0220104 0)
(1.60434 -0.0215699 0)
(1.63258 -0.0211341 0)
(1.66055 -0.020694 -5.28998e-19)
(1.68821 -0.0202378 -5.26231e-19)
(1.71554 -0.0197489 0)
(1.74247 -0.0192046 0)
(1.76891 -0.0185734 0)
(1.79472 -0.0178097 5.16138e-19)
(1.81969 -0.0168464 0)
(1.84351 -0.0155803 -1.02486e-18)
(1.86575 -0.0138346 1.0226e-18)
(1.88548 -0.0113245 1.02222e-18)
(1.90228 -0.00730955 1.02331e-18)
(1.91249 -0.000518858 1.02848e-18)
(1.92479 0.0124251 1.02037e-18)
(1.90522 0.036187 0)
(0.116527 -0.859613 0)
(0.26926 -1.05725 0)
(0.316477 -0.826581 -1.26289e-19)
(0.315857 -0.584804 -1.08132e-19)
(0.29849 -0.374314 1.00445e-19)
(0.267349 -0.18916 1.00618e-19)
(0.221242 -0.0236696 -6.46863e-22)
(0.159425 0.124111 0)
(0.0817765 0.254703 0)
(-0.0129321 0.365688 0)
(-0.128238 0.451473 0)
(-0.272192 0.512546 0)
(-0.457714 0.56625 -2.6765e-19)
(-0.695363 0.640774 0)
(-0.981498 0.753171 6.6356e-20)
(-1.30026 0.89514 5.72357e-20)
(-1.63367 1.04338 0)
(-1.96478 1.17757 0)
(-2.27831 1.28514 0)
(-2.56239 1.35903 0)
(-2.81164 1.39496 3.49131e-20)
(-3.02571 1.3927 0)
(-3.20601 1.35687 -3.23497e-20)
(-3.35532 1.29471 0)
(-3.47813 1.21356 0)
(-3.57904 1.1198 0)
(-3.66285 1.01954 -6.85847e-20)
(-3.73394 0.918115 0)
(-3.79583 0.819662 3.31138e-20)
(-3.85131 0.726984 -7.06962e-20)
(-3.9023 0.641601 0)
(-3.9501 0.564252 0)
(-3.99546 0.49499 0)
(-4.03876 0.433432 3.65615e-20)
(-4.0801 0.37893 3.71492e-20)
(-4.11944 0.330709 0)
(-4.15665 0.287975 0)
(-4.19154 0.249965 -7.7798e-20)
(-4.22394 0.215985 -7.81914e-20)
(-4.25369 0.185424 7.84248e-20)
(-4.28064 0.157762 0)
(-4.30468 0.132571 0)
(-4.32571 0.1095 0)
(-4.34367 0.0882672 0)
(-4.3585 0.0686369 -7.70096e-20)
(-4.37013 0.0504096 -7.69118e-20)
(-4.3785 0.0334007 7.6269e-20)
(-4.38347 0.0174095 0)
(-4.38487 0.00217944 0)
(-4.38254 -0.0125759 0)
(-4.37643 -0.0269901 0)
(-4.36659 -0.0409769 -7.11059e-20)
(-4.35307 -0.0544442 0)
(-4.33592 -0.0673807 0)
(-4.31517 -0.0797907 -6.69943e-20)
(-4.29087 -0.0916829 -6.49687e-20)
(-4.2631 -0.103065 0)
(-4.23192 -0.113941 1.24569e-19)
(-4.1974 -0.124312 -6.00307e-20)
(-4.15964 -0.13418 5.82541e-20)
(-4.11873 -0.143541 0)
(-4.07475 -0.152394 0)
(-4.02781 -0.160738 0)
(-3.97801 -0.168571 0)
(-3.92546 -0.175896 4.84225e-20)
(-3.87027 -0.182714 9.37759e-20)
(-3.81256 -0.189026 4.40572e-20)
(-3.75244 -0.194834 -4.1785e-20)
(-3.69003 -0.200144 0)
(-3.62545 -0.204964 7.54245e-20)
(-3.55883 -0.2093 7.05414e-20)
(-3.4903 -0.213162 6.55418e-20)
(-3.41997 -0.216561 -6.04265e-20)
(-3.34797 -0.219507 0)
(-3.27442 -0.222014 -7.40981e-20)
(-3.19946 -0.224095 0)
(-3.1232 -0.225764 2.00949e-20)
(-3.04577 -0.227036 1.58718e-20)
(-2.96728 -0.227929 0)
(-2.88785 -0.228458 0)
(-2.80759 -0.228641 1.53603e-20)
(-2.72663 -0.228496 0)
(-2.64507 -0.228041 2.92555e-21)
(-2.56301 -0.227294 0)
(-2.48057 -0.226275 9.99768e-21)
(-2.39784 -0.225002 3.47235e-20)
(-2.31492 -0.223496 0)
(-2.23191 -0.221776 0)
(-2.1489 -0.21986 0)
(-2.06599 -0.217766 4.45832e-20)
(-1.98328 -0.215508 0)
(-1.90086 -0.213099 5.94052e-20)
(-1.81883 -0.210539 0)
(-1.73728 -0.207814 0)
(-1.65629 -0.204898 -1.67057e-19)
(-1.57587 -0.201775 0)
(-1.49607 -0.198459 -9.93156e-20)
(-1.41687 -0.194994 0)
(-1.33831 -0.191436 -1.16595e-19)
(-1.26044 -0.187824 0)
(-1.18333 -0.184177 0)
(-1.10703 -0.180501 0)
(-1.03158 -0.176803 -4.62703e-19)
(-0.957011 -0.173089 -1.65047e-19)
(-0.883355 -0.169367 0)
(-0.810641 -0.165643 0)
(-0.738892 -0.161923 0)
(-0.668132 -0.158212 0)
(-0.598377 -0.154514 2.18844e-19)
(-0.529638 -0.150836 -4.58478e-19)
(-0.461922 -0.147186 -2.42678e-19)
(-0.395241 -0.143573 5.07671e-19)
(-0.329605 -0.140002 5.3347e-19)
(-0.26502 -0.136479 2.81385e-19)
(-0.201487 -0.133008 0)
(-0.139007 -0.129587 6.1624e-19)
(-0.0775832 -0.126221 0)
(-0.0172156 -0.122911 -6.73565e-19)
(0.0421017 -0.11966 -3.45161e-19)
(0.100382 -0.116469 0)
(0.157632 -0.113341 6.93127e-19)
(0.213857 -0.110277 3.48832e-19)
(0.269067 -0.10728 0)
(0.323272 -0.104339 3.48725e-19)
(0.376482 -0.101443 -1.05282e-18)
(0.428704 -0.0986016 0)
(0.479953 -0.0958247 0)
(0.530245 -0.0931152 0)
(0.579598 -0.090474 0)
(0.628034 -0.0879056 -7.07749e-19)
(0.675588 -0.085417 -7.10241e-19)
(0.722282 -0.0830233 0)
(0.768083 -0.0807116 0)
(0.812976 -0.0784427 0)
(0.857012 -0.0762154 0)
(0.900237 -0.0740461 0)
(0.942665 -0.0719433 0)
(0.984309 -0.0699096 -7.14014e-19)
(1.02519 -0.0679448 -1.08881e-21)
(1.06532 -0.0660474 0)
(1.10471 -0.0642152 0)
(1.1434 -0.0624462 -7.13845e-19)
(1.1814 -0.0607387 0)
(1.21873 -0.0590911 7.14892e-19)
(1.25541 -0.0575018 7.14031e-19)
(1.29147 -0.0559695 0)
(1.32691 -0.0544932 0)
(1.36177 -0.0530716 -7.14563e-19)
(1.39606 -0.0517036 -1.42733e-18)
(1.4298 -0.0503884 0)
(1.46302 -0.049125 0)
(1.49574 -0.0479123 0)
(1.52797 -0.0467495 -7.13256e-19)
(1.55975 -0.0456357 7.12874e-19)
(1.59108 -0.0445698 0)
(1.622 -0.0435508 1.42287e-18)
(1.65252 -0.0425775 7.10417e-19)
(1.68266 -0.0416487 -1.42082e-18)
(1.71245 -0.0407625 0)
(1.7419 -0.0399171 0)
(1.77104 -0.0391098 -1.41701e-18)
(1.79989 -0.0383374 -7.08218e-19)
(1.82845 -0.0375954 0)
(1.85674 -0.0368782 0)
(1.88478 -0.0361783 0)
(1.91256 -0.0354854 0)
(1.94009 -0.0347861 -1.40688e-18)
(1.96734 -0.034062 0)
(1.99429 -0.0332883 0)
(2.0209 -0.0324305 0)
(2.04708 -0.0314409 0)
(2.07272 -0.0302511 0)
(2.09765 -0.0287602 0)
(2.1216 -0.0268169 -1.39754e-18)
(2.14425 -0.0241696 0)
(2.16492 -0.0204129 0)
(2.18338 -0.0147546 -2.81631e-18)
(2.19681 -0.00587715 1.41818e-18)
(2.2115 0.00887704 -1.41629e-18)
(2.20641 0.0362559 1.41175e-18)
(0.0334433 -1.16642 0)
(0.0699322 -1.03046 3.59802e-19)
(0.0342519 -0.747481 0)
(-0.0101417 -0.506995 1.10864e-19)
(-0.0654007 -0.284279 0)
(-0.133181 -0.0746896 0)
(-0.216335 0.122171 -8.28414e-20)
(-0.317235 0.305569 0)
(-0.438008 0.475057 0)
(-0.581254 0.631187 0)
(-0.750828 0.77648 0)
(-0.95195 0.91703 0)
(-1.18728 1.06097 2.04336e-19)
(-1.45129 1.21175 9.24932e-20)
(-1.7295 1.36314 -8.37314e-20)
(-2.00355 1.50181 0)
(-2.25764 1.61388 0)
(-2.48171 1.69 0)
(-2.67094 1.7264 0)
(-2.82394 1.72438 0)
(-2.94324 1.68778 6.01695e-20)
(-3.03437 1.62184 5.88503e-20)
(-3.10344 1.53337 -5.79947e-20)
(-3.15678 1.43003 5.76906e-20)
(-3.19979 1.31854 0)
(-3.23682 1.2043 0)
(-3.27134 1.0917 5.58388e-20)
(-3.30571 0.984021 0)
(-3.34121 0.883385 0)
(-3.37835 0.790844 5.86929e-20)
(-3.41715 0.70664 6.15124e-20)
(-3.45725 0.630549 6.22242e-20)
(-3.49813 0.56204 0)
(-3.53917 0.500419 0)
(-3.57975 0.444924 -6.40352e-20)
(-3.61931 0.394799 0)
(-3.65737 0.349331 0)
(-3.69349 0.307878 6.43086e-20)
(-3.72735 0.269874 -6.60297e-20)
(-3.75866 0.23483 6.60403e-20)
(-3.78719 0.202332 0)
(-3.81276 0.172027 0)
(-3.83522 0.143619 1.30014e-19)
(-3.85443 0.116858 0)
(-3.8703 0.0915317 1.28626e-19)
(-3.88273 0.0674633 1.91037e-19)
(-3.89164 0.0445089 -1.89395e-19)
(-3.89696 0.0225481 1.25329e-19)
(-3.89865 0.00146365 0)
(-3.89671 -0.0188604 0)
(-3.89117 -0.0385025 1.19874e-19)
(-3.8821 -0.0574815 5.84061e-20)
(-3.86952 -0.0757935 0)
(-3.85347 -0.0934374 0)
(-3.83398 -0.110413 5.49e-20)
(-3.81111 -0.126718 1.0825e-19)
(-3.78491 -0.142354 0)
(-3.75544 -0.157315 -1.01798e-19)
(-3.72277 -0.171599 9.99682e-20)
(-3.68698 -0.185202 -9.69964e-20)
(-3.64815 -0.198117 0)
(-3.60638 -0.210341 0)
(-3.56174 -0.221866 0)
(-3.51434 -0.232692 0)
(-3.46428 -0.242823 0)
(-3.41168 -0.252257 -7.59234e-20)
(-3.35663 -0.260996 0)
(-3.29925 -0.269042 0)
(-3.23965 -0.276405 0)
(-3.17796 -0.283092 -1.22623e-19)
(-3.11429 -0.289113 -5.67038e-20)
(-3.04875 -0.294482 -5.26026e-20)
(-2.98148 -0.299211 9.80399e-20)
(-2.91259 -0.303317 -4.53624e-20)
(-2.8422 -0.306817 3.98104e-20)
(-2.77043 -0.309729 0)
(-2.6974 -0.312072 -3.08876e-20)
(-2.62323 -0.313867 0)
(-2.54804 -0.315137 0)
(-2.47193 -0.315904 0)
(-2.39503 -0.31619 -2.5488e-20)
(-2.31743 -0.316021 8.48399e-21)
(-2.23926 -0.315419 4.76637e-21)
(-2.16061 -0.31441 -2.98469e-21)
(-2.08158 -0.313017 -2.10115e-20)