/*--------------------------------*- C++ -*----------------------------------*\
  =========                 |
  \\      /  F ield         | OpenFOAM: The Open Source CFD Toolbox
   \\    /   O peration     | Website:  https://openfoam.org
    \\  /    A nd           | Version:  8
     \\/     M anipulation  |
\*---------------------------------------------------------------------------*/
FoamFile
{
    version     2.0;
    format      ascii;
    class       volScalarField;
    location    "1800";
    object      omega;
}
// * * * * * * * * * * * * * * * * * * * * * * * * * * * * * * * * * * * * * //

dimensions      [0 0 -1 0 0 0 0];

internalField   nonuniform List<scalar> 
12225
(
32582.3
32582.3
39423.8
38804.4
32582.3
32582.3
32582.3
32582.3
32582.3
32582.3
32582.3
32582.3
32582.3
32582.3
40531.6
44390.8
39926
32582.3
2542.28
7245.02
10089.5
14813.7
17206
15917.9
15470.1
17469.9
16435.2
16155.7
16056.2
17677.8
18195.9
17511.2
17567.4
18091.5
17787.3
17360
632.137
876.93
1845.54
3046.93
4130.53
5019.73
5509.74
6127.68
6480.45
6764.01
7018.31
7347.75
7546.15
7721.25
7855.87
7992.4
8104.78
8184.73
462.864
486.403
652.335
806.458
986.604
1193.63
1364.92
1567.06
1716.02
1873.82
2007.93
2184.66
2320.82
2469.66
2573.72
2695.28
2763.63
2854.43
440.014
445.731
471.051
499.516
523.027
572.381
612.818
667.891
706.998
758.571
798.455
856.314
898.908
953.371
987.914
1035.03
1057.12
1096.05
438.342
437.675
439.695
443.333
447.819
455.194
463.093
477.647
486.946
502.227
512.748
530.172
542.251
560.11
570.937
587.386
595.41
610.106
438.873
436.847
435.29
434.026
433.016
433.326
433.573
434.948
436.34
439.183
441.132
444.911
447.384
452.118
454.902
459.852
462.286
467.162
438.944
436.878
434.763
433.004
431.126
429.752
428.401
427.575
426.802
426.383
426.14
426.179
426.432
426.795
427.186
428.085
428.567
429.845
438.966
436.845
434.69
432.797
430.848
429.168
427.476
426.05
424.631
423.446
422.238
421.325
420.347
419.716
418.925
418.564
417.933
417.781
438.984
436.813
434.674
432.728
430.797
429.046
427.31
425.745
424.186
422.794
421.388
420.158
418.906
417.837
416.736
415.819
414.856
414.065
438.993
436.794
434.671
432.694
430.781
428.998
427.272
425.663
424.102
422.646
421.233
419.915
418.635
417.445
416.288
415.214
414.171
413.2
438.999
436.783
434.668
432.673
430.768
428.968
427.249
425.622
424.065
422.591
421.179
419.841
418.56
417.344
416.179
415.073
414.013
413.006
439
436.777
434.664
432.661
430.756
428.949
427.228
425.594
424.036
422.555
421.142
419.796
418.512
417.289
416.121
415.008
413.943
412.929
439.001
436.774
434.659
432.653
430.746
428.934
427.211
425.572
424.011
422.526
421.109
419.76
418.472
417.246
416.074
414.958
413.889
412.871
438.999
436.77
434.651
432.64
430.728
428.913
427.183
425.541
423.974
422.485
421.063
419.71
418.417
417.187
416.01
414.89
413.817
412.795
438.988
436.741
434.601
432.575
430.644
428.814
427.068
425.413
423.831
422.331
420.895
419.534
418.227
416.99
415.8
414.675
413.588
412.564
438.962
436.662
434.479
432.408
430.441
428.572
426.796
425.107
423.5
421.97
420.513
419.125
417.802
416.541
415.338
414.19
413.095
412.049
438.963
436.662
434.48
432.408
430.441
428.572
426.796
425.105
423.499
421.968
420.512
419.122
417.8
416.537
415.335
414.185
413.091
412.042
438.99
436.74
434.605
432.575
430.648
428.814
427.071
425.411
423.832
422.327
420.894
419.526
418.224
416.98
415.795
414.661
413.582
412.548
439
436.769
434.651
432.638
430.726
428.907
427.177
425.53
423.962
422.468
421.046
419.688
418.394
417.159
415.981
414.856
413.783
412.756
439.001
436.772
434.657
432.647
430.738
428.921
427.195
425.551
423.986
422.495
421.075
419.721
418.43
417.197
416.022
414.9
413.829
412.805
439.004
436.773
434.662
432.651
430.746
428.929
427.207
425.563
424.003
422.513
421.097
419.744
418.458
417.228
416.058
414.94
413.875
412.857
439.015
436.767
434.675
432.651
430.763
428.936
427.232
425.582
424.044
422.554
421.169
419.826
418.579
417.371
416.252
415.169
414.165
413.193
439.062
436.731
434.705
432.639
430.825
428.984
427.384
425.773
424.399
423.026
421.894
420.732
419.827
418.881
418.182
417.435
416.907
416.315
439.259
436.505
434.73
432.776
431.473
430.038
429.374
428.673
428.63
428.859
429.238
429.821
430.993
431.888
433.618
434.842
436.788
438.14
439.585
434.442
434.991
436.434
439.805
443.741
450.943
456.883
466.045
473.758
484.383
493.056
504.348
513.278
524.591
533.208
544.055
551.962
430.273
437.513
451.957
479.831
525.073
570.154
623.541
671.26
725.306
771.348
823.148
865.297
913.318
950.599
994.185
1026.24
1065.21
1092.17
370.019
530.262
670.142
930.459
1265.86
1580.07
1883.53
2143.51
2390.65
2596.09
2792.63
2950.88
3105.88
3225.72
3348.18
3437.68
3535.84
3603.18
313.883
2316.27
3972.22
5527.94
6774.68
7739.03
8433.86
8942.12
9308.91
9572.53
9747.49
9869.19
9936.18
9978.14
9985.94
9982.7
9968.18
9948.27
16112.1
16112.1
21290.5
23176.5
24121
24584.6
24626
24564.8
24400.4
24155.9
23889.4
23620.5
23359.7
23113.7
22884.5
22675
22481.9
22309
11463.3
2494.65
2496.87
2499.12
2501.38
2503.67
2505.98
2508.3
2510.65
2513.02
2515.42
2517.83
2520.27
2522.73
2525.21
2527.72
2530.25
2532.8
2535.37
2537.97
2540.6
2543.25
2545.92
2548.62
2551.34
2554.09
2556.87
2559.67
2562.5
2565.35
2568.23
2571.14
2574.08
2577.04
2580.04
2583.06
2586.11
2589.19
2592.3
2595.43
2598.6
2601.8
2605.03
2608.29
2611.59
2614.91
2618.27
2621.66
2625.08
2628.54
2632.03
2635.55
2639.11
2642.71
2646.33
2650
2653.7
2657.44
3280.79
2665.03
3267.79
3429.83
2676.69
3372.4
3406.67
3504.67
3585.82
3660.71
3737.48
3808.51
3879.15
3946.85
4013.3
4077.84
4141.05
4202.8
4263.28
4322.54
4380.59
4437.58
4493.4
4548.26
4602
4654.82
4706.56
4757.38
4807.16
4855.98
4903.77
4950.57
4996.31
5040.98
5084.52
5126.93
5168.14
5208.12
5246.87
5284.34
5320.66
5355.95
5390.69
5424.48
5457.32
5489.22
5520.23
5550.28
5579.44
5607.61
5634.86
5661.12
5686.44
5710.76
5734.11
5756.46
5777.82
5798.17
5817.52
5835.87
5853.2
5869.53
5884.84
5899.15
5912.44
5924.74
5936.02
5946.31
5955.55
5963.75
5971.13
5978.09
5984.39
5988.24
5992.77
5995.1
5997.69
5999.67
6000.98
6001.1
5999.55
5997.42
5994.24
5990.38
5985.7
5980.33
5974.23
5967.5
5960.1
5952.15
5943.64
5934.62
5925.07
5915.03
5904.52
5893.58
5882.25
5870.59
5858.65
5846.5
5834.19
5821.79
5809.32
5796.8
5784.25
5771.7
5759.15
5746.65
5734.25
5721.99
5709.93
5698.08
5686.49
5675.08
5663.79
5652.43
5640.63
5627.68
5612.68
5592.96
5563.65
5450.72
11463.3
1993.09
993.218
805.627
687.434
618.312
624.585
620.681
609.569
587.259
563.438
540.006
518.639
501.086
489.106
480.792
480.532
481.489
509.755
557.927
641.992
743.267
853.09
961.955
1059.04
1134.1
1176.03
1170.2
1129.11
1051.14
929.202
779.911
648.851
564.89
498.117
459.839
451.792
458.713
477.945
510.031
539.286
581.238
659.519
780.08
955.239
1248.87
1567.4
1799.8
1948.34
2031.38
2060.68
2061.92
2036.34
1996.57
1928.68
1876.05
1818.85
1782.66
1772.36
1677.17
1690.36
1664.41
1630.57
1662.05
1645.07
1645.89
1645.1
1646.18
1649.35
1653.16
1658.23
1663.8
1670.1
1676.73
1683.77
1691.01
1698.46
1706.01
1713.65
1721.31
1728.99
1736.65
1744.27
1751.82
1759.29
1766.65
1773.88
1780.98
1787.93
1794.72
1801.36
1807.8
1814.07
1820.15
1826.09
1831.94
1837.77
1843.74
1850.1
1857.2
1865.55
1873.85
1881.87
1889.73
1897.34
1904.77
1911.96
1918.95
1925.71
1932.25
1938.57
1944.67
1950.55
1956.2
1961.64
1966.85
1971.84
1976.61
1981.15
1985.49
1989.6
1993.5
1997.19
2000.67
2003.94
2007.01
2009.88
2012.57
2015.11
2017.48
2019.65
2021.58
2023.43
2025.07
2026.65
2028.05
2029.09
2029.45
2029
2028.45
2027.73
2026.83
2025.75
2024.5
2023.09
2021.51
2019.78
2017.91
2015.9
2013.76
2011.48
2009.09
2006.58
2003.91
2001.2
1998.35
1995.45
1992.48
1989.45
1986.38
1983.25
1980.09
1976.89
1973.67
1970.43
1967.19
1963.94
1960.71
1957.5
1954.34
1951.22
1948.17
1945.2
1942.27
1939.51
1936.96
1934.69
1933.19
1931.51
1940.34
11463.3
2009.05
813.039
636.291
673.536
674.366
647.443
592.652
533.476
477.901
428.641
387.289
354.735
329.179
309.494
294.363
283.814
275.714
273.664
275.977
286.372
304.868
337.029
380.837
435.581
495.646
556.628
603.354
634.383
632.546
611.269
570.419
509.017
440.406
389.413
377.679
386.635
408.136
441.277
507.104
611.378
754.559
944.515
1124.75
1273.41
1402.51
1511.8
1544.43
1547.82
1508.9
1457.32
1399.45
1342.63
1290.74
1241.82
1204.05
1171.01
1146.69
1128.19
1111.54
1103.9
1096.1
1091.38
1090.76
1088.2
1088.21
1088.97
1090.64
1092.89
1095.61
1098.72
1102.12
1105.76
1109.57
1113.54
1117.6
1121.75
1125.95
1130.19
1134.45
1138.73
1143
1147.26
1151.49
1155.7
1159.86
1163.98
1168.06
1172.09
1176.06
1179.99
1183.88
1187.72
1191.55
1195.38
1199.24
1203.16
1207.19
1211.36
1215.7
1220.1
1224.37
1228.52
1232.56
1236.48
1240.28
1243.96
1247.51
1250.94
1254.25
1257.43
1260.49
1263.41
1266.21
1268.89
1271.43
1273.85
1276.14
1278.31
1280.34
1282.26
1284.04
1285.7
1287.24
1288.66
1289.95
1291.13
1292.2
1293.16
1294
1294.72
1295.33
1295.84
1296.23
1296.52
1296.66
1296.61
1296.32
1295.82
1295.23
1294.55
1293.76
1292.86
1291.87
1290.78
1289.59
1288.31
1286.94
1285.48
1283.94
1282.32
1280.62
1278.84
1276.99
1275.08
1273.1
1271.07
1268.99
1266.86
1264.68
1262.46
1260.2
1257.9
1255.57
1253.22
1250.84
1248.45
1246.05
1243.64
1241.24
1238.86
1236.51
1234.23
1232.03
1229.99
1228.22
1226.89
1226.58
1227.68
1237.56
11463.3
2038.97
1008.57
967.535
893.59
766.358
650.737
545.042
461.48
399.189
352.349
315.879
287.361
265.446
248.692
235.931
226.354
219.41
214.8
213.064
214.129
217.12
225.322
239.42
260.773
289.185
323.553
358.518
389.951
413.147
419.628
413.415
391.552
388.911
421.769
505.711
571.257
626.183
693.274
788.077
918.609
1042.49
1122.87
1190.78
1250.27
1274.8
1253.73
1202.93
1163.91
1109.63
1064.63
1022.24
986.996
957.191
932.684
913.766
898.832
887.998
879.822
874.316
870.726
868.597
867.75
867.722
868.24
869.578
871.351
873.53
876
878.713
881.623
884.686
887.877
891.166
894.537
897.971
901.455
904.975
908.524
912.09
915.667
919.248
922.825
926.394
929.949
933.486
937.004
940.498
943.97
947.42
950.848
954.256
957.648
961.032
964.415
967.806
971.208
974.625
978.049
981.46
984.809
988.063
991.229
994.303
997.282
1000.17
1002.95
1005.64
1008.23
1010.72
1013.11
1015.39
1017.57
1019.65
1021.62
1023.49
1025.25
1026.9
1028.45
1029.89
1031.22
1032.45
1033.57
1034.59
1035.5
1036.31
1037.02
1037.62
1038.12
1038.52
1038.82
1039.01
1039.11
1039.1
1038.99
1038.75
1038.38
1037.87
1037.24
1036.52
1035.71
1034.82
1033.83
1032.76
1031.61
1030.37
1029.05
1027.65
1026.17
1024.62
1022.99
1021.3
1019.53
1017.71
1015.83
1013.88
1011.89
1009.84
1007.75
1005.6
1003.42
1001.19
998.934
996.642
994.322
991.977
989.611
987.228
984.836
982.441
980.053
977.69
975.379
973.152
971.073
969.239
967.796
967.227
968.059
974.013
11463.3
2312.67
1456.28
1173.89
932.479
721.683
556.746
446.156
370.867
318.159
280.475
253.256
233.609
218.883
207.595
198.937
192.417
187.69
184.536
183.06
183.372
184.651
188.444
195.161
205.819
221.434
242.244
265.853
289.774
308.961
324.037
351.223
405.239
503.301
592.201
659.697
727.29
801.982
875.103
939.982
996.059
1044.14
1080.34
1091.56
1069.67
1020.77
987.922
943.874
908.828
873.291
845.694
821.36
801.958
786.174
773.857
764.592
757.828
753.205
750.108
748.756
748.277
748.389
749.439
750.953
752.901
755.22
757.804
760.608
763.584
766.703
769.937
773.267
776.675
780.148
783.675
787.245
790.85
794.481
798.133
801.797
805.47
809.144
812.816
816.481
820.134
823.773
827.395
830.996
834.577
838.137
841.675
845.188
848.677
852.143
855.587
859.007
862.399
865.754
869.061
872.307
875.476
878.56
881.56
884.471
887.292
890.021
892.657
895.197
897.64
899.985
902.232
904.377
906.421
908.362
910.199
911.93
913.556
915.076
916.488
917.794
918.992
920.082
921.064
921.939
922.707
923.367
923.921
924.367
924.707
924.938
925.065
925.084
924.998
924.804
924.5
924.081
923.543
922.887
922.125
921.271
920.323
919.284
918.154
916.937
915.633
914.243
912.769
911.213
909.577
907.864
906.077
904.221
902.297
900.309
898.259
896.148
893.982
891.763
889.492
887.174
884.811
882.409
879.969
877.498
874.997
872.469
869.918
867.349
864.767
862.182
859.609
857.062
854.562
852.139
849.845
847.763
846.011
844.927
845.026
847.932
11463.3
2913.08
1717.04
1197.29
826.7
583.33
441.196
353.059
298.058
262.4
237.763
219.743
205.942
195.12
186.484
179.619
174.32
170.463
167.954
166.909
167.242
168.592
171.764
176.914
184.591
196.046
212.195
233.179
260.4
300.421
354.558
441.148
548.259
638.136
705.724
767.873
821.32
862.665
897.684
930.861
952.681
957.94
933.745
902.021
871.94
837.072
808.498
779.209
755.96
735.071
718.588
704.791
694.001
685.645
679.506
675.254
672.807
671.656
671.354
671.97
673.317
675.188
677.562
680.267
683.255
686.466
689.85
693.374
697.012
700.744
704.554
708.43
712.362
716.341
720.36
724.41
728.486
732.582
736.69
740.805
744.922
749.037
753.143
757.237
761.316
765.375
769.41
773.419
777.4
781.349
785.267
789.147
792.988
796.788
800.545
804.255
807.91
811.503
815.024
818.468
821.827
825.097
828.277
831.363
834.354
837.246
840.039
842.728
845.314
847.794
850.168
852.434
854.589
856.633
858.564
860.382
862.084
863.67
865.139
866.49
867.723
868.838
869.834
870.711
871.469
872.109
872.629
873.031
873.313
873.469
873.512
873.44
873.25
872.939
872.509
871.958
871.287
870.497
869.597
868.592
867.485
866.276
864.967
863.563
862.065
860.472
858.788
857.015
855.154
853.21
851.187
849.089
846.918
844.676
842.368
839.996
837.563
835.073
832.529
829.935
827.294
824.612
821.892
819.138
816.353
813.541
810.704
807.849
804.981
802.109
799.246
796.406
793.609
790.881
788.266
785.829
783.664
782.008
781.199
782.072
11463.3
3412.08
1761.8
1028.28
646.289
454.208
354.982
299.419
264.116
239.647
221.313
206.926
195.303
185.665
177.661
171.14
166.038
162.342
160.149
159.571
160.401
162.883
167.517
174.686
185.244
199.462
220.522
253.499
305.044
385.61
489.15
580.376
649.497
709.146
756.868
792.656
820.91
844.552
855.401
856.005
835.644
812.607
787.624
762.051
737.622
713.797
693.532
675.24
660.432
647.904
637.991
630.135
624.275
620.139
617.701
616.614
616.431
617.212
618.768
620.978
623.707
626.842
630.319
634.051
637.989
642.089
646.319
650.654
655.075
659.568
664.122
668.728
673.378
678.066
682.785
687.529
692.29
697.064
701.842
706.62
711.391
716.151
720.894
725.615
730.311
734.978
739.61
744.203
748.755
753.262
757.722
762.128
766.477
770.768
774.995
779.156
783.246
787.26
791.195
795.04
798.789
802.438
805.985
809.426
812.76
815.983
819.092
822.086
824.962
827.717
830.346
832.849
835.226
837.477
839.6
841.594
843.458
845.191
846.792
848.26
849.595
850.795
851.862
852.794
853.592
854.255
854.785
855.18
855.438
855.549
855.547
855.409
855.138
854.733
854.196
853.529
852.731
851.807
850.761
849.598
848.321
846.93
845.427
843.808
842.075
840.237
838.296
836.257
834.121
831.893
829.577
827.178
824.7
822.145
819.516
816.817
814.053
811.227
808.344
805.407
802.421
799.391
796.322
793.217
790.081
786.915
783.725
780.517
777.296
774.071
770.855
767.661
764.506
761.415
758.421
755.577
752.954
750.722
749.038
748.369
11463.3
3556.38
1553.85
811.361
513.06
378.963
310.222
270.389
244.811
226.736
212.819
201.186
191.024
182.238
174.79
168.75
164.289
161.583
160.577
161.153
163.506
168.234
175.894
188.28
207.867
237.137
281.596
350.9
437.031
518.31
583.204
638.386
685.046
722.263
751.862
772.272
780.298
775.935
760.042
742.804
722.587
702.95
683.484
664.645
647.016
631.02
617.407
605.78
596.349
588.74
582.926
578.693
576
574.744
574.456
575.141
576.714
579.036
581.979
585.443
589.329
593.556
598.062
602.787
607.689
612.731
617.888
623.138
628.465
633.856
639.301
644.791
650.318
655.876
661.46
667.062
672.673
678.287
683.897
689.495
695.074
700.63
706.156
711.646
717.097
722.507
727.866
733.171
738.417
743.6
748.716
753.761
758.729
763.618
768.424
773.142
777.771
782.309
786.747
791.075
795.289
799.385
803.361
807.212
810.937
814.533
817.999
821.33
824.526
827.583
830.501
833.277
835.911
838.4
840.743
842.94
844.988
846.888
848.637
850.234
851.68
852.972
854.112
855.1
855.934
856.617
857.146
857.524
857.736
857.8
857.725
857.498
857.12
856.593
855.918
855.099
854.135
853.032
851.793
850.422
848.923
847.297
845.547
843.677
841.688
839.584
837.367
835.042
832.611
830.079
827.45
824.731
821.926
819.036
816.067
813.022
809.907
806.727
803.485
800.187
796.837
793.44
790.002
786.528
783.019
779.482
775.919
772.339
768.747
765.152
761.566
758.002
754.475
751.006
747.624
744.37
741.296
738.499
736.051
734.096
11463.3
3389.7
1276.54
657.234
438.18
343.016
292.632
262.107
240.998
224.991
212.249
201.686
192.704
185.032
178.69
173.898
170.972
170.064
171.422
175.101
181.892
193.163
210.323
237.486
279.663
337.061
403.679
466.785
523.606
573.082
615.502
651.06
681.43
703.939
712.775
711.341
699.081
685.661
669.607
654.128
638.72
624.053
609.821
596.333
584.024
573.237
564.161
556.685
550.791
546.345
543.264
541.641
541.107
541.477
542.837
545.039
547.984
551.57
555.701
560.294
565.273
570.569
576.127
581.896
587.839
593.922
600.122
606.42
612.795
619.233
625.721
632.249
638.806
645.384
651.981
658.588
665.193
671.787
678.363
684.912
691.427
697.902
704.329
710.702
717.013
723.245
729.411
735.508
741.529
747.472
753.33
759.099
764.773
770.347
775.817
781.18
786.428
791.555
796.556
801.426
806.162
810.759
815.215
819.525
823.689
827.703
831.566
835.274
838.826
842.219
845.451
848.52
851.426
854.166
856.74
859.146
861.384
863.451
865.346
867.07
868.619
869.995
871.197
872.226
873.081
873.763
874.273
874.606
874.752
874.745
874.568
874.221
873.704
873.022
872.174
871.165
869.996
868.671
867.194
865.571
863.804
861.896
859.85
857.67
855.36
852.923
850.363
847.682
844.886
841.979
838.966
835.853
832.646
829.348
825.964
822.499
818.959
815.35
811.676
807.943
804.154
800.316
796.436
792.516
788.562
784.578
780.57
776.545
772.51
768.474
764.447
760.443
756.476
752.563
748.728
745.005
741.432
738.098
735.011
732.052
11463.3
2970.5
1030.02
557.205
396.116
324.01
285.199
259.837
242.434
229.643
219.383
210.73
203.403
197.494
193.337
191.593
192.371
196.576
204.186
215.695
232.995
258.089
292.578
335.497
382.472
430.379
475.964
517.228
554.231
586.026
613.949
638.323
650.428
652.561
646.299
636.777
624.292
612.05
599.904
588.48
577.419
566.762
556.504
546.952
538.433
531.156
525.193
520.514
517.087
514.963
514.073
514.018
515.009
516.905
519.649
523.151
527.33
532.103
537.394
543.133
549.257
555.706
562.423
569.363
576.486
583.759
591.159
598.677
606.277
613.937
621.643
629.378
637.126
644.864
652.557
660.216
667.863
675.495
683.101
690.67
698.193
705.665
713.077
720.424
727.701
734.91
742.033
749.056
755.973
762.777
769.466
776.034
782.475
788.786
794.962
800.997
806.888
812.629
818.219
823.654
828.928
834.04
838.985
843.761
848.364
852.794
857.048
861.124
865.02
868.733
872.262
875.604
878.759
881.725
884.501
887.087
889.481
891.683
893.689
895.501
897.116
898.535
899.757
900.783
901.613
902.249
902.691
902.928
902.974
902.835
902.506
901.987
901.28
900.388
899.313
898.059
896.627
895.024
893.253
891.318
889.225
886.976
884.576
882.029
879.339
876.51
873.547
870.453
867.234
863.894
860.439
856.875
853.209
849.446
845.59
841.65
837.631
833.539
829.38
825.159
820.881
816.55
812.175
807.759
803.308
798.827
794.324
789.805
785.279
780.754
776.241
771.751
767.298
762.896
758.566
754.337
750.236
746.333
742.604
738.716
11463.3
2498.44
882.444
513.715
381.014
319.552
285.514
265.291
251.788
241.843
234.032
227.879
223.482
221.553
222.021
226.169
234.168
245.289
259.771
279.725
305.404
335.905
369.658
404.647
439.149
472.112
502.69
529.833
554.46
577.46
592.319
597.263
596.444
591.531
583.431
574.365
565.033
556.238
547.812
539.726
531.815
524.126
516.813
510.146
504.363
499.607
495.935
493.346
492.005
491.622
492.175
493.683
496.114
499.401
503.487
508.297
513.759
519.805
526.368
533.388
540.82
548.614
556.694
565.014
573.532
582.204
590.977
599.763
608.617
617.543
626.526
635.546
644.58
653.608
662.627
671.622
680.575
689.489
698.337
707.111
715.803
724.409
732.923
741.339
749.649
757.843
765.908
773.84
781.631
789.277
796.776
804.122
811.31
818.335
825.194
831.882
838.395
844.729
850.882
856.852
862.632
868.221
873.613
878.808
883.802
888.595
893.185
897.571
901.751
905.722
909.483
913.033
916.369
919.491
922.4
925.094
927.573
929.835
931.879
933.705
935.311
936.697
937.863
938.811
939.54
940.054
940.347
940.422
940.285
939.938
939.381
938.616
937.644
936.468
935.091
933.516
931.749
929.793
927.653
925.335
922.844
920.183
917.358
914.374
911.235
907.947
904.514
900.942
897.235
893.398
889.438
885.362
881.176
876.887
872.502
868.029
863.475
858.847
854.151
849.39
844.569
839.695
834.775
829.813
824.815
819.789
814.743
809.684
804.622
799.564
794.519
789.5
784.518
779.586
774.723
769.952
765.294
760.807
756.457
751.722
11463.3
2085.83
782.939
483.094
373.388
320.782
293.174
276.968
266.558
259.453
254.57
252.043
251.544
253.884
259.628
268.864
281.067
295.963
314.327
335.898
359.849
385.164
410.874
436.161
460.342
482.568
503.445
523.404
538.887
546.264
548.216
547.908
544.244
538.858
532.612
526.304
520.156
514.264
508.498
502.808
497.19
491.768
486.735
482.314
478.688
475.966
474.322
473.703
473.946
475.189
477.363
480.444
484.405
489.21
494.849
501.198
508.195
515.776
523.875
532.412
541.275
550.397
559.834
569.561
579.541
589.732
600.1
610.644
621.297
632.005
642.737
653.472
664.172
674.794
685.318
695.726
706.002
716.131
726.136
736.024
745.796
755.453
764.993
774.41
783.694
792.831
801.807
810.611
819.234
827.674
835.929
843.994
851.865
859.537
867.005
874.267
881.317
888.154
894.777
901.183
907.367
913.326
919.058
924.559
929.829
934.868
939.675
944.251
948.592
952.699
956.57
960.203
963.597
966.753
969.671
972.351
974.793
976.995
978.957
980.677
982.156
983.393
984.388
985.143
985.659
985.936
985.976
985.779
985.35
984.69
983.802
982.687
981.349
979.79
978.014
976.024
973.826
971.425
968.827
966.036
963.06
959.902
956.568
953.065
949.397
945.571
941.592
937.466
933.198
928.795
924.262
919.606
914.834
909.957
904.982
899.919
894.774
889.554
884.265
878.912
873.499
868.031
862.515
856.957
851.365
845.748
840.114
834.473
828.832
823.198
817.582
811.992
806.44
800.94
795.508
790.163
784.923
779.834
774.873
769.351
11463.3
1949.1
764.713
479.482
375.438
329.021
305.402
292.206
284.39
280.026
278.285
278.312
281.092
286.658
294.98
305.799
318.802
334.009
351.048
369.337
388.282
407.24
425.674
443.261
460.306
477.055
491.044
499.926
504.241
505.776
505.898
504.25
501.278
497.702
493.888
490.055
486.236
482.426
478.598
474.792
471.101
467.681
464.714
462.38
460.923
460.377
460.7
462.128
464.487
467.757
471.914
476.929
482.752
489.289
496.37
504.161
512.656
521.806
531.549
541.829
552.61
563.856
575.478
587.424
599.65
612.106
624.735
637.503
650.347
663.156
675.861
688.393
700.715
712.814
724.673
736.286
747.657
758.802
769.759
780.561
791.218
801.738
812.129
822.386
832.492
842.425
852.161
861.679
870.974
880.043
888.888
897.504
905.887
914.03
921.93
929.581
936.983
944.132
951.03
957.674
964.063
970.193
976.061
981.665
987.007
992.087
996.907
1001.47
1005.77
1009.81
1013.59
1017.11
1020.37
1023.37
1026.1
1028.58
1030.81
1032.77
1034.47
1035.91
1037.09
1038.02
1038.67
1039.08
1039.22
1039.11
1038.75
1038.13
1037.27
1036.16
1034.8
1033.21
1031.37
1029.3
1027
1024.48
1021.74
1018.78
1015.61
1012.24
1008.67
1004.92
1000.98
996.859
992.57
988.116
983.504
978.74
973.831
968.783
963.604
958.297
952.87
947.338
941.712
935.998
930.205
924.338
918.403
912.405
906.347
900.236
894.076
887.875
881.643
875.391
869.128
862.864
856.605
850.357
844.131
837.933
831.776
825.672
819.638
813.692
807.846
802.139
796.572
790.307
11463.3
1864.55
738.592
476.502
382.567
340.672
320
308.977
303.064
300.461
299.928
301.823
306.277
312.97
321.614
331.893
343.545
356.306
369.82
383.689
397.504
411.134
424.738
438.126
449.725
457.924
463.696
467.578
469.683
470.541
470.702
470.034
468.773
467.21
465.474
463.634
461.721
459.78
457.884
456.169
454.857
454.1
453.869
454.303
455.554
457.604
460.377
463.69
467.839
472.936
478.993
485.99
493.895
502.682
512.387
522.913
534.229
546.267
558.95
572.209
585.988
600.218
614.805
629.674
644.781
660.074
675.399
690.634
705.668
720.449
734.907
748.981
762.626
775.821
788.56
800.847
812.718
824.241
835.516
846.65
857.642
868.512
879.291
889.968
900.506
910.862
920.994
930.856
940.459
949.802
958.887
967.708
976.257
984.529
992.517
1000.22
1007.63
1014.75
1021.58
1028.13
1034.38
1040.35
1046.02
1051.4
1056.49
1061.28
1065.8
1070.03
1073.98
1077.66
1081.05
1084.17
1087.01
1089.57
1091.85
1093.86
1095.61
1097.08
1098.28
1099.2
1099.85
1100.23
1100.33
1100.17
1099.75
1099.04
1098.08
1096.85
1095.37
1093.63
1091.63
1089.39
1086.9
1084.17
1081.2
1077.99
1074.56
1070.91
1067.04
1062.97
1058.69
1054.22
1049.56
1044.72
1039.71
1034.53
1029.18
1023.69
1018.05
1012.27
1006.37
1000.33
994.18
987.93
981.59
975.168
968.669
962.098
955.461
948.765
942.012
935.21
928.359
921.469
914.557
907.632
900.704
893.781
886.868
879.972
873.102
866.262
859.467
852.73
846.067
839.497
833.027
826.69
820.519
813.549
11463.3
1845.34
738.17
483.272
393.625
354.098
334.7
324.469
319.204
317.075
316.812
319.161
323.713
329.979
337.541
346.069
355.358
365.184
375.313
385.557
396.076
406.286
415.076
422.325
428.265
433.365
437.407
440.573
443.05
445.044
446.721
448.166
449.394
450.406
451.257
452.01
452.721
453.458
454.278
455.208
456.148
457.453
459.47
462.453
466.477
471.464
477.416
484.448
492.515
501.632
511.809
523.015
535.196
548.314
562.352
577.236
593.008
609.482
626.505
643.966
661.763
679.794
697.95
716.121
734.174
751.981
769.495
786.621
803.25
819.282
834.614
849.193
862.992
876.041
888.374
899.981
910.957
921.44
931.654
941.99
952.245
962.456
972.752
983.069
993.307
1003.39
1013.25
1022.88
1032.24
1041.33
1050.13
1058.65
1066.87
1074.78
1082.37
1089.64
1096.58
1103.2
1109.5
1115.47
1121.13
1126.48
1131.5
1136.2
1140.58
1144.65
1148.42
1151.89
1155.07
1157.96
1160.56
1162.87
1164.89
1166.63
1168.08
1169.25
1170.17
1170.8
1171.16
1171.22
1171.04
1170.58
1169.82
1168.8
1167.5
1165.94
1164.11
1162.02
1159.67
1157.06
1154.2
1151.09
1147.72
1144.11
1140.27
1136.18
1131.88
1127.35
1122.6
1117.65
1112.5
1107.16
1101.63
1095.92
1090.03
1083.99
1077.78
1071.43
1064.93
1058.31
1051.56
1044.71
1037.76
1030.74
1023.62
1016.44
1009.17
1001.84
994.45
987.003
979.506
971.967
964.381
956.766
949.14
941.512
933.887
926.272
918.674
911.1
903.557
896.047
888.587
881.196
873.888
866.679
859.575
852.598
845.828
838.187
11463.3
1822.43
737.184
491.17
403.364
364.916
346.284
336.063
330.595
328.312
327.905
329.837
333.665
338.839
344.947
351.734
359.089
366.897
374.958
382.761
390.205
397.198
404.02
410.373
416.351
422.028
427.382
432.446
437.214
441.648
445.689
449.161
452.245
455.235
458.224
461.296
464.534
468.033
471.89
476.23
481.286
487.216
494.226
502.588
512.193
522.849
534.589
547.465
561.434
576.485
592.714
610.008
628.169
647.058
666.554
686.514
706.732
727.159
747.725
768.328
788.867
809.24
829.354
849.118
868.445
887.256
905.49
923.077
939.942
955.987
971.043
985.105
998.215
1010.49
1022.03
1032.89
1043.12
1052.71
1061.78
1070.51
1078.95
1087.39
1096.36
1105.54
1114.69
1123.7
1132.5
1141.09
1149.41
1157.45
1165.19
1172.62
1179.75
1186.55
1193.01
1199.12
1204.88
1210.28
1215.35
1220.08
1224.49
1228.55
1232.29
1235.68
1238.75
1241.51
1243.96
1246.11
1247.96
1249.54
1250.83
1251.85
1252.58
1253.03
1253.2
1253.11
1252.8
1252.2
1251.34
1250.21
1248.82
1247.17
1245.25
1243.07
1240.63
1237.93
1234.98
1231.78
1228.33
1224.64
1220.7
1216.52
1212.1
1207.44
1202.56
1197.45
1192.12
1186.58
1180.84
1174.9
1168.77
1162.45
1155.96
1149.29
1142.46
1135.48
1128.34
1121.07
1113.66
1106.12
1098.47
1090.73
1082.92
1075.03
1067.06
1059.02
1050.91
1042.74
1034.51
1026.23
1017.91
1009.56
1001.2
992.843
984.482
976.126
967.78
959.449
951.14
942.863
934.625
926.426
918.291
910.237
902.277
894.424
886.683
879.065
871.701
863.428
11463.3
1808.33
739.376
496.414
409.81
372.358
353.957
343.57
337.935
335.501
334.979
336.615
340.07
344.848
350.547
356.936
363.843
371.094
378.608
386.477
394.351
402.07
409.786
417.43
425.065
432.723
440.418
448.179
455.939
463.617
471.286
479.064
487.036
495.257
503.816
512.814
522.354
532.553
543.522
555.384
568.277
582.234
597.242
613.146
629.902
647.618
666.327
686.059
706.743
728.188
750.154
772.68
795.67
818.859
842.061
865.12
887.883
910.253
932.132
953.438
974.096
994.068
1013.32
1031.83
1049.57
1066.54
1082.72
1098.11
1112.71
1126.53
1139.57
1151.85
1163.18
1173.83
1183.92
1193.56
1202.7
1211.21
1219.05
1226.06
1232.73
1239.54
1246.67
1253.81
1260.8
1267.57
1274.11
1280.38
1286.38
1292.1
1297.54
1302.7
1307.57
1312.14
1316.37
1320.28
1323.85
1327.09
1330.02
1332.65
1334.98
1336.99
1338.7
1340.11
1341.22
1342.05
1342.61
1342.91
1342.93
1342.75
1342.33
1341.65
1340.72
1339.55
1338.15
1336.53
1334.7
1332.63
1330.33
1327.81
1325.05
1322.06
1318.84
1315.39
1311.71
1307.8
1303.67
1299.31
1294.73
1289.94
1284.92
1279.68
1274.23
1268.56
1262.69
1256.61
1250.34
1243.87
1237.22
1230.39
1223.39
1216.21
1208.88
1201.38
1193.73
1185.94
1178
1169.94
1161.74
1153.43
1145
1136.47
1127.85
1119.15
1110.36
1101.51
1092.58
1083.59
1074.56
1065.47
1056.36
1047.21
1038.07
1028.93
1019.8
1010.68
1001.58
992.49
983.433
974.416
965.45
956.561
947.759
939.051
930.445
921.954
913.584
905.338
897.388
888.534
11463.3
1795.92
740.944
499.15
413.102
377.764
359.976
350.274
346
344.509
344.952
347.859
352.451
358.325
365.434
373.937
383.132
392.723
403.223
414.822
427.139
439.689
452.875
466.705
481.185
496.268
511.951
528.183
544.958
562.313
580.27
598.868
618.062
637.818
658.162
679.17
700.933
723.628
747.3
771.88
797.235
823.235
849.702
876.43
903.327
930.382
957.616
985.303
1013.34
1040.98
1067.79
1093.4
1117.74
1140.84
1162.72
1183.33
1202.65
1220.66
1237.38
1252.86
1267.17
1280.34
1292.49
1303.68
1313.96
1323.37
1331.98
1339.84
1347.02
1353.61
1359.84
1365.82
1371.61
1377.16
1382.4
1387.31
1391.86
1395.85
1399.5
1403.07
1407.05
1411.26
1414.98
1418.32
1421.33
1424.09
1426.64
1429.02
1431.22
1433.25
1435.1
1436.74
1438.17
1439.37
1440.32
1441.03
1441.5
1441.73
1441.73
1441.53
1441.09
1440.41
1439.51
1438.38
1437.04
1435.51
1433.79
1431.89
1429.79
1427.54
1425.11
1422.5
1419.72
1416.77
1413.65
1410.36
1406.92
1403.31
1399.52