/*--------------------------------*- C++ -*----------------------------------*\
  =========                 |
  \\      /  F ield         | OpenFOAM: The Open Source CFD Toolbox
   \\    /   O peration     | Website:  https://openfoam.org
    \\  /    A nd           | Version:  8
     \\/     M anipulation  |
\*---------------------------------------------------------------------------*/
FoamFile
{
    version     2.0;
    format      ascii;
    class       surfaceScalarField;
    location    "1800";
    object      phi;
}
// * * * * * * * * * * * * * * * * * * * * * * * * * * * * * * * * * * * * * //

dimensions      [0 3 -1 0 0 0 0];

internalField   nonuniform List<scalar> 
24170
(
2.99272e-06
1.41203e-07
2.84101e-06
1.51899e-07
2.70519e-06
1.35995e-07
2.58553e-06
1.19748e-07
2.48238e-06
1.03232e-07
2.39608e-06
8.63506e-08
2.32575e-06
7.03609e-08
2.26705e-06
5.8548e-08
2.21749e-06
4.94656e-08
2.17597e-06
4.14168e-08
2.14158e-06
3.43683e-08
2.11397e-06
2.75722e-08
2.09238e-06
2.15985e-08
2.07569e-06
1.671e-08
2.06211e-06
1.36062e-08
2.05163e-06
1.0528e-08
2.04644e-06
5.27489e-09
-1.18309e-09
2.04773e-06
3.52449e-06
7.32271e-08
3.56374e-06
1.13145e-07
3.58225e-06
1.18014e-07
3.58365e-06
1.18828e-07
3.57236e-06
1.14967e-07
3.55099e-06
1.08085e-07
3.52253e-06
9.90797e-08
3.49132e-06
8.98028e-08
3.45978e-06
8.10144e-08
3.42814e-06
7.30331e-08
3.39625e-06
6.62637e-08
3.36412e-06
5.9664e-08
3.33317e-06
5.25151e-08
3.30311e-06
4.67181e-08
3.27416e-06
4.25064e-08
3.248e-06
3.66508e-08
3.22417e-06
2.90977e-08
2.25686e-08
3.20038e-06
3.83292e-06
5.25294e-08
3.85264e-06
9.34461e-08
3.86942e-06
1.01229e-07
3.88457e-06
1.0365e-07
3.89719e-06
1.02315e-07
3.90692e-06
9.83386e-08
3.9135e-06
9.2444e-08
3.91714e-06
8.60639e-08
3.91836e-06
7.97121e-08
3.91779e-06
7.35442e-08
3.91574e-06
6.83059e-08
3.91217e-06
6.32175e-08
3.90711e-06
5.75869e-08
3.9011e-06
5.27335e-08
3.89505e-06
4.85757e-08
3.88852e-06
4.32152e-08
3.88073e-06
3.69445e-08
3.07672e-08
3.87259e-06
4.21567e-06
4.14586e-08
4.22863e-06
8.08507e-08
4.23879e-06
9.14088e-08
4.24824e-06
9.45082e-08
4.25664e-06
9.4217e-08
4.26408e-06
9.11645e-08
4.27061e-06
8.60833e-08
4.27632e-06
8.04472e-08
4.28124e-06
7.48141e-08
4.28551e-06
6.9317e-08
4.28937e-06
6.44611e-08
4.2928e-06
5.97839e-08
4.29556e-06
5.48064e-08
4.29797e-06
5.03026e-08
4.30043e-06
4.60813e-08
4.30239e-06
4.12418e-08
4.30342e-06
3.59167e-08
3.06065e-08
4.30353e-06
4.64573e-06
3.30641e-08
4.65674e-06
6.9769e-08
4.6656e-06
8.24955e-08
4.67369e-06
8.63505e-08
4.68091e-06
8.69446e-08
4.68729e-06
8.47388e-08
4.69288e-06
8.0454e-08
4.69784e-06
7.54236e-08
4.70229e-06
7.03126e-08
4.7063e-06
6.52791e-08
4.71008e-06
6.06816e-08
4.71365e-06
5.62077e-08
4.71686e-06
5.16024e-08
4.71991e-06
4.72486e-08
4.72298e-06
4.30264e-08
4.72573e-06
3.85048e-08
4.7279e-06
3.37685e-08
2.91538e-08
4.72945e-06
5.12138e-06
2.63009e-08
5.13135e-06
6.00929e-08
5.13992e-06
7.41972e-08
5.14777e-06
7.87431e-08
5.15494e-06
8.00057e-08
5.16133e-06
7.85506e-08
5.16692e-06
7.50222e-08
5.17186e-06
7.05733e-08
5.17631e-06
6.59301e-08
5.18034e-06
6.12855e-08
5.18413e-06
5.69134e-08
5.18772e-06
5.26182e-08
5.19101e-06
4.8284e-08
5.19415e-06
4.40813e-08
5.19717e-06
3.99608e-08
5.19991e-06
3.57297e-08
5.20222e-06
3.14608e-08
2.7252e-08
5.20403e-06
5.64636e-06
2.09673e-08
5.65551e-06
5.08271e-08
5.66396e-06
6.56491e-08
5.67176e-06
7.08877e-08
5.67904e-06
7.26851e-08
5.68565e-06
7.19242e-08
5.6915e-06
6.914e-08
5.69671e-06
6.53368e-08
5.70142e-06
6.11932e-08
5.70572e-06
5.69871e-08
5.70974e-06
5.28874e-08
5.71352e-06
4.88378e-08
5.71702e-06
4.47654e-08
5.72031e-06
4.07785e-08
5.7234e-06
3.68515e-08
5.7262e-06
3.29182e-08
5.72861e-06
2.90139e-08
2.52726e-08
5.73065e-06
4.40923e-06
1.78397e-08
4.41526e-06
4.50183e-08
4.42129e-06
5.97991e-08
4.42691e-06
6.54495e-08
4.4322e-06
6.75518e-08
4.43709e-06
6.7181e-08
4.44149e-06
6.48438e-08
4.44544e-06
6.14596e-08
4.44903e-06
5.7654e-08
4.45232e-06
5.3738e-08
4.45538e-06
4.98386e-08
4.45825e-06
4.59642e-08
4.46092e-06
4.20823e-08
4.4634e-06
3.82735e-08
4.46571e-06
3.4519e-08
4.46779e-06
3.08122e-08
4.46962e-06
2.71854e-08
2.36716e-08
4.47118e-06
5.14272e-06
1.49992e-08
5.14872e-06
3.89001e-08
5.15507e-06
5.33852e-08
5.16113e-06
5.93696e-08
5.16691e-06
6.17758e-08
5.17232e-06
6.17763e-08
5.17724e-06
5.99321e-08
5.1817e-06
5.69983e-08
5.18578e-06
5.35877e-08
5.18953e-06
4.99878e-08
5.19303e-06
4.63448e-08
5.19629e-06
4.26845e-08
5.19933e-06
3.90279e-08
5.20215e-06
3.54138e-08
5.20476e-06
3.18917e-08
5.20711e-06
2.84228e-08
5.20919e-06
2.50637e-08
2.18781e-08
5.21101e-06
5.99837e-06
1.23864e-08
6.00424e-06
3.3116e-08
6.01084e-06
4.68864e-08
6.0173e-06
5.30007e-08
6.02356e-06
5.56012e-08
6.02948e-06
5.5916e-08
6.03495e-06
5.45178e-08
6.03995e-06
5.20262e-08
6.04456e-06
4.90091e-08
6.04882e-06
4.57417e-08
6.05279e-06
4.23818e-08
6.05649e-06
3.89736e-08
6.05993e-06
3.55544e-08
6.06313e-06
3.22253e-08
6.06605e-06
2.89253e-08
6.06871e-06
2.5758e-08
6.07108e-06
2.26992e-08
1.97919e-08
6.07317e-06
6.99659e-06
1.00927e-08
7.00218e-06
2.74898e-08
7.00892e-06
4.01483e-08
7.01575e-06
4.62154e-08
7.02246e-06
4.89267e-08
7.02891e-06
4.95064e-08
7.03494e-06
4.85056e-08
7.04053e-06
4.64766e-08
7.0457e-06
4.38468e-08
7.05051e-06
4.09508e-08
7.05499e-06
3.78951e-08
7.05915e-06
3.47809e-08
7.06305e-06
3.16921e-08
7.06663e-06
2.86173e-08
7.06993e-06
2.56526e-08
7.07291e-06
2.2765e-08
7.0756e-06
2.00252e-08
1.74071e-08
7.07799e-06
8.16107e-06
8.00586e-09
8.16636e-06
2.22221e-08
8.17313e-06
3.34033e-08
8.18025e-06
3.913e-08
8.18738e-06
4.18313e-08
8.19433e-06
4.25717e-08
8.20095e-06
4.19311e-08
8.20712e-06
4.02769e-08
8.21291e-06
3.80922e-08
8.21829e-06
3.55416e-08
8.22331e-06
3.28675e-08
8.22801e-06
3.00985e-08
8.23238e-06
2.73467e-08
8.23642e-06
2.46155e-08
8.2401e-06
2.19752e-08
8.24346e-06
1.94189e-08
8.2465e-06
1.70013e-08
1.47021e-08
8.24924e-06
9.51959e-06
6.1665e-09
9.5245e-06
1.73299e-08
9.53121e-06
2.67307e-08
9.53854e-06
3.18362e-08
9.54604e-06
3.43662e-08
9.55349e-06
3.51737e-08
9.56065e-06
3.47473e-08
9.56747e-06
3.3499e-08
9.57386e-06
3.16537e-08
9.57988e-06
2.95473e-08
9.58548e-06
2.7224e-08
9.59077e-06
2.48802e-08
9.59565e-06
2.24704e-08
9.6002e-06
2.0143e-08
9.60432e-06
1.78234e-08
9.60812e-06
1.56493e-08
9.61154e-06
1.35466e-08
1.15933e-08
9.61464e-06
1.11044e-05
4.47816e-09
1.1109e-05
1.27308e-08
1.11156e-05
2.01696e-08
1.1123e-05
2.43663e-08
1.11309e-05
2.65519e-08
1.11388e-05
2.72895e-08
1.11465e-05
2.70339e-08
1.11539e-05
2.60446e-08
1.1161e-05
2.46027e-08
1.11677e-05
2.2855e-08
1.11739e-05
2.09791e-08
1.11798e-05
1.90056e-08
1.11853e-05
1.70411e-08
1.11903e-05
1.50629e-08
1.1195e-05
1.31736e-08
1.11993e-05
1.13452e-08
1.12032e-05
9.64403e-09
8.02396e-09
1.12067e-05
1.29532e-05
2.90981e-09
1.29575e-05
8.35823e-09
1.2964e-05
1.36738e-08
1.29715e-05
1.67578e-08
1.29797e-05
1.83853e-08
1.29881e-05
1.89348e-08
1.29964e-05
1.87215e-08
1.30045e-05
1.79634e-08
1.30122e-05
1.6837e-08
1.30196e-05
1.54825e-08
1.30266e-05
1.40069e-08
1.30331e-05
1.24689e-08
1.30393e-05
1.09174e-08
1.30449e-05
9.38484e-09
1.30502e-05
7.90911e-09
1.3055e-05
6.50673e-09
1.30594e-05
5.19589e-09
3.97356e-09
1.30634e-05
1.51099e-05
1.40262e-09
1.51141e-05
4.08016e-09
1.51206e-05
7.22163e-09
1.51283e-05
8.94623e-09
1.51369e-05
9.83195e-09
1.51458e-05
1.00454e-08
1.51547e-05
9.76993e-09
1.51635e-05
9.15811e-09
1.51721e-05
8.30729e-09
1.51802e-05
7.31894e-09
1.5188e-05
6.25175e-09
1.51953e-05
5.1571e-09
1.52021e-05
4.06197e-09
1.52085e-05
2.99697e-09
1.52144e-05
1.97989e-09
1.52199e-05
1.02751e-09
1.52249e-05
1.45645e-10
-6.59825e-10
1.52295e-05
1.76259e-05
-9.71462e-11
1.76302e-05
-2.02377e-10
1.76368e-05
5.99177e-10
1.7645e-05
7.56154e-10
1.76541e-05
7.26356e-10
1.76638e-05
4.17962e-10
1.76736e-05
7.4653e-12
1.76833e-05
-5.5982e-10
1.76928e-05
-1.14306e-09
1.77019e-05
-1.79838e-09
1.77105e-05
-2.42235e-09
1.77188e-05
-3.06527e-09
1.77265e-05
-3.65577e-09
1.77337e-05
-4.23141e-09
1.77404e-05
-4.74462e-09
1.77466e-05
-5.22234e-09
1.77524e-05
-5.63629e-09
-6.00381e-09
1.77577e-05
1.78276e-05
-1.51103e-09
1.78318e-05
-4.20669e-09
1.78381e-05
-5.73835e-09
1.78461e-05
-7.07872e-09
1.78549e-05
-8.14077e-09
1.78644e-05
-8.91386e-09
1.78739e-05
-9.59956e-09
1.78835e-05
-1.00635e-08
1.78927e-05
-1.04979e-08
1.79018e-05
-1.07655e-08
1.79103e-05
-1.10339e-08
1.79186e-05
-1.11798e-08
1.79261e-05
-1.13337e-08
1.79334e-05
-1.13939e-08
1.794e-05
-1.14577e-08
1.79463e-05
-1.14473e-08
1.7952e-05
-1.14366e-08
-1.1363e-08
1.79574e-05
1.58827e-05
-2.8441e-09
1.58865e-05
-7.95465e-09
1.58924e-05
-1.15319e-08
1.58996e-05
-1.42586e-08
1.59077e-05
-1.60976e-08
1.59161e-05
-1.73827e-08
1.59249e-05
-1.81607e-08
1.59333e-05
-1.86506e-08
1.59418e-05
-1.8805e-08
1.59497e-05
-1.88293e-08
1.59575e-05
-1.86622e-08
1.59646e-05
-1.84532e-08
1.59715e-05
-1.81299e-08
1.59778e-05
-1.78025e-08
1.59839e-05
-1.74067e-08
1.59893e-05
-1.70221e-08
1.59946e-05
-1.6595e-08
-1.6179e-08
1.59993e-05
1.41501e-05
-4.22111e-09
1.41539e-05
-1.17699e-08
1.41597e-05
-1.72677e-08
1.41667e-05
-2.11391e-08
1.41742e-05
-2.36578e-08
1.41822e-05
-2.5242e-08
1.41902e-05
-2.61545e-08
1.41981e-05
-2.64891e-08
1.42057e-05
-2.64526e-08
1.42131e-05
-2.61189e-08
1.422e-05
-2.56196e-08
1.42266e-05
-2.49852e-08
1.42327e-05
-2.42853e-08
1.42384e-05
-2.35345e-08
1.42438e-05
-2.27735e-08
1.42488e-05
-2.19996e-08
1.42534e-05
-2.12411e-08
-2.04791e-08
1.42577e-05
1.26065e-05
-5.74335e-09
1.26107e-05
-1.58987e-08
1.26166e-05
-2.31765e-08
1.26235e-05
-2.7971e-08
1.26308e-05
-3.09753e-08
1.26384e-05
-3.27936e-08
1.2646e-05
-3.36829e-08
1.26534e-05
-3.38555e-08
1.26605e-05
-3.3523e-08
1.26672e-05
-3.28467e-08
1.26736e-05
-3.19734e-08
1.26796e-05
-3.09399e-08
1.26851e-05
-2.98611e-08
1.26903e-05
-2.87209e-08
1.26952e-05
-2.76086e-08
1.26996e-05
-2.64848e-08
1.27038e-05
-2.5414e-08
-2.43521e-08
1.27077e-05
1.12316e-05
-7.50101e-09
1.12362e-05
-2.05112e-08
1.12424e-05
-2.93775e-08
1.12492e-05
-3.48391e-08
1.12564e-05
-3.81726e-08
1.12638e-05
-4.01119e-08
1.1271e-05
-4.09039e-08
1.1278e-05
-4.08136e-08
1.12846e-05
-4.01334e-08
1.12909e-05
-3.90964e-08
1.12968e-05
-3.78098e-08
1.13022e-05
-3.64094e-08
1.13073e-05
-3.49154e-08
1.1312e-05
-3.34427e-08
1.13164e-05
-3.19567e-08
1.13205e-05
-3.05474e-08
1.13242e-05
-2.91562e-08
-2.78508e-08
1.13277e-05
1.00067e-05
-9.63218e-09
1.0012e-05
-2.57848e-08
1.00185e-05
-3.59281e-08
1.00254e-05
-4.17412e-08
1.00325e-05
-4.5276e-08
1.00396e-05
-4.72484e-08
1.00466e-05
-4.78378e-08
1.00532e-05
-4.74166e-08
1.00594e-05
-4.636e-08
1.00653e-05
-4.49134e-08
1.00707e-05
-4.32313e-08
1.00758e-05
-4.14127e-08
1.00804e-05
-3.95599e-08
1.00847e-05
-3.77096e-08
1.00887e-05
-3.59243e-08
1.00924e-05
-3.41904e-08
1.00957e-05
-3.25583e-08
-3.09803e-08
1.00989e-05
8.9158e-06
-1.23407e-08
8.92186e-06
-3.18613e-08
8.92867e-06
-4.27548e-08
8.93556e-06
-4.86339e-08
8.94258e-06
-5.23129e-08
8.94955e-06
-5.4222e-08
8.95621e-06
-5.45166e-08
8.96249e-06
-5.36979e-08
8.96837e-06
-5.22233e-08
8.97384e-06
-5.03692e-08
8.9789e-06
-4.82707e-08
8.98355e-06
-4.60612e-08
8.98784e-06
-4.38268e-08
8.99178e-06
-4.16368e-08
8.99541e-06
-3.95267e-08
8.99876e-06
-3.75293e-08
9.00186e-06
-3.56382e-08
-3.38588e-08
9.00473e-06
7.94423e-06
-1.59086e-08
7.95124e-06
-3.8892e-08
7.95822e-06
-4.97569e-08
7.96509e-06
-5.55255e-08
7.97208e-06
-5.93131e-08
7.97892e-06
-6.10664e-08
7.98538e-06
-6.09773e-08
7.99141e-06
-5.97311e-08
7.99702e-06
-5.78349e-08
8.00221e-06
-5.55476e-08
8.00698e-06
-5.30352e-08
8.01136e-06
-5.04281e-08
8.01537e-06
-4.78254e-08
8.01905e-06
-4.52955e-08
8.02242e-06
-4.28907e-08
8.02554e-06
-4.06242e-08
8.02842e-06
-3.85058e-08
-3.65044e-08
8.03109e-06
7.07911e-06
-2.06958e-08
7.0872e-06
-4.69987e-08
7.09439e-06
-5.69524e-08
7.10143e-06
-6.25634e-08
7.10856e-06
-6.6456e-08
7.11544e-06
-6.7951e-08
7.12189e-06
-6.74362e-08
7.1279e-06
-6.57613e-08
7.13348e-06
-6.33995e-08
7.13864e-06
-6.06953e-08
7.14338e-06
-5.77655e-08
7.14772e-06
-5.47625e-08
7.1517e-06
-5.17963e-08
7.15533e-06
-4.8915e-08
7.15867e-06
-4.62078e-08
7.16174e-06
-4.36834e-08
7.1646e-06
-4.13439e-08
-3.91537e-08
7.16727e-06
6.30935e-06
-2.75333e-08
6.31888e-06
-5.65301e-08
6.32713e-06
-6.52248e-08
6.33532e-06
-7.07649e-08
6.34346e-06
-7.46029e-08
6.35121e-06
-7.57023e-08
6.35848e-06
-7.47205e-08
6.36531e-06
-7.25489e-08
6.37164e-06
-6.97608e-08
6.37751e-06
-6.65535e-08
6.3829e-06
-6.31483e-08
6.38783e-06
-5.96914e-08
6.39234e-06
-5.62582e-08
6.3964e-06
-5.29872e-08
6.4001e-06
-4.98944e-08
6.40347e-06
-4.70483e-08
6.40657e-06
-4.44203e-08
-4.19689e-08
6.4094e-06
5.62818e-06
-4.08157e-08
5.64273e-06
-7.10688e-08
5.65632e-06
-7.88409e-08
5.66995e-06
-8.43949e-08
5.68315e-06
-8.78019e-08
5.6955e-06
-8.8063e-08
5.70684e-06
-8.6041e-08
5.71708e-06
-8.27807e-08
5.72611e-06
-7.8803e-08
5.73394e-06
-7.43855e-08
5.74058e-06
-6.9787e-08
5.74611e-06
-6.51777e-08
5.75057e-06
-6.07041e-08
5.75404e-06
-5.64514e-08
5.75663e-06
-5.24878e-08
5.7585e-06
-4.89012e-08
5.75976e-06
-4.56677e-08
-4.29844e-08
5.76079e-06
5.05359e-06
-9.21005e-08
5.09243e-06
-1.09901e-07
5.12278e-06
-1.09207e-07
5.14627e-06
-1.07889e-07
5.16216e-06
-1.03696e-07
5.17078e-06
-9.66833e-08
5.17311e-06
-8.83539e-08
5.17024e-06
-7.98974e-08
5.1632e-06
-7.17758e-08
5.15295e-06
-6.414e-08
5.14028e-06
-5.71106e-08
5.12586e-06
-5.07179e-08
5.11015e-06
-4.49763e-08
5.09357e-06
-3.9864e-08
5.07643e-06
-3.53491e-08
5.05902e-06
-3.14739e-08
5.04165e-06
-2.82919e-08
-2.61946e-08
5.02488e-06
4.36445e-06
4.25455e-06
4.14534e-06
4.03745e-06
3.93375e-06
3.83707e-06
3.74872e-06
3.66882e-06
3.59704e-06
3.53291e-06
3.4758e-06
3.42509e-06
3.38011e-06
3.34025e-06
3.3049e-06
3.27343e-06
3.24514e-06
3.21895e-06
-8.0513e-09
8.05929e-09
-2.18756e-08
1.38325e-08
-3.69371e-08
1.5074e-08
-4.98609e-08
1.29276e-08
-5.5582e-08
5.73453e-09
-4.82141e-08
-7.37004e-09
-2.56757e-08
-2.25225e-08
9.68421e-09
-3.53658e-08
5.38576e-08
-4.41554e-08
1.02101e-07
-4.82518e-08
1.50085e-07
-4.79631e-08
1.94698e-07
-4.46209e-08
2.33994e-07
-3.92761e-08
2.6669e-07
-3.27044e-08
2.92135e-07
-2.54233e-08
3.09858e-07
-1.7733e-08
3.19649e-07
-9.76873e-09
3.21128e-07
-1.49041e-09
3.14164e-07
6.98519e-09
2.98876e-07
1.52781e-08
2.75924e-07
2.29767e-08
2.46221e-07
2.9698e-08
2.11206e-07
3.50423e-08
1.72652e-07
3.85543e-08
1.32893e-07
3.97935e-08
9.44632e-08
3.84394e-08
6.00349e-08
3.4467e-08
3.17125e-08
2.83434e-08
1.06493e-08
2.11078e-08
-3.33803e-09
1.40177e-08
-1.11104e-08
7.81157e-09
-1.31863e-08
2.10549e-09
-9.36255e-09
-3.79598e-09
1.50846e-09
-1.08451e-08
2.0954e-08
-1.94377e-08
4.91801e-08
-2.82091e-08
8.26358e-08
-3.34619e-08
1.15353e-07
-3.2706e-08
1.41791e-07
-2.64565e-08
1.58653e-07
-1.68573e-08
1.65655e-07
-7.01231e-09
1.65382e-07
2.79581e-10
1.61271e-07
4.09007e-09
1.56929e-07
4.33848e-09
1.54888e-07
1.95382e-09
1.50968e-07
3.92576e-09
1.35649e-07
1.50934e-08
1.01787e-07
3.39581e-08
4.26425e-08
5.87856e-08
-4.00584e-08
8.28358e-08
-1.42796e-07
1.02587e-07
-2.62104e-07
1.19337e-07
-3.95485e-07
1.33344e-07
-5.36677e-07
1.41121e-07
-6.81061e-07
1.44337e-07
-8.25482e-07
1.44375e-07
-9.67356e-07
1.41831e-07
-1.10344e-06
1.36078e-07
-1.23189e-06
1.28409e-07
-1.3514e-06
1.19525e-07
-1.46165e-06
1.10211e-07
-1.56355e-06
1.0191e-07
-1.65644e-06
9.28697e-08
-1.74133e-06
8.48943e-08
-1.81972e-06
7.83727e-08
-1.89174e-06
7.20291e-08
-1.95835e-06
6.6584e-08
-2.02012e-06
6.17679e-08
-2.07766e-06
5.75291e-08
-2.13147e-06
5.38089e-08
-2.182e-06
5.05097e-08
-2.22959e-06
4.75746e-08
-2.27453e-06
4.49309e-08
-2.31708e-06
4.25284e-08
-2.35741e-06
4.03217e-08
-2.39572e-06
3.8271e-08
-2.43207e-06
3.63503e-08
-2.46664e-06
3.45283e-08
-2.49943e-06
3.27941e-08
-2.53058e-06
3.1121e-08
-2.56008e-06
2.9509e-08
-2.58804e-06
2.79341e-08
-2.61443e-06
2.64033e-08
-2.63935e-06
2.48937e-08
-2.66275e-06
2.34157e-08
-2.68472e-06
2.1946e-08
-2.70521e-06
2.04948e-08
-2.72426e-06
1.90424e-08
-2.74184e-06
1.75987e-08
-2.75798e-06
1.61516e-08
-2.7727e-06
1.47084e-08
-2.78599e-06
1.32559e-08
-2.79783e-06
1.17959e-08
-2.80819e-06
1.03183e-08
-2.81703e-06
8.81702e-09
-2.82432e-06
7.28244e-09
-2.83001e-06
5.69891e-09
-2.83405e-06
4.0583e-09
-2.83638e-06
2.34828e-09
-2.83697e-06
6.27664e-10
-2.83599e-06
-9.55355e-10
-2.83363e-06
-2.32478e-09
-2.83001e-06
-3.6017e-09
-2.82514e-06
-4.8452e-09
-2.81904e-06
-6.08679e-09
-2.81171e-06
-7.3188e-09
-2.80316e-06
-8.55668e-09
-2.79337e-06
-9.78652e-09
-2.78236e-06
-1.10213e-08
-2.77013e-06
-1.22476e-08
-2.75668e-06
-1.34767e-08
-2.74201e-06
-1.46971e-08
-2.72613e-06
-1.59174e-08
-2.70903e-06
-1.71289e-08
-2.69074e-06
-1.83372e-08
-2.67125e-06
-1.95365e-08
-2.65057e-06
-2.07293e-08
-2.62871e-06
-2.19123e-08
-2.60568e-06
-2.30856e-08
-2.58148e-06
-2.42484e-08
-2.55613e-06
-2.5398e-08
-2.52965e-06
-2.65359e-08
-2.50204e-06
-2.76572e-08
-2.47332e-06
-2.8765e-08
-2.44351e-06
-2.98532e-08
-2.41262e-06
-3.09265e-08
-2.38068e-06
-3.19782e-08
-2.3477e-06
-3.30135e-08
-2.3137e-06
-3.40236e-08
-2.27872e-06
-3.50117e-08
-2.24276e-06
-3.59691e-08
-2.20587e-06
-3.69077e-08
-2.16806e-06
-3.78185e-08
-2.12939e-06
-3.86949e-08
-2.08989e-06
-3.95255e-08
-2.04961e-06
-4.02999e-08
-2.00862e-06
-4.10051e-08
-1.96699e-06
-4.16382e-08
-1.92462e-06
-4.23763e-08
-1.88147e-06
-4.31723e-08
-1.83765e-06
-4.38531e-08
-1.79318e-06
-4.44979e-08
-1.7481e-06
-4.51004e-08
-1.70245e-06
-4.56717e-08
-1.65625e-06
-4.62065e-08
-1.60954e-06
-4.67126e-08
-1.56233e-06
-4.71838e-08
-1.51467e-06
-4.76302e-08
-1.46657e-06
-4.8051e-08
-1.41806e-06
-4.84527e-08
-1.36918e-06
-4.88333e-08
-1.31993e-06
-4.91914e-08
-1.27034e-06
-4.95228e-08
-1.22045e-06
-4.98287e-08
-1.17027e-06
-5.01097e-08
-1.11983e-06
-5.03703e-08
-1.06915e-06
-5.06136e-08
-1.01823e-06
-5.0846e-08
-9.67094e-07
-5.10704e-08
-9.15734e-07
-5.12926e-08
-8.64153e-07
-5.15145e-08
-8.12353e-07
-5.17386e-08
-7.60332e-07
-5.19637e-08
-7.08091e-07
-5.21873e-08
-6.55635e-07
-5.24084e-08
-6.02965e-07
-5.26258e-08
-5.50083e-07
-5.28426e-08
-4.96988e-07
-5.30588e-08
-4.4368e-07
-5.32788e-08
-3.90155e-07
-5.34976e-08
-3.36423e-07
-5.37124e-08
-2.82505e-07
-5.39015e-08
-2.28462e-07
-5.40362e-08
-1.74399e-07
-5.40589e-08
-1.20517e-07
-5.38898e-08
-6.72129e-08
-5.33124e-08
-1.5103e-08
-5.21309e-08
3.41893e-08
-4.93121e-08
8.02444e-08
-4.60843e-08
-2.26476e-08
1.0289e-07
-3.43061e-09
1.15047e-08
-9.45986e-09
1.987e-08
-1.22451e-08
1.78851e-08
-4.88521e-09
5.57487e-09
1.76012e-08
-1.67293e-08
5.44247e-08
-4.41929e-08
1.01284e-07
-6.93693e-08
1.52716e-07
-8.68004e-08
2.03691e-07
-9.51203e-08
2.50925e-07
-9.54887e-08
2.92957e-07
-8.99843e-08
3.29061e-07
-8.07284e-08
3.59151e-07
-6.93543e-08
3.83385e-07
-5.69424e-08
4.02119e-07
-4.41445e-08
4.15699e-07
-3.13153e-08
4.2457e-07
-1.86262e-08
4.29243e-07
-6.1663e-09
4.3014e-07
6.10205e-09
4.27135e-07
1.82838e-08
4.19792e-07
3.03352e-08
4.07484e-07
4.20095e-08
3.89677e-07
5.2867e-08
3.65986e-07
6.22532e-08
3.36455e-07
6.9345e-08
3.01652e-07
7.32534e-08
2.62914e-07
7.32283e-08
2.2235e-07
6.89229e-08
1.8292e-07
6.05662e-08
1.48099e-07
4.88609e-08
1.21323e-07
3.46207e-08
1.05047e-07
1.84094e-08
1.00749e-07
5.30481e-10
1.08118e-07
-1.81905e-08
1.25326e-07
-3.66353e-08
1.47524e-07
-5.03953e-08
1.6774e-07
-5.36793e-08
1.80807e-07
-4.57681e-08
1.84828e-07
-3.04904e-08
1.7973e-07
-1.17684e-08
1.66603e-07
6.09765e-09
1.47468e-07
1.94044e-08
1.18622e-07
3.28966e-08
7.05542e-08
5.23738e-08
-6.23283e-09
7.86498e-08
-1.14269e-07
1.11957e-07
-2.46777e-07
1.47526e-07
-3.93982e-07
1.81163e-07
-5.47805e-07
2.12558e-07
-7.04565e-07
2.39602e-07
-8.61825e-07
2.59824e-07
-1.01567e-06
2.73167e-07
-1.16185e-06
2.79501e-07
-1.29894e-06
2.78177e-07
-1.42481e-06
2.70183e-07
-1.53815e-06
2.57695e-07
-1.63855e-06
2.42222e-07
-1.72745e-06
2.2497e-07
-1.80606e-06
2.07014e-07
-1.87595e-06
1.89425e-07
-1.93848e-06
1.72735e-07
-1.99427e-06
1.57697e-07
-2.04538e-06
1.43978e-07
-2.09232e-06
1.31837e-07
-2.13539e-06
1.21433e-07
-2.17564e-06
1.12277e-07
-2.21339e-06
1.04329e-07
-2.24901e-06
9.73825e-08
-2.28276e-06
9.12717e-08
-2.31482e-06
8.58598e-08
-2.34534e-06
8.10158e-08
-2.37441e-06
7.66356e-08
-2.40212e-06
7.26288e-08
-2.42853e-06
6.8923e-08
-2.45368e-06
6.54574e-08
-2.47761e-06
6.21838e-08
-2.50033e-06
5.90649e-08
-2.52189e-06
5.60676e-08
-2.54228e-06
5.31705e-08
-2.56152e-06
5.03503e-08
-2.57961e-06
4.75957e-08
-2.59658e-06
4.48893e-08
-2.6124e-06
4.22263e-08
-2.6271e-06
3.95923e-08
-2.64067e-06
3.69859e-08
-2.65313e-06
3.43935e-08
-2.66445e-06
3.18148e-08
-2.67465e-06
2.92404e-08
-2.68371e-06
2.6667e-08
-2.69164e-06
2.40989e-08
-2.69847e-06
2.15293e-08
-2.7042e-06
1.89561e-08
-2.70882e-06
1.63806e-08
-2.71233e-06
1.37984e-08
-2.71474e-06
1.12125e-08
-2.71608e-06
8.61985e-09
-2.71639e-06
6.0251e-09
-2.71575e-06
3.43541e-09
-2.71425e-06
8.74395e-10
-2.71198e-06
-1.62488e-09
-2.70883e-06
-4.07035e-09
-2.70463e-06
-6.5054e-09
-2.69927e-06
-8.94679e-09
-2.69271e-06
-1.13855e-08
-2.68496e-06
-1.38247e-08
-2.67601e-06
-1.6262e-08
-2.66587e-06
-1.87009e-08
-2.65452e-06
-2.11364e-08
-2.64198e-06
-2.35717e-08
-2.62824e-06
-2.60011e-08
-2.6133e-06
-2.84277e-08
-2.59718e-06
-3.08458e-08
-2.57986e-06
-3.3258e-08
-2.56136e-06
-3.56589e-08
-2.54168e-06
-3.80502e-08
-2.52082e-06
-4.04271e-08
-2.4988e-06
-4.27901e-08
-2.47561e-06
-4.51352e-08
-2.45127e-06
-4.74616e-08
-2.42579e-06
-4.97663e-08
-2.39918e-06
-5.20473e-08
-2.37145e-06
-5.43023e-08
-2.34261e-06
-5.65281e-08
-2.31269e-06
-5.87233e-08
-2.28169e-06
-6.08838e-08
-2.24963e-06
-6.30091e-08
-2.21654e-06
-6.5095e-08
-2.18243e-06
-6.71413e-08
-2.14733e-06
-6.9142e-08
-2.11127e-06
-7.10947e-08
-2.07425e-06
-7.29951e-08
-2.03632e-06
-7.4846e-08
-1.99751e-06
-7.66429e-08
-1.95784e-06
-7.83791e-08
-1.91733e-06
-8.00456e-08
-1.87601e-06
-8.16402e-08
-1.83386e-06
-8.31596e-08
-1.79089e-06
-8.46184e-08
-1.74719e-06
-8.60882e-08
-1.70284e-06
-8.7536e-08
-1.65783e-06
-8.88858e-08
-1.61218e-06
-9.016e-08
-1.56594e-06
-9.13617e-08
-1.51912e-06
-9.24969e-08
-1.47177e-06
-9.35669e-08
-1.4239e-06
-9.45744e-08
-1.37555e-06
-9.55218e-08
-1.32674e-06
-9.64151e-08
-1.27749e-06
-9.72621e-08
-1.22784e-06
-9.80662e-08
-1.17781e-06
-9.88304e-08
-1.12742e-06
-9.95469e-08
-1.07668e-06
-1.00215e-07
-1.02564e-06
-1.00831e-07
-9.74303e-07
-1.014e-07
-9.227e-07
-1.01926e-07
-8.70846e-07
-1.02421e-07
-8.18753e-07
-1.02889e-07
-7.6643e-07
-1.03345e-07
-7.13882e-07
-1.03793e-07
-6.61109e-07
-1.04243e-07
-6.0811e-07
-1.04695e-07
-5.54883e-07
-1.05151e-07
-5.01429e-07
-1.05606e-07
-4.47749e-07
-1.06056e-07
-3.93845e-07
-1.06501e-07
-3.39717e-07
-1.06944e-07
-2.85363e-07
-1.07389e-07
-2.30783e-07
-1.07839e-07
-1.75974e-07
-1.08291e-07
-1.20942e-07
-1.08732e-07
-6.57078e-08
-1.0913e-07
-1.03191e-08
-1.09423e-07
4.51387e-08
-1.09522e-07
1.005e-07
-1.0926e-07
1.55482e-07
-1.08311e-07
2.09538e-07
-1.06207e-07
2.62164e-07
-1.01964e-07
3.09975e-07
-9.39235e-08
-6.86116e-08
3.55921e-07
4.01153e-10
1.1114e-08
4.1557e-09
1.61234e-08
1.88222e-08
3.23698e-09
5.20176e-08
-2.76165e-08
1.02324e-07
-6.70266e-08
1.60262e-07
-1.02131e-07
2.1614e-07
-1.25242e-07
2.64452e-07
-1.35114e-07
3.03566e-07
-1.34229e-07
3.34131e-07
-1.26056e-07
3.57717e-07
-1.13564e-07
3.75817e-07
-9.88301e-08
3.89612e-07
-8.31416e-08
3.99889e-07
-6.72213e-08
4.07202e-07
-5.14485e-08
4.11895e-07
-3.60096e-08
4.14269e-07
-2.09895e-08
4.14538e-07
-6.43504e-09
4.13015e-07
7.63682e-09
4.10034e-07
2.12671e-08
4.0588e-07
3.45041e-08
4.00564e-07
4.73304e-08
3.93836e-07
5.96105e-08
3.85082e-07
7.1015e-08
3.73476e-07
8.09679e-08
3.58108e-07
8.86323e-08
3.3839e-07
9.29635e-08
3.1445e-07
9.2876e-08
2.87499e-07
8.7535e-08
2.59826e-07
7.65494e-08
2.34371e-07
6.00935e-08
2.13895e-07
3.89031e-08
2.00072e-07
1.43693e-08
1.93011e-07
-1.11146e-08
1.88666e-07
-3.22832e-08
1.79707e-07
-4.14288e-08
1.61908e-07
-3.5882e-08
1.35197e-07
-1.90561e-08
1.00431e-07
4.26304e-09
5.60931e-08
3.25578e-08
-2.85453e-09
6.50207e-08
-8.34214e-08
9.99499e-08
-1.88485e-07
1.37939e-07
-3.1548e-07
1.79353e-07
-4.5893e-07
2.22083e-07
-6.10059e-07
2.63091e-07
-7.62289e-07
2.99744e-07
-9.10892e-07
3.29776e-07
-1.05056e-06
3.52214e-07
-1.17776e-06
3.66804e-07
-1.29124e-06
3.73289e-07
-1.39023e-06
3.72143e-07
-1.47486e-06
3.64118e-07
-1.54695e-06
3.50243e-07
-1.60888e-06
3.32102e-07
-1.66272e-06
3.1152e-07
-1.71034e-06
2.89835e-07
-1.75349e-06
2.68125e-07
-1.79362e-06
2.47138e-07
-1.83165e-06
2.27462e-07
-1.86828e-06
2.09368e-07
-1.90364e-06
1.93054e-07
-1.93813e-06
1.78467e-07
-1.97182e-06
1.65536e-07
-2.00456e-06
1.54168e-07
-2.03642e-06
1.44134e-07
-2.06736e-06
1.35268e-07
-2.09738e-06
1.27389e-07
-2.12644e-06
1.20333e-07
-2.15455e-06
1.13958e-07
-2.18168e-06
1.08143e-07
-2.20784e-06
1.02783e-07
-2.23301e-06
9.77905e-08
-2.25719e-06
9.30928e-08
-2.28037e-06
8.86316e-08
-2.30256e-06
8.43584e-08
-2.32374e-06
8.02352e-08
-2.34392e-06
7.62307e-08
-2.36308e-06
7.2321e-08
-2.38122e-06
6.84856e-08
-2.39834e-06
6.471e-08
-2.41444e-06
6.098e-08
-2.4295e-06
5.7287e-08
-2.44353e-06
5.36206e-08
-2.45652e-06
4.99754e-08
-2.46847e-06
4.63427e-08
-2.47938e-06
4.27192e-08
-2.48924e-06
3.90975e-08
-2.49804e-06
3.54779e-08
-2.50579e-06
3.18568e-08
-2.5125e-06
2.82361e-08
-2.51818e-06
2.46153e-08
-2.52281e-06
2.09912e-08
-2.5264e-06
1.73684e-08
-2.52894e-06
1.37484e-08
-2.53045e-06
1.01332e-08
-2.53094e-06
6.52749e-09
-2.53042e-06
2.93432e-09
-2.52889e-06
-6.34912e-10
-2.52631e-06
-4.18276e-09
-2.52264e-06
-7.72418e-09
-2.51784e-06
-1.12856e-08
-2.51191e-06
-1.48622e-08
-2.50483e-06
-1.8451e-08
-2.4966e-06
-2.20433e-08
-2.48722e-06
-2.56417e-08
-2.47667e-06
-2.92394e-08
-2.46497e-06
-3.28391e-08
-2.45211e-06
-3.64349e-08
-2.4381e-06
-4.00283e-08
-2.42292e-06
-4.36145e-08
-2.40659e-06
-4.71938e-08
-2.38911e-06
-5.07621e-08
-2.37047e-06
-5.43185e-08
-2.35068e-06
-5.78595e-08
-2.32976e-06
-6.13827e-08
-2.30769e-06
-6.48849e-08
-2.28449e-06
-6.83629e-08
-2.26016e-06
-7.18136e-08
-2.23472e-06
-7.52332e-08
-2.20818e-06
-7.86186e-08
-2.18054e-06
-8.19655e-08
-2.15183e-06
-8.52708e-08
-2.12204e-06
-8.85299e-08
-2.09121e-06
-9.17394e-08
-2.05935e-06
-9.48949e-08
-2.02647e-06
-9.79932e-08
-1.99259e-06
-1.0103e-07
-1.95775e-06
-1.04001e-07
-1.92195e-06
-1.069e-07
-1.88523e-06
-1.09724e-07
-1.84761e-06
-1.12471e-07
-1.80912e-06
-1.1514e-07
-1.76979e-06
-1.17721e-07
-1.72964e-06
-1.20209e-07
-1.68869e-06
-1.22604e-07
-1.64695e-06
-1.24907e-07
-1.60444e-06
-1.27129e-07
-1.56123e-06
-1.29299e-07
-1.51738e-06
-1.31398e-07
-1.47289e-06
-1.33391e-07
-1.42778e-06
-1.3528e-07
-1.38208e-06
-1.37068e-07
-1.33583e-06
-1.38758e-07
-1.28905e-06
-1.40355e-07
-1.24176e-06
-1.4186e-07
-1.19399e-06
-1.43278e-07
-1.14578e-06
-1.44617e-07
-1.09714e-06
-1.45886e-07
-1.0481e-06
-1.47091e-07
-9.98675e-07
-1.48234e-07
-9.48897e-07
-1.4931e-07
-8.98782e-07
-1.50314e-07
-8.48355e-07
-1.51243e-07
-7.97636e-07
-1.52102e-07
-7.46647e-07
-1.529e-07
-6.95404e-07
-1.53647e-07
-6.43921e-07
-1.54359e-07
-5.92204e-07
-1.55047e-07
-5.40261e-07
-1.55724e-07
-4.88091e-07
-1.564e-07
-4.35694e-07
-1.57082e-07
-3.83067e-07
-1.57768e-07
-3.30211e-07
-1.58453e-07
-2.77127e-07
-1.59132e-07
-2.23816e-07
-1.59806e-07
-1.70278e-07
-1.60476e-07
-1.16511e-07
-1.61151e-07
-6.25125e-08
-1.61832e-07
-8.28104e-09
-1.62517e-07
4.61792e-08
-1.63187e-07
1.00851e-07
-1.63797e-07
1.55697e-07
-1.64264e-07
2.10637e-07
-1.64456e-07
2.65535e-07
-1.64152e-07
3.20193e-07
-1.62962e-07
3.74278e-07
-1.60287e-07
4.27382e-07
-1.55063e-07
4.78547e-07
-1.45083e-07
-1.21158e-07
5.31106e-07
-7.59234e-11
1.11998e-08
1.31426e-08
2.90956e-09
5.2712e-08
-3.6323e-08
1.14138e-07
-8.90415e-08
1.80394e-07
-1.33279e-07
2.37488e-07
-1.59227e-07
2.79902e-07
-1.67653e-07
3.08503e-07
-1.63719e-07
3.26843e-07
-1.52565e-07
3.38518e-07
-1.37733e-07
3.4618e-07
-1.21221e-07
3.51391e-07
-1.04044e-07
3.54969e-07
-8.67126e-08
3.5724e-07
-6.94946e-08
3.58343e-07
-5.25428e-08
3.58291e-07
-3.59582e-08
3.57125e-07
-1.98144e-08
3.54866e-07
-4.1747e-09
3.51606e-07
1.09083e-08
3.47468e-07
2.54075e-08
3.42687e-07
3.92982e-08
3.37478e-07
5.25454e-08
3.32024e-07
6.5079e-08
3.26312e-07
7.67347e-08
3.20103e-07
8.71931e-08
3.1286e-07
9.58863e-08
3.03866e-07
1.01974e-07
2.92403e-07
1.04351e-07
2.78113e-07
1.0184e-07
2.61168e-07
9.35081e-08
2.42506e-07
7.87698e-08
2.23472e-07
5.79518e-08
2.04701e-07
3.31525e-08
1.82987e-07
1.06123e-08
1.51383e-07
-6.74746e-10
1.06989e-07
2.97086e-09
5.10003e-08
2.01044e-08
-1.71183e-08
4.90611e-08
-1.00204e-07
8.73391e-08
-1.99575e-07
1.31919e-07
-3.14404e-07
1.79839e-07
-4.42819e-07
2.28355e-07
-5.80464e-07
2.75572e-07
-7.21077e-07
3.19964e-07
-8.5869e-07
3.59687e-07
-9.87787e-07
3.92195e-07
-1.10407e-06
4.16022e-07
-1.20567e-06
4.31388e-07
-1.29198e-06
4.38518e-07
-1.36329e-06
4.38113e-07
-1.42122e-06
4.31201e-07
-1.46793e-06
4.18841e-07
-1.50604e-06
4.02212e-07
-1.53831e-06
3.82501e-07
-1.56715e-06
3.60928e-07
-1.59425e-06
3.38616e-07
-1.62082e-06
3.16398e-07
-1.64758e-06
2.94885e-07
-1.67494e-06
2.74494e-07
-1.70297e-06
2.55495e-07
-1.73163e-06
2.38026e-07
-1.7607e-06
2.22134e-07
-1.79001e-06
2.07779e-07
-1.81935e-06
1.94875e-07
-1.84849e-06
1.83306e-07
-1.87728e-06
1.72918e-07
-1.90558e-06
1.63562e-07
-1.93328e-06
1.55087e-07
-1.96031e-06
1.47356e-07
-1.9866e-06
1.40244e-07
-2.0121e-06
1.33643e-07
-2.03678e-06
1.27459e-07
-2.06061e-06
1.21612e-07
-2.08357e-06
1.16036e-07
-2.10562e-06
1.10676e-07
-2.12676e-06
1.05487e-07
-2.14697e-06
1.00434e-07
-2.16623e-06
9.54884e-08
-2.18455e-06
9.06264e-08
-2.2019e-06
8.58297e-08
-2.21828e-06
8.1084e-08
-2.23367e-06
7.63768e-08
-2.24809e-06
7.16989e-08
-2.26151e-06
6.70418e-08
-2.27393e-06
6.23992e-08
-2.28536e-06
5.77652e-08
-2.29578e-06
5.31349e-08
-2.30518e-06
4.85046e-08
-2.31357e-06
4.387e-08
-2.32094e-06
3.92375e-08
-2.32731e-06
3.45983e-08
-2.33266e-06
2.9958e-08
-2.337e-06
2.53135e-08
-2.34031e-06
2.06695e-08
-2.34259e-06
1.60267e-08
-2.34383e-06
1.13871e-08
-2.34404e-06
6.75149e-09
-2.3432e-06
2.12008e-09
-2.34132e-06
-2.50509e-09
-2.33835e-06
-7.13139e-09
-2.33429e-06
-1.17684e-08
-2.32912e-06
-1.64303e-08
-2.32286e-06
-2.11111e-08
-2.31549e-06
-2.58096e-08
-2.30701e-06
-3.05158e-08
-2.29742e-06
-3.52319e-08
-2.2867e-06
-3.99493e-08
-2.27487e-06
-4.46711e-08
-2.26192e-06
-4.9389e-08
-2.24786e-06
-5.4106e-08
-2.23267e-06
-5.88143e-08
-2.21636e-06
-6.35162e-08
-2.19893e-06
-6.82045e-08
-2.18039e-06
-7.28798e-08
-2.16073e-06
-7.75356e-08
-2.13996e-06
-8.21703e-08