/*--------------------------------*- C++ -*----------------------------------*\
  =========                 |
  \\      /  F ield         | OpenFOAM: The Open Source CFD Toolbox
   \\    /   O peration     | Website:  https://openfoam.org
    \\  /    A nd           | Version:  8
     \\/     M anipulation  |
\*---------------------------------------------------------------------------*/
FoamFile
{
    version     2.0;
    format      ascii;
    class       volVectorField;
    location    "1800";
    object      U;
}
// * * * * * * * * * * * * * * * * * * * * * * * * * * * * * * * * * * * * * //

dimensions      [0 1 -1 0 0 0 0];

internalField   nonuniform List<vector> 
12225
(
(9.74843 0.0469323 0)
(9.29933 0.0932866 0)
(8.85111 0.105021 0)
(8.43299 0.097044 0)
(8.07535 0.0804045 0)
(7.77089 0.0652451 0)
(7.52443 0.0520276 0)
(7.32298 0.0405608 0)
(7.15028 0.0287745 0)
(7.00425 0.0235882 0)
(6.88498 0.0208211 0)
(6.78347 0.0164222 0)
(6.70973 0.00863935 0)
(6.64511 0.00974609 0)
(6.6013 0.0178501 0)
(6.56092 0.0101761 0)
(6.53335 -0.00315405 0)
(6.53012 -0.00746026 0)
(10.0938 0.0590924 0)
(10.2657 0.0927417 0)
(10.3567 0.0897557 0)
(10.3778 0.0856537 0)
(10.3586 0.0835068 0)
(10.3117 0.0790385 0)
(10.2365 0.072792 0)
(10.1483 0.0672921 0)
(10.056 0.0632072 0)
(9.96541 0.0578294 0)
(9.87292 0.0523056 0)
(9.78044 0.0476243 0)
(9.68656 0.043925 0)
(9.60216 0.0378799 0)
(9.51409 0.0319208 0)
(9.43251 0.0297275 0)
(9.36107 0.0253332 0)
(9.29457 0.0176762 0)
(10.0206 0.0409108 0)
(10.0761 0.0650184 0)
(10.1311 0.0709432 0)
(10.1723 0.0766539 0)
(10.2073 0.0801078 0)
(10.2371 0.0814264 0)
(10.2591 0.0803494 0)
(10.2726 0.0781919 0)
(10.2784 0.07536 0)
(10.2788 0.072033 0)
(10.2753 0.0694625 0)
(10.268 0.0663504 0)
(10.2564 0.0620837 0)
(10.242 0.0587743 0)
(10.2259 0.0559275 0)
(10.209 0.0512822 0)
(10.1906 0.045161 0)
(10.1688 0.0383392 0)
(10.0081 0.0301669 0)
(10.0386 0.0556236 0)
(10.0704 0.0650023 0)
(10.0943 0.0706352 0)
(10.1141 0.0732323 0)
(10.1327 0.0733022 0)
(10.1498 0.0715381 0)
(10.1644 0.0692279 0)
(10.177 0.0668174 0)
(10.1877 0.0643422 0)
(10.1972 0.0623251 0)
(10.206 0.0602342 0)
(10.2134 0.0574461 0)
(10.2196 0.0549026 0)
(10.2253 0.0525808 0)
(10.2305 0.048982 0)
(10.2341 0.0441651 0)
(10.2357 0.0389456 0)
(10.0045 0.0231895 0)
(10.0272 0.049087 0)
(10.0519 0.0597879 0)
(10.0711 0.0647781 0)
(10.0866 0.0673186 0)
(10.1009 0.067897 0)
(10.1141 0.0669153 0)
(10.1255 0.0652688 0)
(10.1356 0.0633664 0)
(10.1446 0.06131 0)
(10.1529 0.0594476 0)
(10.1608 0.057449 0)
(10.1682 0.0549518 0)
(10.1749 0.0524905 0)
(10.1815 0.0499408 0)
(10.1878 0.0465386 0)
(10.1932 0.04234 0)
(10.1973 0.0378656 0)
(10.003 0.0184905 0)
(10.0205 0.0423384 0)
(10.041 0.0536163 0)
(10.0582 0.0588593 0)
(10.0722 0.0619936 0)
(10.0852 0.0632157 0)
(10.0971 0.0627602 0)
(10.1074 0.0614111 0)
(10.1165 0.0596962 0)
(10.1247 0.0577605 0)
(10.1323 0.0558652 0)
(10.1395 0.0538011 0)
(10.1463 0.0514093 0)
(10.1525 0.0489362 0)
(10.1586 0.0462916 0)
(10.1642 0.043102 0)
(10.1692 0.0394204 0)
(10.1733 0.0355114 0)
(10.0021 0.0148495 0)
(10.0153 0.036095 0)
(10.0327 0.0476095 0)
(10.0482 0.0531678 0)
(10.0613 0.0565791 0)
(10.0733 0.0581457 0)
(10.0845 0.0580787 0)
(10.0944 0.0570648 0)
(10.1031 0.0556165 0)
(10.111 0.0539117 0)
(10.1183 0.0521322 0)
(10.1252 0.0501686 0)
(10.1317 0.0479299 0)
(10.1377 0.0455352 0)
(10.1434 0.0429339 0)
(10.1486 0.0399616 0)
(10.1533 0.0366644 0)
(10.1572 0.0331853 0)
(10.0015 0.0122718 0)
(10.012 0.031442 0)
(10.027 0.0429251 0)
(10.0412 0.0486731 0)
(10.0535 0.0521624 0)
(10.0648 0.0538914 0)
(10.0754 0.0540673 0)
(10.085 0.0532943 0)
(10.0935 0.0520259 0)
(10.1012 0.0504811 0)
(10.1084 0.0487707 0)
(10.1151 0.0468678 0)
(10.1214 0.0447119 0)
(10.1273 0.0423799 0)
(10.1327 0.0398411 0)
(10.1377 0.0370461 0)
(10.1422 0.0340241 0)
(10.146 0.0308719 0)
(10.0011 0.0103232 0)
(10.0097 0.0274213 0)
(10.0227 0.0386432 0)
(10.0357 0.0444615 0)
(10.0472 0.0480001 0)
(10.0579 0.0498678 0)
(10.068 0.0502792 0)
(10.0772 0.0497361 0)
(10.0855 0.0486598 0)
(10.0931 0.0472658 0)
(10.1001 0.0456514 0)
(10.1067 0.0438226 0)
(10.1128 0.0417608 0)
(10.1185 0.0395166 0)
(10.1238 0.0370946 0)
(10.1286 0.0344626 0)
(10.1329 0.0316664 0)
(10.1367 0.0287631 0)
(10.0008 0.00860439 0)
(10.0077 0.0234875 0)
(10.0187 0.0341693 0)
(10.0305 0.039968 0)
(10.0412 0.0435202 0)
(10.0513 0.0454756 0)
(10.0608 0.04609 0)
(10.0696 0.0457551 0)
(10.0776 0.0448638 0)
(10.085 0.0436111 0)
(10.0918 0.0421058 0)
(10.0982 0.0403634 0)
(10.1042 0.0384028 0)
(10.1097 0.0362795 0)
(10.1148 0.0339808 0)
(10.1195 0.0315357 0)
(10.1237 0.0289626 0)
(10.1274 0.0263254 0)
(10.0006 0.00708086 0)
(10.006 0.0197486 0)
(10.0153 0.0296067 0)
(10.0257 0.0352434 0)
(10.0356 0.0387229 0)
(10.0449 0.0407043 0)
(10.0539 0.041462 0)
(10.0622 0.0413169 0)
(10.0699 0.0405865 0)
(10.0771 0.0394791 0)
(10.0837 0.0380829 0)
(10.0898 0.0364478 0)
(10.0956 0.034618 0)
(10.101 0.0326279 0)
(10.1059 0.0304893 0)
(10.1104 0.0282394 0)
(10.1144 0.0259026 0)
(10.1181 0.0234977 0)
(10.0005 0.00571177 0)
(10.0047 0.0161821 0)
(10.0123 0.0249802 0)
(10.0214 0.0302721 0)
(10.0304 0.0335855 0)
(10.039 0.0355203 0)
(10.0473 0.0363646 0)
(10.0552 0.0363622 0)
(10.0626 0.0357916 0)
(10.0694 0.0348145 0)
(10.0758 0.033553 0)
(10.0817 0.032049 0)
(10.0873 0.0303798 0)
(10.0924 0.0285357 0)
(10.0972 0.0265965 0)
(10.1015 0.0245389 0)
(10.1054 0.0224398 0)
(10.1089 0.0202735 0)
(10.0004 0.00448424 0)
(10.0037 0.0128636 0)
(10.0099 0.0203844 0)
(10.0177 0.0251213 0)
(10.0257 0.0281514 0)
(10.0336 0.0299507 0)
(10.0413 0.030795 0)
(10.0487 0.0308882 0)
(10.0557 0.0304373 0)
(10.0622 0.0295996 0)
(10.0683 0.0284734 0)
(10.074 0.0271386 0)
(10.0794 0.0256182 0)
(10.0843 0.0239762 0)
(10.0889 0.0222085 0)
(10.093 0.0203859 0)
(10.0968 0.0185011 0)
(10.1002 0.0165922 0)
(10.0003 0.00337813 0)
(10.0029 0.00976317 0)
(10.008 0.0158612 0)
(10.0146 0.0198425 0)
(10.0217 0.0224535 0)
(10.0289 0.0240141 0)
(10.0359 0.024767 0)
(10.0428 0.0248874 0)
(10.0493 0.024513 0)
(10.0555 0.0237988 0)
(10.0614 0.0228113 0)
(10.0668 0.0216381 0)
(10.072 0.0202945 0)
(10.0767 0.0188376 0)
(10.0811 0.0172782 0)
(10.0851 0.0156771 0)
(10.0888 0.0140325 0)
(10.0921 0.012371 0)
(10.0002 0.00235249 0)
(10.0023 0.00683625 0)
(10.0065 0.0114127 0)
(10.0121 0.0144714 0)
(10.0184 0.0165101 0)
(10.0248 0.0177214 0)
(10.0313 0.0182942 0)
(10.0377 0.0183494 0)
(10.0438 0.0180158 0)
(10.0497 0.0173745 0)
(10.0552 0.0165239 0)
(10.0604 0.015489 0)
(10.0653 0.0143341 0)
(10.0699 0.0130586 0)
(10.0741 0.011733 0)
(10.078 0.010352 0)
(10.0815 0.00896808 0)
(10.0848 0.00755782 0)
(10.0002 0.00137862 0)
(10.0019 0.00401446 0)
(10.0054 0.00701348 0)
(10.0102 0.00899724 0)
(10.0158 0.0103125 0)
(10.0216 0.0110544 0)
(10.0276 0.0113377 0)
(10.0335 0.0112561 0)
(10.0393 0.0108825 0)
(10.0448 0.0102886 0)
(10.0501 0.00952751 0)
(10.0551 0.00863734 0)
(10.0598 0.00764761 0)
(10.0642 0.00658536 0)
(10.0682 0.00547871 0)
(10.072 0.00434808 0)
(10.0754 0.00321131 0)
(10.0786 0.00207587 0)
(10.0002 0.000421037 0)
(10.0017 0.00123311 0)
(10.0047 0.00259396 0)
(10.009 0.00335322 0)
(10.0141 0.00380769 0)
(10.0195 0.00393614 0)
(10.025 0.00383328 0)
(10.0306 0.00351043 0)
(10.036 0.00304271 0)
(10.0413 0.00243387 0)
(10.0464 0.00174496 0)
(10.0512 0.000970155 0)
(10.0557 0.000153533 0)
(10.06 -0.000709735 0)
(10.0639 -0.00158419 0)
(10.0676 -0.0024726 0)
(10.071 -0.00335117 0)
(10.0741 -0.00422141 0)
(10.0002 -0.000506557 0)
(10.0016 -0.00145173 0)
(10.0045 -0.00176404 0)
(10.0086 -0.00226423 0)
(10.0134 -0.00276807 0)
(10.0186 -0.00330493 0)
(10.024 -0.00388424 0)
(10.0294 -0.00447911 0)
(10.0347 -0.00511004 0)
(10.0399 -0.00574279 0)
(10.0448 -0.00640421 0)
(10.0495 -0.00705934 0)
(10.054 -0.00773457 0)
(10.0581 -0.0083952 0)
(10.062 -0.00906411 0)
(10.0656 -0.0097101 0)
(10.069 -0.0103548 0)
(10.0721 -0.0109672 0)
(10.0002 -0.00138026 0)
(10.0017 -0.00396699 0)
(10.0047 -0.00585476 0)
(10.0089 -0.00754385 0)
(10.0139 -0.0089439 0)
(10.0192 -0.0101228 0)
(10.0246 -0.011143 0)
(10.03 -0.0120165 0)
(10.0354 -0.0127838 0)
(10.0406 -0.0134585 0)
(10.0455 -0.0140746 0)
(10.0502 -0.0146359 0)
(10.0546 -0.0151632 0)
(10.0588 -0.015655 0)
(10.0627 -0.016124 0)
(10.0663 -0.016567 0)
(10.0697 -0.016992 0)
(10.0728 -0.0173898 0)
(10.0002 -0.00224167 0)
(10.0019 -0.0064264 0)
(10.0053 -0.00975918 0)
(10.01 -0.0125146 0)
(10.0152 -0.0146733 0)
(10.0208 -0.0164104 0)
(10.0264 -0.0177885 0)
(10.0321 -0.0188885 0)
(10.0376 -0.0197421 0)
(10.0429 -0.0204362 0)
(10.048 -0.020983 0)
(10.0528 -0.0214489 0)
(10.0572 -0.0218235 0)
(10.0614 -0.0221601 0)
(10.0654 -0.0224415 0)
(10.069 -0.0227049 0)
(10.0724 -0.0229335 0)
(10.0755 -0.0231456 0)
(10.0002 -0.00316156 0)
(10.0023 -0.00900844 0)
(10.0063 -0.0137049 0)
(10.0116 -0.0173775 0)
(10.0174 -0.0201817 0)
(10.0234 -0.0223589 0)
(10.0294 -0.0240313 0)
(10.0354 -0.0252643 0)
(10.0412 -0.0261729 0)
(10.0467 -0.026818 0)
(10.0519 -0.0272952 0)
(10.0568 -0.0276186 0)
(10.0614 -0.0278618 0)
(10.0656 -0.0280159 0)
(10.0696 -0.0281416 0)
(10.0733 -0.0282138 0)
(10.0767 -0.0282823 0)
(10.0799 -0.0283101 0)
(10.0003 -0.00419991 0)
(10.003 -0.0118424 0)
(10.0078 -0.017814 0)
(10.014 -0.0222527 0)
(10.0204 -0.0255723 0)
(10.0269 -0.0281064 0)
(10.0334 -0.0299722 0)
(10.0398 -0.031279 0)
(10.0459 -0.0321601 0)
(10.0516 -0.0327351 0)
(10.057 -0.0330857 0)
(10.0621 -0.0332704 0)
(10.0668 -0.0333394 0)
(10.0712 -0.0333325 0)
(10.0752 -0.0332739 0)
(10.079 -0.0331885 0)
(10.0824 -0.0330811 0)
(10.0856 -0.0329649 0)
(10.0004 -0.00542751 0)
(10.0039 -0.0150399 0)
(10.01 -0.0221431 0)
(10.0171 -0.0271694 0)
(10.0243 -0.0308985 0)
(10.0314 -0.0337066 0)
(10.0384 -0.0356801 0)
(10.0453 -0.0369729 0)
(10.0517 -0.0377736 0)
(10.0578 -0.0382313 0)
(10.0634 -0.03843 0)
(10.0686 -0.0384516 0)
(10.0735 -0.0383405 0)
(10.0779 -0.038162 0)
(10.0821 -0.0379278 0)
(10.0859 -0.0376792 0)
(10.0894 -0.0374147 0)
(10.0927 -0.0371494 0)
(10.0006 -0.0069466 0)
(10.0053 -0.0187154 0)
(10.013 -0.0266931 0)
(10.0213 -0.0320805 0)
(10.0292 -0.0361466 0)
(10.0369 -0.0391763 0)
(10.0446 -0.0411879 0)
(10.0519 -0.0423977 0)
(10.0588 -0.0430622 0)
(10.0651 -0.0433565 0)
(10.071 -0.0433743 0)
(10.0765 -0.0431988 0)
(10.0815 -0.0429033 0)
(10.0861 -0.0425345 0)
(10.0904 -0.0421408 0)
(10.0943 -0.041736 0)
(10.0979 -0.041348 0)
(10.1012 -0.0409587 0)
(10.001 -0.00888394 0)
(10.0075 -0.0229726 0)
(10.0171 -0.0314762 0)
(10.0266 -0.0369904 0)
(10.0353 -0.0412865 0)
(10.0438 -0.0444597 0)
(10.0522 -0.0464636 0)
(10.0602 -0.0475847 0)
(10.0675 -0.0481202 0)
(10.0743 -0.0482503 0)
(10.0806 -0.0480749 0)
(10.0863 -0.0476897 0)
(10.0916 -0.0471724 0)
(10.0964 -0.0465884 0)
(10.1009 -0.0459875 0)
(10.105 -0.0454022 0)
(10.1087 -0.0448433 0)
(10.1122 -0.0443073 0)
(10.0015 -0.0114247 0)
(10.0107 -0.0276642 0)
(10.0229 -0.0364709 0)
(10.0338 -0.0421919 0)
(10.0435 -0.0466386 0)
(10.0531 -0.0497243 0)
(10.0626 -0.0515253 0)
(10.0716 -0.0524578 0)
(10.0798 -0.052814 0)
(10.0873 -0.0527915 0)
(10.0943 -0.0524685 0)
(10.1007 -0.0519468 0)
(10.1066 -0.0513048 0)
(10.112 -0.0505966 0)
(10.1169 -0.0498972 0)
(10.1214 -0.0492246 0)
(10.1256 -0.0485943 0)
(10.1295 -0.0479735 0)
(10.0024 -0.0153492 0)
(10.0163 -0.0327391 0)
(10.0324 -0.0412049 0)
(10.0463 -0.04752 0)
(10.0586 -0.0525273 0)
(10.0709 -0.0556348 0)
(10.083 -0.0571663 0)
(10.0943 -0.0577314 0)
(10.1048 -0.057697 0)
(10.1144 -0.0572496 0)
(10.1234 -0.056506 0)
(10.1316 -0.0555867 0)
(10.1391 -0.0545705 0)
(10.1458 -0.0535472 0)
(10.152 -0.0525755 0)
(10.1576 -0.051704 0)
(10.1627 -0.0509325 0)
(10.1673 -0.0501916 0)
(10.0063 -0.0230471 0)
(10.0339 -0.0392788 0)
(10.0624 -0.0447301 0)
(10.0869 -0.0507927 0)
(10.1097 -0.0567165 0)
(10.1324 -0.0608183 0)
(10.1539 -0.0632118 0)
(10.1733 -0.0644951 0)
(10.1904 -0.0650426 0)
(10.2054 -0.06496 0)
(10.2183 -0.0644089 0)
(10.2292 -0.0635092 0)
(10.238 -0.0623817 0)
(10.2451 -0.061153 0)
(10.2504 -0.0598971 0)
(10.2544 -0.0587332 0)
(10.2571 -0.0577153 0)
(10.2588 -0.0569677 0)
(10.0431 -0.0365401 0)
(10.1426 -0.0634135 0)
(10.2165 -0.0678427 0)
(10.2689 -0.0697624 0)
(10.3067 -0.0717825 0)
(10.331 -0.0724978 0)
(10.3419 -0.0719313 0)
(10.3411 -0.0706074 0)
(10.3306 -0.0688467 0)
(10.313 -0.0667758 0)
(10.2898 -0.0644994 0)
(10.2625 -0.0621055 0)
(10.2321 -0.0596768 0)
(10.1997 -0.057283 0)
(10.1658 -0.054978 0)
(10.1313 -0.052897 0)
(10.0962 -0.0510309 0)
(10.0619 -0.0498212 0)
(9.88827 -0.0291247 0)
(9.66856 -0.0638855 0)
(9.43296 -0.0776123 0)
(9.18353 -0.083544 0)
(8.94148 -0.0842343 0)
(8.71548 -0.0812659 0)
(8.50812 -0.0760603 0)
(8.31934 -0.069952 0)
(8.14915 -0.0634823 0)
(7.9967 -0.0569943 0)
(7.86094 -0.0507769 0)
(7.74015 -0.0449565 0)
(7.63307 -0.0395972 0)
(7.53805 -0.0347068 0)
(7.45394 -0.0302846 0)
(7.37922 -0.0263585 0)
(7.31251 -0.0230067 0)
(7.25273 -0.0206835 0)
(-0.00272493 0.00743893 0)
(-0.0125659 0.012401 0)
(-0.0260589 0.0134956 0)
(-0.0402485 0.0115131 0)
(-0.050514 0.00580626 0)
(-0.0494625 -0.00362641 0)
(-0.033804 -0.0163799 -8.17312e-19)
(-0.0068123 -0.0296739 9.27121e-19)
(0.0283106 -0.0396276 0)
(0.0686545 -0.0445105 5.33414e-19)
(0.111352 -0.0449448 0)
(0.15299 -0.0420861 0)
(0.190864 -0.0369795 0)
(0.223326 -0.0304308 -2.61807e-19)
(0.249516 -0.0230017 0)
(0.269012 -0.0150528 0)
(0.281487 -0.00678327 2.26239e-19)
(0.287137 0.00186857 0)
(0.284865 0.0107947 0)
(0.274874 0.0195184 0)
(0.257792 0.0273002 -2.42342e-19)
(0.234256 0.0333573 0)
(0.205188 0.0369768 -2.86549e-19)
(0.171972 0.0375483 0)
(0.136433 0.0346619 0)
(0.100809 0.0283178 -4.65113e-19)
(0.0675521 0.0192132 0)
(0.0390393 0.00902731 7.71553e-19)
(0.0169823 0.000323646 0)
(0.00179416 -0.00490473 -1.31333e-18)
(-0.00770487 -0.0072749 0)
(-0.012552 -0.00884369 0)
(-0.0117015 -0.0108571 0)
(-0.00467193 -0.0142511 0)
(0.00943176 -0.0194812 0)
(0.031102 -0.0254495 8.562e-19)
(0.0589786 -0.0299031 0)
(0.0890987 -0.0304428 -1.00581e-18)
(0.116441 -0.026503 0)
(0.136751 -0.0193141 7.91573e-19)
(0.147973 -0.011267 0)
(0.151016 -0.00456079 0)
(0.148288 -0.000707425 -7.77266e-19)
(0.143771 -0.000534962 0)
(0.140849 -0.00494037 -8.08997e-19)
(0.138783 -0.0136337 8.16235e-19)
(0.131688 -0.0228505 0)
(0.112224 -0.0230699 8.77296e-19)
(0.0745304 -0.0073621 1.01142e-18)
(0.0107472 0.0141164 0)
(-0.0806394 0.0351631 0)
(-0.182414 0.0589354 0)
(-0.296058 0.082076 0)
(-0.421503 0.0922818 0)
(-0.555116 0.0977778 -2.03914e-19)
(-0.687373 0.103488 0)
(-0.818537 0.108292 1.51165e-19)
(-0.945476 0.107163 0)
(-1.0674 0.102543 0)
(-1.18113 0.0951752 -1.16744e-19)
(-1.28704 0.0870139 0)
(-1.38456 0.0810569 1.03953e-19)
(-1.47462 0.0717742 0)
(-1.55678 0.0642993 0)
(-1.63245 0.0595179 0)
(-1.70249 0.053978 -8.99373e-20)
(-1.76716 0.0495862 0)
(-1.82728 0.0456689 0)
(-1.88337 0.0422291 -8.34044e-20)
(-1.93592 0.0392447 0)
(-1.98536 0.0366074 -8.01049e-20)
(-2.03203 0.0342829 0)
(-2.07624 0.0322024 0)
(-2.11821 0.0303286 0)
(-2.15815 0.0286204 7.4895e-20)
(-2.19622 0.0270478 0)
(-2.23253 0.025587 0)
(-2.26718 0.0242153 7.17125e-20)
(-2.30027 0.022921 7.07411e-20)
(-2.33185 0.0216858 0)
(-2.36197 0.0205065 6.8895e-20)
(-2.39068 0.0193672 0)
(-2.41801 0.0182704 1.34297e-19)
(-2.44399 0.0172012 0)
(-2.46864 0.0161648 1.30942e-19)
(-2.49198 0.0151464 0)
(-2.51402 0.0141521 -1.27673e-19)
(-2.53476 0.0131691 0)
(-2.5542 0.0122011 0)
(-2.57233 0.0112409 0)
(-2.58918 0.0102887 1.2125e-19)
(-2.60474 0.00933281 0)
(-2.61901 0.00837165 -1.18042e-19)
(-2.63194 0.00739539 0)
(-2.64351 0.00639854 1.14799e-19)
(-2.65368 0.00537333 1.13159e-19)
(-2.6624 0.00431453 1.11504e-19)
(-2.66964 0.00322971 0)
(-2.67534 0.00214649 0)
(-2.67943 0.00114291 0)
(-2.68188 0.000301634 0)
(-2.68301 -0.000391918 0)
(-2.68296 -0.00103381 0)
(-2.68173 -0.00165314 0)
(-2.67936 -0.00226467 0)
(-2.67582 -0.00286467 -9.5442e-20)
(-2.67114 -0.00346107 -9.34692e-20)
(-2.6653 -0.00404712 0)
(-2.6583 -0.00462986 0)
(-2.65014 -0.00520278 0)
(-2.64081 -0.00577205 -8.51563e-20)
(-2.63032 -0.0063321 0)
(-2.61867 -0.0068879 0)
(-2.60586 -0.00743512 0)
(-2.59188 -0.0079773 0)
(-2.57673 -0.00851144 7.37179e-20)
(-2.56043 -0.00903958 0)
(-2.54297 -0.00956006 0)
(-2.52435 -0.0100735 -6.62117e-20)
(-2.50459 -0.0105794 6.35889e-20)
(-2.48368 -0.0110772 0)
(-2.46164 -0.0115675 5.81467e-20)
(-2.43847 -0.0120487 0)
(-2.41418 -0.0125223 -5.24232e-20)
(-2.38878 -0.0129861 0)
(-2.36229 -0.0134424 0)
(-2.33472 -0.0138891 0)
(-2.30608 -0.0143289 0)
(-2.27638 -0.0147564 0)
(-2.24565 -0.01517 6.66258e-20)
(-2.21389 -0.0155636 5.9618e-20)
(-2.18115 -0.0159521 0)
(-2.14742 -0.0163224 0)
(-2.11275 -0.0166565 0)
(-2.07717 -0.0169304 -2.95052e-20)
(-2.04072 -0.0170775 0)
(-2.00346 -0.0170195 0)
(-1.96548 -0.0167609 0)
(-1.92671 -0.0167923 4.34245e-21)
(-1.88707 -0.0171239 -1.34768e-20)
(-1.84663 -0.0173712 0)
(-1.80544 -0.0176115 0)
(-1.76352 -0.0178346 -4.27705e-20)
(-1.72091 -0.0180461 -5.3217e-20)
(-1.67763 -0.0182445 0)
(-1.63371 -0.0184335 0)
(-1.58917 -0.0186121 8.68697e-20)
(-1.54403 -0.0187851 -9.89346e-20)
(-1.49832 -0.0189526 0)
(-1.45206 -0.0191175 0)
(-1.40528 -0.019279 -1.38045e-19)
(-1.35798 -0.0194368 0)
(-1.3102 -0.0195901 0)
(-1.26195 -0.0197402 -1.82247e-19)
(-1.21326 -0.0198885 0)
(-1.16414 -0.0200374 -2.1511e-19)
(-1.11462 -0.0201891 0)
(-1.06469 -0.020347 0)
(-1.01438 -0.0205129 0)
(-0.963685 -0.0206899 2.91074e-19)
(-0.912596 -0.0208793 0)
(-0.861113 -0.0210829 0)
(-0.80923 -0.0213005 0)
(-0.756943 -0.0215326 0)
(-0.704252 -0.0217796 0)
(-0.651155 -0.0220429 0)
(-0.597651 -0.0223251 4.73118e-19)
(-0.543733 -0.0226283 5.06707e-19)
(-0.489397 -0.0229553 0)
(-0.434634 -0.023306 0)
(-0.379441 -0.0236801 0)
(-0.323826 -0.02407 -6.71096e-19)
(-0.267825 -0.0244679 0)
(-0.211513 -0.0248723 1.55631e-18)
(-0.155041 -0.0252405 -1.68069e-18)
(-0.098709 -0.0254524 -1.81926e-18)
(-0.0428915 -0.0253406 1.9742e-18)
(0.00959418 -0.0241127 -2.05407e-18)
(0.0675876 -0.0218414 2.0178e-18)
(0.0853308 -0.0108992 0)
(-0.00029653 0.0200665 0)
(-0.00569662 0.0351308 0)
(-0.0121089 0.0362144 2.16275e-18)
(-0.0124255 0.0267581 0)
(0.00146544 0.00507488 -2.26049e-18)
(0.0305571 -0.0313654 -1.44494e-18)
(0.069064 -0.0720947 -4.56289e-19)
(0.113078 -0.105497 -3.26033e-19)
(0.158647 -0.126046 0)
(0.20238 -0.13338 -2.13373e-19)
(0.242117 -0.130078 0)
(0.276911 -0.119463 0)
(0.306437 -0.104378 3.17987e-19)
(0.330704 -0.0868772 1.51467e-19)
(0.349932 -0.0682938 -2.95238e-19)
(0.364429 -0.0493935 -2.9178e-19)
(0.374569 -0.030558 -1.45887e-19)
(0.380535 -0.0119304 0)
(0.383286 0.00651005 0)
(0.382737 0.02459 0)
(0.378512 0.041961 -1.54124e-19)
(0.370118 0.058084 0)
(0.356995 0.0722247 4.92995e-19)
(0.338676 0.0834098 0)
(0.314946 0.090534 0)
(0.286037 0.0925274 1.99439e-19)
(0.252821 0.0886747 0)
(0.216911 0.0790362 -2.52303e-19)
(0.180598 0.0646503 -5.90378e-19)
(0.146744 0.047283 3.52889e-19)
(0.118401 0.0285475 0)
(0.0987799 0.00931667 0)
(0.089238 -0.0105586 0)
(0.0914361 -0.0302476 -1.04259e-18)
(0.103743 -0.0498609 -8.80724e-19)
(0.122819 -0.0671435 -3.64411e-19)
(0.142938 -0.0752971 0)
(0.15818 -0.0705735 5.24061e-19)
(0.165808 -0.0556296 0)
(0.165402 -0.0356339 -5.02056e-19)
(0.157577 -0.0168987 0)
(0.143271 -0.00407063 0)
(0.122856 0.00314833 6.37936e-19)
(0.0910684 0.00867049 0)
(0.0390631 0.0188895 2.60969e-18)
(-0.0465136 0.0458434 -7.07851e-19)
(-0.161689 0.0870424 0)
(-0.290013 0.130792 -2.90738e-19)
(-0.424947 0.173675 -2.12764e-19)
(-0.566412 0.210668 0)
(-0.710704 0.239083 0)
(-0.852854 0.259436 0)
(-0.990466 0.271827 0)
(-1.12135 0.276083 0)
(-1.24191 0.2722 8.65692e-20)
(-1.35165 0.262093 1.62468e-19)
(-1.44951 0.247695 -7.60411e-20)
(-1.53663 0.230931 0)
(-1.61354 0.212899 1.39484e-19)
(-1.68233 0.194921 -6.77896e-20)
(-1.74349 0.177445 0)
(-1.7984 0.161411 -6.3402e-20)
(-1.84861 0.146812 0)
(-1.89447 0.133684 0)
(-1.93698 0.122258 -1.19518e-19)
(-1.97648 0.112182 5.85944e-20)
(-2.01366 0.103393 -1.15277e-19)
(-2.04882 0.0957301 1.13391e-19)
(-2.08221 0.0890207 5.58158e-20)
(-2.11405 0.0831199 0)
(-2.14448 0.0778856 5.42155e-20)
(-2.17359 0.0732051 0)
(-2.20148 0.0689753 0)
(-2.2282 0.0651156 0)
(-2.25381 0.0615582 5.12897e-20)
(-2.27832 0.0582474 0)
(-2.30177 0.0551421 1.00091e-19)
(-2.32418 0.0522033 -1.4832e-19)
(-2.34556 0.0494085 -4.8863e-20)
(-2.36592 0.0467286 0)
(-2.38526 0.0441539 -4.76711e-20)
(-2.40359 0.0416611 0)
(-2.42092 0.0392486 -9.30123e-20)
(-2.43724 0.0368961 0)
(-2.45257 0.0346058 -9.07104e-20)
(-2.46688 0.0323587 1.78997e-19)
(-2.48019 0.0301586 8.84124e-20)
(-2.49249 0.0279911 0)
(-2.50378 0.0258593 0)
(-2.51404 0.0237599 0)
(-2.5233 0.0216915 -8.37614e-20)
(-2.53156 0.0196476 0)
(-2.53881 0.0176284 8.1384e-20)
(-2.54506 0.0156263 0)
(-2.55029 0.0136395 -2.36871e-19)
(-2.55453 0.0116597 -7.77087e-20)
(-2.5578 0.00967954 -7.64506e-20)
(-2.56017 0.00769425 0)
(-2.56169 0.0057114 0)
(-2.56247 0.0037816 0)
(-2.56258 0.00197632 0)
(-2.56179 0.000302813 0)
(-2.55992 -0.00130618 -1.36931e-19)
(-2.55694 -0.00287524 -1.34071e-19)
(-2.55285 -0.00441999 0)
(-2.54763 -0.00593796 6.40126e-20)
(-2.54128 -0.00743693 6.25051e-20)
(-2.5338 -0.00890996 0)
(-2.52518 -0.0103637 1.19075e-19)
(-2.51542 -0.0117909 0)
(-2.50452 -0.0131975 -5.65072e-20)
(-2.49247 -0.0145771 0)
(-2.47928 -0.0159346 0)
(-2.46494 -0.0172645 1.02883e-19)
(-2.44945 -0.0185705 0)
(-2.43282 -0.0198485 -4.78492e-20)
(-2.41505 -0.0211004 0)
(-2.39613 -0.0223236 0)
(-2.37607 -0.0235186 -4.28935e-20)
(-2.35488 -0.024684 -4.06474e-20)
(-2.33256 -0.025819 0)
(-2.30911 -0.0269235 3.73177e-20)
(-2.28456 -0.0279952 0)
(-2.25889 -0.0290351 -3.34386e-20)
(-2.23214 -0.0300404 -6.23923e-20)
(-2.2043 -0.0310127 0)
(-2.17539 -0.0319491 0)
(-2.14544 -0.0328513 0)
(-2.11444 -0.0337155 0)
(-2.08243 -0.0345427 -4.0708e-20)
(-2.04941 -0.0353311 -1.0991e-19)
(-2.01541 -0.0360833 0)
(-1.98046 -0.0367979 0)
(-1.94458 -0.0374747 0)
(-1.9078 -0.0381143 1.75335e-20)
(-1.87011 -0.0387319 0)
(-1.83153 -0.0393391 0)
(-1.79204 -0.0399362 -6.54558e-21)
(-1.75168 -0.0405057 1.19153e-21)
(-1.71055 -0.0410101 7.80577e-21)
(-1.66867 -0.0414473 0)
(-1.62604 -0.0418398 0)
(-1.58269 -0.0421907 2.41073e-20)
(-1.53864 -0.0425056 -2.82646e-20)
(-1.49393 -0.0427847 0)
(-1.44857 -0.0430315 0)
(-1.40259 -0.0432463 -4.72055e-20)
(-1.35601 -0.0434342 1.58177e-19)
(-1.30886 -0.0435988 0)
(-1.26115 -0.0437434 0)
(-1.2129 -0.043869 7.1981e-20)
(-1.16414 -0.043973 0)
(-1.11488 -0.0440547 1.68493e-19)
(-1.06514 -0.0441135 -9.01461e-20)
(-1.01495 -0.0441527 0)
(-0.964322 -0.0441746 1.05573e-19)
(-0.913271 -0.0441847 2.23696e-19)
(-0.861809 -0.044187 0)
(-0.809944 -0.0441867 0)
(-0.757677 -0.0441874 -1.34826e-19)
(-0.705006 -0.0441929 0)
(-0.651928 -0.0442045 2.98965e-19)
(-0.598434 -0.0442225 0)
(-0.544521 -0.044245 0)
(-0.490186 -0.0442715 0)
(-0.435425 -0.0443022 0)
(-0.380235 -0.0443391 -1.92193e-19)
(-0.324611 -0.0443845 -2.0115e-19)
(-0.268545 -0.0444406 0)
(-0.212031 -0.0445069 0)
(-0.155064 -0.0445798 0)
(-0.0976496 -0.0446466 2.39259e-19)
(-0.0398203 -0.0446807 0)
(0.0183658 -0.0446301 -5.11732e-19)
(0.0768057 -0.0444229 5.15014e-19)
(0.135222 -0.0439325 5.16749e-19)
(0.193509 -0.0429492 5.15276e-19)
(0.249595 -0.040994 5.21578e-19)
(0.308456 -0.0371194 5.2371e-19)
(0.345808 -0.0252602 0)
(0.000268901 0.0227927 0)
(0.000781899 0.0392147 0)
(0.00659 0.0318027 -2.31688e-18)
(0.0264487 -0.00130434 -1.62955e-18)
(0.0654969 -0.060084 9.73157e-19)
(0.116158 -0.12498 6.32514e-19)
(0.168219 -0.176504 -3.55105e-22)
(0.214906 -0.206127 0)
(0.253552 -0.214615 0)
(0.28416 -0.207067 0)
(0.307919 -0.189193 0)
(0.326258 -0.165638 0)
(0.340374 -0.139556 -7.226e-19)
(0.351111 -0.112822 0)
(0.359028 -0.086441 2.30504e-19)
(0.3645 -0.0608904 2.29904e-19)
(0.367789 -0.0363546 0)
(0.369093 -0.0129068 0)
(0.368657 0.00948264 0)
(0.366804 0.0309772 0)
(0.363791 0.0517131 2.44837e-19)
(0.359791 0.071624 0)
(0.354718 0.0903444 -2.6235e-19)
(0.348184 0.107136 0)
(0.339506 0.120898 0)
(0.327837 0.130237 0)
(0.3124 0.133696 -6.56087e-19)
(0.292879 0.130099 0)
(0.269813 0.118958 3.89309e-19)
(0.244787 0.100638 -8.6824e-19)
(0.220314 0.0762682 0)
(0.199291 0.0472371 0)
(0.184277 0.0151819 0)
(0.175489 -0.0189874 6.41526e-19)
(0.171934 -0.0521242 5.66283e-19)
(0.16736 -0.0744371 0)
(0.155019 -0.0765352 0)
(0.134457 -0.0605628 -7.65854e-19)
(0.106763 -0.0343776 -7.83626e-19)
(0.0721183 -0.0027965 8.60643e-19)
(0.0289517 0.0300555 0)
(-0.0313663 0.0604936 0)
(-0.117434 0.0961614 0)
(-0.223854 0.142912 0)
(-0.347069 0.196036 -4.23712e-19)
(-0.481999 0.250684 -3.33474e-19)
(-0.621397 0.303369 2.71874e-19)
(-0.759195 0.348741 0)
(-0.890931 0.384989 0)
(-1.01292 0.411519 0)
(-1.12291 0.427084 0)
(-1.2202 0.431984 -1.48103e-19)
(-1.30426 0.426954 0)
(-1.37606 0.412976 0)
(-1.4373 0.392161 -1.23116e-19)
(-1.49041 0.36713 -1.16144e-19)
(-1.53716 0.339821 0)
(-1.57924 0.311873 2.16187e-19)
(-1.61805 0.284543 -1.0366e-19)
(-1.65471 0.258841 1.00659e-19)
(-1.68986 0.235244 0)
(-1.72391 0.214138 0)
(-1.75709 0.195388 0)
(-1.78958 0.17896 0)
(-1.82133 0.164727 8.94271e-20)
(-1.85231 0.152294 1.75528e-19)
(-1.88252 0.141452 8.60525e-20)
(-1.91194 0.13194 -8.4524e-20)
(-1.94056 0.123531 0)
(-1.96836 0.116035 1.63329e-19)
(-1.99532 0.109289 1.60674e-19)
(-2.02144 0.103156 1.58135e-19)
(-2.04671 0.0975241 -1.55697e-19)
(-2.07113 0.0923009 0)
(-2.09467 0.087413 -2.26691e-19)
(-2.11735 0.0828008 0)
(-2.13916 0.0784179 7.32775e-20)
(-2.16008 0.0742255 7.23977e-20)
(-2.18011 0.0701957 0)
(-2.19926 0.0663025 0)
(-2.2175 0.0625297 1.38597e-19)
(-2.23483 0.0588588 0)
(-2.25126 0.0552809 1.34726e-19)
(-2.26677 0.0517819 0)
(-2.28136 0.0483565 -1.30931e-19)
(-2.29502 0.0449929 -2.58203e-19)
(-2.30775 0.0416878 0)
(-2.31954 0.0384324 0)
(-2.33038 0.0352249 0)
(-2.34028 0.032065 -1.21541e-19)
(-2.34923 0.0289506 0)
(-2.35725 0.02588 -1.17766e-19)
(-2.36433 0.0228521 0)
(-2.37045 0.0198683 0)
(-2.37561 0.0169312 2.24027e-19)
(-2.37983 0.0140427 0)
(-2.38311 0.0112097 1.08107e-19)
(-2.38545 0.00843879 0)
(-2.38688 0.00574138 1.04116e-19)
(-2.38735 0.00311433 0)
(-2.38684 0.000530292 0)
(-2.38529 -0.00203795 0)
(-2.38268 -0.00458251 2.86626e-19)
(-2.37901 -0.00709542 9.32567e-20)
(-2.37425 -0.00957342 0)
(-2.36841 -0.0120172 0)
(-2.36147 -0.0144252 0)
(-2.35344 -0.0167976 0)
(-2.3443 -0.019133 -8.18378e-20)
(-2.33406 -0.0214309 1.59349e-19)
(-2.32271 -0.0236906 7.70997e-20)
(-2.31025 -0.025911 -1.49821e-19)
(-2.29667 -0.0280916 -1.44983e-19)
(-2.28197 -0.030231 -6.98087e-20)
(-2.26616 -0.0323286 0)
(-2.24923 -0.0343828 -1.3017e-19)
(-2.23118 -0.0363928 0)
(-2.21202 -0.0383569 1.20034e-19)
(-2.19174 -0.0402743 5.71438e-20)
(-2.17036 -0.0421432 0)
(-2.14786 -0.0439625 -1.04415e-19)
(-2.12427 -0.0457307 -4.92126e-20)
(-2.09959 -0.0474463 0)
(-2.07383 -0.049108 -4.44897e-20)
(-2.04699 -0.0507141 1.2377e-19)
(-2.01909 -0.0522639 0)
(-1.99014 -0.0537558 0)
(-1.96016 -0.0551891 0)
(-1.92917 -0.0565613 0)
(-1.89716 -0.0578707 5.42418e-20)
(-1.86418 -0.0591159 4.74732e-20)
(-1.83023 -0.0602983 0)
(-1.79534 -0.0614168 0)
(-1.75953 -0.0624679 0)
(-1.72283 -0.063447 0)
(-1.68524 -0.0643562 0)
(-1.64678 -0.0652 0)
(-1.60745 -0.0659918 4.11033e-21)
(-1.56731 -0.06675 -9.99086e-22)
(-1.52641 -0.0674577 0)
(-1.48477 -0.0680902 0)
(-1.44239 -0.0686547 -2.10307e-20)
(-1.39931 -0.0691545 0)
(-1.35554 -0.0695941 3.55044e-20)
(-1.31112 -0.069976 4.12434e-20)
(-1.26606 -0.0703033 0)
(-1.22038 -0.0705791 0)
(-1.17411 -0.0708088 -6.30503e-20)
(-1.12727 -0.0709983 -1.37952e-19)
(-1.07988 -0.071152 0)
(-1.03196 -0.0712716 0)
(-0.983532 -0.0713544 0)
(-0.934602 -0.0713992 -9.86707e-20)
(-0.885195 -0.0714053 1.05948e-19)
(-0.83533 -0.0713764 0)
(-0.785024 -0.0713168 2.39039e-19)
(-0.734293 -0.071234 1.25803e-19)
(-0.683148 -0.071134 -2.68822e-19)
(-0.631594 -0.0710243 0)
(-0.579636 -0.0709105 0)
(-0.527272 -0.070798 -3.14205e-19)
(-0.474497 -0.070689 -1.65924e-19)
(-0.421304 -0.0705835 0)
(-0.367689 -0.0704787 0)
(-0.313648 -0.0703726 0)
(-0.259176 -0.0702652 0)
(-0.204272 -0.0701583 -4.07521e-19)
(-0.148928 -0.0700544 0)
(-0.0931373 -0.0699549 0)
(-0.0368933 -0.0698588 0)
(0.0198097 -0.0697576 0)
(0.0769704 -0.0696324 0)
(0.134567 -0.0694473 0)
(0.192544 -0.0691342 -4.89769e-19)
(0.250809 -0.0685926 0)
(0.309141 -0.0676642 0)
(0.367525 -0.066092 -1.02117e-18)
(0.424456 -0.063387 5.16551e-19)
(0.483784 -0.058588 -5.27975e-19)
(0.530668 -0.04668 5.39176e-19)
(-0.0011528 0.0228953 0)
(0.00207558 0.025865 5.01985e-18)
(0.0236179 -0.0154827 0)
(0.0707666 -0.0973372 8.6677e-19)
(0.130766 -0.183881 0)
(0.187611 -0.246901 0)
(0.232142 -0.277693 -3.26572e-19)
(0.263071 -0.281025 0)
(0.283119 -0.266172 0)
(0.295856 -0.241363 0)
(0.304133 -0.212025 0)
(0.309757 -0.181178 0)
(0.313701 -0.150337 8.16211e-19)
(0.316415 -0.120203 4.01334e-19)
(0.318064 -0.0910834 -3.98657e-19)
(0.318691 -0.063117 0)
(0.31831 -0.036363 0)
(0.316938 -0.0108594 0)
(0.314626 0.0133854 0)
(0.311469 0.0364025 0)
(0.30761 0.0582335 4.31063e-19)
(0.303265 0.0788879 4.42627e-19)
(0.29864 0.0982791 -4.58882e-19)
(0.293847 0.116103 4.81067e-19)
(0.288785 0.13174 0)
(0.283115 0.144179 0)
(0.276242 0.152007 5.82539e-19)
(0.267426 0.153555 0)
(0.256088 0.147285 0)
(0.242064 0.132115 7.49914e-19)
(0.226006 0.107846 8.36317e-19)
(0.209025 0.0754687 9.46222e-19)
(0.192514 0.037133 0)
(0.175875 -0.00296095 0)
(0.152523 -0.03338 -9.67964e-19)
(0.117592 -0.0408488 0)
(0.0721888 -0.0255126 0)
(0.0175629 0.00641091 7.71289e-19)
(-0.0488564 0.0491853 -7.07531e-19)
(-0.131007 0.100847 5.69752e-19)
(-0.227771 0.159574 0)
(-0.338561 0.221167 0)
(-0.460505 0.283649 6.12023e-19)
(-0.587816 0.34576 0)
(-0.715036 0.404466 4.35066e-19)
(-0.837273 0.454531 5.71026e-19)
(-0.949516 0.493196 -5.08227e-19)
(-1.04894 0.52044 3.06212e-19)
(-1.1348 0.535978 0)
(-1.20667 0.54045 0)
(-1.26558 0.534884 2.41911e-19)
(-1.31338 0.520638 1.12694e-19)
(-1.35217 0.499369 0)
(-1.38448 0.472796 0)
(-1.41269 0.442905 9.66246e-20)
(-1.43876 0.411665 1.86694e-19)
(-1.46398 0.380536 0)
(-1.48919 0.350542 -1.71781e-19)
(-1.51488 0.322344 1.67239e-19)
(-1.54124 0.296347 -1.62112e-19)
(-1.56827 0.272721 0)
(-1.59583 0.25151 0)
(-1.62375 0.232578 0)
(-1.65184 0.215773 0)
(-1.67989 0.20091 0)
(-1.70773 0.187726 -1.39606e-19)
(-1.73524 0.175996 0)
(-1.76229 0.165501 0)
(-1.78881 0.156041 0)
(-1.81473 0.147447 -2.59126e-19)