/*--------------------------------*- C++ -*----------------------------------*\
  =========                 |
  \\      /  F ield         | OpenFOAM: The Open Source CFD Toolbox
   \\    /   O peration     | Website:  https://openfoam.org
    \\  /    A nd           | Version:  8
     \\/     M anipulation  |
\*---------------------------------------------------------------------------*/
FoamFile
{
    version     2.0;
    format      ascii;
    class       volVectorField;
    location    "1800";
    object      wallShearStress;
}
// * * * * * * * * * * * * * * * * * * * * * * * * * * * * * * * * * * * * * //

dimensions      [0 2 -2 0 0 0 0];

internalField   uniform (0 0 0);

boundaryField
{
    inlet
    {
        type            calculated;
        value           uniform (0 0 0);
    }
    outlet
    {
        type            calculated;
        value           uniform (0 0 0);
    }
    upperWall
    {
        type            calculated;
        value           nonuniform List<vector> 
223
(
(-0.44406 0.00268545 0)
(-0.434062 0.00482218 0)
(-0.466625 0.00634032 0)
(-0.484991 0.00725834 0)
(-0.487289 0.00752893 0)
(-0.482277 0.00737502 0)
(-0.471504 0.00693543 0)
(-0.460005 0.00639585 0)
(-0.448315 0.00581028 0)
(-0.436359 0.00521147 0)
(-0.425155 0.00464013 0)
(-0.414853 0.00410978 0)
(-0.405507 0.00362617 0)
(-0.397096 0.00318963 0)
(-0.389562 0.00279925 0)
(-0.382848 0.00245767 0)
(-0.376822 0.00216762 0)
(-0.371463 0.00198034 0)
(-0.367189 0.00186746 0)
(-0.363822 0.00179109 5.95144e-22)
(-0.360545 0.00169619 0)
(-0.357362 0.001593 0)
(-0.354271 0.00148625 0)
(-0.351279 0.00137905 6.06352e-22)
(-0.348388 0.00127277 0)
(-0.345603 0.00116933 0)
(-0.342925 0.00106901 0)
(-0.340352 0.000972902 -1.23255e-21)
(-0.337886 0.00088084 1.23725e-21)
(-0.335525 0.000793358 1.24187e-21)
(-0.333268 0.000710418 0)
(-0.331113 0.000632113 -1.25088e-21)
(-0.32906 0.000558365 0)
(-0.327103 0.000489254 1.25965e-21)
(-0.325244 0.000424631 1.26398e-21)
(-0.323475 0.000364495 -1.26827e-21)
(-0.321798 0.000308687 0)
(-0.320206 0.00025727 0)
(-0.318699 0.000210035 0)
(-0.317268 0.000166761 0)
(-0.315918 0.000127448 -1.28936e-21)
(-0.314636 9.18877e-05 0)
(-0.313428 5.99575e-05 0)
(-0.31228 3.15009e-05 1.30199e-21)
(-0.3112 6.44842e-06 0)
(-0.310172 -1.53629e-05 1.31053e-21)
(-0.309205 -3.41596e-05 -1.31485e-21)
(-0.308282 -4.99606e-05 1.31921e-21)
(-0.307415 -6.24034e-05 0)
(-0.30658 -7.2159e-05 0)
(-0.305797 -7.90399e-05 0)
(-0.305033 -8.35093e-05 1.33722e-21)
(-0.304321 -8.54644e-05 -1.34194e-21)
(-0.303615 -8.51744e-05 0)
(-0.302957 -8.26413e-05 0)
(-0.302299 -7.85471e-05 0)
(-0.301672 -7.20182e-05 0)
(-0.301058 -6.47063e-05 0)
(-0.300457 -5.45934e-05 0)
(-0.299827 -3.20699e-05 0)
(-0.299294 -3.43907e-05 0)
(-0.298586 -5.34421e-05 1.38867e-21)
(-0.298402 -1.56545e-05 -1.39656e-21)
(-0.297708 1.53936e-05 0)
(-0.297118 9.31311e-05 0)
(-0.296887 0.000192731 0)
(-0.296394 0.00022079 -1.42732e-21)
(-0.296082 0.000158038 0)
(-0.295956 8.87228e-05 0)
(-0.295811 7.21621e-05 0)
(-0.295678 3.94747e-05 0)
(-0.295562 -1.96886e-05 0)
(-0.295485 -6.60293e-05 -2.93787e-21)
(-0.320892 -6.53577e-05 0)
(-0.331211 -7.27296e-05 0)
(-0.336685 -6.05114e-05 0)
(-0.326638 1.06765e-05 0)
(-0.359703 0.000516041 0)
(-0.33993 0.000612747 0)
(-0.325811 0.000338284 0)
(-0.309363 0.000421208 3.13075e-21)
(-0.30208 0.000420826 0)
(-0.294115 0.000427408 0)
(-0.297891 0.000499766 0)
(-0.293224 0.000468316 -3.04963e-21)
(-0.298107 0.000314179 0)
(-0.292794 5.8831e-05 -3.08498e-21)
(-0.339792 -6.04907e-06 0)
(-0.359225 6.76896e-05 0)
(-0.369294 0.000552608 0)
(-0.341997 0.000639003 -3.6501e-21)
(-0.32196 0.000311151 0)
(-0.309988 0.000292824 3.35749e-21)
(-0.291408 0.000253423 3.17666e-21)
(-0.340541 0.00048228 0)
(-0.319681 0.000346757 3.51219e-21)
(-0.329752 6.54925e-05 0)
(-0.323824 9.49998e-05 0)
(-0.351097 0.000432443 0)
(-0.325928 0.00114777 -3.60114e-21)
(-0.299129 0.00106985 0)
(-0.298408 0.000427529 -3.30144e-21)
(-0.297133 0.000106346 3.30978e-21)
(-0.288568 -6.45532e-06 0)
(-0.315822 -4.50958e-05 0)
(-0.316645 -5.77245e-05 0)
(-0.339807 0.000353864 0)
(-0.316416 0.000902484 0)
(-0.288079 0.000861954 0)
(-0.286113 0.00101149 0)
(-0.288082 0.00132897 -3.13081e-21)
(-0.291211 0.00133121 0)
(-0.300321 0.001328 0)
(-0.283383 0.00081613 0)
(-0.282823 0.000625108 0)
(-0.285489 0.00100252 0)
(-0.281374 0.000668679 0)
(-0.280862 0.000352584 0)
(-0.280118 8.96463e-05 0)
(-0.279615 -0.000438545 0)
(-0.279143 -0.000335157 0)
(-0.319318 -0.000136479 0)
(-0.309694 -0.000171697 0)
(-0.320528 0.000509651 -6.82552e-21)
(-0.295914 0.00103659 0)
(-0.273817 0.00111696 0)
(-0.272372 0.00156115 0)
(-0.270921 0.00139265 5.38743e-21)
(-0.26962 0.000559293 0)
(-0.26855 -0.000123921 0)
(-0.289133 -0.000107558 5.66162e-21)
(-0.30239 -6.18582e-05 0)
(-0.285937 -0.000127621 -5.41196e-21)
(-0.289061 0.000735751 0)
(-0.261843 0.000863985 0)
(-0.283864 0.000996587 0)
(-0.259371 0.000857551 4.36728e-21)
(-0.282137 0.000891132 0)
(-0.25698 0.000777214 -4.02833e-21)
(-0.277997 0.00079107 0)
(-0.254383 0.000709268 0)
(-0.271631 0.000859958 0)
(-0.251366 0.00126873 0)
(-0.24977 0.000474965 0)
(-0.253649 0.000475202 0)
(-0.246593 0.000528534 0)
(-0.247431 0.000484682 0)
(-0.243021 0.000449773 0)
(-0.240947 -3.29133e-05 0)
(-0.238683 0.000181744 0)
(-0.235842 0.00102534 -1.4592e-21)
(-0.264032 0.00226972 1.31054e-21)
(-0.233294 0.00225357 0)
(-0.232159 0.00113262 0)
(-0.230085 0.000503485 0)
(-0.246426 0.000601265 0)
(-0.246883 0.000212498 -5.11644e-22)
(-0.240148 0.000301823 8.89075e-22)
(-0.23054 0.000257284 -1.24755e-21)
(-0.218742 0.000120246 0)
(-0.212703 0.000630969 -1.94816e-21)
(-0.220124 0.00223814 -4.83832e-21)
(-0.210345 0.00138796 0)
(-0.207878 5.41154e-05 -6.39141e-21)
(-0.206109 0.000895629 7.20143e-21)
(-0.211757 0.00132112 0)
(-0.212206 0.000744227 0)
(-0.202798 0.000772059 0)
(-0.221328 0.00206067 0)
(-0.199193 0.00199652 0)
(-0.198086 0.00158556 -1.27555e-20)
(-0.196837 0.000956246 0)
(-0.194472 -5.20092e-05 -1.51989e-20)
(-0.190923 0.000143808 0)
(-0.191214 0.000853036 0)
(-0.189916 0.000723515 0)
(-0.192922 0.00103922 0)
(-0.185548 0.00136527 0)
(-0.184866 0.00123648 2.15831e-20)
(-0.183016 0.000846035 0)
(-0.179427 0.00020602 0)
(-0.174591 -6.12694e-05 -2.73728e-20)
(-0.170109 -2.71078e-05 0)
(-0.166133 -1.4471e-05 0)
(-0.161757 6.67968e-05 0)
(-0.156534 0.000146912 3.61427e-20)
(-0.1494 0.000326075 0)
(-0.139856 0.000657011 0)
(-0.128228 0.00111961 0)
(-0.115587 0.00149119 0)
(-0.103412 0.00161717 -6.54861e-20)
(-0.0926844 0.00148203 0)
(-0.083891 0.0012253 0)
(-0.0764559 0.00101021 0)
(-0.0703641 0.000951169 9.91638e-20)
(-0.0622867 0.00104883 0)
(-0.0586278 0.00156001 0)
(-0.0315418 0.00138094 -1.41812e-19)
(-0.0625498 0.000249639 6.01853e-36)
(-0.0948186 0.00533101 1.21103e-17)
(-0.117018 0.0095392 2.1799e-17)
(-0.128755 0.0119846 2.05492e-17)
(-0.13571 0.0132951 1.97759e-17)
(-0.140988 0.0141091 1.91454e-17)
(-0.145191 0.0146847 -1.86083e-17)
(-0.148321 0.0151119 -1.81134e-17)
(-0.150815 0.0154185 0)
(-0.1531 0.0156619 -3.45025e-17)
(-0.155483 0.0158925 -1.68203e-17)
(-0.157943 0.0161267 3.31019e-34)
(-0.160614 0.0163658 -1.20371e-35)
(-0.163693 0.016628 -3.07798e-17)
(-0.16728 0.0169354 -2.95863e-17)
(-0.171536 0.0172976 -2.82207e-17)
(-0.176439 0.0177304 -2.40741e-35)
(-0.182142 0.0182287 4.97089e-17)
(-0.188644 0.0188143 2.27807e-17)
(-0.195958 0.019469 4.81482e-35)
(-0.204575 0.0202496 -3.54642e-17)
(-0.213068 0.0210384 -1.23187e-20)
(-0.226274 0.022184 -3.00927e-36)
(-0.231113 0.0229251 1.3388e-17)
(-0.255957 0.024483 -6.9672e-18)
)
;
    }
    lowerWall
    {
        type            calculated;
        value           nonuniform List<vector> 
250
(
(-0.622575 -0.00601815 0)
(-0.593657 -0.00990616 0)
(-0.564875 -0.0109144 0)
(-0.538091 -0.0101009 0)
(-0.604084 -0.0099427 0)
(-0.594176 -0.00835425 0)
(-0.615355 -0.00721527 0)
(-0.61629 -0.00593272 0)
(-0.559635 -0.00414221 0)
(-0.561023 -0.00352944 0)
(-0.565099 -0.00317635 0)
(-0.551374 -0.00251384 0)
(-0.549181 -0.00155167 0)
(-0.532759 -0.00152713 0)
(-0.477676 -0.00207767 0)
(-0.418584 -0.00112867 0)
(-0.416842 0.000145846 0)
(-0.473933 0.000607096 0)
(0.00209037 0.000186433 0)
(0.00232062 -0.00259176 0)
(0.00257614 -0.00544865 0)
(0.00293434 -0.00847069 1.14098e-19)
(0.00339599 -0.0115247 -9.61559e-20)
(0.00378051 -0.0154748 8.46303e-20)
(0.00336921 -0.0153817 -7.5449e-20)
(0.00875183 -0.0339315 0)
(-0.0433393 -0.105235 0)
(0.000218448 -0.000268259 0)
(6.01345e-05 -0.000772804 0)
(-5.25007e-06 -0.000859012 0)
(5.49849e-05 -0.000858484 0)
(3.13993e-05 -0.000825218 1.53648e-19)
(-0.000139416 -0.000268176 -1.49795e-19)
(-0.000558234 0.00113221 0)
(-0.00113425 0.00374671 -1.73806e-19)
(-0.0015067 0.00708979 1.33234e-19)
(-0.00146385 0.0102628 0)
(-0.00108869 0.012619 0)
(-0.000570461 0.0138705 0)
(-6.86463e-05 0.0139821 0)
(0.000331377 0.0131343 0)
(0.000663335 0.0116052 0)
(0.000988577 0.00944108 0)
(0.00134504 0.00667847 0)
(0.00174679 0.00336866 0)
(-0.000139538 -0.000271286 0)
(0.000164787 -0.000437937 0)
(0.000468435 -0.000489791 0)
(0.000782264 -0.000422071 0)
(0.00103197 -0.00019338 -0)
(0.00107699 0.000186815 -0)
(0.000833793 0.000643393 1.44563e-20)
(0.000329442 0.00107189 -1.64027e-20)
(-0.000369027 0.00138374 0)
(-0.00116935 0.00154077 -9.43607e-21)
(-0.00199526 0.00155539 0)
(-0.00278295 0.00145658 0)
(-0.00348785 0.00127993 0)
(-0.00408512 0.00105553 4.63761e-21)
(-0.0045634 0.000803912 0)
(-0.00491828 0.000536754 0)
(-0.00514739 0.000262277 -4.01991e-21)
(-0.00525485 -2.52108e-05 -0)
(-0.00521652 -0.000323075 0)
(-0.00503076 -0.000610496 -0)
(-0.0047063 -0.000867667 4.32515e-21)
(-0.00425477 -0.00107455 -0)
(-0.0036941 -0.00121037 5.12188e-21)
(-0.00305146 -0.00125604 0)
(-0.00236427 -0.00119762 -0)
(-0.00168115 -0.00103221 8.32147e-21)
(-0.00105875 -0.000776164 0)
(-0.000553541 -0.000473758 -1.38089e-20)
(-0.000197967 -0.00019656 0)
(2.51779e-05 -7.01192e-06 2.35218e-20)
(0.000167469 0.000102317 0)
(0.000251597 0.000191761 0)
(0.000249792 0.000298629 0)
(0.000147068 0.000444421 0)
(-8.78365e-05 0.00064002 0)
(-0.000483444 0.000848225 -1.53772e-20)
(-0.00102435 0.000993903 0)
(-0.00162676 0.00100266 1.80781e-20)
(-0.0021743 0.000860358 0)
(-0.00256964 0.000611162 -1.42488e-20)
(-0.00276934 0.000336951 0)
(-0.00279624 0.000111198 0)
(-0.00270352 -1.60322e-05 1.40263e-20)
(-0.00256746 -2.09364e-05 0)
(-0.00245691 9.6331e-05 1.46191e-20)
(-0.00238977 0.00028743 -1.47621e-20)
(-0.00232006 0.00043324 0)
(-0.00213363 0.000305454 -1.5898e-20)
(-0.00159334 -0.00026456 -1.83468e-20)
(-0.000470991 -0.0010121 0)
(0.00117393 -0.00167934 0)
(0.00301098 -0.00234352 0)
(0.00516516 -0.00299772 0)
(0.00756143 -0.00332226 -0)
(0.0100257 -0.00347712 3.76289e-21)
(0.0124996 -0.00361454 0)
(0.0157084 -0.00389094 -2.95975e-21)
(0.0176624 -0.00369852 -0)
(0.0199312 -0.00351303 -0)
(0.0231781 -0.00342058 2.32504e-21)
(0.0238197 -0.00295522 0)
(0.0265831 -0.00284135 -2.0242e-21)
(0.0291987 -0.00261436 -0)
(0.0294817 -0.00225144 0)
(0.0320822 -0.00215709 -0)
(0.0339897 -0.00199363 1.8168e-21)
(0.0359218 -0.00186528 0)
(0.0377402 -0.00174712 -0)
(0.0395156 -0.00164257 1.768e-21)
(0.0412072 -0.00154954 0)
(0.0428578 -0.00146671 1.7455e-21)
(0.0444488 -0.00139241 0)
(0.0459997 -0.00132516 0)
(0.0475054 -0.00126363 0)
(0.0489737 -0.00120681 -1.71292e-21)
(0.0504044 -0.00115359 -0)
(0.0517996 -0.00110322 0)
(0.0531604 -0.00105516 -1.69302e-21)
(0.0544872 -0.00100894 -1.68661e-21)
(0.0557813 -0.000963936 -0)
(0.0570411 -0.000920116 -1.67363e-21)
(0.0582686 -0.000877006 0)
(0.0594613 -0.000834647 -3.32004e-21)
(0.0606212 -0.00079261 -0)
(0.0617455 -0.000751055 -3.2906e-21)
(0.0628357 -0.000709525 -0)
(0.063889 -0.000668163 3.25805e-21)
(0.0649059 -0.000626556 0)
(0.0658842 -0.000584811 0)
(0.0668234 -0.000542858 0)
(0.0677225 -0.000500734 -3.18101e-21)
(0.0685803 -0.000457931 -0)
(0.0693953 -0.00041424 3.13542e-21)
(0.0701652 -0.000369252 0)
(0.070888 -0.000322836 -3.08421e-21)
(0.0715618 -0.000274604 -3.05636e-21)
(0.0721838 -0.000224426 -3.02696e-21)
(0.0727522 -0.000172556 -0)
(0.0732656 -0.000119856 0)
(0.0737226 -6.93586e-05 0)
(0.0741276 -2.58361e-05 0)
(0.0744852 1.04434e-05 0)
(0.0747992 4.4336e-05 0)
(0.0750689 7.73181e-05 0)
(0.0752953 0.000110044 0)
(0.0754764 0.000142398 2.68916e-21)
(0.0756136 0.000174619 2.64231e-21)
(0.075705 0.000206559 0)
(0.0757512 0.000238386 0)
(0.075751 0.000269874 0)
(0.0757048 0.000301205 2.4353e-21)
(0.0756119 0.000332106 0)
(0.0754727 0.000362796 0)
(0.0752866 0.00039313 0)
(0.0750536 0.000423232 0)
(0.0747733 0.000452853 -2.13076e-21)
(0.0744466 0.000482098 0)
(0.074073 0.000510966 0)
(0.0736526 0.000539354 1.92208e-21)
(0.0731862 0.000567269 -1.84794e-21)
(0.0726735 0.000594678 0)
(0.0721154 0.000621556 -1.69251e-21)
(0.0715119 0.000647868 0)
(0.0708638 0.000673626 1.52716e-21)
(0.0701714 0.000698698 0)
(0.0694358 0.000723168 0)
(0.0686572 0.000746981 0)
(0.0678366 0.000770236 0)
(0.0669767 0.000792672 0)
(0.066082 0.000814297 -1.9341e-21)
(0.0651397 0.000834635 -1.72727e-21)
(0.0641716 0.000854558 0)
(0.0631497 0.000873183 0)
(0.0621062 0.000890072 0)
(0.0610251 0.000904095 8.38776e-22)
(0.0599179 0.000912702 0)
(0.058781 0.000912591 0)
(0.0576173 0.000904348 0)
(0.056422 0.000907645 -1.55351e-22)
(0.0551969 0.000922513 4.22524e-22)
(0.0539419 0.000933466 0)
(0.0526633 0.000943732 0)
(0.0513607 0.000952936 1.27407e-21)
(0.050037 0.000961317 1.57572e-21)
(0.0486929 0.000968849 0)
(0.0473303 0.000975693 0)
(0.0459501 0.000981843 -2.53995e-21)
(0.0445542 0.000987475 2.88286e-21)
(0.0431436 0.000992595 0)
(0.0417196 0.000997328 0)
(0.0402836 0.0010017 3.98475e-21)
(0.0388359 0.00100568 0)
(0.0373785 0.00100923 0)
(0.0359119 0.00101242 5.21328e-21)
(0.0344379 0.00101532 0)
(0.0329571 0.00101803 6.11634e-21)
(0.031471 0.0010207 0)
(0.0299799 0.00102347 0)
(0.028485 0.0010264 0)
(0.0269867 0.00102972 -8.17662e-21)
(0.0254849 0.00103345 0)
(0.0239799 0.00103765 0)
(0.0224717 0.00104234 0)
(0.0209604 0.0010475 0)
(0.019446 0.00105314 0)
(0.0179289 0.00105933 0)
(0.0164091 0.00106617 -1.3013e-20)
(0.0148866 0.00107374 -1.38954e-20)
(0.0133615 0.00108216 0)
(0.0118334 0.0010914 0)
(0.0103024 0.00110143 0)
(0.0087684 0.00111187 1.81902e-20)
(0.00723244 0.00112228 0)
(0.00569628 0.00113234 -4.19422e-20)
(0.00416352 0.00114002 4.51603e-20)
(0.0026419 0.00114049 4.87305e-20)
(0.00113997 0.00112265 -5.26985e-20)
(-0.000265267 0.00107678 5.46049e-20)
(-0.00182455 0.00092049 -5.33459e-20)
(-0.00222171 0.000550907 0)
(-0.00420329 0.00119427 -3.16293e-18)
(-0.00725587 0.000973129 -2.85555e-18)
(-0.0102841 0.000639172 0)
(-0.0134346 0.000324111 -4.83297e-18)
(-0.0168015 -1.04886e-05 -8.97111e-18)
(-0.0203826 -0.000365864 -4.17963e-18)
(-0.0241884 -0.000741961 3.90589e-18)
(-0.0282412 -0.0011425 -1.20371e-35)
(-0.0325621 -0.00156994 3.00927e-36)
(-0.0371691 -0.0020277 3.22332e-18)
(-0.0420792 -0.00252282 3.02875e-18)
(-0.0473126 -0.00301222 3.00927e-36)
(-0.0528711 -0.00351952 0)
(-0.0588178 -0.00410604 0)
(-0.0652088 -0.00475676 -4.00608e-35)
(-0.0720528 -0.00546151 -9.35694e-36)
(-0.0794896 -0.00622108 4.21297e-35)
(-0.087396 -0.00704108 -3.74385e-18)
(-0.0963043 -0.00793059 -3.40931e-18)
(-0.105341 -0.00889487 6.01853e-36)
(-0.116808 -0.00995392 5.35961e-18)
(-0.126356 -0.0111174 8.89358e-18)
(-0.143617 -0.0123446 0)
(-0.151054 -0.0138451 -4.28615e-18)
(-0.185383 -0.0161797 1.80556e-35)
)
;
    }
    frontAndBack
    {
        type            empty;
    }
}


// ************************************************************************* //
