/*--------------------------------*- C++ -*----------------------------------*\
  =========                 |
  \\      /  F ield         | OpenFOAM: The Open Source CFD Toolbox
   \\    /   O peration     | Website:  https://openfoam.org
    \\  /    A nd           | Version:  8
     \\/     M anipulation  |
\*---------------------------------------------------------------------------*/
FoamFile
{
    version     2.0;
    format      ascii;
    class       volScalarField;
    location    "700";
    object      nuTilda;
}
// * * * * * * * * * * * * * * * * * * * * * * * * * * * * * * * * * * * * * //

dimensions      [0 2 -1 0 0 0 0];

internalField   nonuniform List<scalar> 
12225
(
0.0122671
0.00158833
0.000666932
0.000412201
0.000298001
0.000234419
0.000192049
0.000186518
0.000141364
0.000110263
9.73201e-05
9.07192e-05
8.20034e-05
7.63423e-05
7.17077e-05
7.01738e-05
6.81338e-05
7.40043e-05
0.0323823
0.00744533
0.00330642
0.00204338
0.00146818
0.00114477
0.000936743
0.000800567
0.000680243
0.00057806
0.000507247
0.000453561
0.000411868
0.000380373
0.000352023
0.000329997
0.000313758
0.000295892
0.0490123
0.01515
0.00728196
0.00457856
0.00330642
0.00258059
0.00211241
0.00178924
0.00154196
0.00134781
0.00119795
0.00107898
0.000982392
0.000902878
0.000836443
0.000781454
0.00073617
0.000687904
0.063054
0.0237783
0.0122894
0.00788815
0.00573398
0.004485
0.00367415
0.00310736
0.00268476
0.00235811
0.00210119
0.00189468
0.00172543
0.00158465
0.0014663
0.00136624
0.00128169
0.00119816
0.074932
0.0328517
0.0181452
0.0119262
0.00874549
0.00686413
0.00563081
0.00476256
0.0041175
0.00362033
0.00322735
0.00290997
0.00264905
0.0024315
0.00224807
0.00209197
0.00195837
0.0018364
0.0849536
0.0420208
0.0246655
0.0166359
0.0123325
0.00972587
0.0079954
0.00676786
0.00585347
0.00514771
0.00458846
0.0041359
0.00376338
0.00345244
0.00318988
0.00296602
0.00277367
0.00260479
0.0933822
0.0510219
0.0316642
0.0219415
0.016474
0.0130717
0.0107779
0.00913552
0.00790571
0.00695341
0.00619691
0.00558369
0.00507839
0.00465635
0.00429979
0.00399565
0.00373419
0.00350824
0.0993794
0.0583363
0.0378386
0.0268568
0.0204171
0.0163053
0.0134892
0.011453
0.00991892
0.0087263
0.00777636
0.00700499
0.00636868
0.00583687
0.00538743
0.00500401
0.00467456
0.00439131
0.104023
0.0645454
0.0433804
0.0314239
0.0241571
0.0194092
0.0161097
0.0137018
0.0118766
0.0104521
0.00931444
0.00838905
0.00762487
0.00698576
0.00644547
0.00598452
0.00558862
0.00524881
0.108368
0.0708939
0.0493756
0.0365496
0.0284517
0.0230231
0.0191863
0.0163548
0.0141926
0.0124968
0.011138
0.0100304
0.00911435
0.00834761
0.00769912
0.00714581
0.00667071
0.00626301
0.112368
0.0772557
0.0557282
0.0421918
0.0332976
0.0271652
0.0227468
0.0194432
0.0168984
0.0148903
0.0132749
0.0119545
0.0108605
0.0099438
0.00916798
0.00850588
0.00793738
0.00744917
0.115994
0.0834975
0.0623053
0.0482611
0.0386474
0.0318167
0.026789
0.0229739
0.0200046
0.0176452
0.0157379
0.0141736
0.0128749
0.011785
0.0108618
0.0100736
0.00939673
0.00881466
0.119234
0.0894856
0.0689377
0.0546109
0.0443919
0.0369007
0.0312597
0.0269088
0.0234836
0.02074
0.0185097
0.0166735
0.0151449
0.01386
0.0127704
0.0118396
0.0110397
0.0103508
0.122086
0.095084
0.075415
0.0610223
0.0503361
0.0422534
0.0360231
0.0311353
0.0272402
0.024093
0.021519
0.0193909
0.017614
0.0161174
0.0148466
0.0137601
0.0128257
0.0120196
0.124546
0.100135
0.0814619
0.0671725
0.056158
0.047577
0.0408126
0.0354174
0.031066
0.0275196
0.0246012
0.0221777
0.0201481
0.0184349
0.0169782
0.0157314
0.0146583
0.0137312
0.126578
0.104396
0.0866605
0.0725515
0.0613228
0.0523526
0.0451453
0.0393148
0.0345631
0.0306611
0.0274325
0.0247409
0.0224806
0.020569
0.0189413
0.0175468
0.0163454
0.0153061
0.128011
0.107322
0.0902141
0.0762353
0.0648743
0.0556509
0.0481493
0.0420254
0.0370012
0.0328553
0.0294126
0.0265352
0.0241143
0.0220643
0.0203172
0.0188191
0.0175275
0.0164083
0.128006
0.107313
0.0902048
0.0762269
0.0648674
0.0556454
0.048145
0.0420222
0.0369988
0.0328537
0.0294117
0.0265349
0.0241147
0.0220652
0.0203185
0.0188206
0.0175287
0.0164083
0.126509
0.104255
0.0864922
0.0723807
0.0611613
0.052205
0.0450128
0.0391967
0.0344584
0.0305686
0.0273506
0.0246684
0.0224163
0.0205118
0.0188903
0.0175006
0.0163024
0.0152631
0.124267
0.0995604
0.0807712
0.0664676
0.0554886
0.0469631
0.0402594
0.0349228
0.0306248
0.0271258
0.0242488
0.0218611
0.0198626
0.0181762
0.0167426
0.0155152
0.0144575
0.0135405
0.12136
0.0936399
0.0737261
0.0593348
0.0487592
0.0408249
0.0347467
0.0300003
0.0262308
0.0231928
0.0207127
0.018665
0.0169572
0.0155198
0.0142999
0.0132567
0.0123583
0.0115798
0.117686
0.0865903
0.0656967
0.0514791
0.0415374
0.0343608
0.0290184
0.0249322
0.0217348
0.0191848
0.0171184
0.0154211
0.0140106
0.0128263
0.0118229
0.0109657
0.010228
0.00958894
0.11305
0.0784122
0.056921
0.0432687
0.0342296
0.0279652
0.0234365
0.0200435
0.0174263
0.0153597
0.0136966
0.0123369
0.0112106
0.010267
0.00946866
0.00878719
0.00820102
0.00769346
0.107169
0.0691009
0.0476372
0.035029
0.0271566
0.021922
0.0182437
0.0155401
0.0134817
0.0118706
0.0105816
0.00953197
0.00866487
0.00793966
0.00732669
0.00680379
0.00635414
0.00596495
0.0996761
0.0587036
0.0381279
0.0270699
0.0205782
0.0164329
0.0135949
0.0115438
0.00999922
0.00879908
0.00784341
0.00706756
0.00642791
0.00589358
0.00544229
0.00505736
0.00472647
0.00444013
0.0901097
0.0473665
0.0287363
0.0196847
0.0146976
0.0116312
0.00957853
0.00811528
0.00702332
0.00617994
0.00551058
0.00496793
0.00452117
0.00414811
0.00383335
0.00356448
0.00333376
0.00313396
0.0779076
0.0353826
0.0198606
0.0131383
0.00966107
0.00759298
0.00623353
0.00527431
0.00456401
0.00401884
0.00358702
0.00323607
0.00294737
0.00270568
0.0025027
0.00232762
0.00217878
0.00204926
0.06238
0.0232554
0.0119461
0.00765494
0.00556339
0.00435258
0.00356726
0.00301643
0.00261312
0.00230799
0.00206673
0.00186705
0.00170296
0.00156319
0.00144907
0.00134573
0.00126049
0.00118486
0.0426105
0.0117794
0.00546931
0.00341388
0.00246077
0.00192015
0.0015729
0.00132905
0.00115971
0.00103881
0.000944726
0.000857691
0.000787357
0.000718741
0.000673689
0.000623199
0.000577117
0.000539259
0.0168348
0.0025599
0.00110031
0.000684192
0.000495179
0.000389151
0.00032166
0.000270751
0.000280924
0.000338735
0.000385601
0.000370727
0.000353022
0.000288989
0.000354152
0.000328574
0.000260003
0.000230081
3.78294e-06
1.43244e-05
2.60319e-05
3.85424e-05
4.60193e-05
4.96752e-05
5.01634e-05
4.78392e-05
4.46484e-05
3.95796e-05
3.42409e-05
2.94627e-05
2.67597e-05
2.74198e-05
2.9592e-05
3.14335e-05
3.12806e-05
2.84057e-05
2.36559e-05
1.94762e-05
1.9443e-05
2.62731e-05
3.92517e-05
6.37121e-05
8.71461e-05
0.000100547
0.000113286
0.000124298
0.000134293
0.0001428
0.000150397
0.00015702
0.000162885
0.000168042
0.000172576
0.000176605
0.000180193
0.000183414
0.000186311
0.000188923
0.000191274
0.00019338
0.000195258
0.000196921
0.000198382
0.00019965
0.000200736
0.000201644
0.000202377
0.000202801
0.000203292
0.000203376
0.000203435
0.000203319
0.000203042
0.000202628
0.000202072
0.00020138
0.000200552
0.00019959
0.000198498
0.000197277
0.00019593
0.00019446
0.00019287
0.000191163
0.00018934
0.000187403
0.000185358
0.000183206
0.00018095
0.000178593
0.000176138
0.000173587
0.000170943
0.00016821
0.000165388
0.000162482
0.000159492
0.00015642
0.000153266
0.00015003
0.000146711
0.000143305
0.000139809
0.000136219
0.000132527
0.000128726
0.000124804
0.000120747
0.000116538
0.000112163
0.000107621
0.000102966
9.84017e-05
9.44191e-05
9.15954e-05
8.98387e-05
8.85243e-05
8.73194e-05
8.61361e-05
8.49573e-05
8.37814e-05
8.2609e-05
8.1441e-05
8.02783e-05
7.91224e-05
7.79774e-05
7.68643e-05
7.59096e-05
7.49756e-05
7.40477e-05
7.31278e-05
7.22161e-05
7.13131e-05
7.0419e-05
6.95343e-05
6.86593e-05
6.77943e-05
6.69394e-05
6.60948e-05
6.52608e-05
6.44377e-05
6.36259e-05
6.28254e-05
6.20361e-05
6.12589e-05
6.05194e-05
5.98422e-05
5.91737e-05
5.85104e-05
5.78604e-05
5.72285e-05
5.66019e-05
5.598e-05
5.53662e-05
5.47615e-05
5.41664e-05
5.3581e-05
5.30052e-05
5.24389e-05
5.18819e-05
5.1334e-05
5.07952e-05
5.02653e-05
4.97442e-05
4.92319e-05
4.87281e-05
4.82328e-05
4.7746e-05
4.72676e-05
4.67974e-05
4.63356e-05
4.5882e-05
4.54366e-05
4.49995e-05
4.45708e-05
4.41505e-05
4.37387e-05
4.33357e-05
4.29416e-05
4.25566e-05
4.2181e-05
4.1815e-05
4.14588e-05
4.11126e-05
4.07763e-05
4.04497e-05
4.01323e-05
3.98234e-05
3.95211e-05
3.92255e-05
3.89278e-05
3.86411e-05
3.83122e-05
3.80565e-05
3.75487e-05
3.73539e-05
3.63032e-05
3.49089e-05
5.89556e-06
4.05851e-05
9.24562e-05
0.000153698
0.000192563
0.000214588
0.000223399
0.000221984
0.000214156
0.000198604
0.000179577
0.000161574
0.000152399
0.000156824
0.000169072
0.000177028
0.000179116
0.0001802
0.000185103
0.000193806
0.000208059
0.000224377
0.000240286
0.000256125
0.000267019
0.000276609
0.000285157
0.000297611
0.000316286
0.000329956
0.000342478
0.000353229
0.000363013
0.00037199
0.000379791
0.000386917
0.000393555
0.000399927
0.000406161
0.000412321
0.000418404
0.000424367
0.000430158
0.000435734
0.000441069
0.000446146
0.000450948
0.000455465
0.000459696
0.000463642
0.000467341
0.00047076
0.000473936
0.000476858
0.000479532
0.000481959
0.000484138
0.000486071
0.000487759
0.000489201
0.000490398
0.000491351
0.000492063
0.000492536
0.000492784
0.000492808
0.000492605
0.000492171
0.000491522
0.000490661
0.000489595
0.00048833
0.000486873
0.000485231
0.00048341
0.000481418
0.000479262
0.00047695
0.00047449
0.00047189
0.000469157
0.000466299
0.000463324
0.00046024
0.000457056
0.000453779
0.000450417
0.000446979
0.000443472
0.000439904
0.000436283
0.000432613
0.000428893
0.000425118
0.000421267
0.000417315
0.000413246
0.000409088
0.000404891
0.00040068
0.000396462
0.000392241
0.000388021
0.000383805
0.000379597
0.0003754
0.000371217
0.00036705
0.000362899
0.000358762
0.00035465
0.000350567
0.000346515
0.000342496
0.000338512
0.000334564
0.000330654
0.000326783
0.000322954
0.000319166
0.000315421
0.000311719
0.000308062
0.000304452
0.000300888
0.000297371
0.0002939
0.000290474
0.000287092
0.000283757
0.000280467
0.00027723
0.000274048
0.000270905
0.000267799
0.000264737
0.000261721
0.000258752
0.00025583
0.000252954
0.000250125
0.00024734
0.000244601
0.000241906
0.000239254
0.000236646
0.00023408
0.000231556
0.000229074
0.000226633
0.000224232
0.000221873
0.000219553
0.000217274
0.000215035
0.000212836
0.000210678
0.000208561
0.000206486
0.000204453
0.000202465
0.000200521
0.000198625
0.000196776
0.000194977
0.000193229
0.000191533
0.000189888
0.000188294
0.00018675
0.00018525
0.000183796
0.000182359
0.000180996
0.000179512
0.000178388
0.000176293
0.000175969
0.00017299
0.000172128
1.28731e-05
7.40525e-05
0.000174297
0.000251895
0.000303706
0.00033344
0.000344312
0.000341508
0.000328916
0.000310028
0.000290696
0.000278248
0.000275983
0.000282397
0.000292434
0.000302972
0.00031543
0.000332057
0.000353327
0.000378191
0.000405326
0.000433405
0.000471178
0.000517319
0.00056278
0.000606791
0.000649777
0.000693353
0.000732654
0.000763922
0.000788917
0.000808732
0.00082444
0.000836903
0.000846902
0.000855213
0.000862536
0.000869516
0.000876689
0.000884411
0.000892791
0.000901705
0.000910915
0.000920184
0.000929334
0.000938246
0.000946843
0.000955078
0.000962915
0.000970325
0.000977285
0.000983767
0.000989767
0.000995278
0.0010003
0.00100483
0.00100887
0.00101241
0.00101547
0.00101803
0.0010201
0.00102167
0.00102275
0.0010233
0.00102345
0.00102317
0.00102238
0.00102114
0.00101945
0.00101733
0.0010148
0.00101186
0.00100852
0.00100481
0.00100073
0.000996303
0.00099154
0.000986456
0.000981066
0.000975386
0.000969431
0.000963215
0.000956755
0.000950065
0.00094316
0.000936055
0.000928765
0.000921304
0.000913686
0.000905923
0.000898029
0.000890014
0.000881887
0.000873657
0.000865331
0.000856921
0.000848437
0.000839896
0.000831314
0.000822705
0.000814079
0.000805445
0.000796812
0.000788186
0.000779575
0.000770986
0.000762426
0.0007539
0.000745414
0.000736973
0.000728584
0.000720252
0.00071198
0.000703774
0.000695637
0.000687572
0.000679583
0.000671671
0.000663841
0.000656094
0.000648432
0.000640858
0.000633372
0.000625977
0.000618675
0.000611464
0.000604347
0.000597323
0.000590394
0.000583559
0.000576819
0.000570175
0.000563625
0.000557162
0.000550787
0.000544501
0.000538306
0.000532204
0.000526193
0.000520274
0.000514445
0.000508706
0.000503056
0.000497493
0.000492017
0.000486626
0.000481319
0.000476095
0.000470953
0.000465891
0.000460909
0.000456006
0.00045118
0.000446431
0.000441756
0.000437156
0.000432629
0.000428174
0.000423789
0.000419474
0.000415227
0.000411046
0.00040693
0.000402876
0.000398882
0.000394944
0.000391059
0.000387222
0.000383425
0.00037966
0.000375916
0.000372177
0.000368421
0.000364628
0.000360725
0.000356747
0.000352328
0.000348026
0.000341568
0.000330416
2.1769e-05
0.000106431
0.000220254
0.000312869
0.000375572
0.00041258
0.000428026
0.000428416
0.000418483
0.000405175
0.000397038
0.000396162
0.000405239
0.000422257
0.000444809
0.000472362
0.000505518
0.00054465
0.000588953
0.000650815
0.000724487
0.000804116
0.000888332
0.000958986
0.00102141
0.00107753
0.00112795
0.00117286
0.00121213
0.00124603
0.00127528
0.00130061
0.00132274
0.00134228
0.00135982
0.00137584
0.00139076
0.00140492
0.00141858
0.00143193
0.00144509
0.00145814
0.0014711
0.00148395
0.00149665
0.00150911
0.00152123
0.00153294
0.00154412
0.00155472
0.00156467
0.00157395
0.00158252
0.00159038
0.00159752
0.00160392
0.0016096
0.00161453
0.00161873
0.0016222
0.00162492
0.0016269
0.00162805
0.00162849
0.00162836
0.00162745
0.00162583
0.00162351
0.00162051
0.00161686
0.00161256
0.00160764
0.00160212
0.00159602
0.00158937
0.00158217
0.00157447
0.00156627
0.00155761
0.0015485
0.00153898
0.00152905
0.00151875
0.0015081
0.00149711
0.00148583
0.00147426
0.00146242
0.00145035
0.00143805
0.00142555
0.00141287
0.00140003
0.00138703
0.0013739
0.00136066
0.00134731
0.00133388
0.0013204
0.00130687
0.00129331
0.00127974
0.00126617
0.00125262
0.00123909
0.00122559
0.00121214
0.00119874
0.0011854
0.00117214
0.00115896
0.00114586
0.00113286
0.00111996
0.00110717
0.00109449
0.00108192
0.00106948
0.00105716
0.00104498
0.00103292
0.001021
0.00100921
0.000997565
0.000986061
0.0009747
0.000963482
0.000952409
0.000941482
0.000930702
0.000920068
0.00090958
0.000899236
0.000889031
0.000878965
0.000869038
0.000859253
0.000849608
0.000840104
0.000830741
0.000821517
0.000812431
0.000803481
0.000794666
0.000785983
0.000777432
0.000769011
0.000760717
0.000752549
0.000744506
0.000736584
0.000728783
0.000721101
0.000713536
0.000706086
0.000698749
0.000691524
0.000684408
0.000677399
0.000670496
0.000663695
0.000656994
0.000650391
0.000643882
0.000637462
0.000631127
0.000624871
0.000618685
0.000612562
0.000606487
0.000600446
0.000594416
0.000588369
0.000582267
0.000576046
0.000569651
0.0005629
0.000555739
0.000547518
0.000531421
2.69689e-05
0.00012201
0.000241122
0.000357864
0.000435909
0.000483089
0.000506594
0.000515004
0.000516544
0.000517481
0.00052427
0.000540306
0.000566212
0.00060104
0.000644009
0.000695138
0.000755051
0.000838301
0.000933824
0.00103003
0.00111902
0.00120341
0.00128276
0.00135547
0.00142225
0.00148368
0.00154015
0.00159202
0.00163963
0.00168341
0.00172385
0.00176142
0.00179656
0.00182964
0.00186098
0.00189082
0.00191937
0.00194675
0.00197308
0.00199841
0.00202277
0.00204617
0.00206862
0.00209008
0.00211055
0.00212998
0.00214835
0.00216562
0.00218178
0.0021968
0.00221067
0.0022234
0.00223499
0.00224546
0.00225483
0.00226312
0.00227033
0.0022765
0.00228163
0.00228573
0.00228883
0.00229087
0.00229179
0.00229188
0.002291
0.00228913
0.00228629
0.00228252
0.00227784
0.00227226
0.00226581
0.00225853
0.00225043
0.00224155
0.00223192
0.00222157
0.00221053
0.00219882
0.00218649
0.00217357
0.00216007
0.00214604
0.00213151
0.0021165
0.00210105
0.00208519
0.00206894
0.00205235
0.00203543
0.00201821
0.00200073
0.00198301
0.00196507
0.00194693
0.00192862
0.00191017
0.00189159
0.00187291
0.00185416
0.00183535
0.00181651
0.00179765
0.00177879
0.00175996
0.00174116
0.00172241
0.00170372
0.00168512
0.0016666
0.00164818
0.00162987
0.00161168
0.00159363
0.00157571
0.00155794
0.00154032
0.00152287
0.00150558
0.00148846
0.00147152
0.00145477
0.00143819
0.00142181
0.00140561
0.00138961
0.0013738
0.00135819
0.00134278
0.00132757
0.00131256
0.00129774
0.00128313
0.00126871
0.00125449
0.00124046
0.00122662
0.00121297
0.00119951
0.00118625
0.00117318
0.00116029
0.0011476
0.00113509
0.00112276
0.00111061
0.00109864
0.00108685
0.00107523
0.00106379
0.00105251
0.00104139
0.00103044
0.00101965
0.00100902
0.000998549
0.000988227
0.000978055
0.000968032
0.000958153
0.000948416
0.000938817
0.000929354
0.000920022
0.000910817
0.000901733
0.000892764
0.000883904
0.000875142
0.000866467
0.000857865
0.000849316
0.000840795
0.000832269
0.000823693
0.000815001
0.000806122
0.000796891
0.00078716
0.000777204
0.000757419
3.07984e-05
0.000135321
0.000261517
0.000392495
0.000488783
0.000550396
0.000588109
0.000611476
0.000629146
0.00064837
0.000674398
0.000709886
0.000755576
0.000811747
0.000878787
0.000969162
0.0010742
0.00117588
0.00127508
0.00137058
0.00146129
0.0015473
0.00162856
0.00170503
0.00177701
0.00184484
0.00190887
0.00196943
0.00202685
0.00208147
0.0021336
0.00218353
0.00223152
0.00227777
0.00232244
0.00236566
0.00240751
0.00244805
0.00248731
0.00252529
0.00256201
0.00259742
0.00263152
0.00266425
0.00269559
0.00272549
0.00275392
0.00278083
0.00280619
0.00282996
0.00285211
0.00287263
0.0028915
0.0029087
0.00292424
0.0029381
0.0029503
0.00296084
0.00296974
0.002977
0.00298266
0.00298674
0.00298917
0.00299006
0.0029896
0.00298763
0.00298429
0.00297959
0.00297358
0.00296633
0.00295789
0.0029483
0.00293761
0.00292589
0.00291317
0.0028995
0.00288494
0.00286953
0.0028533
0.00283632
0.0028186
0.00280021
0.00278118
0.00276155
0.00274136
0.00272065
0.00269947
0.00267784
0.00265581
0.00263341
0.00261068
0.00258765
0.00256435
0.00254082
0.00251709
0.00249318
0.00246913
0.00244496
0.0024207
0.00239637
0.00237201
0.00234764
0.00232328
0.00229894
0.00227466
0.00225044
0.00222631
0.00220228
0.00217837
0.00215459
0.00213095
0.00210747
0.00208416
0.00206102
0.00203808
0.00201533
0.00199279
0.00197047
0.00194836
0.00192648
0.00190483
0.00188342
0.00186224
0.00184131
0.00182062
0.00180019
0.00178
0.00176006
0.00174038
0.00172095
0.00170177
0.00168285
0.00166417
0.00164574
0.00162756
0.00160962
0.00159193
0.00157448
0.00155727
0.0015403
0.00152357
0.00150708
0.00149082
0.0014748
0.001459
0.00144342
0.00142807
0.00141294
0.00139802
0.00138331
0.00136882
0.00135452
0.00134043
0.00132654
0.00131285
0.00129935
0.00128604
0.00127291
0.00125996
0.0012472
0.0012346
0.00122218
0.00120992
0.00119783
0.00118588
0.00117409
0.00116243
0.0011509
0.00113949
0.00112818
0.00111694
0.00110576
0.00109459
0.00108339
0.00107209
0.00106062
0.00104881
0.0010366
0.00102443
0.00100196
3.23491e-05
0.000142507
0.000273987
0.000409887
0.000527834
0.000609051
0.000665089
0.000706979
0.00074393
0.000783191
0.000829818
0.000886765
0.000955642
0.00104785
0.00115476
0.00126133
0.00136741
0.00147077
0.00157084
0.00166721
0.00175961
0.00184806
0.00193264
0.00201351
0.00209092
0.00216512
0.00223641
0.00230505
0.0023713
0.00243538
0.00249751
0.00255788
0.00261661
0.00267385
0.00272966
0.00278411
0.00283723
0.00288903
0.00293951
0.00298865
0.00303642
0.00308278
0.00312769
0.0031711
0.00321296
0.00325321
0.0032918
0.00332869
0.00336381
0.00339713
0.00342859
0.00345817
0.00348583
0.00351153
0.00353525
0.00355697
0.00357668
0.00359437
0.00361002
0.00362364
0.00363524
0.00364482
0.0036524
0.00365802
0.00366167
0.00366329
0.0036632
0.00366121
0.00365744
0.00365192
0.00364472
0.00363588
0.00362546
0.00361353
0.00360015
0.00358538
0.00356929
0.00355195
0.00353342
0.00351377
0.00349307
0.00347139
0.00344878
0.00342532
0.00340107
0.0033761
0.00335045
0.0033242
0.00329739
0.00327009
0.00324234
0.00321418
0.00318568
0.00315686
0.00312778
0.00309847
0.00306897
0.00303932
0.00300956
0.00297971
0.00294981
0.00291989
0.00288997
0.00286009
0.00283027
0.00280052
0.00277088
0.00274136
0.00271199
0.00268277
0.00265372
0.00262486
0.00259621
0.00256778
0.00253957
0.00251161
0.00248389
0.00245643
0.00242923
0.00240231
0.00237567
0.00234931
0.00232324
0.00229747
0.00227199
0.00224681
0.00222193
0.00219736
0.00217309
0.00214912
0.00212546
0.0021021
0.00207904
0.00205629
0.00203382
0.00201166
0.00198979
0.00196821
0.00194692
0.00192592
0.00190521
0.00188478
0.00186464
0.00184477
0.00182517
0.00180585
0.00178679
0.00176799
0.00174945
0.00173117
0.00171314
0.00169535
0.00167781
0.00166051
0.00164344
0.0016266
0.00160999
0.00159361
0.00157744
0.00156149
0.00154575
0.00153022
0.00151488
0.00149974
0.00148479
0.00147002
0.00145541
0.00144097
0.00142668
0.00141251
0.00139845
0.00138447
0.00137053
0.00135658
0.00134256
0.00132839
0.00131392
0.00129917
0.00128416
0.00125992
3.27982e-05
0.000144138
0.000275342
0.000409485
0.000539415
0.000642719
0.000719788
0.000781107
0.000836796
0.000894537
0.000961973
0.00105379
0.00116331
0.00128501
0.00140056
0.00151182
0.00161964
0.00172422
0.00182548
0.00192336
0.00201787
0.00210908
0.00219715
0.00228226
0.00236462
0.00244447
0.00252202
0.00259748
0.00267105
0.0027429
0.00281317
0.00288197
0.00294941
0.00301554
0.00308041
0.00314402
0.0032064
0.00326751
0.00332734
0.00338584
0.00344296
0.00349866
0.00355286
0.00360551
0.00365654
0.00370589
0.0037535
0.00379929
0.00384321
0.0038852
0.00392521
0.00396317
0.00399906
0.00403281
0.00406441
0.00409381
0.00412098
0.00414591
0.00416859
0.00418899
0.00420711
0.00422296
0.00423655
0.00424787
0.00425696
0.00426383
0.00426856
0.00427101
0.00427144
0.0042698
0.00426613
0.00426049
0.00425292
0.00424349
0.00423226
0.00421929
0.00420464
0.00418839
0.00417059
0.00415133
0.00413066
0.00410867
0.00408542
0.00406099
0.00403545
0.00400888
0.00398133
0.00395289
0.00392362
0.00389359
0.00386286
0.0038315
0.00379957
0.00376712
0.00373423
0.00370093
0.00366729
0.00363335
0.00359917
0.00356479
0.00353027
0.00349563
0.00346092
0.00342619
0.00339145
0.00335675
0.00332212
0.00328758
0.00325317
0.00321889
0.00318479
0.00315088
0.00311717
0.00308369
0.00305046
0.00301748
0.00298477
0.00295234
0.0029202
0.00288837
0.00285685
0.00282565
0.00279478
0.00276423
0.00273402
0.00270415
0.00267463
0.00264545
0.00261661
0.00258812
0.00255998
0.00253219
0.00250475
0.00247765
0.00245089
0.00242447
0.00239839
0.00237265
0.00234725
0.00232218
0.00229744
0.00227303
0.00224894
0.00222517
0.00220172
0.00217858
0.00215575
0.00213323
0.00211101
0.00208908
0.00206744
0.00204609
0.00202503
0.00200424
0.00198373
0.00196348
0.0019435
0.00192379
0.00190433
0.00188512
0.00186615
0.00184743
0.00182895
0.00181069
0.00179266
0.00177484
0.00175722
0.0017398
0.00172255
0.00170547
0.00168852
0.00167167
0.00165489
0.00163813
0.00162132
0.00160439
0.0015872
0.0015698
0.00155187
0.00152573
3.22406e-05
0.000141213
0.000268943
0.000398083
0.000521953
0.000634096
0.000727867
0.000808897
0.000891738
0.000986923
0.00109602
0.00122061
0.00135696
0.00148446
0.00160475
0.00171977
0.00183048
0.00193725
0.00204041
0.0021403
0.00223713
0.00233111
0.00242244
0.00251131
0.00259794
0.00268253
0.00276526
0.00284632
0.00292585
0.00300399
0.00308083
0.00315646
0.00323094
0.0033043
0.00337655
0.00344769
0.00351769
0.00358652
0.00365413
0.00372045
0.00378544
0.00384901
0.0039111
0.00397162
0.0040305
0.00408766
0.00414302
0.00419652
0.00424806
0.0042976
0.00434505
0.00439037
0.00443349
0.00447436
0.00451294
0.00454919
0.00458306
0.00461455
0.00464361
0.00467023
0.00469441
0.00471614
0.00473542
0.00475225
0.00476665
0.00477864
0.00478825
0.00479548
0.00480042
0.00480298
0.00480337
0.00480156
0.00479759
0.00479153
0.00478343
0.00477335
0.00476135
0.00474749
0.00473186
0.0047145
0.00469549
0.0046749
0.00465281
0.00462929
0.0046044
0.00457823
0.00455084
0.00452232
0.00449272
0.00446212
0.0044306
0.00439821
0.00436504
0.00433113
0.00429656
0.00426139
0.00422568
0.00418949
0.00415288
0.00411591
0.00407862
0.00404108
0.00400332
0.00396539
0.00392735
0.00388923
0.00385107
0.0038129
0.00377477
0.00373671
0.00369874
0.00366089
0.0036232
0.00358568
0.00354837
0.00351127
0.00347442
0.00343782
0.0034015
0.00336546
0.00332973
0.00329431
0.00325922
0.00322446
0.00319004
0.00315597
0.00312225
0.0030889
0.0030559
0.00302328
0.00299102
0.00295914
0.00292763
0.00289648
0.00286571
0.00283531
0.00280528
0.00277561
0.00274632
0.00271738
0.00268881
0.00266061
0.00263275
0.00260526
0.00257811
0.00255131
0.00252486
0.00249874
0.00247296
0.00244751
0.00242238
0.00239758
0.00237309
0.00234892
0.00232506
0.0023015
0.00227824
0.00225527
0.0022326
0.00221021
0.0021881
0.00216626
0.0021447
0.0021234
0.00210235
0.00208154
0.00206098
0.00204063
0.00202049
0.00200054
0.00198075
0.00196109
0.00194153
0.001922
0.00190245
0.00188279
0.00186291
0.00184285
0.0018221
0.00179378
3.08717e-05
0.000135127
0.000258143
0.000383442
0.000505404
0.000621469
0.000732086
0.000840983
0.000955733
0.00108149
0.00121949
0.00136918
0.00151147
0.00164345
0.00176771
0.00188613
0.00199986
0.00210951
0.00221548
0.00231797
0.00241738
0.0025141
0.00260841
0.00270058
0.00279083
0.00287936
0.00296636
0.00305198
0.00313637
0.00321961
0.00330181
0.00338301
0.00346325
0.00354255
0.0036209
0.00369827
0.00377462
0.0038499
0.00392404
0.00399698
0.00406862
0.00413889
0.0042077
0.00427495
0.00434056
0.00440444
0.00446649
0.00452664
0.00458479
0.00464087
0.0046948
0.00474652
0.00479595
0.00484305
0.00488776
0.00493002
0.00496981
0.00500709
0.00504182
0.00507399
0.00510359
0.0051306
0.00515502
0.00517686
0.00519612
0.00521282
0.00522699
0.00523864
0.00524782
0.00525454
0.00525886
0.0052608
0.00526046
0.00525785
0.00525303
0.00524607
0.00523702
0.00522594
0.0052129
0.00519796
0.0051812
0.00516268
0.00514248
0.00512066
0.0050973
0.00507247
0.00504625
0.0050187
0.0049899
0.00495993
0.00492884
0.00489672
0.00486362
0.00482963
0.00479479
0.00475919
0.00472288
0.00468592
0.00464839
0.00461033
0.00457181
0.00453288
0.00449359
0.00445401
0.00441416
0.00437412
0.00433391
0.00429358
0.00425317
0.00421273
0.00417228
0.00413186
0.0040915
0.00405125
0.00401111
0.00397112
0.00393131
0.0038917
0.0038523
0.00381315
0.00377425
0.00373562
0.00369728
0.00365925
0.00362152
0.00358413
0.00354706
0.00351034
0.00347398
0.00343796
0.00340231
0.00336703
0.00333212
0.00329758
0.00326341
0.00322962
0.0031962
0.00316316
0.0031305
0.00309822
0.00306631
0.00303478
0.00300362
0.00297283
0.00294241
0.00291236
0.00288266
0.00285333
0.00282436
0.00279574
0.00276746
0.00273954
0.00271195
0.0026847
0.00265778
0.00263119
0.00260493
0.00257899
0.00255336
0.00252805
0.00250304
0.00247834
0.00245392
0.0024298
0.00240596
0.00238239
0.00235908
0.00233602
0.00231319
0.00229057
0.00226814
0.00224586
0.00222369
0.00220159
0.00217947
0.00215727
0.00213487
0.0021123
0.002089
0.00205834
2.93203e-05
0.000128805
0.000248262
0.000372501
0.000497123
0.000621026
0.000745632
0.000874912
0.00101211
0.0011593
0.00131662
0.0014784
0.0016262
0.00176264
0.00189074
0.00201251
0.0021292
0.00224165
0.00235039
0.0024558
0.0025582
0.00265776
0.00275494
0.00285009
0.00294348
0.00303536
0.00312592
0.00321533
0.00330372
0.00339119
0.00347781
0.00356362
0.00364865
0.00373291
0.00381635
0.00389896
0.00398066
0.0040614
0.0041411
0.00421966
0.004297
0.00437301
0.0044476
0.00452065
0.00459208
0.00466176
0.00472962
0.00479554
0.00485944
0.00492123
0.00498083
0.00503815
0.00509313
0.0051457
0.0051958
0.00524338
0.00528839
0.0053308
0.00537058
0.0054077
0.00544213
0.00547388
0.00550293
0.00552929
0.00555297
0.00557397
0.00559232
0.00560804
0.00562117
0.00563172
0.00563975
0.0056453
0.00564841
0.00564913
0.00564753
0.00564365
0.00563756
0.00562931
0.00561898
0.00560661
0.00559229
0.00557607
0.00555804
0.00553826
0.0055168
0.00549374
0.00546915
0.0054431
0.00541567
0.00538691
0.00535692
0.00532574
0.00529346
0.00526015
0.00522586
0.00519066
0.00515463
0.00511782
0.0050803
0.00504213
0.00500337
0.00496407
0.0049243
0.0048841
0.00484354
0.00480264
0.00476148
0.00472009
0.00467851
0.00463679
0.00459497
0.00455308
0.00451117
0.00446926
0.00442739
0.00438559
0.00434389
0.00430232
0.00426089
0.00421964
0.00417859
0.00413775
0.00409714
0.00405679
0.0040167
0.0039769
0.00393739
0.00389819
0.0038593
0.00382074
0.00378252
0.00374464
0.0037071
0.00366992
0.0036331
0.00359664
0.00356055
0.00352482
0.00348946
0.00345447
0.00341986
0.00338561
0.00335174
0.00331824
0.00328511
0.00325235
0.00321996
0.00318793
0.00315627
0.00312496
0.00309402
0.00306343
0.00303319
0.0030033
0.00297376
0.00294456
0.0029157
0.00288718
0.00285898
0.00283112
0.00280357
0.00277635
0.00274944
0.00272283
0.00269653
0.00267051
0.00264478
0.00261931
0.0025941
0.00256911
0.00254433
0.00251972
0.00249524
0.00247084
0.00244645
0.002422
0.00239738
0.00237258
0.00234707
0.00231426
2.7626e-05
0.000122203
0.000238232
0.000361785
0.000489221
0.000619912
0.000756113
0.000899606
0.00105207
0.00121402
0.00138595
0.0015519
0.00170369
0.001844
0.00197561
0.00210049
0.00221999
0.00233504
0.00244632
0.0025543
0.00265938
0.00276186
0.00286201
0.00296002
0.00305631
0.00315118
0.00324485
0.00333752
0.00342932
0.00352038
0.00361075
0.00370048
0.00378958
0.00387804
0.00396584
0.00405292
0.00413921
0.00422463
0.0043091
0.00439251
0.00447476
0.00455573
0.00463532
0.0047134
0.00478988
0.00486462
0.00493753
0.0050085
0.00507743
0.00514421
0.00520877
0.00527102
0.00533087
0.00538826
0.00544313
0.00549542
0.00554508
0.00559206
0.00563634
0.00567788
0.00571666
0.00575268
0.00578592
0.00581638
0.00584408
0.00586901
0.00589121
0.00591069
0.00592748
0.00594162
0.00595313
0.00596207
0.00596848
0.0059724
0.00597389
0.00597302
0.00596986
0.00596443
0.0059568
0.00594705
0.00593524
0.00592144
0.00590572
0.00588815
0.00586879
0.00584773
0.00582504
0.00580078
0.00577503
0.00574786
0.00571934
0.00568953
0.00565852
0.00562636
0.00559312
0.00555887
0.00552367
0.00548759
0.0054507
0.00541305
0.00537471
0.00533573
0.00529617
0.00525608
0.00521552
0.00517454
0.00513319
0.00509152
0.00504957
0.00500738
0.004965
0.00492247
0.00487983
0.00483711
0.00479435
0.00475158
0.00470884
0.00466614
0.00462353
0.00458102
0.00453864
0.00449642
0.00445437
0.00441251
0.00437087
0.00432946
0.0042883
0.00424739
0.00420677