/*--------------------------------*- C++ -*----------------------------------*\
  =========                 |
  \\      /  F ield         | OpenFOAM: The Open Source CFD Toolbox
   \\    /   O peration     | Website:  https://openfoam.org
    \\  /    A nd           | Version:  8
     \\/     M anipulation  |
\*---------------------------------------------------------------------------*/
FoamFile
{
    version     2.0;
    format      ascii;
    class       volVectorField;
    location    "700";
    object      wallShearStress;
}
// * * * * * * * * * * * * * * * * * * * * * * * * * * * * * * * * * * * * * //

dimensions      [0 2 -2 0 0 0 0];

internalField   uniform (0 0 0);

boundaryField
{
    inlet
    {
        type            calculated;
        value           uniform (0 0 0);
    }
    outlet
    {
        type            calculated;
        value           uniform (0 0 0);
    }
    upperWall
    {
        type            calculated;
        value           nonuniform List<vector> 
223
(
(-0.582193 -0.392359 0)
(-0.977814 -0.219377 0)
(-0.939335 -0.0567745 0)
(-0.81071 -0.00585778 0)
(-0.734593 0.00331373 0)
(-0.695452 0.00231581 0)
(-0.670933 0.00042444 0)
(-0.653501 -0.00144934 0)
(-0.640532 -0.00256442 0)
(-0.62982 -0.0021825 0)
(-0.62006 -0.00131172 0)
(-0.610946 -0.00110939 0)
(-0.603083 -0.00145547 0)
(-0.596151 -0.00118509 0)
(-0.590302 -0.00090688 0)
(-0.585308 -0.000627386 0)
(-0.579854 0.00063615 0)
(-0.574784 0.000913888 0)
(-0.570862 0.00074683 0)
(-0.56765 0.0025044 4.27467e-22)
(-0.564334 0.00285186 0)
(-0.5613 0.00222562 0)
(-0.558522 0.00251828 0)
(-0.555694 0.00272471 4.50209e-22)
(-0.552937 0.00348411 0)
(-0.549936 0.00400969 0)
(-0.546813 0.00432266 0)
(-0.543772 0.00359252 -9.39424e-22)
(-0.541097 0.00293565 9.4922e-22)
(-0.538495 0.00294557 9.6106e-22)
(-0.535761 0.00268594 0)
(-0.533108 0.00241198 -9.82419e-22)
(-0.530474 0.0021471 0)
(-0.527858 0.0019057 1.00531e-21)
(-0.525241 0.0017006 1.01702e-21)
(-0.522608 0.00154572 -1.02918e-21)
(-0.51995 0.00141849 0)
(-0.517275 0.00131633 0)
(-0.514578 0.0012366 0)
(-0.511856 0.00117508 0)
(-0.509105 0.00112817 -1.09171e-21)
(-0.506325 0.00109312 0)
(-0.50351 0.00106784 0)
(-0.500659 0.00105046 1.13134e-21)
(-0.49777 0.00103981 0)
(-0.494839 0.00103464 1.15771e-21)
(-0.491863 0.00103399 -1.17067e-21)
(-0.488839 0.00103707 1.1834e-21)
(-0.485762 0.00104338 0)
(-0.482633 0.00105128 0)
(-0.479447 0.00106004 0)
(-0.476209 0.00106857 1.23081e-21)
(-0.472923 0.00107561 -1.24147e-21)
(-0.469601 0.00108133 0)
(-0.466257 0.00108674 0)
(-0.462908 0.00109221 0)
(-0.459563 0.00109707 0)
(-0.456228 0.00110009 0)
(-0.452904 0.00110033 0)
(-0.449585 0.00109805 0)
(-0.446265 0.00109382 0)
(-0.442933 0.00108869 1.29207e-21)
(-0.439578 0.00108395 -1.29185e-21)
(-0.436189 0.00108026 0)
(-0.432755 0.00107834 0)
(-0.429265 0.00107845 0)
(-0.42571 0.00108057 -1.27846e-21)
(-0.422082 0.00108471 0)
(-0.418374 0.00109042 0)
(-0.414581 0.00109747 0)
(-0.410698 0.00110546 0)
(-0.406721 0.00111387 0)
(-0.402649 0.00112227 -2.4345e-21)
(-0.398481 0.00113004 0)
(-0.394218 0.00113667 0)
(-0.389862 0.00114165 0)
(-0.385421 0.00114472 0)
(-0.380902 0.0011459 0)
(-0.376316 0.00114494 0)
(-0.371677 0.00114153 0)
(-0.366996 0.00113552 2.09548e-21)
(-0.362283 0.00112669 0)
(-0.357546 0.00111514 0)
(-0.35279 0.00110119 0)
(-0.348018 0.00108532 -1.83984e-21)
(-0.343228 0.0010682 0)
(-0.338419 0.00105036 -1.69043e-21)
(-0.333587 0.00103245 0)
(-0.328728 0.0010154 0)
(-0.323834 0.00099988 0)
(-0.319023 0.000992063 -1.35127e-21)
(-0.316383 0.00100125 0)
(-0.313658 0.0010151 1.18081e-21)
(-0.310854 0.00102975 1.09013e-21)
(-0.307974 0.00104295 0)
(-0.305029 0.00105386 8.96471e-22)
(-0.302032 0.00106255 0)
(-0.298995 0.00107018 0)
(-0.295934 0.00107659 0)
(-0.292862 0.00108548 -4.55122e-22)
(-0.289794 0.00109213 0)
(-0.286741 0.00110384 -2.0584e-22)
(-0.283718 0.0011182 7.3935e-23)
(-0.280737 0.00110462 0)
(-0.2778 0.00111276 0)
(-0.274928 0.00113456 0)
(-0.272115 0.00108391 0)
(-0.269373 0.00106171 0)
(-0.266693 0.00117512 0)
(-0.264213 0.00109289 0)
(-0.261728 0.0014 1.14185e-21)
(-0.25959 0.00173127 0)
(-0.257482 0.00122957 0)
(-0.255317 0.000822467 0)
(-0.25316 0.000595063 0)
(-0.250884 0.000858358 0)
(-0.248914 0.00138411 0)
(-0.247024 0.00078932 0)
(-0.244756 8.55017e-05 0)
(-0.242752 0.000136811 0)
(-0.240622 0.000336536 0)
(-0.238831 0.000693154 0)
(-0.236931 0.000745622 0)
(-0.235199 0.000743 7.18028e-21)
(-0.233538 0.000882238 0)
(-0.231754 0.000766051 0)
(-0.230106 0.00101733 0)
(-0.228798 0.00131196 -8.75736e-21)
(-0.227437 0.00111115 0)
(-0.22624 0.000694581 0)
(-0.224608 0.000789477 -1.00519e-20)
(-0.223494 0.000993579 0)
(-0.222447 0.000807512 1.07893e-20)
(-0.220939 0.000870206 0)
(-0.219712 0.000197046 0)
(-0.218136 -0.000460903 0)
(-0.216515 -0.000200437 -1.26893e-20)
(-0.2154 3.24373e-05 0)
(-0.214033 0.000167159 1.35056e-20)
(-0.213128 0.000184577 0)
(-0.212179 0.000211458 0)
(-0.210964 0.000438353 0)
(-0.209744 0.000361554 0)
(-0.209023 0.000224099 0)
(-0.207991 0.000338137 0)
(-0.206998 0.000394185 0)
(-0.206164 0.000421574 0)
(-0.205197 0.000377054 0)
(-0.204566 0.000272274 0)
(-0.204046 0.000302262 0)
(-0.203127 0.000408481 1.84487e-20)
(-0.202022 0.000287055 -1.89312e-20)
(-0.201596 0.000190393 0)
(-0.2009 0.000279777 0)
(-0.200389 0.000295574 0)
(-0.199657 0.000203596 0)
(-0.199241 0.000232904 -2.08556e-20)
(-0.198448 0.000416235 2.13653e-20)
(-0.197635 0.000340413 -2.18304e-20)
(-0.197446 0.000249307 0)
(-0.196525 0.000295825 -2.26839e-20)
(-0.19638 0.000254804 -4.5857e-20)
(-0.196232 0.000240275 0)
(-0.195745 0.000275315 -4.75707e-20)
(-0.195173 0.00035354 4.83643e-20)
(-0.194425 0.000260349 0)
(-0.194352 0.000178636 0)
(-0.193903 0.00024062 0)
(-0.193763 0.000267342 0)
(-0.193017 0.000245018 0)
(-0.192848 0.000219295 -5.31912e-20)
(-0.192353 0.000298021 0)
(-0.191671 0.000322271 -5.52438e-20)
(-0.19108 0.000328555 0)
(-0.190568 0.000309971 0)
(-0.190372 0.000482923 0)
(-0.189938 0.000671767 0)
(-0.189348 0.000749191 0)
(-0.188998 0.000746988 6.05746e-20)
(-0.188897 0.000475802 0)
(-0.188609 0.000284959 0)
(-0.187865 0.000410705 -6.36425e-20)
(-0.186744 0.000471715 0)
(-0.186123 0.000262105 0)
(-0.185476 0.000268523 0)
(-0.183879 0.000431564 6.89107e-20)
(-0.183095 8.73366e-05 0)
(-0.181074 -0.000163134 0)
(-0.178954 7.53486e-05 0)
(-0.177548 0.000302621 0)
(-0.174999 0.000511476 -7.76393e-20)
(-0.172616 0.000763783 0)
(-0.169937 0.000723953 0)
(-0.166036 0.000612074 0)
(-0.161248 0.00093131 8.89161e-20)
(-0.154466 0.00130044 0)
(-0.147435 0.00224757 0)
(-0.122758 0.00228299 -1.08032e-19)
(-0.140746 0.00686178 6.01853e-36)
(-0.16911 0.013443 1.25109e-17)
(-0.186749 0.0172172 2.35293e-17)
(-0.193216 0.0189739 2.26856e-17)
(-0.196728 0.0197543 2.1989e-17)
(-0.200887 0.0203547 2.1146e-17)
(-0.205425 0.0210314 -2.02177e-17)
(-0.209665 0.021513 -1.95092e-17)
(-0.213979 0.0218979 -6.01853e-36)
(-0.217728 0.0220209 -3.67719e-17)
(-0.219943 0.022167 -1.80855e-17)
(-0.224559 0.0227077 7.34261e-34)
(-0.227433 0.0229012 -1.20371e-35)
(-0.23105 0.0233643 -3.22718e-17)
(-0.235452 0.0239515 -3.06566e-17)
(-0.242438 0.0247987 -2.84651e-17)
(-0.249624 0.0254573 -2.40741e-35)
(-0.256933 0.0260738 4.94028e-17)
(-0.26395 0.0266502 2.26467e-17)
(-0.272776 0.0274476 0)
(-0.282669 0.0283573 -3.4862e-17)
(-0.291229 0.029002 -1.58563e-20)
(-0.3008 0.0295574 0)
(-0.30538 0.0305117 1.34129e-17)
(-0.332966 0.0321998 -7.62537e-18)
)
;
    }
    lowerWall
    {
        type            calculated;
        value           nonuniform List<vector> 
250
(
(-0.653909 0.466638 0)
(-1.14095 0.204678 0)
(-1.03492 0.0379587 0)
(-0.869573 -0.000935927 0)
(-0.786941 -0.00419155 0)
(-0.746063 -0.00160773 0)
(-0.719879 0.000416347 0)
(-0.700647 -0.000651598 0)
(-0.685092 -0.00405584 0)
(-0.671321 -0.00471209 0)
(-0.658938 -0.00298801 0)
(-0.647726 -0.000863949 0)
(-0.637525 0.0014267 0)
(-0.628201 0.00210486 0)
(-0.619337 0.00136894 0)
(-0.611543 0.00136038 0)
(-0.604621 0.00169745 0)
(-0.605092 0.00196018 0)
(-0.00423863 -0.0229269 0)
(-0.00277613 -0.0177651 0)
(-0.00071824 -0.0145923 0)
(0.00189176 -0.0138652 9.00196e-20)
(0.0052138 -0.0152469 -7.85221e-20)
(0.00890578 -0.0208478 6.28338e-20)
(0.0126737 -0.020034 -4.84913e-20)
(0.0256364 -0.063269 0)
(-0.0839347 -0.144686 0)
(0.000880802 -0.00384538 0)
(-0.00766478 0.00953218 0)
(-0.00852241 0.0328186 0)
(-0.00255755 0.0448687 0)
(0.00294796 0.044289 1.82185e-20)
(0.00617896 0.0360967 -1.89578e-20)
(0.00818377 0.0241998 0)
(0.0094572 0.0102012 -5.4163e-20)
(0.00943177 -0.00400222 6.11391e-20)
(0.00793595 -0.0173831 0)
(0.00614412 -0.0291577 0)
(0.00438441 -0.0385289 0)
(0.00268961 -0.0451103 0)
(0.00098879 -0.0488536 0)
(-0.000882213 -0.0494952 0)
(-0.00281718 -0.0463947 0)
(-0.00437467 -0.0399028 0)
(-0.00490437 -0.0308401 0)
(0.00132974 -0.00151697 0)
(0.00134191 0.00652785 0)
(-0.00450647 0.00962156 0)
(-0.0095963 0.00976121 0)
(-0.0133847 0.00830497 0)
(-0.0158935 0.00624071 0)
(-0.0172708 0.00410263 1.49512e-21)
(-0.0177913 0.00201055 -1.52656e-21)
(-0.017342 -3.28535e-06 0)
(-0.016066 -0.00168417 -1.65214e-21)
(-0.014201 -0.00283786 0)
(-0.0120618 -0.00329952 0)
(-0.0100591 -0.00304089 -0)
(-0.00855775 -0.00228499 2.56931e-21)
(-0.00761897 -0.00142471 0)
(-0.00694127 -0.000812159 0)
(-0.00612644 -0.000612529 -3.37551e-21)
(-0.00500288 -0.000979871 0)
(-0.00343001 -0.00235116 0)
(-0.000535588 -0.00503735 0)
(0.00432559 -0.00740001 3.04677e-21)
(0.00991231 -0.00889262 0)
(0.0158144 -0.00985141 1.47122e-21)
(0.0218631 -0.0106158 0)
(0.0280681 -0.0112688 -0)
(0.03438 -0.0115163 8.4508e-22)
(0.0405151 -0.0113575 0)
(0.0491079 -0.0116033 -7.53975e-22)
(0.0588992 -0.0117567 -0)
(0.0685955 -0.0115852 7.70634e-22)
(0.0780073 -0.011172 0)
(0.0869831 -0.0105874 0)
(0.0954303 -0.00989353 0)
(0.103291 -0.00913989 -0)
(0.11054 -0.00836371 0)
(0.117176 -0.00759243 -8.11104e-22)
(0.123211 -0.00684294 -0)
(0.128669 -0.00612484 1.63299e-21)
(0.133576 -0.00544238 0)
(0.13796 -0.00479582 -1.63487e-21)
(0.141847 -0.00418344 -0)
(0.145261 -0.00360262 -0)
(0.148222 -0.0030505 1.62098e-21)
(0.150749 -0.00252491 0)
(0.152855 -0.00202475 1.60076e-21)
(0.154553 -0.00155086 -1.58745e-21)
(0.155856 -0.00110682 -0)
(0.156775 -0.000699308 -1.55484e-21)
(0.157322 -0.00033814 -1.53581e-21)
(0.157508 -3.9967e-05 -0)
(0.157402 0.00019463 0)
(0.157071 0.000391438 0)
(0.156517 0.000568162 0)
(0.155755 0.000730942 -0)
(0.154795 0.000884141 1.37575e-21)
(0.153643 0.00102827 0)
(0.152307 0.00116395 -1.30697e-21)
(0.150794 0.00129161 -0)
(0.149111 0.00141121 -0)
(0.147266 0.00152284 1.19052e-21)
(0.145267 0.00162637 0)
(0.143121 0.00172187 -1.10482e-21)
(0.140838 0.00180924 -0)
(0.138425 0.00188853 0)
(0.135891 0.0019598 -0)
(0.133245 0.00202308 9.16805e-22)
(0.130497 0.00207838 0)
(0.127655 0.00212593 -0)
(0.124729 0.00216593 7.63766e-22)
(0.121728 0.00219836 0)
(0.118662 0.00222355 6.57237e-22)
(0.115538 0.0022418 0)
(0.112367 0.00225324 0)
(0.109157 0.00225815 0)
(0.105916 0.00225686 -4.36164e-22)
(0.102654 0.00224972 -0)
(0.0993774 0.00223697 0)
(0.096095 0.00221898 -2.6557e-22)
(0.0928139 0.00219611 -2.08123e-22)
(0.0895411 0.00216864 -0)
(0.0862836 0.00213693 -9.26598e-23)
(0.0830479 0.00210141 -0)
(0.0798396 0.0020624 4.65847e-23)
(0.0766646 0.0020203 -0)
(0.0735279 0.00197557 2.78994e-22)
(0.070434 0.00192863 0)
(0.0673874 0.00188007 -5.11669e-22)
(0.0643919 0.00183072 -0)
(0.0614505 0.00178152 0)
(0.0585658 0.00173377 -0)
(0.0557399 0.00168917 9.78419e-22)
(0.0529741 0.00164984 0)
(0.050269 0.00161801 -1.21385e-21)
(0.047623 0.00159478 0)
(0.0457844 0.00160341 1.47561e-21)
(0.0442421 0.00162095 1.63411e-21)
(0.0427031 0.00162589 1.79902e-21)
(0.0411757 0.00161298 0)
(0.0396654 0.00158966 0)
(0.0381717 0.00156399 0)
(0.0366935 0.00153818 0)
(0.0352306 0.00151246 0)
(0.0337835 0.00148684 0)
(0.0323527 0.00146138 0)
(0.0309385 0.00143615 0)
(0.0295416 0.0014113 -3.69173e-21)
(0.0281624 0.0013871 -3.96737e-21)
(0.0268007 0.00136369 0)
(0.0254569 0.00134071 0)
(0.0241314 0.00131665 0)
(0.0228257 0.00129174 -5.26724e-21)
(0.0215396 0.00126756 0)
(0.0202728 0.00124389 0)
(0.0190259 0.0012208 0)
(0.0177986 0.00119838 0)
(0.016591 0.00117665 7.53568e-21)
(0.0154032 0.0011557 0)
(0.0142351 0.00113561 0)
(0.0130865 0.00111648 -9.4543e-21)
(0.0119575 0.00109837 1.02317e-20)
(0.010848 0.00108136 0)
(0.0097579 0.00106573 1.20678e-20)
(0.00868711 0.00105214 0)
(0.0076353 0.00104175 -1.44058e-20)
(0.00660176 0.00103486 0)
(0.00558617 0.00103045 0)
(0.00458849 0.00102823 0)
(0.00360829 0.00102852 0)
(0.0026451 0.00103155 0)
(0.0016994 0.00103728 5.56996e-20)
(0.00077267 0.00104286 6.42062e-20)
(-0.000137106 0.0010302 0)
(-0.00103435 0.000987422 0)
(-0.00191613 0.000935045 0)
(-0.00278242 0.000885555 -5.28986e-20)
(-0.00363308 0.000840638 0)
(-0.00446795 0.000799894 0)
(-0.00528742 0.000762836 0)
(-0.00609206 0.000728965 -4.04211e-20)
(-0.00688241 0.000697822 3.83705e-20)
(-0.00765897 0.000669031 0)
(-0.00842222 0.000642286 0)
(-0.00917261 0.000617345 3.36213e-20)
(-0.00991059 0.000594004 3.23807e-20)
(-0.0106366 0.000572097 0)
(-0.011351 0.000551498 0)
(-0.0120542 0.000532087 -2.9355e-20)
(-0.0127467 0.000513766 2.8527e-20)
(-0.013429 0.000496458 0)
(-0.0141013 0.000480091 0)
(-0.0147642 0.000464602 2.64371e-20)
(-0.0154181 0.000449948 0)
(-0.0160635 0.000436069 0)
(-0.0167007 0.000422932 2.47914e-20)
(-0.0173303 0.0004105 0)
(-0.0179527 0.000398737 2.38753e-20)
(-0.0185684 0.000387613 0)
(-0.0191778 0.000377094 0)
(-0.0197814 0.000367155 0)
(-0.0203796 0.000357767 -2.23591e-20)
(-0.020973 0.000348881 0)
(-0.0215619 0.000340456 0)
(-0.0221465 0.000332479 0)
(-0.0227276 0.000324833 0)
(-0.0233048 0.000317454 0)
(-0.0238786 0.000310281 0)
(-0.0244489 0.000303084 -2.03857e-20)
(-0.0250149 0.000295687 -2.01553e-20)
(-0.0255759 0.000287865 0)
(-0.0261308 0.000279217 0)
(-0.0266772 0.000269167 0)
(-0.0272114 0.000257016 1.93605e-20)
(-0.0277287 0.000241557 0)
(-0.0282207 0.000221318 -3.8135e-20)
(-0.0286776 0.000192266 3.79288e-20)
(-0.0290708 0.000152626 3.78197e-20)
(-0.0294018 7.78784e-05 -3.78583e-20)
(-0.0294835 -3.93772e-05 3.80454e-20)
(-0.0295082 -0.000356544 -3.83976e-20)
(-0.0279736 -0.000616876 0)
(-0.0293464 -0.00051622 -2.43315e-18)
(-0.0327699 -0.00134241 -2.26974e-18)
(-0.0364137 -0.00203339 3.00927e-36)
(-0.0395345 -0.00257602 -4.06085e-18)
(-0.0424848 -0.00301871 -7.75769e-18)
(-0.0455569 -0.00342217 -3.71967e-18)
(-0.0487802 -0.00382151 3.56749e-18)
(-0.0521069 -0.00429282 -6.62038e-35)
(-0.0556195 -0.0046943 6.01853e-36)
(-0.0592908 -0.00509904 3.15813e-18)
(-0.0632449 -0.00549846 3.01566e-18)
(-0.0674469 -0.00580958 9.0278e-36)
(-0.0719309 -0.00621996 0)
(-0.0767396 -0.00669094 0)
(-0.0819263 -0.00719446 -1.26154e-34)
(-0.0875431 -0.00774183 7.68303e-35)
(-0.0936597 -0.00834481 1.98612e-34)
(-0.100329 -0.00900949 -4.15828e-18)
(-0.107692 -0.00973117 -3.81234e-18)
(-0.116752 -0.0106245 6.01853e-36)
(-0.127569 -0.0116283 6.13679e-18)
(-0.138424 -0.0127353 1.03493e-17)
(-0.153649 -0.0139286 6.01853e-36)
(-0.162849 -0.0152955 -5.09805e-18)
(-0.191963 -0.0169831 9.0278e-36)
)
;
    }
    frontAndBack
    {
        type            empty;
    }
}


// ************************************************************************* //
