/*--------------------------------*- C++ -*----------------------------------*\
  =========                 |
  \\      /  F ield         | OpenFOAM: The Open Source CFD Toolbox
   \\    /   O peration     | Website:  https://openfoam.org
    \\  /    A nd           | Version:  8
     \\/     M anipulation  |
\*---------------------------------------------------------------------------*/
FoamFile
{
    version     2.0;
    format      ascii;
    class       volScalarField;
    location    "2500";
    object      nut;
}
// * * * * * * * * * * * * * * * * * * * * * * * * * * * * * * * * * * * * * //

dimensions      [0 2 -1 0 0 0 0];

internalField   nonuniform List<scalar> 
12225
(
0.0122671
0.00158819
0.000666129
0.000410105
0.000294025
0.00022806
0.000183261
0.000170806
0.0001327
0.000106847
9.46739e-05
8.8009e-05
7.89869e-05
7.22337e-05
6.77333e-05
6.45096e-05
6.12128e-05
6.46359e-05
0.0323823
0.00744532
0.00330638
0.00204329
0.00146801
0.0011445
0.000936338
0.000799976
0.000679516
0.000577239
0.000506288
0.000452434
0.000410542
0.000378809
0.000350185
0.000327772
0.000311177
0.000292832
0.0490123
0.01515
0.00728196
0.00457855
0.00330639
0.00258054
0.00211233
0.00178913
0.00154181
0.00134762
0.00119772
0.0010787
0.000982061
0.000902487
0.000835985
0.000780919
0.000735559
0.000687194
0.063054
0.0237783
0.0122894
0.00788814
0.00573397
0.00448498
0.00367413
0.00310733
0.00268472
0.00235805
0.00210111
0.00189459
0.00172531
0.00158451
0.00146614
0.00136606
0.00128148
0.00119792
0.074932
0.0328517
0.0181452
0.0119262
0.00874548
0.00686412
0.0056308
0.00476254
0.00411748
0.0036203
0.00322732
0.00290993
0.002649
0.00243144
0.002248
0.0020919
0.00195828
0.00183629
0.0849536
0.0420208
0.0246655
0.0166359
0.0123325
0.00972587
0.00799539
0.00676785
0.00585346
0.0051477
0.00458845
0.00413588
0.00376335
0.00345241
0.00318984
0.00296598
0.00277362
0.00260475
0.0933822
0.0510219
0.0316642
0.0219415
0.016474
0.0130717
0.0107779
0.00913552
0.00790571
0.0069534
0.0061969
0.00558368
0.00507838
0.00465633
0.00429978
0.00399563
0.00373417
0.00350822
0.0993794
0.0583363
0.0378386
0.0268568
0.0204171
0.0163053
0.0134892
0.011453
0.00991891
0.00872629
0.00777636
0.00700498
0.00636868
0.00583686
0.00538742
0.005004
0.00467454
0.0043913
0.104023
0.0645454
0.0433804
0.0314239
0.0241571
0.0194092
0.0161097
0.0137018
0.0118766
0.0104521
0.00931444
0.00838905
0.00762486
0.00698576
0.00644546
0.00598451
0.00558861
0.0052488
0.108368
0.0708939
0.0493756
0.0365496
0.0284517
0.0230231
0.0191863
0.0163548
0.0141926
0.0124968
0.011138
0.0100304
0.00911435
0.00834761
0.00769912
0.00714581
0.00667071
0.006263
0.112368
0.0772557
0.0557282
0.0421918
0.0332976
0.0271652
0.0227468
0.0194432
0.0168984
0.0148903
0.0132749
0.0119544
0.0108605
0.0099438
0.00916798
0.00850588
0.00793738
0.00744917
0.115994
0.0834975
0.0623053
0.0482611
0.0386474
0.0318167
0.026789
0.0229739
0.0200046
0.0176452
0.0157379
0.0141736
0.0128749
0.011785
0.0108618
0.0100736
0.00939673
0.00881466
0.119234
0.0894856
0.0689377
0.0546109
0.0443919
0.0369007
0.0312597
0.0269088
0.0234836
0.02074
0.0185097
0.0166735
0.0151449
0.01386
0.0127704
0.0118396
0.0110397
0.0103508
0.122086
0.095084
0.075415
0.0610223
0.0503361
0.0422534
0.0360231
0.0311353
0.0272402
0.024093
0.021519
0.0193909
0.017614
0.0161174
0.0148466
0.0137601
0.0128257
0.0120196
0.124546
0.100135
0.0814619
0.0671725
0.056158
0.047577
0.0408126
0.0354174
0.031066
0.0275196
0.0246012
0.0221777
0.0201481
0.0184349
0.0169782
0.0157314
0.0146583
0.0137312
0.126578
0.104396
0.0866605
0.0725515
0.0613228
0.0523526
0.0451453
0.0393148
0.0345631
0.0306611
0.0274325
0.0247409
0.0224806
0.020569
0.0189413
0.0175468
0.0163454
0.0153061
0.128011
0.107322
0.0902141
0.0762353
0.0648743
0.0556509
0.0481493
0.0420254
0.0370012
0.0328553
0.0294126
0.0265352
0.0241143
0.0220643
0.0203172
0.0188191
0.0175275
0.0164083
0.128006
0.107313
0.0902048
0.0762269
0.0648674
0.0556454
0.048145
0.0420222
0.0369988
0.0328537
0.0294117
0.0265349
0.0241147
0.0220652
0.0203185
0.0188206
0.0175287
0.0164083
0.126509
0.104255
0.0864922
0.0723807
0.0611613
0.052205
0.0450128
0.0391967
0.0344584
0.0305686
0.0273506
0.0246684
0.0224163
0.0205118
0.0188903
0.0175006
0.0163024
0.0152631
0.124267
0.0995604
0.0807712
0.0664676
0.0554886
0.0469631
0.0402594
0.0349228
0.0306248
0.0271258
0.0242488
0.0218611
0.0198626
0.0181762
0.0167426
0.0155152
0.0144575
0.0135405
0.12136
0.0936399
0.0737261
0.0593348
0.0487592
0.0408249
0.0347467
0.0300003
0.0262308
0.0231928
0.0207127
0.018665
0.0169572
0.0155198
0.0142999
0.0132567
0.0123583
0.0115798
0.117686
0.0865903
0.0656967
0.0514791
0.0415374
0.0343608
0.0290184
0.0249322
0.0217348
0.0191848
0.0171184
0.0154211
0.0140106
0.0128263
0.0118228
0.0109656
0.0102279
0.00958894
0.11305
0.0784122
0.056921
0.0432687
0.0342296
0.0279652
0.0234365
0.0200435
0.0174263
0.0153597
0.0136966
0.0123369
0.0112106
0.010267
0.00946865
0.00878718
0.008201
0.00769345
0.107169
0.0691009
0.0476372
0.035029
0.0271566
0.021922
0.0182437
0.0155401
0.0134817
0.0118706
0.0105816
0.00953197
0.00866487
0.00793964
0.00732669
0.00680376
0.0063541
0.00596493
0.0996761
0.0587036
0.0381279
0.0270699
0.0205782
0.0164329
0.0135949
0.0115438
0.00999922
0.00879908
0.00784341
0.00706755
0.00642792
0.00589353
0.00544233
0.00505735
0.00472635
0.0044401
0.0901097
0.0473665
0.0287363
0.0196847
0.0146976
0.0116312
0.00957853
0.00811528
0.00702332
0.00617994
0.00551058
0.0049679
0.00452122
0.00414795
0.00383347
0.00356466
0.00333341
0.00313388
0.0779076
0.0353826
0.0198606
0.0131383
0.00966107
0.00759298
0.00623352
0.00527429
0.004564
0.00401882
0.00358701
0.00323599
0.00294751
0.00270526
0.00250288
0.00232854
0.00217789
0.00204894
0.06238
0.0232554
0.0119461
0.00765493
0.00556337
0.00435256
0.00356724
0.00301639
0.00261307
0.00230792
0.00206665
0.00186689
0.00170308
0.00156251
0.00144869
0.00134758
0.00125906
0.00118361
0.0426105
0.0117794
0.0054693
0.00341385
0.00246071
0.00192005
0.00157275
0.00132885
0.00115943
0.00103846
0.000944042
0.000857504
0.000785385
0.000720528
0.00066588
0.00061566
0.00057665
0.000531653
0.0168348
0.00255985
0.00110002
0.000683428
0.000493724
0.000386803
0.000318219
0.000266307
0.000272613
0.00032205
0.000354121
0.000337889
0.000300245
0.00026811
0.000240477
0.000205889
0.000197367
0.00014094
3.99027e-09
5.90948e-07
2.00011e-06
6.28716e-06
1.08001e-05
1.35298e-05
1.32567e-05
1.17942e-05
9.06689e-06
5.95089e-06
3.52634e-06
2.02648e-06
1.41044e-06
1.50322e-06
2.0666e-06
2.56644e-06
2.45523e-06
2.06973e-06
2.53992e-06
8.6699e-06
9.02357e-06
5.55019e-06
6.73607e-06
2.64507e-05
5.67303e-05
7.43996e-05
9.09598e-05
0.00010481
0.000117034
0.000127197
0.000136102
0.000143751
0.000150443
0.00015627
0.000161353
0.00016584
0.000169815
0.000173366
0.000176549
0.000179408
0.000181973
0.000184267
0.000186307
0.00018811
0.000189691
0.000191062
0.000192234
0.000193214
0.000194003
0.000194475
0.000194973
0.000195082
0.000195144
0.000195019
0.00019472
0.000194274
0.000193675
0.000192928
0.000192034
0.000190996
0.000189814
0.000188493
0.000187033
0.000185437
0.000183708
0.000181848
0.000179858
0.00017774
0.000175497
0.000173131
0.000170644
0.000168038
0.000165314
0.000162475
0.000159521
0.000156454
0.000153274
0.000149982
0.000146576
0.000143057
0.00013942
0.000135663
0.000131781
0.000127768
0.000123617
0.000119317
0.000114858
0.000110222
0.00010539
0.000100337
9.50366e-05
8.94611e-05
8.36046e-05
7.75337e-05
7.15236e-05
6.62435e-05
6.2487e-05
6.01469e-05
5.83948e-05
5.6789e-05
5.52128e-05
5.36443e-05
5.20822e-05
5.05278e-05
4.89832e-05
4.74502e-05
4.59317e-05
4.44338e-05
4.29846e-05
4.1748e-05
4.05439e-05
3.93542e-05
3.81817e-05
3.70271e-05
3.58912e-05
3.4775e-05
3.36791e-05
3.26042e-05
3.15511e-05
3.05201e-05
2.95116e-05
2.85261e-05
2.75641e-05
2.66261e-05
2.57123e-05
2.48223e-05
2.39574e-05
2.31454e-05
2.24112e-05
2.16956e-05
2.0995e-05
2.03177e-05
1.96685e-05
1.90335e-05
1.84125e-05
1.78087e-05
1.72228e-05
1.66551e-05
1.61055e-05
1.55735e-05
1.50588e-05
1.45608e-05
1.40793e-05
1.36137e-05
1.31637e-05
1.27289e-05
1.23088e-05
1.19031e-05
1.15114e-05
1.11333e-05
1.07684e-05
1.04164e-05
1.0077e-05
9.74988e-06
9.43464e-06
9.13103e-06
8.83879e-06
8.55765e-06
8.2874e-06
8.02782e-06
7.77873e-06
7.53993e-06
7.31127e-06
7.09256e-06
6.88358e-06
6.68409e-06
6.49377e-06
6.31219e-06
6.13881e-06
5.97285e-06
5.81354e-06
5.65928e-06
5.50964e-06
5.35965e-06
5.21391e-06
5.04787e-06
4.89389e-06
4.64752e-06
4.48933e-06
3.59424e-06
1.68061e-07
6.13917e-06
6.38662e-05
0.000139663
0.000183222
0.000206993
0.000216374
0.000214887
0.000206552
0.000189857
0.000169071
0.000148936
0.000138509
0.000143709
0.000157675
0.000166606
0.000169024
0.000170202
0.000175594
0.00018529
0.000200038
0.000217476
0.000234311
0.000250825
0.000262128
0.000272035
0.00028085
0.000293682
0.000312787
0.000326736
0.000339482
0.000350408
0.000360339
0.00036944
0.000377341
0.000384555
0.00039127
0.000397713
0.000404013
0.000410236
0.000416379
0.000422398
0.00042824
0.000433865
0.000439244
0.000444362
0.000449202
0.000453753
0.000458015
0.000461989
0.000465714
0.000469157
0.000472354
0.000475296
0.000477987
0.000480429
0.000482622
0.000484567
0.000486265
0.000487716
0.00048892
0.000489879
0.000490594
0.000491071
0.000491319
0.000491344
0.00049114
0.000490702
0.000490049
0.000489183
0.00048811
0.000486838
0.000485372
0.000483719
0.000481886
0.000479882
0.000477712
0.000475385
0.000472909
0.000470291
0.000467539
0.000464661
0.000461664
0.000458558
0.000455349
0.000452046
0.000448658
0.000445193
0.000441658
0.000438061
0.000434409
0.000430707
0.000426955
0.000423145
0.000419258
0.000415268
0.000411159
0.000406958
0.000402717
0.000398461
0.000394196
0.000389926
0.000385656
0.000381389
0.000377127
0.000372875
0.000368635
0.00036441
0.000360199
0.000356001
0.000351825
0.000347677
0.000343558
0.00033947
0.000335415
0.000331395
0.00032741
0.000323464
0.000319556
0.000315689
0.000311862
0.000308077
0.000304334
0.000300637
0.000296984
0.000293375
0.000289811
0.00028629
0.000282811
0.000279377
0.000275986
0.000272646
0.00026936
0.00026611
0.000262895
0.000259722
0.000256593
0.000253509
0.00025047
0.000247476
0.000244526
0.000241619
0.000238755
0.000235934
0.000233154
0.000230416
0.000227719
0.000225061
0.000222444
0.000219866
0.000217327
0.000214826
0.000212365
0.000209942
0.000207558
0.000205212
0.000202906
0.00020064
0.000198414
0.00019623
0.00019409
0.000191994
0.000189945
0.000187944
0.000185993
0.000184093
0.000182246
0.000180452
0.00017871
0.000177019
0.000175374
0.000173775
0.000172197
0.000170682
0.000169072
0.000167749
0.000165617
0.000164901
0.000162094
0.000160721
7.68337e-07
4.45271e-05
0.000164266
0.000246506
0.000299848
0.000330179
0.000341228
0.000338369
0.000325546
0.000306278
0.000286503
0.00027377
0.000271499
0.000278169
0.000288522
0.000299349
0.000312105
0.000329052
0.000350646
0.000375804
0.000403195
0.000431554
0.000469724
0.000516119
0.000561777
0.000605938
0.000649044
0.00069272
0.000732074
0.000763374
0.000788392
0.000808223
0.000823943
0.000836415
0.000846422
0.00085474
0.00086207
0.000869057
0.000876237
0.000883968
0.000892356
0.000901279
0.000910497
0.000919774
0.000928932
0.000937852
0.000946456
0.000954698
0.000962541
0.000969956
0.000976922
0.000983409
0.000989413
0.000994929
0.000999954
0.00100449
0.00100853
0.00101208
0.00101513
0.00101769
0.00101976
0.00102134
0.00102242
0.00102297
0.00102312
0.00102284
0.00102205
0.0010208
0.00101911
0.00101699
0.00101446
0.00101151
0.00100818
0.00100446
0.00100038
0.000995946
0.000991179
0.00098609
0.000980696
0.000975011
0.000969051
0.00096283
0.000956364
0.000949667
0.000942756
0.000935645
0.000928348
0.00092088
0.000913254
0.000905484
0.000897582
0.000889558
0.000881423
0.000873184
0.000864849
0.000856428
0.000847935
0.000839384
0.000830791
0.000822171
0.000813534
0.000804888
0.000796243
0.000787605
0.000778981
0.000770379
0.000761805
0.000753266
0.000744765
0.00073631
0.000727906
0.000719558
0.000711271
0.000703048
0.000694894
0.000686812
0.000678804
0.000670875
0.000663026
0.000655259
0.000647578
0.000639982
0.000632476
0.00062506
0.000617735
0.000610503
0.000603362
0.000596315
0.000589361
0.000582502
0.000575737
0.000569068
0.000562491
0.000556002
0.0005496
0.000543286
0.000537063
0.000530932
0.000524892
0.000518943
0.000513084
0.000507315
0.000501633
0.000496038
0.00049053
0.000485106
0.000479766
0.000474508
0.000469331
0.000464235
0.000459218
0.000454279
0.000449417
0.00044463
0.000439919
0.00043528
0.000430715
0.00042622
0.000421796
0.000417441
0.000413153
0.00040893
0.000404772
0.000400676
0.000396638
0.000392657
0.000388727
0.000384844
0.000381001
0.000377189
0.000373396
0.000369607
0.000365799
0.000361952
0.000357993
0.000353953
0.000349471
0.000345077
0.000338587
0.000327128
5.06746e-07
8.12734e-05
0.000212953
0.000309189
0.00037298
0.000410403
0.00042599
0.000426389
0.000416384
0.000402981
0.000394815
0.000393969
0.000403184
0.000420387
0.000443136
0.000470885
0.000504233
0.000543541
0.000587998
0.000650166
0.000724019
0.000803803
0.000888082
0.00095876
0.0010212
0.00107734
0.00112776
0.00117268
0.00121195
0.00124585
0.0012751
0.00130043
0.00132256
0.0013421
0.00135964
0.00137567
0.00139059
0.00140476
0.00141842
0.00143177
0.00144494
0.00145799
0.00147095
0.00148381
0.0014965
0.00150897
0.0015211
0.0015328
0.00154399
0.00155459
0.00156455
0.00157382
0.0015824
0.00159026
0.00159739
0.0016038
0.00160948
0.00161441
0.00161861
0.00162207
0.0016248
0.00162677
0.00162793
0.00162837
0.00162824
0.00162733
0.0016257
0.00162338
0.00162038
0.00161673
0.00161243
0.00160751
0.00160199
0.00159589
0.00158923
0.00158203
0.00157433
0.00156613
0.00155746
0.00154835
0.00153882
0.00152889
0.00151859
0.00150794
0.00149695
0.00148566
0.00147408
0.00146225
0.00145017
0.00143787
0.00142537
0.00141269
0.00139984
0.00138684
0.00137371
0.00136045
0.0013471
0.00133367
0.00132018
0.00130665
0.00129309
0.00127952
0.00126594
0.00125238
0.00123885
0.00122534
0.00121189
0.00119848
0.00118514
0.00117187
0.00115869
0.00114558
0.00113258
0.00111967
0.00110687
0.00109418
0.00108161
0.00106916
0.00105684
0.00104464
0.00103257
0.00102064
0.00100885
0.000997196
0.000985683
0.000974313
0.000963086
0.000952004
0.000941067
0.000930276
0.000919632
0.000909134
0.000898778
0.000888563
0.000878485
0.000868547
0.00085875
0.000849094
0.000839579
0.000830203
0.000820967
0.000811869
0.000802906
0.000794079
0.000785384
0.00077682
0.000768385
0.000760078
0.000751897
0.00074384
0.000735905
0.000728091
0.000720395
0.000712816
0.000705351
0.000698
0.00069076
0.000683629
0.000676606
0.000669687
0.00066287
0.000656154
0.000649535
0.000643009
0.000636572
0.00063022
0.000623947
0.000617744
0.000611602
0.000605509
0.000599448
0.000593399
0.000587332
0.000581209
0.000574965
0.000568546
0.00056177
0.000554578
0.000546335
0.000530144
1.49277e-06
0.000102043
0.000235103
0.000355039
0.000433962
0.00048148
0.000505126
0.0005136
0.000515174
0.000516154
0.00052302
0.000539167
0.000565208
0.00060018
0.000643292
0.000694559
0.00075462
0.000838018
0.000933672
0.00102991
0.00111893
0.00120334
0.0012827
0.00135541
0.00142218
0.00148361
0.00154008
0.00159194
0.00163955
0.00168333
0.00172376
0.00176133
0.00179647
0.00182956
0.00186089
0.00189074
0.00191929
0.00194668
0.001973
0.00199833
0.0020227
0.0020461
0.00206855
0.00209002
0.00211048
0.00212992
0.00214829
0.00216557
0.00218172
0.00219675
0.00221062
0.00222335
0.00223494
0.00224541
0.00225478
0.00226307
0.00227028
0.00227645
0.00228157
0.00228568
0.00228877
0.00229082
0.00229174
0.00229183
0.00229095
0.00228907
0.00228624
0.00228246
0.00227778
0.0022722
0.00226575
0.00225846
0.00225036
0.00224148
0.00223185
0.0022215
0.00221045
0.00219875
0.00218642
0.00217349
0.00215999
0.00214596
0.00213142
0.00211641
0.00210096
0.00208509
0.00206885
0.00205225
0.00203533
0.00201811
0.00200063
0.0019829
0.00196496
0.00194682
0.00192851
0.00191006
0.00189148
0.0018728
0.00185404
0.00183523
0.00181638
0.00179752
0.00177867
0.00175983
0.00174103
0.00172228
0.00170359
0.00168498
0.00166646
0.00164803
0.00162972
0.00161153
0.00159347
0.00157555
0.00155778
0.00154016
0.0015227
0.00150541
0.00148829
0.00147135
0.00145458
0.00143801
0.00142162
0.00140542
0.00138941
0.0013736
0.00135798
0.00134257
0.00132735
0.00131233
0.00129751
0.00128289
0.00126847
0.00125424
0.0012402
0.00122635
0.0012127
0.00119924
0.00118597
0.00117289
0.00116
0.0011473
0.00113478
0.00112245
0.00111029
0.00109832
0.00108652
0.0010749
0.00106344
0.00105216
0.00104104
0.00103008
0.00101928
0.00100865
0.000998166
0.000987838
0.00097766
0.000967629
0.000957744
0.000948
0.000938394
0.000928923
0.000919584
0.000910371
0.000901279
0.000892303
0.000883434
0.000874664
0.000865981
0.00085737
0.000848812
0.000840282
0.000831746
0.00082316
0.000814457
0.000805567
0.000796323
0.000786579
0.000776611
0.00075679
2.2708e-06
0.000118187
0.000256348
0.000390127
0.000487219
0.000549142
0.000587008
0.000610471
0.000628222
0.000647534
0.000673661
0.000709255
0.000755055
0.000811332
0.000878486
0.00096897
0.00107409
0.00117582
0.00127504
0.00137056
0.00146127
0.00154728
0.00162853
0.001705
0.00177698
0.0018448
0.00190883
0.00196939
0.00202681
0.00208142
0.00213355
0.00218348
0.00223147
0.00227772
0.00232239
0.00236561
0.00240746
0.002448
0.00248726
0.00252525
0.00256196
0.00259738
0.00263147
0.00266421
0.00269555
0.00272546
0.00275389
0.0027808
0.00280616
0.00282993
0.00285208
0.0028726
0.00289147
0.00290868
0.00292421
0.00293808
0.00295028
0.00296082
0.00296971
0.00297698
0.00298263
0.00298671
0.00298914
0.00299004
0.00298957
0.0029876
0.00298426
0.00297956
0.00297355
0.0029663
0.00295785
0.00294826
0.00293757
0.00292584
0.00291312
0.00289946
0.00288489
0.00286948
0.00285325
0.00283626
0.00281855
0.00280015
0.00278112
0.00276149
0.0027413
0.00272059
0.0026994
0.00267777
0.00265574
0.00263334
0.00261061
0.00258758
0.00256428
0.00254075
0.00251702
0.00249311
0.00246905
0.00244488
0.00242062
0.00239629
0.00237193
0.00234756
0.00232319
0.00229886
0.00227457
0.00225035
0.00222622
0.00220219
0.00217828
0.00215449
0.00213085
0.00210737
0.00208406
0.00206093
0.00203798
0.00201523
0.00199269
0.00197036
0.00194825
0.00192637
0.00190472
0.0018833
0.00186212
0.00184119
0.0018205
0.00180006
0.00177986
0.00175993
0.00174024
0.0017208
0.00170162
0.00168269
0.00166401
0.00164558
0.00162739
0.00160945
0.00159175
0.0015743
0.00155709
0.00154011
0.00152338
0.00150689
0.00149062
0.00147459
0.00145879
0.00144321
0.00142786
0.00141272
0.0013978
0.00138309
0.00136859
0.0013543
0.0013402
0.00132631
0.00131261
0.00129911
0.00128579
0.00127266
0.00125971
0.00124694
0.00123435
0.00122192
0.00120966
0.00119756
0.00118561
0.00117381
0.00116215
0.00115062
0.0011392
0.00112788
0.00111664
0.00110545
0.00109428
0.00108308
0.00107177
0.00106029
0.00104848
0.00103626
0.00102408
0.0010016
2.80461e-06
0.000126807
0.000269259
0.000407701
0.000526473
0.000608008
0.000664209
0.000706211
0.000743257
0.000782612
0.000829335
0.000886377
0.000955357
0.00104766
0.00115465
0.00126126
0.00136737
0.00147074
0.00157082
0.00166719
0.0017596
0.00184805
0.00193262
0.00201349
0.00209089
0.00216509
0.00223638
0.00230502
0.00237126
0.00243534
0.00249747
0.00255783
0.00261657
0.0026738
0.00272962
0.00278406
0.00283718
0.00288899
0.00293947
0.00298861
0.00303638
0.00308274
0.00312765
0.00317107
0.00321292
0.00325318
0.00329177
0.00332866
0.00336378
0.0033971
0.00342857
0.00345815
0.00348581
0.00351151
0.00353523
0.00355695
0.00357666
0.00359435
0.00361
0.00362362
0.00363522
0.0036448
0.00365238
0.003658
0.00366165
0.00366327
0.00366318
0.00366119
0.00365741
0.0036519
0.00364469
0.00363585
0.00362543
0.0036135
0.00360011
0.00358534
0.00356925
0.00355191
0.00353338
0.00351373
0.00349303
0.00347134
0.00344873
0.00342527
0.00340102
0.00337604
0.0033504
0.00332415
0.00329734
0.00327003
0.00324228
0.00321412
0.00318562
0.0031568
0.00312772
0.00309841
0.00306891
0.00303926
0.00300949
0.00297964
0.00294974
0.00291982
0.00288991
0.00286003
0.0028302
0.00280046
0.00277082
0.0027413
0.00271192
0.0026827
0.00265365
0.00262479
0.00259614
0.00256771
0.0025395
0.00251153
0.00248381
0.00245635
0.00242916
0.00240223
0.00237559
0.00234923
0.00232316
0.00229738
0.0022719
0.00224672
0.00222183
0.00219726
0.00217298
0.00214901
0.00212535
0.00210199
0.00207893
0.00205616
0.0020337
0.00201153
0.00198965
0.00196807
0.00194678
0.00192578
0.00190507
0.00188464
0.00186449
0.00184462
0.00182502
0.00180569
0.00178663
0.00176783
0.00174929
0.00173101
0.00171297
0.00169519
0.00167764
0.00166034
0.00164327
0.00162644
0.00160983
0.00159344
0.00157727
0.00156132
0.00154558
0.00153004
0.0015147
0.00149956
0.00148461
0.00146983
0.00145523
0.00144079
0.00142649
0.00141232
0.00139826
0.00138427
0.00137033
0.00135638
0.00134235
0.00132818
0.00131371
0.00129895
0.00128394
0.00125969
2.94159e-06
0.000128723
0.000270653
0.000407288
0.000538088
0.000641751
0.000719005
0.000780445
0.000836232
0.000894067
0.000961628
0.00105356
0.00116317
0.0012849
0.00140049
0.00151176
0.0016196
0.00172419
0.00182545
0.00192333
0.00201784
0.00210905
0.00219712
0.00228222
0.00236458
0.00244443
0.00252197
0.00259744
0.00267101
0.00274285
0.00281312
0.00288193
0.00294936
0.00301549
0.00308036
0.00314398
0.00320635
0.00326747
0.0033273
0.0033858
0.00344292
0.00349862
0.00355282
0.00360547
0.00365651
0.00370586
0.00375347
0.00379926
0.00384318
0.00388517
0.00392518
0.00396315
0.00399903
0.00403279
0.00406439
0.00409378
0.00412096
0.00414589
0.00416857
0.00418897
0.00420709
0.00422294
0.00423652
0.00424785
0.00425694
0.00426381
0.00426853
0.00427098
0.00427141
0.00426977
0.0042661
0.00426045
0.00425289
0.00424346
0.00423223
0.00421925
0.0042046
0.00418835
0.00417055
0.00415128
0.00413061
0.00410862
0.00408537
0.00406094
0.0040354
0.00400883
0.00398128
0.00395284
0.00392357
0.00389354
0.00386281
0.00383145
0.00379951
0.00376707
0.00373417
0.00370087
0.00366723
0.00363329
0.00359911
0.00356474
0.00353021
0.00349557
0.00346087
0.00342613
0.0033914
0.0033567
0.00332206
0.00328753
0.00325311
0.00321884
0.00318473
0.00315082
0.00311711
0.00308363
0.0030504
0.00301742
0.00298471
0.00295228
0.00292014
0.00288831
0.00285679
0.00282558
0.00279471
0.00276416
0.00273395
0.00270408
0.00267455
0.00264536
0.00261652
0.00258803
0.00255989
0.0025321
0.00250465
0.00247755
0.00245079
0.00242437
0.00239828
0.00237254
0.00234714
0.00232206
0.00229732
0.00227291
0.00224882
0.00222505
0.0022016
0.00217846
0.00215563
0.0021331
0.00211088
0.00208895
0.00206731
0.00204596
0.0020249
0.00200411
0.0019836
0.00196335
0.00194338
0.00192366
0.0019042
0.00188499
0.00186603
0.0018473
0.00182882
0.00181056
0.00179253
0.00177471
0.00175709
0.00173967
0.00172242
0.00170533
0.00168838
0.00167153
0.00165475
0.00163799
0.00162118
0.00160425
0.00158705
0.00156965
0.00155172
0.00152558
2.75871e-06
0.000125259
0.000264032
0.000395758
0.000520534
0.000633071
0.000727052
0.000808234
0.000891239
0.000986549
0.00109576
0.00122044
0.00135683
0.00148436
0.00160467
0.0017197
0.00183042
0.0019372
0.00204036
0.00214025
0.00223708
0.00233106
0.00242239
0.00251126
0.00259789
0.00268247
0.00276521
0.00284626
0.00292579
0.00300393
0.00308077
0.0031564
0.00323088
0.00330424
0.00337649
0.00344763
0.00351763
0.00358646
0.00365407
0.0037204
0.00378539
0.00384896
0.00391105
0.00397158
0.00403046
0.00408762
0.00414298
0.00419648
0.00424803
0.00429756
0.00434502
0.00439034
0.00443346
0.00447433
0.00451291
0.00454916
0.00458304
0.00461452
0.00464358
0.00467021
0.00469439
0.00471611
0.00473539
0.00475222
0.00476662
0.00477861
0.00478822
0.00479545
0.00480038
0.00480295
0.00480333
0.00480152
0.00479755
0.00479149
0.00478339
0.0047733
0.0047613
0.00474745
0.00473181
0.00471445
0.00469544
0.00467485
0.00465276
0.00462923
0.00460435
0.00457818
0.00455079
0.00452226
0.00449266
0.00446207
0.00443054
0.00439816
0.00436498
0.00433107
0.00429651
0.00426134
0.00422563
0.00418944
0.00415283
0.00411586
0.00407857
0.00404102
0.00400327
0.00396534
0.0039273
0.00388918
0.00385102
0.00381285
0.00377472
0.00373666
0.00369869
0.00366084
0.00362315
0.00358564
0.00354832
0.00351123
0.00347437
0.00343777
0.00340145
0.00336541
0.00332968
0.00329426
0.00325916
0.0032244
0.00318998
0.0031559
0.00312219
0.00308883
0.00305583
0.0030232
0.00299095
0.00295906
0.00292754
0.0028964
0.00286562
0.00283522
0.00280518
0.00277552
0.00274622
0.00271728
0.00268871
0.0026605
0.00263265
0.00260515
0.00257801
0.00255121
0.00252475
0.00249863
0.00247285
0.0024474
0.00242228
0.00239747
0.00237299
0.00234882
0.00232495
0.00230139
0.00227813
0.00225517
0.0022325
0.00221011
0.002188
0.00216617
0.0021446
0.0021233
0.00210225
0.00208145
0.00206088
0.00204053
0.00202039
0.00200044
0.00198065
0.00196099
0.00194143
0.0019219
0.00190235
0.00188269
0.00186281
0.00184274
0.001822
0.00179367
2.3438e-06
0.00011798
0.000252834
0.000380955
0.000503921
0.000620447
0.000731324
0.000840405
0.000955299
0.00108117
0.00121926
0.00136902
0.00151133
0.00164333
0.0017676
0.00188604
0.00199977
0.00210942
0.00221539
0.00231789
0.00241731
0.00251402
0.00260833
0.0027005
0.00279075
0.00287928
0.00296628
0.00305191
0.00313629
0.00321953
0.00330173
0.00338293
0.00346318
0.00354248
0.00362083
0.0036982
0.00377455
0.00384983
0.00392398
0.00399691
0.00406856
0.00413883
0.00420764
0.0042749
0.00434051
0.00440439
0.00446644
0.00452659
0.00458474
0.00464082
0.00469476
0.00474648
0.00479591
0.00484301
0.00488772
0.00492999
0.00496978
0.00500705
0.00504178
0.00507396
0.00510355
0.00513056
0.00515498
0.00517682
0.00519608
0.00521278
0.00522695
0.0052386
0.00524778
0.0052545
0.00525882
0.00526075
0.00526041
0.0052578
0.00525298
0.00524602
0.00523696
0.00522588
0.00521284
0.00519791
0.00518114
0.00516262
0.00514242
0.0051206
0.00509724
0.00507241
0.00504619
0.00501864
0.00498985
0.00495987
0.00492878
0.00489666
0.00486357
0.00482957
0.00479474
0.00475913
0.00472282
0.00468587
0.00464833
0.00461028
0.00457176
0.00453283
0.00449355
0.00445396
0.00441412
0.00437407
0.00433386
0.00429354
0.00425313
0.00421268
0.00417224
0.00413182
0.00409147
0.00405121
0.00401107
0.00397109
0.00393127
0.00389166
0.00385226
0.00381311
0.00377421
0.00373558
0.00369724
0.0036592
0.00362148
0.00358408
0.00354701
0.00351029
0.00347392
0.0034379
0.00340225
0.00336696
0.00333205
0.0032975
0.00326333
0.00322954
0.00319612
0.00316308
0.00313042
0.00309813
0.00306622
0.00303469
0.00300353
0.00297274
0.00294232
0.00291227
0.00288258
0.00285324
0.00282427
0.00279565
0.00276737
0.00273945
0.00271186
0.00268461
0.0026577
0.00263111
0.00260485
0.00257891
0.00255328
0.00252797
0.00250296
0.00247826
0.00245385
0.00242972
0.00240588
0.00238231
0.002359
0.00233594
0.00231311
0.0022905
0.00226806
0.00224579
0.00222362
0.00220151
0.0021794
0.0021572
0.0021348
0.00211222
0.00208892
0.00205826
1.92633e-06
0.000110297
0.000242545
0.00036988
0.000495609
0.000620023
0.000744922
0.000874388
0.00101172
0.00115902
0.00131642
0.00147823
0.00162604
0.0017625
0.00189061
0.00201238
0.00212908
0.00224153
0.00235027
0.00245569
0.00255809
0.00265766
0.00275484
0.00284998
0.00294338
0.00303526
0.00312582
0.00321524
0.00330363
0.00339109
0.00347771
0.00356353
0.00364856
0.00373282
0.00381627
0.00389887
0.00398058
0.00406132
0.00414102
0.00421959
0.00429693
0.00437294
0.00444753
0.00452059
0.00459201
0.0046617
0.00472956
0.00479548
0.00485939
0.00492118
0.00498077
0.0050381
0.00509308
0.00514565
0.00519575
0.00524333
0.00528835
0.00533076
0.00537053
0.00540765
0.00544209
0.00547383
0.00550289
0.00552925
0.00555292
0.00557392
0.00559227
0.00560799
0.00562112
0.00563167
0.0056397
0.00564524
0.00564835
0.00564907
0.00564747
0.00564359
0.0056375
0.00562925
0.00561891
0.00560655
0.00559222
0.00557601
0.00555798
0.0055382
0.00551674
0.00549368
0.00546909
0.00544304
0.0054156
0.00538685
0.00535686
0.00532568
0.00529341
0.00526009
0.0052258
0.00519061
0.00515458
0.00511777
0.00508025
0.00504208
0.00500332
0.00496403
0.00492426
0.00488406
0.0048435
0.00480261
0.00476144
0.00472005
0.00467847
0.00463675
0.00459493
0.00455305
0.00451114
0.00446923
0.00442736
0.00438556
0.00434386
0.00430229
0.00426086
0.00421961
0.00417855
0.00413771
0.00409711
0.00405675
0.00401666
0.00397686
0.00393735
0.00389814
0.00385925
0.00382069
0.00378247
0.00374458
0.00370705
0.00366987
0.00363304
0.00359658
0.00356048
0.00352475
0.00348939
0.0034544
0.00341978
0.00338554
0.00335167
0.00331817
0.00328504
0.00325227
0.00321988
0.00318786
0.00315619
0.00312489
0.00309394
0.00306336
0.00303312
0.00300323
0.00297369
0.00294449
0.00291563
0.00288711
0.00285891
0.00283105
0.00280351
0.00277628
0.00274937
0.00272277
0.00269646
0.00267045
0.00264472
0.00261925
0.00259404
0.00256905
0.00254427
0.00251966
0.00249518
0.00247079
0.0024464
0.00242195
0.00239732
0.00237252
0.00234702
0.0023142
1.54293e-06
0.000102154
0.00023205
0.000359019
0.000487668
0.000618915
0.000755422
0.000899106
0.0010517
0.00121374
0.00138573
0.00155171
0.00170351
0.00184383
0.00197545
0.00210033
0.00221984
0.0023349
0.00244617
0.00255416
0.00265925
0.00276173
0.00286188
0.00295989
0.00305619
0.00315105
0.00324473
0.0033374
0.00342921
0.00352026
0.00361063
0.00370036
0.00378947
0.00387794
0.00396574
0.00405282
0.00413911
0.00422454
0.00430901
0.00439242
0.00447467
0.00455565
0.00463524
0.00471333
0.0047898
0.00486455
0.00493746
0.00500843
0.00507736
0.00514415
0.00520871
0.00527095
0.00533081
0.0053882
0.00544307
0.00549536
0.00554502
0.005592
0.00563628
0.00567782
0.00571661
0.00575262
0.00578586
0.00581633
0.00584402
0.00586895
0.00589115
0.00591063
0.00592742
0.00594155
0.00595307
0.005962
0.00596841
0.00597233
0.00597382
0.00597295
0.00596979
0.00596436
0.00595673
0.00594698
0.00593517
0.00592137
0.00590565
0.00588808
0.00586872
0.00584767
0.00582497
0.00580071
0.00577497
0.0057478
0.00571928
0.00568947
0.00565846
0.0056263
0.00559306
0.00555881
0.00552362
0.00548754
0.00545065
0.005413
0.00537466
0.00533568
0.00529612
0.00525604
0.00521548
0.00517451
0.00513316
0.00509149
0.00504954
0.00500735
0.00496498
0.00492245
0.00487981
0.00483709
0.00479433
0.00475156
0.00470882
0.00466612
0.00462351
0.004581
0.00453862
0.00449639
0.00445434
0.00441249
0.00437085
0.00432943
0.00428827
0.00424736
0.00420673
0.00416639
0.00412634