/*--------------------------------*- C++ -*----------------------------------*\
  =========                 |
  \\      /  F ield         | OpenFOAM: The Open Source CFD Toolbox
   \\    /   O peration     | Website:  https://openfoam.org
    \\  /    A nd           | Version:  8
     \\/     M anipulation  |
\*---------------------------------------------------------------------------*/
FoamFile
{
    version     2.0;
    format      ascii;
    class       volVectorField;
    location    "2500";
    object      wallShearStress;
}
// * * * * * * * * * * * * * * * * * * * * * * * * * * * * * * * * * * * * * //

dimensions      [0 2 -2 0 0 0 0];

internalField   uniform (0 0 0);

boundaryField
{
    inlet
    {
        type            calculated;
        value           uniform (0 0 0);
    }
    outlet
    {
        type            calculated;
        value           uniform (0 0 0);
    }
    upperWall
    {
        type            calculated;
        value           nonuniform List<vector> 
223
(
(-0.582193 -0.392359 0)
(-0.977814 -0.219377 0)
(-0.939335 -0.0567746 0)
(-0.81071 -0.00585788 0)
(-0.734594 0.00331366 0)
(-0.695452 0.00231537 0)
(-0.67094 0.000424077 0)
(-0.653508 -0.00144908 0)
(-0.640533 -0.00256381 0)
(-0.629819 -0.00218245 0)
(-0.620063 -0.00131142 0)
(-0.610955 -0.00108355 0)
(-0.603068 -0.0014106 0)
(-0.596128 -0.0011389 0)
(-0.590229 -0.000828783 0)
(-0.585437 -0.000755769 0)
(-0.580234 0.000753738 0)
(-0.574816 0.00274898 0)
(-0.570787 0.00183733 0)
(-0.567966 0.00149053 4.2304e-22)
(-0.564783 0.00318185 0)
(-0.561363 0.00293714 0)
(-0.558327 0.00230469 0)
(-0.555556 0.0022221 4.46149e-22)
(-0.552844 0.00233298 0)
(-0.550125 0.00330497 0)
(-0.547032 0.00386686 0)
(-0.544025 0.0035881 -9.37892e-22)
(-0.541248 0.00309879 9.47537e-22)
(-0.538553 0.00299717 9.58443e-22)
(-0.535798 0.00267235 0)
(-0.53314 0.00233829 -9.79383e-22)
(-0.530509 0.00205428 0)
(-0.527888 0.00182855 1.00235e-21)
(-0.525259 0.00163858 1.01437e-21)
(-0.522619 0.00149386 -1.02689e-21)
(-0.519957 0.00137764 0)
(-0.51728 0.00128591 0)
(-0.51458 0.00121516 0)
(-0.511856 0.00116086 0)
(-0.509104 0.00111962 -1.0913e-21)
(-0.506322 0.00108885 0)
(-0.503507 0.00106668 0)
(-0.500656 0.00105157 1.13128e-21)
(-0.497766 0.00104227 0)
(-0.494835 0.00103784 1.15768e-21)
(-0.491859 0.00103759 -1.17064e-21)
(-0.488835 0.00104067 1.18337e-21)
(-0.485759 0.00104659 0)
(-0.48263 0.0010541 0)
(-0.479445 0.00106248 0)
(-0.476207 0.00107046 1.23082e-21)
(-0.472922 0.00107691 -1.24148e-21)
(-0.469601 0.00108213 0)
(-0.466258 0.00108708 0)
(-0.462909 0.00109218 0)
(-0.459565 0.00109667 0)
(-0.456231 0.00109933 0)
(-0.452907 0.00109938 0)
(-0.449589 0.00109692 0)
(-0.44627 0.00109261 0)
(-0.442938 0.00108746 1.292e-21)
(-0.439583 0.0010826 -1.29178e-21)
(-0.436194 0.00107892 0)
(-0.432761 0.00107704 0)
(-0.429271 0.0010772 0)
(-0.425716 0.00107946 -1.27839e-21)
(-0.422089 0.00108364 0)
(-0.418381 0.00108949 0)
(-0.414588 0.00109663 0)
(-0.410705 0.00110471 0)
(-0.406728 0.00111325 0)
(-0.402656 0.00112169 -2.43439e-21)
(-0.398487 0.00112954 0)
(-0.394224 0.00113619 0)
(-0.389869 0.00114128 0)
(-0.385427 0.00114445 0)
(-0.380908 0.00114563 0)
(-0.376323 0.00114471 0)
(-0.371683 0.00114134 0)
(-0.367002 0.00113535 2.09529e-21)
(-0.362289 0.00112659 0)
(-0.357552 0.00111502 0)
(-0.352796 0.00110108 0)
(-0.348023 0.0010853 -1.8396e-21)
(-0.343232 0.00106815 0)
(-0.338423 0.00105028 -1.69015e-21)
(-0.333591 0.00103238 0)
(-0.328732 0.00101533 0)
(-0.323838 0.000999844 0)
(-0.319025 0.00099202 -1.35092e-21)
(-0.316385 0.00100113 0)
(-0.313661 0.00101502 1.18042e-21)
(-0.310856 0.00102969 1.08972e-21)
(-0.307976 0.00104288 0)
(-0.305031 0.00105377 8.96e-22)
(-0.302034 0.00106258 0)
(-0.298997 0.00106973 0)
(-0.295936 0.00107735 0)
(-0.292864 0.00108367 -4.54494e-22)
(-0.289794 0.00109547 0)
(-0.286743 0.00109852 -2.04998e-22)
(-0.283716 0.00110891 7.29667e-23)
(-0.280732 0.00111272 0)
(-0.277792 0.00111503 0)
(-0.274911 0.00112491 0)
(-0.272091 0.00107296 0)
(-0.269333 0.00097585 0)
(-0.266662 0.00100906 0)
(-0.264113 0.00110962 0)
(-0.261692 0.0010237 1.14664e-21)
(-0.259278 0.0012786 0)
(-0.257066 0.00143888 0)
(-0.254909 0.000830551 0)
(-0.252642 0.000532767 0)
(-0.250619 0.000742358 0)
(-0.248655 0.00125172 0)
(-0.246745 0.00142742 0)
(-0.245021 0.00118701 0)
(-0.243231 0.00112715 0)
(-0.241665 0.00109262 0)
(-0.239873 0.000886528 0)
(-0.23823 0.00040159 0)
(-0.236178 0.000586094 7.18967e-21)
(-0.234486 0.00107367 0)
(-0.232785 0.000520861 0)
(-0.230742 -9.70793e-05 0)
(-0.228628 -3.78894e-06 -8.90164e-21)
(-0.22704 0.000103477 0)
(-0.225495 0.000235602 0)
(-0.223822 0.000453667 -1.01268e-20)
(-0.222642 0.00056443 0)
(-0.221529 0.000530202 1.08898e-20)
(-0.220075 0.000450417 0)
(-0.21868 0.000451664 0)
(-0.217362 0.000444514 0)
(-0.216178 0.000420445 -1.25903e-20)
(-0.215225 0.000422921 0)
(-0.21408 0.000391872 1.3426e-20)
(-0.213136 0.000408471 0)
(-0.211924 0.000585427 0)
(-0.210657 0.00052826 0)
(-0.209728 0.000801311 0)
(-0.208852 0.00109749 0)
(-0.208144 0.000783949 0)
(-0.207358 0.000837882 0)
(-0.206513 0.000841189 0)
(-0.2059 0.000462382 0)
(-0.205365 0.000530404 0)
(-0.20444 0.000675254 0)
(-0.203862 0.000261823 1.83418e-20)
(-0.203056 0.000267007 -1.88437e-20)
(-0.202406 0.000536498 0)
(-0.201723 -2.95968e-05 0)
(-0.20032 -0.000495016 0)
(-0.19946 -0.000270027 0)
(-0.199175 -6.77756e-05 -2.09351e-20)
(-0.198471 5.98737e-05 2.14202e-20)
(-0.197894 5.91711e-05 -2.1806e-20)
(-0.197333 8.30398e-05 0)
(-0.196968 0.000244136 -2.25789e-20)
(-0.196575 0.000366163 -4.59759e-20)
(-0.196036 0.000461763 0)
(-0.195404 0.000521802 -4.76665e-20)
(-0.19477 0.000700445 4.85227e-20)
(-0.194853 0.000718604 0)
(-0.195052 0.00058991 0)
(-0.194542 4.29097e-05 0)
(-0.193614 -0.000405028 0)
(-0.192856 -0.000123709 0)
(-0.192366 7.80695e-06 -5.36232e-20)
(-0.191902 5.19125e-05 0)
(-0.191676 5.83993e-05 -5.51792e-20)
(-0.191593 0.000217573 0)
(-0.19077 0.000344002 0)
(-0.190157 0.000544055 0)
(-0.189449 0.000739485 0)
(-0.189097 0.000551221 0)
(-0.188605 0.000416403 6.08091e-20)
(-0.188475 0.000366041 0)
(-0.188119 0.000453829 0)
(-0.187747 0.000516406 -6.34801e-20)
(-0.186874 0.000309467 0)
(-0.186164 0.000333515 0)
(-0.185183 0.000412794 0)
(-0.184361 0.000270001 6.84039e-20)
(-0.183198 0.000347367 0)
(-0.182045 0.000434936 0)
(-0.180154 0.00041053 0)
(-0.178775 0.000449153 0)
(-0.176436 0.000487455 -7.68846e-20)
(-0.174125 0.000613058 0)
(-0.171556 0.000703864 0)
(-0.167736 0.000785308 0)
(-0.163007 0.00105084 8.79689e-20)
(-0.155615 0.001348 0)
(-0.14926 0.00220156 0)
(-0.124453 0.00219337 -1.07309e-19)
(-0.141897 0.00666381 -6.01853e-36)
(-0.169851 0.0131503 1.25412e-17)
(-0.187329 0.0170576 2.35055e-17)
(-0.193402 0.0188465 2.27511e-17)
(-0.197184 0.0196797 2.1924e-17)
(-0.201037 0.020305 2.11802e-17)
(-0.205453 0.0210024 -2.02397e-17)
(-0.209645 0.0215122 -1.95283e-17)
(-0.213827 0.0218651 -6.01853e-36)
(-0.21806 0.0220126 -3.6663e-17)
(-0.220202 0.0221782 -1.80769e-17)
(-0.224675 0.0227189 8.1852e-34)
(-0.227502 0.0229032 -1.20371e-35)
(-0.231046 0.023363 -3.22797e-17)
(-0.235332 0.0239349 -3.06863e-17)
(-0.242332 0.0247785 -2.84664e-17)
(-0.249512 0.0254441 -2.40741e-35)
(-0.256854 0.0260673 4.94051e-17)
(-0.263905 0.0266471 2.26467e-17)
(-0.272747 0.0274459 2.40741e-35)
(-0.282653 0.0283568 -3.48626e-17)
(-0.291212 0.028999 -1.58064e-20)
(-0.300878 0.0295775 0)
(-0.304433 0.0304163 1.34854e-17)
(-0.332559 0.0321493 -7.62911e-18)
)
;
    }
    lowerWall
    {
        type            calculated;
        value           nonuniform List<vector> 
250
(
(-0.653909 0.466638 0)
(-1.14095 0.204678 0)
(-1.03492 0.0379587 0)
(-0.869573 -0.000935979 0)
(-0.786941 -0.00419162 0)
(-0.746063 -0.00160782 0)
(-0.719878 0.000416171 0)
(-0.700645 -0.000651803 0)
(-0.685088 -0.00405594 0)
(-0.671318 -0.00471223 0)
(-0.658932 -0.00298824 0)
(-0.64772 -0.000864289 0)
(-0.637516 0.00142601 0)
(-0.628189 0.00210384 0)
(-0.619321 0.00136788 0)
(-0.611521 0.0013575 0)
(-0.604581 0.00169584 0)
(-0.605069 0.0019432 0)
(-0.0042604 -0.0228575 0)
(-0.0027588 -0.0176422 0)
(-0.000676809 -0.014493 0)
(0.00194474 -0.0137776 9.02202e-20)
(0.0052692 -0.0151982 -7.86138e-20)
(0.00896196 -0.0208214 6.28453e-20)
(0.0127404 -0.0200865 -4.84706e-20)
(0.0256279 -0.0633159 0)
(-0.0840657 -0.144715 0)
(0.000872465 -0.00384055 0)
(-0.00766538 0.00954692 0)
(-0.00851612 0.0328216 0)
(-0.00254942 0.0448554 0)
(0.00295334 0.0442615 1.82214e-20)
(0.0061827 0.0360631 -1.89649e-20)
(0.00818717 0.024161 0)
(0.00946051 0.0101606 -5.42262e-20)
(0.00943163 -0.00404251 6.11398e-20)
(0.00793324 -0.0174225 0)
(0.00614115 -0.029195 0)
(0.00438165 -0.0385625 0)
(0.00268711 -0.0451398 0)
(0.000985926 -0.0488793 0)
(-0.000885238 -0.0495145 0)
(-0.00282061 -0.046408 0)
(-0.00437909 -0.0399025 0)
(-0.00492623 -0.0308265 0)
(0.00132863 -0.00151213 0)
(0.00133799 0.00652727 0)
(-0.00450925 0.00961866 0)
(-0.00959723 0.00975651 0)
(-0.0133832 0.00829949 0)
(-0.0158894 0.00623518 0)
(-0.0172643 0.00409758 1.49567e-21)
(-0.017783 0.00200605 -1.52728e-21)
(-0.0173315 -7.09279e-06 0)
(-0.0160538 -0.00168635 -1.65302e-21)
(-0.0141884 -0.00283763 0)
(-0.0120503 -0.00329651 0)
(-0.0100506 -0.00303589 -0)
(-0.00855302 -0.00228026 2.5702e-21)
(-0.00761639 -0.00142302 0)
(-0.00693814 -0.00081583 0)
(-0.00612064 -0.000623412 -3.37801e-21)
(-0.00499301 -0.00100045 0)
(-0.0034086 -0.00238588 0)
(-0.000488761 -0.00505748 0)
(0.00436055 -0.0074036 3.03301e-21)
(0.00994552 -0.00889513 0)
(0.0158466 -0.00984996 1.46909e-21)
(0.0218919 -0.0106169 0)
(0.0280977 -0.0112689 -0)
(0.0344081 -0.0115143 8.44672e-22)
(0.0405407 -0.0113547 0)
(0.0491485 -0.0116033 -7.54017e-22)
(0.0589386 -0.0117553 -0)
(0.0686327 -0.0115827 7.70682e-22)
(0.0780416 -0.0111689 0)
(0.0870146 -0.010584 0)
(0.0954589 -0.00989005 0)
(0.103317 -0.00913657 -0)
(0.110563 -0.00836067 0)
(0.117196 -0.00758957 -8.11136e-22)
(0.12323 -0.00684043 -0)
(0.128686 -0.00612263 1.63305e-21)
(0.133591 -0.00544037 0)
(0.137973 -0.00479415 -1.63493e-21)
(0.141859 -0.00418207 -0)
(0.145271 -0.0036014 -0)
(0.148232 -0.00304948 1.62102e-21)
(0.150757 -0.00252409 0)
(0.152863 -0.0020241 1.6008e-21)
(0.154561 -0.00155028 -1.58749e-21)
(0.155863 -0.00110631 -0)
(0.156781 -0.000698879 -1.55487e-21)
(0.157328 -0.000337788 -1.53584e-21)
(0.157513 -3.97541e-05 -0)
(0.157408 0.000194727 0)
(0.157076 0.000391518 0)
(0.156522 0.000568232 0)
(0.155761 0.00073107 -0)
(0.1548 0.000884266 1.37578e-21)
(0.153648 0.00102839 0)
(0.152312 0.00116401 -1.307e-21)
(0.150799 0.00129167 -0)
(0.149116 0.00141127 -0)
(0.147271 0.0015229 1.19055e-21)
(0.145272 0.0016265 0)
(0.143126 0.00172195 -1.10485e-21)
(0.140842 0.00180932 -0)
(0.138429 0.00188868 0)
(0.135895 0.00195996 -0)
(0.133249 0.00202319 9.16823e-22)
(0.130501 0.00207855 0)
(0.127659 0.00212611 -0)
(0.124733 0.00216601 7.63782e-22)
(0.121732 0.00219851 0)
(0.118665 0.00222377 6.57251e-22)
(0.115541 0.00224203 0)
(0.11237 0.00225348 0)
(0.109159 0.00225835 0)
(0.105919 0.00225711 -4.36171e-22)
(0.102656 0.00224996 -0)
(0.0993795 0.00223719 0)
(0.0960967 0.00221917 -2.65571e-22)
(0.0928155 0.00219621 -2.08123e-22)
(0.0895426 0.00216869 -0)
(0.0862852 0.00213694 -9.26591e-23)
(0.0830494 0.00210143 -0)
(0.0798408 0.0020624 4.65884e-23)
(0.0766657 0.00202023 -0)
(0.073529 0.00197549 2.79001e-22)
(0.070435 0.00192861 0)
(0.0673882 0.00188012 -5.11682e-22)
(0.0643924 0.00183078 -0)
(0.0614509 0.00178159 0)
(0.0585662 0.00173378 -0)
(0.0557405 0.00168919 9.78439e-22)
(0.0529745 0.00164991 0)
(0.0502693 0.0016181 -1.21388e-21)
(0.0476231 0.00159483 0)
(0.0457845 0.00160346 1.47563e-21)
(0.0442421 0.00162103 1.63413e-21)
(0.0427031 0.00162594 1.79905e-21)
(0.0411757 0.00161304 0)
(0.0396654 0.00158972 0)
(0.0381717 0.00156405 0)
(0.0366935 0.00153824 0)
(0.0352306 0.00151253 0)
(0.0337835 0.00148693 0)
(0.0323525 0.00146144 0)
(0.0309385 0.00143622 0)
(0.0295414 0.0014114 -3.69177e-21)
(0.0281622 0.00138718 -3.96739e-21)
(0.0268005 0.00136377 0)
(0.0254567 0.00134078 0)
(0.0241312 0.00131675 0)
(0.0228253 0.00129184 -5.2673e-21)
(0.0215392 0.00126764 0)
(0.0202724 0.00124398 0)
(0.0190255 0.00122089 0)
(0.0177982 0.00119847 0)
(0.0165906 0.00117674 7.5358e-21)
(0.0154027 0.00115578 0)
(0.0142345 0.0011357 0)
(0.013086 0.00111657 -9.45451e-21)
(0.0119569 0.00109846 1.0232e-20)
(0.0108474 0.00108145 0)
(0.0097572 0.00106582 1.20682e-20)
(0.00868639 0.00105222 0)
(0.00763452 0.00104184 -1.44065e-20)
(0.00660096 0.00103494 0)
(0.00558532 0.00103054 0)
(0.00458761 0.00102831 0)
(0.00360736 0.0010286 0)
(0.00264413 0.00103162 0)
(0.00169839 0.00103734 5.57074e-20)
(0.000771632 0.00104292 6.42172e-20)
(-0.000138171 0.00103021 0)
(-0.00103544 0.000987389 0)
(-0.00191724 0.000934997 0)
(-0.00278354 0.000885503 -5.28913e-20)
(-0.00363423 0.000840585 0)
(-0.00446912 0.000799838 0)
(-0.00528859 0.000762778 0)
(-0.00609322 0.000728904 -4.04171e-20)
(-0.00688358 0.000697759 3.83669e-20)
(-0.00766012 0.000668968 0)
(-0.00842337 0.000642226 0)
(-0.00917374 0.000617285 3.3619e-20)
(-0.00991171 0.000593944 3.23788e-20)
(-0.0106377 0.000572042 0)
(-0.011352 0.000551446 0)
(-0.0120553 0.000532036 -2.93534e-20)
(-0.0127478 0.000513718 2.85256e-20)
(-0.01343 0.000496413 0)
(-0.0141024 0.000480048 0)
(-0.0147653 0.00046456 2.64357e-20)
(-0.0154192 0.000449903 0)
(-0.0160645 0.000436029 0)
(-0.0167017 0.000422897 2.47902e-20)
(-0.0173313 0.000410465 0)
(-0.0179537 0.0003987 2.38741e-20)
(-0.0185693 0.000387576 0)
(-0.0191787 0.000377063 0)
(-0.0197823 0.000367125 0)
(-0.0203805 0.000357729 -2.23583e-20)
(-0.0209738 0.00034885 0)
(-0.0215627 0.000340454 0)
(-0.0221475 0.000332462 0)
(-0.0227284 0.0003248 0)
(-0.0233056 0.000317443 0)
(-0.0238794 0.000310255 0)
(-0.0244495 0.000303078 -2.0385e-20)
(-0.0250157 0.000295701 -2.01546e-20)
(-0.0255768 0.000287864 0)
(-0.0261316 0.000279201 0)
(-0.0266778 0.00026917 0)
(-0.0272122 0.000257037 1.93599e-20)
(-0.0277296 0.000241547 0)
(-0.0282213 0.000221324 -3.81337e-20)
(-0.0286785 0.000192273 3.79275e-20)
(-0.0290714 0.000152632 3.78184e-20)
(-0.0294027 7.78974e-05 -3.7857e-20)
(-0.0294844 -3.93968e-05 3.80441e-20)
(-0.0295089 -0.000356574 -3.83965e-20)
(-0.0279743 -0.000616893 0)
(-0.029347 -0.000516252 -2.43311e-18)
(-0.0327706 -0.00134248 -2.2697e-18)
(-0.0364143 -0.00203345 -3.00927e-36)
(-0.0395352 -0.00257616 -4.06076e-18)
(-0.0424852 -0.00301869 -7.75758e-18)
(-0.0455574 -0.00342197 -3.71951e-18)
(-0.0487802 -0.00381936 3.56792e-18)
(-0.0521103 -0.0042959 -1.20371e-35)
(-0.0556093 -0.00469585 6.01853e-36)
(-0.0593031 -0.00509857 3.15146e-18)
(-0.0632348 -0.00549793 3.0206e-18)
(-0.0674402 -0.00580085 6.01853e-36)
(-0.0719241 -0.00621476 0)
(-0.076733 -0.00669023 0)
(-0.0819203 -0.00719507 8.99018e-35)
(-0.0875383 -0.00774364 -5.33204e-35)
(-0.0936561 -0.00834718 1.6551e-34)
(-0.100326 -0.00901176 -4.15823e-18)
(-0.10769 -0.00973295 -3.81226e-18)
(-0.11675 -0.0106257 6.01853e-36)
(-0.127567 -0.011629 6.1366e-18)
(-0.138423 -0.0127356 1.0349e-17)
(-0.153648 -0.0139286 6.01853e-36)
(-0.162848 -0.0152954 -5.09786e-18)
(-0.191963 -0.0169831 -3.00927e-36)
)
;
    }
    frontAndBack
    {
        type            empty;
    }
}


// ************************************************************************* //
