/*--------------------------------*- C++ -*----------------------------------*\
| =========                 |                                                 |
| \\      /  F ield         | OpenFOAM: The Open Source CFD Toolbox           |
|  \\    /   O peration     | Version:  v2012                                 |
|   \\  /    A nd           | Website:  www.openfoam.com                      |
|    \\/     M anipulation  |                                                 |
\*---------------------------------------------------------------------------*/
FoamFile
{
    version     2.0;
    format      ascii;
    class       volScalarField;
    location    "800";
    object      nut;
}
// * * * * * * * * * * * * * * * * * * * * * * * * * * * * * * * * * * * * * //

dimensions      [0 2 -1 0 0 0 0];


internalField   nonuniform List<scalar> 
12225
(
0.0122671
0.00158819
0.000666128
0.000410104
0.00029404
0.000227807
0.000186456
0.000144077
0.000166153
0.000217143
0.000227643
0.000219693
0.000203044
0.000174766
0.000172456
0.000146746
0.000131566
0.000117427
0.0323823
0.00744532
0.00330638
0.00204329
0.00146802
0.00114434
0.00093836
0.000784915
0.000692022
0.000629559
0.000572536
0.000522262
0.000478724
0.000440794
0.000406444
0.00037256
0.000347996
0.00032126
0.0490123
0.01515
0.00728196
0.00457855
0.00330639
0.00258051
0.00211294
0.00178254
0.00154803
0.00137317
0.00123166
0.00111548
0.00101874
0.000937142
0.000866816
0.000804339
0.00075417
0.000700375
0.063054
0.0237783
0.0122894
0.00788815
0.00573398
0.00448499
0.00367425
0.00310474
0.00268773
0.00236963
0.00211695
0.00191202
0.00174297
0.00160148
0.00148153
0.00137793
0.00129066
0.0012037
0.074932
0.0328517
0.0181452
0.0119262
0.00874549
0.00686413
0.00563082
0.00476161
0.00411883
0.00362518
0.00323413
0.00291754
0.0026568
0.002439
0.00225495
0.00209751
0.00196269
0.00183913
0.0849536
0.0420208
0.0246655
0.0166359
0.0123325
0.00972588
0.0079954
0.00676755
0.00585403
0.00514963
0.00459119
0.00413898
0.00376656
0.00345556
0.00319278
0.00296845
0.00277562
0.00260614
0.0933822
0.0510219
0.0316642
0.0219415
0.016474
0.0130717
0.0107779
0.00913545
0.00790595
0.00695412
0.00619792
0.00558484
0.0050796
0.00465755
0.00430094
0.00399666
0.00373505
0.00350891
0.0993794
0.0583363
0.0378386
0.0268568
0.0204171
0.0163053
0.0134892
0.011453
0.00991903
0.00872657
0.00777674
0.00700543
0.00636916
0.00583736
0.00538792
0.00500448
0.004675
0.00439172
0.104023
0.0645454
0.0433804
0.0314239
0.0241571
0.0194092
0.0161097
0.0137018
0.0118767
0.0104522
0.00931462
0.00838926
0.0076251
0.00698602
0.00644574
0.00598481
0.00558892
0.00524912
0.108368
0.0708939
0.0493757
0.0365497
0.0284517
0.0230231
0.0191863
0.0163548
0.0141927
0.0124969
0.0111381
0.0100305
0.00911451
0.00834779
0.00769932
0.00714604
0.00667096
0.00626328
0.112368
0.0772557
0.0557282
0.0421918
0.0332976
0.0271652
0.0227468
0.0194433
0.0168984
0.0148904
0.013275
0.0119546
0.0108606
0.00994395
0.00916815
0.00850607
0.0079376
0.00744942
0.115994
0.0834976
0.0623054
0.0482612
0.0386474
0.0318167
0.026789
0.0229739
0.0200047
0.0176453
0.0157379
0.0141737
0.012875
0.0117851
0.010862
0.0100738
0.00939692
0.00881487
0.119234
0.0894856
0.0689377
0.0546109
0.0443919
0.0369007
0.0312597
0.0269089
0.0234837
0.02074
0.0185097
0.0166735
0.015145
0.0138601
0.0127706
0.0118397
0.0110399
0.010351
0.122086
0.095084
0.075415
0.0610223
0.0503361
0.0422535
0.0360231
0.0311353
0.0272402
0.0240931
0.0215191
0.0193909
0.0176141
0.0161175
0.0148467
0.0137602
0.0128258
0.0120198
0.124546
0.100135
0.0814619
0.0671726
0.056158
0.047577
0.0408126
0.0354174
0.031066
0.0275197
0.0246013
0.0221778
0.0201482
0.018435
0.0169783
0.0157315
0.0146584
0.0137312
0.126578
0.104396
0.0866605
0.0725515
0.0613228
0.0523526
0.0451453
0.0393148
0.0345631
0.0306611
0.0274325
0.024741
0.0224806
0.020569
0.0189413
0.0175468
0.0163455
0.0153062
0.128011
0.107322
0.0902141
0.0762353
0.0648743
0.0556509
0.0481493
0.0420254
0.0370012
0.0328553
0.0294126
0.0265352
0.0241143
0.0220643
0.0203171
0.0188191
0.0175275
0.0164083
0.128006
0.107313
0.0902048
0.0762269
0.0648674
0.0556454
0.048145
0.0420221
0.0369988
0.0328536
0.0294117
0.0265349
0.0241147
0.0220651
0.0203184
0.0188205
0.0175286
0.0164082
0.126509
0.104255
0.0864922
0.0723807
0.0611613
0.052205
0.0450127
0.0391967
0.0344584
0.0305685
0.0273506
0.0246684
0.0224163
0.0205118
0.0188902
0.0175005
0.0163022
0.015263
0.124267
0.0995604
0.0807712
0.0664676
0.0554886
0.0469631
0.0402594
0.0349227
0.0306248
0.0271258
0.0242487
0.0218611
0.0198625
0.0181761
0.0167425
0.0155151
0.0144574
0.0135404
0.12136
0.0936399
0.0737261
0.0593348
0.0487592
0.0408248
0.0347466
0.0300003
0.0262308
0.0231927
0.0207126
0.018665
0.0169571
0.0155197
0.0142998
0.0132566
0.0123582
0.0115796
0.117686
0.0865903
0.0656967
0.0514791
0.0415374
0.0343608
0.0290183
0.0249322
0.0217348
0.0191848
0.0171183
0.015421
0.0140105
0.0128262
0.0118228
0.0109655
0.0102278
0.00958882
0.11305
0.0784122
0.056921
0.0432687
0.0342296
0.0279652
0.0234365
0.0200435
0.0174263
0.0153597
0.0136965
0.0123369
0.0112106
0.010267
0.00946856
0.00878709
0.00820091
0.00769334
0.107169
0.0691009
0.0476372
0.035029
0.0271566
0.021922
0.0182437
0.0155401
0.0134817
0.0118705
0.0105815
0.00953192
0.0086648
0.00793959
0.0073266
0.0068037
0.00635404
0.00596484
0.0996761
0.0587036
0.0381279
0.0270699
0.0205782
0.0164329
0.0135949
0.0115437
0.0099992
0.00879904
0.00784337
0.0070675
0.00642784
0.00589352
0.0054422
0.00505728
0.00472636
0.00443998
0.0901097
0.0473665
0.0287363
0.0196847
0.0146976
0.0116311
0.00957851
0.00811522
0.00702329
0.00617983
0.00551046
0.00496782
0.00452104
0.00414808
0.00383319
0.00356442
0.00333364
0.00313357
0.0779076
0.0353826
0.0198606
0.0131383
0.00966106
0.00759297
0.0062335
0.00527419
0.00456397
0.00401866
0.00358681
0.00323592
0.00294708
0.00270579
0.00250229
0.00232748
0.00217872
0.002048
0.06238
0.0232554
0.0119461
0.00765493
0.00556337
0.00435255
0.0035672
0.00301635
0.00261303
0.00230787
0.00206645
0.00186695
0.00170225
0.00156383
0.00144776
0.00134448
0.00126101
0.00118158
0.0426105
0.0117794
0.0054693
0.00341385
0.00246071
0.00192005
0.00157262
0.00132968
0.00115817
0.00103901
0.000944234
0.000857675
0.000785084
0.000721496
0.0006681
0.000612569
0.000582023
0.000534306
0.0168348
0.00255985
0.00110002
0.000683429
0.000493725
0.000386816
0.00031797
0.000268535
0.000268147
0.000338384
0.000383752
0.00037096
0.000342971
0.000306931
0.000287491
0.000225731
0.000300384
0.000257024
5.63296e-10
1.15509e-07
1.21233e-06
5.27649e-06
9.76406e-06
1.2543e-05
1.29993e-05
1.0979e-05
8.69267e-06
5.68126e-06
3.34194e-06
1.8993e-06
1.33641e-06
1.47662e-06
2.00687e-06
2.49627e-06
2.43763e-06
1.66769e-06
8.34448e-07
4.50108e-07
5.247e-07
1.34711e-06
5.82237e-06
2.84504e-05
5.71852e-05
7.50576e-05
9.14066e-05
0.000105212
0.00011734
0.000127454
0.000136308
0.000143919
0.000150579
0.000156378
0.00016144
0.000165908
0.000169868
0.000173407
0.000176579
0.00017943
0.000181987
0.000184274
0.000186309
0.000188107
0.000189684
0.000191051
0.00019222
0.000193196
0.00019398
0.000194571
0.000194815
0.000195071
0.000195117
0.000194989
0.00019469
0.000194242
0.000193642
0.000192894
0.000191999
0.00019096
0.000189778
0.000188455
0.000186994
0.000185397
0.000183668
0.000181808
0.000179817
0.000177699
0.000175457
0.000173093
0.00017061
0.00016801
0.000165295
0.000162468
0.00015953
0.000156484
0.000153328
0.000150062
0.000146684
0.000143189
0.000139573
0.00013583
0.000131954
0.000127938
0.000123774
0.000119454
0.000114966
0.000110296
0.000105426
0.000100336
9.50003e-05
8.93974e-05
8.35215e-05
7.74402e-05
7.14315e-05
6.61705e-05
6.24439e-05
6.01213e-05
5.83742e-05
5.67695e-05
5.51935e-05
5.36252e-05
5.20632e-05
5.0509e-05
4.89645e-05
4.74318e-05
4.59135e-05
4.44159e-05
4.29677e-05
4.17353e-05
4.05311e-05
3.93417e-05
3.81695e-05
3.70152e-05
3.58797e-05
3.47638e-05
3.36683e-05
3.25938e-05
3.15411e-05
3.05104e-05
2.95023e-05
2.85172e-05
2.75555e-05
2.66178e-05
2.57042e-05
2.48145e-05
2.39499e-05
2.31404e-05
2.24063e-05
2.16909e-05
2.09904e-05
2.0314e-05
1.96656e-05
1.90306e-05
1.84097e-05
1.78059e-05
1.72202e-05
1.66527e-05
1.61032e-05
1.55713e-05
1.50567e-05
1.45588e-05
1.40773e-05
1.36117e-05
1.31617e-05
1.27268e-05
1.23067e-05
1.1901e-05
1.15093e-05
1.11311e-05
1.07662e-05
1.04143e-05
1.00748e-05
9.74764e-06
9.4324e-06
9.12876e-06
8.83652e-06
8.55537e-06
8.28513e-06
8.02555e-06
7.77648e-06
7.53771e-06
7.30909e-06
7.09044e-06
6.88153e-06
6.68214e-06
6.49192e-06
6.31046e-06
6.13717e-06
5.97143e-06
5.81202e-06
5.65859e-06
5.50702e-06
5.36276e-06
5.20175e-06
5.07625e-06
4.83746e-06
4.74555e-06
4.27592e-06
3.70487e-06
3.42042e-09
6.39244e-06
6.36368e-05
0.000139877
0.000183127
0.000206624
0.000215774
0.000214131
0.000205591
0.000188729
0.000167842
0.000147805
0.000137841
0.000143492
0.000157567
0.000166375
0.000168988
0.000170564
0.00017643
0.000185959
0.000200878
0.000218379
0.000235079
0.000251206
0.000262453
0.000272262
0.000281095
0.000294303
0.000313179
0.000327082
0.000339752
0.000350635
0.000360535
0.000369588
0.000377461
0.000384651
0.00039135
0.000397781
0.000404072
0.000410287
0.000416422
0.000422434
0.000428269
0.000433887
0.000439261
0.000444373
0.000449208
0.000453754
0.000458013
0.000461996
0.000465691
0.00046915
0.000472341
0.000475282
0.000477971
0.000480412
0.000482604
0.000484548
0.000486245
0.000487694
0.000488897
0.000489855
0.00049057
0.000491046
0.000491293
0.000491318
0.000491112
0.000490675
0.000490021
0.000489154
0.000488082
0.000486809
0.000485344
0.000483693
0.000481862
0.00047986
0.000477695
0.000475372
0.0004729
0.000470286
0.000467537
0.000464661
0.000461666
0.000458558
0.000455348
0.000452042
0.00044865
0.000445179
0.000441638
0.000438035
0.000434377
0.00043067
0.000426915
0.000423103
0.000419214
0.000415222
0.000411111
0.000406909
0.000402668
0.000398412
0.000394147
0.000389878
0.000385608
0.00038134
0.000377079
0.000372828
0.000368589
0.000364364
0.000360154
0.000355955
0.00035178
0.000347633
0.000343515
0.000339428
0.000335374
0.000331355
0.000327372
0.000323426
0.00031952
0.000315653
0.000311827
0.000308043
0.000304302
0.000300605
0.000296954
0.000293346
0.000289783
0.000286263
0.000282785
0.000279352
0.000275962
0.000272624
0.000269339
0.000266089
0.000262875
0.000259702
0.000256574
0.00025349
0.000250451
0.000247457
0.000244507
0.0002416
0.000238736
0.000235915
0.000233135
0.000230396
0.000227698
0.00022504
0.000222423
0.000219844
0.000217305
0.000214804
0.000212342
0.000209919
0.000207534
0.000205188
0.000202881
0.000200615
0.000198389
0.000196205
0.000194064
0.000191967
0.000189918
0.000187916
0.000185965
0.000184065
0.000182218
0.000180425
0.000178683
0.000176992
0.000175348
0.00017375
0.000172172
0.000170668
0.000169037
0.000167791
0.000165477
0.000165158
0.000161818
0.000160837
7.69657e-08
3.94645e-05
0.000163117
0.000245998
0.000299201
0.000329279
0.000340076
0.000337015
0.000324007
0.000304677
0.00028502
0.000272698
0.000270808
0.000277828
0.000288371
0.000299375
0.000312378
0.000329557
0.000351313
0.000376498
0.000403794
0.00043205
0.000471369
0.000517562
0.000563142
0.000607218
0.00065027
0.000693914
0.000732958
0.000764017
0.000788841
0.000808526
0.000824135
0.000836526
0.000846478
0.000854761
0.000862073
0.000869054
0.000876237
0.000883973
0.000892366
0.00090129
0.000910505
0.000919777
0.00092893
0.000937843
0.000946442
0.000954679
0.000962517
0.00096993
0.000976887
0.000983373
0.000989373
0.000994886
0.000999908
0.00100444
0.00100848
0.00101202
0.00101508
0.00101764
0.0010197
0.00102128
0.00102236
0.0010229
0.00102306
0.00102277
0.00102198
0.00102073
0.00101904
0.00101692
0.00101438
0.00101144
0.0010081
0.00100438
0.0010003
0.000995865
0.000991097
0.000986008
0.000980613
0.000974928
0.000968967
0.000962745
0.000956277
0.00094958
0.000942667
0.000935554
0.000928255
0.000920785
0.000913157
0.000905385
0.000897481
0.000889455
0.000881319
0.000873079
0.000864743
0.000856322
0.000847828
0.000839277
0.000830684
0.000822064
0.000813428
0.000804783
0.000796138
0.0007875
0.000778877
0.000770277
0.000761704
0.000753165
0.000744666
0.000736212
0.00072781
0.000719463
0.000711178
0.000702957
0.000694805
0.000686725
0.000678719
0.000670792
0.000662945
0.000655181
0.000647501
0.000639909
0.000632404
0.00062499
0.000617668
0.000610438
0.000603299
0.000596254
0.000589302
0.000582445
0.000575682
0.000569014
0.00056244
0.000555952
0.00054955
0.000543237
0.000537015
0.000530885
0.000524845
0.000518897
0.000513038
0.000507268
0.000501586
0.000495991
0.000490482
0.000485058
0.000479717
0.000474458
0.000469281
0.000464184
0.000459166
0.000454226
0.000449363
0.000444576
0.000439863
0.000435223
0.000430656
0.000426161
0.000421735
0.000417379
0.000413089
0.000408866
0.000404706
0.000400608
0.000396569
0.000392586
0.000388655
0.000384771
0.000380926
0.000377113
0.000373319
0.00036953
0.000365721
0.000361874
0.000357916
0.000353875
0.000349393
0.00034503
0.000338461
0.0003271
6.1305e-07
8.20308e-05
0.000212829
0.000308758
0.00037226
0.000409367
0.000424665
0.000424893
0.000414818
0.000401523
0.000393727
0.00039319
0.000402817
0.000420318
0.000443291
0.000471232
0.000504733
0.000544112
0.000588574
0.000652397
0.000726501
0.000806514
0.00089036
0.000960602
0.00102275
0.00107863
0.00112883
0.00117353
0.0012126
0.00124632
0.00127543
0.00130066
0.0013227
0.00134218
0.00135968
0.00137568
0.00139058
0.00140474
0.00141839
0.00143174
0.00144491
0.00145795
0.00147091
0.00148376
0.00149646
0.00150891
0.00152104
0.00153274
0.00154393
0.00155452
0.00156447
0.00157374
0.00158231
0.00159017
0.0015973
0.00160371
0.00160938
0.00161431
0.00161851
0.00162197
0.00162469
0.00162666
0.00162782
0.00162825
0.00162812
0.00162721
0.00162558
0.00162326
0.00162026
0.0016166
0.0016123
0.00160737
0.00160185
0.00159575
0.00158909
0.00158189
0.00157418
0.00156598
0.00155731
0.0015482
0.00153867
0.00152874
0.00151843
0.00150778
0.00149679
0.0014855
0.00147392
0.00146208
0.00145
0.0014377
0.0014252
0.00141251
0.00139966
0.00138666
0.00137353
0.00136028
0.00134693
0.0013335
0.00132001
0.00130647
0.00129291
0.00127934
0.00126577
0.00125221
0.00123867
0.00122517
0.00121172
0.00119832
0.00118498
0.00117171
0.00115852
0.00114543
0.00113242
0.00111952
0.00110672
0.00109404
0.00108147
0.00106902
0.0010567
0.00104451
0.00103245
0.00102052
0.00100873
0.000997077
0.000985568
0.0009742
0.000962977
0.000951897
0.000940963
0.000930176
0.000919534
0.000909039
0.000898686
0.000888472
0.000878396
0.00086846
0.000858663
0.000849008
0.000839494
0.000830119
0.000820883
0.000811784
0.000802821
0.000793993
0.000785297
0.000776733
0.000768297
0.000759989
0.000751807
0.000743749
0.000735813
0.000727997
0.000720299
0.000712718
0.000705252
0.000697899
0.000690657
0.000683524
0.000676499
0.000669578
0.00066276
0.000656042
0.00064942
0.000642893
0.000636454
0.0006301
0.000623825
0.00061762
0.000611476
0.000605382
0.00059932
0.000593269
0.0005872
0.000581076
0.000574832
0.000568412
0.000561638
0.000554447
0.000546195
0.000530021
1.40321e-06
0.00010191
0.000234961
0.000354673
0.000433291
0.000480515
0.000503964
0.000512388
0.000514044
0.000515294
0.000522569
0.000539161
0.000565643
0.000601022
0.00064453
0.000696206
0.000756864
0.000840761
0.000936863
0.0010326
0.00112136
0.00120552
0.00128459
0.00135702
0.00142354
0.00148475
0.00154102
0.00159271
0.00164015
0.0016838
0.00172412
0.0017616
0.00179667
0.00182969
0.00186098
0.00189079
0.00191931
0.00194667
0.00197298
0.00199829
0.00202264
0.00204603
0.00206847
0.00208992
0.00211038
0.00212981
0.00214817
0.00216544
0.00218159
0.00219661
0.00221048
0.0022232
0.00223479
0.00224526
0.00225463
0.00226291
0.00227012
0.00227628
0.00228141
0.00228551
0.0022886
0.00229065
0.00229156
0.00229165
0.00229076
0.00228888
0.00228605
0.00228227
0.00227758
0.002272
0.00226555
0.00225826
0.00225016
0.00224127
0.00223164
0.00222128
0.00221023
0.00219853
0.00218619
0.00217326
0.00215976
0.00214572
0.00213118
0.00211617
0.00210072
0.00208485
0.0020686
0.002052
0.00203508
0.00201786
0.00200037
0.00198265
0.0019647
0.00194656
0.00192826
0.0019098
0.00189122
0.00187254
0.00185378
0.00183497
0.00181613
0.00179727
0.00177841
0.00175958
0.00174078
0.00172203
0.00170334
0.00168473
0.00166621
0.0016478
0.00162949
0.0016113
0.00159325
0.00157533
0.00155756
0.00153995
0.00152249
0.00150521
0.00148809
0.00147115
0.00145439
0.00143782
0.00142143
0.00140524
0.00138924
0.00137343
0.00135782
0.00134241
0.00132719
0.00131218
0.00129736
0.00128275
0.00126833
0.0012541
0.00124006
0.00122622
0.00121256
0.0011991
0.00118584
0.00117276
0.00115987
0.00114716
0.00113465
0.00112231
0.00111016
0.00109818
0.00108638
0.00107476
0.0010633
0.00105201
0.00104089
0.00102993
0.00101914
0.0010085
0.000998014
0.000987683
0.000977502
0.00096747
0.000957581
0.000947835
0.000938227
0.000928754
0.000919412
0.000910196
0.000901103
0.000892124
0.000883253
0.000874481
0.000865796
0.000857182
0.000848622
0.000840091
0.000831553
0.000822966
0.000814261
0.000805369
0.000796126
0.00078638
0.000776412
0.00075659
2.32349e-06
0.000118204
0.000256241
0.000389852
0.000486679
0.000548395
0.000586163
0.000609674
0.000627631
0.00064729
0.000673848
0.000709897
0.000756139
0.000812843
0.000880563
0.000971492
0.0010769
0.00117854
0.00127763
0.00137289
0.00146336
0.00154913
0.00163015
0.0017064
0.00177817
0.00184581
0.00190967
0.00197008
0.00202738
0.00208188
0.00213391
0.00218376
0.00223167
0.00227786
0.00232248
0.00236565
0.00240746
0.00244797
0.0024872
0.00252516
0.00256185
0.00259724
0.00263132
0.00266404
0.00269537
0.00272526
0.00275368
0.00278058
0.00280593
0.0028297
0.00285185
0.00287236
0.00289123
0.00290843
0.00292396
0.00293783
0.00295002
0.00296056
0.00296945
0.00297672
0.00298237
0.00298645
0.00298887
0.00298977
0.0029893
0.00298733
0.00298399
0.00297928
0.00297327
0.00296602
0.00295756
0.00294797
0.00293728
0.00292555
0.00291282
0.00289915
0.00288459
0.00286917
0.00285294
0.00283594
0.00281823
0.00279983
0.00278079
0.00276116
0.00274096
0.00272025
0.00269906
0.00267743
0.00265539
0.00263299
0.00261026
0.00258723
0.00256393
0.0025404
0.00251666
0.00249275
0.0024687
0.00244453
0.00242026
0.00239594
0.00237158
0.00234721
0.00232285
0.00229851
0.00227423
0.00225002
0.00222589
0.00220186
0.00217795
0.00215417
0.00213054
0.00210706
0.00208375
0.00206062
0.00203768
0.00201494
0.0019924
0.00197008
0.00194798
0.0019261
0.00190445
0.00188304
0.00186187
0.00184094
0.00182026
0.00179982
0.00177964
0.0017597
0.00174002
0.00172059
0.00170141
0.00168249
0.00166381
0.00164538
0.0016272
0.00160926
0.00159156
0.00157411
0.00155689
0.00153992
0.00152319
0.0015067
0.00149043
0.0014744
0.0014586
0.00144302
0.00142766
0.00141252
0.0013976
0.00138289
0.00136839
0.00135409
0.00133999
0.0013261
0.0013124
0.00129889
0.00128557
0.00127244
0.00125949
0.00124671
0.00123411
0.00122168
0.00120942
0.00119732
0.00118537
0.00117357
0.0011619
0.00115037
0.00113895
0.00112763
0.00111639
0.00110519
0.00109402
0.00108281
0.00107151
0.00106003
0.00104821
0.00103599
0.00102381
0.00100133
2.79372e-06
0.000126771
0.000269144
0.000407435
0.000526024
0.000607436
0.000663629
0.000705757
0.000743067
0.000782798
0.000829966
0.000887477
0.000957064
0.00104984
0.00115714
0.00126377
0.00136984
0.00147308
0.00157299
0.00166916
0.00176136
0.00184961
0.00193399
0.00201468
0.00209191
0.00216596
0.00223711
0.00230562
0.00237175
0.00243573
0.00249777
0.00255805
0.00261672
0.00267389
0.00272964
0.00278404
0.00283712
0.00288888
0.00293932
0.00298843
0.00303618
0.00308251
0.0031274
0.00317079
0.00321263
0.00325287
0.00329145
0.00332833
0.00336344
0.00339675
0.00342821
0.00345778
0.00348543
0.00351113
0.00353485
0.00355657
0.00357628
0.00359396
0.00360961
0.00362323
0.00363483
0.00364441
0.00365198
0.0036576
0.00366125
0.00366287
0.00366278
0.00366079
0.00365701
0.00365149
0.00364428
0.00363544
0.00362502
0.00361308
0.0035997
0.00358493
0.00356883
0.00355149
0.00353295
0.0035133
0.00349259
0.0034709
0.00344829
0.00342483
0.00340058
0.0033756
0.00334995
0.0033237
0.00329689
0.00326958
0.00324182
0.00321367
0.00318516
0.00315634
0.00312726
0.00309795
0.00306845
0.0030388
0.00300904
0.00297919
0.00294929
0.00291937
0.00288946
0.00285958
0.00282976
0.00280002
0.00277038
0.00274087
0.00271149
0.00268228
0.00265324
0.00262439
0.00259574
0.00256731
0.00253911
0.00251115
0.00248344
0.00245598
0.0024288
0.00240188
0.00237524
0.00234889
0.00232283
0.00229705
0.00227158
0.0022464
0.00222153
0.00219696
0.00217269
0.00214873
0.00212507
0.00210171
0.00207865
0.00205589
0.00203343
0.00201127
0.00198939
0.00196781
0.00194652
0.00192552
0.00190481
0.00188438
0.00186423
0.00184436
0.00182476
0.00180543
0.00178637
0.00176757
0.00174902
0.00173074
0.0017127
0.00169491
0.00167737
0.00166006
0.00164299
0.00162615
0.00160953
0.00159314
0.00157697
0.00156102
0.00154527
0.00152973
0.00151439
0.00149925
0.00148429
0.00146951
0.00145491
0.00144046
0.00142616
0.00141199
0.00139793
0.00138394
0.00136999
0.00135604
0.00134201
0.00132784
0.00131336
0.00129861
0.0012836
0.00125934
2.93818e-06
0.000128647
0.000270463
0.000406935
0.000537526
0.000641116
0.000718441
0.000780055
0.000836138
0.000894405
0.000962888
0.00105554
0.00116573
0.00128725
0.00140276
0.00151396
0.00162169
0.00172614
0.00182725
0.00192496
0.0020193
0.00211034
0.00219824
0.0022832
0.00236542
0.00244513
0.00252255
0.0025979
0.00267137
0.00274312
0.00281331
0.00288204
0.0029494
0.00301547
0.00308028
0.00314385
0.00320618
0.00326725
0.00332704
0.00338551
0.0034426
0.00349827
0.00355245
0.00360508
0.00365609
0.00370543
0.00375302
0.0037988
0.00384271
0.00388469
0.00392468
0.00396264
0.00399852
0.00403227
0.00406386
0.00409326
0.00412043
0.00414536
0.00416803
0.00418843
0.00420655
0.0042224
0.00423598
0.00424731
0.00425639
0.00426326
0.00426798
0.00427043
0.00427086
0.00426921
0.00426554
0.0042599
0.00425233
0.0042429
0.00423166
0.00421869
0.00420404
0.00418778
0.00416998
0.00415071
0.00413004
0.00410805
0.0040848
0.00406037
0.00403482
0.00400825
0.0039807
0.00395226
0.00392298
0.00389295
0.00386222
0.00383086
0.00379893
0.00376648
0.00373358
0.00370029
0.00366665
0.00363271
0.00359853
0.00356416
0.00352964
0.003495
0.0034603
0.00342557
0.00339084
0.00335615
0.00332152
0.00328699
0.00325258
0.00321831
0.00318421
0.00315031
0.00311661
0.00308314
0.00304991
0.00301693
0.00298423
0.00295181
0.00291969
0.00288786
0.00285635
0.00282515
0.00279428
0.00276375
0.00273354
0.00270368
0.00267416
0.00264498
0.00261615
0.00258767
0.00255953
0.00253174
0.0025043
0.0024772
0.00245044
0.00242402
0.00239795
0.00237221
0.0023468
0.00232173
0.00229699
0.00227257
0.00224848
0.00222471
0.00220126
0.00217812
0.00215529
0.00213276
0.00211054
0.00208861
0.00206697
0.00204561
0.00202454
0.00200375
0.00198324
0.00196299
0.00194301
0.00192329
0.00190382
0.00188461
0.00186564
0.00184692
0.00182843
0.00181017
0.00179213
0.00177431
0.00175669
0.00173926
0.00172202
0.00170492
0.00168797
0.00167112
0.00165434
0.00163758
0.00162076
0.00160383
0.00158663
0.00156923
0.00155129
0.00152515
2.75397e-06
0.000125138
0.000263766
0.000395284
0.000519801
0.000632067
0.000726014
0.000807533
0.000891516
0.000987481
0.00109733
0.00122248
0.00135897
0.00148639
0.00160659
0.00172152
0.00183213
0.00193878
0.0020418
0.00214155
0.00223824
0.00233208
0.00242326
0.002512
0.00259851
0.00268298
0.0027656
0.00284656
0.002926
0.00300404
0.00308081
0.00315637
0.00323079
0.00330409
0.00337628
0.00344737
0.00351733
0.00358611
0.00365368
0.00371998
0.00378493
0.00384848
0.00391054
0.00397104
0.0040299
0.00408704
0.00414239
0.00419587
0.00424741
0.00429693
0.00434438
0.00438968
0.0044328
0.00447366
0.00451224
0.00454848
0.00458235
0.00461383
0.00464289
0.00466951
0.00469369
0.00471541
0.00473469
0.00475152
0.00476592
0.00477791
0.00478751
0.00479474
0.00479967
0.00480224
0.00480262
0.0048008
0.00479684
0.00479077
0.00478267
0.00477258
0.00476058
0.00474673
0.00473108
0.00471372
0.00469471
0.00467413
0.00465203
0.0046285
0.00460362
0.00457744
0.00455006
0.00452153
0.00449193
0.00446134
0.00442981
0.00439743
0.00436425
0.00433035
0.00429578
0.00426061
0.0042249
0.00418872
0.00415211
0.00411514
0.00407786
0.00404032
0.00400257
0.00396465
0.00392661
0.0038885
0.00385034
0.00381219
0.00377406
0.00373601
0.00369805
0.00366021
0.00362253
0.00358502
0.00354771
0.00351063
0.00347378
0.00343719
0.00340088
0.00336486
0.00332913
0.00329372
0.00325863
0.00322388
0.00318947
0.00315541
0.0031217
0.00308835
0.00305536
0.00302274
0.00299049
0.00295861
0.0029271
0.00289596
0.00286519
0.00283479
0.00280476
0.0027751
0.0027458
0.00271687
0.0026883
0.00266009
0.00263224
0.00260474
0.00257759
0.00255079
0.00252433
0.00249821
0.00247243
0.00244697
0.00242185
0.00239704
0.00237255
0.00234838
0.00232451
0.00230095
0.00227769
0.00225472
0.00223204
0.00220965
0.00218754
0.0021657
0.00214413
0.00212282
0.00210177
0.00208097
0.0020604
0.00204005
0.00201991
0.00199995
0.00198016
0.0019605
0.00194093
0.0019214
0.00190185
0.00188219
0.00186231
0.00184224
0.0018215
0.00179316
2.33786e-06
0.000117847
0.000252602
0.000380605
0.000503476
0.00061998
0.000730982
0.000840493
0.000955926
0.00108232
0.00122083
0.00137091
0.00151312
0.001645
0.00176916
0.00188749
0.00200111
0.00211065
0.00221651
0.00231888
0.00241817
0.00251476
0.00260896
0.00270101
0.00279115
0.00287958
0.00296648
0.00305201
0.00313631
0.00321948
0.0033016
0.00338274
0.00346292
0.00354216
0.00362046
0.00369778
0.00377409
0.00384933
0.00392344
0.00399634
0.00406795
0.0041382
0.00420698
0.00427422
0.00433981
0.00440367
0.0044657
0.00452583
0.00458397
0.00464004
0.00469397
0.00474568
0.00479511
0.0048422
0.0048869
0.00492916
0.00496894
0.00500621
0.00504094
0.00507311
0.0051027
0.00512971
0.00515413
0.00517596
0.00519522
0.00521192
0.00522609
0.00523774
0.00524691
0.00525363
0.00525795
0.00525988
0.00525954
0.00525693
0.00525211
0.00524514
0.00523609
0.00522501
0.00521197
0.00519703
0.00518027
0.00516175
0.00514154
0.00511972
0.00509636
0.00507153
0.00504531
0.00501776
0.00498897
0.00495899
0.00492791
0.00489578
0.00486269
0.0048287
0.00479387
0.00475827
0.00472196
0.00468501
0.00464748
0.00460943
0.00457091
0.00453199
0.00449271
0.00445313
0.0044133
0.00437326
0.00433306
0.00429274
0.00425234
0.0042119
0.00417147
0.00413106
0.00409072
0.00405047
0.00401034
0.00397037
0.00393057
0.00389096
0.00385158
0.00381243
0.00377354
0.00373493
0.0036966
0.00365857
0.00362086
0.00358347
0.00354642
0.0035097
0.00347334
0.00343734
0.00340169
0.00336642
0.00333151
0.00329697
0.00326281
0.00322902
0.0031956
0.00316257
0.00312991
0.00309763
0.00306572
0.00303419
0.00300303
0.00297224
0.00294182
0.00291176
0.00288207
0.00285274
0.00282376
0.00279514
0.00276686
0.00273893
0.00271134
0.00268409
0.00265717
0.00263058
0.00260432
0.00257837
0.00255275
0.00252743
0.00250242
0.00247771
0.0024533
0.00242917
0.00240533
0.00238176
0.00235845
0.00233538
0.00231255
0.00228993
0.0022675
0.00224522
0.00222305
0.00220094
0.00217882
0.00215662
0.00213422
0.00211164
0.00208834
0.00205768
1.92364e-06
0.000110191
0.000242375
0.000369663
0.000495395
0.000619902
0.000745104
0.000874867
0.00101265
0.00116038
0.00131824
0.00147986
0.0016275
0.00176382
0.00189182
0.00201348
0.00213008
0.00224242
0.00235106
0.00245637
0.00255866
0.00265812
0.0027552
0.00285024
0.00294354
0.00303532
0.0031258
0.00321513
0.00330344
0.00339084
0.00347739
0.00356314
0.00364812
0.00373232
0.00381572
0.00389828
0.00397995
0.00406066
0.00414032
0.00421885
0.00429616
0.00437215
0.00444671
0.00451975
0.00459115
0.00466082
0.00472867
0.00479458
0.00485847
0.00492025
0.00497983
0.00503715
0.00509212
0.00514468
0.00519477
0.00524235
0.00528736
0.00532977
0.00536954
0.00540666
0.00544109
0.00547283
0.00550188
0.00552824
0.00555191
0.00557291
0.00559126
0.00560698
0.0056201
0.00563066
0.00563868
0.00564423
0.00564733
0.00564806
0.00564645
0.00564257
0.00563648
0.00562823
0.00561789
0.00560553
0.0055912
0.00557499
0.00555695
0.00553717
0.00551572
0.00549266
0.00546807
0.00544202
0.00541458
0.00538583
0.00535584
0.00532467
0.00529239
0.00525908
0.0052248
0.00518961
0.00515358
0.00511678
0.00507926
0.0050411
0.00500234
0.00496306
0.00492329
0.0048831
0.00484254
0.00480166
0.00476051
0.00471912
0.00467756
0.00463585
0.00459404
0.00455216
0.00451026
0.00446837
0.00442651
0.00438473
0.00434304
0.00430147
0.00426006
0.00421882
0.00417778
0.00413695
0.00409636
0.00405601
0.00401594
0.00397614
0.00393664
0.00389745
0.00385857
0.00382002
0.00378181
0.00374393
0.00370641
0.00366923
0.00363242
0.00359596
0.00355987
0.00352414
0.00348879
0.0034538
0.00341919
0.00338494
0.00335107
0.00331757
0.00328444
0.00325168
0.00321929
0.00318726
0.0031556
0.0031243
0.00309335
0.00306276
0.00303252
0.00300263
0.00297309
0.00294389
0.00291502
0.0028865
0.0028583
0.00283043
0.00280289
0.00277566
0.00274875
0.00272214
0.00269584
0.00266982
0.00264409
0.00261862
0.0025934
0.00256842
0.00254363
0.00251903
0.00249455
0.00247014
0.00244576
0.0024213
0.00239668
0.00237188
0.00234637
0.00231355
1.53312e-06
0.000102054
0.000231932
0.000358898
0.000487603
0.000618989
0.000755714
0.000899696
0.0010526
0.00121495
0.00138724
0.00155303
0.00170464
0.00184482
0.00197632
0.0021011
0.00222051
0.00233547
0.00244665
0.00255454
0.00265953
0.00276192
0.00286197
0.00295989
0.0030561
0.00315088
0.00324448
0.00333707
0.00342881
0.0035198
0.00361011
0.00369978
0.00378883
0.00387725
0.00396501
0.00405205
0.0041383
0.00422369
0.00430813
0.00439152
0.00447374
0.00455469
0.00463426
0.00471233
0.00478878
0.00486351
0.00493641
0.00500737
0.00507628
0.00514306
0.00520761
0.00526985
0.0053297
0.00538709
0.00544195
0.00549423
0.00554389
0.00559087
0.00563514
0.00567668
0.00571546
0.00575148
0.00578472
0.00581518
0.00584287
0.0058678
0.00589
0.00590947
0.00592626
0.00594039
0.00595191
0.00596085
0.00596725
0.00597117
0.00597266
0.00597179
0.00596863
0.00596319
0.00595557
0.00594582
0.00593401
0.00592021
0.00590449
0.00588692
0.00586756
0.00584651
0.00582381
0.00579956
0.00577381
0.00574664
0.00571812
0.00568833
0.00565731
0.00562516
0.00559192
0.00555768
0.00552249
0.00548642
0.00544953
0.00541189
0.00537355
0.00533458
0.00529503
0.00525496
0.00521441
0.00517344
0.0051321
0.00509044
0.0050485
0.00500633
0.00496396
0.00492144
0.00487882
0.00483611