/*--------------------------------*- C++ -*----------------------------------*\
  =========                 |
  \\      /  F ield         | OpenFOAM: The Open Source CFD Toolbox
   \\    /   O peration     | Website:  https://openfoam.org
    \\  /    A nd           | Version:  8
     \\/     M anipulation  |
\*---------------------------------------------------------------------------*/
FoamFile
{
    version     2.0;
    format      ascii;
    class       volScalarField;
    location    "800";
    object      nut;
}
// * * * * * * * * * * * * * * * * * * * * * * * * * * * * * * * * * * * * * //

dimensions      [0 2 -1 0 0 0 0];

internalField   nonuniform List<scalar> 
12225
(
0.0122671
0.00158819
0.000666129
0.000410105
0.000294025
0.00022806
0.000183261
0.000170805
0.000132697
0.000106844
9.46735e-05
8.80085e-05
7.89855e-05
7.2233e-05
6.77318e-05
6.45069e-05
6.12102e-05
6.46336e-05
0.0323823
0.00744532
0.00330638
0.00204329
0.00146801
0.0011445
0.000936338
0.000799975
0.00067951
0.000577234
0.000506286
0.000452432
0.00041054
0.000378806
0.000350182
0.000327767
0.000311172
0.000292817
0.0490123
0.01515
0.00728196
0.00457854
0.00330639
0.00258054
0.00211233
0.00178913
0.00154181
0.00134762
0.00119772
0.0010787
0.000982056
0.000902481
0.000835978
0.000780909
0.000735546
0.000687169
0.063054
0.0237783
0.0122894
0.00788814
0.00573397
0.00448498
0.00367412
0.00310733
0.00268471
0.00235805
0.00210111
0.00189458
0.00172531
0.00158451
0.00146613
0.00136604
0.00128146
0.00119789
0.074932
0.0328517
0.0181452
0.0119262
0.00874548
0.00686412
0.0056308
0.00476254
0.00411748
0.00362029
0.00322731
0.00290992
0.00264899
0.00243143
0.00224799
0.00209188
0.00195826
0.00183626
0.0849536
0.0420208
0.0246655
0.0166359
0.0123325
0.00972587
0.00799539
0.00676785
0.00585345
0.00514769
0.00458844
0.00413587
0.00376334
0.00345239
0.00318983
0.00296596
0.0027736
0.00260471
0.0933822
0.0510219
0.0316642
0.0219415
0.016474
0.0130717
0.0107778
0.00913551
0.0079057
0.0069534
0.0061969
0.00558367
0.00507837
0.00465632
0.00429976
0.00399561
0.00373414
0.00350818
0.0993794
0.0583363
0.0378386
0.0268568
0.0204171
0.0163053
0.0134891
0.011453
0.00991891
0.00872629
0.00777635
0.00700497
0.00636866
0.00583685
0.0053874
0.00500398
0.00467452
0.00439126
0.104023
0.0645454
0.0433804
0.0314239
0.0241571
0.0194092
0.0161097
0.0137018
0.0118766
0.0104521
0.00931443
0.00838904
0.00762485
0.00698574
0.00644544
0.00598449
0.00558858
0.00524877
0.108368
0.0708939
0.0493756
0.0365496
0.0284517
0.0230231
0.0191863
0.0163547
0.0141926
0.0124968
0.011138
0.0100303
0.00911434
0.00834759
0.0076991
0.00714579
0.00667068
0.00626297
0.112368
0.0772557
0.0557282
0.0421918
0.0332976
0.0271652
0.0227467
0.0194432
0.0168984
0.0148903
0.0132749
0.0119544
0.0108605
0.00994378
0.00916796
0.00850586
0.00793736
0.00744915
0.115994
0.0834975
0.0623053
0.0482611
0.0386474
0.0318167
0.026789
0.0229739
0.0200046
0.0176452
0.0157378
0.0141736
0.0128749
0.011785
0.0108618
0.0100736
0.00939671
0.00881464
0.119234
0.0894856
0.0689377
0.0546109
0.0443919
0.0369007
0.0312597
0.0269088
0.0234836
0.02074
0.0185096
0.0166735
0.0151449
0.01386
0.0127704
0.0118396
0.0110397
0.0103508
0.122086
0.095084
0.075415
0.0610223
0.0503361
0.0422534
0.0360231
0.0311353
0.0272402
0.024093
0.021519
0.0193909
0.017614
0.0161174
0.0148466
0.01376
0.0128257
0.0120196
0.124546
0.100135
0.0814619
0.0671725
0.056158
0.047577
0.0408126
0.0354174
0.031066
0.0275196
0.0246012
0.0221777
0.0201481
0.0184349
0.0169782
0.0157314
0.0146583
0.0137311
0.126578
0.104396
0.0866605
0.0725515
0.0613228
0.0523526
0.0451453
0.0393148
0.0345631
0.0306611
0.0274325
0.0247409
0.0224806
0.020569
0.0189413
0.0175468
0.0163454
0.0153061
0.128011
0.107322
0.0902141
0.0762353
0.0648743
0.0556509
0.0481493
0.0420254
0.0370012
0.0328553
0.0294126
0.0265352
0.0241143
0.0220643
0.0203172
0.0188191
0.0175275
0.0164083
0.128006
0.107313
0.0902048
0.0762269
0.0648674
0.0556454
0.048145
0.0420222
0.0369988
0.0328537
0.0294117
0.0265349
0.0241147
0.0220652
0.0203185
0.0188206
0.0175287
0.0164083
0.126509
0.104255
0.0864922
0.0723807
0.0611613
0.052205
0.0450128
0.0391967
0.0344584
0.0305686
0.0273506
0.0246684
0.0224163
0.0205118
0.0188903
0.0175006
0.0163024
0.0152631
0.124267
0.0995604
0.0807712
0.0664676
0.0554886
0.0469631
0.0402594
0.0349228
0.0306248
0.0271258
0.0242488
0.0218611
0.0198626
0.0181762
0.0167426
0.0155152
0.0144575
0.0135405
0.12136
0.0936399
0.0737261
0.0593348
0.0487592
0.0408249
0.0347467
0.0300003
0.0262308
0.0231928
0.0207127
0.018665
0.0169572
0.0155198
0.0142999
0.0132567
0.0123583
0.0115798
0.117686
0.0865903
0.0656967
0.0514791
0.0415374
0.0343608
0.0290184
0.0249322
0.0217348
0.0191848
0.0171184
0.0154211
0.0140106
0.0128263
0.0118229
0.0109657
0.010228
0.00958895
0.11305
0.0784122
0.056921
0.0432687
0.0342296
0.0279652
0.0234365
0.0200435
0.0174263
0.0153597
0.0136966
0.0123369
0.0112106
0.010267
0.00946866
0.00878719
0.00820102
0.00769347
0.107169
0.0691009
0.0476372
0.035029
0.0271566
0.021922
0.0182437
0.0155401
0.0134817
0.0118706
0.0105816
0.00953197
0.00866487
0.00793965
0.0073267
0.00680378
0.00635413
0.00596495
0.0996761
0.0587036
0.0381279
0.0270699
0.0205782
0.0164329
0.0135949
0.0115438
0.00999922
0.00879908
0.00784341
0.00706755
0.0064279
0.00589357
0.0054423
0.00505734
0.00472643
0.00444008
0.0901097
0.0473665
0.0287363
0.0196847
0.0146976
0.0116312
0.00957853
0.00811528
0.00702331
0.00617994
0.00551057
0.00496793
0.00452113
0.00414813
0.0038333
0.00356445
0.00333366
0.00313367
0.0779076
0.0353826
0.0198606
0.0131383
0.00966107
0.00759298
0.00623352
0.00527429
0.00456399
0.00401883
0.00358696
0.00323611
0.00294716
0.00270592
0.00250233
0.00232747
0.00217869
0.00204817
0.06238
0.0232554
0.0119461
0.00765493
0.00556337
0.00435256
0.00356724
0.00301639
0.00261307
0.00230794
0.00206655
0.00186719
0.00170218
0.00156416
0.00144769
0.00134441
0.0012608
0.00118219
0.0426105
0.0117794
0.0054693
0.00341385
0.00246071
0.00192006
0.00157275
0.00132885
0.00115942
0.00103848
0.000943994
0.000857685
0.000784587
0.00072151
0.000667762
0.000612319
0.000581062
0.000536615
0.0168348
0.00255985
0.00110002
0.000683428
0.000493724
0.000386804
0.000318219
0.00026631
0.000272591
0.000322006
0.000354515
0.000337161
0.000302488
0.0002618
0.000237263
0.000183811
0.00023452
0.000235735
3.99503e-09
5.91184e-07
2.00095e-06
6.28953e-06
1.08027e-05
1.35318e-05
1.32568e-05
1.17916e-05
9.06363e-06
5.94774e-06
3.52389e-06
2.02497e-06
1.41004e-06
1.50308e-06
2.06732e-06
2.56612e-06
2.45448e-06
2.06913e-06
2.54308e-06
8.67736e-06
9.02546e-06
5.55483e-06
6.75365e-06
2.65198e-05
5.67553e-05
7.44291e-05
9.0982e-05
0.00010483
0.00011705
0.00012721
0.000136114
0.000143761
0.000150451
0.000156278
0.00016136
0.000165845
0.00016982
0.00017337
0.000176553
0.000179412
0.000181976
0.00018427
0.00018631
0.000188113
0.000189693
0.000191064
0.000192236
0.000193216
0.000194005
0.000194477
0.000194975
0.000195084
0.000195145
0.00019502
0.000194721
0.000194276
0.000193677
0.00019293
0.000192036
0.000190998
0.000189816
0.000188495
0.000187035
0.000185439
0.00018371
0.00018185
0.00017986
0.000177742
0.000175499
0.000173133
0.000170645
0.000168039
0.000165315
0.000162475
0.00015952
0.000156451
0.000153269
0.000149975
0.000146567
0.000143045
0.000139408
0.000135651
0.000131771
0.000127761
0.000123614
0.000119317
0.00011486
0.000110226
0.000105394
0.000100342
9.50416e-05
8.94665e-05
8.361e-05
7.75391e-05
7.15287e-05
6.62474e-05
6.24895e-05
6.01484e-05
5.83961e-05
5.67902e-05
5.5214e-05
5.36455e-05
5.20833e-05
5.05289e-05
4.89842e-05
4.74513e-05
4.59327e-05
4.44348e-05
4.29856e-05
4.17488e-05
4.05447e-05
3.93549e-05
3.81824e-05
3.70277e-05
3.58919e-05
3.47756e-05
3.36797e-05
3.26049e-05
3.15517e-05
3.05207e-05
2.95122e-05
2.85266e-05
2.75646e-05
2.66267e-05
2.57128e-05
2.48228e-05
2.39578e-05
2.31458e-05
2.24115e-05
2.16959e-05
2.09953e-05
2.03179e-05
1.96686e-05
1.90337e-05
1.84127e-05
1.78088e-05
1.72229e-05
1.66552e-05
1.61056e-05
1.55736e-05
1.50589e-05
1.45609e-05
1.40794e-05
1.36138e-05
1.31638e-05
1.2729e-05
1.23089e-05
1.19032e-05
1.15114e-05
1.11333e-05
1.07685e-05
1.04165e-05
1.00771e-05
9.74987e-06
9.4346e-06
9.13098e-06
8.83871e-06
8.55756e-06
8.28729e-06
8.02769e-06
7.77858e-06
7.53978e-06
7.3111e-06
7.09238e-06
6.8834e-06
6.68391e-06
6.49359e-06
6.312e-06
6.13862e-06
5.97267e-06
5.81337e-06
5.65912e-06
5.50949e-06
5.35951e-06
5.21377e-06
5.04774e-06
4.89377e-06
4.64741e-06
4.48923e-06
3.59419e-06
1.6819e-07
6.14285e-06
6.38843e-05
0.000139688
0.000183242
0.000207006
0.000216379
0.000214885
0.000206539
0.000189835
0.000169043
0.00014891
0.000138499
0.000143715
0.000157684
0.000166605
0.000169023
0.000170207
0.000175611
0.000185314
0.00020007
0.000217509
0.000234343
0.000250845
0.000262145
0.000272048
0.000280864
0.000293711
0.000312807
0.000326753
0.000339496
0.00035042
0.000360349
0.000369448
0.000377348
0.000384561
0.000391275
0.000397717
0.000404017
0.00041024
0.000416382
0.000422401
0.000428243
0.000433867
0.000439247
0.000444364
0.000449204
0.000453754
0.000458016
0.00046199
0.000465715
0.000469157
0.000472354
0.000475296
0.000477987
0.000480429
0.000482622
0.000484567
0.000486265
0.000487716
0.00048892
0.000489879
0.000490595
0.000491071
0.00049132
0.000491344
0.00049114
0.000490703
0.00049005
0.000489184
0.000488111
0.000486839
0.000485372
0.00048372
0.000481887
0.000479882
0.000477712
0.000475385
0.000472908
0.000470289
0.000467537
0.000464658
0.000461662
0.000458556
0.000455349
0.000452047
0.00044866
0.000445195
0.00044166
0.000438064
0.000434412
0.00043071
0.000426958
0.000423148
0.000419261
0.000415271
0.000411162
0.000406961
0.00040272
0.000398463
0.000394198
0.000389929
0.000385659
0.000381391
0.00037713
0.000372878
0.000368638
0.000364412
0.000360202
0.000356003
0.000351827
0.000347679
0.00034356
0.000339472
0.000335417
0.000331397
0.000327413
0.000323466
0.000319558
0.000315691
0.000311864
0.000308079
0.000304337
0.000300639
0.000296986
0.000293377
0.000289813
0.000286292
0.000282813
0.000279379
0.000275988
0.000272648
0.000269362
0.000266111
0.000262897
0.000259724
0.000256595
0.000253511
0.000250472
0.000247477
0.000244527
0.000241621
0.000238757
0.000235936
0.000233156
0.000230418
0.00022772
0.000225063
0.000222445
0.000219867
0.000217328
0.000214827
0.000212366
0.000209942
0.000207558
0.000205212
0.000202906
0.000200639
0.000198414
0.00019623
0.000194089
0.000191993
0.000189944
0.000187942
0.000185991
0.000184092
0.000182245
0.000180451
0.000178709
0.000177018
0.000175372
0.000173773
0.000172195
0.000170681
0.000169071
0.000167748
0.000165616
0.0001649
0.000162093
0.00016072
7.68627e-07
4.4543e-05
0.000164291
0.000246524
0.000299858
0.000330178
0.000341215
0.000338346
0.000325513
0.000306239
0.000286465
0.000273745
0.000271486
0.000278167
0.000288524
0.000299354
0.000312117
0.000329072
0.000350673
0.000375836
0.000403226
0.000431582
0.000469802
0.000516189
0.000561844
0.000606001
0.000649103
0.000692778
0.000732117
0.000763406
0.000788415
0.000808239
0.000823954
0.000836422
0.000846427
0.000854743
0.000862073
0.000869059
0.00087624
0.000883971
0.00089236
0.000901283
0.000910501
0.000919778
0.000928936
0.000937855
0.000946459
0.000954701
0.000962543
0.000969958
0.000976924
0.00098341
0.000989415
0.00099493
0.000999955
0.00100449
0.00100853
0.00101208
0.00101513
0.00101769
0.00101976
0.00102134
0.00102242
0.00102297
0.00102312
0.00102284
0.00102205
0.0010208
0.00101912
0.001017
0.00101446
0.00101152
0.00100818
0.00100446
0.00100038
0.00099595
0.000991183
0.000986095
0.0009807
0.000975016
0.000969055
0.000962834
0.000956368
0.000949672
0.000942761
0.00093565
0.000928353
0.000920885
0.00091326
0.00090549
0.000897587
0.000889564
0.000881428
0.000873189
0.000864854
0.000856434
0.00084794
0.000839389
0.000830797
0.000822176
0.000813539
0.000804894
0.000796248
0.00078761
0.000778986
0.000770384
0.00076181
0.00075327
0.00074477
0.000736315
0.000727911
0.000719562
0.000711275
0.000703053
0.000694898
0.000686816
0.000678809
0.000670879
0.00066303
0.000655264
0.000647582
0.000639987
0.00063248
0.000625064
0.00061774
0.000610507
0.000603367
0.00059632
0.000589366
0.000582507
0.000575742
0.000569072
0.000562496
0.000556007
0.000549604
0.00054329
0.000537068
0.000530936
0.000524896
0.000518947
0.000513088
0.000507319
0.000501637
0.000496042
0.000490534
0.000485109
0.000479769
0.000474511
0.000469334
0.000464238
0.00045922
0.000454281
0.000449418
0.000444631
0.000439919
0.000435281
0.000430715
0.00042622
0.000421796
0.00041744
0.000413151
0.000408929
0.00040477
0.000400674
0.000396636
0.000392655
0.000388725
0.000384842
0.000380998
0.000377186
0.000373393
0.000369605
0.000365796
0.00036195
0.000357991
0.00035395
0.000349469
0.000345075
0.000338585
0.000327126
5.07115e-07
8.1291e-05
0.000212973
0.000309206
0.000372989
0.000410399
0.000425972
0.000426362
0.000416351
0.000402948
0.000394794
0.000393958
0.000403187
0.000420399
0.000443155
0.000470911
0.000504265
0.000543576
0.000588034
0.000650279
0.000724146
0.00080394
0.000888201
0.00095886
0.00102129
0.00107741
0.00112783
0.00117273
0.001212
0.00124588
0.00127512
0.00130046
0.00132258
0.00134212
0.00135965
0.00137568
0.0013906
0.00140477
0.00141843
0.00143178
0.00144495
0.001458
0.00147096
0.00148381
0.00149651
0.00150897
0.0015211
0.00153281
0.001544
0.00155459
0.00156455
0.00157382
0.0015824
0.00159026
0.0015974
0.0016038
0.00160948
0.00161441
0.00161861
0.00162208
0.0016248
0.00162678
0.00162793
0.00162837
0.00162824
0.00162733
0.00162571
0.00162339
0.00162039
0.00161673
0.00161243
0.00160751
0.00160199
0.00159589
0.00158923
0.00158204
0.00157433
0.00156614
0.00155747
0.00154836
0.00153883
0.0015289
0.0015186
0.00150794
0.00149696
0.00148567
0.00147409
0.00146226
0.00145018
0.00143788
0.00142538
0.0014127
0.00139985
0.00138685
0.00137371
0.00136046
0.00134711
0.00133368
0.00132019
0.00130666
0.0012931
0.00127952
0.00126595
0.00125239
0.00123885
0.00122535
0.00121189
0.00119849
0.00118515
0.00117188
0.00115869
0.00114559
0.00113258
0.00111968
0.00110688
0.00109419
0.00108162
0.00106917
0.00105684
0.00104465
0.00103258
0.00102065
0.00100886
0.000997203
0.000985691
0.00097432
0.000963094
0.000952011
0.000941075
0.000930284
0.00091964
0.000909142
0.000898787
0.000888571
0.000878493
0.000868555
0.000858758
0.000849102
0.000839586
0.000830211
0.000820975
0.000811876
0.000802913
0.000794085
0.00078539
0.000776826
0.000768391
0.000760084
0.000751902
0.000743845
0.000735909
0.000728094
0.000720398
0.000712818
0.000705353
0.000698001
0.000690761
0.000683629
0.000676605
0.000669686
0.000662869
0.000656152
0.000649532
0.000643006
0.000636569
0.000630217
0.000623943
0.00061774
0.000611598
0.000605505
0.000599444
0.000593395
0.000587327
0.000581205
0.000574961
0.000568543
0.000561766
0.000554575
0.000546332
0.000530142
1.4935e-06
0.00010206
0.000235126
0.000355062
0.000433977
0.000481484
0.000505121
0.00051359
0.000515165
0.000516154
0.000523036
0.0005392
0.00056526
0.000600248
0.000643378
0.000694664
0.000754753
0.000838176
0.000933853
0.00103007
0.00111908
0.00120347
0.00128282
0.00135552
0.00142228
0.00148369
0.00154015
0.00159201
0.00163961
0.00168337
0.0017238
0.00176137
0.00179651
0.00182959
0.00186092
0.00189076
0.00191931
0.00194669
0.00197302
0.00199835
0.00202271
0.00204612
0.00206856
0.00209003
0.00211049
0.00212993
0.0021483
0.00216557
0.00218173
0.00219675
0.00221062
0.00222335
0.00223494
0.00224542
0.00225479
0.00226307
0.00227029
0.00227645
0.00228158
0.00228568
0.00228878
0.00229083
0.00229174
0.00229183
0.00229095
0.00228908
0.00228624
0.00228247
0.00227778
0.0022722
0.00226576
0.00225847
0.00225037
0.00224149
0.00223186
0.00222151
0.00221046
0.00219876
0.00218643
0.0021735
0.00216
0.00214597
0.00213143
0.00211642
0.00210097
0.0020851
0.00206886
0.00205226
0.00203534
0.00201812
0.00200064
0.00198292
0.00196497
0.00194683
0.00192853
0.00191007
0.00189149
0.00187281
0.00185405
0.00183524
0.00181639
0.00179753
0.00177868
0.00175984
0.00174104
0.00172229
0.0017036
0.00168499
0.00166646
0.00164804
0.00162973
0.00161154
0.00159348
0.00157556
0.00155779
0.00154017
0.00152271
0.00150542
0.0014883
0.00147136
0.00145459
0.00143802
0.00142163
0.00140543
0.00138942
0.00137361
0.001358
0.00134258
0.00132736
0.00131234
0.00129752
0.0012829
0.00126848
0.00125425
0.00124021
0.00122637
0.00121271
0.00119925
0.00118598
0.0011729
0.00116001
0.00114731
0.00113479
0.00112246
0.0011103
0.00109833
0.00108653
0.0010749
0.00106345
0.00105216
0.00104104
0.00103009
0.00101929
0.00100865
0.000998169
0.00098784
0.000977661
0.000967629
0.000957743
0.000947998
0.000938392
0.000928921
0.000919581
0.000910367
0.000901275
0.000892298
0.000883429
0.000874659
0.000865976
0.000857364
0.000848806
0.000840276
0.00083174
0.000823155
0.000814452
0.000805562
0.000796319
0.000786575
0.000776607
0.000756787
2.27178e-06
0.000118204
0.000256371
0.000390155
0.000487242
0.00054916
0.000587024
0.000610489
0.000628248
0.000647575
0.000673722
0.000709337
0.000755157
0.000811455
0.000878635
0.000969142
0.00107428
0.001176
0.00127522
0.00137072
0.00146142
0.00154742
0.00162866
0.00170512
0.00177708
0.0018449
0.00190891
0.00196946
0.00202688
0.00208148
0.00213361
0.00218354
0.00223152
0.00227776
0.00232243
0.00236565
0.00240749
0.00244803
0.00248729
0.00252528
0.00256199
0.0025974
0.0026315
0.00266423
0.00269557
0.00272548
0.0027539
0.00278081
0.00280617
0.00282994
0.00285209
0.00287261
0.00289148
0.00290869
0.00292422
0.00293809
0.00295029
0.00296083
0.00296972
0.00297698
0.00298264
0.00298672
0.00298915
0.00299005
0.00298958
0.00298761
0.00298427
0.00297957
0.00297356
0.00296631
0.00295786
0.00294827
0.00293758
0.00292586
0.00291314
0.00289947
0.00288491
0.00286949
0.00285327
0.00283628
0.00281856
0.00280017
0.00278114
0.0027615
0.00274131
0.0027206
0.00269941
0.00267779
0.00265575
0.00263335
0.00261062
0.00258759
0.00256429
0.00254076
0.00251703
0.00249312
0.00246906
0.00244489
0.00242063
0.0023963
0.00237194
0.00234757
0.0023232
0.00229887
0.00227458
0.00225037
0.00222623
0.0022022
0.00217829
0.0021545
0.00213087
0.00210738
0.00208407
0.00206094
0.00203799
0.00201524
0.0019927
0.00197037
0.00194826
0.00192638
0.00190473
0.00188331
0.00186213
0.0018412
0.00182051
0.00180007
0.00177988
0.00175994
0.00174025
0.00172082
0.00170164
0.00168271
0.00166403
0.0016456
0.00162741
0.00160947
0.00159177
0.00157431
0.0015571
0.00154013
0.0015234
0.0015069
0.00149064
0.00147461
0.0014588
0.00144323
0.00142787
0.00141273
0.00139781
0.0013831
0.0013686
0.0013543
0.00134021
0.00132631
0.00131262
0.00129911
0.00128579
0.00127266
0.00125971
0.00124694
0.00123434
0.00122192
0.00120966
0.00119755
0.00118561
0.00117381
0.00116215
0.00115061
0.00113919
0.00112788
0.00111664
0.00110545
0.00109427
0.00108307
0.00107176
0.00106029
0.00104847
0.00103626
0.00102408
0.0010016
2.80564e-06
0.000126822
0.000269282
0.000407729
0.000526503
0.000608038
0.000664244
0.000706254
0.000743314
0.000782689
0.000829435
0.000886501
0.000955512
0.00104784
0.00115485
0.00126146
0.00136757
0.00147093
0.001571
0.00166736
0.00175976
0.00184819
0.00193276
0.00201361
0.002091
0.0021652
0.00223648
0.00230511
0.00237134
0.00243542
0.00249754
0.0025579
0.00261663
0.00267386
0.00272967
0.00278411
0.00283723
0.00288903
0.00293951
0.00298865
0.00303641
0.00308278
0.00312769
0.00317109
0.00321295
0.0032532
0.0032918
0.00332868
0.0033638
0.00339712
0.00342859
0.00345817
0.00348582
0.00351152
0.00353524
0.00355697
0.00357668
0.00359436
0.00361001
0.00362364
0.00363523
0.00364482
0.00365239
0.00365801
0.00366166
0.00366328
0.00366319
0.0036612
0.00365743
0.00365191
0.0036447
0.00363586
0.00362544
0.00361351
0.00360013
0.00358536
0.00356927
0.00355193
0.0035334
0.00351375
0.00349304
0.00347136
0.00344875
0.00342529
0.00340104
0.00337606
0.00335042
0.00332416
0.00329736
0.00327005
0.00324229
0.00321414
0.00318563
0.00315682
0.00312773
0.00309842
0.00306892
0.00303927
0.00300951
0.00297966
0.00294976
0.00291983
0.00288992
0.00286004
0.00283021
0.00280047
0.00277083
0.00274131
0.00271193
0.00268271
0.00265366
0.00262481
0.00259616
0.00256772
0.00253951
0.00251155
0.00248383
0.00245637
0.00242917
0.00240225
0.0023756
0.00234924
0.00232317
0.0022974
0.00227192
0.00224673
0.00222185
0.00219728
0.002173
0.00214903
0.00212537
0.00210201
0.00207895
0.00205618
0.00203372
0.00201155
0.00198967
0.00196809
0.0019468
0.0019258
0.00190509
0.00188465
0.00186451
0.00184463
0.00182503
0.00180571
0.00178664
0.00176784
0.0017493
0.00173102
0.00171298
0.0016952
0.00167765
0.00166035
0.00164328
0.00162644
0.00160983
0.00159344
0.00157727
0.00156132
0.00154557
0.00153004
0.0015147
0.00149956
0.0014846
0.00146983
0.00145522
0.00144078
0.00142648
0.00141231
0.00139825
0.00138426
0.00137032
0.00135637
0.00134235
0.00132818
0.0013137
0.00129895
0.00128394
0.00125969
2.94252e-06
0.000128736
0.00027067
0.000407308
0.000538108
0.000641778
0.000719042
0.000780497
0.000836303
0.000894163
0.000961775
0.00105375
0.00116338
0.00128512
0.0014007
0.00151197
0.0016198
0.00172438
0.00182563
0.00192351
0.002018
0.00210921
0.00219726
0.00228236
0.00236471
0.00244454
0.00252208
0.00259754
0.0026711
0.00274294
0.0028132
0.002882
0.00294943
0.00301556
0.00308042
0.00314404
0.00320641
0.00326752
0.00332735
0.00338584
0.00344297
0.00349866
0.00355286
0.00360551
0.00365654
0.00370589
0.0037535
0.00379929
0.00384321
0.0038852
0.0039252
0.00396317
0.00399905
0.00403281
0.00406441
0.0040938
0.00412098
0.00414591
0.00416858
0.00418898
0.00420711
0.00422296
0.00423654
0.00424787
0.00425696
0.00426383
0.00426855
0.004271
0.00427143
0.00426979
0.00426612
0.00426047
0.00425291
0.00424348
0.00423225
0.00421927
0.00420462
0.00418837
0.00417057
0.0041513
0.00413064
0.00410864
0.0040854
0.00406097
0.00403543
0.00400885
0.0039813
0.00395286
0.00392359
0.00389356
0.00386283
0.00383146
0.00379953
0.00376709
0.00373419
0.00370089
0.00366724
0.00363331
0.00359913
0.00356475
0.00353022
0.00349559
0.00346088
0.00342614
0.00339141
0.00335671
0.00332208
0.00328754
0.00325312
0.00321885
0.00318475
0.00315084
0.00311713
0.00308365
0.00305041
0.00301743
0.00298472
0.00295229
0.00292016
0.00288833
0.00285681
0.0028256
0.00279473
0.00276418
0.00273397
0.0027041
0.00267457
0.00264538
0.00261655
0.00258806
0.00255992
0.00253212
0.00250467
0.00247757
0.00245081
0.00242439
0.00239831
0.00237257
0.00234716
0.00232208
0.00229734
0.00227293
0.00224884
0.00222507
0.00220162
0.00217848
0.00215564
0.00213312
0.00211089
0.00208896
0.00206732
0.00204597
0.0020249
0.00200412
0.0019836
0.00196335
0.00194338
0.00192366
0.00190419
0.00188498
0.00186602
0.0018473
0.00182881
0.00181055
0.00179252
0.0017747
0.00175708
0.00173966
0.00172241
0.00170532
0.00168837
0.00167152
0.00165474
0.00163798
0.00162117
0.00160424
0.00158704
0.00156964
0.00155171
0.00152557
2.75944e-06
0.000125269
0.000264044
0.000395768
0.000520539
0.00063307
0.000727058
0.000808266
0.000891337
0.00098669
0.00109594
0.00122065
0.00135706
0.00148458
0.00160489
0.00171991
0.00183063
0.0019374
0.00204055
0.00214043
0.00223725
0.00233122
0.00242254
0.0025114
0.00259802
0.0026826
0.00276532
0.00284637
0.00292589
0.00300402
0.00308086
0.00315649
0.00323096
0.00330432
0.00337657
0.0034477
0.0035177
0.00358652
0.00365413
0.00372046
0.00378544
0.00384901
0.0039111
0.00397162
0.0040305
0.00408766
0.00414302
0.00419651
0.00424806
0.0042976
0.00434505
0.00439037
0.00443349
0.00447436
0.00451294
0.00454918
0.00458306
0.00461454
0.0046436
0.00467023
0.00469441
0.00471614
0.00473541
0.00475224
0.00476665
0.00477864
0.00478824
0.00479547
0.00480041
0.00480297
0.00480336
0.00480154
0.00479758
0.00479151
0.00478341
0.00477333
0.00476133
0.00474747
0.00473183
0.00471447
0.00469546
0.00467488
0.00465278
0.00462926
0.00460437
0.0045782
0.00455081
0.00452228
0.00449269
0.00446209
0.00443057
0.00439818
0.004365
0.0043311
0.00429653
0.00426136
0.00422565
0.00418946
0.00415285
0.00411587
0.00407859
0.00404104
0.00400328
0.00396536
0.00392732
0.0038892
0.00385103
0.00381287
0.00377474
0.00373667
0.00369871
0.00366086
0.00362317
0.00358565
0.00354834
0.00351124
0.00347439
0.00343779
0.00340147
0.00336543
0.0033297
0.00329428
0.00325918
0.00322442
0.00319
0.00315593
0.00312221
0.00308885
0.00305586
0.00302323
0.00299097
0.00295908
0.00292757
0.00289642
0.00286565
0.00283525
0.00280521
0.00277554
0.00274624
0.00271731
0.00268874
0.00266053
0.00263267
0.00260517
0.00257803
0.00255122
0.00252477
0.00249865
0.00247286
0.00244741
0.00242228
0.00239748
0.00237299
0.00234882
0.00232495
0.00230139
0.00227813
0.00225517
0.00223249
0.0022101
0.00218799
0.00216616
0.00214459
0.00212329
0.00210224
0.00208143
0.00206086
0.00204052
0.00202038
0.00200043
0.00198064
0.00196098
0.00194141
0.00192189
0.00190233
0.00188268
0.00186279
0.00184273
0.00182199
0.00179366
2.34438e-06
0.000117989
0.000252847
0.000380973
0.000503945
0.000620481
0.000731376
0.000840493
0.000955429
0.00108134
0.00121946
0.00136925
0.00151156
0.00164355
0.00176782
0.00188625
0.00199997
0.00210962
0.00221559
0.00231807
0.00241748
0.00251419
0.00260849
0.00270065
0.00279089
0.00287942
0.00296641
0.00305202
0.0031364
0.00321964
0.00330183
0.00338303
0.00346327
0.00354256
0.00362091
0.00369827
0.00377462
0.0038499
0.00392404
0.00399698
0.00406862
0.00413889
0.0042077
0.00427495
0.00434056
0.00440444
0.00446649
0.00452663
0.00458478
0.00464086
0.00469479
0.00474651
0.00479595
0.00484305
0.00488775
0.00493002
0.00496981
0.00500708
0.00504181
0.00507399
0.00510358
0.00513059
0.00515501
0.00517684
0.00519611
0.00521281
0.00522698
0.00523863
0.0052478
0.00525452
0.00525884
0.00526078
0.00526044
0.00525783
0.00525301
0.00524604
0.00523699
0.00522591
0.00521287
0.00519793
0.00518117
0.00516265
0.00514245
0.00512063
0.00509727
0.00507244
0.00504621
0.00501867
0.00498987
0.00495989
0.00492881
0.00489668
0.00486359
0.00482959
0.00479476
0.00475915
0.00472284
0.00468589
0.00464835
0.0046103
0.00457178
0.00453285
0.00449357
0.00445398
0.00441414
0.00437409
0.00433388
0.00429356
0.00425315
0.0042127
0.00417225
0.00413184
0.00409149
0.00405123
0.00401109
0.00397111
0.00393129
0.00389168
0.00385228
0.00381313
0.00377423
0.0037356
0.00369726
0.00365922
0.0036215
0.0035841
0.00354704
0.00351031
0.00347394
0.00343793
0.00340228
0.00336699
0.00333207
0.00329753
0.00326336
0.00322957
0.00319615
0.00316311
0.00313044
0.00309816
0.00306625
0.00303471
0.00300355
0.00297276
0.00294234
0.00291228
0.00288259
0.00285326
0.00282428
0.00279566
0.00276738
0.00273945
0.00271186
0.00268461
0.0026577
0.00263111
0.00260484
0.0025789
0.00255328
0.00252796
0.00250295
0.00247824
0.00245383
0.00242971
0.00240587
0.0023823
0.00235899
0.00233593
0.0023131
0.00229048
0.00226805
0.00224577
0.0022236
0.00220149
0.00217938
0.00215718
0.00213478
0.00211221
0.00208891
0.00205825
1.92688e-06
0.000110308
0.000242563
0.000369908
0.000495649
0.000620083
0.000745013
0.000874509
0.00101188
0.00115922
0.00131666
0.00147846
0.00162627
0.00176272
0.00189083
0.00201259
0.00212929
0.00224173
0.00235047
0.00245588
0.00255827
0.00265783
0.002755
0.00285013
0.00294352
0.0030354
0.00312595
0.00321536
0.00330374
0.0033912
0.00347782
0.00356363
0.00364866
0.00373291
0.00381635
0.00389895
0.00398066
0.0040614
0.00414109
0.00421965
0.00429699
0.004373
0.00444759
0.00452064
0.00459207
0.00466175
0.00472961
0.00479553
0.00485943
0.00492122
0.00498082
0.00503814
0.00509312
0.00514569
0.00519579
0.00524337
0.00528838
0.00533079
0.00537057
0.00540768
0.00544212
0.00547387
0.00550292
0.00552928
0.00555295
0.00557395
0.0055923
0.00560802
0.00562115
0.0056317
0.00563973
0.00564527
0.00564838
0.00564911
0.0056475
0.00564362
0.00563753
0.00562928
0.00561894
0.00560658
0.00559225
0.00557604
0.00555801
0.00553822
0.00551677
0.00549371
0.00546912
0.00544307
0.00541563
0.00538688
0.00535688
0.00532571
0.00529343
0.00526011
0.00522583
0.00519063
0.0051546
0.00511779
0.00508027
0.0050421
0.00500334
0.00496405
0.00492428
0.00488408
0.00484352
0.00480263
0.00476146
0.00472007
0.00467849
0.00463677
0.00459495
0.00455307
0.00451116
0.00446925
0.00442738
0.00438559
0.00434389
0.00430231
0.00426089
0.00421963
0.00417858
0.00413774
0.00409713
0.00405678
0.00401669
0.00397688
0.00393737
0.00389817
0.00385928
0.00382072
0.00378249
0.00374461
0.00370707
0.00366989
0.00363307
0.00359661
0.00356051
0.00352478
0.00348941
0.00345442
0.00341981
0.00338556
0.00335169
0.00331818
0.00328505
0.00325229
0.00321989
0.00318787
0.0031562
0.0031249
0.00309395
0.00306336
0.00303312
0.00300323
0.00297369
0.00294449
0.00291562
0.0028871
0.0028589
0.00283104
0.00280349
0.00277627
0.00274936
0.00272275
0.00269645
0.00267043
0.0026447
0.00261923
0.00259402
0.00256903
0.00254425
0.00251964
0.00249517
0.00247077
0.00244638
0.00242193
0.00239731
0.00237251
0.002347
0.00231419
1.54349e-06
0.000102167
0.000232072
0.000359054
0.000487721
0.000618991
0.000755527
0.000899243
0.00105187
0.00121394
0.00138596
0.00155194
0.00170373
0.00184405
0.00197566
0.00210054
0.00222004
0.0023351
0.00244637
0.00255435
0.00265942
0.0027619
0.00286204
0.00296005
0.00305633
0.00315119
0.00324486
0.00333752
0.00342933
0.00352037
0.00361074
0.00370047
0.00378957
0.00387803
0.00396583
0.0040529
0.00413919
0.00422462
0.00430908
0.00439249
0.00447474
0.00455572
0.0046353
0.00471339
0.00478986
0.0048646
0.00493751
0.00500848
0.00507741
0.0051442
0.00520876
0.005271
0.00533086
0.00538825
0.00544312
0.0054954
0.00554506
0.00559204
0.00563632
0.00567786
0.00571665
0.00575266
0.0057859
0.00581636
0.00584405
0.00586899
0.00589118
0.00591066
0.00592745
0.00594159
0.0059531
0.00596204
0.00596844
0.00597237
0.00597386
0.00597299
0.00596982
0.00596439
0.00595676
0.00594701
0.0059352
0.0059214
0.00590568
0.00588811
0.00586875
0.00584769
0.005825
0.00580074
0.00577499
0.00574782
0.0057193
0.0056895
0.00565848
0.00562632
0.00559308
0.00555884
0.00552364
0.00548757
0.00545067
0.00541302
0.00537468
0.0053357
0.00529615
0.00525606
0.00521551
0.00517453
0.00513318
0.00509151
0.00504956
0.00500737
0.004965
0.00492247
0.00487983
0.00483711
0.00479435
0.00475158
0.00470884
0.00466614
0.00462353
0.00458102
0.00453864
0.00449642
0.00445437
0.00441251
0.00437087
0.00432946
0.00428829
0.00424739
0.00420676
0.00416641
0.00412636
0.00408662
0.0040472
0.00400809