/*--------------------------------*- C++ -*----------------------------------*\
  =========                 |
  \\      /  F ield         | OpenFOAM: The Open Source CFD Toolbox
   \\    /   O peration     | Website:  https://openfoam.org
    \\  /    A nd           | Version:  8
     \\/     M anipulation  |
\*---------------------------------------------------------------------------*/
FoamFile
{
    version     2.0;
    format      ascii;
    class       volScalarField;
    location    "800";
    object      nuTilda;
}
// * * * * * * * * * * * * * * * * * * * * * * * * * * * * * * * * * * * * * //

dimensions      [0 2 -1 0 0 0 0];

internalField   nonuniform List<scalar> 
12225
(
0.0122671
0.00158833
0.000666932
0.000412201
0.000298001
0.000234418
0.000192049
0.000186517
0.000141364
0.000110263
9.73199e-05
9.07189e-05
8.20027e-05
7.63417e-05
7.17066e-05
7.01719e-05
6.81325e-05
7.40044e-05
0.0323823
0.00744533
0.00330642
0.00204338
0.00146818
0.00114477
0.000936743
0.000800566
0.000680242
0.000578059
0.000507246
0.00045356
0.000411866
0.000380371
0.00035202
0.000329993
0.000313754
0.00029588
0.0490123
0.01515
0.00728196
0.00457856
0.00330642
0.00258059
0.00211241
0.00178924
0.00154196
0.00134781
0.00119795
0.00107898
0.000982388
0.000902873
0.000836437
0.000781445
0.000736159
0.000687883
0.063054
0.0237783
0.0122894
0.00788815
0.00573398
0.004485
0.00367415
0.00310736
0.00268476
0.00235811
0.00210119
0.00189468
0.00172542
0.00158464
0.00146629
0.00136623
0.00128167
0.00119814
0.074932
0.0328517
0.0181452
0.0119262
0.00874549
0.00686413
0.00563081
0.00476256
0.0041175
0.00362032
0.00322735
0.00290996
0.00264904
0.00243149
0.00224806
0.00209196
0.00195835
0.00183637
0.0849536
0.0420208
0.0246655
0.0166359
0.0123325
0.00972587
0.0079954
0.00676785
0.00585346
0.00514771
0.00458846
0.00413589
0.00376337
0.00345242
0.00318986
0.002966
0.00277364
0.00260476
0.0933822
0.0510219
0.0316642
0.0219415
0.016474
0.0130717
0.0107779
0.00913552
0.00790571
0.00695341
0.00619691
0.00558368
0.00507838
0.00465634
0.00429978
0.00399563
0.00373417
0.00350821
0.0993794
0.0583363
0.0378386
0.0268568
0.0204171
0.0163053
0.0134892
0.011453
0.00991891
0.00872629
0.00777635
0.00700498
0.00636867
0.00583686
0.00538741
0.00500399
0.00467453
0.00439128
0.104023
0.0645454
0.0433804
0.0314239
0.0241571
0.0194092
0.0161097
0.0137018
0.0118766
0.0104521
0.00931443
0.00838904
0.00762486
0.00698575
0.00644545
0.0059845
0.00558859
0.00524878
0.108368
0.0708939
0.0493756
0.0365496
0.0284517
0.0230231
0.0191863
0.0163547
0.0141926
0.0124968
0.011138
0.0100304
0.00911434
0.0083476
0.0076991
0.00714579
0.00667069
0.00626298
0.112368
0.0772557
0.0557282
0.0421918
0.0332976
0.0271652
0.0227467
0.0194432
0.0168984
0.0148903
0.0132749
0.0119544
0.0108605
0.00994379
0.00916797
0.00850586
0.00793736
0.00744915
0.115994
0.0834975
0.0623053
0.0482611
0.0386474
0.0318167
0.026789
0.0229739
0.0200046
0.0176452
0.0157378
0.0141736
0.0128749
0.011785
0.0108618
0.0100736
0.00939671
0.00881464
0.119234
0.0894856
0.0689377
0.0546109
0.0443919
0.0369007
0.0312597
0.0269088
0.0234836
0.02074
0.0185096
0.0166735
0.0151449
0.01386
0.0127704
0.0118396
0.0110397
0.0103508
0.122086
0.095084
0.075415
0.0610223
0.0503361
0.0422534
0.0360231
0.0311353
0.0272402
0.024093
0.021519
0.0193909
0.017614
0.0161174
0.0148466
0.01376
0.0128257
0.0120196
0.124546
0.100135
0.0814619
0.0671725
0.056158
0.047577
0.0408126
0.0354174
0.031066
0.0275196
0.0246012
0.0221777
0.0201481
0.0184349
0.0169782
0.0157314
0.0146583
0.0137311
0.126578
0.104396
0.0866605
0.0725515
0.0613228
0.0523526
0.0451453
0.0393148
0.0345631
0.0306611
0.0274325
0.0247409
0.0224806
0.020569
0.0189413
0.0175468
0.0163454
0.0153061
0.128011
0.107322
0.0902141
0.0762353
0.0648743
0.0556509
0.0481493
0.0420254
0.0370012
0.0328553
0.0294126
0.0265352
0.0241143
0.0220643
0.0203172
0.0188191
0.0175275
0.0164083
0.128006
0.107313
0.0902048
0.0762269
0.0648674
0.0556454
0.048145
0.0420222
0.0369988
0.0328537
0.0294117
0.0265349
0.0241147
0.0220652
0.0203185
0.0188206
0.0175287
0.0164083
0.126509
0.104255
0.0864922
0.0723807
0.0611613
0.052205
0.0450128
0.0391967
0.0344584
0.0305686
0.0273506
0.0246684
0.0224163
0.0205118
0.0188903
0.0175006
0.0163024
0.0152631
0.124267
0.0995604
0.0807712
0.0664676
0.0554886
0.0469631
0.0402594
0.0349228
0.0306248
0.0271258
0.0242488
0.0218611
0.0198626
0.0181762
0.0167426
0.0155152
0.0144575
0.0135405
0.12136
0.0936399
0.0737261
0.0593348
0.0487592
0.0408249
0.0347467
0.0300003
0.0262308
0.0231928
0.0207127
0.018665
0.0169572
0.0155198
0.0142999
0.0132567
0.0123583
0.0115798
0.117686
0.0865903
0.0656967
0.0514791
0.0415374
0.0343608
0.0290184
0.0249322
0.0217348
0.0191848
0.0171184
0.0154211
0.0140106
0.0128263
0.0118229
0.0109657
0.010228
0.00958895
0.11305
0.0784122
0.056921
0.0432687
0.0342296
0.0279652
0.0234365
0.0200435
0.0174263
0.0153597
0.0136966
0.0123369
0.0112106
0.0102671
0.00946866
0.0087872
0.00820102
0.00769347
0.107169
0.0691009
0.0476372
0.035029
0.0271566
0.021922
0.0182437
0.0155401
0.0134817
0.0118706
0.0105816
0.00953197
0.00866487
0.00793966
0.0073267
0.00680379
0.00635414
0.00596496
0.0996761
0.0587036
0.0381279
0.0270699
0.0205782
0.016433
0.0135949
0.0115438
0.00999923
0.00879908
0.00784341
0.00706756
0.00642791
0.00589358
0.00544231
0.00505736
0.00472645
0.0044401
0.0901097
0.0473665
0.0287363
0.0196847
0.0146976
0.0116312
0.00957853
0.00811528
0.00702332
0.00617995
0.00551058
0.00496795
0.00452115
0.00414815
0.00383332
0.00356448
0.0033337
0.00313371
0.0779076
0.0353826
0.0198606
0.0131383
0.00966107
0.00759298
0.00623353
0.00527431
0.00456401
0.00401885
0.00358699
0.00323614
0.00294721
0.00270597
0.00250239
0.00232754
0.00217877
0.00204825
0.06238
0.0232554
0.0119461
0.00765494
0.00556339
0.00435258
0.00356727
0.00301643
0.00261312
0.00230801
0.00206664
0.0018673
0.00170231
0.00156432
0.00144787
0.00134461
0.00126103
0.00118245
0.0426105
0.0117794
0.00546931
0.00341388
0.00246077
0.00192015
0.0015729
0.00132906
0.00115969
0.00103887
0.000944521
0.000858346
0.000785386
0.000722451
0.000668852
0.000613504
0.000582446
0.000537976
0.0168348
0.0025599
0.00110031
0.000684192
0.000495179
0.000389152
0.00032166
0.000270756
0.000280876
0.000338929
0.000384933
0.000372982
0.000345878
0.000310425
0.000291627
0.000232231
0.000304403
0.000265128
3.78124e-06
1.43225e-05
2.60299e-05
3.85384e-05
4.60115e-05
4.96624e-05
5.01554e-05
4.78122e-05
4.46218e-05
3.95531e-05
3.42187e-05
2.94477e-05
2.67709e-05
2.74489e-05
2.96328e-05
3.14819e-05
3.13387e-05
2.8514e-05
2.38707e-05
2.02113e-05
2.08255e-05
2.64258e-05
3.93454e-05
6.39149e-05
8.72041e-05
0.000100617
0.000113338
0.000124347
0.000134332
0.000142835
0.000150426
0.000157045
0.000162906
0.000168061
0.000172593
0.000176619
0.000180206
0.000183425
0.000186322
0.000188933
0.000191282
0.000193388
0.000195266
0.000196929
0.000198388
0.000199656
0.000200742
0.00020165
0.000202382
0.000202807
0.000203298
0.000203381
0.00020344
0.000203324
0.000203047
0.000202633
0.000202077
0.000201384
0.000200556
0.000199595
0.000198502
0.000197281
0.000195934
0.000194464
0.000192874
0.000191167
0.000189343
0.000187407
0.000185361
0.000183208
0.000180952
0.000178595
0.000176139
0.000173587
0.000170943
0.000168207
0.000165384
0.000162475
0.000159482
0.000156406
0.00015325
0.000150012
0.000146691
0.000143287
0.000139793
0.000136206
0.000132517
0.000128718
0.000124798
0.000120742
0.000116534
0.00011216
0.000107619
0.000102963
9.83993e-05
9.44174e-05
9.15947e-05
8.98385e-05
8.85242e-05
8.73194e-05
8.61361e-05
8.49572e-05
8.37813e-05
8.26089e-05
8.14409e-05
8.02782e-05
7.91223e-05
7.79772e-05
7.68642e-05
7.59096e-05
7.49756e-05
7.40477e-05
7.31278e-05
7.22161e-05
7.13131e-05
7.0419e-05
6.95343e-05
6.86593e-05
6.77943e-05
6.69394e-05
6.60948e-05
6.52608e-05
6.44376e-05
6.36258e-05
6.28253e-05
6.20359e-05
6.12587e-05
6.05193e-05
5.98421e-05
5.91735e-05
5.85101e-05
5.786e-05
5.72282e-05
5.66015e-05
5.59795e-05
5.53657e-05
5.47609e-05
5.41657e-05
5.35803e-05
5.30044e-05
5.2438e-05
5.1881e-05
5.13331e-05
5.07942e-05
5.02643e-05
4.97432e-05
4.92308e-05
4.8727e-05
4.82318e-05
4.77449e-05
4.72665e-05
4.67963e-05
4.63345e-05
4.58808e-05
4.54355e-05
4.49984e-05
4.45697e-05
4.41494e-05
4.37377e-05
4.33346e-05
4.29405e-05
4.25556e-05
4.218e-05
4.1814e-05
4.14579e-05
4.11117e-05
4.07754e-05
4.04488e-05
4.01315e-05
3.98227e-05
3.95204e-05
3.92248e-05
3.89271e-05
3.86404e-05
3.83115e-05
3.80559e-05
3.75481e-05
3.73533e-05
3.63027e-05
3.49085e-05
5.89825e-06
4.05894e-05
9.24675e-05
0.000153709
0.000192553
0.000214556
0.000223346
0.000221918
0.000214073
0.000198515
0.000179499
0.000161546
0.000152481
0.000157009
0.000169323
0.000177336
0.000179533
0.000180677
0.000185633
0.000194342
0.00020808
0.000224515
0.00024038
0.000256188
0.000267069
0.000276647
0.000285197
0.000297696
0.000316343
0.000330007
0.00034252
0.000353265
0.000363045
0.000372016
0.000379813
0.000386937
0.000393572
0.000399942
0.000406175
0.000412335
0.000418417
0.000424379
0.000430168
0.000435744
0.000441079
0.000446154
0.000450957
0.000455473
0.000459704
0.000463649
0.000467348
0.000470766
0.000473942
0.000476865
0.000479539
0.000481965
0.000484144
0.000486078
0.000487765
0.000489207
0.000490404
0.000491357
0.000492068
0.000492542
0.000492789
0.000492814
0.000492611
0.000492176
0.000491527
0.000490666
0.0004896
0.000488335
0.000486878
0.000485235
0.000483414
0.000481421
0.000479265
0.000476953
0.000474492
0.000471891
0.000469157
0.000466298
0.000463323
0.00046024
0.000457055
0.000453779
0.000450417
0.000446979
0.000443473
0.000439906
0.000436284
0.000432614
0.000428895
0.000425119
0.000421268
0.000417316
0.000413247
0.000409089
0.000404892
0.00040068
0.000396462
0.000392242
0.000388021
0.000383806
0.000379597
0.0003754
0.000371217
0.00036705
0.000362899
0.000358762
0.00035465
0.000350567
0.000346515
0.000342496
0.000338512
0.000334564
0.000330654
0.000326784
0.000322954
0.000319166
0.000315421
0.000311719
0.000308062
0.000304452
0.000300888
0.00029737
0.000293899
0.000290473
0.000287091
0.000283755
0.000280465
0.000277228
0.000274046
0.000270902
0.000267796
0.000264734
0.000261718
0.000258748
0.000255826
0.00025295
0.00025012
0.000247336
0.000244596
0.000241901
0.00023925
0.000236641
0.000234075
0.000231551
0.000229069
0.000226628
0.000224227
0.000221867
0.000219548
0.000217269
0.00021503
0.000212831
0.000210673
0.000208556
0.000206481
0.000204448
0.00020246
0.000200517
0.00019862
0.000196772
0.000194973
0.000193225
0.000191529
0.000189884
0.000188291
0.000186746
0.000185246
0.000183792
0.000182356
0.000180993
0.000179509
0.000178385
0.00017629
0.000175967
0.000172988
0.000172126
1.2877e-05
7.40681e-05
0.000174307
0.000251874
0.000303654
0.000333359
0.000344208
0.000341389
0.00032879
0.000309921
0.000290641
0.000278291
0.000276103
0.000282579
0.000292643
0.000303196
0.000315666
0.000332282
0.000353517
0.000378318
0.000405392
0.000433481
0.000471407
0.000517522
0.000562971
0.000606971
0.00064995
0.000693521
0.000732783
0.000764019
0.000788989
0.000808786
0.00082448
0.000836933
0.000846925
0.000855232
0.000862553
0.000869532
0.000876705
0.000884429
0.000892809
0.000901723
0.000910933
0.000920201
0.00092935
0.000938261
0.000946858
0.000955093
0.000962929
0.000970338
0.000977299
0.00098378
0.00098978
0.000995291
0.00100031
0.00100484
0.00100888
0.00101243
0.00101548
0.00101804
0.00102011
0.00102168
0.00102276
0.00102331
0.00102346
0.00102318
0.00102239
0.00102115
0.00101946
0.00101734
0.00101481
0.00101186
0.00100853
0.00100482
0.00100074
0.00099631
0.000991547
0.000986462
0.000981072
0.000975392
0.000969436
0.00096322
0.000956759
0.000950068
0.000943163
0.000936058
0.000928768
0.000921307
0.000913688
0.000905926
0.000898031
0.000890015
0.000881888
0.000873658
0.000865332
0.000856921
0.000848437
0.000839896
0.000831314
0.000822705
0.000814079
0.000805445
0.000796811
0.000788185
0.000779575
0.000770986
0.000762425
0.000753899
0.000745414
0.000736973
0.000728584
0.000720252
0.00071198
0.000703774
0.000695637
0.000687572
0.000679583
0.000671671
0.000663841
0.000656094
0.000648432
0.000640857
0.000633371
0.000625976
0.000618674
0.000611463
0.000604345
0.000597321
0.000590391
0.000583556
0.000576815
0.000570171
0.00056362
0.000557157
0.000550781
0.000544495
0.0005383
0.000532197
0.000526186
0.000520266
0.000514437
0.000508698
0.000503047
0.000497484
0.000492008
0.000486616
0.000481309
0.000476085
0.000470943
0.000465881
0.000460899
0.000455996
0.00045117
0.00044642
0.000441746
0.000437146
0.000432619
0.000428164
0.000423779
0.000419464
0.000415217
0.000411036
0.00040692
0.000402867
0.000398873
0.000394936
0.000391051
0.000387214
0.000383418
0.000379653
0.000375909
0.000372171
0.000368415
0.000364622
0.00036072
0.000356742
0.000352323
0.000348021
0.000341563
0.000330412
2.17719e-05
0.000106435
0.00022024
0.000312835
0.000375511
0.000412492
0.000427918
0.000428304
0.000418385
0.000405117
0.000397051
0.000396225
0.000405353
0.000422396
0.000444955
0.000472508
0.00050566
0.000544779
0.000589063
0.000651122
0.000724826
0.000804492
0.000888654
0.000959249
0.00102163
0.00107772
0.00112811
0.00117299
0.00121224
0.00124611
0.00127534
0.00130067
0.00132278
0.00134232
0.00135985
0.00137587
0.00139079
0.00140495
0.00141861
0.00143196
0.00144512
0.00145817
0.00147112
0.00148398
0.00149667
0.00150913
0.00152126
0.00153296
0.00154415
0.00155474
0.00156469
0.00157397
0.00158254
0.0015904
0.00159754
0.00160394
0.00160962
0.00161455
0.00161875
0.00162221
0.00162493
0.00162691
0.00162807
0.00162851
0.00162838
0.00162747
0.00162584
0.00162352
0.00162052
0.00161687
0.00161257
0.00160765
0.00160213
0.00159603
0.00158938
0.00158218
0.00157448
0.00156628
0.00155762
0.00154851
0.00153898
0.00152906
0.00151875
0.0015081
0.00149712
0.00148583
0.00147426
0.00146242
0.00145035
0.00143805
0.00142555
0.00141287
0.00140003
0.00138703
0.0013739
0.00136066
0.00134731
0.00133388
0.0013204
0.00130687
0.00129331
0.00127974
0.00126617
0.00125262
0.00123909
0.00122559
0.00121214
0.00119874
0.0011854
0.00117214
0.00115896
0.00114586
0.00113286
0.00111996
0.00110717
0.00109449
0.00108192
0.00106948
0.00105716
0.00104497
0.00103292
0.00102099
0.00100921
0.000997563
0.000986059
0.000974697
0.000963479
0.000952406
0.000941478
0.000930697
0.000920062
0.000909574
0.000899229
0.000889023
0.000878956
0.000869029
0.000859243
0.000849597
0.000840093
0.000830729
0.000821505
0.000812418
0.000803467
0.000794652
0.000785969
0.000777418
0.000768996
0.000760702
0.000752534
0.00074449
0.000736568
0.000728767
0.000721085
0.00071352
0.00070607
0.000698734
0.000691508
0.000684392
0.000677384
0.000670481
0.00066368
0.00065698
0.000650377
0.000643868
0.000637449
0.000631114
0.000624858
0.000618673
0.00061255
0.000606476
0.000600435
0.000594406
0.00058836
0.000582258
0.000576038
0.000569644
0.000562893
0.000555732
0.000547512
0.000531415
2.69715e-05
0.000122013
0.000241115
0.000357834
0.000435853
0.000483013
0.000506512
0.000514936
0.000516503
0.000517487
0.000524335
0.000540423
0.000566374
0.000601237
0.000644239
0.000695404
0.00075538
0.000838685
0.000934263
0.0010304
0.00111936
0.00120372
0.00128303
0.00135571
0.00142245
0.00148385
0.0015403
0.00159215
0.00163974
0.0016835
0.00172393
0.00176149
0.00179662
0.00182969
0.00186102
0.00189086
0.0019194
0.00194679
0.00197311
0.00199844
0.0020228
0.0020462
0.00206865
0.00209011
0.00211057
0.00213001
0.00214837
0.00216565
0.00218181
0.00219683
0.0022107
0.00222342
0.00223502
0.00224549
0.00225486
0.00226314
0.00227036
0.00227652
0.00228165
0.00228575
0.00228885
0.00229089
0.00229181
0.0022919
0.00229102
0.00228914
0.00228631
0.00228254
0.00227785
0.00227227
0.00226583
0.00225854
0.00225044
0.00224156
0.00223193
0.00222158
0.00221054
0.00219883
0.0021865
0.00217357
0.00216008
0.00214605
0.00213151
0.0021165
0.00210105
0.00208519
0.00206894
0.00205235
0.00203543
0.00201821
0.00200073
0.00198301
0.00196506
0.00194693
0.00192862
0.00191017
0.00189159
0.00187291
0.00185416
0.00183535
0.0018165
0.00179765
0.00177879
0.00175996
0.00174116
0.00172241
0.00170372
0.00168511
0.00166659
0.00164817
0.00162987
0.00161168
0.00159362
0.00157571
0.00155794
0.00154032
0.00152287
0.00150558
0.00148846
0.00147152
0.00145476
0.00143819
0.0014218
0.00140561
0.00138961
0.0013738
0.00135819
0.00134278
0.00132756
0.00131255
0.00129774
0.00128312
0.0012687
0.00125448
0.00124044
0.0012266
0.00121295
0.0011995
0.00118623
0.00117316
0.00116028
0.00114758
0.00113507
0.00112274
0.00111059
0.00109862
0.00108683
0.00107521
0.00106376
0.00105249
0.00104137
0.00103042
0.00101963
0.001009
0.000998528
0.000988206
0.000978035
0.000968011
0.000958133
0.000948396
0.000938798
0.000929335
0.000920003
0.000910798
0.000901715
0.000892747
0.000883887
0.000875126
0.000866452
0.00085785
0.000849302
0.000840782
0.000832256
0.000823682
0.00081499
0.000806112
0.000796882
0.000787152
0.000777197
0.000757412
3.07981e-05
0.000135319
0.000261504
0.000392465
0.000488736
0.000550339
0.000588057
0.000611444
0.000629151
0.000648426
0.000674507
0.000710046
0.000755783
0.000811997
0.000879098
0.000969522
0.00107459
0.00117626
0.00127544
0.00137091
0.00146159
0.00154757
0.0016288
0.00170524
0.00177719
0.001845
0.00190901
0.00196956
0.00202696
0.00208157
0.00213369
0.00218361
0.00223159
0.00227783
0.0023225
0.00236571
0.00240756
0.00244809
0.00248735
0.00252533
0.00256204
0.00259746
0.00263155
0.00266428
0.00269562
0.00272552
0.00275395
0.00278086
0.00280621
0.00282998
0.00285214
0.00287266
0.00289152
0.00290873
0.00292426
0.00293813
0.00295033
0.00296087
0.00296976
0.00297702
0.00298268
0.00298676
0.00298919
0.00299009
0.00298962
0.00298765
0.00298431
0.00297961
0.0029736
0.00296635
0.0029579
0.00294831
0.00293763
0.0029259
0.00291318
0.00289951
0.00288495
0.00286953
0.00285331
0.00283632
0.00281861
0.00280021
0.00278118
0.00276155
0.00274136
0.00272065
0.00269946
0.00267784
0.0026558
0.0026334
0.00261067
0.00258764
0.00256435
0.00254082
0.00251709
0.00249318
0.00246912
0.00244495
0.00242069
0.00239637
0.00237201
0.00234763
0.00232327
0.00229894
0.00227465
0.00225044
0.00222631
0.00220228
0.00217836
0.00215458
0.00213094
0.00210746
0.00208415
0.00206102
0.00203808
0.00201533
0.00199279
0.00197047
0.00194836
0.00192648
0.00190483
0.00188341
0.00186224
0.00184131
0.00182062
0.00180018
0.00177999
0.00176006
0.00174037
0.00172094
0.00170176
0.00168284
0.00166416
0.00164573
0.00162754
0.0016096
0.00159191
0.00157446
0.00155725
0.00154028
0.00152355
0.00150706
0.0014908
0.00147477
0.00145897
0.0014434
0.00142804
0.00141291
0.00139799
0.00138329
0.00136879
0.0013545
0.00134041
0.00132652
0.00131282
0.00129932
0.00128601
0.00127288
0.00125994
0.00124717
0.00123458
0.00122216
0.0012099
0.0011978
0.00118586
0.00117407
0.00116241
0.00115088
0.00113947
0.00112816
0.00111692
0.00110574
0.00109457
0.00108337
0.00107208
0.00106061
0.0010488
0.00103659
0.00102442
0.00100195
3.23482e-05
0.000142501
0.000273968
0.000409848
0.000527785
0.000609002
0.000665052
0.00070697
0.00074396
0.000783272
0.000829954
0.000886955
0.000955904
0.00104817
0.00115512
0.00126168
0.00136776
0.0014711
0.00157115
0.00166749
0.00175987
0.0018483
0.00193285
0.0020137
0.00209109
0.00216528
0.00223655
0.00230517
0.00237141
0.00243548
0.0024976
0.00255795
0.00261668
0.00267391
0.00272972
0.00278416
0.00283728
0.00288907
0.00293955
0.00298869
0.00303645
0.00308281
0.00312772
0.00317113
0.00321299
0.00325324
0.00329183
0.00332871
0.00336383
0.00339715
0.00342862
0.0034582
0.00348585
0.00351155
0.00353527
0.003557
0.00357671
0.00359439
0.00361004
0.00362366
0.00363526
0.00364484
0.00365242
0.00365804
0.00366169
0.00366331
0.00366322
0.00366123
0.00365746
0.00365194
0.00364473
0.00363589
0.00362547
0.00361354
0.00360016
0.00358539
0.0035693
0.00355196
0.00353343
0.00351378
0.00349307
0.00347139
0.00344878
0.00342532
0.00340107
0.00337609
0.00335045
0.00332419
0.00329739
0.00327008
0.00324233
0.00321417
0.00318567
0.00315685
0.00312777
0.00309846
0.00306896
0.00303931
0.00300955
0.0029797
0.0029498
0.00291988
0.00288996
0.00286008
0.00283026
0.00280052
0.00277088
0.00274136
0.00271198
0.00268276
0.00265371
0.00262486
0.00259621
0.00256778
0.00253957
0.0025116
0.00248389
0.00245643
0.00242923
0.00240231
0.00237567
0.00234931
0.00232324
0.00229746
0.00227199
0.0022468
0.00222193
0.00219735
0.00217308
0.00214911
0.00212545
0.00210209
0.00207903
0.00205627
0.00203381
0.00201164
0.00198976
0.00196818
0.0019469
0.0019259
0.00190518
0.00188476
0.00186461
0.00184474
0.00182514
0.00180582
0.00178676
0.00176796
0.00174942
0.00173114
0.00171311
0.00169532
0.00167778
0.00166048
0.00164341
0.00162657
0.00160996
0.00159358
0.00157741
0.00156146
0.00154572
0.00153019
0.00151485
0.00149971
0.00148476
0.00146999
0.00145539
0.00144095
0.00142666
0.00141249
0.00139843
0.00138445
0.00137051
0.00135656
0.00134254
0.00132838
0.00131391
0.00129916
0.00128415
0.00125991
3.27959e-05
0.000144126
0.000275312
0.000409432
0.000539336
0.000642643
0.000719733
0.000781083
0.000836814
0.00089461
0.000962161
0.00105407
0.00116365
0.00128533
0.00140088
0.00151213
0.00161994
0.0017245
0.00182574
0.0019236
0.00201809
0.00210929
0.00219734
0.00228243
0.00236477
0.0024446
0.00252214
0.00259759
0.00267115
0.00274299
0.00281325
0.00288205
0.00294948
0.0030156
0.00308046
0.00314407
0.00320644
0.00326756
0.00332738
0.00338588
0.003443
0.00349869
0.00355289
0.00360554
0.00365657
0.00370592
0.00375352
0.00379931
0.00384323
0.00388522
0.00392523
0.00396319
0.00399908
0.00403283
0.00406443
0.00409383
0.004121
0.00414593
0.0041686
0.004189
0.00420713
0.00422298
0.00423656
0.00424789
0.00425698
0.00426385
0.00426857
0.00427102
0.00427145
0.00426981
0.00426614
0.00426049
0.00425293
0.0042435
0.00423227
0.00421929
0.00420464
0.00418839
0.00417059
0.00415132
0.00413066
0.00410866
0.00408542
0.00406099
0.00403545
0.00400887
0.00398132
0.00395288
0.00392361
0.00389358
0.00386285
0.00383149
0.00379956
0.00376711
0.00373421
0.00370091
0.00366727
0.00363334
0.00359916
0.00356478
0.00353025
0.00349562
0.00346091
0.00342618
0.00339144
0.00335674
0.00332211
0.00328757
0.00325316
0.00321889
0.00318478
0.00315087
0.00311717
0.00308369
0.00305045
0.00301747
0.00298476
0.00295234
0.0029202
0.00288837
0.00285685
0.00282565
0.00279477
0.00276423
0.00273402
0.00270415
0.00267462
0.00264544
0.0026166
0.00258811
0.00255997
0.00253218
0.00250473
0.00247763
0.00245087
0.00242445
0.00239837
0.00237263
0.00234722
0.00232215
0.00229741
0.002273
0.00224891
0.00222514
0.00220169
0.00217855
0.00215572
0.0021332
0.00211097
0.00208904
0.00206741
0.00204606
0.00202499
0.0020042
0.00198369
0.00196345
0.00194347
0.00192375
0.00190429
0.00188508
0.00186612
0.0018474
0.00182892
0.00181066
0.00179263
0.00177481
0.0017572
0.00173978
0.00172253
0.00170544
0.00168849
0.00167165
0.00165487
0.00163811
0.00162131
0.00160438
0.00158719
0.00156979
0.00155186
0.00152572
3.22377e-05
0.000141196
0.000268904
0.000398015
0.00052185
0.000633959
0.000727733
0.000808813
0.000891787
0.000987057
0.00109624
0.00122089
0.00135725
0.00148474
0.00160503
0.00172003
0.00183073
0.00193749
0.00204063
0.0021405
0.00223732
0.00233129
0.0024226
0.00251146
0.00259807
0.00268265
0.00276537
0.00284642
0.00292594
0.00300406
0.0030809
0.00315653
0.003231
0.00330435
0.0033766
0.00344773
0.00351773
0.00358655
0.00365416
0.00372048
0.00378547
0.00384904
0.00391112
0.00397164
0.00403052
0.00408768
0.00414304
0.00419653
0.00424808
0.00429761
0.00434507
0.00439038
0.0044335
0.00447438
0.00451295
0.0045492
0.00458308
0.00461456
0.00464362
0.00467025
0.00469442
0.00471615
0.00473543
0.00475226
0.00476666
0.00477865
0.00478826
0.00479549
0.00480042
0.00480299
0.00480337
0.00480156
0.00479759
0.00479153
0.00478343
0.00477334
0.00476134
0.00474749
0.00473185
0.00471449
0.00469548
0.00467489
0.0046528
0.00462927
0.00460439
0.00457822
0.00455083
0.0045223
0.00449271
0.00446211
0.00443058
0.0043982
0.00436502
0.00433111
0.00429654
0.00426138
0.00422567
0.00418948
0.00415287
0.00411589
0.00407861
0.00404106
0.00400331
0.00396538
0.00392734
0.00388922
0.00385106
0.0038129
0.00377477
0.0037367
0.00369873
0.00366089
0.0036232
0.00358568
0.00354837
0.00351127
0.00347442
0.00343782
0.0034015
0.00336546
0.00332973
0.00329431
0.00325922
0.00322445
0.00319003
0.00315596
0.00312225
0.00308889
0.0030559
0.00302327
0.00299101
0.00295913
0.00292761
0.00289647
0.00286569
0.00283529
0.00280526
0.00277559
0.00274629
0.00271736
0.00268879
0.00266058
0.00263272
0.00260523
0.00257808
0.00255128
0.00252482
0.00249871
0.00247292
0.00244747
0.00242235
0.00239754
0.00237306
0.00234888
0.00232502
0.00230146
0.0022782
0.00225524
0.00223256
0.00221017
0.00218807
0.00216623
0.00214467
0.00212337
0.00210232
0.00208152
0.00206095
0.0020406
0.00202047
0.00200052
0.00198073
0.00196107
0.00194151
0.00192198
0.00190243
0.00188278
0.0018629
0.00184284
0.00182209
0.00179377
3.08683e-05
0.000135111
0.00025811
0.000383392
0.000505343
0.000621406
0.000732043
0.000840999
0.000955821
0.00108164
0.0012197
0.00136944
0.00151172
0.00164369
0.00176793
0.00188635
0.00200006
0.0021097
0.00221566
0.00231814
0.00241754
0.00251424
0.00260854
0.0027007
0.00279094
0.00287946
0.00296645
0.00305206
0.00313643
0.00321967
0.00330186
0.00338306
0.0034633
0.00354259
0.00362093
0.0036983
0.00377465
0.00384992
0.00392407
0.003997
0.00406864
0.00413891
0.00420772
0.00427497
0.00434058
0.00440445
0.00446651
0.00452665
0.0045848
0.00464088
0.00469481
0.00474653
0.00479596
0.00484306
0.00488777
0.00493003
0.00496982
0.0050071
0.00504183
0.005074
0.00510359
0.0051306
0.00515502
0.00517686
0.00519612
0.00521282
0.00522699
0.00523864
0.00524782
0.00525454
0.00525886
0.00526079
0.00526045
0.00525784
0.00525302
0.00524606
0.005237
0.00522592
0.00521288
0.00519795
0.00518118
0.00516266
0.00514246
0.00512064
0.00509728
0.00507245
0.00504623
0.00501868
0.00498988
0.00495991
0.00492882
0.0048967
0.0048636
0.00482961
0.00479477
0.00475917
0.00472286
0.00468591
0.00464837
0.00461031
0.00457179
0.00453287
0.00449358
0.004454
0.00441416
0.00437411
0.0043339
0.00429357
0.00425317
0.00421272
0.00417228
0.00413186
0.00409151
0.00405125
0.00401111
0.00397113
0.00393132
0.0038917
0.00385231
0.00381315
0.00377425
0.00373563
0.00369729
0.00365925
0.00362153
0.00358413
0.00354706
0.00351034
0.00347397
0.00343796
0.00340231
0.00336702
0.00333211
0.00329756
0.00326339
0.0032296
0.00319618
0.00316314
0.00313048
0.00309819
0.00306629
0.00303475
0.00300359
0.0029728
0.00294238
0.00291232
0.00288263
0.0028533
0.00282432
0.0027957
0.00276743
0.0027395
0.00271191
0.00268466
0.00265775
0.00263116
0.0026049
0.00257896
0.00255333
0.00252802
0.00250301
0.0024783
0.00245389
0.00242977
0.00240593
0.00238236
0.00235905
0.00233599
0.00231316
0.00229055
0.00226812
0.00224584
0.00222367
0.00220157
0.00217946
0.00215726
0.00213486
0.00211229
0.00208899
0.00205833
2.93176e-05
0.000128792
0.000248238
0.00037247
0.000497093
0.000621009
0.000745656
0.000874977
0.00101223
0.00115948
0.00131686
0.00147862
0.00162641
0.00176284
0.00189093
0.00201268
0.00212937
0.0022418
0.00235053
0.00245594
0.00255832
0.00265788
0.00275505
0.00285018
0.00294356
0.00303543
0.00312599
0.00321539
0.00330377
0.00339123
0.00347785
0.00356366
0.00364868
0.00373293
0.00381638
0.00389898
0.00398068
0.00406142
0.00414111
0.00421968
0.00429701
0.00437302
0.0044476
0.00452066
0.00459208
0.00466177
0.00472962
0.00479555
0.00485945
0.00492124
0.00498083
0.00503815
0.00509313
0.0051457
0.0051958
0.00524338
0.00528839
0.00533081
0.00537058
0.0054077
0.00544213
0.00547388
0.00550293
0.00552929
0.00555296
0.00557397
0.00559232
0.00560804
0.00562116
0.00563171
0.00563974
0.00564528
0.00564839
0.00564912
0.00564751
0.00564363
0.00563754
0.00562929
0.00561895
0.00560659
0.00559226
0.00557605
0.00555802
0.00553824
0.00551678
0.00549372
0.00546913
0.00544308
0.00541564
0.00538689
0.00535689
0.00532572
0.00529344
0.00526013
0.00522584
0.00519065
0.00515461
0.00511781
0.00508029
0.00504212
0.00500336
0.00496406
0.00492429
0.0048841
0.00484353
0.00480264
0.00476148
0.00472009
0.00467851
0.00463679
0.00459497
0.00455309
0.00451117
0.00446927
0.0044274
0.0043856
0.0043439
0.00430233
0.00426091
0.00421965
0.0041786
0.00413776
0.00409715
0.0040568
0.00401671
0.00397691
0.0039374
0.00389819
0.0038593
0.00382074
0.00378252
0.00374464
0.0037071
0.00366992
0.0036331
0.00359663
0.00356054
0.00352481
0.00348944
0.00345445
0.00341984
0.00338559
0.00335172
0.00331822
0.00328508
0.00325232
0.00321993
0.0031879
0.00315624
0.00312493
0.00309399
0.0030634
0.00303316
0.00300327
0.00297373
0.00294453
0.00291567
0.00288714
0.00285895
0.00283108
0.00280354
0.00277632
0.00274941
0.0027228
0.0026965
0.00267048
0.00264475
0.00261928
0.00259407
0.00256909
0.00254431
0.0025197
0.00249522
0.00247083
0.00244644
0.00242199
0.00239737
0.00237257
0.00234706
0.00231425
2.76235e-05
0.000122193
0.000238216
0.000361768
0.000489212
0.000619921
0.000756152
0.000899685
0.00105219
0.00121418
0.00138615
0.00155209
0.00170386
0.00184416
0.00197575
0.00210062
0.00222012
0.00233516
0.00244643
0.0025544
0.00265947
0.00276195
0.00286209
0.00296009
0.00305637
0.00315123
0.00324489
0.00333755
0.00342936
0.0035204
0.00361077
0.00370049
0.00378959
0.00387805
0.00396585
0.00405292
0.00413921
0.00422464
0.0043091
0.00439251
0.00447476
0.00455573
0.00463532
0.0047134
0.00478988
0.00486462
0.00493753
0.0050085
0.00507742
0.00514421
0.00520877
0.00527101
0.00533087
0.00538826
0.00544313
0.00549542
0.00554507
0.00559206
0.00563633
0.00567787
0.00571666
0.00575267
0.00578591
0.00581637
0.00584406
0.005869
0.00589119
0.00591067
0.00592746
0.0059416
0.00595311
0.00596205
0.00596845
0.00597238
0.00597387
0.005973
0.00596983
0.0059644
0.00595677
0.00594702
0.00593521
0.00592141
0.00590569
0.00588812
0.00586876
0.0058477
0.00582501
0.00580075
0.005775
0.00574783
0.00571931
0.00568951
0.00565849
0.00562633
0.0055931
0.00555885
0.00552365
0.00548758
0.00545068
0.00541304
0.0053747
0.00533572
0.00529616
0.00525608
0.00521552
0.00517454
0.00513319
0.00509152
0.00504957
0.00500739
0.00496501
0.00492249
0.00487984
0.00483713
0.00479437
0.0047516
0.00470885
0.00466616
0.00462355
0.00458104
0.00453866
0.00449643
0.00445439
0.00441253
0.00437089
0.00432948
0.00428831
0.00424741
0.00420678