/*--------------------------------*- C++ -*----------------------------------*\
  =========                 |
  \\      /  F ield         | OpenFOAM: The Open Source CFD Toolbox
   \\    /   O peration     | Website:  https://openfoam.org
    \\  /    A nd           | Version:  8
     \\/     M anipulation  |
\*---------------------------------------------------------------------------*/
FoamFile
{
    version     2.0;
    format      ascii;
    class       volScalarField;
    location    "2700";
    object      nut;
}
// * * * * * * * * * * * * * * * * * * * * * * * * * * * * * * * * * * * * * //

dimensions      [0 2 -1 0 0 0 0];

internalField   nonuniform List<scalar> 
12225
(
0.0122671
0.00158819
0.000666129
0.000410105
0.000294025
0.00022806
0.000183261
0.000170805
0.000132697
0.000106844
9.46735e-05
8.80085e-05
7.89857e-05
7.22331e-05
6.7732e-05
6.45074e-05
6.12105e-05
6.46338e-05
0.0323823
0.00744532
0.00330638
0.00204329
0.00146801
0.0011445
0.000936338
0.000799975
0.000679511
0.000577235
0.000506287
0.000452432
0.00041054
0.000378807
0.000350182
0.000327767
0.000311173
0.000292819
0.0490123
0.01515
0.00728196
0.00457854
0.00330639
0.00258054
0.00211233
0.00178913
0.00154181
0.00134762
0.00119772
0.0010787
0.000982057
0.000902482
0.000835979
0.00078091
0.000735548
0.000687173
0.063054
0.0237783
0.0122894
0.00788814
0.00573397
0.00448498
0.00367412
0.00310733
0.00268471
0.00235805
0.00210111
0.00189458
0.00172531
0.00158451
0.00146614
0.00136605
0.00128146
0.0011979
0.074932
0.0328517
0.0181452
0.0119262
0.00874548
0.00686412
0.0056308
0.00476254
0.00411748
0.0036203
0.00322731
0.00290992
0.00264899
0.00243143
0.00224799
0.00209188
0.00195826
0.00183627
0.0849536
0.0420208
0.0246655
0.0166359
0.0123325
0.00972587
0.00799539
0.00676785
0.00585345
0.00514769
0.00458844
0.00413587
0.00376334
0.0034524
0.00318983
0.00296596
0.0027736
0.00260472
0.0933822
0.0510219
0.0316642
0.0219415
0.016474
0.0130717
0.0107778
0.00913551
0.0079057
0.0069534
0.0061969
0.00558367
0.00507837
0.00465632
0.00429976
0.00399561
0.00373415
0.00350819
0.0993794
0.0583363
0.0378386
0.0268568
0.0204171
0.0163053
0.0134891
0.011453
0.00991891
0.00872629
0.00777635
0.00700497
0.00636866
0.00583685
0.0053874
0.00500398
0.00467452
0.00439127
0.104023
0.0645454
0.0433804
0.0314239
0.0241571
0.0194092
0.0161097
0.0137018
0.0118766
0.0104521
0.00931443
0.00838904
0.00762485
0.00698574
0.00644544
0.00598449
0.00558858
0.00524877
0.108368
0.0708939
0.0493756
0.0365496
0.0284517
0.0230231
0.0191863
0.0163547
0.0141926
0.0124968
0.011138
0.0100303
0.00911434
0.0083476
0.0076991
0.00714579
0.00667068
0.00626298
0.112368
0.0772557
0.0557282
0.0421918
0.0332976
0.0271652
0.0227467
0.0194432
0.0168984
0.0148903
0.0132749
0.0119544
0.0108605
0.00994379
0.00916796
0.00850586
0.00793736
0.00744915
0.115994
0.0834975
0.0623053
0.0482611
0.0386474
0.0318167
0.026789
0.0229739
0.0200046
0.0176452
0.0157378
0.0141736
0.0128749
0.011785
0.0108618
0.0100736
0.00939671
0.00881464
0.119234
0.0894856
0.0689377
0.0546109
0.0443919
0.0369007
0.0312597
0.0269088
0.0234836
0.02074
0.0185096
0.0166735
0.0151449
0.01386
0.0127704
0.0118396
0.0110397
0.0103508
0.122086
0.095084
0.075415
0.0610223
0.0503361
0.0422534
0.0360231
0.0311353
0.0272402
0.024093
0.021519
0.0193909
0.017614
0.0161174
0.0148466
0.01376
0.0128257
0.0120196
0.124546
0.100135
0.0814619
0.0671725
0.056158
0.047577
0.0408126
0.0354174
0.031066
0.0275196
0.0246012
0.0221777
0.0201481
0.0184349
0.0169782
0.0157314
0.0146583
0.0137311
0.126578
0.104396
0.0866605
0.0725515
0.0613228
0.0523526
0.0451453
0.0393148
0.0345631
0.0306611
0.0274325
0.0247409
0.0224806
0.020569
0.0189413
0.0175468
0.0163454
0.0153061
0.128011
0.107322
0.0902141
0.0762353
0.0648743
0.0556509
0.0481493
0.0420254
0.0370012
0.0328553
0.0294126
0.0265352
0.0241143
0.0220643
0.0203172
0.0188191
0.0175275
0.0164083
0.128006
0.107313
0.0902048
0.0762269
0.0648674
0.0556454
0.048145
0.0420222
0.0369988
0.0328537
0.0294117
0.0265349
0.0241147
0.0220652
0.0203185
0.0188206
0.0175287
0.0164083
0.126509
0.104255
0.0864922
0.0723807
0.0611613
0.052205
0.0450128
0.0391967
0.0344584
0.0305686
0.0273506
0.0246684
0.0224163
0.0205118
0.0188903
0.0175006
0.0163024
0.0152631
0.124267
0.0995604
0.0807712
0.0664676
0.0554886
0.0469631
0.0402594
0.0349228
0.0306248
0.0271258
0.0242488
0.0218611
0.0198626
0.0181762
0.0167426
0.0155152
0.0144575
0.0135405
0.12136
0.0936399
0.0737261
0.0593348
0.0487592
0.0408249
0.0347467
0.0300003
0.0262308
0.0231928
0.0207127
0.018665
0.0169572
0.0155198
0.0142999
0.0132567
0.0123583
0.0115798
0.117686
0.0865903
0.0656967
0.0514791
0.0415374
0.0343608
0.0290184
0.0249322
0.0217348
0.0191848
0.0171184
0.0154211
0.0140106
0.0128263
0.0118229
0.0109657
0.010228
0.00958895
0.11305
0.0784122
0.056921
0.0432687
0.0342296
0.0279652
0.0234365
0.0200435
0.0174263
0.0153597
0.0136966
0.0123369
0.0112106
0.0102671
0.00946866
0.0087872
0.00820102
0.00769347
0.107169
0.0691009
0.0476372
0.035029
0.0271566
0.021922
0.0182437
0.0155401
0.0134817
0.0118706
0.0105816
0.00953197
0.00866486
0.00793966
0.00732668
0.0068038
0.00635413
0.00596494
0.0996761
0.0587036
0.0381279
0.0270699
0.0205782
0.0164329
0.0135949
0.0115438
0.00999922
0.00879908
0.0078434
0.00706756
0.00642789
0.00589361
0.00544221
0.00505742
0.00472643
0.00444007
0.0901097
0.0473665
0.0287363
0.0196847
0.0146976
0.0116312
0.00957853
0.00811528
0.00702331
0.00617994
0.00551056
0.00496794
0.00452107
0.00414827
0.00383301
0.00356472
0.00333372
0.00313371
0.0779076
0.0353826
0.0198606
0.0131383
0.00966107
0.00759298
0.00623352
0.00527429
0.00456399
0.00401883
0.00358696
0.00323613
0.00294702
0.00270631
0.00250145
0.00232834
0.00217894
0.00204854
0.06238
0.0232554
0.0119461
0.00765493
0.00556337
0.00435256
0.00356724
0.00301639
0.00261307
0.00230794
0.00206655
0.00186723
0.00170189
0.00156502
0.00144553
0.00134639
0.00126138
0.00118392
0.0426105
0.0117794
0.0054693
0.00341385
0.00246071
0.00192005
0.00157275
0.00132885
0.00115942
0.00103848
0.000944014
0.000857668
0.000784384
0.000722045
0.000665947
0.000612684
0.000578676
0.000543128
0.0168348
0.00255985
0.00110002
0.000683428
0.000493724
0.000386804
0.000318219
0.000266309
0.000272607
0.000321975
0.000354621
0.000336933
0.000303216
0.000261442
0.000243772
0.000192782
0.000237442
0.000229573
3.99298e-09
5.91099e-07
2.0007e-06
6.28884e-06
1.08018e-05
1.35309e-05
1.32562e-05
1.17913e-05
9.06342e-06
5.94757e-06
3.52373e-06
2.02479e-06
1.40979e-06
1.5028e-06
2.06694e-06
2.56589e-06
2.45435e-06
2.06905e-06
2.54275e-06
8.67656e-06
9.02492e-06
5.55406e-06
6.7515e-06
2.65113e-05
5.67519e-05
7.44251e-05
9.09787e-05
0.000104827
0.000117047
0.000127208
0.000136112
0.000143758
0.000150449
0.000156276
0.000161358
0.000165844
0.000169818
0.000173369
0.000176551
0.00017941
0.000181975
0.000184268
0.000186308
0.000188111
0.000189692
0.000191063
0.000192235
0.000193215
0.000194004
0.000194476
0.000194974
0.000195082
0.000195144
0.000195019
0.00019472
0.000194274
0.000193675
0.000192928
0.000192034
0.000190996
0.000189815
0.000188493
0.000187033
0.000185437
0.000183709
0.000181849
0.000179858
0.00017774
0.000175497
0.00017313
0.000170642
0.000168035
0.00016531
0.000162468
0.000159512
0.000156441
0.000153257
0.00014996
0.000146551
0.000143029
0.000139391
0.000135636
0.000131757
0.000127749
0.000123603
0.000119308
0.000114853
0.000110221
0.000105391
0.00010034
9.50401e-05
8.94653e-05
8.36093e-05
7.75384e-05
7.15281e-05
6.62468e-05
6.24888e-05
6.01478e-05
5.83954e-05
5.67895e-05
5.52133e-05
5.36449e-05
5.20827e-05
5.05283e-05
4.89836e-05
4.74507e-05
4.59322e-05
4.44342e-05
4.2985e-05
4.17482e-05
4.05442e-05
3.93544e-05
3.81819e-05
3.70273e-05
3.58915e-05
3.47752e-05
3.36793e-05
3.26045e-05
3.15514e-05
3.05204e-05
2.9512e-05
2.85265e-05
2.75645e-05
2.66266e-05
2.57127e-05
2.48228e-05
2.39579e-05
2.31458e-05
2.24116e-05
2.1696e-05
2.09955e-05
2.03182e-05
1.96689e-05
1.90341e-05
1.84131e-05
1.78093e-05
1.72234e-05
1.66558e-05
1.61062e-05
1.55743e-05
1.50596e-05
1.45617e-05
1.40801e-05
1.36146e-05
1.31646e-05
1.27297e-05
1.23097e-05
1.19039e-05
1.15122e-05
1.11341e-05
1.07692e-05
1.04172e-05
1.00778e-05
9.75058e-06
9.4353e-06
9.13165e-06
8.83936e-06
8.55818e-06
8.28789e-06
8.02827e-06
7.77914e-06
7.54031e-06
7.31161e-06
7.09286e-06
6.88386e-06
6.68435e-06
6.494e-06
6.3124e-06
6.13901e-06
5.97304e-06
5.81373e-06
5.65946e-06
5.50982e-06
5.35983e-06
5.21409e-06
5.04805e-06
4.89408e-06
4.6477e-06
4.48953e-06
3.59443e-06
1.68161e-07
6.14195e-06
6.38798e-05
0.000139682
0.000183237
0.000207001
0.000216375
0.000214882
0.000206537
0.000189833
0.000169041
0.000148905
0.000138492
0.000143707
0.000157677
0.000166601
0.000169019
0.000170203
0.000175607
0.000185309
0.000200064
0.000217504
0.000234337
0.00025084
0.000262141
0.000272045
0.00028086
0.000293706
0.000312802
0.000326748
0.000339492
0.000350416
0.000360345
0.000369444
0.000377344
0.000384557
0.000391272
0.000397714
0.000404013
0.000410237
0.000416379
0.000422397
0.000428239
0.000433864
0.000439243
0.00044436
0.0004492
0.000453751
0.000458013
0.000461987
0.000465712
0.000469154
0.000472351
0.000475293
0.000477984
0.000480426
0.000482619
0.000484564
0.000486262
0.000487713
0.000488917
0.000489876
0.000490592
0.000491068
0.000491317
0.000491341
0.000491137
0.0004907
0.000490047
0.000489181
0.000488108
0.000486835
0.000485369
0.000483716
0.000481883
0.000479877
0.000477707
0.000475379
0.000472901
0.000470282
0.00046753
0.000464651
0.000461655
0.00045855
0.000455343
0.000452042
0.000448655
0.000445191
0.000441657
0.000438061
0.000434409
0.000430707
0.000426955
0.000423145
0.000419258
0.000415269
0.000411159
0.000406959
0.000402718
0.000398461
0.000394196
0.000389927
0.000385657
0.000381389
0.000377128
0.000372876
0.000368636
0.00036441
0.0003602
0.000356001
0.000351825
0.000347677
0.000343558
0.000339471
0.000335416
0.000331395
0.000327411
0.000323465
0.000319557
0.00031569
0.000311863
0.000308078
0.000304336
0.000300638
0.000296986
0.000293377
0.000289814
0.000286293
0.000282814
0.00027938
0.000275989
0.00027265
0.000269363
0.000266114
0.0002629
0.000259727
0.000256598
0.000253514
0.000250475
0.000247481
0.000244531
0.000241625
0.000238761
0.00023594
0.00023316
0.000230422
0.000227725
0.000225067
0.00022245
0.000219872
0.000217333
0.000214832
0.000212371
0.000209947
0.000207563
0.000205217
0.000202911
0.000200644
0.000198419
0.000196235
0.000194094
0.000191998
0.000189948
0.000187947
0.000185995
0.000184096
0.000182248
0.000180454
0.000178712
0.000177021
0.000175376
0.000173776
0.000172199
0.000170684
0.000169074
0.000167751
0.00016562
0.000164903
0.000162097
0.000160724
7.68575e-07
4.45399e-05
0.000164286
0.00024652
0.000299854
0.000330175
0.000341213
0.000338344
0.000325512
0.000306237
0.000286462
0.000273739
0.00027148
0.000278161
0.000288518
0.000299349
0.000312112
0.000329066
0.000350666
0.000375829
0.000403219
0.000431575
0.00046979
0.000516177
0.000561832
0.000605989
0.000649092
0.000692766
0.000732107
0.000763397
0.000788406
0.000808231
0.000823947
0.000836415
0.00084642
0.000854737
0.000862066
0.000869053
0.000876234
0.000883965
0.000892353
0.000901276
0.000910494
0.000919771
0.000928929
0.000937848
0.000946452
0.000954694
0.000962536
0.000969952
0.000976917
0.000983404
0.000989408
0.000994923
0.000999948
0.00100448
0.00100852
0.00101207
0.00101513
0.00101769
0.00101976
0.00102133
0.00102242
0.00102296
0.00102312
0.00102283
0.00102204
0.0010208
0.00101911
0.00101699
0.00101445
0.00101151
0.00100817
0.00100446
0.00100038
0.000995944
0.000991176
0.000986088
0.000980694
0.000975009
0.000969049
0.000962828
0.000956362
0.000949666
0.000942755
0.000935644
0.000928348
0.00092088
0.000913255
0.000905485
0.000897583
0.000889559
0.000881424
0.000873185
0.00086485
0.00085643
0.000847936
0.000839385
0.000830792
0.000822172
0.000813535
0.00080489
0.000796244
0.000787606
0.000778982
0.000770381
0.000761807
0.000753267
0.000744767
0.000736312
0.000727907
0.000719559
0.000711272
0.00070305
0.000694896
0.000686814
0.000678806
0.000670877
0.000663028
0.000655262
0.000647581
0.000639986
0.00063248
0.000625064
0.00061774
0.000610508
0.000603368
0.000596321
0.000589368
0.000582509
0.000575745
0.000569076
0.0005625
0.000556011
0.000549609
0.000543296
0.000537074
0.000530943
0.000524903
0.000518954
0.000513096
0.000507326
0.000501645
0.000496051
0.000490542
0.000485118
0.000479778
0.00047452
0.000469343
0.000464247
0.000459229
0.00045429
0.000449427
0.000444641
0.000439928
0.00043529
0.000430724
0.000426229
0.000421804
0.000417448
0.000413159
0.000408937
0.000404778
0.000400681
0.000396643
0.000392661
0.000388731
0.000384847
0.000381003
0.000377191
0.000373397
0.000369608
0.0003658
0.000361953
0.000357993
0.000353953
0.000349471
0.000345077
0.000338588
0.00032713
5.07046e-07
8.12881e-05
0.000212969
0.000309202
0.000372985
0.000410396
0.00042597
0.00042636
0.000416348
0.000402944
0.000394788
0.000393951
0.000403179
0.000420391
0.000443147
0.000470903
0.000504256
0.000543567
0.000588025
0.000650262
0.000724127
0.000803919
0.000888181
0.000958842
0.00102127
0.0010774
0.00112781
0.00117272
0.00121198
0.00124587
0.00127511
0.00130044
0.00132256
0.00134211
0.00135964
0.00137567
0.00139059
0.00140476
0.00141842
0.00143177
0.00144494
0.00145799
0.00147095
0.0014838
0.0014965
0.00150896
0.00152109
0.00153279
0.00154398
0.00155458
0.00156454
0.00157381
0.00158239
0.00159025
0.00159739
0.00160379
0.00160947
0.0016144
0.0016186
0.00162207
0.00162479
0.00162677
0.00162792
0.00162836
0.00162823
0.00162732
0.0016257
0.00162338
0.00162038
0.00161672
0.00161242
0.0016075
0.00160198
0.00159588
0.00158922
0.00158203
0.00157432
0.00156613
0.00155746
0.00154835
0.00153882
0.00152889
0.00151859
0.00150794
0.00149695
0.00148566
0.00147409
0.00146225
0.00145017
0.00143787
0.00142537
0.00141269
0.00139984
0.00138684
0.00137371
0.00136046
0.00134711
0.00133368
0.00132019
0.00130665
0.00129309
0.00127952
0.00126594
0.00125238
0.00123885
0.00122535
0.00121189
0.00119848
0.00118514
0.00117188
0.00115869
0.00114559
0.00113258
0.00111967
0.00110687
0.00109419
0.00108162
0.00106917
0.00105684
0.00104465
0.00103258
0.00102065
0.00100886
0.000997204
0.000985692
0.000974322
0.000963096
0.000952015
0.000941079
0.000930289
0.000919645
0.000909148
0.000898794
0.000888578
0.000878502
0.000868565
0.000858768
0.000849112
0.000839597
0.000830222
0.000820987
0.000811888
0.000802926
0.000794098
0.000785403
0.000776839
0.000768405
0.000760097
0.000751916
0.000743859
0.000735923
0.000728108
0.000720411
0.000712832
0.000705367
0.000698015
0.000690774
0.000683642
0.000676617
0.000669698
0.000662881
0.000656163
0.000649543
0.000643016
0.000636579
0.000630226
0.000623951
0.000617748
0.000611605
0.000605511
0.00059945
0.0005934
0.000587332
0.000581208
0.000574965
0.000568545
0.000561768
0.000554576
0.000546334
0.000530144
1.49338e-06
0.000102058
0.000235122
0.000355057
0.000433972
0.00048148
0.000505116
0.000513585
0.000515159
0.000516147
0.000523026
0.000539189
0.000565247
0.000600235
0.000643362
0.000694647
0.000754733
0.000838153
0.000933827
0.00103004
0.00111905
0.00120345
0.00128279
0.00135549
0.00142225
0.00148367
0.00154013
0.00159199
0.00163959
0.00168335
0.00172379
0.00176135
0.00179649
0.00182957
0.0018609
0.00189074
0.00191929
0.00194668
0.001973
0.00199833
0.00202269
0.0020461
0.00206855
0.00209001
0.00211048
0.00212991
0.00214828
0.00216556
0.00218171
0.00219674
0.00221061
0.00222334
0.00223493
0.0022454
0.00225477
0.00226306
0.00227027
0.00227644
0.00228156
0.00228567
0.00228876
0.00229081
0.00229173
0.00229182
0.00229094
0.00228906
0.00228623
0.00228246
0.00227777
0.00227219
0.00226574
0.00225846
0.00225036
0.00224148
0.00223185
0.00222149
0.00221045
0.00219875
0.00218641
0.00217349
0.00215999
0.00214596
0.00213142
0.00211641
0.00210096
0.00208509
0.00206885
0.00205225
0.00203533
0.00201812
0.00200063
0.00198291
0.00196496
0.00194683
0.00192852
0.00191006
0.00189148
0.0018728
0.00185404
0.00183523
0.00181639
0.00179753
0.00177867
0.00175983
0.00174103
0.00172228
0.00170359
0.00168498
0.00166646
0.00164804
0.00162973
0.00161154
0.00159348
0.00157556
0.00155779
0.00154017
0.00152271
0.00150542
0.0014883
0.00147136
0.00145459
0.00143802
0.00142163
0.00140543
0.00138942
0.00137361
0.001358
0.00134258
0.00132737
0.00131235
0.00129753
0.00128291
0.00126849
0.00125426
0.00124022
0.00122638
0.00121273
0.00119926
0.001186
0.00117292
0.00116003
0.00114733
0.00113481
0.00112247
0.00111032
0.00109835
0.00108655
0.00107492
0.00106347
0.00105218
0.00104106
0.0010301
0.00101931
0.00100867
0.000998187
0.000987857
0.000977678
0.000967646
0.000957759
0.000948014
0.000938407
0.000928936
0.000919595
0.000910381
0.000901288
0.00089231
0.00088344
0.000874669
0.000865985
0.000857372
0.000848813
0.000840282
0.000831745
0.000823159
0.000814455
0.000805564
0.00079632
0.000786576
0.000776607
0.000756788
2.27162e-06
0.000118201
0.000256368
0.00039015
0.000487237
0.000549155
0.000587018
0.000610481
0.000628239
0.000647564
0.000673708
0.000709321
0.000755139
0.000811435
0.000878613
0.000969117
0.00107425
0.00117597
0.00127519
0.00137069
0.00146139
0.00154739
0.00162863
0.00170509
0.00177705
0.00184487
0.00190889
0.00196944
0.00202685
0.00208146
0.00213358
0.00218351
0.00223149
0.00227774
0.0023224
0.00236562
0.00240747
0.00244801
0.00248726
0.00252525
0.00256196
0.00259738
0.00263147
0.00266421
0.00269555
0.00272545
0.00275388
0.00278079
0.00280615
0.00282992
0.00285207
0.00287259
0.00289146
0.00290866
0.0029242
0.00293807
0.00295027
0.00296081
0.0029697
0.00297696
0.00298262
0.0029867
0.00298913
0.00299003
0.00298956
0.00298759
0.00298425
0.00297955
0.00297354
0.00296629
0.00295784
0.00294825
0.00293757
0.00292584
0.00291312
0.00289945
0.00288489
0.00286948
0.00285325
0.00283626
0.00281855
0.00280015
0.00278112
0.00276149
0.0027413
0.00272059
0.0026994
0.00267777
0.00265574
0.00263334
0.00261061
0.00258758
0.00256428
0.00254075
0.00251702
0.00249311
0.00246905
0.00244488
0.00242062
0.0023963
0.00237193
0.00234756
0.0023232
0.00229886
0.00227457
0.00225036
0.00222623
0.00220219
0.00217828
0.0021545
0.00213086
0.00210738
0.00208407
0.00206093
0.00203799
0.00201524
0.0019927
0.00197037
0.00194826
0.00192638
0.00190473
0.00188331
0.00186214
0.0018412
0.00182052
0.00180008
0.00177989
0.00175995
0.00174026
0.00172083
0.00170165
0.00168272
0.00166404
0.00164561
0.00162743
0.00160948
0.00159179
0.00157433
0.00155712
0.00154015
0.00152342
0.00150692
0.00149066
0.00147463
0.00145883
0.00144325
0.00142789
0.00141275
0.00139783
0.00138312
0.00136862
0.00135432
0.00134023
0.00132634
0.00131264
0.00129913
0.00128581
0.00127268
0.00125973
0.00124696
0.00123436
0.00122193
0.00120967
0.00119757
0.00118562
0.00117382
0.00116216
0.00115062
0.00113921
0.00112789
0.00111664
0.00110545
0.00109428
0.00108307
0.00107177
0.00106029
0.00104848
0.00103626
0.00102408
0.0010016
2.80549e-06
0.00012682
0.000269279
0.000407726
0.000526499
0.000608033
0.000664237
0.000706245
0.000743303
0.000782675
0.000829418
0.000886481
0.00095549
0.00104782
0.00115482
0.00126143
0.00136754
0.0014709
0.00157097
0.00166733
0.00175973
0.00184816
0.00193273
0.00201358
0.00209097
0.00216517
0.00223645
0.00230508
0.00237131
0.00243539
0.00249751
0.00255787
0.0026166
0.00267383
0.00272964
0.00278408
0.0028372
0.002889
0.00293948
0.00298861
0.00303638
0.00308274
0.00312765
0.00317106
0.00321292
0.00325317
0.00329176
0.00332865
0.00336377
0.00339709
0.00342856
0.00345814
0.00348579
0.00351149
0.00353522
0.00355694
0.00357665
0.00359433
0.00360999
0.00362361
0.00363521
0.00364479
0.00365237
0.00365798
0.00366164
0.00366325
0.00366317
0.00366118
0.00365741
0.00365189
0.00364468
0.00363584
0.00362542
0.00361349
0.00360011
0.00358534
0.00356925
0.00355191
0.00353338
0.00351373
0.00349303
0.00347134
0.00344873
0.00342527
0.00340102
0.00337605
0.0033504
0.00332415
0.00329734
0.00327003
0.00324228
0.00321413
0.00318562
0.0031568
0.00312772
0.00309841
0.00306891
0.00303926
0.0030095
0.00297965
0.00294975
0.00291982
0.00288991
0.00286003
0.0028302
0.00280046
0.00277082
0.0027413
0.00271192
0.0026827
0.00265366
0.0026248
0.00259615
0.00256771
0.00253951
0.00251154
0.00248382
0.00245636
0.00242917
0.00240225
0.0023756
0.00234925
0.00232318
0.0022974
0.00227192
0.00224674
0.00222186
0.00219729
0.00217301
0.00214905
0.00212538
0.00210202
0.00207896
0.0020562
0.00203374
0.00201157
0.0019897
0.00196811
0.00194683
0.00192582
0.00190511
0.00188468
0.00186453
0.00184466
0.00182506
0.00180573
0.00178667
0.00176787
0.00174933
0.00173105
0.00171301
0.00169522
0.00167768
0.00166037
0.0016433
0.00162646
0.00160985
0.00159346
0.00157729
0.00156134
0.00154559
0.00153006
0.00151472
0.00149957
0.00148462
0.00146984
0.00145524
0.00144079
0.00142649
0.00141232
0.00139826
0.00138427
0.00137032
0.00135637
0.00134235
0.00132818
0.0013137
0.00129894
0.00128393
0.00125968
2.9424e-06
0.000128734
0.000270668
0.000407306
0.000538107
0.000641775
0.000719037
0.000780489
0.000836292
0.000894149
0.000961755
0.00105372
0.00116336
0.00128509
0.00140067
0.00151194
0.00161977
0.00172435
0.0018256
0.00192347
0.00201797
0.00210917
0.00219723
0.00228232
0.00236467
0.00244451
0.00252205
0.0025975
0.00267106
0.0027429
0.00281317
0.00288197
0.0029494
0.00301552
0.00308038
0.003144
0.00320637
0.00326748
0.00332731
0.00338581
0.00344293
0.00349862
0.00355282
0.00360547
0.0036565
0.00370585
0.00375346
0.00379925
0.00384317
0.00388516
0.00392517
0.00396313
0.00399902
0.00403278
0.00406437
0.00409377
0.00412094
0.00414588
0.00416855
0.00418895
0.00420708
0.00422293
0.00423651
0.00424784
0.00425693
0.00426379
0.00426852
0.00427097
0.0042714
0.00426976
0.00426609
0.00426045
0.00425288
0.00424345
0.00423222
0.00421925
0.0042046
0.00418834
0.00417055
0.00415128
0.00413061
0.00410862
0.00408537
0.00406094
0.0040354
0.00400883
0.00398128
0.00395284
0.00392357
0.00389354
0.00386281
0.00383145
0.00379951
0.00376707
0.00373417
0.00370087
0.00366723
0.00363329
0.00359911
0.00356474
0.00353021
0.00349557
0.00346087
0.00342613
0.0033914
0.0033567
0.00332207
0.00328753
0.00325311
0.00321884
0.00318474
0.00315083
0.00311712
0.00308364
0.00305041
0.00301743
0.00298472
0.00295229
0.00292016
0.00288833
0.00285681
0.0028256
0.00279473
0.00276418
0.00273397
0.0027041
0.00267458
0.00264539
0.00261656
0.00258807
0.00255993
0.00253214
0.00250469
0.00247759
0.00245083
0.00242441
0.00239833
0.00237259
0.00234718
0.00232211
0.00229737
0.00227296
0.00224887
0.0022251
0.00220164
0.0021785
0.00215567
0.00213315
0.00211092
0.00208899
0.00206735
0.002046
0.00202493
0.00200414
0.00198363
0.00196338
0.0019434
0.00192368
0.00190422
0.00188501
0.00186604
0.00184732
0.00182883
0.00181057
0.00179254
0.00177471
0.0017571
0.00173967
0.00172242
0.00170533
0.00168837
0.00167153
0.00165474
0.00163798
0.00162117
0.00160424
0.00158704
0.00156964
0.0015517
0.00152556
2.75936e-06
0.000125268
0.000264043
0.000395768
0.00052054
0.000633072
0.000727058
0.000808262
0.000891324
0.000986672
0.00109592
0.00122062
0.00135703
0.00148455
0.00160485
0.00171988
0.00183059
0.00193736
0.00204051
0.00214039
0.00223722
0.00233119
0.0024225
0.00251136
0.00259798
0.00268256
0.00276528
0.00284633
0.00292585
0.00300398
0.00308082
0.00315645
0.00323092
0.00330428
0.00337652
0.00344766
0.00351766
0.00358648
0.00365409
0.00372041
0.0037854
0.00384897
0.00391105
0.00397157
0.00403045
0.00408761
0.00414298
0.00419647
0.00424802
0.00429755
0.00434501
0.00439032
0.00443344
0.00447431
0.00451289
0.00454914
0.00458302
0.0046145
0.00464356
0.00467019
0.00469437
0.00471609
0.00473537
0.0047522
0.00476661
0.0047786
0.0047882
0.00479544
0.00480037
0.00480294
0.00480332
0.00480151
0.00479754
0.00479148
0.00478338
0.0047733
0.0047613
0.00474744
0.0047318
0.00471444
0.00469543
0.00467485
0.00465276
0.00462923
0.00460434
0.00457817
0.00455079
0.00452226
0.00449266
0.00446207
0.00443054
0.00439816
0.00436498
0.00433107
0.0042965
0.00426133
0.00422563
0.00418944
0.00415283
0.00411585
0.00407857
0.00404102
0.00400327
0.00396534
0.0039273
0.00388918
0.00385102
0.00381286
0.00377472
0.00373666
0.00369869
0.00366085
0.00362316
0.00358564
0.00354833
0.00351123
0.00347438
0.00343778
0.00340146
0.00336543
0.0033297
0.00329428
0.00325918
0.00322442
0.00319
0.00315593
0.00312222
0.00308886
0.00305587
0.00302324
0.00299099
0.0029591
0.00292759
0.00289644
0.00286567
0.00283527
0.00280523
0.00277557
0.00274627
0.00271734
0.00268876
0.00266055
0.0026327
0.0026052
0.00257805
0.00255125
0.0025248
0.00249868
0.00247289
0.00244744
0.00242231
0.00239751
0.00237302
0.00234885
0.00232498
0.00230142
0.00227816
0.00225519
0.00223251
0.00221012
0.00218801
0.00216618
0.00214461
0.0021233
0.00210225
0.00208144
0.00206087
0.00204053
0.00202039
0.00200043
0.00198064
0.00196098
0.00194141
0.00192188
0.00190233
0.00188267
0.00186278
0.00184272
0.00182197
0.00179364
2.34433e-06
0.000117988
0.000252847
0.000380972
0.000503943
0.000620478
0.00073137
0.000840483
0.000955414
0.00108132
0.00121944
0.00136922
0.00151153
0.00164352
0.00176779
0.00188622
0.00199994
0.00210959
0.00221555
0.00231804
0.00241744
0.00251415
0.00260845
0.00270061
0.00279085
0.00287937
0.00296636
0.00305198
0.00313635
0.00321959
0.00330178
0.00338298
0.00346322
0.00354252
0.00362086
0.00369822
0.00377457
0.00384985
0.00392399
0.00399692
0.00406857
0.00413884
0.00420764
0.0042749
0.00434051
0.00440438
0.00446644
0.00452658
0.00458473
0.00464081
0.00469474
0.00474646
0.0047959
0.004843
0.0048877
0.00492997
0.00496976
0.00500703
0.00504177
0.00507394
0.00510353
0.00513054
0.00515496
0.0051768
0.00519606
0.00521277
0.00522693
0.00523859
0.00524776
0.00525448
0.0052588
0.00526074
0.0052604
0.00525779
0.00525297
0.00524601
0.00523695
0.00522587
0.00521283
0.0051979
0.00518114
0.00516262
0.00514241
0.00512059
0.00509723
0.00507241
0.00504618
0.00501864
0.00498984
0.00495986
0.00492878
0.00489666
0.00486356
0.00482956
0.00479473
0.00475913
0.00472282
0.00468586
0.00464833
0.00461027
0.00457175
0.00453282
0.00449354
0.00445396
0.00441412
0.00437407
0.00433386
0.00429353
0.00425313
0.00421268
0.00417224
0.00413182
0.00409147
0.00405121
0.00401107
0.00397109
0.00393128
0.00389167
0.00385227
0.00381312
0.00377422
0.00373559
0.00369726
0.00365922
0.0036215
0.0035841
0.00354704
0.00351032
0.00347395
0.00343794
0.00340229
0.003367
0.00333209
0.00329755
0.00326338
0.00322958
0.00319617
0.00316313
0.00313047
0.00309818
0.00306627
0.00303474
0.00300358
0.00297279
0.00294236
0.00291231
0.00288262
0.00285328
0.00282431
0.00279568
0.00276741
0.00273948
0.00271189
0.00268464
0.00265772
0.00263113
0.00260487
0.00257892
0.0025533
0.00252798
0.00250297
0.00247826
0.00245385
0.00242972
0.00240588
0.0023823
0.00235899
0.00233593
0.0023131
0.00229048
0.00226804
0.00224576
0.00222359
0.00220149
0.00217937
0.00215717
0.00213477
0.00211219
0.00208889
0.00205823
1.92685e-06
0.000110307
0.000242562
0.000369906
0.000495646
0.000620077
0.000745003
0.000874496
0.00101187
0.0011592
0.00131663
0.00147843
0.00162624
0.00176269
0.0018908
0.00201256
0.00212925
0.00224169
0.00235043
0.00245584
0.00255823
0.00265778
0.00275496
0.00285009
0.00294347
0.00303535
0.00312591
0.00321531
0.00330369
0.00339115
0.00347777
0.00356358
0.0036486
0.00373285
0.0038163
0.0038989
0.0039806
0.00406134
0.00414104
0.0042196
0.00429693
0.00437295
0.00444753
0.00452058
0.00459201
0.0046617
0.00472955
0.00479548
0.00485938
0.00492117
0.00498076
0.00503808
0.00509306
0.00514563
0.00519573
0.00524331
0.00528833
0.00533074
0.00537051
0.00540763
0.00544207
0.00547382
0.00550287
0.00552923
0.0055529
0.0055739
0.00559225
0.00560798
0.0056211
0.00563166
0.00563968
0.00564523
0.00564834
0.00564906
0.00564746
0.00564358
0.00563749
0.00562924
0.0056189
0.00560654
0.00559221
0.005576
0.00555797
0.00553819
0.00551673
0.00549367
0.00546908
0.00544303
0.0054156
0.00538684
0.00535685
0.00532568
0.0052934
0.00526008
0.00522579
0.0051906
0.00515457
0.00511776
0.00508024
0.00504207
0.00500331
0.00496402
0.00492425
0.00488405
0.00484349
0.0048026
0.00476143
0.00472004
0.00467847
0.00463675
0.00459493
0.00455304
0.00451113
0.00446923
0.00442736
0.00438556
0.00434387
0.00430229
0.00426087
0.00421962
0.00417856
0.00413772
0.00409712
0.00405677
0.00401668
0.00397688
0.00393737
0.00389817
0.00385928
0.00382072
0.0037825
0.00374462
0.00370708
0.0036699
0.00363308
0.00359662
0.00356052
0.00352479
0.00348943
0.00345444
0.00341982
0.00338558
0.00335171
0.0033182
0.00328507
0.00325231
0.00321992
0.00318789
0.00315622
0.00312492
0.00309397
0.00306338
0.00303314
0.00300325
0.00297371
0.00294451
0.00291564
0.00288712
0.00285892
0.00283105
0.00280351
0.00277628
0.00274937
0.00272276
0.00269645
0.00267044
0.0026447
0.00261923
0.00259401
0.00256903
0.00254425
0.00251963
0.00249516
0.00247075
0.00244636
0.00242191
0.00239729
0.00237249
0.00234698
0.00231416
1.54343e-06
0.000102166
0.00023207
0.000359051
0.000487716
0.000618984
0.000755516
0.000899229
0.00105185
0.00121391
0.00138594
0.00155191
0.0017037
0.00184402
0.00197563
0.00210051
0.00222001
0.00233506
0.00244632
0.0025543
0.00265938
0.00276185
0.002862
0.00296
0.00305628
0.00315114
0.00324481
0.00333747
0.00342927
0.00352032
0.00361069
0.00370041
0.00378951
0.00387797
0.00396577
0.00405284
0.00413913
0.00422456
0.00430902
0.00439243
0.00447468
0.00455565
0.00463524
0.00471333
0.0047898
0.00486454
0.00493745
0.00500842
0.00507735
0.00514413
0.00520869
0.00527094
0.00533079
0.00538819
0.00544306
0.00549534
0.005545
0.00559198
0.00563626
0.0056778
0.00571659
0.0057526
0.00578584
0.00581631
0.005844
0.00586893
0.00589113
0.00591061
0.0059274
0.00594154
0.00595305
0.00596199
0.00596839
0.00597232
0.00597381
0.00597294
0.00596977
0.00596434
0.00595672
0.00594697
0.00593516
0.00592136
0.00590564
0.00588806
0.00586871
0.00584765
0.00582496
0.0058007
0.00577495
0.00574778
0.00571926
0.00568946
0.00565844
0.00562628
0.00559305
0.0055588
0.0055236
0.00548753
0.00545064
0.00541299
0.00537465
0.00533567
0.00529611
0.00525603
0.00521547
0.00517449
0.00513315
0.00509147
0.00504952
0.00500734
0.00496496
0.00492244
0.0048798
0.00483708
0.00479432
0.00475156
0.00470881
0.00466612
0.0046235
0.004581
0.00453862
0.0044964
0.00445435
0.0044125
0.00437086
0.00432945
0.00428828
0.00424738
0.00420675