/*--------------------------------*- C++ -*----------------------------------*\
| =========                 |                                                 |
| \\      /  F ield         | OpenFOAM: The Open Source CFD Toolbox           |
|  \\    /   O peration     | Version:  v2012                                 |
|   \\  /    A nd           | Website:  www.openfoam.com                      |
|    \\/     M anipulation  |                                                 |
\*---------------------------------------------------------------------------*/
FoamFile
{
    version     2.0;
    format      ascii;
    class       volScalarField;
    location    "1700";
    object      k;
}
// * * * * * * * * * * * * * * * * * * * * * * * * * * * * * * * * * * * * * //

dimensions      [0 2 -2 0 0 0 0];


internalField   nonuniform List<scalar> 
12225
(
0.543885
0.818948
0.988292
1.07563
1.10187
1.09591
1.0793
1.04939
1.01744
0.98687
0.958501
0.932431
0.909932
0.888608
0.872553
0.854734
0.845859
0.829999
0.378168
0.388789
0.400586
0.415713
0.429763
0.446378
0.462292
0.482888
0.502387
0.527318
0.544081
0.567231
0.581721
0.602936
0.615171
0.634304
0.643836
0.660428
0.37395
0.372986
0.370186
0.366321
0.362868
0.358054
0.353428
0.348847
0.345006
0.34205
0.339293
0.337355
0.335457
0.334375
0.333222
0.33284
0.332113
0.332288
0.37366
0.371716
0.368853
0.365524
0.362861
0.359357
0.356241
0.352374
0.348954
0.344939
0.341425
0.337457
0.334035
0.330221
0.326956
0.323457
0.320419
0.317314
0.373875
0.371564
0.369157
0.366391
0.364097
0.361464
0.359191
0.356522
0.354156
0.351395
0.348929
0.346061
0.343526
0.340681
0.338214
0.335467
0.333158
0.330541
0.373897
0.371611
0.369433
0.367053
0.364958
0.362741
0.360785
0.358685
0.356786
0.354715
0.352814
0.350735
0.348824
0.346756
0.34489
0.342872
0.341104
0.339158
0.373869
0.371614
0.369514
0.367362
0.365383
0.363392
0.361578
0.359748
0.35806
0.356332
0.354714
0.353043
0.351472
0.349845
0.34833
0.346757
0.345321
0.343807
0.373853
0.371597
0.369501
0.367434
0.365502
0.36361
0.361851
0.360129
0.35852
0.356931
0.355431
0.353935
0.352516
0.351091
0.349747
0.34839
0.347124
0.345828
0.373843
0.371584
0.369474
0.367439
0.365524
0.363677
0.361942
0.36027
0.358697
0.357173
0.355729
0.354321
0.352982
0.351667
0.350419
0.349185
0.34802
0.346856
0.373836
0.371574
0.369448
0.367421
0.365506
0.363677
0.36195
0.360299
0.358738
0.357243
0.355826
0.354462
0.353165
0.351911
0.350718
0.349559
0.348456
0.347379
0.373832
0.371567
0.369429
0.367399
0.365478
0.363651
0.361921
0.360275
0.358713
0.357225
0.355812
0.354462
0.353179
0.35195
0.350778
0.349654
0.34858
0.347549
0.373829
0.371562
0.369416
0.367381
0.365453
0.363622
0.361886
0.360236
0.358669
0.357177
0.35576
0.354409
0.353124
0.351899
0.35073
0.349615
0.348548
0.347531
0.373828
0.371557
0.369406
0.367367
0.365433
0.363598
0.361856
0.3602
0.358627
0.35713
0.355706
0.354351
0.35306
0.35183
0.350656
0.349538
0.34847
0.347451
0.373826
0.371554
0.3694
0.367357
0.365419
0.363579
0.361832
0.360172
0.358593
0.357092
0.355662
0.354302
0.353005
0.351769
0.350591
0.349468
0.348394
0.347372
0.373826
0.371552
0.369395
0.367349
0.365408
0.363565
0.361814
0.36015
0.358568
0.357062
0.355628
0.354263
0.352962
0.351722
0.35054
0.349412
0.348335
0.347308
0.373825
0.37155
0.369392
0.367344
0.365401
0.363555
0.361802
0.360135
0.358549
0.35704
0.355603
0.354235
0.35293
0.351687
0.350501
0.349371
0.348291
0.347261
0.373825
0.371549
0.36939
0.367341
0.365396
0.363549
0.361793
0.360124
0.358536
0.357025
0.355586
0.354215
0.352908
0.351663
0.350475
0.349342
0.34826
0.347228
0.373825
0.371549
0.369389
0.36734
0.365394
0.363546
0.361789
0.360119
0.35853
0.357017
0.355577
0.354205
0.352897
0.35165
0.350461
0.349326
0.348243
0.347209
0.373825
0.371549
0.36939
0.367341
0.365395
0.363547
0.36179
0.360119
0.35853
0.357017
0.355576
0.354203
0.352895
0.351647
0.350457
0.349322
0.348239
0.347205
0.373825
0.37155
0.369391
0.367343
0.365398
0.36355
0.361794
0.360124
0.358534
0.357022
0.355581
0.354209
0.352901
0.351653
0.350464
0.349329
0.348246
0.347212
0.373826
0.371551
0.369394
0.367347
0.365403
0.363556
0.361801
0.360132
0.358544
0.357032
0.355593
0.354221
0.352914
0.351667
0.350478
0.349343
0.34826
0.347226
0.373826
0.371554
0.369398
0.367353
0.36541
0.363566
0.361812
0.360145
0.358559
0.357049
0.355609
0.354238
0.352929
0.351682
0.35049
0.349353
0.348267
0.347229
0.373827
0.371557
0.369404
0.367362
0.365421
0.363578
0.361826
0.36016
0.358573
0.35706
0.355615
0.354236
0.352916
0.351654
0.350446
0.349293
0.348186
0.347129
0.373826
0.371566
0.369412
0.367372
0.365427
0.363581
0.361821
0.360146
0.358542
0.357007
0.355527
0.354105
0.352733
0.351417
0.350148
0.348933
0.347759
0.346637
0.373824
0.371583
0.369409
0.367358
0.365386
0.363515
0.361713
0.35999
0.358312
0.356687
0.355091
0.353543
0.352026
0.350567
0.349144
0.347782
0.34645
0.345182
0.37381
0.371589
0.369338
0.36725
0.365197
0.36325
0.361317
0.359448
0.357561
0.355707
0.353835
0.352007
0.350186
0.348433
0.346703
0.345052
0.343423
0.341878
0.373692
0.371545
0.369169
0.367059
0.36484
0.36272
0.360454
0.358234
0.355868
0.353535
0.351109
0.34875
0.346369
0.344092
0.341841
0.33971
0.33762
0.335654
0.373267
0.371958
0.369769
0.367809
0.365365
0.362956
0.36008
0.357283
0.354174
0.35123
0.348176
0.345343
0.342604
0.340086
0.337827
0.335721
0.333979
0.332237
0.375001
0.378395
0.380732
0.384336
0.387604
0.391539
0.395438
0.400053
0.404898
0.410476
0.416362
0.422783
0.42974
0.436909
0.444866
0.452533
0.460636
0.46762
0.448274
0.580698
0.68528
0.765187
0.822254
0.861982
0.886861
0.902513
0.91178
0.915901
0.915305
0.912344
0.90744
0.900676
0.892152
0.883761
0.875652
0.867883
4.25965e-06
3.37842e-05
8.70015e-05
0.000168875
0.000269713
0.000389206
0.000588245
0.000918465
0.00141127
0.00205406
0.00275014
0.00345956
0.00412277
0.00470944
0.00521162
0.00561798
0.00593195
0.00614266
0.00627535
0.00627892
0.00621547
0.00612156
0.00589013
0.0055098
0.00496413
0.0042366
0.00334007
0.00233097
0.00134248
0.000579178
0.000169929
4.64307e-05
3.60048e-05
3.93947e-05
4.55148e-05
5.38941e-05
6.33845e-05
7.08864e-05
8.22687e-05
0.000126523
0.000318414
0.000712623
0.00133275
0.00186819
0.00221205
0.00220838
0.00210328
0.00189887
0.00165654
0.00145997
0.00145195
0.00170953
0.00224133
0.00245298
0.00288215
0.00381847
0.00756084
0.0220718
0.0409519
0.0597736
0.0775154
0.0941848
0.109784
0.12455
0.138612
0.152206
0.165303
0.177489
0.189183
0.200233
0.210874
0.221057
0.230921
0.240458
0.249749
0.258795
0.267641
0.276295
0.284796
0.293132
0.301337
0.309397
0.317334
0.325137
0.332817
0.340365
0.347786
0.35507
0.362217
0.369218
0.376066
0.382751
0.389265
0.395596
0.401734
0.407669
0.413395
0.418913
0.424233
0.429385
0.434429
0.439301
0.44399
0.448509
0.452847
0.457005
0.460975
0.464755
0.468341
0.471729
0.474916
0.477898
0.480672
0.483238
0.485591
0.487731
0.489656
0.491366
0.49286
0.494138
0.4952
0.496049
0.496685
0.497111
0.497329
0.497339
0.497225
0.496871
0.496246
0.495471
0.494364
0.493065
0.491533
0.489795
0.4879
0.485829
0.483549
0.481063
0.478417
0.475586
0.472593
0.469434
0.466117
0.462648
0.459031
0.455276
0.451396
0.447374
0.44327
0.438977
0.43465
0.430128
0.425603
0.420885
0.416202
0.411328
0.40653
0.401541
0.396664
0.391604
0.386622
0.381557
0.376494
0.371407
0.366311
0.361212
0.356119
0.351039
0.345978
0.340936
0.335911
0.330894
0.325871
0.320825
0.315708
0.310457
0.30504
0.299967
0.29618
0.280255
2.07891e-05
1.40205e-05
4.74783e-05
0.000121824
0.000308533
0.000890943
0.00210002
0.00394717
0.00619193
0.00851639
0.0106947
0.0126231
0.01412
0.0151658
0.0158075
0.0160661
0.0160135
0.0157998
0.0154027
0.0148334
0.0140712
0.0131059
0.0119665
0.0106367
0.00920953
0.00762476
0.00610043
0.00466053
0.0033178
0.00216115
0.00128652
0.000718564
0.000395704
0.000224421
0.000138661
9.93126e-05
8.96463e-05
0.000128974
0.000309939
0.00057615
0.00210347
0.00443545
0.00771151
0.0101923
0.0115084
0.0114597
0.0109631
0.00968055
0.00836418
0.00843886
0.009768
0.0133945
0.0173852
0.0236756
0.0333394
0.0468696
0.0661511
0.0924791
0.116747
0.143458
0.16951
0.196383
0.223163
0.250032
0.276648
0.30282
0.328368
0.353131
0.377128
0.400291
0.422702
0.444385
0.465439
0.48594
0.505935
0.525506
0.5447
0.563557
0.582156
0.600489
0.618616
0.63653
0.654264
0.671816
0.689198
0.70641
0.723453
0.740323
0.757016
0.773522
0.789832
0.80593
0.821803
0.837428
0.852785
0.867846
0.882581
0.896959
0.910943
0.9245
0.937611
0.950441
0.962999
0.975275
0.987262
0.998949
1.01033
1.02138
1.0321
1.04248
1.05251
1.06217
1.07147
1.08038
1.08891
1.09704
1.10477
1.11209
1.11901
1.1255
1.13158
1.13724
1.14247
1.14729
1.15168
1.15566
1.15925
1.16244
1.16527
1.16778
1.17002
1.17182
1.1732
1.17401
1.17451
1.17472
1.17455
1.17386
1.1728
1.17135
1.16953
1.16733
1.16476
1.16184
1.15858
1.15497
1.15104
1.14682
1.14225
1.13743
1.13224
1.12684
1.1211
1.11517
1.10894
1.10258
1.09594
1.08922
1.08227
1.07525
1.06806
1.06078
1.05339
1.04591
1.03835
1.03073
1.02306
1.01537
1.00768
0.999985
0.992292
0.984591
0.976857
0.969053
0.961099
0.952869
0.944169
0.934728
0.922752
0.895303
2.48637e-05
1.16845e-05
5.33875e-05
0.000232117
0.000736295
0.00219404
0.00476974
0.00781305
0.0109097
0.0137889
0.0162832
0.018303
0.0198269
0.0208832
0.0215086
0.0217923
0.0217617
0.0215802
0.021221
0.0206807
0.020011
0.0192075
0.0182656
0.0171662
0.0158721
0.0144249
0.0126956
0.0107698
0.0087719
0.00678416
0.00497447
0.00333848
0.0021319
0.00136376
0.000893225
0.000642346
0.000493263
0.000380808
0.00116746
0.00207551
0.00621646
0.0127779
0.0189018
0.0231117
0.0253006
0.0261378
0.026545
0.0270674
0.0291286
0.0354095
0.0470315
0.0646834
0.0806167
0.101699
0.125813
0.153007
0.183574
0.214973
0.249911
0.286371
0.324051
0.362319
0.400518
0.438131
0.474735
0.510038
0.543924
0.576369
0.607457
0.637298
0.666049
0.693858
0.720845
0.747148
0.772854
0.798057
0.822835
0.847246
0.871333
0.895129
0.918662
0.941948
0.965002
0.98783
1.01044
1.03282
1.05499
1.07693
1.09863
1.12009
1.1413
1.16225
1.18292
1.20331
1.2234
1.24317
1.26263
1.28176
1.30056
1.31903
1.33717
1.35498
1.37242
1.38948
1.40615
1.4224
1.43822
1.4536
1.46853
1.48298
1.49695
1.51042
1.52339
1.53583
1.54775
1.55913
1.56996
1.58023
1.58994
1.59909
1.60766
1.61566
1.62308
1.62993
1.63619
1.64188
1.647
1.65154
1.65553
1.65895
1.66181
1.66408
1.66578
1.66677
1.66724
1.66734
1.6668
1.66566
1.66398
1.66176
1.65902
1.65576
1.652
1.64774
1.64301
1.6378
1.63214
1.62605
1.61949
1.61256
1.60517
1.59744
1.58927
1.58081
1.57196
1.56286
1.55342
1.54381
1.5339
1.52386
1.5136
1.50319
1.49263
1.48193
1.47112
1.4602
1.44922
1.43819
1.42715
1.4161
1.40506
1.39403
1.383
1.37193
1.36079
1.34948
1.33783
1.32561
1.31091
1.28555
2.50489e-05
2.72554e-05
0.000183582
0.000848816
0.0024288
0.00600355
0.0104189
0.014812
0.0187615
0.0220357
0.0245482
0.0263199
0.0274
0.0279518
0.0280149
0.0278664
0.0274889
0.026911
0.0262238
0.0254543
0.0246207
0.0237205
0.0227489
0.0216886
0.0205141
0.0192044
0.0177191
0.0160281
0.0141344
0.0121035
0.0100164
0.00803991
0.00613152
0.00452766
0.0032158
0.0024122
0.00191646
0.00169572
0.00429789
0.00901624
0.0212151
0.0329588
0.0413575
0.0464581
0.0492003
0.0518937
0.059081
0.072967
0.0888933
0.105227
0.122872
0.140788
0.162056
0.189189
0.219644
0.255007
0.293371
0.334088
0.376587
0.419694
0.462974
0.505882
0.548057
0.589232
0.629226
0.667944
0.705368
0.741543
0.776552
0.810502
0.843511
0.875697
0.907148
0.937984
0.968277
0.998105
1.02752
1.05658
1.08531
1.11375
1.1419
1.16979
1.19742
1.2248
1.25193
1.27881
1.30544
1.3318
1.35789
1.3837
1.40923
1.43446
1.45938
1.48399
1.50827
1.53221
1.55581
1.57905
1.60192
1.6244
1.64649
1.66815
1.68936
1.71011
1.73037
1.75011
1.76934
1.78801
1.80613
1.82366
1.8406
1.85693
1.87264
1.88771
1.90213
1.91588
1.92897
1.94138
1.95309
1.96411
1.97443
1.98404
1.99294
2.00113
2.0086
2.01536
2.02141
2.02674
2.03135
2.03525
2.03844
2.04092
2.04267
2.04361
2.04395
2.04372
2.04273
2.04105
2.03871
2.03571
2.03207
2.0278
2.02291
2.01742
2.01135
2.0047
1.99749
1.98975
1.98147
1.9727
1.96341
1.95367
1.94344
1.93281
1.92174
1.91032
1.89853
1.88646
1.87408
1.86148
1.84864
1.8356
1.82237
1.80898
1.79543
1.78176
1.768
1.75417
1.74032
1.72647
1.71263
1.69882
1.68504
1.67129
1.65755
1.64377
1.62985
1.61561
1.59941
1.57597
3.32216e-05
9.27109e-05
0.000637751
0.00239111
0.00681102
0.0132457
0.0194132
0.0246004
0.0285175
0.0311713
0.032752
0.0335105
0.0336075
0.033395
0.0328691
0.0321214
0.0312687
0.0303608
0.0294318
0.0284998
0.0275704
0.0266361
0.0256826
0.0246896
0.0236326
0.0224827
0.0212092
0.0197799
0.0181602
0.0163442
0.0143747
0.0123579
0.0103898
0.00852319
0.00719707
0.00563688
0.00567231
0.00778178
0.0167
0.0353795
0.0546125
0.0690677
0.0787687
0.08626
0.0950055
0.106119
0.118838
0.131823
0.145865
0.161976
0.182298
0.207838
0.238517
0.274286
0.313393
0.355304
0.39856
0.442731
0.487264
0.531767
0.576051
0.619932
0.663263
0.705914
0.74778
0.788792
0.828909
0.868146
0.906529
0.944106
0.980942
1.01711
1.05268
1.08772
1.12229
1.15644
1.19021
1.22364
1.25675
1.28956
1.32209
1.35434
1.38632
1.41803
1.44946
1.48061
1.51148
1.54206
1.57234
1.6023
1.63194
1.66125
1.69022
1.71883
1.74707
1.77493
1.80239
1.82944
1.85605
1.8822
1.90787
1.93304
1.95768
1.98177
2.00529
2.02821
2.05051
2.07217
2.09317
2.11349
2.13311
2.15202
2.17019
2.18761
2.20428
2.22016
2.23526
2.24956
2.26305
2.27572
2.28757
2.29859
2.30877
2.31812
2.32662
2.33429
2.34111
2.34708
2.35222
2.35651
2.35996
2.36259
2.36434
2.36519
2.36538
2.3648
2.36338
2.36116
2.35817
2.35442
2.34992
2.34469
2.33875
2.33211
2.32478
2.31679
2.30815
2.29888
2.28901
2.27854
2.2675
2.25592
2.24379
2.23117
2.21807
2.20453
2.19059
2.17629
2.16164
2.14672
2.13151
2.11607
2.10041
2.08455
2.06851
2.05232
2.03602
2.01964
2.00323
1.98681
1.97042
1.95408
1.9378
1.92161
1.9055
1.88949
1.87351
1.85744
1.83991
1.81711
2.77652e-05
0.000281466
0.00186186
0.00652821
0.0156495
0.0240567
0.0304388
0.0346775
0.037118
0.0382704
0.0385437
0.0383092
0.0376688
0.0367231
0.0356354
0.034485
0.0333305
0.0322105
0.0311466
0.0301462
0.0292044
0.0283058
0.0274291
0.0265487
0.0256339
0.0246509
0.0235681
0.0223597
0.0210034
0.0194842
0.0178175
0.0160708
0.0143464
0.0124329
0.011212
0.0118157
0.0166127
0.0313563
0.0565047
0.0809283
0.100568
0.114326
0.123859
0.131724
0.139825
0.148991
0.159754
0.173112
0.191918
0.215576
0.244995
0.279381
0.317731
0.358821
0.401391
0.444894
0.488802
0.532967
0.577238
0.621552
0.665868
0.710119
0.754221
0.798076
0.841583
0.884659
0.927233
0.96927
1.01075
1.05169
1.09211
1.13204
1.17152
1.21058
1.24926
1.28759
1.32559
1.36329
1.40069
1.43781
1.47465
1.5112
1.54748
1.58347
1.61917
1.65457
1.68966
1.72443
1.75886
1.79295
1.82667
1.86003
1.893
1.92557
1.95771
1.98942
2.02068
2.05145
2.08171
2.11145
2.14063
2.16923
2.19722
2.22458
2.25128
2.27729
2.3026
2.32717
2.35098
2.37402
2.39625
2.41766
2.43823
2.45794
2.47678
2.49473
2.51177
2.5279
2.54309
2.55735
2.57067
2.58303
2.59444
2.60488
2.61436
2.62288
2.63042
2.637
2.64262
2.64727
2.65096
2.65372
2.65546
2.6562
2.65621
2.65528
2.65342
2.65066
2.64703
2.64253
2.63719
2.63101
2.62403
2.61626
2.60771
2.59841
2.58838
2.57764
2.5662
2.5541
2.54136
2.528
2.51404
2.4995
2.48443
2.46887
2.45284
2.4364
2.41957
2.40241
2.38494
2.36719
2.34919
2.33096
2.31252
2.29392
2.27518
2.25635
2.23747
2.2186
2.19975
2.18098
2.1623
2.14375
2.12536
2.10718
2.08915
2.07123
2.05224
2.02914
6.81202e-05
0.000895238
0.00513044
0.0159729
0.0273938
0.0352187
0.0397953
0.0421418
0.0430716
0.0430597
0.0425549
0.0415069
0.0401885
0.0387337
0.0372399
0.0357801
0.0344043
0.0331417
0.0320031
0.0309846
0.0300705
0.0292364
0.0284537
0.0276874
0.0268993
0.0260454
0.0250835
0.0239857
0.0227238
0.0212631
0.0195667
0.0176773
0.0158244
0.0156366
0.0186308
0.0295965
0.0517914
0.0803528
0.107705
0.12932
0.143497
0.151441
0.156462
0.161633
0.168662
0.179379
0.195383
0.216559
0.243507
0.275427
0.311664
0.350863
0.39187
0.433847
0.476337
0.519177
0.562281
0.605666
0.649354
0.693371
0.73772
0.782368
0.827248
0.872267
0.917315
0.962303
1.00715
1.05178
1.09616
1.14027
1.18408
1.2276
1.27084
1.31381
1.35652
1.39897
1.44117
1.48312
1.52482
1.56626
1.60744
1.64835
1.68897
1.7293
1.76933
1.80903
1.8484
1.88741
1.92606
1.96433
2.00219
2.03965
2.07667
2.11323
2.14932
2.18492
2.21999
2.25452
2.28847
2.32182
2.35454
2.3866
2.41796
2.44862
2.47852
2.50766
2.53598
2.56348
2.59012
2.61588
2.64073
2.66465
2.68762
2.70962
2.73062
2.75063
2.76961
2.78755
2.80444
2.82027
2.83503
2.84872
2.86132
2.87284
2.88327
2.89261
2.90086
2.90802
2.91409
2.91908
2.92299
2.92585
2.92756
2.92821
2.92797
2.92668
2.92436
2.92104
2.91674
2.91148
2.90527
2.89815
2.89011
2.8812
2.87143
2.86081
2.84939
2.83716
2.82418
2.81045
2.79601
2.78088
2.76509
2.74866
2.73163
2.71406
2.69597
2.67742
2.65844
2.63907
2.61936
2.59934
2.57903
2.55846
2.53767
2.51668
2.49554
2.47429
2.45299
2.43169
2.41043
2.38925
2.36818
2.34729
2.32663
2.30624
2.28614
2.26626
2.24559
2.22153
0.000604839
0.00269049
0.0122876
0.0280912
0.0383582
0.0439704
0.0467575
0.0478115
0.0477379
0.0469889
0.0455992
0.0438895
0.0420182
0.0401121
0.0382683
0.0365549
0.0350128
0.0336583
0.0324875
0.0314814
0.0306111
0.0298413
0.0291313
0.0284353
0.0276915
0.0268701
0.0259717
0.0250252
0.0240706
0.0232703
0.0229778
0.0238434
0.0272153
0.0348491
0.050402
0.0759031
0.103972
0.129884
0.150222
0.162706
0.168908
0.172147
0.175833
0.183283
0.195841
0.21391
0.237581
0.266297
0.299447
0.335903
0.374618
0.414581
0.455193
0.496195
0.537531
0.579234
0.621366
0.664007
0.707225
0.75107
0.795559
0.840664
0.886318
0.932441
0.97894
1.02572
1.07269
1.11976
1.16688
1.214
1.26107
1.30808
1.35499
1.40181
1.44851
1.49508
1.54149
1.58774
1.6338
1.67964
1.72524
1.77058
1.81565
1.86042
1.90486
1.94897
1.99272
2.03608
2.07905
2.12159
2.16368
2.20532
2.24647
2.28711
2.32723
2.36678
2.40575
2.44411
2.48181
2.51884
2.55516
2.59074
2.62554
2.65954
2.6927
2.72499
2.75637
2.78683
2.81633
2.84483
2.87231
2.89875
2.92413
2.94842
2.9716
2.99365
3.01455
3.0343
3.05287
3.07025
3.08643
3.10142
3.11519
3.12775
3.1391
3.14923
3.15814
3.16584
3.17233
3.17762
3.18171
3.18463
3.18628
3.1868
3.18626
3.18458
3.18176
3.17784
3.17284
3.16677
3.15967
3.15155
3.14244
3.13236
3.12133
3.10938
3.09654
3.08282
3.06826
3.05289
3.03674
3.01983
3.00219
2.98386
2.96488
2.9453
2.92515
2.90449
2.88337
2.86181
2.83987
2.81758
2.79498
2.77209
2.74894
2.72557
2.70205
2.6784
2.65469
2.63097
2.6073
2.58371
2.56027
2.53702
2.51405
2.49142
2.46914
2.4472
2.42465
2.39914
0.00224403
0.00649976
0.0234698
0.0389021
0.0470974
0.0511055
0.0527169
0.0528037
0.0519694
0.0503368
0.0482657
0.0459607
0.0435898
0.0412868
0.0391491
0.0372385
0.0355833
0.0341836
0.0330178
0.0320506
0.0312387
0.0305321
0.0298792
0.0292053
0.0284819
0.0276841
0.0268748
0.0262185
0.025904
0.0266948
0.0297589
0.0369739
0.0509513
0.0719968
0.0972861
0.122417
0.144926
0.162206
0.172805
0.178025
0.181087
0.185978
0.195077
0.209586
0.229608
0.254733
0.284287
0.317378
0.353109
0.390545
0.428952
0.467866
0.507127
0.54675
0.586819
0.627439
0.668718
0.710757
0.753639
0.797417
0.842101
0.887673
0.934089
0.98128
1.02916
1.07764
1.12663
1.17604
1.2258
1.27583
1.32609
1.37652
1.42708
1.47774
1.52844
1.57916
1.62985
1.68047
1.73096
1.7813
1.83144
1.88133
1.93095
1.98027
2.02925
2.07788
2.12611
2.17394
2.22131
2.26822
2.31464
2.36055
2.40592
2.45073
2.49494
2.53853
2.58147
2.62371
2.66523
2.706
2.74597
2.78511
2.82338
2.86075
2.89719
2.93265
2.96711
3.00053
3.03288
3.06412
3.09422
3.12317
3.15093
3.17748
3.20279
3.22685
3.24964
3.27115
3.29134
3.31022
3.32778
3.344
3.35888
3.37242
3.38462
3.39548
3.40499
3.41316
3.42
3.42552
3.42972
3.43263
3.43416
3.43449
3.43359
3.43144
3.42807
3.42349
3.41773
3.41081
3.40276
3.3936
3.38336
3.37207
3.35975
3.34643
3.33213
3.3169
3.30074
3.28371
3.26582
3.24712
3.22762
3.20738
3.18643
3.16483
3.14263
3.11987
3.09661
3.07287
3.04871
3.02416
2.99927
2.97406
2.94857
2.92285
2.89694
2.8709
2.84479
2.81867
2.79259
2.7666
2.74076
2.71515
2.68983
2.6649
2.64039
2.61628
2.59171
2.56446
0.00478137
0.0126092
0.0347421
0.0484013
0.0549158
0.0577566
0.0584296
0.0577269
0.0560382
0.0537045
0.0509984
0.0481412
0.045318
0.0426722
0.0403012
0.0382573
0.036553
0.0351732
0.0340812
0.0332269
0.0325691
0.032056
0.0316674
0.0314297
0.0314385
0.0317694
0.0328084
0.0347958
0.0383567
0.0447404
0.0559253
0.0719529
0.0914559
0.112739
0.133696
0.15195
0.165984
0.175383
0.181265
0.186276
0.193365
0.204677
0.221077
0.242489
0.268323
0.297804
0.330123
0.364505
0.400263
0.436837
0.473884
0.511281
0.549066
0.587351
0.626268
0.665948
0.706516
0.748083
0.790725
0.834494
0.879416
0.925486
0.972674
1.02093
1.07017
1.12032
1.17129
1.223
1.27536
1.32829
1.38172
1.43558
1.48981
1.54433
1.5991
1.65404
1.70908
1.76415
1.8192
1.87414
1.92891
1.98347
2.03775
2.09173
2.14535
2.19859
2.25142
2.30378
2.35566
2.40702
2.45783
2.50808
2.55773
2.60675
2.65512
2.70278
2.74971
2.79588
2.84124
2.88575
2.92938
2.97208
3.01381
3.05454
3.09422
3.13283
3.17032
3.20666
3.2418
3.27572
3.30839
3.33976
3.36983
3.39855
3.42592
3.4519
3.47649
3.49965
3.52137
3.54165
3.56046
3.57782
3.5937
3.60812
3.62106
3.63254
3.64254
3.65108
3.65816
3.6638
3.66802
3.67081
3.67214
3.67217
3.67082
3.66813
3.6641
3.65878
3.65218
3.64433
3.63526
3.625
3.61357
3.60101
3.58735
3.57261
3.55683
3.54004
3.52226
3.50353
3.48389
3.46336
3.44199
3.41982
3.3969
3.37329
3.34903
3.32418
3.29879
3.27288
3.24651
3.21973
3.19256
3.16505
3.13723
3.10916
3.0809
3.05249
3.024
2.99549
2.96701
2.93862
2.91039
2.8824
2.85472
2.82746
2.80066
2.77432
2.74763
2.71871
0.00732245
0.0206665
0.04484
0.0567891
0.0622245
0.0642634
0.064229
0.0627997
0.0604272
0.0574604
0.0541916
0.0508685
0.0476919
0.0448101
0.0423155
0.0402494
0.0386081
0.0373644
0.0364642
0.0358293
0.0355052
0.0353677
0.0354865
0.0360515
0.0373167
0.0397979
0.0441464
0.0510512
0.0610292
0.0741392
0.0894041
0.10612
0.123401
0.139908
0.154366
0.165977
0.174851
0.182031
0.189465
0.199202
0.21279
0.230794
0.253032
0.278912
0.307722
0.338777
0.371476
0.405314
0.439898
0.474968
0.510425
0.546303
0.582717
0.619811
0.657735
0.696634
0.736635
0.777842
0.820341
0.864194
0.909438
0.956082
1.00411
1.05349
1.10415
1.15602
1.20903
1.26309
1.3181
1.37398
1.43065
1.48801
1.54598
1.60446
1.66338
1.72262
1.7821
1.84173
1.90141
1.96105
2.02056
2.07987
2.13891
2.19762
2.25595
2.31388
2.37134
2.4283
2.48472
2.54055
2.59579
2.65039
2.70433
2.75756
2.81006
2.86178
2.91268
2.96272
3.01187
3.06007
3.10728
3.15347
3.19857
3.24256
3.28538
3.32702
3.36741
3.40654
3.44435
3.48081
3.51588
3.54953
3.58175
3.61249
3.64174
3.66948
3.69569
3.72034
3.74342
3.76492
3.78483
3.80314
3.81986
3.83498
3.8485
3.86043
3.87076
3.87951
3.88668
3.8923
3.89637
3.89891
3.89993
3.8995
3.89759
3.89423
3.88944
3.88327
3.87574
3.86686
3.85669
3.84524
3.83255
3.81866
3.80359
3.78739
3.77008
3.75169
3.73226
3.71182
3.6904
3.66804
3.64478
3.62068
3.5958
3.57018
3.54389
3.51698
3.48948
3.46144
3.4329
3.40391
3.3745
3.34471
3.31461
3.28423
3.25365
3.22292
3.19209
3.16122
3.13038
3.09962
3.06901
3.03865
3.00862
2.97902
2.94989
2.92128
2.89242
2.86165
0.00922348
0.029377
0.0536609
0.0648802
0.0696691
0.0710821
0.0704532
0.068415
0.0654618
0.0619857
0.058312
0.0547086
0.0513821
0.0484783
0.0460807
0.0442248
0.0428896
0.0420755
0.0417515
0.0417511
0.0422728
0.0434517
0.0455007
0.0487006
0.0533472
0.0596817
0.0678694
0.0779075
0.0896475
0.102688
0.116365
0.129998
0.142929
0.154602
0.16483
0.17389
0.1827
0.192567
0.204831
0.220377
0.23952
0.26204
0.28744
0.315143
0.344618
0.37542
0.407195
0.439675
0.472684
0.506144
0.54008
0.574593
0.609824
0.645932
0.683073
0.721383
0.760996
0.802022
0.844554
0.888664
0.934402
0.981793
1.03084
1.0815
1.13375
1.18751
1.24272
1.29928
1.3571
1.41608
1.47613
1.53713
1.59899
1.66157
1.72475
1.78841
1.85244
1.9167
1.9811
2.0455
2.1098
2.17391
2.23773
2.3012
2.36426
2.42686
2.48895
2.55047
2.61138
2.67163
2.73122
2.79009
2.84823
2.90559
2.96211
3.01776
3.07249
3.12626
3.17903
3.23075
3.28137
3.33084
3.37911
3.42614
3.47189
3.51632
3.55939
3.60105
3.64128
3.68002
3.71724
3.75292
3.78701
3.81951
3.85038
3.8796
3.90716
3.93304
3.95721
3.97967
4.00042
4.01944
4.03674
4.05231
4.06617
4.07832
4.08876
4.0975
4.10455
4.10993
4.11367
4.11578
4.11629
4.11525
4.11261
4.10843
4.10275
4.0956
4.087
4.077
4.06561
4.05289
4.03886
4.02356
4.00702
3.9893
3.97041
3.95041
3.9293
3.90714
3.88394
3.85974
3.83461
3.8086
3.78177
3.7542
3.72592
3.69698
3.66744
3.63732
3.60668
3.57554
3.54394
3.51195
3.47962
3.44702
3.41419
3.38121
3.34811
3.31496
3.28181
3.24873
3.2158
3.18311
3.15076
3.11883
3.0874
3.05652
3.02547
2.9928
0.0103455
0.0370335
0.0619357
0.0729306
0.0773537
0.0783723
0.0772666
0.0747276
0.0713382
0.0675573
0.0637483
0.0601865
0.0570636
0.054506
0.0525921
0.0514008
0.0509161
0.0509069
0.0515939
0.0530004
0.0552317
0.0584074
0.0626631
0.0681072
0.0747919
0.0826984
0.0917332
0.101709
0.11234
0.123277
0.134166
0.14475
0.154914
0.164727
0.174561
0.185094
0.197139
0.211414
0.228374
0.248109
0.270421
0.294935
0.321232
0.34893
0.37772
0.407365
0.437696
0.468605
0.500052
0.532059
0.56471
0.598137
0.632485
0.667911
0.704571
0.742611
0.78216
0.823324
0.866204
0.910884
0.957426
1.00587
1.05622
1.10849
1.16262
1.21859
1.2763
1.33568
1.39662
1.459
1.52271
1.58762
1.65359
1.72047
1.78808
1.85626
1.92488
1.99379
2.06287
2.13198
2.20101
2.26983
2.33835
2.40649
2.47418
2.54134
2.60791
2.67383
2.73905
2.80354
2.86728
2.93022
2.99233
3.05356
3.11386
3.17317
3.23145
3.28865
3.34473
3.39964
3.45332
3.50573
3.55682
3.60652
3.65482
3.70165
3.747
3.79082
3.83306
3.87368
3.91265
3.94994
3.98552
4.01936
4.05145
4.08177
4.1103
4.13701
4.1619
4.18496
4.20617
4.22554
4.24308
4.25878
4.27266
4.28471
4.29495
4.30339
4.31004
4.31493
4.31808
4.31953
4.3193
4.31745
4.31387
4.3087
4.30195
4.29366
4.28386
4.2726
4.25989
4.24579
4.23032
4.21354
4.19548
4.17618
4.15569
4.13403
4.11125
4.08738
4.0624
4.03639
4.00942
3.98155
3.95285
3.92337
3.89317
3.8623
3.8308
3.7987
3.76605
3.73285
3.69917
3.66508
3.63063
3.59591
3.56096
3.52583
3.49057
3.45524
3.41989
3.38459
3.34943
3.31449
3.27989
3.24571
3.21203
3.17892
3.1457
3.11118
0.0109955
0.0435871
0.0701473
0.081237
0.0854117
0.0861344
0.0846029
0.081645
0.077972
0.0741366
0.0705342
0.0674174
0.06493
0.0631286
0.0621736
0.0618941
0.062281
0.0634479
0.0654005
0.0681698
0.071778
0.0762561
0.0816206
0.0878448
0.0948694
0.102602
0.110917
0.11967
0.128729
0.138007
0.147469
0.157178
0.167316
0.178211
0.190289
0.20398
0.219611
0.237349
0.257172
0.278907
0.302296
0.327061
0.35295
0.379766
0.407361
0.435642
0.464561
0.494115
0.524343
0.555324
0.58716
0.619978
0.653924
0.689155
0.725828
0.76409
0.804082
0.845908
0.889667
0.935458
0.983358
1.03342
1.08566
1.1401
1.1967
1.25543
1.31621
1.37894
1.44349
1.50973
1.57749
1.64661
1.71694
1.78828
1.8604
1.93309
2.00617
2.07951
2.15302
2.22656
2.30001
2.37326
2.4462
2.51872
2.59075
2.66219
2.73289
2.80285
2.87203
2.94039
3.00789
3.07449
3.14016
3.20482
3.26843
3.33092
3.39225
3.45237
3.51124
3.56879
3.62499
3.67978
3.7331
3.78491
3.83517
3.88383
3.93087
3.97624
4.01991
4.06183
4.10197
4.1403
4.17679
4.21142
4.24417
4.27504
4.30399
4.33102
4.35612
4.37927
4.40048
4.41974
4.43706
4.45246
4.46593
4.47749
4.48715
4.49492
4.50082
4.50489
4.50715
4.50763
4.50645
4.50347
4.49874
4.49235
4.48434
4.47474
4.46359
4.45091
4.43676
4.42118
4.40419
4.38585
4.36621
4.34529
4.32316
4.29985
4.27541
4.24985
4.22315
4.19538
4.16664
4.137
4.10652
4.07525
4.04324
4.01054
3.9772
3.94326
3.90874
3.87363
3.838
3.80195
3.76555
3.72887
3.69194
3.65483
3.61758
3.58023
3.54282
3.50543
3.46817
3.43113
3.3944
3.35809
3.32226
3.28701
3.25172
3.21544
0.0112876
0.0505375
0.0782055
0.0894923
0.0935485
0.0940767
0.0921541
0.0887553
0.0848546
0.0811863
0.0781387
0.0758516
0.0743558
0.0736582
0.0735191
0.0741187
0.0754948
0.07761
0.0804446
0.0839867
0.0882229
0.0931338
0.098682
0.104824
0.111514
0.11871
0.126384
0.134532
0.143183
0.15241
0.16234
0.173158
0.185081
0.198329
0.21309
0.229474
0.2475
0.267102
0.28815
0.310471
0.333887
0.358249
0.383441
0.40938
0.436026
0.463376
0.491452
0.520307
0.550015
0.580674
0.612401
0.645335
0.679627
0.71544
0.752945
0.792324
0.83368
0.877053
0.92257
0.970372
1.02054
1.07313
1.12817
1.18567
1.2456
1.30793
1.37256
1.43936
1.50819
1.57883
1.65109
1.72473
1.79957
1.87536
1.95179
2.02863
2.10565
2.18278
2.26001
2.33725
2.41445
2.49148
2.5682
2.64452
2.7203
2.7954
2.86966
2.94312
3.0157
3.08735
3.15801
3.22764
3.2962
3.36362
3.42984
3.4948
3.55844
3.62071
3.68158
3.741
3.79892
3.85528
3.91003
3.96312
4.01452
4.06419
4.1121
4.15822
4.20252
4.24494
4.28546
4.32404
4.36067
4.39534
4.42802
4.45872
4.4874
4.51407
4.53871
4.56131
4.58189
4.60044
4.61697
4.6315
4.64404
4.6546
4.6632
4.66984
4.67457
4.6774
4.67839
4.67763
4.67509
4.67066
4.6645
4.65665
4.64714
4.63601
4.62331
4.60906
4.59331
4.57611
4.55749
4.5375
4.51618
4.49359
4.46977
4.44477
4.41863
4.39139
4.36304
4.33364
4.30327
4.272
4.23988
4.20696
4.17329
4.13892
4.10391
4.06829
4.0321
3.99525
3.95789
3.9201
3.88196
3.84352
3.80484
3.76596
3.72692
3.68774
3.64846
3.60919
3.57003
3.53107
3.49241
3.45413
3.41631
3.37908
3.34184
3.30399
0.011312
0.0569888
0.08591
0.097421
0.101349
0.101618
0.0992142
0.0955706
0.0918805
0.0887846
0.0865106
0.0851523
0.0845913
0.0845385
0.0851643
0.0865067
0.0885323
0.0912033
0.0944898
0.0983698
0.102825
0.10784
0.113408
0.119533
0.126231
0.133542
0.141524
0.150245
0.159812
0.170344
0.181973
0.19482
0.208971
0.224476
0.241344
0.259537
0.27898
0.299583
0.321236
0.343813
0.367235
0.391454
0.416441
0.442197
0.468752
0.496152
0.524461
0.55376
0.584146
0.615729
0.648633
0.682997
0.718973
0.75673
0.79643
0.838222
0.882213
0.928515
0.977251
1.02851
1.08234
1.13876
1.19778
1.2594
1.32358
1.39026
1.45933
1.53068
1.60411
1.67938
1.75618
1.8341
1.91289
1.9923
2.07221
2.15237
2.23255
2.31277
2.393
2.4732
2.55326
2.63302
2.71242
2.79151
2.87004
2.94782
3.0248
3.10086
3.1759
3.24985
3.32265
3.39426
3.46464
3.53372
3.60143
3.6677
3.73248
3.79573
3.85743
3.91754
3.97599
4.03274
4.08774
4.14094
4.19231
4.24183
4.28948
4.33523
4.37906
4.42091
4.46075
4.49856
4.53433
4.56805
4.59971
4.62932
4.65685
4.6823
4.70566
4.72694
4.74613
4.76325
4.77832
4.79134
4.80235
4.81134
4.81834
4.82336
4.82644
4.82762
4.82701