/*--------------------------------*- C++ -*----------------------------------*\
| =========                 |                                                 |
| \\      /  F ield         | OpenFOAM: The Open Source CFD Toolbox           |
|  \\    /   O peration     | Version:  v2012                                 |
|   \\  /    A nd           | Website:  www.openfoam.com                      |
|    \\/     M anipulation  |                                                 |
\*---------------------------------------------------------------------------*/
FoamFile
{
    version     2.0;
    format      ascii;
    class       volScalarField;
    location    "1700";
    object      omega;
}
// * * * * * * * * * * * * * * * * * * * * * * * * * * * * * * * * * * * * * //

dimensions      [0 0 -1 0 0 0 0];


internalField   nonuniform List<scalar> 
12225
(
38752
41509.2
43121.7
43933.9
44174.6
44124.5
43966.6
43693.4
43397.9
43112.7
42846.1
42599.6
42385.7
42181.9
42027.8
41856
41770.3
41616.3
3029
6841.77
9431.87
11381.9
12788.5
13739.3
14381
14797.2
15069.6
15305.2
15533.2
15773
15994.6
16211
16393.6
16557.4
16664.4
16728.2
683.48
1226.66
1767.51
2269.36
2716.61
3150.89
3467.31
3779.37
4007.63
4317.93
4546.75
4842.43
5046.47
5312.79
5478.66
5712.97
5832.93
6029.49
484.104
556.818
700.58
845.915
974.134
1119.9
1227.41
1350.85
1434.83
1549.49
1625.98
1734.13
1800.86
1901.01
1955.58
2046.27
2086.24
2170.3
446.64
456.609
495.044
544.094
585.974
638.956
678.176
726.22
758.584
801.88
830.276
871.296
896.572
935.558
957.167
993.539
1010.5
1044.81
439.513
439.784
446.254
461.191
474.051
493.167
507.457
526.372
539.349
557.061
568.903
586.124
597.126
614.048
623.899
640.318
648.427
664.259
439.194
436.607
436.354
438.14
440.765
445.805
449.82
456.141
460.401
466.829
471.081
477.727
482.036
488.981
493.202
500.316
504.098
511.229
439.122
436.695
434.807
433.921
433.307
433.654
434.288
435.746
436.812
438.727
440
442.299
443.746
446.435
448.055
451.065
452.721
456.028
439.035
436.798
434.653
432.927
431.344
430.193
429.229
428.713
428.178
427.987
428.006
428.128
428.305
428.644
428.892
429.496
429.943
431.006
439.003
436.806
434.671
432.725
430.872
429.22
427.683
426.351
425.096
424.021
423.001
422.197
421.372
420.789
420.102
419.754
419.212
419.122
438.998
436.793
434.672
432.69
430.784
429.015
427.319
425.761
424.254
422.887
421.545
420.352
419.164
418.135
417.09
416.218
415.309
414.585
438.999
436.784
434.667
432.673
430.764
428.968
427.247
425.631
424.077
422.622
421.217
419.905
418.636
417.455
416.311
415.251
414.222
413.273
439.001
436.778
434.663
432.661
430.754
428.947
427.224
425.591
424.032
422.554
421.141
419.8
418.518
417.3
416.135
415.029
413.97
412.965
439.001
436.775
434.66
432.653
430.745
428.933
427.209
425.57
424.009
422.523
421.107
419.759
418.472
417.247
416.076
414.96
413.894
412.877
439.001
436.773
434.657
432.648
430.738
428.923
427.197
425.555
423.991
422.502
421.083
419.732
418.442
417.213
416.039
414.92
413.85
412.83
439.001
436.772
434.655
432.644
430.733
428.916
427.187
425.543
423.977
422.486
421.065
419.711
418.419
417.187
416.011
414.889
413.818
412.795
439
436.769
434.651
432.638
430.725
428.906
427.176
425.53
423.962
422.469
421.046
419.689
418.396
417.162
415.984
414.861
413.788
412.763
439
436.769
434.65
432.637
430.724
428.905
427.174
425.526
423.958
422.463
421.039
419.682
418.388
417.153
415.974
414.85
413.776
412.75
439.001
436.771
434.654
432.641
430.729
428.91
427.179
425.532
423.964
422.47
421.046
419.688
418.394
417.159
415.98
414.855
413.781
412.755
439.001
436.772
434.655
432.643
430.731
428.912
427.183
425.536
423.968
422.474
421.051
419.693
418.399
417.165
415.987
414.862
413.789
412.763
439.001
436.772
434.657
432.645
430.735
428.917
427.188
425.542
423.976
422.482
421.061
419.706
418.415
417.183
416.01
414.889
413.822
412.801
439.002
436.774
434.661
432.648
430.742
428.925
427.204
425.56
424.003
422.517
421.115
419.777
418.519
417.315
416.183
415.095
414.075
413.093
439.003
436.776
434.669
432.657
430.774
428.984
427.312
425.725
424.247
422.856
421.6
420.432
419.391
418.396
417.515
416.652
415.912
415.161
439.016
436.77
434.741
432.79
431.116
429.629
428.372
427.276
426.382
425.666
425.239
425.053
424.896
424.913
425.074
425.288
425.633
425.791
439.094
436.784
435.637
434.264
434.326
434.865
435.972
437.52
439.523
441.619
444.597
447.503
450.998
454.015
457.461
460.216
463.483
465.948
439.911
438.94
442.77
447.617
455.756
464.884
475.882
486.266
498.178
509.191
521.659
532.714
544.815
554.903
565.905
574.608
584.479
591.919
457.509
464.545
499.429
528.517
568.853
608.656
651.042
688.996
728.714
763.001
799.367
829.519
861.919
887.432
915.632
936.694
961.245
978.645
603.317
683.097
857.814
1020.01
1182.16
1331.76
1477.6
1603.44
1725.66
1826.05
1926.13
2003.7
2084.9
2143.51
2209.77
2254
2309.35
2343.87
1799.94
2741.18
3625.94
4450.49
5181.66
5791.99
6289.82
6681.84
7002.4
7252.24
7460.42
7615.36
7755.86
7851.32
7955.34
8018.51
8111.65
8164.38
20971.9
22176.4
23094.2
23775.4
24249.5
24573.8
24774.7
24900.4
24974.6
25007.1
25000.2
24982.1
24938.8
24885.5
24817.2
24749.7
24684.2
24621.3
11463.3
2495.07
2497.95
2501.21
2504.72
2508.48
2513.25
2519.65
2528.08
2538.35
2549.27
2560.34
2570.85
2580.43
2588.99
2596.4
2602.72
2607.8
2612.01
2614.49
2616.8
2617.75
2617.94
2616.02
2612.14
2606.07
2597.94
2588.41
2579.09
2572.53
2570.34
2571.72
2574.52
2577.53
2580.6
2583.72
2586.89
2590.05
2593.24
2597.23
2602.26
2610.69
2621.51
2631.33
2638.83
2642.1
2644.26
2645.02
2645.5
2646.53
2649.99
2656.59
2666.87
2672.71
2682.08
2696.83
2745.94
2918.42
3128.06
3324.48
3500.28
3658.47
3801.24
3932.24
4053.64
4168.16
4276.1
4374.78
4467.93
4554.75
4637.3
4715.43
4790.31
4862.08
4931.33
4998.27
5063.23
5126.35
5187.94
5247.99
5306.77
5364.21
5420.51
5475.63
5529.68
5582.63
5634.53
5685.37
5735.16
5783.87
5831.49
5878
5923.35
5967.51
6010.45
6052.12
6092.52
6131.67
6169.65
6206.65
6243.02
6278.41
6312.78
6346.2
6378.64
6410.1
6440.56
6470.01
6498.44
6525.84
6552.19
6577.5
6601.74
6624.92
6647.02
6668.06
6688.01
6706.88
6724.68
6741.4
6757.05
6771.64
6785.18
6797.68
6809.16
6819.65
6829.66
6837.87
6845.42
6851.91
6856.74
6860.59
6863.24
6864.85
6865.64
6865.55
6864.35
6862.08
6858.97
6854.88
6849.92
6844.06
6837.35
6829.79
6821.42
6812.27
6802.4
6791.92
6780.41
6768.6
6755.61
6742.54
6728.22
6714.04
6698.6
6683.53
6667.17
6651.43
6634.39
6618.02
6600.67
6583.52
6566.03
6548.41
6530.65
6512.8
6494.94
6477.09
6459.3
6441.58
6423.91
6406.24
6388.46
6370.46
6351.91
6332.35
6311.54
6293.14
6283.77
6186.97
11463.5
1998.64
1053.57
893.167
779.537
654.403
665.002
680.95
673.172
658.199
631.971
605.35
580.338
556.792
537.406
522.831
513.27
508.908
508.013
526.471
555.552
619.588
707.449
811.686
926.642
1042.49
1153.6
1244.28
1314.09
1330.9
1309.97
1246.89
1114.66
948.81
793.459
689.936
620.368
539.133
489.856
456.022
443.335
447.203
457.196
474.712
491.794
513.826
530.248
586.51
654.947
736.531
804.406
1072.74
1507.44
1895.42
2155.93
2302.65
2399.7
2453.91
2472.12
2453.93
2389.04
2319.68
2244.13
2176.79
2114.77
2062.51
2017.8
1981.53
1952.42
1929.85
1912.81
1900.37
1893.04
1886.8
1884.67
1883.21
1883.28
1885.71
1888.52
1892.46
1896.79
1901.7
1906.9
1912.37
1918
1923.74
1929.52
1935.31
1941.05
1946.7
1952.25
1957.67
1962.94
1968.08
1973.12
1978.11
1983.18
1988.5
1994.39
2001.27
2009.77
2018.23
2026.4
2034.4
2042.16
2049.71
2057.02
2064.12
2070.98
2077.61
2084.02
2090.19
2096.14
2101.86
2107.34
2112.61
2117.64
2122.45
2127.03
2131.4
2135.55
2139.48
2143.2
2146.72
2150.02
2153.13
2156.02
2158.57
2160.84
2162.6
2163.53
2164.24
2164.7
2164.92
2164.91
2164.75
2164.35
2163.71
2162.87
2161.8
2160.53
2159.06
2157.38
2155.52
2153.49
2151.34
2149.14
2145.93
2143.95
2139.95
2137.84
2133.44
2131.12
2126.37
2123.84
2118.8
2116.07
2110.81
2107.83
2102.61
2098.88
2094.38
2089.99
2085.51
2080.98
2076.42
2071.83
2067.23
2062.62
2058.02
2053.43
2048.88
2044.39
2039.94
2035.68
2031.68
2028.23
2026.87
2027.78
2042.18
11463.6
2045.14
828.568
638.563
677.215
740.335
723.694
681.937
618.822
556.303
499.559
449.861
406.91
373.502
347.539
327.471
312.223
300.894
293.179
288.203
288.652
295.194
306.518
329.82
365.099
412.48
473.011
542.381
616.297
683.1
734.456
766.39
760.365
736.705
678.658
603.418
526.231
449.161
390.859
358.005
358.377
369.841
388.147
405.388
419.931
467.806
554.46
698.443
907.977
1199.76
1414.94
1560.27
1691.17
1768.55
1789.13
1770.06
1724.11
1661.19
1587.2
1513.46
1444.7
1387.7
1338.89
1300.59
1269.57
1245.93
1227.61
1214.04
1204.04
1196.98
1192.58
1189.48
1188.38
1187.74
1188.07
1189.37
1191.17
1193.51
1196.12
1199.05
1202.15
1205.43
1208.82
1212.29
1215.82
1219.38
1222.96
1226.53
1230.09
1233.64
1237.16
1240.66
1244.15
1247.65
1251.18
1254.78
1258.48
1262.33
1266.39
1270.66
1275.02
1279.23
1283.33
1287.31
1291.16
1294.9
1298.51
1301.99
1305.34
1308.57
1311.67
1314.64
1317.49
1320.2
1322.79
1325.24
1327.57
1329.77
1331.84
1333.79
1335.6
1337.29
1338.85
1340.28
1341.58
1342.74
1343.75
1344.59
1345.25
1345.7
1345.92
1346.02
1345.99
1345.87
1345.65
1345.22
1344.73
1344.08
1343.33
1342.45
1341.46
1340.36
1339.14
1337.82
1336.39
1334.87
1333.23
1331.38
1329.66
1327.51
1325.67
1323.3
1321.32
1318.77
1316.67
1313.94
1311.71
1308.85
1306.5
1303.55
1300.95
1298.12
1295.3
1292.43
1289.52
1286.59
1283.63
1280.65
1277.66
1274.67
1271.69
1268.75
1265.87
1263.1
1260.51
1258.24
1256.49
1256.23
1258.01
1269.91
11463.6
2023
963.516
983.61
961.582
876.545
751.944
634.175
535.557
459.768
402.32
357.028
321.967
295.169
274.656
258.851
246.655
237.382
230.565
225.859
223.118
223.344
224.782
230.189
239.27
254.619
277.252
308.48
347.456
390.304
433.324
472.843
502.813
514.75
508.478
490.142
454.953
408.857
383.076
407.747
468.156
527.77
573.324
620.582
690.276
807.832
980.351
1169.6
1303.81
1374.7
1429.66
1463.68
1468.54
1393.7
1344.31
1287.88
1227.8
1171.57
1120.62
1077.06
1040.66
1011.67
988.538
970.978
957.589
947.835
940.813
935.993
933.12
931.374
930.898
930.836
931.744
933.081
934.873
937.033
939.446
942.081
944.87
947.796
950.818
953.919
957.075
960.272
963.495
966.734
969.978
973.222
976.461
979.692
982.917
986.137
989.356
992.582
995.822
999.084
1002.37
1005.69
1009.03
1012.37
1015.64
1018.82
1021.91
1024.9
1027.79
1030.59
1033.29
1035.89
1038.38
1040.78
1043.07
1045.25
1047.33
1049.31
1051.17
1052.94
1054.59
1056.13
1057.57
1058.9
1060.12
1061.22
1062.22
1063.1
1063.87
1064.52
1065.04
1065.43
1065.68
1065.8
1065.79
1065.67
1065.44
1065.12
1064.7
1064.15
1063.52
1062.77
1061.93
1060.98
1059.94
1058.8
1057.57
1056.24
1054.83
1053.32
1051.71
1050
1048.26
1046.36
1044.48
1042.42
1040.41
1038.21
1036.07
1033.74
1031.48
1029.03
1026.68
1024.13
1021.65
1019.08
1016.48
1013.85
1011.19
1008.5
1005.79
1003.06
1000.32
997.582
994.856
992.163
989.531
986.998
984.634
982.547
980.902
980.332
981.408
988.217
11463.7
2185.6
1459.71
1293.13
1054.06
829.975
646.305
515.385
424.772
361.008
315.243
282.662
259.16
241.43
227.655
216.889
208.538
202.103
197.276
193.869
191.748
191.275
191.827
193.993
197.74
204.46
214.697
229.562
250.366
276.553
305.252
334.189
361.289
382.845
394.836
392.883
387.733
400.98
465.297
568.331
639.186
700.953
776.955
878.737
992.703
1093.05
1165.48
1223.85
1258.37
1268.59
1242.67
1178.76
1128.15
1076.8
1032.83
987.778
948.69
914.466
885.546
861.842
842.933
828.354
817.364
809.451
803.934
800.346
798.596
797.873
797.825
798.68
800.114
801.961
804.213
806.736
809.494
812.435
815.518
818.714
821.996
825.348
828.751
832.192
835.66
839.143
842.634
846.125
849.611
853.087
856.55
859.997
863.428
866.843
870.24
873.621
876.986
880.331
883.653
886.942
890.184
893.366
896.47
899.486
902.415
905.255
908.003
910.657
913.215
915.676
918.037
920.297
922.456
924.51
926.46
928.304
930.041
931.671
933.192
934.604
935.905
937.095
938.172
939.136
939.986
940.72
941.336
941.833
942.206
942.453
942.571
942.579
942.465
942.24
941.907
941.468
940.923
940.27
939.515
938.654
937.692
936.629
935.467
934.208
932.852
931.403
929.86
928.228
926.5
924.686
922.797
920.815
918.778
916.647
914.471
912.201
909.897
907.5
905.079
902.568
900.044
897.436
894.814
892.142
889.438
886.702
883.938
881.149
878.34
875.515
872.683
869.861
867.055
864.283
861.566
858.941
856.464
854.224
852.342
851.225
851.426
854.729
11463.6
2849.78
1858.96
1354.49
956.675
677.988
512.239
405.607
338.094
294.696
265.111
243.635
227.177
214.097
203.553
195
188.098
182.65
178.53
175.637
173.914
173.525
174.034
175.575
178.53
183.182
189.966
199.555
212.896
230.581
251.571
273.995
295.516
315.848
337.22
371.512
437.39
548.034
648.486
723.664
795.545
871.948
945.691
1006.15
1052.41
1090.43
1113.3
1117.02
1074.8
1031.23
989.487
947.043
910.138
873.99
842.818
814.192
790.249
769.974
753.52
740.57
730.765
723.699
718.887
716.097
714.916
714.661
715.431
716.956
719.021
721.569
724.464
727.63
731.016
734.569
738.254
742.043
745.91
749.838
753.811
757.816
761.842
765.88
769.922
773.959
777.986
781.997
785.988
789.954
793.892
797.798
801.672
805.51
809.311
813.072
816.79
820.461
824.078
827.632
831.11
834.511
837.826
841.049
844.18
847.216
850.154
852.992
855.727
858.357
860.879
863.292
865.594
867.783
869.857
871.815
873.656
875.378
876.98
878.462
879.822
881.058
882.17
883.156
884.016
884.749
885.353
885.828
886.172
886.377
886.446
886.412
886.242
885.95
885.537
885.006
884.358
883.593
882.716
881.725
880.623
879.41
878.09
876.664
875.133
873.5
871.767
869.937
868.008
865.988
863.88
861.686
859.416
857.064
854.643
852.145
849.586
846.954
844.27
841.521
838.73
835.88
832.996
830.071
827.112
824.123
821.105
818.063
815.002
811.927
808.848
805.776
802.722
799.7
796.732
793.846
791.093
788.54
786.287
784.599
783.846
784.918
11464.1
3553.59
1961.02
1199.64
759.814
528.395
403.814
335.525
293.007
264.117
242.875
226.315
212.871
201.654
192.178
184.192
177.591
172.325
168.354
165.606
164.077
163.817
164.439
166.134
169.099
173.444
179.581
188.062
199.579
214.71
233.658
257.121
287.666
326.907
384.118
479.978
596.156
690.455
765.158
831.997
888.294
929.861
962.27
988.172
999.203
994.818
956.684
921.847
888.144
856.644
826.343
796.951
770.478
746.292
725.59
707.614
692.848
680.886
671.645
664.862
660.223
657.689
656.732
656.7
657.912
659.926
662.615
665.825
669.429
673.349
677.506
681.847
686.328
690.915
695.582
700.308
705.077
709.873
714.685
719.503
724.317
729.121
733.908
738.671
743.404
748.104
752.764
757.382
761.953
766.473
770.94
775.351
779.704
783.994
788.219
792.375
796.456
800.458
804.379
808.207
811.937
815.566
819.09
822.506
825.812
829.004
832.079
835.035
837.869
840.578
843.161
845.614
847.937
850.126
852.181
854.099
855.877
857.512
859.007
860.362
861.575
862.647
863.576
864.361
865.003
865.5
865.853
866.047
866.105
866.039
865.826
865.474
864.988
864.369
863.618
862.735
861.716
860.569
859.297
857.902
856.385
854.751
853
851.136
849.161
847.078
844.889
842.598
840.209
837.728
835.16
832.506
829.772
826.958
824.072
821.114
818.095
815.013
811.878
808.691
805.461
802.192
798.888
795.553
792.19
788.803
785.398
781.982
778.563
775.153
771.761
768.403
765.094
761.862
758.75
755.805
753.103
750.823
749.149
748.602
11470.8
3803.35
1779.44
942.258
585.334
425.185
344.644
297.485
266.963
245.386
229.162
216.083
204.983
195.283
186.756
179.345
173.048
167.916
164.054
161.575
160.471
160.674
161.993
164.682
168.726
174.146
181.358
191.197
204.546
222.474
248.006
285.905
343.354
431.4
536.303
627.131
700.212
765.075
817.993
856.758
885.727
904.353
910.183
896.89
867.952
839.518
810.897
786.263
762.721
740.037
717.893
697.136
678.707
662.568
648.958
637.665
628.728
621.957
617.193
614.461
613.391
613.354
614.639
616.861
619.926
623.639
627.871
632.508
637.459
642.652
648.028
653.541
659.156
664.842
670.577
676.344
682.129
687.917
693.696
699.458
705.195
710.899
716.563
722.183
727.752
733.266
738.72
744.111
749.433
754.682
759.855
764.949
769.962
774.889
779.729
784.476
789.13
793.689
798.146
802.49
806.717
810.823
814.804
818.659
822.383
825.974
829.429
832.745
835.919
838.949
841.831
844.564
847.147
849.576
851.851
853.97
855.931
857.733
859.375
860.857
862.177
863.335
864.331
865.165
865.836
866.344
866.689
866.853
866.879
866.751
866.46
866.015
865.417
864.669
863.773
862.73
861.544
860.217
858.75
857.147
855.411
853.543
851.548
849.428
847.186
844.826
842.35
839.762
837.068
834.272
831.38
828.396
825.323
822.164
818.927
815.614
812.233
808.788
805.285
801.728
798.125
794.482
790.803
787.091
783.352
779.589
775.809
772.02
768.23
764.45
760.691
756.965
753.287
749.68
746.15
742.761
739.569
736.702
734.236
732.36
11491.1
3711.99
1454.59
744.852
490.44
380.21
321.307
284.401
259.875
241.693
226.997
214.649
203.942
194.513
186.232
179.107
173.223
168.679
165.588
163.85
163.444
164.35
166.616
170.55
176.67
185.153
197.326
214.997
239.976
275.029
326.488
401.194
486.953
565.522
631.895
689.274
738.499
778.925
811.419
830.102
835.256
820.477
797.14
773.157
749.857
729.43
710.632
693.371
676.202
659.293
643.147
628.531
615.841
605.1
596.346
589.494
584.489
581.312
579.885
579.64
580.698
582.853
586.001
589.963
594.609
599.808
605.451
611.446
617.717
624.201
630.843
637.598
644.432
651.317
658.226
665.143
672.058
678.955
685.82
692.642
699.415
706.131
712.783
719.367
725.877
732.306
738.647
744.885
751.031
757.084
763.04
768.898
774.652
780.301
785.839
791.264
796.57
801.752
806.803
811.72
816.498
821.133
825.622
829.962
834.15
838.183
842.057
845.77
849.319
852.7
855.911
858.95
861.814
864.503
867.014
869.346
871.497
873.466
875.251
876.853
878.27
879.504
880.553
881.418
882.099
882.597
882.903
883.02
882.977
882.753
882.35
881.773
881.024
880.107
879.023
877.776
876.367
874.801
873.08
871.207
869.186
867.02
864.712
862.266
859.686
856.976
854.139
851.179
848.101
844.913
841.618
838.223
834.731
831.147
827.477
823.728
819.906
816.017
812.065
808.058
804.001
799.902
795.765
791.596
787.398
783.179
778.945
774.703
770.463
766.235
762.03
757.86
753.738
749.684
745.724
741.891
738.227
734.826
731.704
728.795
11522.4
3265.17
1156.67
619.63
435.445
351.289
305.676
277.843
257.522
241.993
229.509
218.749
209.134
200.502
192.908
186.499
181.473
177.95
176.139
175.834
177.282
180.202
185.144
193.101
204.985
221.409
246.077
282.007
330.618
390.703
455.144
515.571
571.493
621.191
664.703
701.661
733.772
756.198
763.835
755.94
737.651
718.161
698.656
681.577
666.468
652.943
639.974
627.155
614.218
601.653
590.052
579.883
571.335
564.439
559.194
555.533
553.643
553.079
553.738
555.629
558.624
562.591
567.419
572.974
579.14
585.808
592.883
600.283
607.942
615.818
623.834
631.949
640.126
648.333
656.536
664.704
672.79
680.811
688.784
696.704
704.559
712.341
720.043
727.661
735.186
742.614
749.939
757.162
764.265
771.238
778.08
784.788
791.36
797.791
804.078
810.218
816.206
822.038
827.711
833.224
838.572
843.751
848.758
853.59
858.244
862.717
867.006
871.107
875.018
878.736
882.257
885.58
888.703
891.624
894.342
896.855
899.162
901.262
903.153
904.835
906.308
907.572
908.629
909.478
910.121
910.557
910.773
910.796
910.624
910.25
909.677
908.91
907.953
906.807
905.476
903.964
902.273
900.407
898.371
896.166
893.798
891.271
888.588
885.755
882.774
879.652
876.391
872.998
869.476
865.833
862.075
858.207
854.235
850.166
846.005
841.761
837.44
833.048
828.592
824.077
819.509
814.898
810.248
805.564
800.853
796.122
791.38
786.632
781.89
777.162
772.459
767.794
763.177
758.628
754.167
749.825
745.629
741.653
737.879
734.025
11553.7
2736.29
970.713
560.862
413.696
343.332
304.09
279.675
263.022
250.275
239.604
230.213
221.849
214.561
208.57
204.065
201.639
201.066
202.623
206.202
212.234
220.798
233.422
251.374
275.57
307.337
345.965
389.228
434.972
480.594
524.051
564.045
600.418
632.472
661.291
684.558
694.485
694.525
683.281
669.348
653.745
639.79
627.515
616.889
607.142
597.715
588.166
578.455
568.813
559.74
551.68
544.915
539.563
535.643
533.312
532.432
532.706
534.306
537.07
540.919
545.757
551.487
558.034
565.264
573.059
581.323
589.966
598.9
608.028
617.233
626.575
636.027
645.551
655.112
664.669
674.188
683.662
693.066
702.383
711.609
720.724
729.724
738.603
747.359
755.987
764.478
772.824
781.013
789.039
796.9
804.595
812.122
819.48
826.664
833.672
840.5
847.144
853.603
859.874
865.953
871.838
877.524
883.008
888.287
893.358
898.22
902.868
907.301
911.515
915.506
919.273
922.813
926.124
929.207
932.06
934.681
937.069
939.224
941.143
942.828
944.278
945.495
946.479
947.233
947.757
948.045
948.105
947.944
947.561
946.958
946.136
945.099
943.853
942.399
940.743
938.887
936.836
934.594
932.166
929.555
926.766
923.804
920.673
917.38
913.928
910.324
906.571
902.676
898.644
894.481
890.194
885.791
881.277
876.66
871.949
867.152
862.276
857.326
852.31
847.232
842.101
836.924
831.706
826.456
821.18
815.887
810.586
805.284
799.99
794.715
789.468
784.259
779.102
774.013
769.012
764.122
759.365
754.798
750.394
745.685
11577.1
2238.66
844.73
519.32
398.227
340.424
308.374
288.568
274.78
264.176
255.446
248.075
242.012
237.399
235.003
234.492
236.419
241.021
247.774
256.423
268.092
284.071
304.562
329.396
357.949
389.224
421.87
454.786
487.143
518.111
546.763
572.919
597.373
619.184
630.989
633.833
629.637
622.279
611.82
601.567
592.111
584.001
576.794
570.082
563.426
556.594
549.544
542.47
535.712
529.67
524.653
520.822
518.38
517.371
517.439
518.897
521.647
525.574
530.561
536.522
543.359
550.95
559.101
567.831
577.134
586.933
597.142
607.677
618.477
629.517
640.696
651.951
663.237
674.53
685.756
696.861
707.815
718.596
729.187
739.587
749.822
759.904
769.837
779.621
789.252
798.717
808.002
817.095
825.987
834.676
843.16
851.44
859.512
867.375
875.023
882.455
889.668
896.661
903.432
909.979
916.297
922.383
928.234
933.847
939.22
944.352
949.241
953.885
958.279
962.421
966.309
969.942
973.318
976.437
979.299
981.903
984.248
986.333
988.158
989.723
991.029
992.077
992.869
993.409
993.694
993.729
993.513
993.052
992.349
991.406
990.227
988.815
987.175
985.311
983.228
980.931
978.423
975.71
972.797
969.689
966.39
962.907
959.244
955.407
951.403
947.238
942.916
938.445
933.83
929.077
924.193
919.186
914.066
908.841
903.52
898.112
892.623
887.061
881.431
875.738
869.991
864.195
858.36
852.493
846.604
840.703
834.798
828.898
823.009
817.143
811.307
805.514
799.775
794.107
788.527
783.057
777.711
772.538
767.513
762.01
11590.6
2026.46
814.979
512.677
399.321
347.198
319.283
302.268
290.719
282.248
275.846
271.143
268.428
267.562
268.672
272.348
278.448
286.752
297.03
309.981
325.73
344.089
364.685
386.974
410.318
434.097
457.771
480.792
502.45
523.157
543.197
561.231
572.907
577.296
577.657
575.386
570.515
564.795
558.822
553.449
548.66
544.333
540.168
535.949
531.549
526.983
522.397
518.051
514.263
511.364
509.776
509.251
509.802
511.572
514.452
518.419
523.241
529.111
536.049
543.985
552.832
562.505
572.967
584.102
595.805
607.985
620.531
633.351
646.369
659.542
672.78
685.971
699.058
711.98
724.684
737.121
749.261
761.096
772.639
783.924
795.002
805.906
816.65
827.241
837.671
847.919
857.954
867.762
877.333
886.663
895.75
904.594
913.192
921.541
929.637
937.477
945.06
952.386
959.454
966.263
972.81
979.09
985.101
990.841
996.31
1001.51
1006.43
1011.08
1015.45
1019.54
1023.35
1026.88
1030.12
1033.08
1035.76
1038.16
1040.28
1042.11
1043.66
1044.93
1045.91
1046.62
1047.06
1047.22
1047.1
1046.73
1046.08
1045.17
1044
1042.58
1040.9
1038.98
1036.81
1034.41
1031.77
1028.91
1025.83
1022.53
1019.02
1015.31
1011.4
1007.29
1003
998.523
993.874
989.058
984.082
978.953
973.675
968.258
962.704
957.024
951.231
945.336
939.346
933.269
927.112
920.882
914.585
908.226
901.813
895.349
888.848
882.319
875.775
869.224
862.675
856.136
849.614
843.117
836.654
830.237
823.88
817.599
811.41
805.331
799.372
793.576
787.935
781.683
11599
1953.14
782.691
506.309
405.068
358.393
333.703
318.878
309.121
302.489
298.379
296.563
296.307
298.217
302.258
308.336
316.308
326.057
337.662
351.06
365.873
381.831
398.61
415.755
432.881
449.635
465.733
481.647
497.615
511.571
521.631
526.923
529.685
530.604
530.532
529.216
527.323
525.375
523.537
521.926
520.467
519.112
517.879
516.556
515.142
513.747
512.532
511.741
511.461
511.683
512.428
514.217
517.177
521.387
526.844
533.609
541.86
551.423
562.071
573.668
586.101
599.274
613.105
627.474
642.29
657.472
672.826
688.221
703.544
718.671
733.507
748.033
762.264
776.299
789.964
803.146
815.807
827.967
839.689
851.077
862.269
873.337
884.294
895.162
905.916
916.504
926.854
936.956
946.799
956.374
965.676
974.701
983.446
991.907
1000.08
1007.96
1015.54
1022.84
1029.85
1036.56
1042.99
1049.12
1054.94
1060.47
1065.71
1070.64
1075.27
1079.61
1083.64
1087.38
1090.81
1093.94
1096.76
1099.29
1101.51
1103.43
1105.06
1106.38
1107.41
1108.14
1108.57
1108.71
1108.56
1108.13
1107.41
1106.41
1105.14
1103.59
1101.77
1099.68
1097.33
1094.73
1091.88
1088.78
1085.44
1081.87
1078.07
1074.06
1069.82
1065.38
1060.73
1055.88
1050.85
1045.63
1040.23
1034.67
1028.94
1023.07
1017.04
1010.88
1004.58
998.157
991.629
985.002
978.284
971.481
964.6
957.649
950.632
943.558
936.432
929.255
922.044
914.815
907.577
900.341
893.113
885.9
878.71
871.548
864.424
857.352
850.347
843.425
836.601
829.89
823.3
816.865
810.609
803.645
11602.3
1909.25
778.67
512.332
416.334
373.106
350.653
337.111
328.303
322.868
320.333
319.689
321.064
324.583
329.804
336.536
344.624
353.95
364.374
375.694
387.671
400.072
412.639
425.141
437.401
449.28
460.603
470.65
478.672
485.028
490.254
494.469
498.104
501.28
504.115
506.61
508.912
511.112
513.231
515.256
517.109
518.681
519.705
520.647
521.732
523.113
524.955
527.433
530.678
534.853
540.223
546.796
554.664
563.823
574.283
586.138
599.539
614.285
630.01
646.436
663.409
680.807
698.514
716.405
734.33
752.155
769.836
787.277
804.367
820.988
837.026
852.392
867.078
881.093
894.327
906.76
918.36
929.222
939.489
949.369
959.274
969.308
979.379
989.573
999.803
1009.95
1019.95
1029.72
1039.24
1048.47
1057.41
1066.05
1074.38
1082.4
1090.11
1097.49
1104.55
1111.29
1117.72
1123.83
1129.63
1135.12
1140.28
1145.12
1149.64
1153.85
1157.74
1161.32
1164.59
1167.55
1170.19
1172.51
1174.52
1176.21
1177.6
1178.68
1179.46
1179.93
1180.09
1179.95
1179.53
1178.78
1177.74
1176.42
1174.81
1172.92
1170.74
1168.29
1165.57
1162.59
1159.34
1155.83
1152.07
1148.06
1143.82
1139.34
1134.64
1129.71
1124.57
1119.23
1113.68
1107.94
1102.01
1095.9
1089.62
1083.17
1076.56
1069.81
1062.92
1055.9
1048.77
1041.54
1034.22
1026.81
1019.3
1011.72
1004.06
996.336
988.551
980.713
972.832
964.9
956.947
948.986
941.026
933.074
925.138
917.222
909.335
901.481
893.668
885.918
878.244
870.663
863.185
855.826
848.592
841.508
834.638
826.995
11602.6
1879.54
775.65
521.352
429.769
388.198
366.957
354.229
345.933
341.24
339.283
338.972
340.903
344.664
349.803
356.064
363.262
371.287
380.008
389.293
399.021
409.103
419.501
429.862
439.916
449.463
458.215
466.359
473.918
481.023
487.743
494.013
499.636
504.986
510.202
515.293
520.322
525.344
530.411
535.536
540.702
545.984
551.597
557.591
564.088
571.226
579.13
587.903
597.642
608.471
620.524
633.844
648.658
664.634
681.573
699.32
717.58
736.135
754.994
774.163
793.553
813.057
832.573
851.995
871.216
890.132
908.666
926.74
944.273
961.172
977.323
992.535
1006.73
1019.77
1031.85
1043.13
1053.68
1063.54
1072.72
1081.32
1089.56
1097.61
1105.69
1114.35
1123.26
1132.16
1140.96
1149.55
1157.88
1165.89
1173.6
1181
1188.08
1194.84
1201.27
1207.35
1213.1
1218.52
1223.62
1228.41
1232.87
1237.02
1240.84
1244.33
1247.51
1250.37
1252.93
1255.18
1257.11
1258.75
1260.08
1261.09
1261.79
1262.19
1262.28
1262.11
1261.64
1260.86
1259.78
1258.41
1256.75
1254.8
1252.57
1250.06
1247.28
1244.23
1240.91
1237.32
1233.48
1229.38
1225.02
1220.42
1215.58
1210.5
1205.19
1199.67
1193.93
1187.98
1181.82
1175.47
1168.92
1162.19
1155.29
1148.21
1140.96
1133.56
1126.01
1118.33
1110.51
1102.58
1094.55
1086.44
1078.24
1069.96
1061.58
1053.14
1044.62
1036.04
1027.41
1018.74
1010.03
1001.32
992.609
983.899
975.197
966.507
957.838
949.197
940.592
932.026
923.511
915.07
906.719
898.469
890.329
882.315
874.432
866.695
859.213
850.929
11599.9
1860.87
777.931
531.578
442.112
401.994
381.779
369.488
361.567
357.387
355.748
355.589
357.706
361.432
366.473
372.625
379.757
387.856
396.638
406.023
415.797
425.744
435.765
445.878
456.109
466.489
477.155
487.724
498.296
508.926
519.64
530.458
541.509
552.751
564.145
575.663
587.28
598.996
610.812
622.755
634.921
647.437
660.467
674.032
688.202
703.084
718.781
735.288
752.553
770.564
789.319
808.826
828.945
849.438
870.173
891.006
911.763
932.281
952.463
972.25
991.59
1010.43
1028.72
1046.43
1063.52
1079.96
1095.73
1110.83
1125.24
1138.97
1152
1164.34
1176
1186.69
1196.72
1206.22
1215.3
1223.91
1231.91
1239.32
1246.03
1252.27
1258.69
1265.4
1272.08
1278.59
1284.88
1290.91
1296.67
1302.13
1307.32
1312.22
1316.83
1321.15
1325.17
1328.88
1332.28
1335.4
1338.25
1340.83
1343.12
1345.13
1346.86
1348.3
1349.46
1350.35
1350.98
1351.34
1351.42
1351.26
1350.84
1350.12
1349.14
1347.9
1346.4
1344.65
1342.64
1340.37
1337.84
1335.06
1332.01
1328.71
1325.16
1321.37
1317.33
1313.06
1308.55
1303.8
1298.82
1293.61
1288.17
1282.51
1276.63
1270.54
1264.25
1257.76
1251.07
1244.19
1237.13
1229.89
1222.47
1214.88
1207.12
1199.21
1191.14
1182.93
1174.59
1166.11
1157.51
1148.78
1139.95
1131.02
1122
1112.88
1103.69
1094.41
1085.07
1075.68
1066.23
1056.74
1047.23
1037.73
1028.23
1018.75
1009.27
999.803
990.365
980.961
971.602
962.309
953.099
943.977
934.953
926.037
917.239
908.572
900.044
891.666
883.58
874.703
11594.3
1844
781.261
538.557
452.303
415.413
396.666
385.426
378.833
375.924
375.187
376.775
380.7
386.447
393.774
402.562
412.746
423.391
435.125
448.074
461.97
476.638
492.353
509.217
527.308
546.657
567.192
588.69
611.013
633.992
657.491
681.434
705.791
730.421
755.282
780.287
805.119
829.663
853.873
877.75
901.35
924.763
948.051
971.232
994.357
1017.59
1041.41
1065.52
1089.34
1112.62
1135.23
1156.92
1177.28
1196.63
1215.03
1232.46
1248.85
1264.18
1278.47
1291.74
1304.05
1315.42
1325.89
1335.52
1344.34
1352.4
1359.74
1366.41
1372.48
1377.99
1383.03
1387.84
1392.52
1397.13
1401.6
1405.83
1409.79
1413.42
1416.52
1419.45
1422.45
1425.95
1429.62
1432.75
1435.36
1437.65
1439.7
1441.55
1443.22
1444.72
1446.04
1447.18
1448.12
1448.86
1449.4
1449.75