/*--------------------------------*- C++ -*----------------------------------*\
  =========                 |
  \\      /  F ield         | OpenFOAM: The Open Source CFD Toolbox
   \\    /   O peration     | Website:  https://openfoam.org
    \\  /    A nd           | Version:  8
     \\/     M anipulation  |
\*---------------------------------------------------------------------------*/
FoamFile
{
    version     2.0;
    format      ascii;
    class       surfaceScalarField;
    location    "1700";
    object      phi;
}
// * * * * * * * * * * * * * * * * * * * * * * * * * * * * * * * * * * * * * //

dimensions      [0 3 -1 0 0 0 0];

internalField   nonuniform List<scalar> 
24170
(
2.99948e-06
1.3442e-07
2.85263e-06
1.46981e-07
2.72541e-06
1.27383e-07
2.61421e-06
1.1129e-07
2.51762e-06
9.67563e-08
2.435e-06
8.28294e-08
2.36622e-06
6.8936e-08
2.30773e-06
5.83439e-08
2.25744e-06
5.01338e-08
2.21555e-06
4.17333e-08
2.18105e-06
3.45151e-08
2.15251e-06
2.85719e-08
2.12969e-06
2.29175e-08
2.1107e-06
1.90726e-08
2.09541e-06
1.53418e-08
2.0855e-06
9.93017e-09
2.0812e-06
4.27571e-09
-1.66886e-09
2.08283e-06
3.51476e-06
7.61838e-08
3.54802e-06
1.14252e-07
3.56315e-06
1.12805e-07
3.56292e-06
1.12018e-07
3.55068e-06
1.09484e-07
3.53105e-06
1.02863e-07
3.50522e-06
9.49921e-08
3.47608e-06
8.74591e-08
3.44603e-06
8.00949e-08
3.41507e-06
7.25762e-08
3.3828e-06
6.67307e-08
3.34956e-06
6.17172e-08
3.31792e-06
5.44973e-08
3.28857e-06
4.83546e-08
3.26199e-06
4.18612e-08
3.23818e-06
3.36984e-08
3.21642e-06
2.59878e-08
2.05615e-08
3.19417e-06
3.83335e-06
5.50399e-08
3.85294e-06
9.46126e-08
3.86739e-06
9.83175e-08
3.88005e-06
9.93225e-08
3.89036e-06
9.91888e-08
3.89751e-06
9.57968e-08
3.90185e-06
9.06655e-08
3.904e-06
8.52115e-08
3.90385e-06
8.01125e-08
3.9015e-06
7.48451e-08
3.89805e-06
7.01867e-08
3.89393e-06
6.58619e-08
3.88835e-06
6.01377e-08
3.88227e-06
5.44878e-08
3.87583e-06
4.83365e-08
3.86821e-06
4.13191e-08
3.85955e-06
3.46446e-08
2.92236e-08
3.85088e-06
4.21649e-06
4.31672e-08
4.23086e-06
8.06143e-08
4.2407e-06
8.8805e-08
4.24915e-06
9.11814e-08
4.25688e-06
9.17525e-08
4.26354e-06
8.93831e-08
4.26924e-06
8.50738e-08
4.27418e-06
8.02746e-08
4.27839e-06
7.58382e-08
4.28184e-06
7.13511e-08
4.28498e-06
6.70019e-08
4.28805e-06
6.27371e-08
4.29045e-06
5.76957e-08
4.29244e-06
5.24498e-08
4.29391e-06
4.68207e-08
4.29437e-06
4.08176e-08
4.29389e-06
3.50899e-08
3.02254e-08
4.29286e-06
4.64607e-06
3.44236e-08
4.65804e-06
6.8538e-08
4.66696e-06
7.98088e-08
4.6745e-06
8.35546e-08
4.68138e-06
8.48451e-08
4.68746e-06
8.3292e-08
4.69279e-06
7.97238e-08
4.69749e-06
7.54957e-08
4.70179e-06
7.14699e-08
4.70574e-06
6.73654e-08
4.70955e-06
6.31976e-08
4.71335e-06
5.89641e-08
4.71681e-06
5.42746e-08
4.71997e-06
4.93253e-08
4.72268e-06
4.41262e-08
4.72468e-06
3.88141e-08
4.726e-06
3.37632e-08
2.93473e-08
4.72688e-06
5.12165e-06
2.73919e-08
5.13192e-06
5.85478e-08
5.14052e-06
7.14489e-08
5.14803e-06
7.62615e-08
5.15492e-06
7.81451e-08
5.16109e-06
7.72684e-08
5.16652e-06
7.43772e-08
5.17132e-06
7.06896e-08
5.17578e-06
6.69992e-08
5.17996e-06
6.31523e-08
5.18399e-06
5.91432e-08
5.18792e-06
5.49947e-08
5.19159e-06
5.0561e-08
5.19495e-06
4.59126e-08
5.1979e-06
4.11348e-08
5.20028e-06
3.63828e-08
5.20213e-06
3.18807e-08
2.78392e-08
5.20359e-06
5.64662e-06
2.17803e-08
5.65569e-06
4.93468e-08
5.66404e-06
6.29917e-08
5.6716e-06
6.86245e-08
5.67868e-06
7.10213e-08
5.68513e-06
7.0806e-08
5.69086e-06
6.8605e-08
5.696e-06
6.55051e-08
5.70077e-06
6.21879e-08
5.70528e-06
5.86432e-08
5.70956e-06
5.48603e-08
5.71367e-06
5.09032e-08
5.7175e-06
4.67329e-08
5.72101e-06
4.24097e-08
5.7241e-06
3.80381e-08
5.72672e-06
3.37544e-08
5.72887e-06
2.97019e-08
2.6019e-08
5.73069e-06
4.40938e-06
1.85082e-08
4.41529e-06
4.36127e-08
4.4212e-06
5.72187e-08
4.42669e-06
6.32715e-08
4.43188e-06
6.59474e-08
4.43668e-06
6.6095e-08
4.44102e-06
6.43067e-08
4.44495e-06
6.15829e-08
4.44861e-06
5.85221e-08
4.45206e-06
5.51934e-08
4.45531e-06
5.15989e-08
4.45838e-06
4.7819e-08
4.46123e-06
4.38592e-08
4.46384e-06
3.9785e-08
4.46616e-06
3.56942e-08
4.46817e-06
3.17175e-08
4.46989e-06
2.79624e-08
2.45067e-08
4.47137e-06
5.14282e-06
1.55589e-08
5.14868e-06
3.76301e-08
5.15485e-06
5.09744e-08
5.16076e-06
5.73183e-08
5.16644e-06
6.02501e-08
5.17177e-06
6.07501e-08
5.17664e-06
5.94142e-08
5.18112e-06
5.70891e-08
5.1853e-06
5.4332e-08
5.18924e-06
5.12474e-08
5.19295e-06
4.78853e-08
5.19644e-06
4.43248e-08
5.19968e-06
4.06125e-08
5.20263e-06
3.6809e-08
5.20528e-06
3.30323e-08
5.2076e-06
2.9371e-08
5.20962e-06
2.59154e-08
2.27442e-08
5.21138e-06
5.99844e-06
1.2879e-08
6.00415e-06
3.19744e-08
6.0105e-06
4.46813e-08
6.01677e-06
5.10993e-08
6.02292e-06
5.41539e-08
6.02876e-06
5.49348e-08
6.0342e-06
5.40041e-08
6.03923e-06
5.2059e-08
6.04397e-06
4.96053e-08
6.04844e-06
4.67819e-08
6.05264e-06
4.36803e-08
6.05658e-06
4.03757e-08
6.06024e-06
3.69347e-08
6.06359e-06
3.34647e-08
6.0666e-06
3.0009e-08
6.06927e-06
2.6692e-08
6.07162e-06
2.35578e-08
2.06591e-08
6.07369e-06
6.99662e-06
1.05443e-08
7.00206e-06
2.64898e-08
7.00852e-06
3.8204e-08
7.01511e-06
4.45106e-08
7.02168e-06
4.75909e-08
7.02804e-06
4.85907e-08
7.03403e-06
4.80107e-08
7.03965e-06
4.64509e-08
7.04495e-06
4.42947e-08
7.04997e-06
4.17698e-08
7.05469e-06
3.89472e-08
7.0591e-06
3.59384e-08
7.06321e-06
3.28432e-08
7.06697e-06
2.97006e-08
7.07037e-06
2.66188e-08
7.07341e-06
2.36476e-08
7.07613e-06
2.08418e-08
1.82455e-08
7.07854e-06
8.1611e-06
8.42887e-09
8.1662e-06
2.13787e-08
8.17268e-06
3.17313e-08
8.17954e-06
3.76548e-08
8.1865e-06
4.06395e-08
8.19334e-06
4.17448e-08
8.1999e-06
4.14773e-08
8.2061e-06
4.02193e-08
8.21201e-06
3.84148e-08
8.21758e-06
3.61748e-08
8.22283e-06
3.36951e-08
8.22775e-06
3.10288e-08
8.23232e-06
2.82873e-08
8.23652e-06
2.55235e-08
8.24033e-06
2.28194e-08
8.24377e-06
2.02085e-08
8.24687e-06
1.7753e-08
1.54649e-08
8.24965e-06
9.51961e-06
6.56713e-09
9.52434e-06
1.66379e-08
9.53074e-06
2.53362e-08
9.5378e-06
3.06049e-08
9.54511e-06
3.33385e-08
9.55243e-06
3.44632e-08
9.55953e-06
3.43551e-08
9.56636e-06
3.34306e-08
9.57284e-06
3.18948e-08
9.57902e-06
3.00287e-08
9.58482e-06
2.78773e-08
9.59028e-06
2.56067e-08
9.59534e-06
2.3238e-08
9.60002e-06
2.08858e-08
9.60427e-06
1.85533e-08
9.60816e-06
1.63377e-08
9.61166e-06
1.42299e-08
1.22847e-08
9.61483e-06
1.11044e-05
4.8535e-09
1.11088e-05
1.22039e-08
1.11151e-05
1.9045e-08
1.11223e-05
2.33812e-08
1.11299e-05
2.57211e-08
1.11377e-05
2.6708e-08
1.11454e-05
2.67202e-08
1.11528e-05
2.59932e-08
1.11599e-05
2.47873e-08
1.11667e-05
2.32343e-08
1.11731e-05
2.14829e-08
1.11791e-05
1.95906e-08
1.11848e-05
1.76501e-08
1.11899e-05
1.56905e-08
1.11947e-05
1.3788e-08
1.11991e-05
1.19597e-08
1.1203e-05
1.02456e-08
8.64916e-09
1.12066e-05
1.29532e-05
3.26133e-09
1.29574e-05
7.99019e-09
1.29635e-05
1.28113e-08
1.29709e-05
1.60211e-08
1.29788e-05
1.77549e-08
1.29871e-05
1.85004e-08
1.29953e-05
1.84962e-08
1.30034e-05
1.79388e-08
1.30112e-05
1.6993e-08
1.30186e-05
1.57834e-08
1.30257e-05
1.441e-08
1.30323e-05
1.29358e-08
1.30386e-05
1.14213e-08
1.30443e-05
9.90785e-09
1.30496e-05
8.43894e-09
1.30545e-05
7.0389e-09
1.3059e-05
5.7275e-09
4.5147e-09
1.30632e-05
1.511e-05
1.7245e-09
1.5114e-05
3.85659e-09
1.51202e-05
6.59547e-09
1.51277e-05
8.43326e-09
1.51361e-05
9.39891e-09
1.51449e-05
9.75345e-09
1.51537e-05
9.63451e-09
1.51625e-05
9.17188e-09
1.5171e-05
8.45552e-09
1.51792e-05
7.57538e-09
1.5187e-05
6.5893e-09
1.51944e-05
5.54888e-09
1.52013e-05
4.48912e-09
1.52078e-05
3.44335e-09
1.52137e-05
2.43588e-09
1.52193e-05
1.4858e-09
1.52244e-05
6.02986e-10
-2.03262e-10
1.52291e-05
1.7626e-05
1.70529e-10
1.76302e-05
-3.31242e-10
1.76366e-05
1.65833e-10
1.76446e-05
4.30259e-10
1.76536e-05
4.59852e-10
1.7663e-05
2.63181e-10
1.76727e-05
-3.42392e-11
1.76824e-05
-4.83365e-10
1.76918e-05
-9.7143e-10
1.77009e-05
-1.54151e-09
1.77096e-05
-2.10876e-09
1.77178e-05
-2.70586e-09
1.77256e-05
-3.27339e-09
1.77328e-05
-3.83269e-09
1.77396e-05
-4.34437e-09
1.77459e-05
-4.82215e-09
1.77517e-05
-5.24482e-09
-5.62066e-09
1.77571e-05
1.78277e-05
-1.32621e-09
1.78318e-05
-4.31858e-09
1.7838e-05
-6.05202e-09
1.78459e-05
-7.294e-09
1.78545e-05
-8.28624e-09
1.78639e-05
-8.96973e-09
1.78733e-05
-9.54631e-09
1.78829e-05
-9.92311e-09
1.78921e-05
-1.02683e-08
1.79011e-05
-1.04818e-08
1.79096e-05
-1.06969e-08
1.79178e-05
-1.08231e-08
1.79253e-05
-1.09547e-08
1.79326e-05
-1.10197e-08
1.79393e-05
-1.10821e-08
1.79456e-05
-1.10899e-08
1.79514e-05
-1.10889e-08
-1.10408e-08
1.79568e-05
1.58828e-05
-2.74326e-09
1.58866e-05
-8.11013e-09
1.58925e-05
-1.18037e-08
1.58996e-05
-1.44229e-08
1.59076e-05
-1.61867e-08
1.5916e-05
-1.73668e-08
1.59246e-05
-1.80487e-08
1.5933e-05
-1.84376e-08
1.59414e-05
-1.85256e-08
1.59493e-05
-1.849e-08
1.5957e-05
-1.82969e-08
1.59641e-05
-1.8064e-08
1.5971e-05
-1.77453e-08
1.59773e-05
-1.74199e-08
1.59833e-05
-1.70468e-08
1.59888e-05
-1.66779e-08
1.5994e-05
-1.62805e-08
-1.5889e-08
1.59989e-05
1.41501e-05
-4.20495e-09
1.41541e-05
-1.20078e-08
1.41599e-05
-1.75515e-08
1.41668e-05
-2.13065e-08
1.41744e-05
-2.37271e-08
1.41823e-05
-2.51981e-08
1.41902e-05
-2.59871e-08
1.41981e-05
-2.62252e-08
1.42056e-05
-2.61118e-08
1.42129e-05
-2.57323e-08
1.42198e-05
-2.52054e-08
1.42263e-05
-2.45661e-08
1.42324e-05
-2.38744e-08
1.42381e-05
-2.31452e-08
1.42435e-05
-2.2411e-08
1.42485e-05
-2.16709e-08
1.42531e-05
-2.09454e-08
-2.0224e-08
1.42574e-05
1.26066e-05
-5.81622e-09
1.26109e-05
-1.62636e-08
1.26169e-05
-2.35325e-08
1.26238e-05
-2.81892e-08
1.26312e-05
-3.10713e-08
1.26387e-05
-3.27405e-08
1.26463e-05
-3.34869e-08
1.26536e-05
-3.35418e-08
1.26606e-05
-3.31294e-08
1.26673e-05
-3.24101e-08
1.26736e-05
-3.15143e-08
1.26796e-05
-3.04895e-08
1.26851e-05
-2.94258e-08
1.26903e-05
-2.83247e-08
1.26951e-05
-2.72467e-08
1.26996e-05
-2.61735e-08
1.27038e-05
-2.51423e-08
-2.41333e-08
1.27077e-05
1.12317e-05
-7.68866e-09
1.12364e-05
-2.10548e-08
1.12428e-05
-2.98632e-08
1.12497e-05
-3.51682e-08
1.1257e-05
-3.83408e-08
1.12644e-05
-4.00816e-08
1.12716e-05
-4.06855e-08
1.12785e-05
-4.04638e-08
1.12851e-05
-3.97028e-08
1.12913e-05
-3.86168e-08
1.12972e-05
-3.73211e-08
1.13026e-05
-3.59299e-08
1.13077e-05
-3.44773e-08
1.13124e-05
-3.30449e-08
1.13168e-05
-3.16211e-08
1.13209e-05
-3.02596e-08
1.13247e-05
-2.8931e-08
-2.76756e-08
1.13282e-05
1.00069e-05
-9.97947e-09
1.00124e-05
-2.65801e-08
1.00191e-05
-3.6617e-08
1.00262e-05
-4.22466e-08
1.00334e-05
-4.55716e-08
1.00406e-05
-4.72731e-08
1.00476e-05
-4.76375e-08
1.00542e-05
-4.7059e-08
1.00604e-05
-4.59081e-08
1.00662e-05
-4.44197e-08
1.00716e-05
-4.2731e-08
1.00767e-05
-4.09424e-08
1.00813e-05
-3.91341e-08
1.00857e-05
-3.73479e-08
1.00897e-05
-3.56242e-08
1.00934e-05
-3.39634e-08
1.00968e-05
-3.23893e-08
-3.08825e-08
1.01001e-05
8.91605e-06
-1.29464e-08
8.9224e-06
-3.2951e-08
8.92951e-06
-4.37392e-08
8.93667e-06
-4.94294e-08
8.94389e-06
-5.27959e-08
8.95097e-06
-5.43532e-08
8.9577e-06
-5.43724e-08
8.96403e-06
-5.33908e-08
8.96994e-06
-5.18184e-08
8.97544e-06
-4.99061e-08
8.98053e-06
-4.7804e-08
8.98522e-06
-4.56221e-08
8.98955e-06
-4.34467e-08
8.99354e-06
-4.13248e-08
8.99722e-06
-3.92935e-08
9.00063e-06
-3.73658e-08
9.0038e-06
-3.55424e-08
-3.38251e-08
9.00674e-06
7.94462e-06
-1.68988e-08
7.95195e-06
-4.03131e-08
7.9594e-06
-5.12222e-08
7.9667e-06
-5.67235e-08
7.97397e-06
-6.0079e-08
7.98101e-06
-6.13946e-08
7.98762e-06
-6.1004e-08
7.99379e-06
-5.95552e-08
7.99951e-06
-5.75266e-08
8.00478e-06
-5.51727e-08
8.00963e-06
-5.26408e-08
8.01407e-06
-5.00583e-08
8.01813e-06
-4.75019e-08
8.02186e-06
-4.50393e-08
8.02528e-06
-4.27027e-08
8.02844e-06
-4.05124e-08
8.03137e-06
-3.84579e-08
-3.65264e-08
8.03408e-06
7.07968e-06
-2.22553e-08
7.0882e-06
-4.88675e-08
7.09615e-06
-5.917e-08
7.10378e-06
-6.43677e-08
7.11133e-06
-6.76311e-08
7.11854e-06
-6.86094e-08
7.12526e-06
-6.77239e-08
7.13148e-06
-6.57893e-08
7.13721e-06
-6.32513e-08
7.14245e-06
-6.04139e-08
7.14724e-06
-5.74192e-08
7.15158e-06
-5.43934e-08
7.15553e-06
-5.14427e-08
7.1591e-06
-4.86022e-08
7.16236e-06
-4.5951e-08
7.16534e-06
-4.34818e-08
7.16809e-06
-4.11936e-08
-3.90632e-08
7.17064e-06
6.31007e-06
-2.98242e-08
6.32051e-06
-5.92494e-08
6.32966e-06
-6.83864e-08
6.33851e-06
-7.32193e-08
6.34715e-06
-7.62771e-08
6.35527e-06
-7.67315e-08
6.36275e-06
-7.52227e-08
6.36961e-06
-7.26229e-08
6.37581e-06
-6.94793e-08
6.38142e-06
-6.60138e-08
6.38643e-06
-6.24235e-08
6.39088e-06
-5.88511e-08
6.39483e-06
-5.53608e-08
6.39828e-06
-5.20693e-08
6.40134e-06
-4.89981e-08
6.40405e-06
-4.61822e-08
6.40645e-06
-4.3589e-08
-4.12086e-08
6.4086e-06
5.62901e-06
-4.39258e-08
5.64428e-06
-7.44986e-08
5.65799e-06
-8.21392e-08
5.67143e-06
-8.66841e-08
5.68408e-06
-8.89289e-08
5.69537e-06
-8.80304e-08
5.70518e-06
-8.50284e-08
5.71353e-06
-8.09746e-08
5.72044e-06
-7.63986e-08
5.726e-06
-7.15847e-08
5.73031e-06
-6.67481e-08
5.73352e-06
-6.20365e-08
5.73572e-06
-5.75569e-08
5.73702e-06
-5.33739e-08
5.73758e-06
-4.95554e-08
5.73752e-06
-4.61242e-08
5.73699e-06
-4.30531e-08
-4.05427e-08
5.73633e-06
5.04679e-06
-8.84054e-08
5.08314e-06
-1.10817e-07
5.11091e-06
-1.09959e-07
5.13071e-06
-1.06509e-07
5.14234e-06
-1.00565e-07
5.14674e-06
-9.24446e-08
5.14534e-06
-8.36163e-08
5.13934e-06
-7.49831e-08
5.12981e-06
-6.68868e-08
5.11763e-06
-5.94268e-08
5.10355e-06
-5.26576e-08
5.08809e-06
-4.65685e-08
5.07171e-06
-4.11659e-08
5.05475e-06
-3.64245e-08
5.03749e-06
-3.23088e-08
5.02027e-06
-2.88979e-08
5.00343e-06
-2.62054e-08
-2.45314e-08
4.98743e-06
4.36815e-06
4.25732e-06
4.14736e-06
4.04085e-06
3.94029e-06
3.84784e-06
3.76423e-06
3.68924e-06
3.62235e-06
3.56292e-06
3.51027e-06
3.4637e-06
3.42253e-06
3.38611e-06
3.3538e-06
3.3249e-06
3.2987e-06
3.27417e-06
-8.15066e-09
8.16763e-09
-2.20985e-08
1.39583e-08
-3.72828e-08
1.52187e-08
-5.03418e-08
1.30495e-08
-5.60393e-08
5.74904e-09
-4.85263e-08
-7.5565e-09
-2.55457e-08
-2.29073e-08
1.02936e-08
-3.58972e-08
5.51358e-08
-4.47591e-08
1.03953e-07
-4.8871e-08
1.52578e-07
-4.85497e-08
1.97688e-07
-4.51549e-08
2.37491e-07
-3.97408e-08
2.70548e-07
-3.30974e-08
2.96337e-07
-2.57408e-08
3.14278e-07
-1.79796e-08
3.24255e-07
-9.94473e-09
3.25819e-07
-1.59889e-09
3.1889e-07
6.94545e-09
3.03557e-07
1.53073e-08
2.80497e-07
2.30717e-08
2.50631e-07
2.98525e-08
2.15395e-07
3.52467e-08
1.76592e-07
3.87972e-08
1.36544e-07
4.0064e-08
9.78132e-08
3.87315e-08
6.30522e-08
3.47806e-08
3.43884e-08
2.86727e-08
1.29917e-08
2.14204e-08
-1.22079e-09
1.42329e-08
-9.06077e-09
7.85808e-09
-1.09775e-08
1.94964e-09
-6.77176e-09
-4.1975e-09
4.73267e-09
-1.14595e-08
2.4875e-08
-2.01518e-08
5.36459e-08
-2.87407e-08
8.7249e-08
-3.36174e-08
1.19765e-07
-3.24988e-08
1.45703e-07
-2.59591e-08
1.61917e-07
-1.61771e-08
1.68434e-07
-6.5119e-09
1.68161e-07
3.57049e-10
1.64362e-07
3.81724e-09
1.60639e-07
3.82158e-09
1.58995e-07
1.5967e-09
1.54226e-07
4.87195e-09
1.36501e-07
1.75313e-08
9.84974e-08
3.81191e-08
3.41682e-08
6.39795e-08
-5.4224e-08
8.84741e-08
-1.62962e-07
1.08555e-07
-2.88164e-07
1.25178e-07
-4.26755e-07
1.3854e-07
-5.7183e-07
1.4496e-07
-7.19045e-07
1.47179e-07
-8.65523e-07
1.464e-07
-1.00815e-06
1.42617e-07
-1.14458e-06
1.36406e-07
-1.27351e-06
1.28936e-07
-1.39344e-06
1.19927e-07
-1.50339e-06
1.09964e-07
-1.60418e-06
1.00785e-07
-1.69644e-06
9.2276e-08
-1.78116e-06
8.47159e-08
-1.85907e-06
7.79131e-08
-1.93074e-06
7.16659e-08
-1.99695e-06
6.62169e-08
-2.05836e-06
6.14109e-08
-2.11555e-06
5.7199e-08
-2.16904e-06
5.34847e-08
-2.21923e-06
5.01979e-08
-2.2665e-06
4.72589e-08
-2.3111e-06
4.46138e-08
-2.35331e-06
4.22003e-08
-2.39328e-06
3.99837e-08
-2.43121e-06
3.7918e-08
-2.46718e-06
3.59827e-08
-2.50133e-06
3.41449e-08
-2.53371e-06
3.23942e-08
-2.56441e-06
3.07075e-08
-2.59348e-06
2.908e-08
-2.62098e-06
2.7496e-08
-2.64692e-06
2.59527e-08
-2.67135e-06
2.44397e-08
-2.69429e-06
2.29533e-08
-2.71577e-06
2.14873e-08
-2.7358e-06
2.00353e-08
-2.75438e-06
1.85949e-08
-2.77155e-06
1.71635e-08
-2.7873e-06
1.5728e-08
-2.80163e-06
1.42983e-08
-2.81451e-06
1.28608e-08
-2.82594e-06
1.141e-08
-2.83588e-06
9.93812e-09
-2.84431e-06
8.43255e-09
-2.85118e-06
6.88759e-09
-2.85644e-06
5.28365e-09
-2.86002e-06
3.61274e-09
-2.86187e-06
1.86682e-09
-2.86198e-06
1.3022e-10
-2.86056e-06
-1.41168e-09
-2.8578e-06
-2.74956e-09
-2.85377e-06
-4.03852e-09
-2.84846e-06
-5.30826e-09
-2.84189e-06
-6.58019e-09
-2.83405e-06
-7.85213e-09
-2.82494e-06
-9.12932e-09
-2.81455e-06
-1.04078e-08
-2.80288e-06
-1.16894e-08
-2.78993e-06
-1.29715e-08
-2.7757e-06
-1.42538e-08
-2.76019e-06
-1.55353e-08
-2.7434e-06
-1.68138e-08
-2.72533e-06
-1.80899e-08
-2.706e-06
-1.93596e-08
-2.6854e-06
-2.0625e-08
-2.66354e-06
-2.18806e-08
-2.64043e-06
-2.31298e-08
-2.61608e-06
-2.43657e-08
-2.59051e-06
-2.55929e-08
-2.56371e-06
-2.68036e-08
-2.53572e-06
-2.80032e-08
-2.50654e-06
-2.91831e-08
-2.4762e-06
-3.03489e-08
-2.4447e-06
-3.14918e-08
-2.41208e-06
-3.2617e-08
-2.37835e-06
-3.37168e-08
-2.34354e-06
-3.47962e-08
-2.30767e-06
-3.58471e-08
-2.27077e-06
-3.68781e-08
-2.23287e-06
-3.78772e-08
-2.194e-06
-3.88442e-08
-2.15421e-06
-3.97706e-08
-2.11354e-06
-4.06371e-08
-2.07206e-06
-4.14484e-08
-2.02983e-06
-4.21909e-08
-1.98693e-06
-4.28793e-08
-1.94325e-06
-4.36595e-08
-1.89876e-06
-4.44681e-08
-1.85356e-06
-4.51525e-08
-1.80771e-06
-4.5795e-08
-1.76126e-06
-4.63905e-08
-1.71426e-06
-4.69629e-08
-1.66673e-06
-4.74951e-08
-1.61873e-06
-4.80044e-08
-1.57028e-06
-4.84722e-08
-1.52143e-06
-4.89172e-08
-1.47221e-06
-4.93217e-08
-1.42263e-06
-4.9692e-08
-1.37272e-06
-5.00215e-08
-1.32252e-06
-5.03033e-08
-1.27207e-06
-5.05489e-08
-1.2214e-06
-5.07522e-08
-1.17055e-06
-5.09214e-08
-1.11956e-06
-5.10595e-08
-1.06844e-06
-5.11695e-08
-1.01722e-06
-5.12581e-08
-9.65909e-07
-5.1333e-08
-9.14524e-07
-5.1397e-08
-8.63066e-07
-5.14606e-08
-8.11534e-07
-5.15222e-08
-7.59925e-07
-5.15908e-08
-7.08236e-07
-5.16588e-08
-6.5647e-07
-5.1733e-08
-6.04619e-07
-5.18045e-08
-5.52689e-07
-5.18842e-08
-5.00663e-07
-5.19659e-08
-4.48543e-07
-5.20631e-08
-3.96303e-07
-5.2168e-08
-3.43946e-07
-5.229e-08
-2.91451e-07
-5.24091e-08
-2.38851e-07
-5.252e-08
-1.86169e-07
-5.25828e-08
-1.33536e-07
-5.25443e-08
-8.11265e-08
-5.23023e-08
-2.94154e-08
-5.16186e-08
2.09772e-08
-5.02893e-08
6.83559e-08
-4.73039e-08
1.12224e-07
-4.37982e-08
-1.95625e-08
1.31821e-07
-3.4065e-09
1.16061e-08
-9.447e-09
2.00174e-08
-1.21307e-08
1.79876e-08
-4.54914e-09
5.4621e-09
1.84179e-08
-1.71318e-08
5.57214e-08
-4.4883e-08
1.03161e-07
-7.02925e-08
1.55104e-07
-8.78626e-08
2.06609e-07
-9.62218e-08
2.54267e-07
-9.65496e-08
2.96704e-07
-9.09504e-08
3.33104e-07
-8.15731e-08
3.63462e-07
-7.0067e-08
3.8787e-07
-5.75245e-08
4.06755e-07
-4.46009e-08
4.20412e-07
-3.16556e-08
4.29341e-07
-1.8859e-08
4.34024e-07
-6.30112e-09
4.34923e-07
6.054e-09
4.31902e-07
1.8315e-08
4.24539e-07
3.04384e-08
4.12209e-07
4.21757e-08
3.94376e-07
5.30831e-08
3.7067e-07
6.25027e-08
3.41132e-07
6.96077e-08
3.06361e-07
7.35052e-08
2.67707e-07
7.34437e-08
2.27315e-07
6.90723e-08
1.88136e-07
6.06133e-08
1.5362e-07
4.87645e-08
1.27154e-07
3.4343e-08
1.11211e-07
1.79249e-08
1.07173e-07
-1.43355e-10
1.1478e-07
-1.90292e-08
1.32051e-07
-3.74212e-08
1.54042e-07
-5.07116e-08
1.73663e-07
-5.32463e-08
1.85946e-07
-4.47716e-08
1.89025e-07
-2.90528e-08
1.82806e-07
-9.93834e-09
1.68562e-07
7.7233e-09
1.48158e-07
2.08331e-08
1.16579e-07
3.5373e-08
6.40863e-08
5.63958e-08
-1.8772e-08
8.44022e-08
-1.33144e-07
1.19285e-07
-2.71435e-07
1.55765e-07
-4.23359e-07
1.90046e-07
-5.8118e-07
2.2175e-07
-7.41188e-07
2.48475e-07
-9.00558e-07
2.67891e-07
-1.05546e-06
2.80054e-07
-1.20191e-06
2.84953e-07
-1.33902e-06
2.82025e-07
-1.46443e-06
2.72559e-07
-1.57694e-06
2.5889e-07
-1.67671e-06
2.42371e-07
-1.7648e-06
2.24494e-07
-1.84225e-06
2.06393e-07
-1.91105e-06
1.88723e-07
-1.97287e-06
1.71788e-07
-2.02852e-06
1.56438e-07
-2.07907e-06
1.42831e-07
-2.12533e-06
1.30981e-07
-2.16808e-06
1.20658e-07
-2.20801e-06
1.11603e-07
-2.24551e-06
1.03717e-07
-2.28091e-06
9.68113e-08
-2.31444e-06
9.07302e-08
-2.34629e-06
8.5329e-08
-2.37657e-06
8.04863e-08
-2.40541e-06
7.60948e-08
-2.43286e-06
7.20708e-08
-2.459e-06
6.834e-08
-2.48386e-06
6.48469e-08
-2.50749e-06
6.15424e-08
-2.52989e-06
5.83922e-08
-2.55111e-06
5.53637e-08
-2.57115e-06
5.24366e-08
-2.59003e-06
4.95893e-08
-2.60775e-06
4.681e-08
-2.62433e-06
4.40843e-08
-2.63978e-06
4.14046e-08
-2.65409e-06
3.8761e-08
-2.66728e-06
3.61475e-08
-2.67934e-06
3.35566e-08
-2.69028e-06
3.09825e-08
-2.7001e-06
2.8421e-08
-2.70881e-06
2.5863e-08
-2.71641e-06
2.3313e-08
-2.72289e-06
2.07613e-08
-2.72826e-06
1.82071e-08
-2.7325e-06
1.56478e-08
-2.73564e-06
1.30769e-08
-2.73769e-06
1.04942e-08
-2.73868e-06
7.89895e-09
-2.73867e-06
5.29406e-09
-2.73773e-06
2.69259e-09
-2.73597e-06
1.23632e-10
-2.73345e-06
-2.37737e-09
-2.73e-06
-4.84482e-09
-2.72542e-06
-7.32578e-09
-2.71964e-06
-9.81876e-09
-2.71264e-06
-1.23171e-08
-2.7044e-06
-1.48253e-08
-2.69492e-06
-1.73412e-08
-2.6842e-06
-1.98659e-08
-2.67222e-06
-2.23963e-08
-2.65899e-06
-2.49322e-08
-2.64451e-06
-2.74701e-08
-2.62878e-06
-3.00092e-08
-2.61178e-06
-3.2546e-08
-2.59354e-06
-3.50789e-08
-2.57404e-06
-3.76048e-08
-2.5533e-06
-4.01213e-08
-2.53131e-06
-4.26257e-08
-2.5081e-06
-4.51149e-08
-2.48365e-06
-4.75868e-08
-2.45799e-06
-5.00373e-08
-2.43113e-06
-5.24652e-08
-2.40308e-06
-5.48658e-08
-2.37385e-06
-5.72382e-08
-2.34346e-06
-5.95768e-08
-2.31193e-06
-6.18813e-08
-2.27927e-06
-6.41453e-08
-2.24552e-06
-6.6369e-08
-2.21068e-06
-6.8546e-08
-2.17479e-06
-7.06778e-08
-2.13786e-06
-7.27581e-08
-2.09993e-06
-7.47883e-08
-2.06104e-06
-7.67591e-08
-2.0212e-06
-7.86661e-08
-1.98045e-06
-8.04967e-08
-1.93883e-06
-8.22458e-08
-1.89633e-06
-8.39176e-08
-1.85299e-06
-8.55179e-08
-1.8088e-06
-8.70574e-08
-1.76386e-06
-8.85889e-08
-1.71824e-06
-9.00667e-08
-1.67194e-06
-9.14259e-08
-1.625e-06
-9.26957e-08
-1.57747e-06
-9.38867e-08
-1.52939e-06
-9.50121e-08
-1.48081e-06
-9.60675e-08
-1.43176e-06
-9.7059e-08
-1.38228e-06
-9.79827e-08
-1.3324e-06
-9.88425e-08
-1.28216e-06
-9.96329e-08
-1.23159e-06
-1.0035e-07
-1.18069e-06
-1.00993e-07
-1.1295e-06
-1.01553e-07
-1.07807e-06
-1.02041e-07
-1.02642e-06
-1.02454e-07
-9.74587e-07
-1.02797e-07
-9.22603e-07
-1.03082e-07
-8.70489e-07
-1.0331e-07
-8.18269e-07
-1.035e-07
-7.65954e-07
-1.03657e-07
-7.13556e-07
-1.038e-07
-6.61077e-07
-1.03934e-07
-6.08516e-07
-1.04073e-07
-5.55869e-07
-1.04217e-07
-5.03132e-07
-1.04373e-07
-4.50302e-07
-1.04531e-07
-3.97374e-07
-1.04699e-07
-3.44345e-07
-1.04872e-07
-2.91205e-07
-1.05064e-07
-2.37944e-07
-1.05275e-07
-1.84546e-07
-1.05515e-07
-1.31003e-07
-1.05778e-07
-7.73032e-08
-1.0605e-07
-2.34724e-08
-1.06288e-07
3.04474e-08
-1.06437e-07
8.43723e-08
-1.06403e-07
1.38158e-07
-1.06021e-07
1.91561e-07
-1.04956e-07
2.44029e-07
-1.02692e-07
2.95011e-07
-9.82287e-08
3.41149e-07
-8.98856e-08
-6.36834e-08
3.85304e-07
4.93797e-10
1.11473e-08
4.29621e-09
1.625e-08
1.9273e-08
3.07924e-09
5.29864e-08
-2.82477e-08
1.03989e-07
-6.80954e-08
1.62576e-07
-1.03481e-07
2.1904e-07
-1.26728e-07
2.67774e-07
-1.3661e-07
3.07219e-07
-1.35642e-07
3.37987e-07
-1.27331e-07
3.61734e-07
-1.14675e-07
3.79918e-07
-9.9769e-08
3.93784e-07
-8.39124e-08
4.0408e-07
-6.78325e-08
4.11407e-07
-5.19106e-08
4.16073e-07
-3.63337e-08
4.18413e-07
-2.11878e-08
4.18619e-07
-6.51995e-09
4.17027e-07
7.65181e-09
4.13962e-07
2.13688e-08
4.09725e-07
3.46781e-08
4.04331e-07
4.75614e-08
3.97535e-07
5.98795e-08
3.88736e-07
7.12979e-08
3.7711e-07
8.12338e-08
3.61773e-07
8.8843e-08
3.42145e-07
9.30745e-08
3.18383e-07
9.28395e-08
2.91693e-07
8.73098e-08
2.64363e-07
7.61051e-08
2.39297e-07
5.94216e-08
2.19214e-07
3.80278e-08
2.05723e-07
1.33642e-08
1.9874e-07
-1.20238e-08
1.93926e-07
-3.25998e-08
1.8391e-07
-4.06878e-08
1.64695e-07
-3.40366e-08
1.36407e-07
-1.64808e-08
9.97465e-08
7.58834e-09
5.27458e-08
3.70668e-08
-1.03282e-08
7.07818e-08
-9.63873e-08
1.06901e-07
-2.07414e-07
1.46397e-07
-3.40196e-07
1.89183e-07
-4.88633e-07
2.32834e-07
-6.43591e-07
2.74253e-07
-7.98562e-07
3.10728e-07
-9.48619e-07
3.40112e-07
-1.08847e-06
3.61599e-07
-1.21488e-06
3.74875e-07
-1.32683e-06
3.79828e-07
-1.42389e-06
3.77098e-07
-1.50657e-06
3.67611e-07
-1.57704e-06
3.52466e-07
-1.63775e-06
3.33257e-07
-1.69072e-06
3.11844e-07
-1.73791e-06
2.89556e-07
-1.78093e-06
2.67505e-07
-1.82091e-06
2.46374e-07
-1.85883e-06
2.2664e-07
-1.89552e-06
2.08484e-07
-1.93122e-06
1.92141e-07
-1.96599e-06
1.77603e-07
-1.9998e-06
1.64786e-07
-2.03264e-06
1.53505e-07
-2.06457e-06
1.43534e-07
-2.09556e-06
1.34704e-07
-2.12558e-06
1.26838e-07
-2.15463e-06
1.19779e-07
-2.18269e-06
1.13385e-07
-2.20974e-06
1.07538e-07
-2.23578e-06
1.02136e-07
-2.2608e-06
9.7094e-08
-2.2848e-06
9.23418e-08
-2.30778e-06
8.78232e-08
-2.32972e-06
8.34912e-08
-2.35064e-06
7.93098e-08
-2.37052e-06
7.52491e-08
-2.38937e-06
7.12867e-08
-2.40718e-06
6.74035e-08
-2.42395e-06
6.35857e-08
-2.43968e-06
5.98209e-08
-2.45438e-06
5.61002e-08
-2.46803e-06
5.24151e-08
-2.48063e-06
4.87588e-08
-2.49219e-06
4.51249e-08
-2.50271e-06
4.15079e-08
-2.51219e-06
3.79014e-08
-2.52063e-06
3.43035e-08
-2.52804e-06
3.07053e-08
-2.53441e-06
2.71123e-08
-2.53973e-06
2.35185e-08
-2.544e-06
1.99217e-08
-2.54724e-06
1.63201e-08
-2.54945e-06
1.27152e-08
-2.55064e-06
9.10577e-09
-2.55082e-06
5.49771e-09
-2.55e-06
1.89449e-09
-2.54817e-06
-1.69178e-09
-2.54527e-06
-5.26821e-09
-2.54125e-06
-8.86118e-09
-2.53608e-06
-1.24924e-08
-2.52974e-06
-1.61516e-08
-2.52223e-06
-1.98339e-08
-2.51353e-06
-2.35348e-08
-2.50362e-06
-2.72528e-08
-2.49251e-06
-3.09842e-08
-2.48019e-06
-3.47273e-08
-2.46666e-06
-3.84783e-08
-2.45191e-06
-4.22346e-08
-2.43594e-06
-4.59928e-08
-2.41875e-06
-4.97491e-08
-2.40034e-06
-5.35002e-08
-2.38072e-06
-5.72417e-08
-2.35988e-06
-6.09704e-08
-2.33784e-06
-6.46811e-08
-2.3146e-06
-6.83708e-08
-2.29016e-06
-7.2034e-08
-2.26455e-06
-7.56679e-08
-2.23775e-06
-7.92668e-08
-2.2098e-06
-8.28275e-08
-2.1807e-06
-8.63446e-08
-2.15047e-06
-8.98143e-08
-2.11912e-06
-9.32309e-08
-2.08667e-06
-9.65904e-08
-2.05315e-06
-9.98874e-08
-2.01858e-06
-1.03118e-07
-1.98297e-06
-1.06278e-07
-1.94635e-06
-1.09365e-07
-1.90876e-06
-1.12372e-07
-1.87022e-06
-1.15293e-07
-1.83075e-06
-1.1812e-07
-1.79039e-06
-1.20843e-07
-1.74916e-06
-1.23456e-07
-1.7071e-06
-1.25967e-07
-1.66422e-06
-1.28382e-07
-1.62056e-06
-1.30708e-07
-1.57618e-06
-1.32955e-07
-1.53113e-06
-1.35097e-07
-1.48542e-06
-1.37103e-07
-1.4391e-06
-1.38985e-07
-1.3922e-06
-1.40754e-07
-1.34477e-06
-1.42417e-07
-1.29685e-06
-1.43976e-07
-1.24847e-06
-1.45432e-07
-1.19968e-06
-1.46789e-07
-1.1505e-06
-1.48046e-07
-1.10097e-06
-1.49201e-07
-1.05111e-06
-1.50252e-07
-1.00094e-06
-1.51194e-07
-9.50493e-07
-1.52027e-07
-8.99802e-07
-1.52755e-07
-8.48895e-07
-1.5338e-07
-7.97805e-07
-1.53903e-07
-7.4656e-07
-1.54341e-07
-6.95181e-07
-1.54699e-07
-6.43688e-07
-1.54998e-07
-5.92096e-07
-1.55254e-07
-5.40412e-07
-1.55485e-07
-4.8864e-07
-1.55705e-07
-4.36778e-07
-1.55932e-07
-3.84823e-07
-1.5617e-07
-3.32768e-07
-1.56424e-07
-2.80608e-07
-1.56688e-07
-2.28339e-07
-1.56964e-07
-1.75954e-07
-1.57255e-07
-1.23442e-07
-1.57572e-07
-7.0795e-08
-1.57922e-07
-1.79951e-08
-1.58312e-07
3.49635e-08
-1.58737e-07
8.80933e-08
-1.59178e-07
1.4139e-07
-1.59587e-07
1.94835e-07
-1.5988e-07
2.48356e-07
-1.59926e-07
3.01836e-07
-1.59499e-07
3.55084e-07
-1.58206e-07
4.07784e-07
-1.5539e-07
4.59525e-07
-1.49971e-07
5.09342e-07
-1.39704e-07
-1.15008e-07
5.60659e-07
-4.44816e-11
1.12371e-08
1.33421e-08
2.90222e-09
5.36039e-08
-3.71294e-08
1.15852e-07
-9.04965e-08
1.82858e-07
-1.35075e-07
2.40475e-07
-1.61106e-07
2.83231e-07
-1.69464e-07
3.11991e-07
-1.65379e-07
3.30408e-07
-1.5404e-07
3.4208e-07
-1.39013e-07
3.49734e-07
-1.22309e-07
3.54902e-07
-1.04947e-07
3.58447e-07
-8.74401e-08
3.60661e-07
-7.00554e-08
3.61711e-07
-5.29464e-08
3.61582e-07
-3.62149e-08
3.6034e-07
-1.99355e-08
3.57982e-07
-4.17218e-09
3.54618e-07
1.10214e-08
3.50359e-07
2.56171e-08
3.4545e-07
3.95879e-08
3.40105e-07
5.28969e-08
3.34511e-07
6.5471e-08
3.28661e-07
7.71412e-08
3.22316e-07
8.7575e-08
3.14957e-07
9.6198e-08
3.05867e-07
1.02162e-07
2.94354e-07
1.04356e-07
2.80051e-07
1.01614e-07
2.63152e-07
9.30152e-08
2.44593e-07
7.79893e-08
2.25707e-07
5.69339e-08
2.06897e-07
3.21876e-08
1.84433e-07
1.04568e-08
1.51318e-07
5.18657e-10
1.04981e-07
5.65241e-09
4.64672e-08
2.4469e-08
-2.51935e-08
5.51735e-08
-1.12724e-07
9.51069e-08
-2.16943e-07
1.41281e-07
-3.36676e-07
1.90506e-07
-4.69748e-07
2.39975e-07
-6.11178e-07
2.87822e-07
-7.54457e-07
3.32468e-07
-8.93492e-07
3.71865e-07
-1.02271e-06
4.03482e-07
-1.13816e-06
4.26178e-07
-1.23826e-06
4.4022e-07
-1.32253e-06
4.45876e-07
-1.39165e-06
4.4399e-07
-1.4475e-06
4.35672e-07
-1.4925e-06
4.22079e-07
-1.52934e-06
4.04442e-07
-1.56082e-06
3.83931e-07
-1.5893e-06
3.61723e-07
-1.61639e-06
3.38922e-07
-1.6432e-06
3.16357e-07
-1.67033e-06
2.94634e-07
-1.69808e-06
2.74125e-07
-1.72651e-06
2.55065e-07
-1.75558e-06
2.37556e-07
-1.78509e-06
2.2165e-07
-1.81478e-06
2.073e-07
-1.84442e-06
1.94422e-07
-1.87379e-06
1.82875e-07
-1.90275e-06
1.72494e-07
-1.93117e-06
1.63124e-07
-1.95894e-06
1.54618e-07
-1.98601e-06
1.4684e-07
-2.01229e-06
1.39669e-07
-2.03775e-06
1.32997e-07
-2.06235e-06
1.26732e-07
-2.08605e-06
1.208e-07
-2.10884e-06
1.15134e-07
-2.1307e-06
1.09682e-07
-2.15161e-06
1.04403e-07
-2.17156e-06
9.9261e-08
-2.19054e-06
9.42304e-08
-2.20854e-06
8.92898e-08
-2.22556e-06
8.4422e-08
-2.24158e-06
7.96141e-08
-2.25662e-06
7.48552e-08
-2.27065e-06
7.01368e-08
-2.28368e-06
6.54515e-08
-2.29571e-06
6.07932e-08
-2.30674e-06
5.61563e-08
-2.31676e-06
5.15352e-08
-2.32578e-06
4.69254e-08
-2.33381e-06
4.23191e-08
-2.34083e-06
3.77212e-08
-2.34685e-06
3.31188e-08
-2.35185e-06
2.85169e-08
-2.35584e-06
2.39112e-08
-2.3588e-06
1.92997e-08
-2.36075e-06
1.4682e-08
-2.36168e-06
1.00551e-08
-2.36159e-06
5.42067e-09
-2.36045e-06
7.76398e-10
-2.35826e-06
-3.87616e-09
-2.35497e-06
-8.54912e-09
-2.35056e-06
-1.32567e-08
-2.34505e-06
-1.801e-08
-2.3384e-06
-2.28011e-08
-2.33061e-06
-2.76265e-08
-2.32167e-06
-3.24794e-08
-2.31157e-06
-3.73575e-08
-2.3003e-06
-4.22551e-08
-2.28787e-06
-4.71698e-08
-2.27426e-06
-5.20963e-08
-2.25948e-06
-5.70312e-08
-2.24351e-06
-6.19695e-08
-2.22637e-06
-6.69067e-08
-2.20804e-06
-7.18382e-08
-2.18854e-06
-7.67581e-08
-2.16786e-06
-8.16619e-08
-2.146e-06
-8.65429e-08
-2.12299e-06
-9.13971e-08
-2.09881e-06
-9.62171e-08
-2.07349e-06