/*--------------------------------*- C++ -*----------------------------------*\
| =========                 |                                                 |
| \\      /  F ield         | OpenFOAM: The Open Source CFD Toolbox           |
|  \\    /   O peration     | Version:  v2012                                 |
|   \\  /    A nd           | Website:  www.openfoam.com                      |
|    \\/     M anipulation  |                                                 |
\*---------------------------------------------------------------------------*/
FoamFile
{
    version     2.0;
    format      ascii;
    class       surfaceScalarField;
    location    "1700";
    object      phi;
}
// * * * * * * * * * * * * * * * * * * * * * * * * * * * * * * * * * * * * * //

dimensions      [0 3 -1 0 0 0 0];
oriented        oriented;


internalField   nonuniform List<scalar> 
24170
(
3.00099e-06
1.32903e-07
2.85608e-06
1.44911e-07
2.72721e-06
1.28866e-07
2.61149e-06
1.15726e-07
2.50805e-06
1.03439e-07
2.41711e-06
9.09416e-08
2.33817e-06
7.89338e-08
2.27012e-06
6.80535e-08
2.21137e-06
5.87409e-08
2.16035e-06
5.10286e-08
2.11596e-06
4.43799e-08
2.07749e-06
3.84771e-08
2.04435e-06
3.31337e-08
2.01617e-06
2.81828e-08
1.99277e-06
2.34041e-08
1.97447e-06
1.82939e-08
1.96226e-06
1.22175e-08
-1.56558e-10
1.96242e-06
3.51428e-06
7.50672e-08
3.54726e-06
1.11953e-07
3.56333e-06
1.12809e-07
3.5664e-06
1.12668e-07
3.55933e-06
1.10519e-07
3.54492e-06
1.05349e-07
3.52549e-06
9.83672e-08
3.50275e-06
9.07989e-08
3.47823e-06
8.32605e-08
3.45321e-06
7.60507e-08
3.42834e-06
6.92526e-08
3.40403e-06
6.27901e-08
3.38057e-06
5.65877e-08
3.35823e-06
5.05303e-08
3.33721e-06
4.4423e-08
3.31775e-06
3.77522e-08
3.29992e-06
3.0046e-08
1.91528e-08
3.28062e-06
3.8327e-06
5.45631e-08
3.85132e-06
9.33301e-08
3.86623e-06
9.78935e-08
3.87923e-06
9.96664e-08
3.88987e-06
9.9874e-08
3.89803e-06
9.71949e-08
3.90381e-06
9.25831e-08
3.90743e-06
8.71815e-08
3.90917e-06
8.15114e-08
3.90942e-06
7.58083e-08
3.90849e-06
7.01819e-08
3.90665e-06
6.46274e-08
3.90413e-06
5.91101e-08
3.90112e-06
5.35424e-08
3.89777e-06
4.77667e-08
3.89412e-06
4.14001e-08
3.88988e-06
3.42846e-08
2.56247e-08
3.88341e-06
4.2163e-06
4.28227e-08
4.22942e-06
8.02179e-08
4.23944e-06
8.78783e-08
4.24847e-06
9.06476e-08
4.25668e-06
9.16691e-08
4.26396e-06
8.99193e-08
4.27034e-06
8.62039e-08
4.2759e-06
8.16248e-08
4.28069e-06
7.67148e-08
4.28482e-06
7.16865e-08
4.28838e-06
6.66232e-08
4.29146e-06
6.1544e-08
4.29415e-06
5.64194e-08
4.29651e-06
5.1183e-08
4.29857e-06
4.57114e-08
4.30018e-06
3.97834e-08
4.30111e-06
3.33604e-08
2.62961e-08
4.30044e-06
4.64606e-06
3.40675e-08
4.65708e-06
6.91927e-08
4.66572e-06
7.92415e-08
4.67342e-06
8.29419e-08
4.68059e-06
8.45026e-08
4.68711e-06
8.33957e-08
4.69299e-06
8.0319e-08
4.69832e-06
7.62942e-08
4.70317e-06
7.18698e-08
4.7076e-06
6.72556e-08
4.71168e-06
6.25427e-08
4.71546e-06
5.7762e-08
4.71898e-06
5.29003e-08
4.72225e-06
4.79092e-08
4.72525e-06
4.27113e-08
4.72784e-06
3.71997e-08
4.72979e-06
3.14028e-08
2.54311e-08
4.73066e-06
5.12156e-06
2.71045e-08
5.13131e-06
5.94465e-08
5.13948e-06
7.10707e-08
5.14685e-06
7.55717e-08
5.15379e-06
7.75699e-08
5.16016e-06
7.70219e-08
5.16597e-06
7.45166e-08
5.17128e-06
7.09818e-08
5.17618e-06
6.69707e-08
5.18074e-06
6.27023e-08
5.18499e-06
5.82846e-08
5.189e-06
5.37602e-08
5.19276e-06
4.91384e-08
5.19628e-06
4.43921e-08
5.1995e-06
3.94896e-08
5.2023e-06
3.43981e-08
5.20451e-06
2.91901e-08
2.40411e-08
5.2059e-06
5.64649e-06
2.16177e-08
5.65529e-06
5.06467e-08
5.66324e-06
6.31158e-08
5.67055e-06
6.82578e-08
5.67751e-06
7.06086e-08
5.68398e-06
7.0553e-08
5.68992e-06
6.85786e-08
5.69539e-06
6.55098e-08
5.70047e-06
6.18918e-08
5.70521e-06
5.79579e-08
5.70967e-06
5.38297e-08
5.71386e-06
4.95663e-08
5.7178e-06
4.51984e-08
5.72147e-06
4.07246e-08
5.72481e-06
3.61492e-08
5.72772e-06
3.14867e-08
5.73008e-06
2.68268e-08
2.23311e-08
5.73179e-06
4.40931e-06
1.84227e-08
4.41505e-06
4.49022e-08
4.4207e-06
5.74653e-08
4.42597e-06
6.29911e-08
4.431e-06
6.55728e-08
4.43575e-06
6.58072e-08
4.44015e-06
6.41757e-08
4.44423e-06
6.14316e-08
4.44803e-06
5.80936e-08
4.45158e-06
5.4402e-08
4.45493e-06
5.04885e-08
4.45807e-06
4.64254e-08
4.46101e-06
4.22569e-08
4.46373e-06
3.79993e-08
4.46621e-06
3.36763e-08
4.46837e-06
2.93241e-08
4.47016e-06
2.50331e-08
2.09464e-08
4.47155e-06
5.14277e-06
1.55107e-08
5.14848e-06
3.91853e-08
5.15441e-06
5.1538e-08
5.16008e-06
5.73124e-08
5.16559e-06
6.00686e-08
5.17082e-06
6.05692e-08
5.17572e-06
5.92785e-08
5.18028e-06
5.68687e-08
5.18455e-06
5.38284e-08
5.18855e-06
5.04031e-08
5.1923e-06
4.67316e-08
5.19583e-06
4.28998e-08
5.19912e-06
3.89645e-08
5.20216e-06
3.49601e-08
5.20491e-06
3.09246e-08
5.20733e-06
2.69088e-08
5.20937e-06
2.29968e-08
1.93087e-08
5.211e-06
5.99841e-06
1.28911e-08
6.004e-06
3.3595e-08
6.01013e-06
4.54068e-08
6.01618e-06
5.12642e-08
6.02213e-06
5.41148e-08
6.02786e-06
5.48358e-08
6.03327e-06
5.38696e-08
6.03834e-06
5.17955e-08
6.04311e-06
4.90664e-08
6.04758e-06
4.59306e-08
6.05178e-06
4.25317e-08
6.05571e-06
3.89662e-08
6.05938e-06
3.53019e-08
6.06275e-06
3.15883e-08
6.0658e-06
2.78745e-08
6.06849e-06
2.42176e-08
6.07079e-06
2.06913e-08
1.73926e-08
6.07271e-06
6.99659e-06
1.05624e-08
7.00196e-06
2.82253e-08
7.00823e-06
3.91408e-08
7.0146e-06
4.48904e-08
7.02097e-06
4.77448e-08
7.02718e-06
4.86201e-08
7.03311e-06
4.79434e-08
7.03871e-06
4.61971e-08
7.04398e-06
4.37887e-08
7.04895e-06
4.09633e-08
7.05362e-06
3.78684e-08
7.05798e-06
3.46059e-08
7.06203e-06
3.12525e-08
7.06575e-06
2.78681e-08
7.06911e-06
2.45073e-08
7.0721e-06
2.12283e-08
7.0747e-06
1.80925e-08
1.51755e-08
7.07692e-06
8.16108e-06
8.4977e-09
8.16616e-06
2.31454e-08
8.17246e-06
3.28314e-08
8.17911e-06
3.82481e-08
8.18585e-06
4.09997e-08
8.19252e-06
4.1948e-08
8.19896e-06
4.15065e-08
8.20509e-06
4.0068e-08
8.21089e-06
3.79833e-08
8.21637e-06
3.54867e-08
8.22151e-06
3.27247e-08
8.22632e-06
2.98016e-08
8.23077e-06
2.6798e-08
8.23486e-06
2.37784e-08
8.23857e-06
2.07992e-08
8.24188e-06
1.79142e-08
8.2448e-06
1.5173e-08
1.2634e-08
8.24734e-06
9.51957e-06
6.65629e-09
9.52433e-06
1.8385e-08
9.53059e-06
2.6569e-08
9.53743e-06
3.14056e-08
9.54451e-06
3.39252e-08
9.5516e-06
3.48532e-08
9.55853e-06
3.45763e-08
9.56519e-06
3.34101e-08
9.57153e-06
3.16435e-08
9.57753e-06
2.94875e-08
9.58317e-06
2.70833e-08
9.58844e-06
2.45319e-08
9.59332e-06
2.19126e-08
9.59781e-06
1.92892e-08
9.60189e-06
1.67156e-08
9.60557e-06
1.42387e-08
9.60884e-06
1.18975e-08
9.73646e-09
9.61174e-06
1.11044e-05
4.99128e-09
1.11088e-05
1.39301e-08
1.1115e-05
2.04175e-08
1.1122e-05
2.44297e-08
1.11293e-05
2.65663e-08
1.11368e-05
2.73705e-08
1.11442e-05
2.71753e-08
1.11514e-05
2.62317e-08
1.11582e-05
2.47648e-08
1.11648e-05
2.29532e-08
1.11709e-05
2.09236e-08
1.11767e-05
1.87686e-08
1.11821e-05
1.65609e-08
1.1187e-05
1.43588e-08
1.11915e-05
1.22097e-08
1.11956e-05
1.01529e-08
1.11993e-05
8.2178e-09
6.43837e-09
1.12026e-05
1.29532e-05
3.45534e-09
1.29574e-05
9.72486e-09
1.29634e-05
1.43889e-08
1.29705e-05
1.73598e-08
1.29781e-05
1.8951e-08
1.29859e-05
1.95186e-08
1.29938e-05
1.93172e-08
1.30015e-05
1.85356e-08
1.30089e-05
1.73387e-08
1.3016e-05
1.58645e-08
1.30227e-05
1.42169e-08
1.3029e-05
1.24739e-08
1.30349e-05
1.06964e-08
1.30403e-05
8.93308e-09
1.30453e-05
7.22269e-09
1.30498e-05
5.59585e-09
1.3054e-05
4.0739e-09
2.68247e-09
1.30577e-05
1.51099e-05
1.99708e-09
1.5114e-05
5.66724e-09
1.51199e-05
8.41645e-09
1.51271e-05
1.01666e-08
1.5135e-05
1.10545e-08
1.51433e-05
1.12715e-08
1.51516e-05
1.0977e-08
1.51599e-05
1.02943e-08
1.51679e-05
9.33107e-09
1.51755e-05
8.17946e-09
1.51828e-05
6.91344e-09
1.51897e-05
5.58998e-09
1.51962e-05
4.25417e-09
1.52022e-05
2.94178e-09
1.52077e-05
1.68095e-09
1.52128e-05
4.93292e-10
1.52175e-05
-6.07078e-10
-1.60154e-09
1.52218e-05
1.76259e-05
5.51721e-10
1.763e-05
1.58767e-09
1.76361e-05
2.31417e-09
1.76435e-05
2.69068e-09
1.76519e-05
2.73641e-09
1.76606e-05
2.50069e-09
1.76696e-05
2.0383e-09
1.76785e-05
1.40236e-09
1.76872e-05
6.414e-10
1.76955e-05
-2.00325e-10
1.77035e-05
-1.08537e-09
1.77111e-05
-1.98256e-09
1.77182e-05
-2.86631e-09
1.77249e-05
-3.7161e-09
1.77311e-05
-4.51567e-09
1.77368e-05
-5.25281e-09
1.77421e-05
-5.92016e-09
-6.50543e-09
1.7747e-05
1.78276e-05
-8.05491e-10
1.78314e-05
-2.2665e-09
1.78372e-05
-3.46698e-09
1.78443e-05
-4.41455e-09
1.78522e-05
-5.19037e-09
1.78606e-05
-5.87867e-09
1.78692e-05
-6.52111e-09
1.78777e-05
-7.13258e-09
1.7886e-05
-7.71846e-09
1.78941e-05
-8.28126e-09
1.79019e-05
-8.81883e-09
1.79092e-05
-9.32546e-09
1.79161e-05
-9.79506e-09
1.79226e-05
-1.02212e-08
1.79287e-05
-1.05993e-08
1.79344e-05
-1.09248e-08
1.79397e-05
-1.11964e-08
-1.14064e-08
1.79446e-05
1.58826e-05
-2.06359e-09
1.58861e-05
-5.81156e-09
1.58914e-05
-8.72041e-09
1.58978e-05
-1.07852e-08
1.59048e-05
-1.22279e-08
1.59122e-05
-1.32719e-08
1.59197e-05
-1.40432e-08
1.59272e-05
-1.46101e-08
1.59345e-05
-1.50272e-08
1.59415e-05
-1.53379e-08
1.59483e-05
-1.55698e-08
1.59547e-05
-1.57386e-08
1.59608e-05
-1.58532e-08
1.59665e-05
-1.59201e-08
1.59718e-05
-1.59424e-08
1.59768e-05
-1.59227e-08
1.59815e-05
-1.58628e-08
-1.5759e-08
1.59858e-05
1.41499e-05
-3.34218e-09
1.41535e-05
-9.35849e-09
1.41586e-05
-1.38321e-08
1.41646e-05
-1.68101e-08
1.41711e-05
-1.87538e-08
1.41779e-05
-2.00451e-08
1.41847e-05
-2.08732e-08
1.41915e-05
-2.13496e-08
1.4198e-05
-2.15776e-08
1.42043e-05
-2.16378e-08
1.42103e-05
-2.15811e-08
1.4216e-05
-2.14392e-08
1.42214e-05
-2.12342e-08
1.42265e-05
-2.09817e-08
1.42312e-05
-2.06922e-08
1.42357e-05
-2.0372e-08
1.42398e-05
-2.00261e-08
-1.9652e-08
1.42437e-05
1.26064e-05
-4.74589e-09
1.26102e-05
-1.31516e-08
1.26154e-05
-1.905e-08
1.26213e-05
-2.27079e-08
1.26275e-05
-2.49773e-08
1.26339e-05
-2.64069e-08
1.26402e-05
-2.72092e-08
1.26464e-05
-2.75386e-08
1.26524e-05
-2.75474e-08
1.26581e-05
-2.73478e-08
1.26635e-05
-2.70074e-08
1.26687e-05
-2.65693e-08
1.26735e-05
-2.60666e-08
1.2678e-05
-2.55219e-08
1.26823e-05
-2.49516e-08
1.26863e-05
-2.43638e-08
1.269e-05
-2.37658e-08
-2.31553e-08
1.26935e-05
1.12315e-05
-6.3999e-09
1.12357e-05
-1.7406e-08
1.12412e-05
-2.45249e-08
1.1247e-05
-2.85758e-08
1.12531e-05
-3.10087e-08
1.12591e-05
-3.24733e-08
1.12651e-05
-3.31671e-08
1.12708e-05
-3.32892e-08
1.12763e-05
-3.30485e-08
1.12816e-05
-3.25799e-08
1.12865e-05
-3.19566e-08
1.12912e-05
-3.12319e-08
1.12956e-05
-3.0446e-08
1.12997e-05
-2.96299e-08
1.13035e-05
-2.88014e-08
1.13071e-05
-2.79728e-08
1.13105e-05
-2.71494e-08
-2.63307e-08
1.13137e-05
1.00067e-05
-8.47568e-09
1.00116e-05
-2.23257e-08
1.00174e-05
-3.03263e-08
1.00233e-05
-3.44594e-08
1.00292e-05
-3.69073e-08
1.0035e-05
-3.83114e-08
1.00407e-05
-3.88106e-08
1.00461e-05
-3.86788e-08
1.00512e-05
-3.81697e-08
1.0056e-05
-3.74251e-08
1.00606e-05
-3.6521e-08
1.00649e-05
-3.55158e-08
1.00689e-05
-3.44589e-08
1.00726e-05
-3.3385e-08
1.00761e-05
-3.23169e-08
1.00794e-05
-3.12666e-08
1.00825e-05
-3.02408e-08
-2.92344e-08
1.00854e-05
8.91586e-06
-1.12364e-08
8.9216e-06
-2.80676e-08
8.92771e-06
-3.64404e-08
8.93362e-06
-4.0358e-08
8.93944e-06
-4.27298e-08
8.94511e-06
-4.39814e-08
8.95051e-06
-4.42147e-08
8.95562e-06
-4.37915e-08
8.96045e-06
-4.30017e-08
8.96501e-06
-4.19792e-08
8.96928e-06
-4.07937e-08
8.97328e-06
-3.95117e-08
8.977e-06
-3.81883e-08
8.98049e-06
-3.68651e-08
8.98374e-06
-3.55676e-08
8.98678e-06
-3.431e-08
8.98964e-06
-3.30972e-08
-3.19216e-08
8.99232e-06
7.94445e-06
-1.50154e-08
7.95117e-06
-3.47938e-08
7.95758e-06
-4.28502e-08
7.96356e-06
-4.63371e-08
7.9694e-06
-4.85711e-08
7.97501e-06
-4.95886e-08
7.98029e-06
-4.9492e-08
7.98525e-06
-4.87523e-08
7.98991e-06
-4.76678e-08
7.99429e-06
-4.63539e-08
7.99837e-06
-4.48774e-08
8.00217e-06
-4.33103e-08
8.0057e-06
-4.17153e-08
8.00897e-06
-4.01397e-08
8.01202e-06
-3.86137e-08
8.01486e-06
-3.71537e-08
8.01753e-06
-3.57634e-08
-3.44212e-08
8.02003e-06
7.07949e-06
-2.01782e-08
7.08747e-06
-4.27646e-08
7.09436e-06
-4.97395e-08
7.10066e-06
-5.26361e-08
7.10675e-06
-5.46622e-08
7.1125e-06
-5.53385e-08
7.11786e-06
-5.48465e-08
7.12285e-06
-5.3747e-08
7.12752e-06
-5.2334e-08
7.13187e-06
-5.06991e-08
7.13589e-06
-4.89035e-08
7.13961e-06
-4.70249e-08
7.14303e-06
-4.51348e-08
7.14617e-06
-4.3285e-08
7.14907e-06
-4.15146e-08
7.15176e-06
-3.98417e-08
7.15427e-06
-3.82739e-08
-3.67809e-08
7.15663e-06
6.30977e-06
-2.74328e-08
6.31973e-06
-5.27174e-08
6.32786e-06
-5.78741e-08
6.33527e-06
-6.004e-08
6.34223e-06
-6.16249e-08
6.34863e-06
-6.1735e-08
6.35448e-06
-6.06971e-08
6.35987e-06
-5.91295e-08
6.36483e-06
-5.72983e-08
6.36938e-06
-5.52516e-08
6.37353e-06
-5.30531e-08
6.37729e-06
-5.07832e-08
6.38068e-06
-4.85193e-08
6.38372e-06
-4.63244e-08
6.38644e-06
-4.42416e-08
6.3889e-06
-4.23039e-08
6.39115e-06
-4.05141e-08
-3.88122e-08
6.39318e-06
5.62848e-06
-4.10113e-08
5.64277e-06
-6.70015e-08
5.6546e-06
-6.96976e-08
5.66532e-06
-7.07601e-08
5.67492e-06
-7.1217e-08
5.68331e-06
-7.01251e-08
5.69062e-06
-6.80036e-08
5.69699e-06
-6.54945e-08
5.70249e-06
-6.27967e-08
5.70716e-06
-5.99241e-08
5.71105e-06
-5.69403e-08
5.71419e-06
-5.39289e-08
5.71665e-06
-5.09737e-08
5.71847e-06
-4.8151e-08
5.71975e-06
-4.55149e-08
5.72057e-06
-4.31271e-08
5.72105e-06
-4.09984e-08
-3.92525e-08
5.72149e-06
5.04409e-06
-8.27867e-08
5.07437e-06
-9.7271e-08
5.09533e-06
-9.06586e-08
5.10997e-06
-8.53887e-08
5.11927e-06
-8.05198e-08
5.12409e-06
-7.49418e-08
5.12529e-06
-6.91994e-08
5.12357e-06
-6.37745e-08
5.11947e-06
-5.86889e-08
5.1134e-06
-5.38562e-08
5.10574e-06
-4.92825e-08
5.09682e-06
-4.50035e-08
5.0869e-06
-4.10558e-08
5.07623e-06
-3.74825e-08
5.0651e-06
-3.4389e-08
5.05384e-06
-3.18627e-08
5.04268e-06
-2.98407e-08
-2.86549e-08
5.03208e-06
4.37376e-06
4.27649e-06
4.18583e-06
4.10045e-06
4.01993e-06
3.94499e-06
3.87579e-06
3.81201e-06
3.75332e-06
3.69947e-06
3.65018e-06
3.60518e-06
3.56413e-06
3.52664e-06
3.49225e-06
3.46039e-06
3.43055e-06
3.40189e-06
-1.03824e-08
1.0378e-08
-2.79611e-08
1.75685e-08
-4.75928e-08
1.9625e-08
-6.59205e-08
1.83189e-08
-7.77736e-08
1.18481e-08
-7.52591e-08
-2.52336e-09
-5.3672e-08
-2.15892e-08
-1.45962e-08
-3.90847e-08
3.73149e-08
-5.19108e-08
9.6848e-08
-5.95404e-08
1.58425e-07
-6.15752e-08
2.17841e-07
-5.94216e-08
2.72362e-07
-5.45184e-08
3.20252e-07
-4.78947e-08
3.60552e-07
-4.02978e-08
3.92751e-07
-3.2203e-08
4.16603e-07
-2.38509e-08
4.31911e-07
-1.53119e-08
4.38401e-07
-6.48965e-09
4.35641e-07
2.75801e-09
4.23357e-07
1.22835e-08
4.01678e-07
2.16769e-08
3.71116e-07
3.0562e-08
3.32521e-07
3.85926e-08
2.87178e-07
4.5343e-08
2.36893e-07
5.02831e-08
1.84068e-07
5.28252e-08
1.31656e-07
5.24096e-08
8.30107e-08
4.86455e-08
4.14613e-08
4.15466e-08
9.54097e-09
3.19207e-08
-1.21298e-08
2.16684e-08
-2.54716e-08
1.33418e-08
-3.33343e-08
7.86168e-09
-3.84066e-08
5.07216e-09
-4.25214e-08
4.11437e-09
-4.53972e-08
2.8767e-09
-4.34288e-08
-1.96972e-09
-3.24566e-08
-1.09696e-08
-1.00519e-08
-2.24079e-08
2.32112e-08
-3.32598e-08
6.28887e-08
-3.96814e-08
1.02061e-07
-3.91703e-08
1.34814e-07
-3.27551e-08
1.57731e-07
-2.29142e-08
1.69822e-07
-1.2092e-08
1.71825e-07
-2.00115e-09
1.66922e-07
4.90491e-09
1.60104e-07
6.81996e-09
1.54792e-07
5.31475e-09
1.55587e-07
-7.92293e-10
1.67823e-07
-1.22327e-08
1.78845e-07
-1.10202e-08
1.70206e-07
8.64129e-09
1.30837e-07
3.93701e-08
5.19504e-08
7.88883e-08
-6.8848e-08
1.20799e-07
-2.22782e-07
1.53935e-07
-3.98144e-07
1.75362e-07
-5.85434e-07
1.8729e-07
-7.76334e-07
1.909e-07
-9.63858e-07
1.87523e-07
-1.14261e-06
1.78748e-07
-1.30904e-06
1.66437e-07
-1.46133e-06
1.52283e-07
-1.59889e-06
1.37559e-07
-1.72213e-06
1.23245e-07
-1.83206e-06
1.0993e-07
-1.92997e-06
9.79112e-08
-2.01728e-06
8.73075e-08
-2.09538e-06
7.8096e-08
-2.16555e-06
7.01757e-08
-2.22895e-06
6.33996e-08
-2.28656e-06
5.7606e-08
-2.3392e-06
5.26387e-08
-2.38755e-06
4.83521e-08
-2.43218e-06
4.46235e-08
-2.47353e-06
4.13474e-08
-2.51196e-06
3.84372e-08
-2.54778e-06
3.58187e-08
-2.58122e-06
3.34357e-08
-2.61246e-06
3.12406e-08
-2.64166e-06
2.91973e-08
-2.66893e-06
2.72751e-08
-2.69438e-06
2.54511e-08
-2.71809e-06
2.37048e-08
-2.74011e-06
2.20211e-08
-2.76049e-06
2.03855e-08
-2.77928e-06
1.87867e-08
-2.79649e-06
1.72134e-08
-2.81215e-06
1.56562e-08
-2.82626e-06
1.41045e-08
-2.83881e-06
1.25489e-08
-2.84979e-06
1.09782e-08
-2.85917e-06
9.38178e-09
-2.86692e-06
7.74809e-09
-2.87299e-06
6.06502e-09
-2.87731e-06
4.3188e-09
-2.87981e-06
2.50641e-09
-2.8805e-06
6.86423e-10
-2.87952e-06
-9.75808e-10
-2.8771e-06
-2.4167e-09
-2.87335e-06
-3.75236e-09
-2.86828e-06
-5.06087e-09
-2.86192e-06
-6.36152e-09
-2.85426e-06
-7.66057e-09
-2.8453e-06
-8.95959e-09
-2.83504e-06
-1.02578e-08
-2.82348e-06
-1.15547e-08
-2.81064e-06
-1.28489e-08
-2.7965e-06
-1.41396e-08
-2.78107e-06
-1.54251e-08
-2.76437e-06
-1.67045e-08
-2.74639e-06
-1.79762e-08
-2.72715e-06
-1.92392e-08
-2.70666e-06
-2.0492e-08
-2.68493e-06
-2.17334e-08
-2.66197e-06
-2.2962e-08
-2.6378e-06
-2.41767e-08
-2.61242e-06
-2.53762e-08
-2.58587e-06
-2.65591e-08
-2.55814e-06
-2.77242e-08
-2.52928e-06
-2.88698e-08
-2.49928e-06
-2.99942e-08
-2.46819e-06
-3.10942e-08
-2.43603e-06
-3.21656e-08
-2.40283e-06
-3.31993e-08
-2.36864e-06
-3.41941e-08
-2.33349e-06
-3.51447e-08
-2.29746e-06
-3.60364e-08
-2.26048e-06
-3.6974e-08
-2.22253e-06
-3.79568e-08
-2.18365e-06
-3.88748e-08
-2.14391e-06
-3.97451e-08
-2.10333e-06
-4.05809e-08
-2.06194e-06
-4.13867e-08
-2.01978e-06
-4.21612e-08
-1.97687e-06
-4.29031e-08
-1.93326e-06
-4.36121e-08
-1.88897e-06
-4.42894e-08
-1.84403e-06
-4.49347e-08
-1.79849e-06
-4.55484e-08
-1.75235e-06
-4.61303e-08
-1.70567e-06
-4.66815e-08
-1.65846e-06
-4.72027e-08
-1.61076e-06
-4.76946e-08
-1.5626e-06
-4.81588e-08
-1.51401e-06
-4.85905e-08
-1.46501e-06
-4.89994e-08
-1.41563e-06
-4.93719e-08
-1.36592e-06
-4.9718e-08
-1.31589e-06
-5.00262e-08
-1.26558e-06
-5.03073e-08
-1.21503e-06
-5.05517e-08
-1.16426e-06
-5.07752e-08
-1.11329e-06
-5.09694e-08
-1.06214e-06
-5.11525e-08
-1.01082e-06
-5.13155e-08
-9.59349e-07
-5.14762e-08
-9.07724e-07
-5.1628e-08
-8.55953e-07
-5.17745e-08
-8.04037e-07
-5.1921e-08
-7.51984e-07
-5.20572e-08
-6.99801e-07
-5.21877e-08
-6.47494e-07
-5.23127e-08
-5.95064e-07
-5.2436e-08
-5.42508e-07
-5.25622e-08
-4.89819e-07
-5.26956e-08
-4.36988e-07
-5.28373e-08
-3.84012e-07
-5.29833e-08
-3.30897e-07
-5.31223e-08
-2.77674e-07
-5.32313e-08
-2.24407e-07
-5.32743e-08
-1.71218e-07
-5.31975e-08
-1.18317e-07
-5.29082e-08
-6.61444e-08
-5.2181e-08
-1.53338e-08
-5.08181e-08
3.2441e-08
-4.77842e-08
7.69749e-08
-4.45428e-08
-2.06957e-08
9.7663e-08
-4.04287e-09
1.44124e-08
-1.2008e-08
2.55149e-08
-1.76567e-08
2.52605e-08
-1.3732e-08
1.4376e-08
7.46929e-09
-9.36328e-09
4.61059e-08
-4.11701e-08
9.83843e-08
-7.38697e-08
1.58666e-07
-9.93714e-08
2.20992e-07
-1.14237e-07
2.80537e-07
-1.19089e-07
3.3498e-07
-1.16017e-07
3.83117e-07
-1.07561e-07
4.24574e-07
-9.5975e-08
4.59463e-07
-8.27857e-08
4.881e-07
-6.8935e-08
5.10858e-07
-5.49627e-08
5.2814e-07
-4.11329e-08
5.40371e-07
-2.75449e-08
5.48088e-07
-1.42065e-08
5.51886e-07
-1.04146e-09
5.52005e-07
1.21645e-08
5.4807e-07
2.56103e-08
5.39348e-07
3.92835e-08
5.24939e-07
5.30013e-08
5.0393e-07
6.63512e-08
4.7555e-07
7.86632e-08
4.39366e-07
8.90081e-08
3.95501e-07
9.62739e-08
3.44776e-07
9.93706e-08
2.888e-07
9.75205e-08
2.30109e-07
9.06119e-08
1.72346e-07
7.94297e-08
1.20396e-07
6.52917e-08
7.87095e-08
4.95447e-08
5.02169e-08
3.35664e-08
3.61154e-08
1.82131e-08
3.63999e-08
2.59581e-09
4.88967e-08
-1.44685e-08
7.17657e-08
-3.38351e-08
1.03344e-07
-5.39878e-08
1.38638e-07
-6.8552e-08
1.70541e-07
-7.15865e-08
1.94567e-07
-6.31951e-08
2.08754e-07
-4.69435e-08
2.13229e-07
-2.73887e-08
2.09632e-07
-8.49482e-09
1.99363e-07
8.2692e-09
1.85488e-07
1.87814e-08
1.721e-07
2.02108e-08
1.48265e-07
2.91532e-08
9.53496e-08
5.21275e-08
-7.35665e-09
9.04778e-08
-1.63149e-07
1.44774e-07
-3.54622e-07
2.00116e-07
-5.63589e-07
2.48338e-07
-7.75507e-07
2.90806e-07
-9.80527e-07
3.2582e-07
-1.17492e-06
3.48324e-07
-1.35559e-06
3.56039e-07
-1.51902e-06
3.5072e-07
-1.66327e-06
3.3515e-07
-1.78816e-06
3.1241e-07
-1.89495e-06
2.85542e-07
-1.98572e-06
2.5721e-07
-2.06292e-06
2.29476e-07
-2.12903e-06
2.03668e-07
-2.18628e-06
1.80495e-07
-2.23654e-06
1.6019e-07
-2.28131e-06
1.42684e-07
-2.32175e-06
1.27744e-07
-2.3587e-06
1.15051e-07
-2.3928e-06
1.04268e-07
-2.42447e-06
9.50761e-08
-2.45405e-06
8.71847e-08
-2.48177e-06
8.03504e-08
-2.50778e-06
7.43684e-08
-2.53223e-06
6.907e-08
-2.5552e-06
6.43162e-08
-2.57676e-06
5.99973e-08
-2.59697e-06
5.60257e-08
-2.61587e-06
5.23325e-08
-2.63349e-06
4.88621e-08
-2.64986e-06
4.55709e-08
-2.66501e-06
4.24233e-08
-2.67895e-06
3.93912e-08
-2.69169e-06
3.64511e-08
-2.70326e-06
3.35839e-08
-2.71365e-06
3.07734e-08
-2.72286e-06
2.80055e-08
-2.73092e-06
2.52688e-08
-2.73782e-06
2.25524e-08
-2.74356e-06
1.98477e-08
-2.74816e-06
1.71472e-08
-2.75163e-06
1.44452e-08
-2.75399e-06
1.17379e-08
-2.75526e-06
9.02463e-09
-2.75551e-06
6.30863e-09
-2.75479e-06
3.60094e-09
-2.75321e-06
9.27832e-10
-2.75084e-06
-1.67807e-09
-2.74758e-06
-4.23392e-09
-2.74321e-06
-6.78907e-09
-2.73761e-06
-9.35384e-09
-2.73075e-06
-1.19199e-08
-2.72262e-06
-1.44878e-08
-2.71322e-06
-1.7058e-08
-2.70255e-06
-1.96296e-08
-2.69061e-06
-2.22009e-08
-2.67739e-06
-2.477e-08
-2.66291e-06
-2.73344e-08
-2.64715e-06
-2.98919e-08
-2.63014e-06
-3.24397e-08
-2.61187e-06
-3.49755e-08
-2.59235e-06
-3.74966e-08
-2.57159e-06
-4.00003e-08
-2.5496e-06
-4.24839e-08
-2.52639e-06
-4.49448e-08
-2.50197e-06
-4.73805e-08
-2.47636e-06
-4.97881e-08
-2.44957e-06
-5.21653e-08
-2.42163e-06
-5.45092e-08
-2.39253e-06
-5.68171e-08
-2.36232e-06
-5.90861e-08
-2.331e-06
-6.13131e-08
-2.2986e-06
-6.34944e-08
-2.26514e-06
-6.56262e-08
-2.23064e-06
-6.77042e-08
-2.19511e-06
-6.97281e-08
-2.15856e-06
-7.16945e-08
-2.12099e-06
-7.36043e-08
-2.08247e-06
-7.54974e-08
-2.04306e-06
-7.73667e-08
-2.00277e-06
-7.91657e-08
-1.96162e-06
-8.08932e-08
-1.91964e-06
-8.25571e-08
-1.87687e-06
-8.41615e-08
-1.83332e-06
-8.57034e-08
-1.78905e-06
-8.71804e-08
-1.74406e-06
-8.85925e-08
-1.69841e-06
-8.99412e-08
-1.65212e-06
-9.1226e-08
-1.60522e-06
-9.24472e-08
-1.55775e-06
-9.36049e-08
-1.50972e-06
-9.47007e-08
-1.46119e-06
-9.5736e-08
-1.41217e-06
-9.67119e-08
-1.36269e-06
-9.76309e-08
-1.31279e-06
-9.84901e-08
-1.26249e-06
-9.92968e-08
-1.21182e-06
-1.00042e-07
-1.16081e-06
-1.00727e-07
-1.1095e-06
-1.01346e-07
-1.0579e-06
-1.01902e-07
-1.00606e-06
-1.02395e-07
-9.53997e-07
-1.02836e-07
-9.0174e-07
-1.03228e-07
-8.49308e-07
-1.03586e-07
-7.96711e-07
-1.03914e-07
-7.43964e-07
-1.04226e-07
-6.91068e-07
-1.04527e-07
-6.38029e-07
-1.04816e-07
-5.84851e-07
-1.05102e-07
-5.3154e-07
-1.05372e-07
-4.78101e-07
-1.05631e-07
-4.24538e-07
-1.0588e-07
-3.70854e-07
-1.06125e-07
-3.17044e-07
-1.06377e-07
-2.63104e-07
-1.06642e-07
-2.09023e-07
-1.06923e-07
-1.54799e-07
-1.07214e-07
-1.00433e-07
-1.07494e-07
-4.59473e-08
-1.07723e-07
8.60693e-09
-1.07835e-07
6.31408e-08
-1.07738e-07
1.17484e-07
-1.07258e-07
1.71358e-07
-1.06062e-07
2.24222e-07
-1.03689e-07
2.75644e-07
-9.92132e-08
3.22123e-07
-9.10295e-08
-6.54407e-08
3.66861e-07
1.31457e-09
1.30891e-08
4.56148e-09
2.22491e-08
1.68555e-08
1.2953e-08
4.87349e-08
-1.75144e-08
1.01991e-07
-6.2624e-08
1.68789e-07
-1.07972e-07
2.36851e-07
-1.41932e-07
2.97995e-07
-1.60519e-07
3.49049e-07
-1.6529e-07
3.8999e-07
-1.60032e-07
4.22432e-07
-1.48459e-07
4.48236e-07
-1.33367e-07
4.68876e-07
-1.16615e-07
4.85388e-07
-9.92996e-08
4.9846e-07
-8.20067e-08
5.08519e-07
-6.50231e-08
5.15854e-07
-4.84677e-08
5.20677e-07
-3.23688e-08
5.23184e-07
-1.67134e-08
5.23607e-07
-1.46481e-09
5.22312e-07
1.34595e-08
5.19711e-07
2.82104e-08
5.16073e-07
4.29217e-08
5.11406e-07
5.76679e-08
5.05359e-07
7.23981e-08
4.97151e-07
8.68708e-08
4.85568e-07
1.00591e-07
4.6909e-07
1.12751e-07
4.46221e-07
1.22239e-07
4.15978e-07
1.27763e-07
3.78496e-07
1.28094e-07
3.35546e-07
1.22378e-07
2.90499e-07
1.10339e-07
2.47651e-07
9.23916e-08
2.11568e-07
6.96495e-08
1.86298e-07
4.34829e-08
1.73979e-07
1.49153e-08
1.74357e-07
-1.48467e-08
1.8543e-07
-4.49068e-08
2.00414e-07
-6.8973e-08
2.10459e-07
-7.85963e-08
2.10457e-07
-7.1586e-08
2.00162e-07
-5.29e-08
1.80756e-07
-2.75382e-08
1.53831e-07
-4.62848e-10
1.21025e-07
2.43106e-08
7.75051e-08
5.17916e-08
1.05654e-08
8.57231e-08
-9.53335e-08
1.26113e-07
-2.44911e-07
1.78733e-07
-4.30855e-07
2.38073e-07
-6.3785e-07
2.97473e-07
-8.45831e-07
3.52757e-07
-1.04438e-06
3.9866e-07
-1.22788e-06
4.31842e-07
-1.3896e-06
4.5253e-07
-1.52455e-06
4.60766e-07
-1.63306e-06
4.56837e-07
-1.71904e-06
4.42018e-07
-1.787e-06
4.18672e-07
-1.84148e-06
3.89636e-07
-1.88669e-06
3.57622e-07
-1.92606e-06
3.24903e-07
-1.96204e-06
2.93197e-07
-1.9962e-06
2.63636e-07
-2.02938e-06
2.36842e-07
-2.06192e-06
2.13038e-07
-2.09391e-06
1.92176e-07
-2.12526e-06
1.74042e-07
-2.15586e-06
1.58344e-07
-2.18558e-06
1.44763e-07
-2.21429e-06
1.32979e-07
-2.24191e-06
1.22698e-07
-2.26839e-06
1.13662e-07
-2.29369e-06
1.05648e-07
-2.31779e-06
9.84686e-08
-2.34068e-06
9.19671e-08
-2.36238e-06
8.60136e-08
-2.38289e-06
8.05033e-08
-2.40221e-06
7.53514e-08
-2.42037e-06
7.04899e-08
-2.43737e-06
6.58634e-08
-2.45323e-06
6.14277e-08
-2.46795e-06
5.71464e-08
-2.48155e-06
5.29901e-08
-2.49403e-06
4.89343e-08
-2.50541e-06
4.49587e-08
-2.51568e-06
4.10459e-08
-2.52486e-06
3.71814e-08
-2.53294e-06
3.33522e-08
-2.53994e-06
2.9548e-08
-2.54585e-06
2.576e-08
-2.55069e-06
2.19815e-08
-2.55445e-06
1.8208e-08
-2.55715e-06
1.44375e-08
-2.5588e-06
1.06705e-08
-2.5594e-06
6.91016e-09
-2.55896e-06
3.16275e-09
-2.55747e-06
-5.63415e-10
-2.55487e-06
-4.27027e-09
-2.55112e-06
-7.98181e-09
-2.54619e-06
-1.17212e-08
-2.54006e-06
-1.54859e-08
-2.53271e-06
-1.92665e-08
-2.52414e-06
-2.30582e-08
-2.51434e-06
-2.68577e-08
-2.50331e-06
-3.06615e-08
-2.49104e-06
-3.44667e-08
-2.47754e-06
-3.82694e-08
-2.46281e-06
-4.20665e-08
-2.44685e-06
-4.58538e-08
-2.42966e-06
-4.9628e-08
-2.41125e-06
-5.33849e-08
-2.39163e-06
-5.71208e-08
-2.3708e-06
-6.08315e-08
-2.34877e-06
-6.4513e-08
-2.32555e-06
-6.81614e-08
-2.30116e-06
-7.17727e-08
-2.27561e-06
-7.5343e-08
-2.2489e-06
-7.88683e-08
-2.22107e-06
-8.23448e-08
-2.19212e-06
-8.57683e-08
-2.16207e-06
-8.91348e-08
-2.13095e-06
-9.244e-08
-2.09876e-06
-9.56796e-08
-2.06554e-06
-9.88494e-08
-2.0313e-06
-1.01946e-07
-1.99606e-06
-1.04969e-07
-1.95984e-06
-1.07916e-07
-1.92265e-06
-1.10788e-07
-1.88455e-06
-1.13599e-07
-1.84557e-06
-1.16345e-07
-1.80574e-06
-1.19002e-07
-1.76507e-06
-1.21564e-07
-1.72359e-06
-1.24036e-07
-1.68133e-06
-1.2642e-07
-1.63832e-06
-1.28712e-07
-1.59459e-06
-1.30909e-07
-1.55018e-06
-1.3301e-07
-1.5051e-06
-1.35016e-07
-1.4594e-06
-1.36927e-07
-1.4131e-06
-1.38743e-07
-1.36624e-06
-1.40464e-07
-1.31885e-06
-1.42093e-07
-1.27095e-06
-1.43631e-07
-1.22259e-06
-1.45079e-07
-1.17377e-06
-1.46441e-07
-1.12455e-06
-1.47717e-07
-1.07493e-06
-1.48912e-07
-1.02495e-06
-1.50021e-07
-9.74639e-07
-1.51039e-07
-9.2402e-07
-1.51964e-07
-8.7313e-07
-1.52792e-07
-8.21994e-07
-1.53531e-07
-7.70643e-07
-1.54187e-07
-7.19096e-07
-1.54775e-07
-6.67376e-07
-1.55306e-07
-6.15494e-07
-1.55796e-07
-5.63463e-07
-1.56256e-07
-5.11287e-07
-1.56703e-07
-4.58972e-07
-1.57132e-07
-4.06521e-07
-1.57553e-07
-3.53939e-07
-1.57955e-07
-3.01231e-07
-1.5834e-07
-2.484e-07
-1.58711e-07
-1.95448e-07
-1.59078e-07
-1.4237e-07
-1.59454e-07
-8.91614e-08
-1.59851e-07
-3.58117e-08
-1.60273e-07
1.76859e-08
-1.60712e-07
7.13296e-08
-1.61138e-07
1.25104e-07
-1.61497e-07
1.78973e-07
-1.61704e-07
2.32861e-07
-1.61626e-07
2.8664e-07
-1.61037e-07
3.40131e-07
-1.59553e-07
3.93028e-07
-1.56585e-07
4.44955e-07
-1.5114e-07
4.94943e-07
-1.41017e-07
-1.16886e-07
5.46389e-07
-8.27181e-10
1.3907e-08
9.42777e-09
1.19756e-08
4.74604e-08
-2.50892e-08
1.14763e-07
-8.48235e-08
1.93967e-07
-1.4183e-07
2.6665e-07
-1.80659e-07
3.23422e-07
-1.98705e-07
3.63383e-07
-2.00482e-07
3.90021e-07
-1.91928e-07
4.07696e-07
-1.77709e-07
4.19944e-07
-1.60707e-07
4.29054e-07
-1.42479e-07
4.36261e-07
-1.23821e-07
4.42108e-07
-1.05148e-07
4.4678e-07
-8.66779e-08
4.50287e-07
-6.85314e-08
4.52598e-07
-5.07786e-08
4.53686e-07
-3.3457e-08
4.53559e-07
-1.65856e-08
4.52265e-07
-1.71344e-10
4.49922e-07
1.58024e-08
4.46754e-07
3.1378e-08
4.43074e-07
4.66021e-08
4.39216e-07
6.15253e-08
4.35453e-07
7.61613e-08
4.31879e-07
9.04445e-08
4.28279e-07
1.04192e-07
4.24002e-07
1.17028e-07
4.17937e-07
1.28305e-07
4.08684e-07
1.37016e-07
3.94961e-07
1.41817e-07
3.76138e-07
1.41201e-07
3.52655e-07
1.33821e-07
3.26239e-07
1.18807e-07
2.99696e-07
9.61928e-08
2.76289e-07
6.68894e-08
2.58532e-07
3.26725e-08
2.47075e-07
-3.39007e-09
2.37283e-07
-3.51148e-08
2.21055e-07
-5.27459e-08
1.93541e-07
-5.10817e-08
1.54804e-07
-3.28505e-08
1.06162e-07
-4.25668e-09
4.66045e-08
3.2018e-08
-2.9765e-08
7.5908e-08
-1.31384e-07
1.2593e-07
-2.61711e-07
1.8212e-07
-4.19799e-07
2.43812e-07
-6.01437e-07
3.07752e-07
-7.92875e-07
3.70171e-07
-9.80885e-07
4.26085e-07
-1.15496e-06
4.71553e-07
-1.30643e-06
5.04221e-07
-1.43141e-06
5.23643e-07
-1.53045e-06
5.30882e-07
-1.60521e-06
5.27288e-07
-1.65894e-06
5.14493e-07
-1.69638e-06
4.94282e-07
-1.72286e-06
4.68493e-07
-1.74319e-06
4.3901e-07
-1.76114e-06
4.07581e-07
-1.77922e-06
3.75703e-07
-1.79887e-06
3.44551e-07
-1.82065e-06
3.14979e-07
-1.84455e-06
2.87533e-07
-1.87021e-06
2.625e-07
-1.89713e-06
2.39961e-07
-1.9248e-06
2.1985e-07
-1.95277e-06
2.02003e-07
-1.98063e-06
1.86205e-07
-2.00808e-06
1.72216e-07
-2.03489e-06
1.59792e-07
-2.0609e-06
1.48704e-07
-2.08598e-06
1.38745e-07
-2.11006e-06
1.29728e-07
-2.13309e-06
1.21494e-07
-2.15503e-06
1.13907e-07
-2.17587e-06
1.06851e-07
-2.1956e-06
1.00232e-07
-2.21422e-06
9.39696e-08
-2.23173e-06
8.80007e-08
-2.24814e-06
8.22719e-08
-2.26345e-06
7.674e-08
-2.27767e-06
7.13693e-08
-2.29081e-06
6.61301e-08
-2.30287e-06
6.09979e-08
-2.31387e-06
5.59515e-08
-2.32379e-06
5.09731e-08
-2.33266e-06
4.60467e-08
-2.34047e-06
4.11593e-08
-2.34722e-06
3.62983e-08
-2.35291e-06
3.14549e-08
-2.35755e-06
2.66209e-08
-2.36114e-06
2.17913e-08
-2.36366e-06
1.69623e-08
-2.36512e-06
1.21325e-08
-2.36551e-06
7.30146e-09
-2.36482e-06
2.47001e-09
-2.36302e-06
-2.36264e-09
-2.36009e-06
-7.20423e-09
-2.356e-06
-1.20701e-08
-2.35075e-06
-1.69709e-08
-2.34433e-06
-2.19034e-08
-2.33673e-06
-2.68601e-08
-2.32795e-06
-3.18347e-08
-2.31799e-06
-3.68221e-08
-2.30683e-06
-4.18174e-08
-2.29448e-06
-4.68159e-08
-2.28094e-06
-5.18125e-08