/*--------------------------------*- C++ -*----------------------------------*\
  =========                 |
  \\      /  F ield         | OpenFOAM: The Open Source CFD Toolbox
   \\    /   O peration     | Website:  https://openfoam.org
    \\  /    A nd           | Version:  8
     \\/     M anipulation  |
\*---------------------------------------------------------------------------*/
FoamFile
{
    version     2.0;
    format      ascii;
    class       volVectorField;
    location    "1700";
    object      wallShearStress;
}
// * * * * * * * * * * * * * * * * * * * * * * * * * * * * * * * * * * * * * //

dimensions      [0 2 -2 0 0 0 0];

internalField   uniform (0 0 0);

boundaryField
{
    inlet
    {
        type            calculated;
        value           uniform (0 0 0);
    }
    outlet
    {
        type            calculated;
        value           uniform (0 0 0);
    }
    upperWall
    {
        type            calculated;
        value           nonuniform List<vector> 
223
(
(-0.444545 0.00290723 0)
(-0.478615 0.0054629 0)
(-0.500557 0.00680418 0)
(-0.505053 0.00735323 0)
(-0.50088 0.00736869 0)
(-0.490578 0.00701447 0)
(-0.47861 0.00650225 0)
(-0.466585 0.00592882 0)
(-0.454118 0.0053305 0)
(-0.442374 0.00475307 0)
(-0.431582 0.00421498 0)
(-0.421785 0.00372131 0)
(-0.412989 0.00327578 0)
(-0.405114 0.00287844 0)
(-0.398094 0.00252602 0)
(-0.391829 0.00222839 0)
(-0.386196 0.00198948 0)
(-0.381148 0.00184769 0)
(-0.377073 0.00176496 0)
(-0.373861 0.00171256 5.90296e-22)
(-0.370732 0.00163621 0)
(-0.367702 0.0015464 0)
(-0.364773 0.00144977 0)
(-0.361946 0.00135076 6.02053e-22)
(-0.359228 0.00125206 0)
(-0.356617 0.00115607 0)
(-0.354112 0.00106353 0)
(-0.351709 0.000975915 -1.22462e-21)
(-0.349406 0.000893117 1.22936e-21)
(-0.347198 0.000815802 1.23397e-21)
(-0.345081 0.000743695 0)
(-0.343051 0.000677067 -1.2429e-21)
(-0.341103 0.000615147 0)
(-0.339234 0.000558018 1.25156e-21)
(-0.337441 0.000504851 1.25583e-21)
(-0.33572 0.000455339 -1.26009e-21)
(-0.33407 0.000408792 0)
(-0.33249 0.000365052 0)
(-0.330978 0.000323917 0)
(-0.329535 0.000285153 0)
(-0.328158 0.0002489 -1.28121e-21)
(-0.326846 0.000215116 0)
(-0.325597 0.000183912 0)
(-0.324409 0.000155397 1.2939e-21)
(-0.323279 0.00012962 0)
(-0.322204 0.000106722 1.30237e-21)
(-0.32118 8.66547e-05 -1.30662e-21)
(-0.320204 6.95957e-05 1.31088e-21)
(-0.319269 5.53193e-05 0)
(-0.318377 4.39527e-05 0)
(-0.317516 3.53447e-05 0)
(-0.316689 2.93082e-05 1.32815e-21)
(-0.315887 2.55571e-05 -1.33255e-21)
(-0.315111 2.3917e-05 0)
(-0.314353 2.41243e-05 0)
(-0.313614 2.60404e-05 0)
(-0.312889 2.94327e-05 0)
(-0.312176 3.4017e-05 0)
(-0.311475 3.97141e-05 0)
(-0.310776 4.63167e-05 0)
(-0.310092 5.36967e-05 0)
(-0.3094 6.17547e-05 1.37424e-21)
(-0.308726 7.03672e-05 -1.37912e-21)
(-0.308033 7.94868e-05 0)
(-0.307363 8.89248e-05 0)
(-0.306666 9.88948e-05 0)
(-0.305986 0.000109243 -1.39878e-21)
(-0.305295 0.000119993 0)
(-0.304572 0.000133213 0)
(-0.3039 0.000141892 0)
(-0.30313 0.000102125 0)
(-0.302305 0.000136257 0)
(-0.301813 0.000347207 -2.85796e-21)
(-0.304826 0.00049141 0)
(-0.307654 0.000499683 0)
(-0.304637 0.000321661 0)
(-0.302295 0.000276893 0)
(-0.30152 -3.42715e-05 0)
(-0.323724 0.000478103 0)
(-0.318147 0.00111483 0)
(-0.322852 0.000491945 3.18491e-21)
(-0.316534 0.000239593 0)
(-0.309698 0.000266273 0)
(-0.305249 0.000167602 0)
(-0.302328 7.35187e-05 -3.09562e-21)
(-0.300382 7.58194e-05 0)
(-0.298733 0.000136239 -3.10314e-21)
(-0.298568 0.000222637 0)
(-0.298376 0.000131491 0)
(-0.320085 -1.65947e-05 0)
(-0.326868 -6.90612e-05 -3.43818e-21)
(-0.360686 0.000119467 0)
(-0.338629 0.00133202 3.55086e-21)
(-0.320473 0.00166969 3.32946e-21)
(-0.310393 0.0011639 0)
(-0.304263 0.000872598 3.19166e-21)
(-0.307006 0.000413826 0)
(-0.314617 6.41262e-06 0)
(-0.294953 -0.000244431 0)
(-0.34634 1.14218e-05 -3.745e-21)
(-0.325725 0.00102935 0)
(-0.308351 0.00111454 -3.30597e-21)
(-0.312518 0.000223946 3.37705e-21)
(-0.293015 0.000135435 0)
(-0.292532 -4.16441e-05 0)
(-0.30452 -0.000343512 0)
(-0.348815 1.44742e-05 0)
(-0.323581 0.00103976 0)
(-0.301419 0.00107076 0)
(-0.290897 0.000163909 0)
(-0.327071 -7.72962e-05 -3.59631e-21)
(-0.331655 -0.000146983 0)
(-0.33096 -8.40303e-05 0)
(-0.319029 0.000161151 0)
(-0.341895 0.000324603 0)
(-0.357333 0.00023516 0)
(-0.354039 0.000113455 0)
(-0.351904 0.000150907 0)
(-0.348311 0.000189034 0)
(-0.323728 0.000485643 0)
(-0.338219 0.000499077 0)
(-0.332987 0.0012371 0)
(-0.299934 0.00146328 0)
(-0.280652 0.000583334 -5.65411e-21)
(-0.317089 0.00107004 0)
(-0.287131 0.00113036 0)
(-0.277816 0.000441585 0)
(-0.312239 0.000905001 5.97348e-21)
(-0.290698 0.00130412 0)
(-0.274555 0.00136074 0)
(-0.273079 0.00148626 4.90029e-21)
(-0.271422 0.000803531 0)
(-0.270194 9.91963e-05 -4.76051e-21)
(-0.283153 -4.92797e-05 0)
(-0.287611 -0.000147896 0)
(-0.282428 -5.35157e-05 0)
(-0.273461 0.00018249 4.43124e-21)
(-0.277564 0.00100222 0)
(-0.261513 0.00108747 -3.90688e-21)
(-0.279666 0.00109948 0)
(-0.259114 0.00104638 0)
(-0.280808 0.000318672 0)
(-0.274962 0.0006513 0)
(-0.254684 0.000749769 0)
(-0.25908 0.000330117 0)
(-0.264437 0.000908919 0)
(-0.249568 0.000887954 0)
(-0.252485 0.000856958 0)
(-0.246362 0.00180412 0)
(-0.244899 0.0021307 0)
(-0.243209 0.00134195 -1.14817e-21)
(-0.241263 0.000494023 8.83384e-22)
(-0.246438 5.64353e-05 0)
(-0.266527 -0.000328971 0)
(-0.245348 0.000574017 0)
(-0.232356 0.000777314 0)
(-0.230405 -0.000189357 -6.90726e-22)
(-0.227574 0.000319119 1.06583e-21)
(-0.24435 0.00139864 -1.48984e-21)
(-0.225357 0.00206978 0)
(-0.224142 0.00196026 -2.08542e-21)
(-0.221933 0.000747378 -5.07152e-21)
(-0.219129 -9.07211e-05 0)
(-0.21583 0.000171285 -7.00859e-21)
(-0.227554 0.00153364 8.35234e-21)
(-0.213051 0.00225205 0)
(-0.212198 0.00173586 0)
(-0.210815 -6.70567e-05 0)
(-0.207713 -0.00127058 0)
(-0.204323 -0.000999766 0)
(-0.200903 -0.000428479 -1.42576e-20)
(-0.198783 0.00107191 0)
(-0.199117 0.000625144 -1.53603e-20)
(-0.195811 -0.000847726 0)
(-0.192503 0.000813827 0)
(-0.191989 0.00235476 0)
(-0.193689 0.00134096 0)
(-0.188051 -8.73458e-05 0)
(-0.183727 8.97375e-05 2.39443e-20)
(-0.181641 0.00113792 0)
(-0.18606 0.00188887 0)
(-0.183183 0.00174103 -2.59672e-20)
(-0.183081 0.00135742 0)
(-0.181258 0.00090294 0)
(-0.17744 0.000449557 0)
(-0.172591 0.000211849 3.35969e-20)
(-0.166536 0.000103066 0)
(-0.159442 0.000160332 0)
(-0.150458 0.000402712 0)
(-0.139292 0.000799033 0)
(-0.126385 0.00129768 -5.72864e-20)
(-0.113006 0.00162545 0)
(-0.10043 0.00171148 0)
(-0.0891836 0.00155613 0)
(-0.0799242 0.00139159 9.32396e-20)
(-0.0697299 0.00131985 0)
(-0.0646305 0.0017787 0)
(-0.0357472 0.00148674 -1.37538e-19)
(-0.0678875 0.000479962 0)
(-0.101928 0.00577745 1.17787e-17)
(-0.125296 0.0101869 2.11188e-17)
(-0.137746 0.0127702 1.98409e-17)
(-0.145091 0.0141968 1.9073e-17)
(-0.150553 0.015069 1.84628e-17)
(-0.15481 0.0156851 -1.79502e-17)
(-0.157782 0.0161173 -1.74778e-17)
(-0.160039 0.0164076 -1.20371e-35)
(-0.162057 0.0166313 -3.34078e-17)
(-0.16409 0.0168273 -1.6334e-17)
(-0.166162 0.0170187 7.28242e-34)
(-0.168572 0.0172153 0)
(-0.171395 0.0174534 -3.00841e-17)
(-0.174885 0.0177399 -2.89741e-17)
(-0.178947 0.0180945 -2.76645e-17)
(-0.183833 0.0185128 0)
(-0.189371 0.0190083 4.88698e-17)
(-0.195911 0.0195844 2.2455e-17)
(-0.203074 0.0202374 1.20371e-35)
(-0.211809 0.021016 -3.50775e-17)
(-0.220107 0.0217991 -1.24033e-20)
(-0.233694 0.0229595 -3.00927e-36)
(-0.238014 0.0236875 1.31864e-17)
(-0.263731 0.0252559 -7.09834e-18)
)
;
    }
    lowerWall
    {
        type            calculated;
        value           nonuniform List<vector> 
250
(
(-0.623184 -0.00590138 0)
(-0.595426 -0.00948177 0)
(-0.639348 -0.0109621 0)
(-0.627503 -0.0102546 0)
(-0.674797 -0.0100477 0)
(-0.6165 -0.00810441 0)
(-0.625742 -0.00728785 0)
(-0.549309 -0.00576868 0)
(-0.469264 -0.00419954 0)
(-0.478776 -0.00329611 0)
(-0.52299 -0.00388083 0)
(-0.483545 -0.00428991 0)
(-0.435762 -0.00308171 0)
(-0.431567 -0.00263315 0)
(-0.427899 -0.00186886 0)
(-0.425324 -0.000217436 0)
(-0.42385 0.000698899 0)
(-0.474444 0.000793951 0)
(0.00211426 0.00028177 0)
(0.00234867 -0.00251866 0)
(0.0025976 -0.00540156 0)
(0.00292415 -0.00844308 1.12884e-19)
(0.00328092 -0.0114561 -9.41533e-20)
(0.003638 -0.0149914 8.13097e-20)
(0.00382996 -0.0148623 -7.2041e-20)
(0.0105728 -0.0345836 0)
(-0.0454854 -0.111133 0)
(0.000220213 -0.000273005 0)
(5.60978e-05 -0.000781937 0)
(-9.50486e-06 -0.000864426 0)
(5.44505e-05 -0.000861231 0)
(3.27298e-05 -0.000827648 1.54812e-19)
(-0.000140098 -0.000262537 -1.50581e-19)
(-0.000569218 0.00116594 0)
(-0.00115904 0.00383505 -1.73495e-19)
(-0.00153624 0.00723785 1.32833e-19)
(-0.00148693 0.010457 0)
(-0.0011006 0.0128392 0)
(-0.000572519 0.0140969 0)
(-6.46892e-05 0.0141998 0)
(0.000338303 0.0133367 0)
(0.000672473 0.0117881 0)
(0.000999797 0.00960208 0)
(0.00135934 0.00681695 0)
(0.00176524 0.00348472 0)
(-0.000142022 -0.000275089 0)
(0.000166997 -0.000443344 0)
(0.000473392 -0.000495057 0)
(0.000791106 -0.00042537 0)
(0.0010436 -0.000191743 -0)
(0.0010878 0.000195568 -0)
(0.000839025 0.000659492 1.4511e-20)
(0.000325587 0.00109351 -1.64419e-20)
(-0.000383062 0.00140799 0)
(-0.00119365 0.0015659 -9.41722e-21)
(-0.00202984 0.00157978 0)
(-0.00282706 0.00147917 0)
(-0.00354031 0.00130002 0)
(-0.00414465 0.00107291 4.62581e-21)
(-0.00462861 0.000818481 0)
(-0.00498804 0.000548569 0)
(-0.00522033 0.000271384 -4.01045e-21)
(-0.00533007 -1.86831e-05 -0)
(-0.00529284 -0.000319337 0)
(-0.00510695 -0.000609546 -0)
(-0.00478114 -0.000869221 4.3141e-21)
(-0.0043273 -0.00107818 -0)
(-0.00376345 -0.00121562 5.10529e-21)
(-0.00311704 -0.00126251 0)
(-0.00242589 -0.00120521 -0)
(-0.00173865 -0.00104142 8.26748e-21)
(-0.00111152 -0.000787818 0)
(-0.000599848 -0.0004879 -1.36407e-20)
(-0.000235894 -0.000210212 0)
(-5.87411e-06 -1.50845e-05 2.36848e-20)
(0.000139049 0.000101557 0)
(0.000222542 0.000199677 0)
(0.000212436 0.000313051 0)
(0.000100397 0.000462339 0)
(-0.000146961 0.00065827 0)
(-0.000553552 0.000860977 -1.47653e-20)
(-0.00110165 0.000998294 0)
(-0.00170491 0.000997517 1.7683e-20)
(-0.00224653 0.000846927 0)
(-0.00262954 0.000593418 -1.41211e-20)
(-0.00281533 0.000322973 0)
(-0.00283416 0.000108281 0)
(-0.00274231 -6.35245e-06 1.39328e-20)
(-0.00261236 3.54848e-06 0)
(-0.00251125 0.000136743 1.44378e-20)
(-0.00245194 0.000337714 -1.45469e-20)
(-0.00238 0.00046149 0)
(-0.00215551 0.000270229 -1.58546e-20)
(-0.00154745 -0.000368101 -1.86213e-20)
(-0.000296504 -0.0011568 0)
(0.00144947 -0.00187192 0)
(0.00339006 -0.00256893 0)
(0.00565632 -0.0032116 0)
(0.00813236 -0.0034738 -0)
(0.0106495 -0.00359506 3.62687e-21)
(0.0131097 -0.00368732 0)
(0.0157648 -0.00375949 -2.76694e-21)
(0.0179426 -0.00364098 -0)
(0.020219 -0.00350652 -0)
(0.0232345 -0.00338029 2.21779e-21)
(0.0259995 -0.0031232 0)
(0.0260952 -0.00263283 -1.92578e-21)
(0.0289558 -0.00248751 -0)
(0.031028 -0.00231277 0)
(0.03313 -0.00216278 -0)
(0.0352133 -0.00201434 1.83019e-21)
(0.0371034 -0.00187884 0)
(0.0389835 -0.00176031 -0)
(0.0407502 -0.00165354 1.78125e-21)
(0.0424802 -0.00155957 0)
(0.0441355 -0.00147524 1.76015e-21)
(0.0457525 -0.00139959 0)
(0.0473131 -0.0013309 0)
(0.0488378 -0.00126806 0)
(0.0503173 -0.00120977 -1.72904e-21)
(0.0517623 -0.00115512 -0)
(0.0531679 -0.00110349 0)
(0.05454 -0.00105419 -1.70937e-21)
(0.0558759 -0.00100684 -1.70284e-21)
(0.0571786 -0.000960872 -0)
(0.0584461 -0.000916133 -1.68942e-21)
(0.0596798 -0.000872337 0)
(0.0608788 -0.000829424 -3.35006e-21)
(0.0620434 -0.000787025 -0)
(0.0631725 -0.00074506 -3.31844e-21)
(0.0642657 -0.000703454 -0)
(0.0653226 -0.000662063 3.28325e-21)
(0.0663419 -0.000620811 0)
(0.0673236 -0.000579498 0)
(0.0682657 -0.00053779 0)
(0.0691675 -0.000495702 -3.20001e-21)
(0.0700272 -0.000452765 -0)
(0.0708433 -0.000408727 3.15087e-21)
(0.0716136 -0.000363197 0)
(0.0723361 -0.000315807 -3.09614e-21)
(0.0730082 -0.000266339 -3.06665e-21)
(0.0736279 -0.00021466 -3.03577e-21)
(0.0741925 -0.000161361 -0)
(0.0747008 -0.000108021 0)
(0.0751526 -5.80107e-05 0)
(0.0755523 -1.62481e-05 0)
(0.0759053 1.92203e-05 0)
(0.0762141 5.38674e-05 0)
(0.0764773 8.79422e-05 0)
(0.0766949 0.000121875 0)
(0.0768664 0.000155671 2.68939e-21)
(0.0769909 0.000189466 2.64176e-21)
(0.0770681 0.000223123 0)
(0.0770974 0.000256718 0)
(0.077078 0.000290097 0)
(0.0770101 0.00032334 2.43091e-21)
(0.0768927 0.00035637 0)
(0.0767258 0.000389069 0)
(0.0765094 0.000421512 0)
(0.0762431 0.000453592 0)
(0.0759272 0.000485337 -2.11846e-21)
(0.0755612 0.00051661 0)
(0.0751458 0.00054751 0)
(0.0746806 0.000577876 1.90283e-21)
(0.0741665 0.00060776 -1.82598e-21)
(0.0736033 0.000637052 0)
(0.072992 0.000665825 -1.66451e-21)
(0.0723327 0.000693967 0)
(0.0716261 0.00072152 1.49233e-21)
(0.0708731 0.000748297 0)
(0.0700746 0.000774491 0)
(0.069231 0.000799913 0)
(0.0683443 0.000824627 0)
(0.0674184 0.000848309 0)
(0.0664533 0.000871467 -1.81354e-21)
(0.0654318 0.000893069 -1.59645e-21)
(0.0643893 0.00091366 0)
(0.0632903 0.000932213 0)
(0.0621696 0.000946959 0)
(0.0610166 0.000955879 6.62711e-22)
(0.0598317 0.000955949 0)
(0.0586192 0.000949879 0)
(0.0573717 0.000955473 0)
(0.056094 0.000971254 -3.86636e-22)
(0.0547848 0.000983079 6.69651e-22)
(0.0534517 0.000994107 0)
(0.0520948 0.001004 0)
(0.0507173 0.0010132 1.57353e-21)
(0.0493199 0.00102143 1.89416e-21)
(0.0479051 0.00102898 0)
(0.0464739 0.00103554 0)
(0.0450282 0.00104138 -2.91929e-21)
(0.0435695 0.0010463 3.28364e-21)
(0.0420986 0.00105051 0)
(0.0406174 0.0010538 0)
(0.0391258 0.00105605 4.45373e-21)
(0.0376279 0.0010576 0)
(0.0361224 0.0010582 0)
(0.034614 0.00105832 5.75593e-21)
(0.0331018 0.00105788 0)
(0.0315883 0.00105706 6.71117e-21)
(0.0300744 0.00105604 0)
(0.0285607 0.00105497 0)
(0.0270486 0.00105401 0)
(0.0255379 0.00105338 -8.8834e-21)
(0.024029 0.00105309 0)
(0.0225219 0.00105331 0)
(0.0210166 0.00105396 0)
(0.0195129 0.00105517 0)
(0.0180109 0.00105689 0)
(0.0165106 0.00105932 0)
(0.0150116 0.00106251 -1.39543e-20)
(0.0135138 0.0010667 -1.48773e-20)
(0.0120166 0.00107189 0)
(0.0105195 0.00107825 0)
(0.00902186 0.00108551 0)
(0.00752357 0.00109362 1.93717e-20)
(0.00602486 0.00110249 0)
(0.00452725 0.00111145 -4.45765e-20)
(0.0030345 0.00111751 4.79589e-20)
(0.00155526 0.00111568 5.17156e-20)
(9.46793e-05 0.00108698 -5.45772e-20)
(-0.00125571 0.00102519 5.42647e-20)
(-0.00275942 0.00086358 -5.22859e-20)
(-0.0030846 0.00048375 0)
(-0.00503639 0.00110801 -3.11664e-18)
(-0.00810921 0.000887015 -2.82264e-18)
(-0.0111559 0.000547412 0)
(-0.0143079 0.000229033 -4.79618e-18)
(-0.0176763 -0.000107085 -8.91473e-18)
(-0.0212643 -0.000462877 -4.15779e-18)
(-0.0250836 -0.000839379 3.88861e-18)
(-0.0291544 -0.00124051 -1.80556e-35)
(-0.0335053 -0.00166964 0)
(-0.0381502 -0.00213001 3.2143e-18)
(-0.0431075 -0.00262659 3.02159e-18)
(-0.0483952 -0.00311724 3.00927e-36)
(-0.0540167 -0.00363069 0)
(-0.0600359 -0.00422567 0)
(-0.0665061 -0.00488354 -6.70972e-35)
(-0.0734314 -0.00559617 -4.2788e-35)
(-0.0809591 -0.00636443 6.92131e-35)
(-0.0889527 -0.00719336 -3.74533e-18)
(-0.0979715 -0.00809332 -3.41287e-18)
(-0.107092 -0.00906695 1.20371e-35)
(-0.118703 -0.0101389 5.37309e-18)
(-0.12832 -0.0113125 8.92096e-18)
(-0.145811 -0.0125543 6.01853e-36)
(-0.153212 -0.0140603 -4.3035e-18)
(-0.188003 -0.0164267 -9.0278e-36)
)
;
    }
    frontAndBack
    {
        type            empty;
    }
}


// ************************************************************************* //
