/*--------------------------------*- C++ -*----------------------------------*\
  =========                 |
  \\      /  F ield         | OpenFOAM: The Open Source CFD Toolbox
   \\    /   O peration     | Website:  https://openfoam.org
    \\  /    A nd           | Version:  8
     \\/     M anipulation  |
\*---------------------------------------------------------------------------*/
FoamFile
{
    version     2.0;
    format      ascii;
    class       volScalarField;
    location    "1300";
    object      omega;
}
// * * * * * * * * * * * * * * * * * * * * * * * * * * * * * * * * * * * * * //

dimensions      [0 0 -1 0 0 0 0];

internalField   nonuniform List<scalar> 
12225
(
67120.3
48345.7
46173.9
42975.3
41085.3
38558
32582.3
56276
48198.2
44529.6
39322.7
38880.8
32582.3
32582.3
39281
39197.6
39311.9
32582.3
10726.7
10096.9
10279.9
10655
10957.9
11628.9
11808.8
13621
13855.9
14118.2
14014.9
14429.1
14242.9
14151.6
15072.8
15598.4
15774.4
15544.1
2732.22
2266.96
2223.64
2488.72
2723.12
3109.42
3401.24
3765.19
4044.34
4302.45
4468.95
4692.15
4880.51
5102.55
5256.4
5460.2
5544.44
5712.65
975.078
858.809
822.157
921.436
1023.73
1167.01
1287.52
1418.77
1524.49
1636.25
1710.98
1808.35
1878.43
1975.23
2030.81
2117.76
2157.72
2241.03
541.54
532.285
521.969
561.517
603.825
658.855
705.584
759.883
801.867
850.91
883.542
926.814
955.337
996.862
1020.52
1058.84
1077.09
1114.05
451.901
464.357
460
465.973
480.26
500.53
517.795
540.339
557.67
579.364
594.19
613.965
627.008
645.97
657.159
675.217
684.134
701.705
440.857
438.553
439.866
439.577
442.676
448.713
453.696
461.638
467.788
476.369
482.343
490.698
496.283
504.606
509.681
517.939
522.23
530.399
439.454
436.838
435.352
434.049
433.893
434.775
435.942
438.123
439.996
443.142
445.32
448.731
450.982
454.629
456.863
460.69
462.732
466.759
439.12
436.855
434.858
433.073
431.604
430.692
429.971
429.748
429.717
429.973
430.332
431.115
431.629
432.702
433.349
434.665
435.4
437.02
439.05
436.907
434.863
432.972
431.169
429.605
428.147
426.957
425.868
425.032
424.219
423.679
423.094
422.779
422.405
422.274
422.1
422.215
439.044
436.916
434.875
432.966
431.123
429.416
427.774
426.285
424.853
423.576
422.333
421.246
420.172
419.262
418.342
417.602
416.808
416.234
439.045
436.914
434.877
432.958
431.118
429.387
427.725
426.166
424.668
423.269
421.919
420.665
419.451
418.331
417.244
416.249
415.276
414.393
439.046
436.91
434.876
432.95
431.113
429.375
427.713
426.14
424.636
423.211
421.847
420.553
419.316
418.143
417.021
415.957
414.938
413.974
439.047
436.907
434.875
432.944
431.109
429.364
427.705
426.126
424.621
423.19
421.824
420.524
419.281
418.1
416.969
415.895
414.864
413.886
439.046
436.907
434.872
432.941
431.104
429.358
427.697
426.115
424.609
423.175
421.808
420.504
419.262
418.076
416.945
415.866
414.835
413.85
439.047
436.905
434.872
432.938
431.101
429.353
427.69
426.107
424.599
423.163
421.795
420.491
419.247
418.059
416.927
415.846
414.814
413.827
439.047
436.905
434.871
432.937
431.099
429.35
427.686
426.102
424.594
423.156
421.787
420.481
419.236
418.048
416.915
415.832
414.799
413.811
439.045
436.906
434.87
432.938
431.097
429.35
427.684
426.101
424.591
423.155
421.784
420.478
419.232
418.043
416.909
415.825
414.792
413.803
439.047
436.904
434.871
432.937
431.1
429.35
427.687
426.101
424.594
423.155
421.786
420.479
419.234
418.045
416.91
415.827
414.793
413.805
439.045
436.905
434.871
432.939
431.101
429.354
427.689
426.106
424.597
423.161
421.791
420.486
419.24
418.052
416.918
415.835
414.802
413.814
439.048
436.905
434.873
432.94
431.105
429.357
427.696
426.112
424.606
423.17
421.802
420.498
419.255
418.069
416.939
415.86
414.831
413.848
439.048
436.904
434.876
432.943
431.111
429.362
427.707
426.126
424.631
423.201
421.851
420.558
419.342
418.175
417.08
416.03
415.046
414.101
439.066
436.892
434.879
432.937
431.125
429.389
427.783
426.253
424.846
423.51
422.292
421.139
420.102
419.12
418.256
417.42
416.712
416.003
439.104
436.806
434.89
432.977
431.344
429.862
428.684
427.623
426.864
426.202
425.806
425.49
425.412
425.444
425.565
425.754
426.153
426.419
439.013
436.574
435.454
434.249
434.295
434.827
436.146
437.73
440.148
442.483
445.501
448.288
451.698
454.727
458.354
461.415
465.109
468.036
437.313
440.282
443.059
447.64
456.719
466.63
478.72
490.159
502.944
514.462
527.159
538.314
550.648
561.166
572.919
582.554
593.585
602.161
439.171
480.627
498.027
535.882
580.692
623.96
669.113
709.029
750.011
785.135
822.163
853.164
886.785
914.032
944.443
968.082
995.478
1015.68
564.064
732.249
866.984
1041.76
1213.45
1367.22
1513.97
1638.61
1759.57
1859.64
1961.18
2042.64
2129.36
2195.99
2270.7
2325.2
2390.13
2434.85
2255.31
2789.88
3564.54
4289.17
4938.63
5483.23
5940.06
6304.11
6615.7
6860.12
7079.47
7245.77
7405.97
7519.71
7642.41
7720.2
7820.19
7873.58
28613.6
26098.6
25870.3
26035.5
26152.6
26173
26068.5
25897.5
25674.2
25443.7
25216.9
24999.2
24795.5
24605.9
24431.8
24271.9
24125.6
23991.5
11463.3
2494.65
2496.87
2499.12
2501.38
2503.67
2505.98
2508.3
2510.65
2513.02
2515.42
2517.83
2520.27
2522.73
2525.21
2527.72
2530.25
2532.8
2535.37
2537.97
2540.6
2543.25
2545.92
2548.62
2551.34
2554.09
2556.87
2559.67
2562.5
2565.35
2568.23
2571.14
2574.08
2577.04
2580.04
2583.06
2586.11
2589.19
2592.3
2595.43
2598.6
2601.8
2605.03
2608.29
3117.49
3257.81
3184.06
2621.66
3223.07
3240.18
3375.78
2635.55
3279.81
3216.72
3185.22
3203.69
3297.69
3346.02
3398.35
3451.13
3496.27
3545.37
3589.53
3634.95
3678.06
3721.25
3763.17
3804.88
3845.72
3886.33
3926.24
3965.93
4005.02
4043.9
4082.21
4120.31
4157.86
4195.19
4231.96
4268.49
4304.42
4340.1
4375.11
4409.84
4443.84
4477.49
4510.35
4542.77
4574.41
4605.54
4635.96
4665.79
4695.04
4723.94
4752.68
4781.23
4809.1
4836.63
4863.67
4890.27
4916.43
4942.11
4967.34
4992.06
5016.33
5040.06
5063.34
5086.06
5108.3
5129.96
5151.12
5171.69
5191.73
5211.15
5230.02
5248.26
5265.89
5282.89
5299.24
5314.93
5329.95
5344.28
5357.89
5370.8
5382.95
5394.37
5404.98
5414.82
5423.79
5431.94
5439.1
5446.16
5452.57
5458.4
5461.77
5466.9
5467.68
5471.15
5470.37
5470.96
5469.87
5468.37
5466.09
5462.98
5458.94
5454.25
5448.78
5442.58
5435.62
5427.95
5419.59
5410.63
5401.07
5390.94
5380.25
5369.01
5357.37
5345.39
5333.16
5320.72
5308.17
5295.57
5283
5270.52
5258.25
5246.23
5234.48
5222.94
5211.83
5201.29
5190.82
5180.36
5169.94
5159.33
5147.87
5134.88
5118.09
5093.93
5060.15
4847.42
11463.3
2018.48
990.928
790.588
674.446
640.413
651.088
648.872
638.468
617.769
595.723
574.723
559.44
546.21
544.085
560.648
608.737
698.759
803.137
901.691
979.428
1014.02
998.089
952.721
839.404
709.057
602.691
531.318
498.473
506.685
519.878
581.436
649.837
922.129
1328.61
1721.06
1965.91
2114.45
2157.06
2170.04
2148
2102.33
2043.7
1972.7
1937.13
1855.48
1795.64
1719.81
1699.9
1633.96
1603.12
1556.45
1561.5
1531.27
1518.84
1506.13
1505.26
1504.05
1504.6
1507.46
1510.42
1515.18
1520.08
1526.02
1532.18
1538.93
1545.86
1553.13
1560.51
1568.07
1575.67
1583.37
1591.04
1598.73
1606.36
1613.95
1621.46
1628.89
1636.2
1643.41
1650.47
1657.42
1664.2
1670.85
1677.33
1683.66
1689.83
1695.87
1701.8
1707.7
1713.6
1719.62
1725.93
1732.74
1740.34
1748.51
1756.3
1764.12
1771.77
1779.34
1786.78
1794.12
1801.32
1808.41
1815.37
1822.2
1828.89
1835.44
1841.85
1848.11
1854.22
1860.18
1865.97
1871.6
1877.06
1882.35
1887.46
1892.39
1897.14
1901.7
1906.06
1910.24
1914.21
1917.98
1921.54
1924.89
1928.03
1930.94
1933.64
1936.13
1938.42
1940.57
1942.48
1944.14
1945.48
1946.75
1947.51
1948.35
1948.65
1948.96
1948.92
1948.75
1948.39
1947.8
1946.97
1945.94
1944.69
1943.24
1941.58
1939.73
1937.71
1935.47
1933.05
1930.46
1927.7
1924.79
1921.74
1918.58
1915.32
1911.98
1908.57
1905.1
1901.6
1898.08
1894.54
1891.01
1887.52
1884.08
1880.74
1877.53
1874.39
1871.33
1868.37
1865.55
1862.91
1860.6
1858.6
1857.76
1858.2
1862.62
11463.3
2030.22
854.331
715.432
750.339
746.018
712.871
654.454
595.224
539.506
490.226
448.666
415.033
388.807
371.114
356.877
356.008
361.86
378.098
410.099
452.472
491.745
523.921
523.648
505.125
468.072
420.915
416.903
449.093
564.136
757.352
1015.39
1247.82
1440.29
1591.45
1673.04
1706.29
1651.11
1587
1508.83
1433.65
1359.55
1293.23
1233.41
1186.6
1143.49
1111.6
1084.63
1063.36
1045.42
1033.59
1025.12
1020.04
1015.79
1013.18
1012.31
1012.97
1014.57
1016.67
1019.44
1022.51
1026.03
1029.76
1033.77
1037.93
1042.25
1046.66
1051.16
1055.71
1060.31
1064.93
1069.55
1074.17
1078.77
1083.35
1087.91
1092.42
1096.9
1101.33
1105.72
1110.05
1114.35
1118.59
1122.8
1126.97
1131.11
1135.23
1139.35
1143.49
1147.68
1151.93
1156.28
1160.75
1165.36
1170.07
1174.76
1179.36
1183.92
1188.41
1192.85
1197.21
1201.5
1205.72
1209.86
1213.93
1217.92
1221.82
1225.63
1229.36
1232.99
1236.53
1239.96
1243.3
1246.53
1249.66
1252.67
1255.57
1258.36
1261.03
1263.59
1266.02
1268.32
1270.5
1272.55
1274.47
1276.25
1277.91
1279.42
1280.8
1282.05
1283.17
1284.15
1284.99
1285.67
1286.19
1286.59
1286.79
1286.89
1286.82
1286.66
1286.27
1285.79
1285.19
1284.43
1283.53
1282.48
1281.3
1279.98
1278.52
1276.93
1275.23
1273.38
1271.43
1269.35
1267.17
1264.88
1262.5
1260.03
1257.49
1254.88
1252.21
1249.48
1246.7
1243.9
1241.06
1238.2
1235.33
1232.47
1229.63
1226.85
1224.13
1221.47
1218.91
1216.47
1214.25
1212.41
1211.12
1211.33
1213.72
1225.31
11463.3
2128.61
1185.96
1103.46
975.938
843.097
725.859
620.926
533.218
462.398
407.814
367.389
337.987
316.857
302.118
292.176
286.115
286.405
289.405
298.482
316.132
339.882
365.245
379.857
393.238
434.657
506.412
641.877
837.402
1043.42
1217.72
1313.92
1378.56
1421.39
1440.4
1364.5
1262.43
1204.35
1131.04
1073.78
1020.46
976.248
939.179
909.017
885.348
866.271
851.804
840.737
832.3
826.592
822.776
820.909
820.087
819.846
820.544
822.007
824.025
826.44
829.145
832.123
835.294
838.644
842.12
845.708
849.377
853.113
856.896
860.715
864.557
868.414
872.277
876.14
879.996
883.842
887.674
891.49
895.287
899.065
902.822
906.559
910.277
913.977
917.663
921.337
925.003
928.667
932.334
936.012
939.707
943.431
947.185
950.966
954.772
958.592
962.398
966.161
969.873
973.54
977.153
980.714
984.217
987.661
991.044
994.362
997.613
1000.79
1003.9
1006.94
1009.89
1012.77
1015.56
1018.26
1020.88
1023.4
1025.84
1028.17
1030.41
1032.55
1034.58
1036.51
1038.33
1040.04
1041.65
1043.13
1044.5
1045.76
1046.89
1047.91
1048.8
1049.57
1050.22
1050.75
1051.14
1051.4
1051.53
1051.53
1051.39
1051.12
1050.73
1050.2
1049.53
1048.75
1047.84
1046.8
1045.63
1044.33
1042.91
1041.37
1039.7
1037.91
1036.02
1034
1031.89
1029.66
1027.34
1024.93
1022.44
1019.86
1017.21
1014.5
1011.73
1008.9
1006.02
1003.1
1000.15
997.169
994.177
991.177
988.183
985.217
982.294
979.424
976.631
973.959
971.478
969.332
967.684
967.336
968.834
976.648
11463.3
2611.56
1682.38
1272.62
999.372
778.373
600.987
476.333
394.041
341.872
307.929
284.652
268.397
257.207
249.857
245.761
245.148
246.635
251.045
258.582
272.705
296.62
337.383
395.604
476.252
612.498
825.051
1016.82
1140.61
1208.62
1247.5
1264.87
1262.45
1190.28
1092.14
1024.63
963.808
918.589
873.611
839.471
809.192
785.142
765.612
750.327
738.575
729.699
723.25
718.846
715.993
714.903
714.515
714.98
716.181
717.879
720.068
722.629
725.471
728.528
731.754
735.12
738.596
742.16
745.793
749.481
753.209
756.968
760.748
764.543
768.346
772.154
775.96
779.763
783.56
787.349
791.128
794.896
798.653
802.399
806.135
809.86
813.577
817.285
820.988
824.687
828.384
832.08
835.777
839.478
843.183
846.895
850.608
854.313
858.001
861.666
865.297
868.884
872.426
875.92
879.362
882.751
886.082
889.354
892.564
895.709
898.787
901.794
904.728
907.586
910.365
913.063
915.677
918.204
920.642
922.988
925.24
927.395
929.45
931.404
933.253
934.995
936.628
938.15
939.557
940.849
942.022
943.074
944.005
944.812
945.493
946.047
946.473
946.767
946.927
946.953
946.847
946.602
946.219
945.703
945.049
944.259
943.33
942.274
941.084
939.762
938.308
936.722
935.007
933.166
931.2
929.114
926.911
924.593
922.167
919.636
917.007
914.284
911.473
908.583
905.618
902.585
899.492
896.352
893.167
889.942
886.682
883.394
880.089
876.774
873.455
870.153
866.883
863.66
860.505
857.458
854.581
851.985
849.816
848.59
849.006
853.14
11463.3
3364.58
1875.14
1248.15
837.186
581.878
448.126
374.324
327.098
294.804
271.078
253.388
240.425
231.377
225.827
223.571
224.349
228.761
238.891
256.413
281.396
322.716
398.612
525.436
724.322
918.828
1048.76
1117.57
1146.03
1159.76
1142.03
1065.27
990.757
918.335
864.036
821.288
784.632
755.126
729.053
708.476
691.225
677.676
667.097
659.154
653.41
649.493
647.255
646.366
646.23
647.094
648.618
650.702
653.23
656.101
659.262
662.646
666.201
669.886
673.674
677.541
681.47
685.445
689.454
693.488
697.54
701.603
705.673
709.745
713.816
717.884
721.947
726.004
730.053
734.095
738.129
742.154
746.171
750.181
754.184
758.181
762.172
766.158
770.14
774.118
778.092
782.061
786.027
789.986
793.938
797.882
801.81
805.715
809.585
813.419
817.212
820.959
824.655
828.3
831.888
835.417
838.883
842.283
845.615
848.875
852.062
855.173
858.203
861.151
864.013
866.787
869.47
872.059
874.551
876.944
879.235
881.422
883.501
885.469
887.324
889.063
890.683
892.182
893.556
894.804
895.922
896.909
897.762
898.479
899.057
899.496
899.792
899.934
899.947
899.808
899.521
899.085
898.498
897.762
896.877
895.841
894.656
893.324
891.845
890.225
888.46
886.552
884.503
882.317
879.997
877.547
874.97
872.271
869.454
866.527
863.493
860.36
857.133
853.821
850.431
846.968
843.442
839.862
836.233
832.562
828.856
825.121
821.371
817.618
813.873
810.144
806.442
802.782
799.186
795.688
792.341
789.236
786.489
784.422
783.623
785.203
11463.3
3700.71
1814.64
995.859
618.198
452.849
368.798
319.419
286.993
264.143
247.718
235.457
226.254
220.092
217.631
218.995
224.267
232.373
249.665
282.134
338.584
437.482
605.066
790.633
935.081
1022.78
1058.57
1074.64
1059.12
987.579
915.678
852.223
801.527
758.454
725.684
698.346
675.397
656.444
640.556
627.872
617.736
610.007
604.336
600.444
598.226
597.33
597.249
598.171
599.833
602.141
604.948
608.159
611.69
615.474
619.46
623.601
627.859
632.207
636.621
641.083
645.58
650.1
654.635
659.177
663.722
668.267
672.807
677.341
681.868
686.386
690.896
695.396
699.886
704.368
708.841
713.305
717.762
722.212
726.655
731.093
735.525
739.951
744.371
748.784
753.19
757.586
761.971
766.341
770.695
775.029
779.339
783.618
787.86
792.059
796.209
800.305
804.343
808.321
812.234
816.077
819.848
823.544
827.159
830.69
834.133
837.484
840.742
843.906
846.973
849.939
852.803
855.562
858.213
860.752
863.178
865.487
867.676
869.742
871.682
873.493
875.172
876.715
878.12
879.384
880.504
881.477
882.301
882.973
883.492
883.854
884.047
884.089
883.975
883.695
883.251
882.641
881.866
880.924
879.817
878.544
877.106
875.503
873.735
871.788
869.676
867.404
864.976
862.397
859.67
856.799
853.789
850.646
847.374
843.981
840.473
836.857
833.141
829.333
825.439
821.47
817.432
813.336
809.188
804.996
800.769
796.513
792.244
787.971
783.703
779.449
775.222
771.036
766.913
762.882
758.989
755.306
751.926
749.08
747.089
746.855
11463.3
3701.68
1482.38
764.602
515.534
405.491
343.776
305.834
279.431
259.286
243.881
232.609
225.531
222.546
224.071
231.473
246.311
271.796
312.245
383.073
512.273
669.57
812.583
915.609
971.726
992.308
993.824
936.434
868.317
806.98
758.291
717.751
685.498
658.813
637.387
619.328
604.27
591.879
581.836
573.984
568.042
563.825
561.205
560.016
559.778
560.508
562.077
564.379
567.282
570.686
574.497
578.638
583.041
587.653
592.428
597.328
602.323
607.386
612.499
617.645
622.812
627.99
633.171
638.349
643.521
648.682
653.832
658.969
664.094
669.205
674.303
679.387
684.459
689.519
694.568
699.607
704.636
709.657
714.67
719.674
724.672
729.662
734.642
739.611
744.566
749.506
754.427
759.325
764.197
769.04
773.849
778.619
783.341
788.006
792.609
797.145
801.61
806
810.311
814.538
818.677
822.725
826.679
830.535
834.29
837.942
841.488
844.925
848.25
851.462
854.556
857.531
860.383
863.109
865.707
868.173
870.503
872.695
874.744
876.648
878.402
880.004
881.449
882.735
883.859
884.817
885.606
886.225
886.669
886.929
887.011
886.921
886.65
886.195
885.555
884.73
883.719
882.523
881.141
879.574
877.823
875.888
873.771
871.475
869.001
866.353
863.534
860.549
857.402
854.099
850.645
847.045
843.307
839.437
835.442
831.331
827.113
822.795
818.386
813.897
809.334
804.71
800.031
795.307
790.545
785.755
780.929
776.079
771.231
766.399
761.595
756.834
752.135
747.526
743.046
738.751
734.714
731.096
728.078
726.226
11463.3
3267.55
1162.3
630.861
452.643
373.262
330.365
300.404
278.197
261.475
248.806
240.277
235.791
235.47
243.137
261.45
296.527
357.975
453.093
575.44
698.372
805.558
875.296
911.488
924.299
895.853
836.943
776.443
729.179
689.115
657.551
631.384
610.051
592.266
577.537
565.204
555.05
546.873
540.494
535.761
532.507
530.75
530.148
530.439
531.688
533.752
536.524
539.907
543.809
548.147
552.847
557.844
563.082
568.513
574.096
579.795
585.583
591.433
597.327
603.249
609.188
615.132
621.074
627.006
632.925
638.827
644.71
650.573
656.419
662.248
668.058
673.85
679.625
685.383
691.126
696.856
702.572
708.277
713.968
719.646
725.305
730.951
736.586
742.207
747.812
753.396
758.955
764.485
769.981
775.438
780.85
786.205
791.494
796.712
801.854
806.913
811.886
816.766
821.55
826.233
830.81
835.278
839.633
843.872
847.992
851.991
855.865
859.612
863.231
866.717
870.069
873.283
876.357
879.288
882.072
884.707
887.187
889.51
891.671
893.668
895.495
897.149
898.625
899.922
901.034
901.958
902.693
903.234
903.574
903.709
903.65
903.39
902.925
902.255
901.377
900.292
898.999
897.498
895.79
893.876
891.757
889.434
886.909
884.186
881.268
878.158
874.86
871.381
867.724
863.897
859.904
855.755
851.455
847.013
842.437
837.737
832.921
828
822.984
817.882
812.705
807.463
802.166
796.824
791.445
786.041
780.619
775.193
769.772
764.369
758.997
753.67
748.407
743.233
738.179
733.294
728.634
724.312
720.412
717.187
11463.3
2710.68
963.895
574.57
436.763
370.764
334.013
310.243
292.63
279.37
270.927
268.486
272.85
286.435
313.298
360.748
429.588
517.386
614.487
708.043
781.415
827.883
849.737
851.5
805.786
755.249
708.932
669.043
637.89
611.779
590.553
572.735
557.857
545.368
534.967
526.39
519.493
514.147
510.234
507.678
506.461
506.211
506.923
508.529
510.944
514.079
517.848
522.171
526.974
532.189
537.751
543.603
549.696
555.984
562.429
568.997
575.658
582.385
589.158
595.959
602.776
609.603
616.424
623.232
630.021
636.786
643.525
650.23
656.892
663.518
670.123
676.707
683.272
689.819
696.349
702.863
709.362
715.848
722.322
728.785
735.242
741.682
748.102
754.499
760.869
767.207
773.508
779.766
785.974
792.128
798.218
804.233
810.166
816.01
821.757
827.403
832.941
838.366
843.671
848.853
853.906
858.827
863.612
868.257
872.761
877.12
881.333
885.396
889.308
893.067
896.671
900.116
903.4
906.519
909.471
912.252
914.858
917.285
919.529
921.586
923.45
925.119
926.587
927.851
928.907
929.751
930.381
930.792
930.974
930.936
930.672
930.181
929.462
928.513
927.332
925.92
924.278
922.404
920.301
917.969
915.411
912.628
909.624
906.402
902.966
899.32
895.471
891.424
887.185
882.761
878.159
873.389
868.457
863.374
858.149
852.792
847.313
841.725
836.037
830.26
824.407
818.489
812.516
806.499
800.448
794.375
788.291
782.205
776.131
770.08
764.065
758.1
752.204
746.398
740.712
735.183
729.854
724.813
720.104
715.773
11463.3
2177.98
828.84
533.919
427.825
379.34
352.555
334.99
322.528
316.187
315.09
322.734
341.959
375.601
424.653
486.7
558.417
631.772
696.523
744.901
776.517
789.983
772.403
733.152
691.35
654.849
623.634
597.751
576.654
558.77
543.752
531.001
520.24
511.224
503.794
497.821
493.211
489.878
487.825
486.978
486.988
487.981
489.857
492.541
495.964
500.055
504.746
509.97
515.666
521.773
528.234
534.994
542.006
549.227
556.621
564.161
571.803
579.521
587.291
595.088
602.884
610.647
618.404
626.154
633.889
641.604
649.292
656.955
664.597
672.22
679.816
687.381
694.913
702.414
709.886
717.331
724.749
732.142
739.51
746.854
754.172
761.465
768.728
775.96
783.154
790.305
797.407
804.451
811.431
818.34
825.169
831.905
838.538
845.058
851.459
857.733
863.872
869.87
875.721
881.419
886.959
892.337
897.55
902.595
907.47
912.172
916.699
921.051
925.226
929.221
933.036
936.667
940.113
943.37
946.436
949.308
951.98
954.449
956.711
958.761
960.594
962.206
963.593
964.749
965.672
966.356
966.8
966.999
966.947
966.645
966.09
965.282
964.221
962.904
961.332
959.505
957.423
955.087
952.498
949.659
946.573
943.242
939.671
935.863
931.824
927.559
923.074
918.377
913.475
908.376
903.088
897.62
891.983
886.187
880.242
874.16
867.952
861.631
855.209
848.698
842.111
835.46
828.756
822.012
815.239
808.449
801.653
794.863
788.091
781.35
774.652
768.012
761.446
754.975
748.624
742.425
736.411
730.65
725.154
719.805
11463.3
1968.06
806.687
536.406
443.158
402.948
383.045
372.831
368.987
370.348
380.719
401.275
432.847
474.898
524.967
578.518
629.779
672.58
705.733
725.789
730.156
703.004
672.812
640.767
611.973
587.48
566.609
548.956
533.976
521.077
510.038
500.624
492.693
486.138
480.875
476.834
473.955
472.275
471.664
471.953
473.17
475.272
478.197
481.887
486.28
491.319
496.948
503.111
509.76
516.845
524.299
532.071
540.112
548.374
556.798
565.324
573.969
582.717
591.546
600.431
609.357
618.317
627.283
636.249
645.191
654.099
662.967
671.79
680.568
689.294
697.964
706.584
715.156
723.682
732.164
740.605
749.007
757.371
765.699
773.99
782.245
790.463
798.64
806.772
814.855
822.881
830.841
838.727
846.53
854.241
861.852
869.346
876.711
883.935
891.009
897.923
904.67
911.241
917.628
923.827
929.831
935.637
941.242
946.643
951.839
956.827
961.608
966.18
970.544
974.698
978.643
982.375
985.894
989.197
992.281
995.145
997.782
1000.19
1002.37
1004.3
1006
1007.44
1008.63
1009.57
1010.25
1010.65
1010.8
1010.67
1010.27
1009.58
1008.62
1007.37
1005.85
1004.05
1001.97
999.616
996.98
994.069
990.883
987.428
983.705
979.72
975.478
970.983
966.241
961.26
956.046
950.608
944.953
939.093
933.035
926.79
920.37
913.786
907.05
900.174
893.171
886.055
878.839
871.536
864.159
856.722
849.238
841.72
834.179
826.628
819.08
811.546
804.039
796.571
789.156
781.808
774.542
767.378
760.338
753.448
746.734
740.252
733.997
727.728
11463.3
1897.82
791.722
544.349
463.798
432.905
420.935
417.538
419.96
430.198
448.397
474.359
506.857
543.359
580.273
613.794
642.203
665.541
675.832
668.154
646.771
623.012
599.793
577.877
558.68
541.978
527.396
514.695
503.639
494.027
485.761
478.759
472.963
468.327
464.808
462.365
461.053
460.701
461.273
462.752
465.103
468.302
472.309
477.055
482.487
488.56
495.221
502.411
510.05
518.077
526.499
535.283
544.389
553.777
563.411
573.263
583.275
593.414
603.66
613.968
624.311
634.668
645.009
655.307
665.558
675.756
685.894
695.967
705.97
715.9
725.755
735.537
745.248
754.891
764.469
773.984
783.44
792.84
802.186
811.479
820.72
829.907
839.038
848.109
857.113
866.042
874.886
883.635
892.276
900.801
909.198
917.45
925.54
933.454
941.181
948.708
956.026
963.125
969.998
976.636
983.035
989.192
995.103
1000.77
1006.18
1011.35
1016.27
1020.95
1025.37
1029.56
1033.5
1037.2
1040.65
1043.85
1046.81
1049.52
1051.97
1054.16
1056.1
1057.77
1059.16
1060.28
1061.13
1061.68
1061.96
1061.93
1061.62
1061
1060.08
1058.86
1057.34
1055.51
1053.38
1050.95
1048.22
1045.18
1041.85
1038.23
1034.31
1030.1
1025.62
1020.85
1015.82
1010.52
1004.96
999.155
993.107
986.826
980.323
973.609
966.693
959.587
952.304
944.857
937.258
929.521
921.66
913.688
905.622
897.473
889.258
880.989
872.681
864.347
856
847.653
839.318
831.008
822.736
814.515
806.356
798.276
790.288
782.411
774.663
767.069
759.647
752.445
745.451
738.339
11463.3
1862.94
789.711
558.853
488.028
464.305
457.783
457.702
465.305
478.806
497.468
519.853
543.95
567.5
589.606
610.58
623.33
626.067
613.708
600.409
583.225
566.559
550.709
536.001
522.768
510.892
500.283
490.886
482.651
475.532
469.5
464.533
460.609
457.72
455.912
455.143
455.24
456.243
458.112
460.82
464.327
468.563
473.478
479.127
485.496
492.552
500.253
508.558
517.432
526.841
536.714
546.995
557.638
568.607
579.859
591.335
602.975
614.729
626.544
638.402
650.28
662.152
673.993
685.781
697.5
709.138
720.687
732.138
743.487
754.728
765.862
776.888
787.81
798.629
809.351
819.98
830.52
840.977
851.354
861.654
871.878
882.028
892.099
902.089
911.99
921.794
931.488
941.06
950.496
959.784
968.912
977.858
986.603
995.13
1003.42
1011.47
1019.26
1026.78
1034.01
1040.96
1047.62
1053.98
1060.05
1065.81
1071.28
1076.45
1081.33
1085.92
1090.22
1094.24
1097.98
1101.43
1104.61
1107.51
1110.13
1112.47
1114.52
1116.29
1117.77
1118.96
1119.84
1120.43
1120.71
1120.67
1120.34
1119.68
1118.69
1117.39
1115.76
1113.8
1111.52
1108.91
1105.99
1102.74
1099.17
1095.29
1091.09
1086.59
1081.78
1076.67
1071.27
1065.58
1059.62
1053.38
1046.88
1040.13
1033.13
1025.9
1018.45
1010.78
1002.92
994.867
986.642
978.257
969.726
961.064
952.285
943.405
934.437
925.398
916.302
907.164
897.997
888.816
879.634
870.465
861.32
852.213
843.156
834.163
825.246
816.419
807.697
799.095
790.631
782.327
774.196
766.281
758.568
750.676
11463.3
1834.48
792.853
574.423
510.166
490.125
485.258
486.18
493.382
504.155
517.302
531.968
547.676
564.054
576.868
581.876
578.738
571.626
561.718
551.276
539.76
528.636
517.988
508.009
498.859
490.573
483.206
476.831
471.456
466.92
463.214
460.346
458.311
457.095
456.597
456.867
458.009
460.051
462.982
466.786
471.448
476.964
483.331
490.496
498.43
507.102
516.474
526.502
537.147
548.376
560.118
572.29
584.825
597.652
610.717
623.984
637.405
650.934
664.524
678.142
691.755
705.333
718.849
732.279
745.602
758.802
771.867
784.787
797.554
810.163
822.614
834.907
847.044
859.03
870.872
882.575
894.148
905.598
916.931
928.153
939.267
950.275
961.178
971.97
982.645
993.195
1003.6
1013.86
1023.94
1033.84
1043.54
1053.01
1062.24
1071.2
1079.87
1088.24
1096.29
1104.02
1111.4
1118.43
1125.11
1131.43
1137.4
1143.01
1148.26
1153.17
1157.73
1161.96
1165.85
1169.42
1172.67
1175.6
1178.21
1180.51
1182.51
1184.19
1185.56
1186.6
1187.36
1187.78
1187.86
1187.64
1187.1
1186.2
1184.97
1183.4
1181.5
1179.25
1176.65
1173.72
1170.44
1166.83
1162.87
1158.59
1153.97
1149.03
1143.77
1138.2
1132.31
1126.12
1119.64
1112.87
1105.83
1098.51
1090.93
1083.1
1075.04
1066.74
1058.23
1049.52
1040.61
1031.53
1022.29
1012.9
1003.37
993.731
983.985
974.15
964.243
954.278
944.272
934.238
924.19
914.144
904.112
894.107
884.142
874.23
864.383
854.614
844.935
835.36
825.902
816.577
807.401
798.392
789.561
780.946
772.538
763.926
11463.3
1825.18
799.568
587.383
525.212
504.699
498.083
496.692
499.499
506.094
515.422
526.145
535.601
539.931
540.41
537.313
534.185
529.487
524.021
518.278
512.31
506.66
501.151
495.753
490.608
485.807
481.393
477.289
473.504
470.433
468.165
466.747
466.187
466.496
467.731
469.88
472.926
476.875
481.725
487.473
494.112
501.647
510.069
519.346
529.436
540.314
551.951
564.26
577.17
590.599
604.484
618.775
633.415
648.341
663.496
678.826
694.281
709.811
725.37
740.915
756.408
771.815
787.104
802.249
817.225
832.012
846.596
860.962
875.103
889.013
902.691
916.137
929.357
942.357
955.147
967.735
980.134
992.355
1004.41
1016.31
1028.05
1039.65
1051.11
1062.42
1073.58
1084.58
1095.4
1106.03
1116.45
1126.63
1136.57
1146.24
1155.61
1164.66
1173.36
1181.7
1189.66
1197.22
1204.37
1211.11
1217.42
1223.32
1228.79
1233.86
1238.51
1242.75
1246.6
1250.06
1253.15
1255.87
1258.24
1260.25
1261.9
1263.21
1264.21
1264.85
1265.15
1265.09
1264.76
1264.06
1263
1261.61
1259.87
1257.77
1255.33
1252.53
1249.38
1245.88
1242.02
1237.81
1233.26
1228.36
1223.12
1217.54
1211.63
1205.4
1198.85
1191.99
1184.82
1177.36
1169.61
1161.59
1153.3
1144.75
1135.95
1126.92
1117.66
1108.19
1098.52
1088.67
1078.64
1068.46
1058.13
1047.68
1037.11
1026.44
1015.69
1004.87
994
983.092
972.162
961.223
950.291
939.378
928.498
917.662
906.884
896.175
885.549
875.016
864.588
854.28
844.102
834.07
824.198
814.503
804.992
795.703
786.627
777.358
11463.3
1814.23
802.552
593.729
530.136
506.645
496.986
493.684
493.342
495.866
498.29
500.776
502.682
504.458
507.874
510.385
512.313
513.166
513.329
512.595
510.925
508.191
504.986
501.813
498.866
496.261
494.096
492.491
491.605
491.42
492.014
493.439
495.722
498.883
502.96
507.949
513.824
520.579
528.211
536.721
546.111
556.393
567.57
579.668
592.582
606.224
620.51
635.41
650.869
666.82
683.197
699.936
716.971
734.238
751.673
769.218
786.815
804.414
821.963
839.419
856.737
873.885
890.823
907.525
923.962
940.116
955.963
971.497
986.7
1001.58
1016.11
1030.33
1044.22
1057.8
1071.08
1084.08
1096.82
1109.3
1121.56
1133.6
1145.44
1157.09
1168.55
1179.81
1190.89
1201.77
1212.43
1222.86
1233.03
1242.92
1252.52
1261.79
1270.71
1279.26
1287.39
1295.1
1302.36
1309.17
1315.5
1321.35
1326.72
1331.59
1336
1339.93
1343.41
1346.43
1349
1351.12
1352.87
1354.22
1355.17
1355.74
1355.9
1355.72
1355.24
1354.36
1353.11
1351.52
1349.59
1347.31
1344.67
1341.68
1338.33
1334.63
1330.58
1326.16
1321.4
1316.28
1310.81
1304.99
1298.83
1292.34
1285.51
1278.36
1270.89
1263.11
1255.03
1246.65
1237.99
1229.06
1219.86
1210.41
1200.71
1190.78
1180.62
1170.26
1159.7
1148.96
1138.04
1126.97
1115.76
1104.41
1092.96
1081.4
1069.76
1058.04
1046.27
1034.47
1022.63
1010.78
998.938
987.11
975.31
963.552
951.848
940.21
928.648
917.174
905.799
894.535
883.393
872.384
861.52
850.815
840.281
829.934
819.779
809.854
800.147
790.291
11463.3
1806.73
802.435
593.377
527.228
499.709
485.191
477.241
474.199
474.41
479.914
487.135
495.102
503.024
510.007
515.931
521.135
525.381
528.836
531.472
533.437
535.057
536.558
538.083
539.808
541.851
544.343
547.409
551.164
555.592
560.745
566.636
573.278
580.681
588.857
597.812
607.535
618.032
629.299
641.354
654.205
667.91
682.465
697.729
713.689
730.296
747.493
765.22
783.415
802.004
820.917
840.075
859.411
878.85
898.329
917.78
937.152
956.387
975.442
994.265
1012.83
1031.08
1048.99
1066.54
1083.69
1100.43
1116.74
1132.6
1148.01
1162.95
1177.46
1191.51
1205.13
1218.33
1231.13
1243.57
1255.65
1267.42
1278.88
1290.07
1301
1311.7
1322.15
1332.38
1342.38
1352.15
1361.65
1370.9
1379.83
1388.46
1396.74
1404.65
1412.15
1419.23
1425.86
1432
1437.64
1442.78
1447.39
1451.46
1455
1458.01
1460.5
1462.5
1464
1465
1465.53
1465.55
1465.26
1464.55
1463.4
1461.85
1459.92
1457.62
1454.98
1451.98
1448.62
1444.91
1440.86
1436.46