/*--------------------------------*- C++ -*----------------------------------*\
  =========                 |
  \\      /  F ield         | OpenFOAM: The Open Source CFD Toolbox
   \\    /   O peration     | Website:  https://openfoam.org
    \\  /    A nd           | Version:  8
     \\/     M anipulation  |
\*---------------------------------------------------------------------------*/
FoamFile
{
    version     2.0;
    format      ascii;
    class       volScalarField;
    location    "1300";
    object      p;
}
// * * * * * * * * * * * * * * * * * * * * * * * * * * * * * * * * * * * * * //

dimensions      [0 2 -2 0 0 0 0];

internalField   nonuniform List<scalar> 
12225
(
-1.2498
-3.65438
-4.81272
-5.15009
-5.32858
-5.51345
-5.68879
-5.81622
-5.89482
-5.97191
-6.0581
-6.14005
-6.21246
-6.26693
-6.33197
-6.37268
-6.42514
-6.41316
-4.4009
-5.38499
-5.66896
-5.60182
-5.57509
-5.62072
-5.68925
-5.78211
-5.89396
-5.9952
-6.0776
-6.14181
-6.20471
-6.26807
-6.32091
-6.38442
-6.45377
-6.5281
-4.91597
-4.95233
-5.14536
-5.25607
-5.36398
-5.49226
-5.62057
-5.75242
-5.88254
-5.99027
-6.07197
-6.13783
-6.20051
-6.26075
-6.3134
-6.37634
-6.4474
-6.51452
-4.84695
-4.82204
-5.13387
-5.34208
-5.46006
-5.57085
-5.68306
-5.79502
-5.90344
-5.99642
-6.07154
-6.1353
-6.19624
-6.25597
-6.3124
-6.37391
-6.43921
-6.49608
-4.86557
-4.9269
-5.21355
-5.39391
-5.48656
-5.58083
-5.68527
-5.79072
-5.89263
-5.98308
-6.05992
-6.12661
-6.18903
-6.24973
-6.30774
-6.36628
-6.42478
-6.47719
-4.95059
-5.03001
-5.24467
-5.39912
-5.49249
-5.58762
-5.69144
-5.79428
-5.89179
-5.97951
-6.05602
-6.12324
-6.18547
-6.24522
-6.30223
-6.3577
-6.41165
-6.4616
-5.03779
-5.10263
-5.26547
-5.40793
-5.50661
-5.60103
-5.70076
-5.79889
-5.89137
-5.97561
-6.05063
-6.11754
-6.17933
-6.23807
-6.29396
-6.34745
-6.39873
-6.4465
-5.10473
-5.15759
-5.29185
-5.4231
-5.52102
-5.61221
-5.70724
-5.80108
-5.88965
-5.97108
-6.04466
-6.11112
-6.17255
-6.23061
-6.28566
-6.33792
-6.38749
-6.43369
-5.16026
-5.2057
-5.31926
-5.43851
-5.53362
-5.62176
-5.71271
-5.80279
-5.88804
-5.96697
-6.03909
-6.10493
-6.16593
-6.22335
-6.27761
-6.32884
-6.37711
-6.42194
-5.21719
-5.25636
-5.3507
-5.45681
-5.54785
-5.63267
-5.7192
-5.8051
-5.88682
-5.96299
-6.03334
-6.09818
-6.15845
-6.21503
-6.26832
-6.31838
-6.36528
-6.40875
-5.27492
-5.30787
-5.38544
-5.4785
-5.56426
-5.64518
-5.72694
-5.80828
-5.88622
-5.95941
-6.02763
-6.09106
-6.15021
-6.20569
-6.25775
-6.30654
-6.35206
-6.3942
-5.33194
-5.35935
-5.42291
-5.50353
-5.58281
-5.65917
-5.73594
-5.81244
-5.88637
-5.95635
-6.0221
-6.08366
-6.14132
-6.19538
-6.24609
-6.29347
-6.33765
-6.37848
-5.38713
-5.4097
-5.46187
-5.53109
-5.60313
-5.67437
-5.74595
-5.81753
-5.88721
-5.95376
-6.01674
-6.07609
-6.13192
-6.18434
-6.23351
-6.27945
-6.32229
-6.36192
-5.43878
-5.45745
-5.50055
-5.5598
-5.62446
-5.69013
-5.75658
-5.82317
-5.88855
-5.95152
-6.01153
-6.06845
-6.12218
-6.17282
-6.22032
-6.26483
-6.30628
-6.3448
-5.485
-5.5006
-5.53668
-5.58768
-5.64535
-5.7055
-5.76692
-5.8288
-5.88998
-5.94937
-6.0064
-6.06076
-6.11235
-6.16107
-6.20693
-6.24993
-6.29014
-6.32751
-5.5231
-5.53641
-5.56737
-5.61191
-5.6637
-5.71883
-5.77576
-5.83346
-5.89085
-5.94695
-6.00115
-6.05308
-6.10255
-6.14943
-6.19368
-6.23528
-6.2743
-6.3107
-5.54926
-5.56106
-5.58862
-5.62882
-5.67636
-5.72772
-5.78123
-5.83571
-5.89013
-5.94356
-5.99541
-6.04525
-6.09289
-6.13816
-6.18101
-6.22141
-6.25941
-6.29503
-5.55712
-5.56839
-5.59464
-5.63321
-5.67903
-5.72885
-5.78076
-5.83375
-5.88661
-5.93862
-5.98905
-6.03764
-6.08408
-6.1283
-6.1702
-6.20979
-6.24711
-6.2822
-5.54603
-5.55758
-5.58462
-5.62424
-5.67122
-5.72185
-5.77439
-5.82761
-5.88066
-5.93254
-5.9828
-6.03102
-6.07711
-6.1209
-6.16242
-6.20164
-6.23864
-6.2735
-5.5208
-5.53341
-5.56279
-5.60579
-5.65618
-5.70964
-5.76427
-5.81925
-5.87357
-5.92642
-5.97725
-6.02587
-6.07212
-6.116
-6.15749
-6.19665
-6.23357
-6.26835
-5.48538
-5.49925
-5.5324
-5.581
-5.63677
-5.69431
-5.75222
-5.80994
-5.86645
-5.92084
-5.97274
-6.02211
-6.06888
-6.11309
-6.15477
-6.19405
-6.23102
-6.26584
-5.44201
-5.4572
-5.49552
-5.55253
-5.61541
-5.67765
-5.73936
-5.80057
-5.85985
-5.91617
-5.96944
-6.01976
-6.06724
-6.11186
-6.15383
-6.19324
-6.2303
-6.26514
-5.39363
-5.40861
-5.4533
-5.52198
-5.59376
-5.66125
-5.72724
-5.79219
-5.85423
-5.91249
-5.96718
-6.01861
-6.06682
-6.11199
-6.15427
-6.19392
-6.23112
-6.26609
-5.34107
-5.35496
-5.40868
-5.49085
-5.57085
-5.64431
-5.7163
-5.78586
-5.85059
-5.91047
-5.96636
-6.01863
-6.06738
-6.11283
-6.15527
-6.19499
-6.23221
-6.26715
-5.28473
-5.29231
-5.36896
-5.46804
-5.54958
-5.62541
-5.70383
-5.77904
-5.84713
-5.90921
-5.96675
-6.0202
-6.06967
-6.11551
-6.15814
-6.19794
-6.23521
-6.27028
-5.2288
-5.19547
-5.32157
-5.45877
-5.54384
-5.61746
-5.69681
-5.7732
-5.8418
-5.90438
-5.9626
-6.01666
-6.06661
-6.11281
-6.15575
-6.19581
-6.2333
-6.26852
-5.2226
-5.06885
-5.21393
-5.40109
-5.52197
-5.61857
-5.70975
-5.79031
-5.85975
-5.92213
-5.97952
-6.03232
-6.08076
-6.12539
-6.16683
-6.20551
-6.24188
-6.27658
-5.31624
-5.14252
-5.16271
-5.25454
-5.36577
-5.49194
-5.61201
-5.7136
-5.7997
-5.87583
-5.94423
-6.0055
-6.06041
-6.10999
-6.15517
-6.19664
-6.23516
-6.27165
-5.01568
-5.6669
-5.8185
-5.72923
-5.6854
-5.72162
-5.78133
-5.83777
-5.89134
-5.94476
-5.99696
-6.04631
-6.09231
-6.13513
-6.17505
-6.21216
-6.24692
-6.28076
-2.15463
-3.80654
-4.81729
-5.14946
-5.32639
-5.49941
-5.64446
-5.75258
-5.83832
-5.9126
-5.97853
-6.03689
-6.08882
-6.13553
-6.17788
-6.21616
-6.25046
-6.27939
-7.43931
-7.43942
-7.43944
-7.43934
-7.43891
-7.4377
-7.43551
-7.43285
-7.43044
-7.42896
-7.4289
-7.43012
-7.43205
-7.43405
-7.43565
-7.43663
-7.43707
-7.43712
-7.43695
-7.43669
-7.43642
-7.43617
-7.43591
-7.43557
-7.43513
-7.43456
-7.43387
-7.43316
-7.43274
-7.43297
-7.43398
-7.43548
-7.43721
-7.43918
-7.44189
-7.44521
-7.44795
-7.44929
-7.45095
-7.45645
-7.46939
-7.48979
-7.51816
-7.55674
-7.60545
-7.66243
-7.72618
-7.79467
-7.86618
-7.93823
-8.00829
-8.07465
-8.13661
-8.19346
-8.24448
-8.28958
-8.32927
-8.36374
-8.39304
-8.41751
-8.43751
-8.45332
-8.46521
-8.47342
-8.47815
-8.47957
-8.4778
-8.47296
-8.46509
-8.45428
-8.44052
-8.42387
-8.40426
-8.38171
-8.35613
-8.32751
-8.29572
-8.26072
-8.22237
-8.18063
-8.13532
-8.08643
-8.03375
-7.97727
-7.91678
-7.85221
-7.78338
-7.71024
-7.63271
-7.55082
-7.46451
-7.37372
-7.27833
-7.17829
-7.07343
-6.96347
-6.84834
-6.72817
-6.603
-6.47282
-6.33767
-6.19751
-6.05237
-5.90223
-5.74712
-5.58703
-5.42198
-5.25197
-5.07704
-4.89718
-4.71243
-4.52281
-4.32833
-4.12904
-3.92498
-3.71617
-3.50268
-3.28457
-3.06189
-2.83473
-2.60316
-2.36729
-2.12721
-1.88307
-1.63496
-1.38307
-1.12752
-0.868496
-0.606148
-0.340677
-0.0722881
0.198748
0.472191
0.747806
1.02539
1.30468
1.58541
1.86724
2.14988
2.43303
2.71641
2.99973
3.28269
3.56497
3.84623
4.12617
4.40444
4.68076
4.95486
5.22645
5.49527
5.76106
6.02355
6.28252
6.53775
6.78905
7.03623
7.27912
7.51759
7.7515
7.98073
8.2052
8.42482
8.63951
8.84923
9.05392
9.25355
9.44805
9.63756
9.8222
10.0018
10.1762
10.3454
10.5096
10.6689
10.8236
10.9748
11.1229
11.2758
11.4241
-7.44042
-7.44057
-7.44084
-7.44101
-7.44077
-7.43982
-7.438
-7.43591
-7.43445
-7.43417
-7.43509
-7.43687
-7.439
-7.44093
-7.44228
-7.44285
-7.44256
-7.44154
-7.4401
-7.43857
-7.43722
-7.43613
-7.43527
-7.43454
-7.43384
-7.43321
-7.43278
-7.43263
-7.433
-7.43419
-7.43591
-7.43724
-7.43722
-7.43555
-7.4342
-7.43599
-7.44144
-7.44711
-7.45304
-7.46177
-7.47465
-7.49478
-7.52656
-7.57043
-7.62503
-7.68876
-7.75913
-7.83301
-7.90713
-7.97879
-8.04669
-8.11013
-8.16806
-8.22021
-8.26724
-8.3092
-8.34557
-8.37653
-8.40273
-8.42455
-8.44229
-8.45621
-8.46654
-8.47347
-8.47717
-8.47776
-8.47534
-8.46999
-8.46175
-8.45068
-8.43675
-8.42
-8.40038
-8.37788
-8.35241
-8.32394
-8.29236
-8.25761
-8.21956
-8.17816
-8.13324
-8.08476
-8.03255
-7.97655
-7.9166
-7.8526
-7.7844
-7.7119
-7.63504
-7.55377
-7.46806
-7.37776
-7.2827
-7.18271
-7.07774
-6.96793
-6.8533
-6.73377
-6.60927
-6.4798
-6.34534
-6.20591
-6.06149
-5.91209
-5.75771
-5.59838
-5.43408
-5.26485
-5.09069
-4.91163
-4.72767
-4.53885
-4.34519
-4.14673
-3.94349
-3.73553
-3.52288
-3.30561
-3.08378
-2.85746
-2.62674
-2.39172
-2.15249
-1.90917
-1.66189
-1.41081
-1.15606
-0.897817
-0.636241
-0.371518
-0.103863
0.166473
0.439245
0.714224
0.991198
1.26992
1.55011
1.83146
2.11365
2.3964
2.67942
2.96245
3.24515
3.52723
3.80834
4.08818
4.36641
4.64276
4.91693
5.18867
5.45769
5.72372
5.98651
6.24584
6.50148
6.75322
7.00089
7.24432
7.48336
7.71787
7.94774
8.17288
8.3932
8.60862
8.81912
9.02469
9.22524
9.42071
9.61094
9.79574
9.97525
10.1497
10.319
10.4833
10.643
10.7983
10.9504
11.0995
11.2545
11.4004
-7.44173
-7.44168
-7.44163
-7.44161
-7.44163
-7.44175
-7.44226
-7.44346
-7.44551
-7.44827
-7.45135
-7.45432
-7.45678
-7.45837
-7.45887
-7.45819
-7.45639
-7.45353
-7.44984
-7.4456
-7.44114
-7.43679
-7.43289
-7.42966
-7.42726
-7.42578
-7.42548
-7.4264
-7.42815
-7.43009
-7.43116
-7.43168
-7.43279
-7.43382
-7.43521
-7.44036
-7.45077
-7.46603
-7.48673
-7.51335
-7.54602
-7.5854
-7.63183
-7.68422
-7.74104
-7.80105
-7.86278
-7.92484
-7.98574
-8.04425
-8.09966
-8.15153
-8.19939
-8.24304
-8.2826
-8.31811
-8.3495
-8.37677
-8.40012
-8.4197
-8.4357
-8.44827
-8.45756
-8.46371
-8.46681
-8.46697
-8.46425
-8.45871
-8.45038
-8.43929
-8.42543
-8.4088
-8.38936
-8.36708
-8.3419
-8.31376
-8.28256
-8.24823
-8.21066
-8.16976
-8.12541
-8.0775
-8.02592
-7.97057
-7.91132
-7.84804
-7.78061
-7.7089
-7.63284
-7.55241
-7.46753
-7.37809
-7.28395
-7.18496
-7.08105
-6.97223
-6.85854
-6.73993
-6.61638
-6.48788
-6.3544
-6.21595
-6.07253
-5.92415
-5.77081
-5.61252
-5.44929
-5.28114
-5.10808
-4.93013
-4.74731
-4.55964
-4.36715
-4.16987
-3.96783
-3.76107
-3.54965
-3.3336
-3.11301
-2.88793
-2.65846
-2.42468
-2.1867
-1.94462
-1.69858
-1.44871
-1.19517
-0.938114
-0.677712
-0.414141
-0.147618
0.12162
0.393329
0.667287
0.943275
1.22105
1.50034
1.78083
2.06223
2.34423
2.62657
2.90897
3.19112
3.47269
3.75336
4.03283
4.31076
4.58687
4.86088
5.13251
5.40149
5.66755
5.93043
6.18989
6.44572
6.69771
6.94567
7.18942
7.42882
7.66373
7.89402
8.1196
8.34037
8.55626
8.76716
8.973
9.17377
9.36946
9.56004
9.7455
9.9259
10.1012
10.2715
10.4369
10.5977
10.7542
10.9079
11.0581
11.2149
11.3538
-7.44314
-7.44278
-7.44238
-7.44266
-7.44455
-7.44821
-7.45306
-7.4584
-7.46368
-7.46849
-7.47254
-7.47559
-7.47745
-7.47798
-7.47714
-7.47492
-7.47129
-7.46633
-7.46021
-7.45319
-7.4456
-7.4378
-7.4303
-7.42374
-7.41885
-7.41612
-7.41597
-7.41809
-7.42085
-7.42295
-7.42473
-7.42764
-7.43307
-7.44183
-7.45518
-7.47391
-7.49791
-7.52689
-7.56059
-7.59837
-7.63964
-7.68397
-7.73091
-7.77994
-7.83058
-7.88237
-7.93472
-7.98694
-8.03825
-8.08793
-8.13537
-8.18011
-8.22175
-8.26005
-8.29491
-8.32627
-8.35413
-8.37849
-8.39943
-8.41706
-8.43146
-8.44275
-8.45102
-8.45636
-8.45885
-8.45855
-8.45551
-8.44976
-8.44134
-8.43023
-8.41645
-8.39996
-8.38074
-8.35873
-8.33388
-8.30611
-8.27535
-8.2415
-8.20445
-8.16411
-8.12037
-8.0731
-8.0222
-7.96755
-7.90902
-7.8465
-7.77984
-7.70892
-7.63367
-7.55401
-7.46992
-7.38125
-7.28787
-7.18968
-7.08663
-6.97871
-6.86592
-6.74822
-6.62558
-6.498
-6.36545
-6.22795
-6.08549
-5.93808
-5.78572
-5.62844
-5.46623
-5.29912
-5.12712
-4.95024
-4.76851
-4.58196
-4.39059
-4.19445
-3.99357
-3.78798
-3.57774
-3.36289
-3.14349
-2.91962
-2.69135
-2.45877
-2.22198
-1.9811
-1.73625
-1.48756
-1.23518
-0.979268
-0.719992
-0.45753
-0.192097
0.0760806
0.346764
0.61974
0.894783
1.17165
1.45006
1.72972
2.01033
2.29161
2.5733
2.85509
3.13667
3.41774
3.69797
3.97705
4.25467
4.53053
4.80435
5.07586
5.34477
5.61082
5.87374
6.13331
6.38929
6.64148
6.88968
7.13371
7.37342
7.60866
7.8393
8.06524
8.28639
8.50265
8.71396
8.92025
9.12149
9.31766
9.50879
9.69493
9.87609
10.0522
10.2233
10.3895
10.5511
10.7084
10.8628
11.0128
11.1689
11.2983
-7.44617
-7.44539
-7.44526
-7.44803
-7.45401
-7.46158
-7.46932
-7.47655
-7.48283
-7.48786
-7.49151
-7.49375
-7.49457
-7.49394
-7.49187
-7.48831
-7.48324
-7.47675
-7.46895
-7.46004
-7.45028
-7.4401
-7.43021
-7.42168
-7.41586
-7.41351
-7.41385
-7.41479
-7.41623
-7.41969
-7.4265
-7.4376
-7.45386
-7.47565
-7.50246
-7.53309
-7.56666
-7.60269
-7.64074
-7.68048
-7.7218
-7.76468
-7.80898
-7.85444
-7.90073
-7.94743
-7.99407
-8.04015
-8.08514
-8.12854
-8.16995
-8.209
-8.24543
-8.27906
-8.30977
-8.33748
-8.36215
-8.38379
-8.40242
-8.4181
-8.43089
-8.44083
-8.44801
-8.45247
-8.45425
-8.45341
-8.44997
-8.44395
-8.43535
-8.42417
-8.41039
-8.39399
-8.37493
-8.35315
-8.32858
-8.30116
-8.27079
-8.23737
-8.20081
-8.161
-8.11782
-8.07114
-8.02086
-7.96685
-7.90899
-7.84714
-7.78118
-7.71096
-7.6364
-7.55747
-7.47407
-7.38611
-7.29343
-7.19595
-7.09363
-6.98645
-6.87439
-6.75741
-6.63551
-6.50866
-6.37687
-6.24012
-6.09844
-5.9518
-5.80025
-5.64378
-5.48241
-5.31615
-5.14502
-4.96903
-4.78821
-4.60258
-4.41216
-4.21697
-4.01706
-3.81246
-3.6032
-3.38935
-3.17096
-2.9481
-2.72083
-2.48926
-2.25348
-2.0136
-1.76973
-1.52203
-1.27061
-1.01565
-0.757303
-0.495766
-0.231232
0.0360635
0.305906
0.578072
0.852344
1.12846
1.40615
1.68513
1.9651
2.2458
2.52694
2.80823
3.08936
3.37001
3.64988
3.92865
4.20601
4.48167
4.75535
5.02676
5.29562
5.56167
5.82464
6.0843
6.34042
6.59277
6.84117
7.08544
7.32541
7.56096
7.79193
8.01822
8.23974
8.45639
8.66811
8.87483
9.07653
9.27317
9.46477
9.65136
9.83293
10.0094
10.1809
10.3475
10.5095
10.667
10.8212
10.97
11.1239
11.2433
-7.45113
-7.45035
-7.4521
-7.45876
-7.46778
-7.47679
-7.48502
-7.49207
-7.49773
-7.502
-7.50492
-7.50646
-7.5066
-7.50528
-7.50249
-7.49819
-7.49239
-7.48512
-7.47647
-7.46663
-7.45597
-7.44506
-7.43495
-7.42736
-7.42307
-7.42079
-7.41969
-7.42068
-7.42535
-7.43528
-7.45135
-7.47321
-7.49982
-7.53015
-7.56328
-7.5985
-7.63533
-7.67342
-7.71258
-7.75265
-7.79355
-7.83517
-7.87734
-7.91984
-7.96241
-8.00478
-8.04661
-8.08758
-8.12736
-8.16562
-8.20207
-8.23647
-8.26861
-8.29833
-8.32552
-8.3501
-8.37202
-8.39126
-8.40783
-8.42174
-8.43302
-8.4417
-8.44782
-8.45142
-8.4525
-8.45111
-8.44725
-8.44092
-8.43213
-8.42085
-8.40706
-8.39074
-8.37181
-8.35024
-8.32594
-8.29884
-8.26885
-8.23585
-8.19976
-8.16044
-8.11779
-8.07167
-8.02196
-7.96854
-7.91128
-7.85004
-7.78469
-7.71508
-7.64115
-7.56278
-7.47999
-7.39259
-7.30047
-7.20356
-7.10179
-6.99517
-6.88364
-6.76721
-6.64584
-6.51954
-6.38829
-6.2521
-6.11098
-5.96493
-5.81398
-5.65812
-5.49739
-5.33178
-5.16132
-4.98603
-4.80593
-4.62102
-4.43135
-4.23693
-4.03779
-3.83397
-3.62551
-3.41246
-3.19488
-2.97282
-2.74637
-2.51561
-2.28063
-2.04155
-1.79847
-1.55155
-1.3009
-1.04669
-0.789084
-0.528275
-0.264458
0.00214364
0.271322
0.542857
0.816521
1.09205
1.36917
1.6476
1.92708
2.20732
2.48804
2.76894
3.0497
3.33003
3.6096
3.88812
4.16527
4.44076
4.71432
4.98563
5.25445
5.52048
5.78347
6.04317
6.29937
6.55184
6.80039
7.04483
7.285
7.52076
7.75197
7.97852
8.2003
8.41723
8.62923
8.83625
9.03825
9.2352
9.42709
9.61394
9.79573
9.97245
10.1441
10.3108
10.4728
10.6301
10.7836
10.9305
11.082
11.1919
-7.45617
-7.45655
-7.46156
-7.47062
-7.48001
-7.48845
-7.49577
-7.50196
-7.50701
-7.51086
-7.51344
-7.51466
-7.51448
-7.51285
-7.50974
-7.50514
-7.49908
-7.49166
-7.483
-7.47338
-7.46337
-7.45393
-7.44624
-7.4407
-7.43681
-7.43456
-7.43533
-7.44096
-7.45289
-7.47117
-7.49478
-7.52254
-7.5535
-7.58692
-7.62213
-7.65872
-7.69641
-7.73494
-7.77412
-7.81376
-7.85369
-7.89376
-7.93381
-7.97368
-8.01319
-8.05214
-8.0903
-8.12744
-8.16333
-8.19774
-8.23047
-8.26131
-8.29012
-8.31676
-8.34113
-8.36316
-8.38281
-8.40003
-8.41483
-8.4272
-8.43715
-8.4447
-8.44987
-8.45267
-8.45311
-8.4512
-8.44694
-8.44033
-8.43135
-8.41998
-8.40619
-8.38992
-8.37114
-8.34977
-8.32574
-8.29896
-8.26933
-8.23675
-8.2011
-8.16226
-8.12011
-8.07452
-8.02535
-7.97247
-7.91575
-7.85504
-7.79022
-7.72114
-7.64768
-7.56984
-7.48749
-7.40052
-7.30882
-7.2123
-7.11093
-7.00468
-6.89352
-6.77744
-6.65642
-6.53047
-6.39956
-6.26375
-6.12299
-5.97734
-5.82678
-5.67136
-5.51106
-5.34593
-5.17596
-5.00119
-4.82161
-4.63727
-4.44816
-4.25433
-4.05579
-3.85259
-3.64475
-3.43233
-3.21538
-2.99395
-2.76814
-2.538
-2.30366
-2.0652
-1.82275
-1.57642
-1.32637
-1.07274
-0.815715
-0.555466
-0.292208
-0.0261361
0.242531
0.513589
0.78678
1.06186
1.33854
1.61656
1.89565
2.17554
2.45594
2.73654
3.01702
3.29709
3.57644
3.85475
4.13173
4.40709
4.68053
4.95176
5.2205
5.48649
5.74947
6.00919
6.26542
6.51795
6.76658
7.01112
7.2514
7.48728
7.71862
7.9453
8.16723
8.38431
8.59648
8.80366
9.00582
9.20292
9.39497
9.58194
9.76383
9.94061
10.1123
10.279
10.4407
10.5974
10.7499
10.8949
11.044
11.145
-7.45894
-7.46128
-7.46896
-7.47809
-7.4864
-7.49385
-7.5005
-7.5063
-7.51111
-7.51481
-7.51728
-7.51843
-7.5182
-7.51657
-7.51353
-7.5091
-7.50335
-7.4964
-7.48853
-7.4802
-7.47219
-7.46518
-7.45945
-7.45517
-7.45304
-7.45427
-7.46057
-7.47293
-7.491
-7.51383
-7.54056
-7.57043
-7.60278
-7.63708
-7.67285
-7.70972
-7.74739
-7.78563
-7.82421
-7.86295
-7.90169
-7.9403
-7.97861
-8.01648
-8.05375
-8.09023
-8.12576
-8.16016
-8.19326
-8.22487
-8.25485
-8.28304
-8.30933
-8.3336
-8.35578
-8.3758
-8.39362
-8.40921
-8.42256
-8.43366
-8.4425
-8.4491
-8.45346
-8.45558
-8.45546
-8.45312
-8.44852
-8.44168
-8.43255
-8.42112
-8.40734
-8.39116
-8.37253
-8.35138
-8.32762
-8.30116
-8.2719
-8.23972
-8.20451
-8.16614
-8.12446
-8.07936
-8.03068
-7.9783
-7.92206
-7.86183
-7.79745
-7.7288
-7.65576
-7.57825
-7.49625
-7.4096
-7.31817
-7.2219
-7.12075
-7.0147
-6.90374
-6.78783
-6.66698
-6.54119
-6.41047
-6.27482
-6.13427
-5.98882
-5.8385
-5.68332
-5.52331
-5.35848
-5.18884
-5.01441
-4.83521
-4.65126
-4.46258
-4.26918
-4.07109
-3.86834
-3.66097
-3.44903
-3.23256
-3.01162
-2.78628
-2.55664
-2.32277
-2.08478
-1.8428
-1.59693
-1.34733
-1.09414
-0.837554
-0.577736
-0.314897
-0.0492242
0.21907
0.489765
0.762604
1.03734
1.31369
1.5914
1.87021
2.14984
2.42999
2.71035
2.99062
3.2705
3.54966
3.82781
4.10465
4.37988
4.65321
4.92436
5.19304
5.45899
5.72194
5.98165
6.23788
6.49042
6.73907
6.98363
7.22396
7.45988
7.69127
7.91802
8.14001
8.35716
8.56939
8.77665
8.97888
9.17605
9.36814
9.55514
9.73702
9.91375
10.0853
10.2518
10.4131
10.5691
10.7204
10.8633
11.0102
11.1033
-7.45757
-7.46187
-7.47014
-7.47824
-7.4857
-7.49267
-7.49909
-7.50484
-7.50972
-7.51357
-7.51623
-7.5176
-7.51763
-7.51629
-7.51358
-7.50957
-7.50442
-7.49838
-7.49192
-7.48555
-7.47967
-7.47459
-7.47088
-7.46935
-7.47124
-7.47778
-7.48949
-7.50606
-7.52697
-7.55168
-7.5796
-7.61019
-7.64293
-7.67735
-7.71306
-7.7497
-7.787
-7.82472
-7.86264
-7.90059
-7.93841
-7.97593
-8.01299
-8.04944
-8.08512
-8.11989
-8.1536
-8.18609
-8.21723
-8.24687
-8.27488
-8.30116
-8.32561
-8.34814
-8.36869
-8.3872
-8.40365
-8.418
-8.43023
-8.44034
-8.44832
-8.45417
-8.45789
-8.45948
-8.45893
-8.45625
-8.45141
-8.4444
-8.43519
-8.42374
-8.41001
-8.39395
-8.3755
-8.35458
-8.33111
-8.30498
-8.27609
-8.24432
-8.20953
-8.1716
-8.13039
-8.08575
-8.03754
-7.9856
-7.92979
-7.86997
-7.80597
-7.73766
-7.66489
-7.58768
-7.50588
-7.4194
-7.32811
-7.23194
-7.13086
-7.02485
-6.91391
-6.79801
-6.67717
-6.55137
-6.42066
-6.28502
-6.14451
-5.9991
-5.84887
-5.69378
-5.53391
-5.36922
-5.19977
-5.02555
-4.8466
-4.6629
-4.4745
-4.2814
-4.08362
-3.88121
-3.67418
-3.46258
-3.24645
-3.02588
-2.80089
-2.57161
-2.33808
-2.10045
-1.85881
-1.61328
-1.364
-1.11114
-0.854866
-0.595369
-0.332825
-0.0674388
0.200595
0.471023
0.74361
1.01809
1.29421
1.5717
1.8503
2.12974
2.4097
2.68988
2.96998
3.24969
3.5287
3.80672
4.08344
4.35857
4.63181
4.90288
5.17149
5.43737
5.70027
5.95993
6.21612
6.46862
6.71724
6.96178
7.20207
7.43798
7.66935
7.89608
8.11806
8.3352
8.54742
8.75468
8.9569
9.15406
9.34611
9.53305
9.71484
9.89143
10.0628
10.2289
10.3897
10.5449
10.6949
10.8356
10.9805
11.0667
-7.44952
-7.45493
-7.4626
-7.47013
-7.47746
-7.4845
-7.49113
-7.49717
-7.50242
-7.50666
-7.50972
-7.51152
-7.51198
-7.51107
-7.50882
-7.50545
-7.50126
-7.4966
-7.49174
-7.48703
-7.48294
-7.48009
-7.47928
-7.4816
-7.48788
-7.49833
-7.51293
-7.53158
-7.55394
-7.5796
-7.6081
-7.63897
-7.67178
-7.70612
-7.74163
-7.77801
-7.81499
-7.85232
-7.88982
-7.92728
-7.96452
-8.00136
-8.03763
-8.07318
-8.10788
-8.14157
-8.17411
-8.20537
-8.23523
-8.26357
-8.29029
-8.31529
-8.33849
-8.35984
-8.37927
-8.39673
-8.41222
-8.42568
-8.43713
-8.44654
-8.45391
-8.45923
-8.4625
-8.46372
-8.46288
-8.45996
-8.45496
-8.44786
-8.43862
-8.42721
-8.41359
-8.3977
-8.37946
-8.35881
-8.33565
-8.30987
-8.28136
-8.25
-8.21565
-8.17816
-8.1374
-8.0932
-8.04541
-7.99388
-7.93845
-7.87896
-7.81526
-7.74718
-7.67465
-7.59754
-7.51586
-7.42943
-7.33814
-7.24193
-7.14078
-7.03467
-6.9236
-6.80756
-6.68656
-6.56062
-6.42975
-6.29399
-6.15336
-6.00787
-5.85757
-5.70246
-5.54257
-5.37792
-5.20853
-5.03441
-4.85556
-4.67202
-4.48378
-4.29086
-4.0933
-3.8911
-3.6843
-3.47294
-3.25706
-3.03673
-2.812
-2.58296
-2.34969
-2.1123
-1.87089
-1.6256
-1.37655
-1.12393
-0.867879
-0.608603
-0.346266
-0.0810673
0.186778
0.457021
0.729421
1.00372
1.27967
1.55699
1.83545
2.11474
2.39456
2.67459
2.95455
3.23413
3.51303
3.79094
4.06755
4.34258
4.61573
4.88671
5.15523
5.42103
5.68384
5.94343
6.19954
6.45196
6.7005
6.94496
7.18518
7.42101
7.6523
7.87896
8.10086
8.31792
8.53007
8.73724
8.93939
9.13646
9.32841
9.51521
9.69683
9.87319
10.0443
10.2099
10.3701
10.5243
10.673
10.8117
10.9547
11.035
-7.43228
-7.43781
-7.44528
-7.45334
-7.46128
-7.46883
-7.47595
-7.48253
-7.48832
-7.49309
-7.49669
-7.49899
-7.49993
-7.49959
-7.4981
-7.49567
-7.49254
-7.48902
-7.48549
-7.48239
-7.48031
-7.48004
-7.48239
-7.4879
-7.49687
-7.5095
-7.52587
-7.54589
-7.56926
-7.59562
-7.62455
-7.65567
-7.68858
-7.72294
-7.75843
-7.79475
-7.83165
-7.8689
-7.90628
-7.94358
-7.9806
-8.01715
-8.05308
-8.08823
-8.12245
-8.15559
-8.18753
-8.21813
-8.2473
-8.27491
-8.30088
-8.32514
-8.34762
-8.36826
-8.38702
-8.40386
-8.41876
-8.43168
-8.44263
-8.45159
-8.45857
-8.46356
-8.46656
-8.46757
-8.46657
-8.46356
-8.45852
-8.45142
-8.44224
-8.43095
-8.41749
-8.40181
-8.38383
-8.36348
-8.34065
-8.31524
-8.28713
-8.25619
-8.22226
-8.18521
-8.14487
-8.10108
-8.05369
-8.00251
-7.9474
-7.88818
-7.82469
-7.75679
-7.68431
-7.60729
-7.52557
-7.43908
-7.34767
-7.2513
-7.14993
-7.04359
-6.93224
-6.81593
-6.69464
-6.56843
-6.43728
-6.30127
-6.16039
-6.0147
-5.86421
-5.70897
-5.54897
-5.38425
-5.21481
-5.04069
-4.86187
-4.67837
-4.49021
-4.2974
-4.09994
-3.89787
-3.69122
-3.48001
-3.2643
-3.04413
-2.81957
-2.59069
-2.35761
-2.12038
-1.87915
-1.63401
-1.38514
-1.13267
-0.876797
-0.61767
-0.355483
-0.0904164
0.177282
0.447388
0.719645
0.993816
1.26964
1.54686
1.8252
2.10438
2.38407
2.664
2.94384
3.22331
3.5021
3.77991
4.05642
4.33135
4.60439
4.87527
5.14369
5.40938
5.67208
5.93155
6.18755
6.43985
6.68827
6.93261
7.1727
7.40839
7.63956
7.86608
8.08785
8.30478
8.5168
8.72383
8.92584
9.12275
9.31454
9.50115
9.68252
9.85859
10.0293
10.1944
10.3539
10.5071
10.6544
10.7912
10.9323
11.0078
-7.4045
-7.40978
-7.41822
-7.42778
-7.4368
-7.44509
-7.45284
-7.46005
-7.46648
-7.47194
-7.4762
-7.47914
-7.48076
-7.48114
-7.48043
-7.47883
-7.47663
-7.47419
-7.47194
-7.47043
-7.47038
-7.47238
-7.47686
-7.48426
-7.49498
-7.50922
-7.527
-7.54817
-7.57243
-7.59946
-7.62889
-7.66039
-7.69359
-7.7282
-7.76391
-7.80046
-7.83758
-7.87504
-7.91261
-7.95008
-7.98723
-8.02389
-8.05989
-8.09505
-8.12924
-8.1623
-8.1941
-8.22454
-8.25349
-8.28086
-8.30657
-8.33053
-8.3527
-8.37302
-8.39148
-8.40802
-8.42265
-8.43533
-8.44607
-8.45485
-8.46168
-8.46655
-8.46948
-8.47044
-8.46944
-8.46645
-8.46147
-8.45447
-8.44543
-8.43431
-8.42106
-8.40563
-8.38793
-8.36789
-8.34541
-8.32038
-8.29266
-8.26212
-8.22862
-8.19197
-8.15204
-8.10863
-8.06158
-8.01071
-7.95586
-7.89684
-7.8335
-7.76566
-7.69323
-7.61609
-7.53428
-7.44761
-7.35597
-7.25931
-7.15763
-7.05092
-6.9392
-6.82248
-6.7008
-6.57418
-6.44267
-6.30628
-6.16508
-6.01908
-5.86833
-5.71285
-5.55266
-5.38779
-5.21824
-5.04402
-4.86516
-4.68165
-4.49349
-4.30071
-4.1033
-3.9013
-3.69473
-3.48362
-3.268
-3.04794
-2.8235
-2.59474
-2.36177
-2.12467
-1.88355
-1.63855
-1.3898
-1.13747
-0.881723
-0.622714
-0.360632
-0.0956813
0.1719
0.441886
0.714027
0.988086
1.2638
1.54093
1.81917
2.09823
2.37781
2.65762
2.93736
3.21672
3.49539
3.77308
4.04949
4.3243
4.59722
4.86798
5.13627
5.40183
5.66439
5.92371
6.17956
6.43171
6.67996
6.92413
7.16405
7.39958
7.63057
7.85691
8.07851
8.29526
8.5071
8.71396
8.91578
9.1125
9.30407
9.49043
9.67152
9.84724
10.0175
10.182
10.3407
10.4929
10.639
10.7739
10.9132
10.9847
-7.36647
-7.37218
-7.38259
-7.39429
-7.40463
-7.41367
-7.42206
-7.42997
-7.43721
-7.44345
-7.44849
-7.45221
-7.4546
-7.45573
-7.45575
-7.45491
-7.4535
-7.45197
-7.45085
-7.45069
-7.45198
-7.45528
-7.46112
-7.46998
-7.48217
-7.49781
-7.51683
-7.53903
-7.56416
-7.59189
-7.62192
-7.65394
-7.68762
-7.72269
-7.75885
-7.79586
-7.83346
-7.8714
-7.90944
-7.94737
-7.985
-8.02213
-8.05856
-8.09411
-8.12864
-8.16199
-8.19405
-8.22468
-8.25379
-8.28129
-8.30709
-8.33114
-8.35338
-8.37375
-8.39224
-8.40882
-8.4235
-8.43624
-8.44704
-8.45589
-8.46278
-8.46773
-8.47072
-8.47176
-8.47084
-8.46795
-8.46309
-8.45624
-8.44736
-8.43644
-8.42342
-8.40824
-8.39084
-8.37114
-8.34901
-8.32435
-8.29703
-8.26689
-8.23378
-8.19753
-8.15797
-8.1149
-8.06816
-8.01755
-7.9629
-7.90402
-7.84074
-7.7729
-7.70035
-7.62312
-7.54107
-7.45414
-7.36218
-7.26514
-7.16303
-7.05585
-6.94367
-6.82645
-6.7043
-6.57719
-6.44522
-6.30839
-6.16679
-6.02041
-5.86934
-5.71355
-5.55312
-5.38803
-5.21832
-5.04397
-4.86501
-4.68143
-4.49324
-4.30044
-4.10304
-3.90107
-3.69454
-3.48348
-3.26792
-3.04794
-2.82357
-2.59491
-2.36202
-2.12503
-1.88401
-1.63913
-1.3905
-1.13829
-0.882647
-0.623754
-0.361776
-0.0969501
0.170513
0.440369
0.712395
0.986331
1.26194
1.53896
1.81709
2.09601
2.37546
2.65514
2.93475
3.21397
3.49252
3.77007
4.04634
4.321
4.59378
4.86437
5.1325
5.39789
5.66028
5.91941
6.17506
6.42701
6.67506
6.91902
7.15873
7.39404
7.62482
7.85095
8.07233
8.28887
8.50049
8.70713
8.90873
9.10522
9.29654
9.48263
9.6634
9.83873
10.0085
10.1724
10.3303
10.4815
10.6262
10.7595
10.897
10.9654
-7.32092
-7.32797
-7.34104
-7.35522
-7.36689
-7.37664
-7.38572
-7.3945
-7.40263
-7.40976
-7.41567
-7.4202
-7.4233
-7.42504
-7.42556
-7.42516
-7.42424
-7.42327
-7.4227
-7.4231
-7.4251
-7.42934
-7.43633
-7.44645
-7.45991
-7.47671
-7.49676
-7.51984
-7.54571
-7.57412
-7.60476
-7.63737
-7.67165
-7.70734
-7.74415
-7.78183
-7.82011
-7.85874
-7.89749
-7.93615
-7.97449
-8.01231
-8.04941
-8.08563
-8.12081
-8.15478
-8.18742
-8.21859
-8.2482
-8.27616
-8.30242
-8.3269
-8.34955
-8.37032
-8.38918
-8.40609
-8.42105
-8.43404
-8.44506
-8.45411
-8.46118
-8.46628
-8.46941
-8.47059
-8.4698
-8.46706
-8.46235
-8.45567
-8.44699
-8.43628
-8.4235
-8.4086
-8.39151
-8.37212
-8.35035
-8.32607
-8.29913
-8.26938
-8.23666
-8.20079
-8.16157
-8.11882
-8.07235
-8.02195
-7.96745
-7.90865
-7.84538
-7.77746
-7.70481
-7.62731
-7.54501
-7.45774
-7.36537
-7.26787
-7.16525
-7.05755
-6.9448
-6.82705
-6.70432
-6.57669
-6.44419
-6.30687
-6.1648
-6.01801
-5.86655
-5.71044
-5.54972
-5.38439
-5.21447
-5.03996
-4.86087
-4.67721
-4.48896
-4.29612
-4.09871
-3.89674
-3.69024
-3.47922
-3.26371
-3.04379
-2.81951
-2.59093
-2.35814
-2.12125
-1.88035
-1.63558
-1.38708
-1.13501
-0.879499
-0.620733
-0.358899
-0.0942228
0.173081
0.442779
0.714649
0.988438
1.26391
1.54078
1.81873
2.09748
2.37676
2.65627
2.9357
3.21476
3.49313
3.7705
4.04658
4.32106
4.59365
4.86404
5.13196
5.39713
5.65929
5.9182
6.17361
6.42531
6.67311
6.91683
7.15628
7.39134
7.62187
7.84775
8.06889
8.28518
8.49657
8.70297
8.90432
9.10056
9.29161
9.47739
9.65781
9.83274
10.002
10.1653
10.3224
10.4726
10.616
10.7476
10.8834
10.9495
-7.27289
-7.28162
-7.2978
-7.31472
-7.32778
-7.33825
-7.34803
-7.35769
-7.36676
-7.37477
-7.38145
-7.38657
-7.39003
-7.39192
-7.39246
-7.39199
-7.39088
-7.38966
-7.38897
-7.38951
-7.39194
-7.39686
-7.4047
-7.41572
-7.43004
-7.44764
-7.46841
-7.49215
-7.51864
-7.54762
-7.57882
-7.612
-7.64689
-7.68322
-7.72071
-7.75912
-7.79818
-7.83766
-7.87729
-7.91685
-7.95611
-7.99485
-8.03288
-8.07003
-8.10613
-8.14101
-8.17453
-8.20657
-8.23703
-8.26579
-8.29278
-8.31793
-8.3412
-8.36252
-8.38188
-8.39923
-8.41458
-8.42791
-8.43923
-8.44853
-8.45584
-8.46114
-8.46446
-8.46581
-8.46519
-8.4626
-8.45806
-8.45156
-8.44306
-8.43257
-8.42003
-8.4054
-8.3886
-8.36955
-8.34813
-8.32422
-8.29766
-8.26831
-8.23597
-8.20046
-8.16157
-8.11912
-8.07288
-8.02267
-7.96828
-7.90952
-7.84622
-7.7782
-7.70531
-7.6276
-7.54493
-7.45726
-7.36443
-7.26642
-7.16324
-7.05496
-6.9416
-6.82326
-6.69993
-6.57173
-6.43867
-6.30085
-6.15829
-6.01108
-5.85922
-5.70279
-5.54177
-5.37621
-5.20607
-5.03141
-4.8522
-4.66846
-4.48015
-4.28728
-4.08986
-3.8879
-3.68144
-3.47046
-3.25502
-3.03517
-2.81099
-2.58251
-2.34985
-2.11308
-1.87233
-1.62771
-1.37939
-1.12748
-0.872152
-0.613561
-0.351929
-0.0874553
0.179623
0.449113
0.720767
0.994365
1.26963
1.54625
1.82396
2.10248
2.38153
2.66081
2.94001
3.21883
3.49696
3.7741
4.04994
4.32418
4.59651
4.86664
5.13429
5.39919
5.66107
5.91969
6.17481
6.42622
6.67373
6.91715
7.15631
7.39108
7.62133
7.84693
8.06779
8.28382
8.49495
8.70109
8.90218
9.09814
9.28891
9.47438
9.65445
9.82895
9.99769
10.1604
10.3167
10.4658
10.608
10.7382
10.8721
10.9367
-7.22899
-7.23945
-7.25892
-7.27867
-7.29309
-7.30425
-7.31476
-7.32527
-7.33514
-7.34373
-7.35067
-7.35572
-7.35878
-7.35997
-7.35953
-7.35791
-7.35568
-7.35355
-7.35227
-7.35256
-7.35505
-7.36024
-7.36845
-7.37986
-7.39455
-7.4125
-7.43359
-7.45763
-7.48441
-7.51372
-7.54532
-7.57896
-7.61435
-7.65126
-7.68941
-7.72857
-7.76849
-7.8089
-7.84954
-7.89017
-7.93054
-7.97043
-8.00962
-8.04792
-8.08516
-8.12116
-8.15577
-8.18883
-8.22025
-8.2499
-8.27771
-8.3036
-8.32754
-8.34945
-8.36935
-8.38718
-8.40296
-8.41666
-8.42831
-8.4379
-8.44546
-8.45098
-8.4545
-8.456
-8.45554
-8.4531
-8.4487
-8.44235
-8.43403
-8.42373
-8.41142
-8.39704
-8.38053
-8.3618
-8.34073
-8.31719
-8.29102
-8.26205
-8.23008
-8.19494
-8.15638
-8.11422
-8.0682
-8.01817
-7.96387
-7.90515
-7.84178
-7.77363
-7.70056
-7.6225
-7.5395
-7.45139
-7.35808
-7.25953
-7.15579
-7.04691
-6.93297
-6.81402
-6.69013
-6.56136
-6.42778
-6.28946
-6.14646
-5.99883
-5.84664
-5.68989
-5.52863
-5.36284
-5.19254
-5.01775
-4.83846
-4.65465
-4.46632
-4.27345
-4.07604
-3.87413
-3.66772
-3.45682
-3.24148
-3.02174
-2.79768
-2.56936
-2.33686
-2.10026
-1.85971