/*--------------------------------*- C++ -*----------------------------------*\
  =========                 |
  \\      /  F ield         | OpenFOAM: The Open Source CFD Toolbox
   \\    /   O peration     | Website:  https://openfoam.org
    \\  /    A nd           | Version:  8
     \\/     M anipulation  |
\*---------------------------------------------------------------------------*/
FoamFile
{
    version     2.0;
    format      ascii;
    class       volScalarField;
    location    "1100";
    object      k;
}
// * * * * * * * * * * * * * * * * * * * * * * * * * * * * * * * * * * * * * //

dimensions      [0 2 -2 0 0 0 0];

internalField   nonuniform List<scalar> 
12225
(
0.450208
2.27042
2.04925
2.1186
1.87814
1.76709
1.70196
1.41407
2.88107
2.2111
1.79578
2.40965
2.72608
2.13235
1.6959
2.40659
2.30559
2.65224
0.368868
0.450633
0.50711
0.587284
0.62342
0.643365
0.656013
0.657439
0.740892
0.75693
0.776455
0.807224
0.841092
0.849944
0.84613
0.893869
0.898881
0.921827
0.372485
0.377411
0.383175
0.388493
0.390873
0.388453
0.385699
0.381856
0.377208
0.373001
0.369842
0.367765
0.365499
0.365264
0.364385
0.365999
0.368317
0.370053
0.373325
0.372399
0.369486
0.369405
0.36758
0.366014
0.363684
0.3597
0.355885
0.350509
0.346051
0.340134
0.334955
0.328707
0.323808
0.318393
0.314436
0.310417
0.37373
0.371567
0.369192
0.367117
0.365476
0.363775
0.361997
0.359404
0.356954
0.353584
0.350567
0.346542
0.342906
0.338375
0.334589
0.330211
0.326914
0.323219
0.373847
0.37157
0.369336
0.367238
0.365464
0.363685
0.362017
0.360018
0.358124
0.355811
0.353596
0.350899
0.348304
0.345285
0.342561
0.339567
0.337135
0.334492
0.373854
0.371601
0.369452
0.367399
0.365547
0.363753
0.362091
0.360347
0.358682
0.356865
0.355078
0.353088
0.351118
0.348967
0.346941
0.344808
0.34297
0.341039
0.373844
0.371603
0.369479
0.367449
0.365567
0.363764
0.362082
0.360417
0.35883
0.357205
0.355611
0.353937
0.35228
0.350545
0.348887
0.347188
0.34567
0.344112
0.37384
0.371588
0.369466
0.367445
0.365549
0.363741
0.362043
0.360405
0.358847
0.357312
0.355821
0.354319
0.352845
0.351351
0.349915
0.348473
0.34715
0.345818
0.373835
0.371579
0.36945
0.367428
0.365519
0.363705
0.361992
0.360358
0.358805
0.357308
0.355871
0.354464
0.353103
0.351761
0.35047
0.3492
0.34801
0.346835
0.373834
0.371569
0.369431
0.367405
0.365486
0.363665
0.36194
0.360301
0.358742
0.357255
0.355836
0.35447
0.353162
0.351896
0.350683
0.34951
0.348396
0.347318
0.37383
0.371562
0.369417
0.367385
0.365459
0.363631
0.361898
0.36025
0.358685
0.357194
0.355775
0.354421
0.353127
0.35189
0.350707
0.349574
0.348494
0.347459
0.373829
0.371558
0.369407
0.36737
0.365438
0.363605
0.361864
0.360211
0.358637
0.357142
0.355718
0.354362
0.353068
0.351835
0.350658
0.349536
0.348463
0.34744
0.373827
0.371554
0.3694
0.367358
0.365422
0.363584
0.361839
0.360179
0.358603
0.357101
0.355672
0.354311
0.353014
0.351778
0.350599
0.349475
0.348401
0.347378
0.373826
0.371551
0.369394
0.36735
0.365411
0.363569
0.36182
0.360157
0.358575
0.357071
0.355638
0.354273
0.352972
0.351732
0.35055
0.349422
0.348346
0.347319
0.373826
0.37155
0.369392
0.367345
0.365403
0.363559
0.361807
0.360141
0.358556
0.357048
0.355612
0.354245
0.352941
0.351699
0.350514
0.349383
0.348304
0.347274
0.373825
0.371549
0.36939
0.367342
0.365399
0.363553
0.361799
0.360131
0.358545
0.357035
0.355597
0.354227
0.352922
0.351677
0.35049
0.349357
0.348277
0.347245
0.373825
0.37155
0.36939
0.367342
0.365397
0.363552
0.361795
0.360128
0.35854
0.35703
0.35559
0.35422
0.352913
0.351668
0.35048
0.349346
0.348265
0.347232
0.373826
0.37155
0.369392
0.367343
0.3654
0.363552
0.361799
0.36013
0.358544
0.357032
0.355594
0.354223
0.352917
0.351671
0.350483
0.349349
0.348268
0.347235
0.373826
0.371551
0.369393
0.367346
0.365403
0.363559
0.361805
0.360139
0.358552
0.357043
0.355605
0.354236
0.35293
0.351685
0.350498
0.349365
0.348284
0.347252
0.373826
0.371553
0.369397
0.367351
0.365411
0.363568
0.361817
0.360152
0.358568
0.35706
0.355624
0.354256
0.352952
0.351708
0.350522
0.34939
0.34831
0.347279
0.373827
0.371555
0.369402
0.36736
0.365422
0.363582
0.361834
0.360172
0.358592
0.357085
0.35565
0.35428
0.352975
0.35173
0.350543
0.34941
0.34833
0.3473
0.373828
0.37156
0.369409
0.367372
0.365439
0.363605
0.361863
0.360205
0.358621
0.357108
0.355659
0.354274
0.35295
0.35169
0.350488
0.349347
0.348256
0.347221
0.373831
0.371567
0.36942
0.367397
0.365474
0.363656
0.361922
0.360255
0.358642
0.357075
0.355556
0.354096
0.352701
0.351381
0.350128
0.348952
0.347827
0.346774
0.373842
0.371572
0.369454
0.367484
0.365595
0.363822
0.362083
0.360365
0.358609
0.356849
0.355103
0.353433
0.351844
0.350381
0.34901
0.347765
0.346569
0.345476
0.373873
0.371611
0.369652
0.367887
0.366125
0.364473
0.362675
0.360769
0.358582
0.356335
0.354036
0.351908
0.34991
0.34816
0.346543
0.345131
0.343772
0.342564
0.374022
0.371995
0.370772
0.369766
0.368439
0.36709
0.365165
0.362805
0.359532
0.356226
0.352706
0.349687
0.346834
0.344525
0.342401
0.340622
0.338998
0.337503
0.37505
0.375054
0.377404
0.379528
0.379966
0.379736
0.378667
0.375601
0.370263
0.365322
0.359761
0.355869
0.352
0.349678
0.347502
0.346035
0.345455
0.34408
0.389369
0.405045
0.434405
0.457647
0.477121
0.491987
0.503085
0.511134
0.517402
0.522756
0.529285
0.53687
0.546842
0.55746
0.570237
0.583042
0.597822
0.610239
0.686207
1.08537
1.34883
1.48947
1.55767
1.57146
1.56462
1.54584
1.51552
1.48222
1.44867
1.41634
1.38621
1.35863
1.33372
1.31137
1.29139
1.27379
1.89591e-08
4.66339e-07
2.37604e-06
9.34649e-06
3.11552e-05
9.47732e-05
0.000245862
0.000486708
0.000786781
0.00110225
0.00138558
0.00160424
0.00175091
0.00180414
0.00178116
0.00170788
0.00157101
0.00134073
0.00114248
0.000971288
0.000808801
0.000650681
0.000498063
0.000356334
0.000230788
0.000134162
7.0712e-05
3.54275e-05
1.80035e-05
9.80956e-06
5.9858e-06
4.61153e-06
5.48913e-06
1.17763e-05
2.68743e-05
0.000163038
0.000368355
0.000791748
0.0011636
0.00122884
0.0011211
0.000892943
0.000743956
0.000739734
0.000816105
0.00112846
0.00156452
0.00328218
0.00758913
0.0229541
0.0552817
0.0857912
0.100382
0.106836
0.125977
0.143384
0.154147
0.127023
0.137205
0.148719
0.162149
0.175986
0.15782
0.174259
0.181912
0.190744
0.199099
0.207519
0.215442
0.223545
0.231256
0.239049
0.246607
0.254162
0.26157
0.268939
0.276201
0.283408
0.290524
0.297579
0.304546
0.311448
0.31826
0.325003
0.331649
0.338219
0.344682
0.351058
0.357321
0.363481
0.369519
0.375429
0.381197
0.386815
0.392269
0.397552
0.402653
0.407574
0.412325
0.416943
0.421497
0.425878
0.43012
0.434216
0.438161
0.441955
0.445593
0.44907
0.452386
0.455535
0.458517
0.461327
0.463964
0.466425
0.46871
0.470815
0.472743
0.474489
0.476057
0.477442
0.478648
0.479672
0.480517
0.481182
0.481667
0.481971
0.482092
0.482053
0.481926
0.481678
0.481022
0.480447
0.479533
0.478631
0.477619
0.476482
0.475133
0.47351
0.471789
0.469895
0.467879
0.465729
0.463458
0.461071
0.458575
0.455983
0.453314
0.450504
0.447664
0.44466
0.441658
0.438475
0.435299
0.432011
0.428683
0.425309
0.421893
0.418451
0.414985
0.411508
0.408029
0.404552
0.401084
0.397625
0.394187
0.390773
0.387396
0.38406
0.380778
0.377552
0.374387
0.371274
0.368211
0.36516
0.36208
0.358879
0.355452
0.351457
0.346295
0.330192
8.22026e-08
2.30786e-06
1.56485e-05
6.8055e-05
0.000250172
0.000757591
0.00174728
0.00316487
0.00481035
0.00650003
0.00804361
0.0093094
0.0102413
0.0108304
0.0111054
0.011065
0.0108814
0.010524
0.00991446
0.00908065
0.00802968
0.00681272
0.00548872
0.00414847
0.00286727
0.00189014
0.00119385
0.000734909
0.000444071
0.000270688
0.000173514
0.000129196
0.000105372
0.000177364
0.000243881
0.00169388
0.0037228
0.00745504
0.0105621
0.0121103
0.0120048
0.0114946
0.0115432
0.0130384
0.0171444
0.0233952
0.0347896
0.0540781
0.0804759
0.105835
0.129847
0.147435
0.160747
0.173258
0.189446
0.204845
0.221571
0.236861
0.256798
0.275812
0.295452
0.314433
0.33368
0.353416
0.37271
0.391701
0.410409
0.428913
0.447145
0.465239
0.483137
0.500924
0.518582
0.53615
0.553627
0.57103
0.58836
0.605625
0.622821
0.639952
0.657011
0.673999
0.690905
0.707729
0.724457
0.741088
0.757603
0.774001
0.790265
0.806389
0.822355
0.838141
0.853727
0.869093
0.884216
0.899068
0.91362
0.927837
0.941682
0.955115
0.968116
0.980896
0.993385
1.00561
1.01755
1.0292
1.04054
1.05156
1.06225
1.0726
1.08261
1.09225
1.10153
1.11043
1.11894
1.12706
1.13478
1.14209
1.14899
1.15548
1.16154
1.16717
1.17237
1.17714
1.18147
1.18537
1.18883
1.19185
1.19444
1.19659
1.1983
1.19961
1.20033
1.20081
1.20102
1.20102
1.20062
1.2001
1.19912
1.19775
1.196
1.19386
1.19136
1.18851
1.18531
1.18178
1.17791
1.17376
1.16923
1.16445
1.1593
1.15391
1.14819
1.14221
1.13599
1.12952
1.12286
1.11599
1.10896
1.10179
1.09449
1.08707
1.07955
1.07195
1.06426
1.05652
1.04873
1.04093
1.03312
1.02533
1.01757
1.00983
1.0021
0.994324
0.986448
0.978353
0.96983
0.960543
0.948605
0.921455
2.21573e-07
6.65852e-06
5.09188e-05
0.000244088
0.000717384
0.00204281
0.00412641
0.00654981
0.00897902
0.0111799
0.0130174
0.0144307
0.0154205
0.0160102
0.0162625
0.016224
0.0160332
0.0156584
0.0151055
0.0144166
0.0135859
0.0126074
0.0114605
0.0101575
0.00869426
0.00704519
0.00535383
0.00385568
0.00256313
0.00169953
0.00116663
0.000881798
0.000658552
0.00102423
0.00177349
0.00708274
0.0151197
0.0235366
0.0295702
0.0329295
0.0342565
0.0371078
0.0454003
0.0615704
0.0793859
0.0982265
0.119388
0.140869
0.160989
0.181945
0.202027
0.222491
0.244648
0.270127
0.297835
0.32606
0.354582
0.383255
0.412188
0.440878
0.469198
0.496809
0.523964
0.550444
0.576359
0.601742
0.62667
0.651222
0.675442
0.699397
0.723122
0.746661
0.770038
0.793278
0.816396
0.839403
0.862306
0.885107
0.907806
0.930402
0.95289
0.975265
0.997518
1.01964
1.04163
1.06346
1.08513
1.10663
1.12794
1.14905
1.16995
1.19062
1.21104
1.2312
1.25107
1.27066
1.28994
1.30892
1.32757
1.34591
1.36392
1.38161
1.39893
1.41587
1.43243
1.44857
1.4643
1.47958
1.4944
1.50876
1.52264
1.53602
1.54889
1.56125
1.57307
1.58436
1.59509
1.60527
1.61489
1.62393
1.6324
1.64028
1.64758
1.65429
1.66041
1.66594
1.67087
1.67521
1.67896
1.68212
1.68469
1.6867
1.6881
1.68892
1.68927
1.68925
1.68859
1.68745
1.68575
1.68352
1.68075
1.67746
1.67366
1.66936
1.66458
1.65933
1.6536
1.64745
1.64082
1.63379
1.6263
1.61843
1.61013
1.60147
1.59246
1.58311
1.57347
1.56355
1.5534
1.54303
1.53249
1.52177
1.51092
1.49993
1.48884
1.47765
1.46641
1.45513
1.44384
1.43257
1.42134
1.41016
1.39901
1.38788
1.37672
1.36545
1.35388
1.34177
1.32724
1.30202
8.09305e-07
2.43034e-05
0.000191149
0.000808433
0.00229241
0.00541475
0.00908914
0.0126651
0.0157698
0.0182242
0.0199934
0.0211147
0.0217028
0.0218062
0.0216709
0.021307
0.0207314
0.020039
0.0192621
0.0184148
0.017499
0.0165101
0.0154306
0.0142398
0.0129182
0.0114456
0.00984564
0.00818378
0.00663145
0.00510511
0.00399962
0.00295492
0.00311175
0.00491812
0.0123614
0.0274635
0.0417809
0.052999
0.0615279
0.0697138
0.0801726
0.0938276
0.109646
0.12532
0.141671
0.159512
0.180087
0.20174
0.225351
0.250978
0.278224
0.307567
0.338833
0.371749
0.405434
0.439324
0.473177
0.506856
0.540213
0.573114
0.605461
0.637144
0.66827
0.698801
0.728812
0.758365
0.787529
0.816363
0.844918
0.873244
0.901377
0.929352
0.957191
0.984912
1.01253
1.04004
1.06746
1.09478
1.12199
1.1491
1.17609
1.20295
1.22968
1.25626
1.28267
1.30891
1.33497
1.36082
1.38645
1.41185
1.43702
1.46192
1.48654
1.51087
1.53489
1.55859
1.58197
1.605
1.62768
1.64998
1.67189
1.69338
1.71443
1.73502
1.75512
1.77472
1.7938
1.81233
1.83031
1.8477
1.86451
1.8807
1.89628
1.91121
1.92549
1.93912
1.95207
1.96433
1.9759
1.98678
1.99695
2.0064
2.01514
2.02316
2.03046
2.03704
2.04289
2.04802
2.05243
2.05612
2.05909
2.06137
2.0629
2.06369
2.06394
2.06357
2.06247
2.06071
2.05829
2.05522
2.05151
2.04716
2.04219
2.03661
2.03045
2.0237
2.01639
2.00853
2.00012
1.9912
1.98175
1.97183
1.9614
1.95053
1.93922
1.92752
1.91544
1.90304
1.89034
1.87738
1.8642
1.8508
1.83724
1.82351
1.80965
1.79569
1.78164
1.76755
1.75345
1.73937
1.72534
1.71138
1.69751
1.6837
1.66996
1.65624
1.64242
1.62833
1.61235
1.58904
2.75795e-06
8.27372e-05
0.000620544
0.00235017
0.00645911
0.0119642
0.017079
0.0211623
0.0240562
0.0258602
0.0267923
0.0270479
0.026896
0.0264489
0.025735
0.0248942
0.0239811
0.023033
0.0220728
0.0211081
0.020135
0.0191432
0.0181141
0.0170241
0.0158471
0.0145527
0.013141
0.0116638
0.0102348
0.00876376
0.00739412
0.00782156
0.0119658
0.0248922
0.0457056
0.0653046
0.0814137
0.0939619
0.104711
0.115504
0.127152
0.139865
0.153633
0.169516
0.188555
0.210412
0.235047
0.26216
0.291489
0.322688
0.355439
0.389573
0.424726
0.460549
0.496666
0.532857
0.568987
0.604965
0.640699
0.676098
0.711118
0.745703
0.779878
0.813649
0.847057
0.880141
0.912947
0.945518
0.977894
1.01011
1.0422
1.07418
1.10607
1.13788
1.16962
1.20129
1.23288
1.26439
1.2958
1.32711
1.35831
1.38938
1.4203
1.45106
1.48165
1.51204
1.54223
1.57219
1.60191
1.63138
1.66058
1.68948
1.71808
1.74634
1.77426
1.80183
1.82901
1.85579
1.88216
1.90808
1.93353
1.95849
1.98292
2.00682
2.03014
2.05288
2.075
2.09648
2.11731
2.13745
2.15691
2.17564
2.19365
2.2109
2.2274
2.24311
2.25804
2.27216
2.28548
2.29797
2.30964
2.32047
2.33046
2.33961
2.34792
2.35538
2.362
2.36777
2.3727
2.37678
2.38003
2.38247
2.38401
2.38469
2.38476
2.38401
2.38245
2.3801
2.37699
2.37312
2.36851
2.36316
2.3571
2.35033
2.34288
2.33475
2.32597
2.31655
2.30651
2.29586
2.28462
2.27282
2.26046
2.24758
2.2342
2.22035
2.20609
2.19143
2.17643
2.16113
2.14555
2.12974
2.11371
2.09751
2.08115
2.06466
2.04807
2.03143
2.01478
1.99815
1.98159
1.96512
1.94876
1.93254
1.91646
1.90053
1.88468
1.86879
1.85152
1.8289
8.78685e-06
0.000256964
0.00182927
0.00647327
0.0144816
0.0214888
0.0264592
0.0295117
0.0311012
0.031689
0.0316111
0.0311632
0.0303234
0.0293001
0.028179
0.0270235
0.0258782
0.0247692
0.0237093
0.0226973
0.0217233
0.0207702
0.0198135
0.0188214
0.017765
0.0165788
0.015204
0.0135952
0.0119338
0.0118686
0.0141699
0.0230538
0.0417832
0.0661831
0.0890935
0.10746
0.12084
0.130741
0.13952
0.148899
0.159765
0.173625
0.190844
0.211325
0.235263
0.262176
0.291545
0.322824
0.355592
0.389567
0.424518
0.460267
0.496624
0.533427
0.570534
0.607843
0.645271
0.682748
0.720201
0.75755
0.794753
0.831768
0.868587
0.905206
0.941639
0.977906
1.01403
1.05004
1.08597
1.12183
1.15764
1.19342
1.22919
1.26493
1.30065
1.33634
1.372
1.40759
1.44312
1.47856
1.51389
1.54909
1.58415
1.61904
1.65375
1.68825
1.72253
1.75656
1.79033
1.82382
1.85701
1.88987
1.92239
1.95454
1.9863
2.01765
2.04857
2.07902
2.10899
2.13845
2.16737
2.19571
2.22346
2.25059
2.27706
2.30286
2.32795
2.35231
2.37592
2.39875
2.42078
2.44199
2.46236
2.48187
2.50051
2.51826
2.5351
2.55102
2.56601
2.58006
2.59316
2.60531
2.61649
2.62672
2.63597
2.64426
2.65158
2.65794
2.66333
2.66776
2.67124
2.67377
2.67528
2.67586
2.67567
2.67454
2.6725
2.66957
2.66577
2.66111
2.65561
2.64929
2.64215
2.63422
2.62551
2.61604
2.60584
2.59491
2.58329
2.57098
2.55802
2.54442
2.53019
2.51538
2.50001
2.48412
2.46775
2.45094
2.43374
2.41619
2.39833
2.3802
2.36182
2.34324
2.32448
2.30557
2.28655
2.26746
2.24836
2.22928
2.21028
2.19138
2.17264
2.15408
2.13574
2.11765
2.09978
2.08207
2.06335
2.04047
2.82403e-05
0.00077215
0.00496711
0.0151072
0.0246667
0.0307537
0.0340934
0.0356621
0.0361005
0.0358514
0.0350949
0.0339461
0.0325992
0.0311592
0.0297085
0.0283047
0.0269849
0.025766
0.02465
0.023625
0.0226726
0.0217636
0.0208639
0.0199272
0.0189971
0.0181531
0.0175987
0.0178304
0.0200659
0.0262838
0.0396302
0.0616322
0.0861025
0.108795
0.12681
0.139307
0.147961
0.155314
0.163425
0.174523
0.189214
0.207563
0.229583
0.254898
0.283052
0.313318
0.345138
0.378126
0.412053
0.446781
0.482211
0.518274
0.554909
0.592057
0.629664
0.667678
0.706035
0.744667
0.78351
0.822502
0.861592
0.900738
0.939912
0.979097
1.01829
1.05749
1.09672
1.13597
1.17527
1.21463
1.25405
1.29354
1.33311
1.37273
1.4124
1.4521
1.49182
1.53151
1.57117
1.61076
1.65026
1.68964
1.72888
1.76795
1.80683
1.84549
1.88391
1.92206
1.95993
1.99748
2.03471
2.07157
2.10805
2.14412
2.17975
2.21492
2.2496
2.28376
2.31737
2.35039
2.3828
2.41457
2.44566
2.47604
2.50569
2.53457
2.56266
2.58992
2.61632
2.64184
2.66646
2.69015
2.71289
2.73465
2.75543
2.7752
2.79394
2.81164
2.82829
2.84388
2.8584
2.87183
2.88419
2.89545
2.90563
2.91472
2.92271
2.92962
2.93543
2.94017
2.94383
2.94644
2.94788
2.94833
2.94785
2.94632
2.94378
2.94024
2.93574
2.93028
2.92388
2.91656
2.90834
2.89923
2.88927
2.87846
2.86684
2.85442
2.84122
2.82726
2.81258
2.7972
2.78113
2.76441
2.74707
2.72916
2.71072
2.69179
2.67243
2.65267
2.63256
2.61215
2.59146
2.57054
2.54941
2.52811
2.50668
2.48518
2.46366
2.44216
2.42074
2.39945
2.37833
2.35744
2.33682
2.31654
2.29659
2.27694
2.25655
2.23273
8.50583e-05
0.00212859
0.0117612
0.0253594
0.0336625
0.0380271
0.0400634
0.0406476
0.0403288
0.0393535
0.0378987
0.0361925
0.0343758
0.0325577
0.0308201
0.0292155
0.0277719
0.0264932
0.0253696
0.0243791
0.0234947
0.0226795
0.0218568
0.0210762
0.0204978
0.0206424
0.0225146
0.0279388
0.0394187
0.0576865
0.0798981
0.10217
0.122498
0.138753
0.150171
0.158085
0.165113
0.173833
0.185665
0.20124
0.220615
0.243493
0.269444
0.297838
0.32805
0.359528
0.391949
0.425151
0.459061
0.49365
0.528909
0.564836
0.601434
0.638694
0.676596
0.715098
0.754156
0.79372
0.833734
0.87414
0.914887
0.95593
0.997233
1.03877
1.08052
1.12248
1.16464
1.20701
1.24958
1.29236
1.33534
1.37851
1.42187
1.46538
1.50904
1.5528
1.59664
1.64051
1.68438
1.72822
1.77197
1.81563
1.85914
1.90248
1.94562
1.98854
2.03119
2.07355
2.1156
2.15731
2.19866
2.23961
2.28012
2.32019
2.35976
2.39882
2.43733
2.47525
2.51256
2.54922
2.58519
2.62043
2.65492
2.68861
2.72148
2.75349
2.7846
2.81479
2.84402
2.87226
2.89948
2.92566
2.95077
2.9748
2.99771
3.01949
3.04013
3.0596
3.07789
3.09499
3.11089
3.12559
3.13908
3.15135
3.16241
3.17225
3.18088
3.18829
3.19448
3.19948
3.20329
3.20591
3.20724
3.20752
3.2067
3.20473
3.20165
3.19747
3.19222
3.18591
3.17858
3.17024
3.1609
3.1506
3.13936
3.12719
3.11413
3.1002
3.08541
3.0698
3.0534
3.03622
3.01831
2.99968
2.98038
2.96045
2.93995
2.91891
2.8974
2.87544
2.8531
2.83042
2.80743
2.78417
2.76069
2.73701
2.71319
2.68928
2.66534
2.64142
2.61759
2.59389
2.57039
2.54714
2.5242
2.50167
2.47955
2.45782
2.43555
2.41028
0.000221452
0.00502987
0.0213947
0.034505
0.0412116
0.0443573
0.0454641
0.0452826
0.0442545
0.0425776
0.0405374
0.0383181
0.036074
0.0339251
0.0319583
0.0302249
0.0287514
0.0275414
0.0265895
0.0258736
0.0254206
0.0253221
0.0256654
0.0268799
0.0293712
0.0340737
0.0427424
0.0565435
0.0739363
0.0932467
0.112571
0.129896
0.144029
0.154745
0.16311
0.171156
0.180944
0.193781
0.210216
0.230204
0.253389
0.279252
0.30723
0.33675
0.367358
0.398764
0.430848
0.463582
0.496983
0.531084
0.565922
0.601538
0.63796
0.675197
0.713243
0.752083
0.791689
0.832021
0.873033
0.914676
0.956902
0.999667
1.04293
1.08666
1.13084
1.17543
1.22044
1.26585
1.31164
1.35781
1.40435
1.45122
1.49841
1.54589
1.5936
1.64152
1.68958
1.73774
1.78594
1.83414
1.88227
1.93032
1.97822
2.02595
2.07346
2.12074
2.16773
2.2144
2.26073
2.30668
2.35223
2.39734
2.44198
2.48611
2.5297
2.57272
2.61512
2.65688
2.69794
2.73828
2.77786
2.81662
2.85454
2.89157
2.92768
2.96284
2.99699
3.03011
3.06217
3.09312
3.12293
3.15159
3.17905
3.20531
3.23032
3.25408
3.27657
3.29776
3.31764
3.3362
3.35343
3.36933
3.38389
3.39711
3.40898
3.41951
3.42869
3.43653
3.44304
3.44822
3.45209
3.45464
3.45583
3.45585
3.45462
3.45214
3.44845
3.44356
3.43751
3.43031
3.42198
3.41257
3.40207
3.39053
3.37797
3.36441
3.34988
3.33441
3.31802
3.30073
3.28259
3.26362
3.24384
3.2233
3.20203
3.18009
3.15753
3.13439
3.11074
3.08661
3.06204
3.0371
3.01182
2.98625
2.96041
2.93436
2.90815
2.88184
2.85548
2.82915
2.80289
2.77678
2.75087
2.72524
2.69995
2.6751
2.65072
2.62682
2.60249
2.57546
0.000493325
0.0101481
0.0310644
0.0427047
0.0481721
0.0504446
0.0508263
0.0499847
0.0482721
0.0460038
0.0434266
0.0407519
0.0381577
0.03578
0.0337149
0.0320175
0.0307174
0.0297851
0.0292983
0.0291496
0.0294951
0.0306754
0.0333029
0.0381707
0.0460046
0.0570993
0.0709254
0.0863813
0.102747
0.11879
0.133349
0.145752
0.156104
0.165215
0.174551
0.185617
0.199495
0.216586
0.236811
0.259803
0.28509
0.312176
0.340604
0.369996
0.400107
0.430831
0.462159
0.494134
0.526818
0.560281
0.594589
0.629797
0.665942
0.703055
0.741148
0.780223
0.820264
0.861246
0.903136
0.945895
0.989482
1.03386
1.07898
1.12482
1.17134
1.21853
1.26635
1.31479
1.36382
1.41342
1.46357
1.51422
1.56534
1.61687
1.66876
1.72094
1.77336
1.82593
1.87859
1.93127
1.98392
2.03647
2.08888
2.1411
2.1931
2.24482
2.29624
2.34731
2.39799
2.44826
2.49808
2.54742
2.59623
2.64448
2.69212
2.73913
2.78546
2.83107
2.87591
2.91995
2.96313
3.00541
3.04675
3.08711
3.12644
3.1647
3.20186
3.23787
3.2727
3.3063
3.33865
3.36971
3.39945
3.42786
3.45489
3.48054
3.50478
3.52759
3.54896
3.56888
3.58733
3.60433
3.61985
3.6339
3.64648
3.65758
3.66721
3.67537
3.68207
3.68732
3.69114
3.69353
3.69448
3.69411
3.69238
3.68931
3.68492
3.67924
3.6723
3.66412
3.65474
3.64418
3.63246
3.61962
3.60569
3.5907
3.57466
3.55762
3.53959
3.52061
3.50071
3.47992
3.45827
3.4358
3.41256
3.38861
3.364
3.33878
3.313
3.28671
3.25994
3.23276
3.20521
3.17732
3.14914
3.12073
3.09215
3.06345
3.0347
3.00595
2.97728
2.94875
2.92043
2.89239
2.86472
2.83751
2.8108
2.78463
2.75816
2.72943
0.000937247
0.0174183
0.039492
0.0501694
0.0549365
0.0566258
0.0564723
0.0550606
0.0528096
0.0500485
0.0470611
0.0440903
0.0413417
0.0389707
0.0370946
0.0357792
0.0351529
0.0350686
0.0357006
0.03729
0.0401552
0.0446547
0.0510648
0.0595563
0.0700421
0.0822159
0.0954898
0.109092
0.122349
0.134699
0.145898
0.156094
0.165961
0.176524
0.188817
0.203556
0.221027
0.24113
0.263552
0.287897
0.313771
0.340817
0.368745
0.397352
0.426542
0.456304
0.486691
0.517779
0.54966
0.582421
0.616139
0.650879
0.686697
0.723636
0.761726
0.80098
0.841402
0.882982
0.925699
0.969528
1.01444
1.0604
1.10737
1.15531
1.20421
1.25402
1.30471
1.35625
1.40861
1.46174
1.51562
1.57018
1.62535
1.68107
1.73727
1.79385
1.85075
1.90786
1.9651
2.02239
2.07965
2.13681
2.19383
2.25063
2.30719
2.36344
2.41934
2.47485
2.52993
2.58453
2.63864
2.69222
2.7452
2.79756
2.84925
2.90022
2.95044
2.99985
3.04842
3.09609
3.14281
3.18853
3.2332
3.27678
3.31923
3.36049
3.40053
3.43931
3.47678
3.5129
3.54763
3.58095
3.61281
3.64321
3.67211
3.69948
3.7253
3.74956
3.77225
3.79335
3.81285
3.83076
3.84708
3.86179
3.8749
3.88641
3.89632
3.90463
3.91137
3.91653
3.92016
3.92223
3.92281
3.92193
3.91956
3.91576
3.91056
3.90398
3.89605
3.8868
3.87627
3.86448
3.85147
3.83726
3.8219
3.80542
3.78784
3.76919
3.74951
3.72881
3.70714
3.68452
3.66099
3.6366
3.6114
3.58546
3.55882
3.53155
3.50367
3.47525
3.44633
3.41695
3.38715
3.35699
3.32651
3.29578
3.26485
3.2338
3.20268
3.17156
3.1405
3.10957
3.07885
3.0484
3.01833
2.98874
2.95968
2.93119
2.9025
2.8719
0.00149604
0.0248395
0.047539
0.0577133
0.0620038
0.0632498
0.062674
0.0608251
0.0581757
0.0551117
0.0519648
0.0490113
0.0464849
0.0445679
0.0434903
0.0431766
0.0436625
0.0451076
0.0476461
0.0514283
0.0565865
0.0631903
0.0712171
0.0805428
0.090924
0.101982
0.113286
0.124461
0.135299
0.145745
0.156007
0.166598
0.178202
0.191448
0.206767
0.22431
0.243983
0.265542
0.288684
0.313113
0.338568
0.364836
0.391766
0.419275
0.447351
0.476039
0.505419
0.535591
0.566656
0.598709
0.631839
0.666124
0.701633
0.738422
0.776534
0.815999
0.856838
0.899056
0.942652
0.987615
1.03393
1.08156
1.13048
1.18065
1.23205
1.28462
1.33833
1.39314
1.449
1.50586
1.56365
1.6223
1.68172
1.7418
1.80246
1.86359
1.9251
1.98687
2.04879
2.11077
2.17272
2.23456
2.29623
2.35765
2.41879
2.47957
2.53995
2.59987
2.65928
2.71817
2.77651
2.83423
2.89131
2.94768
3.00329
3.0581
3.11207
3.16515
3.21728
3.26841
3.31849
3.36746
3.41526
3.46186
3.5072
3.55124
3.59393
3.63524
3.6751
3.71348
3.75035
3.78566
3.8194
3.85152
3.88201
3.91084
3.93799
3.96343
3.98717
4.00919
4.02948
4.04806
4.06491
4.08003
4.09343
4.10511
4.11507
4.12332
4.12987
4.13474
4.13796
4.13954
4.13954
4.13798
4.13482
4.13014
4.12397
4.11635
4.1073
4.09687
4.08508
4.07197
4.05758
4.04194
4.02508
4.00705
3.98788
3.9676
3.94624
3.92383
3.90038
3.87593
3.85054
3.82425
3.79713
3.76924
3.74063
3.71135
3.68145
3.65096
3.61994
3.58842
3.55645
3.52408
3.49136
3.45838
3.42519
3.39185
3.35844
3.325
3.29161
3.25834
3.22525
3.19243
3.15999
3.12803
3.09662
3.06581
3.03488
3.00234
0.00222865
0.031566
0.0550491
0.0652402
0.0693606
0.0703731
0.069499
0.0673298
0.0644459
0.0613252
0.0583546
0.0558282
0.0539656
0.0530618
0.0529122
0.0537325
0.055571
0.0584626
0.0624384
0.0675092
0.0736571
0.0808101
0.0888477
0.0976041
0.106884
0.116498
0.126305
0.136232
0.146333
0.156819
0.168042
0.180409
0.194265
0.209825
0.227144
0.246136
0.266621
0.288385
0.311221
0.334949
0.359425
0.38455
0.410267
0.43657
0.463497
0.491124
0.519546
0.548869
0.579202
0.610647
0.643301
0.677256
0.712593
0.749382
0.787677
0.827521
0.868953
0.911997
0.956669
1.00297
1.0509
1.10043
1.15155
1.20423
1.25841
1.31406
1.37111
1.42951
1.48919
1.55008
1.61209
1.67511
1.73901
1.80365
1.86892
1.9347
2.00087
2.06733
2.13394
2.20061
2.26722
2.33369
2.39996
2.46595
2.53158
2.5968
2.66152
2.7257
2.7893
2.85229
2.91466
2.97634
3.03728
3.09742
3.15671
3.2151
3.27254
3.32899
3.38437
3.43865
3.49176
3.54364
3.59422
3.64347
3.69134
3.73778
3.78274
3.82618
3.86805
3.90831
3.94691
3.98383
4.01903
4.0525
4.08419
4.11409
4.14217
4.16842
4.19283
4.2154
4.23613
4.25501
4.27205
4.28725
4.30061
4.31215
4.32185
4.32974
4.33581
4.34011
4.34267
4.34351
4.34272
4.34025
4.33609
4.33034
4.32304
4.31421
4.3039
4.29215
4.27898
4.26444
4.24857
4.23141
4.213
4.19337
4.17258
4.15064
4.1276
4.10347
4.07828
4.05203
4.0248
3.99667
3.96769
3.93792
3.90742
3.87622
3.84438
3.81194
3.77893
3.74538
3.71133
3.67684
3.642
3.60688
3.57153
3.53603
3.50043
3.46479
3.42917
3.39363
3.35826
3.32316
3.28842
3.25415
3.22043
3.18733
3.15419
3.11976
0.00309609
0.0377467
0.0626414
0.0730165
0.0770335
0.0778726
0.0767594
0.0743423
0.0713149
0.0683241
0.065838
0.0641094
0.0632941
0.0631724
0.0640278
0.0658933
0.0687086
0.0724386
0.0770517
0.0825062
0.0887377
0.0956679
0.103213
0.111297
0.119864
0.128878
0.138354
0.148387
0.159138
0.170809
0.183612
0.197708
0.213179
0.230017
0.248144
0.267434
0.287747
0.308946
0.330919
0.35358
0.376875
0.400783
0.425315
0.450512
0.476442
0.503198
0.530886
0.559613
0.589481
0.620599
0.653074
0.687003
0.722481
0.759587
0.798396
0.838972
0.881372
0.925641
0.971815
1.01991
1.06993
1.12188
1.17572
1.23142
1.28894
1.34821
1.40916
1.47168
1.53568
1.60104
1.66763
1.73531
1.80391
1.87324
1.94316
2.01353
2.08425
2.15522
2.22633
2.29748
2.36854
2.43944
2.51009
2.58042
2.65032
2.71969
2.78844
2.85656
2.92401
2.99076
3.05678
3.12203
3.18643
3.24992
3.31245
3.37396
3.43439
3.4937
3.55184
3.60874
3.66434
3.71857
3.77139
3.82273
3.87256
3.92083
3.96749
4.01249
4.0558
4.09735
4.13712
4.17508
4.21118
4.24543
4.27778
4.30822
4.33672
4.36327
4.38787
4.41051
4.43119
4.44992
4.46669
4.48152
4.49441
4.50537
4.51441
4.52155
4.52679
4.53018
4.53177
4.5316
4.52977
4.52607
4.52068
4.51365
4.50501
4.4948
4.48306
4.46983
4.45516
4.43908
4.42164
4.40288
4.38285
4.36159
4.33913
4.31553
4.29081
4.265
4.23811
4.21011
4.18114
4.15126
4.12052
4.08899
4.05671
4.02373
3.99008
3.95581
3.92096
3.88552
3.84954
3.81311
3.7763
3.7392
3.70186
3.66435
3.62672
3.58903
3.55132
3.51367
3.47615
3.43888
3.40197
3.36551
3.32958
3.29429
3.25902
3.22279
0.00401482
0.04393
0.0700238
0.0807087
0.084705
0.085406
0.0839349
0.0812091
0.078231
0.0756902
0.0739735
0.0731923
0.0730569
0.0737396
0.0753773
0.0778997
0.0812387
0.0853407
0.0901637
0.0956707
0.101827
0.108612
0.116008
0.124012
0.132644
0.141957
0.15203
0.162954
0.174835
0.187762
0.201783
0.216907
0.233101
0.250292
0.268397
0.287326
0.307004
0.327371
0.348392
0.370055
0.392365
0.415352
0.439067
0.463586
0.488979
0.515338
0.542773
0.571396
0.601322
0.632665
0.665537
0.700051
0.736312
0.774417
0.814457
0.856513
0.90066
0.946969
0.995489
1.04625
1.09925
1.15449
1.21193
1.27152
1.33321
1.3969
1.46248
1.5298
1.59868
1.66894
1.74037
1.81282
1.8861
1.96001
2.03433
2.10887
2.18364
2.25859
2.33366
2.40878
2.48378
2.55858
2.63312
2.70727
2.78091
2.8539
2.92617
2.99771
3.06848
3.13843
3.20753
3.27573
3.34297
3.40916
3.47425
3.53818
3.60089
3.66235
3.72249
3.78125
3.83858
3.89441
3.94868
4.00133
4.05233
4.10163
4.1492
4.19498
4.23894
4.28102
4.32118
4.3594
4.39566
4.42994
4.46222
4.49248
4.52072
4.54692
4.57106
4.59314
4.61316
4.63113
4.64706
4.66096
4.67284
4.68271
4.69058
4.69648
4.70045
4.70254
4.70278
4.70132
4.69797
4.69278
4.68587
4.67729
4.66706
4.65524
4.64187
4.62699
4.61065
4.59289
4.57376
4.55331
4.53157
4.5086
4.48443
4.45912
4.43271
4.40523
4.37668
4.34706
4.31648
4.285
4.25267
4.21953
4.18564
4.15102
4.11574
4.07983
4.04332
4.00621
3.9685
3.93033
3.89179
3.85293
3.81381
3.77451
3.73506
3.69553
3.65594
3.61635
3.57688
3.53764
3.49874
3.46026
3.42228
3.38496
3.34768
3.30985
0.00497241
0.0500516
0.077244
0.0881546
0.0920784
0.0925955
0.0907211
0.087867
0.0851989
0.0832988
0.0823867
0.0821563
0.0826179
0.083912
0.0860596
0.0889925
0.0926542
0.0970056
0.102027
0.107713
0.114065
0.121097
0.128834
0.137317
0.146591
0.156708
0.167716
0.179654
0.192532
0.206338
0.22106
0.236658
0.253068
0.270229
0.288093
0.306625
0.325811
0.345652
0.366157
0.387359
0.409306
0.432078
0.455787
0.480489
0.506189
0.533008
0.561131
0.590655
0.621692
0.654361
0.688779
0.725071
0.763349
0.803721
0.846283
0.89113
0.938345
0.987998
1.04016
1.09485
1.15204
1.21168
1.2737
1.33804
1.40461
1.47331
1.54399
1.61646
1.69045
1.76567
1.84171
1.91852
1.99595
2.07384
2.15195
2.23006
2.30834
2.38668
2.46504
2.54326
2.62123
2.699
2.77654
2.85361
2.93006
3.0058
3.08078
3.15489
3.22806
3.30027
3.37148
3.44164
3.51068
3.57852
3.6451
3.71036
3.77424
3.83672
3.89774
3.95726
4.01519
4.07148
4.12607
4.17891
4.22995
4.27918
4.32655
4.37204
4.41558
4.45713
4.49666
4.53413
4.56955
4.6029
4.63416
4.66333
4.69039
4.71534
4.73817
4.75888
4.77747
4.79396
4.80837
4.82071
4.83099
4.83923
4.84543
4.84962
4.85186
4.85221
4.85086
4.84758
4.84239
4.83544
4.82675
4.81638
4.80437
4.79077
4.77563
4.75899
4.7409
4.7214
4.70055
4.67839
4.65496
4.63031
4.6045
4.57755
4.54953
4.52046
4.49039
4.45936
4.42739
4.39453
4.36081
4.32629
4.29099
4.25497
4.21828
4.18094
4.143
4.10446
4.06534
4.02574