/*--------------------------------*- C++ -*----------------------------------*\
| =========                 |                                                 |
| \\      /  F ield         | OpenFOAM: The Open Source CFD Toolbox           |
|  \\    /   O peration     | Version:  v2012                                 |
|   \\  /    A nd           | Website:  www.openfoam.com                      |
|    \\/     M anipulation  |                                                 |
\*---------------------------------------------------------------------------*/
FoamFile
{
    version     2.0;
    format      ascii;
    class       volScalarField;
    location    "1100";
    object      nut;
}
// * * * * * * * * * * * * * * * * * * * * * * * * * * * * * * * * * * * * * //

dimensions      [0 2 -1 0 0 0 0];


internalField   nonuniform List<scalar> 
12225
(
5.33227e-06
8.14921e-06
1.0024e-05
1.11445e-05
1.16543e-05
1.18256e-05
1.18569e-05
1.17317e-05
1.15587e-05
1.13784e-05
1.1203e-05
1.1035e-05
1.08921e-05
1.07467e-05
1.06501e-05
1.05167e-05
1.04784e-05
1.03514e-05
0.000125608
5.74439e-05
4.32494e-05
3.66499e-05
3.35387e-05
3.23668e-05
3.20201e-05
3.2487e-05
3.30883e-05
3.29344e-05
3.25685e-05
3.2794e-05
3.27068e-05
3.31319e-05
3.32088e-05
3.37714e-05
3.39982e-05
3.4762e-05
0.000640996
0.000303528
0.000210886
0.000160603
0.000132577
0.000113056
0.000101557
9.20638e-05
8.5917e-05
7.90431e-05
7.44651e-05
6.94972e-05
6.63417e-05
6.28064e-05
6.07159e-05
5.81552e-05
5.68281e-05
5.49999e-05
0.00088554
0.00064304
0.000515918
0.000420597
0.000365533
0.000318434
0.000289866
0.000261205
0.00024365
0.000222782
0.000209993
0.000194383
0.00018526
0.000173426
0.000166911
0.000157813
0.000153284
0.000145901
0.000860776
0.000803095
0.000732166
0.000658618
0.000611673
0.000562639
0.000530504
0.000493298
0.000469367
0.00043999
0.000421427
0.000397635
0.000383289
0.000363969
0.000353064
0.00033726
0.000329214
0.000315779
0.000855279
0.000843129
0.000821945
0.000788027
0.000763846
0.000733775
0.000712707
0.000685059
0.000665582
0.000640194
0.000622805
0.000600023
0.000585159
0.000565078
0.000552871
0.00053523
0.000525601
0.0005099
0.000853718
0.000850416
0.000844938
0.000835472
0.00082636
0.000813909
0.000804488
0.000791104
0.000780947
0.000766579
0.000755905
0.000741181
0.000730717
0.000716372
0.000706782
0.000693181
0.000684822
0.000671987
0.000852108
0.000850943
0.000849276
0.000845964
0.000842482
0.000837591
0.000832849
0.00082711
0.000822291
0.000815672
0.000810017
0.000802125
0.000795978
0.000787498
0.000781327
0.000772683
0.000766842
0.000758043
0.000851694
0.000850753
0.00084998
0.000848525
0.000847102
0.000845155
0.000843199
0.000840769
0.00083845
0.000835486
0.000832343
0.000828902
0.000825472
0.000821602
0.000817983
0.000813413
0.000809749
0.000804662
0.000851592
0.000850677
0.000849963
0.000849051
0.000848224
0.000847234
0.000846327
0.000845218
0.000844184
0.000842918
0.000841698
0.000840113
0.000838697
0.000836807
0.000835242
0.000833031
0.000831362
0.000828835
0.000851563
0.000850672
0.00084991
0.000849103
0.000848391
0.000847626
0.000846962
0.000846225
0.000845588
0.000844843
0.000844212
0.000843412
0.000842744
0.00084186
0.000841143
0.000840165
0.000839381
0.000838313
0.00085155
0.000850676
0.000849883
0.000849096
0.000848382
0.000847664
0.000847019
0.000846363
0.000845777
0.000845168
0.00084463
0.000844056
0.000843549
0.000842995
0.000842503
0.00084196
0.000841469
0.000840927
0.000851542
0.000850677
0.000849868
0.000849088
0.000848358
0.000847652
0.000846993
0.000846353
0.000845756
0.000845174
0.000844631
0.000844099
0.000843602
0.000843115
0.000842656
0.000842206
0.000841779
0.00084136
0.000851539
0.000850676
0.000849859
0.00084908
0.000848342
0.000847636
0.000846968
0.000846329
0.000845722
0.000845141
0.000844589
0.00084406
0.000843557
0.000843074
0.000842614
0.000842172
0.000841749
0.000841345
0.000851538
0.000850674
0.000849854
0.000849073
0.000848331
0.000847623
0.00084695
0.000846308
0.000845697
0.000845113
0.000844556
0.000844023
0.000843515
0.000843029
0.000842564
0.000842119
0.000841693
0.000841286
0.000851537
0.000850673
0.000849851
0.000849068
0.000848324
0.000847614
0.000846939
0.000846294
0.00084568
0.000845093
0.000844533
0.000843998
0.000843486
0.000842997
0.000842529
0.000842081
0.000841653
0.000841242
0.000851538
0.000850676
0.000849855
0.000849073
0.000848328
0.000847618
0.000846942
0.000846296
0.000845681
0.000845092
0.000844531
0.000843994
0.00084348
0.000842989
0.000842519
0.00084207
0.000841639
0.000841227
0.000851538
0.000850676
0.000849854
0.000849071
0.000848326
0.000847616
0.000846938
0.000846292
0.000845674
0.000845085
0.000844522
0.000843984
0.000843469
0.000842976
0.000842505
0.000842054
0.000841623
0.00084121
0.000851537
0.000850672
0.000849849
0.000849065
0.000848318
0.000847606
0.000846927
0.00084628
0.000845661
0.000845071
0.000844507
0.000843967
0.000843451
0.000842958
0.000842486
0.000842034
0.000841602
0.000841188
0.000851537
0.000850673
0.00084985
0.000849067
0.00084832
0.000847609
0.00084693
0.000846283
0.000845665
0.000845074
0.00084451
0.00084397
0.000843454
0.00084296
0.000842488
0.000842036
0.000841603
0.000841188
0.000851537
0.000850675
0.000849852
0.000849071
0.000848325
0.000847616
0.000846937
0.000846292
0.000845673
0.000845083
0.000844515
0.000843974
0.000843452
0.000842955
0.000842474
0.000842016
0.000841572
0.000841148
0.000851536
0.000850679
0.000849854
0.000849079
0.000848329
0.000847629
0.000846947
0.000846305
0.000845666
0.000845055
0.000844441
0.000843859
0.000843274
0.000842725
0.000842166
0.000841641
0.000841096
0.000840587
0.000851541
0.000850691
0.00084985
0.000849075
0.000848303
0.000847605
0.000846869
0.000846139
0.000845296
0.000844414
0.000843443
0.000842481
0.00084147
0.000840513
0.000839456
0.000838469
0.000837342
0.000836328
0.000851621
0.000850735
0.000849673
0.000848755
0.00084772
0.000846637
0.00084526
0.000843642
0.000841348
0.000838754
0.000835862
0.000832895
0.000829983
0.000827007
0.000823959
0.000820879
0.00081774
0.000814885
0.000852393
0.000850662
0.000847337
0.000845151
0.000841217
0.000836467
0.000831486
0.000825376
0.000816634
0.000807873
0.000798264
0.000789659
0.000780688
0.00077288
0.000764473
0.000757179
0.000749028
0.000742198
0.000857022
0.000847498
0.000832075
0.000819922
0.000803333
0.000786406
0.000764993
0.000743656
0.000720057
0.000699136
0.000678081
0.000660609
0.000643164
0.000628904
0.000614115
0.000602087
0.000589079
0.000578806
0.000891257
0.000799064
0.000738515
0.000700618
0.000647575
0.000603924
0.000561097
0.000525319
0.000491424
0.000464697
0.000439699
0.000420614
0.000402181
0.000388232
0.000373993
0.000363303
0.000351777
0.000343344
0.000940138
0.000551606
0.000435866
0.000365596
0.000313651
0.000276496
0.000246752
0.000224946
0.000206552
0.000193082
0.000181163
0.000172579
0.000164495
0.000158788
0.000152993
0.000149006
0.00014464
0.000141706
0.000388261
0.000152984
0.00011008
8.75418e-05
7.50034e-05
6.76129e-05
6.2872e-05
5.98872e-05
5.78463e-05
5.66263e-05
5.58326e-05
5.55401e-05
5.54274e-05
5.56607e-05
5.59257e-05
5.5746e-05
5.51588e-05
5.45826e-05
6.2509e-06
8.11337e-06
9.64432e-06
1.08706e-05
1.17913e-05
1.24727e-05
1.29441e-05
1.32834e-05
1.35282e-05
1.3694e-05
1.37858e-05
1.38385e-05
1.38547e-05
1.38377e-05
1.37878e-05
1.37345e-05
1.36808e-05
1.36274e-05
3.74599e-10
1.36346e-08
3.50523e-08
6.79525e-08
1.08344e-07
1.56071e-07
2.35513e-07
3.66917e-07
5.61816e-07
8.13913e-07
1.08442e-06
1.35764e-06
1.61042e-06
1.83187e-06
2.01933e-06
2.16947e-06
2.28395e-06
2.3598e-06
2.40545e-06
2.40458e-06
2.37632e-06
2.33876e-06
2.24932e-06
2.10469e-06
1.89783e-06
1.62207e-06
1.28118e-06
8.95608e-07
5.16003e-07
2.22143e-07
6.48661e-08
1.78502e-08
1.3947e-08
1.52877e-08
1.76734e-08
2.09117e-08
2.45269e-08
2.73137e-08
3.16936e-08
4.90159e-08
1.23173e-07
2.75614e-07
5.11091e-07
7.11728e-07
8.36379e-07
8.33106e-07
7.91525e-07
7.12537e-07
6.21631e-07
5.47387e-07
5.45485e-07
6.43007e-07
8.42656e-07
9.11391e-07
1.0841e-06
1.41817e-06
2.78994e-06
7.63565e-06
1.31543e-05
1.80288e-05
2.2183e-05
2.51857e-05
2.66126e-05
2.78659e-05
2.90208e-05
3.01427e-05
3.12268e-05
3.21969e-05
3.31313e-05
3.39999e-05
3.48391e-05
3.5636e-05
3.64096e-05
3.71548e-05
3.78822e-05
3.85895e-05
3.92818e-05
3.99593e-05
4.06267e-05
4.12819e-05
4.19294e-05
4.25672e-05
4.31987e-05
4.38222e-05
4.44401e-05
4.50513e-05
4.56572e-05
4.62571e-05
4.68516e-05
4.74403e-05
4.80232e-05
4.86e-05
4.91705e-05
4.97342e-05
5.02909e-05
5.08405e-05
5.13834e-05
5.19208e-05
5.24552e-05
5.29911e-05
5.35348e-05
5.40793e-05
5.46219e-05
5.51671e-05
5.57142e-05
5.62646e-05
5.68182e-05
5.73759e-05
5.79378e-05
5.85047e-05
5.90768e-05
5.9655e-05
6.02397e-05
6.08317e-05
6.14315e-05
6.20402e-05
6.26584e-05
6.32871e-05
6.39272e-05
6.45799e-05
6.52463e-05
6.59279e-05
6.6626e-05
6.73424e-05
6.80791e-05
6.88383e-05
6.9623e-05
7.04368e-05
7.12615e-05
7.21224e-05
7.213e-05
7.18991e-05
7.16465e-05
7.1375e-05
7.10884e-05
7.0785e-05
7.04609e-05
7.012e-05
6.97622e-05
6.93878e-05
6.89973e-05
6.8591e-05
6.81694e-05
6.77328e-05
6.72817e-05
6.68169e-05
6.63408e-05
6.58447e-05
6.53475e-05
6.48214e-05
6.43015e-05
6.37495e-05
6.32087e-05
6.26336e-05
6.20752e-05
6.14802e-05
6.0908e-05
6.02964e-05
5.97126e-05
5.90922e-05
5.84883e-05
5.78693e-05
5.72498e-05
5.66252e-05
5.59976e-05
5.53673e-05
5.47352e-05
5.41021e-05
5.34684e-05
5.28343e-05
5.21996e-05
5.15632e-05
5.0924e-05
5.02797e-05
4.96257e-05
4.89548e-05
4.82631e-05
4.76013e-05
4.70734e-05
4.52474e-05
1.82801e-09
7.05039e-09
4.51848e-08
1.366e-07
3.96538e-07
1.36581e-06
3.17693e-06
5.83502e-06
9.25972e-06
1.26688e-05
1.64345e-05
2.09195e-05
2.44491e-05
2.73599e-05
2.9526e-05
3.0841e-05
3.12886e-05
3.11331e-05
3.03651e-05
2.81747e-05
2.53357e-05
2.11301e-05
1.68839e-05
1.30733e-05
9.90365e-06
7.28369e-06
5.26211e-06
3.72404e-06
2.50697e-06
1.61068e-06
9.72723e-07
5.70498e-07
3.51454e-07
2.3426e-07
1.73156e-07
1.4278e-07
1.44201e-07
2.39705e-07
6.39286e-07
1.2979e-06
4.78628e-06
9.99439e-06
1.69417e-05
2.15093e-05
2.33382e-05
2.22374e-05
2.0579e-05
1.63393e-05
1.26576e-05
1.13905e-05
1.21135e-05
1.2087e-05
1.15109e-05
1.25091e-05
1.55036e-05
2.04195e-05
2.76589e-05
3.77998e-05
4.73355e-05
5.8598e-05
7.10966e-05
8.48218e-05
9.96078e-05
0.000115034
0.000130985
0.000146984
0.000162887
0.000178349
0.000193281
0.000207526
0.000221073
0.000233915
0.000245908
0.000257578
0.000268459
0.00027904
0.000289186
0.000298809
0.000308192
0.000317229
0.000326045
0.000334614
0.000342992
0.00035118
0.000359204
0.000367073
0.0003748
0.000382394
0.000389861
0.000397207
0.000404434
0.000411543
0.00041853
0.000425386
0.000432096
0.000438633
0.000444961
0.000451023
0.000456733
0.000461974
0.000466597
0.000470995
0.000475313
0.000479488
0.000483551
0.000487485
0.000491296
0.000494977
0.000498527
0.000501945
0.000505226
0.000508371
0.000511376
0.000514239
0.000516959
0.000519534
0.000521962
0.000524243
0.000526374
0.000528355
0.000530186
0.000531865
0.000533393
0.000534771
0.000536001
0.000537088
0.000538039
0.00053889
0.000539639
0.000540365
0.000541174
0.000541828
0.000542348
0.00054267
0.000542885
0.00054303
0.000543015
0.000542848
0.000542555
0.000542133
0.000541586
0.000540915
0.000540122
0.000539205
0.000538164
0.00053699
0.000535668
0.000534531
0.000532829
0.000531537
0.000529592
0.000528114
0.000525953
0.000524299
0.000521951
0.000520142
0.000517641
0.000515704
0.00051311
0.00051098
0.000508449
0.000506025
0.000503528
0.000500997
0.000498431
0.000495836
0.00049322
0.000490589
0.000487947
0.000485299
0.000482639
0.000479958
0.000477244
0.000474476
0.000471584
0.000468486
0.000465023
0.000460721
0.000454657
0.0004381
2.18229e-09
5.71711e-09
6.42853e-08
3.63504e-07
1.08999e-06
2.97652e-06
6.62853e-06
1.15187e-05
1.77201e-05
2.49077e-05
3.27486e-05
4.08796e-05
4.89547e-05
5.6168e-05
6.2161e-05
6.68212e-05
6.997e-05
7.1984e-05
7.2621e-05
7.19598e-05
6.94768e-05
6.5227e-05
5.96662e-05
5.20547e-05
4.34381e-05
3.49011e-05
2.67461e-05
1.97609e-05
1.41427e-05
9.85507e-06
6.71047e-06
4.30649e-06
2.77192e-06
1.83109e-06
1.30422e-06
1.05636e-06
9.33622e-07
8.41257e-07
3.00028e-06
5.92397e-06
1.7506e-05
3.48253e-05
4.8876e-05
5.70665e-05
6.01751e-05
5.56865e-05
4.69421e-05
3.29158e-05
2.64352e-05
2.6818e-05
2.99251e-05
3.54785e-05
4.24787e-05
5.45507e-05
7.04792e-05
8.6664e-05
0.000106735
0.000129724
0.00015782
0.000189624
0.000224724
0.000261524
0.000299552
0.000337258
0.000374279
0.000409665
0.000443331
0.000474961
0.000504674
0.000532533
0.000558564
0.00058336
0.000606568
0.000629014
0.000650417
0.000670872
0.000690628
0.000709705
0.000728271
0.000746319
0.00076395
0.000781174
0.000798044
0.000814576
0.000830799
0.000846726
0.000862372
0.000877745
0.000892852
0.000907692
0.000922265
0.000936561
0.000950567
0.000964264
0.000977625
0.000990617
0.0010032
0.00101533
0.00102697
0.0010381
0.00104881
0.0010593
0.00106955
0.00107952
0.00108924
0.00109868
0.00110784
0.00111673
0.00112532
0.00113362
0.00114163
0.00114933
0.00115672
0.0011638
0.00117057
0.00117702
0.00118314
0.00118895
0.00119442
0.00119957
0.00120439
0.00120887
0.00121304
0.00121687
0.00122039
0.00122359
0.0012265
0.00122914
0.00123151
0.00123366
0.00123559
0.00123719
0.00123845
0.00123928
0.00123983
0.00124032
0.00124035
0.00124006
0.00123948
0.00123859
0.00123742
0.00123595
0.00123421
0.00123219
0.00122989
0.00122732
0.00122451
0.0012216
0.00121815
0.00121482
0.00121084
0.00120707
0.0012026
0.00119842
0.00119351
0.00118897
0.00118371
0.00117887
0.00117333
0.00116818
0.00116257
0.00115701
0.00115132
0.00114554
0.00113969
0.00113377
0.0011278
0.00112179
0.00111576
0.00110971
0.00110364
0.00109752
0.00109133
0.00108501
0.00107844
0.00107146
0.00106374
0.00105433
0.00104125
0.0010117
2.19105e-09
1.3496e-08
1.9078e-07
8.65405e-07
2.53678e-06
6.8846e-06
1.39222e-05
2.34591e-05
3.51691e-05
4.81002e-05
6.12293e-05
7.4055e-05
8.55377e-05
9.51891e-05
0.000102498
0.000108115
0.000111804
0.000113646
0.000113976
0.000112928
0.000110548
0.000106407
0.00010139
9.43499e-05
8.58213e-05
7.54445e-05
6.38628e-05
5.18608e-05
4.05496e-05
3.08781e-05
2.29809e-05
1.68895e-05
1.209e-05
8.716e-06
6.26146e-06
4.88376e-06
4.17995e-06
4.03191e-06
1.15066e-05
2.25426e-05
4.56798e-05
6.26688e-05
7.21974e-05
7.47782e-05
6.61291e-05
5.38774e-05
5.06425e-05
5.36938e-05
5.76251e-05
6.42637e-05
7.5969e-05
9.33768e-05
0.000110582
0.000136186
0.000163728
0.000198564
0.000239485
0.000285814
0.000336699
0.000390334
0.000445517
0.000500648
0.000554953
0.000607325
0.000657507
0.000705051
0.000750026
0.00079248
0.000832362
0.00087031
0.000906176
0.000940746
0.000973541
0.00100515
0.00103558
0.00106499
0.00109354
0.0011213
0.00114837
0.0011748
0.00120066
0.00122597
0.00125079
0.00127513
0.00129901
0.00132246
0.00134548
0.00136809
0.00139028
0.00141205
0.00143341
0.00145433
0.00147482
0.00149485
0.0015144
0.00153346
0.00155201
0.00157004
0.00158755
0.00160458
0.00162119
0.00163744
0.0016533
0.00166876
0.00168382
0.00169846
0.00171267
0.00172645
0.0017398
0.00175269
0.00176513
0.00177712
0.00178863
0.00179968
0.00181025
0.00182034
0.00182994
0.00183905
0.00184768
0.00185582
0.00186346
0.00187061
0.00187728
0.00188346
0.00188917
0.0018944
0.00189918
0.00190352
0.00190742
0.00191088
0.0019139
0.00191644
0.00191846
0.00191991
0.001921
0.00192177
0.00192196
0.00192168
0.00192095
0.00191977
0.00191815
0.00191611
0.00191364
0.00191076
0.00190747
0.00190378
0.00189974
0.00189536
0.00189049
0.00188541
0.00187978
0.00187401
0.00186767
0.00186125
0.00185426
0.00184726
0.00183973
0.00183226
0.00182428
0.00181638
0.00180813
0.00179979
0.00179129
0.00178264
0.00177387
0.00176499
0.00175601
0.00174698
0.00173789
0.00172878
0.00171963
0.0017104
0.00170107
0.00169157
0.00168175
0.00167139
0.0016601
0.00164666
0.00162851
0.0015938
2.90462e-09
4.24912e-08
4.37673e-07
1.85616e-06
6.48744e-06
1.60172e-05
3.01353e-05
4.78715e-05
6.72999e-05
8.65393e-05
0.000104184
0.000118754
0.000129782
0.00013835
0.000144365
0.000148155
0.00015017
0.000150592
0.000149621
0.000147444
0.000144203
0.000139623
0.000134234
0.000127558
0.000119696
0.000110081
9.88337e-05
8.61375e-05
7.24347e-05
5.89612e-05
4.69294e-05
3.68193e-05
2.86041e-05
2.21313e-05
1.81381e-05
1.42995e-05
1.465e-05
1.94085e-05
3.65886e-05
6.27992e-05
8.5797e-05
9.50491e-05
9.01376e-05
8.41037e-05
8.15813e-05
8.24071e-05
8.6778e-05
9.54129e-05
0.000109988
0.000127829
0.000147066
0.000176828
0.000211954
0.000255457
0.00030412
0.00036057
0.000420922
0.00048501
0.000551058
0.000617803
0.000684117
0.000749054
0.000812055
0.000872601
0.000930584
0.000985918
0.00103826
0.0010883
0.00113642
0.00118217
0.00122604
0.00126826
0.00130889
0.00134818
0.00138626
0.00142324
0.00145924
0.00149434
0.00152863
0.00156215
0.00159496
0.0016271
0.0016586
0.00168949
0.00171979
0.00174951
0.00177866
0.00180726
0.00183531
0.00186281
0.00188976
0.00191615
0.00194199
0.00196725
0.00199195
0.00201606
0.0020396
0.00206258
0.00208501
0.0021069
0.00212829
0.00214919
0.00216957
0.00218943
0.00220876
0.00222755
0.00224578
0.00226346
0.00228057
0.00229711
0.00231307
0.00232843
0.00234321
0.00235739
0.00237096
0.00238392
0.00239627
0.00240801
0.00241913
0.00242964
0.00243953
0.00244882
0.00245749
0.00246555
0.00247302
0.0024799
0.00248619
0.00249191
0.00249707
0.00250161
0.00250559
0.00250898
0.00251171
0.00251376
0.00251543
0.00251654
0.00251701
0.0025169
0.00251623
0.00251501
0.00251324
0.00251094
0.00250811
0.00250477
0.00250093
0.00249659
0.0024918
0.00248653
0.00248076
0.00247458
0.00246789
0.00246082
0.00245325
0.00244535
0.00243696
0.00242832
0.00241924
0.00240997
0.0024003
0.00239049
0.00238038
0.00237007
0.00235956
0.00234885
0.00233796
0.00232692
0.00231575
0.00230448
0.00229313
0.00228169
0.00227019
0.0022586
0.00224689
0.00223497
0.00222273
0.00220993
0.00219618
0.00218032
0.00215943
0.00212467
2.42899e-09
9.88611e-08
1.00332e-06
4.83291e-06
1.64e-05
3.55551e-05
5.96043e-05
8.58001e-05
0.000110168
0.000130183
0.000145554
0.00015732
0.000165855
0.000171567
0.000175106
0.000176893
0.000177272
0.000176474
0.000174642
0.00017187
0.000168191
0.000163407
0.000157902
0.00015148
0.000143792
0.000134727
0.000124159
0.000112073
9.86064e-05
8.35758e-05
6.78206e-05
5.39163e-05
4.28242e-05
3.39979e-05
2.90254e-05
2.86785e-05
3.58791e-05
5.67166e-05
8.41714e-05
0.000101468
0.000108771
0.000110028
0.000109348
0.000110343
0.000115443
0.000126375
0.000143544
0.000155177
0.000179
0.000209606
0.000248296
0.000295829
0.000349975
0.000411549
0.000477212
0.000547454
0.000619508
0.000693148
0.000766947
0.000840122
0.000911951
0.000981918
0.00104976
0.00111498
0.00117761
0.00123824
0.00129635
0.00135216
0.0014059
0.00145761
0.00150753
0.00155579
0.00160253
0.00164792
0.00169205
0.00173503
0.00177695
0.00181788
0.00185789
0.00189703
0.00193534
0.00197285
0.0020096
0.00204561
0.0020809
0.00211549
0.00214939
0.00218262
0.00221517
0.00224707
0.0022783
0.00230888
0.0023388
0.00236807
0.00239669
0.00242465
0.00245198
0.00247868
0.00250477
0.00253024
0.00255511
0.00257937
0.00260302
0.00262604
0.00264843
0.00267017
0.00269127
0.00271172
0.0027315
0.0027506
0.00276904
0.00278679
0.00280386
0.00282024
0.00283592
0.00285091
0.0028652
0.00287879
0.00289168
0.00290387
0.00291536
0.00292617
0.00293628
0.0029457
0.00295445
0.00296253
0.00296994
0.00297672
0.00298284
0.00298821
0.00299296
0.00299706
0.0030004
0.00300304
0.00300524
0.00300676
0.0030076
0.00300779
0.00300736
0.00300631
0.00300465
0.00300239
0.00299955
0.00299613
0.00299215
0.00298761
0.00298254
0.00297694
0.0029708
0.00296415
0.00295697
0.00294931
0.00294114
0.00293252
0.00292343
0.00291394
0.00290404
0.00289381
0.00288321
0.00287234
0.00286117
0.00284973
0.00283803
0.00282609
0.00281393
0.00280157
0.00278904
0.00277637
0.00276358
0.00275069
0.00273769
0.0027246
0.00271137
0.00269794
0.00268418
0.00266994
0.00265481
0.00263783
0.00261634
0.00258363
5.93785e-09
2.5199e-07
2.61918e-06
1.3337e-05
3.61068e-05
6.67617e-05
9.84809e-05
0.000125191
0.000146313
0.000162214
0.000174456
0.000182917
0.000188541
0.000191976
0.000193757
0.00019428
0.000193785
0.000192406
0.000190209
0.000187246
0.000183448
0.000178671
0.000173247
0.000166862
0.000159252
0.000145954
0.000129629
0.000114146
9.91627e-05
8.41413e-05
6.90391e-05
5.50984e-05
4.42402e-05
4.00726e-05
4.34939e-05
6.00678e-05
8.65217e-05
0.000109588
0.00012474
0.000132501
0.000135234
0.000137322
0.000143227
0.000155693
0.000168777
0.000180581
0.000204664
0.000235487
0.000274954
0.000322405
0.000378175
0.000441346
0.000509719
0.000582483
0.000657592
0.000734799
0.000812583
0.000890507
0.000967716
0.00104371
0.00111813
0.00119022
0.00126022
0.00132876
0.00139471
0.00145856
0.00152025
0.0015799
0.00163763
0.00169354
0.00174776
0.00180042
0.00185162
0.00190148
0.00195008
0.00199751
0.00204382
0.00208908
0.00213334
0.00217664
0.002219
0.00226047
0.00230107
0.00234082
0.00237975
0.00241787
0.0024552
0.00249175
0.00252754
0.00256257
0.00259686
0.00263041
0.00266323
0.00269533
0.0027267
0.00275736
0.00278731
0.00281656
0.00284508
0.00287291
0.00290006
0.00292651
0.00295227
0.00297733
0.00300169
0.00302533
0.00304825
0.00307045
0.00309192
0.00311266
0.00313266
0.00315193
0.00317045
0.00318823
0.00320526
0.00322155
0.0032371
0.00325192
0.00326599
0.00327932
0.0032919
0.00330374
0.00331485
0.00332522
0.00333487
0.00334379
0.00335201
0.00335957
0.00336637
0.0033724
0.00337777
0.00338244
0.00338631
0.00338948
0.00339213
0.00339407
0.00339535
0.00339596
0.00339591
0.00339521
0.00339388
0.00339192
0.00338934
0.00338616
0.00338239
0.00337803
0.0033731
0.0033676
0.00336154
0.00335493
0.00334777
0.00334008
0.00333186
0.00332314
0.00331393
0.00330426
0.00329416
0.00328367
0.00327279
0.00326158
0.00325003
0.00323817
0.003226
0.00321356
0.00320084
0.00318789
0.00317472
0.00316138
0.00314787
0.00313423
0.00312047
0.00310658
0.00309254
0.00307832
0.00306381
0.0030489
0.00303329
0.00301619
0.00299554
0.00296588
5.26834e-08
7.07259e-07
6.91039e-06
2.98347e-05
6.56417e-05
0.000103523
0.000135726
0.000160801
0.000178975
0.000191706
0.000199264
0.000203321
0.000205111
0.00020549
0.000204977
0.000203887
0.000202398
0.000200527
0.000198125
0.000194954
0.000190888
0.000185868
0.000179976
0.000172802
0.000155699
0.000139198
0.000124156
0.000110129
9.7025e-05
8.47384e-05
7.42139e-05
6.81981e-05
7.0249e-05
8.10491e-05
9.47165e-05
0.000121845
0.00014663
0.000157174
0.000163273
0.000167352
0.000173706
0.000185746
0.000193111
0.000204599
0.000226053
0.000255413
0.000293763
0.000339614
0.000393681
0.000455058
0.000523061
0.00059594
0.000671912
0.000750111
0.00082946
0.000909474
0.000989322
0.00106857
0.00114675
0.0012231
0.00129768
0.00137124
0.00144257
0.00151207
0.00157953
0.00164507
0.00170873
0.00177057
0.00183069
0.00188916
0.00194608
0.00200155
0.00205564
0.00210844
0.00216002
0.00221043
0.00225971
0.0023079
0.00235504
0.00240116
0.00244628
0.00249043
0.00253362
0.00257589
0.00261725
0.00265772
0.00269732
0.00273606
0.00277397
0.00281105
0.00284733
0.00288282
0.00291752
0.00295144
0.0029846
0.00301699
0.00304862
0.00307947
0.00310955
0.0031389
0.00316752
0.0031954
0.00322255
0.00324895
0.00327461
0.00329952
0.00332367
0.00334707
0.0033697
0.00339157
0.00341266
0.00343299
0.00345255
0.00347133
0.00348934
0.00350657
0.00352304
0.00353872
0.00355364
0.00356779
0.00358117
0.00359379
0.00360565
0.00361676
0.00362713
0.00363675
0.00364565
0.00365388
0.00366129
0.00366795
0.00367392
0.00367919
0.00368363
0.00368742
0.00369061
0.00369309
0.00369486
0.00369595
0.00369636
0.00369612
0.00369523
0.00369369
0.00369152
0.00368874
0.00368534
0.00368135
0.00367676
0.00367159
0.00366585
0.00365953
0.00365264
0.0036452
0.00363722
0.0036287
0.00361968
0.00361017
0.00360021
0.00358982
0.00357902
0.00356784
0.00355629
0.0035444
0.00353217
0.00351961
0.00350676
0.00349362
0.00348024
0.00346663
0.00345283
0.00343886
0.00342474
0.00341047
0.00339604
0.00338145
0.00336675
0.00335175
0.00333624
0.00331959
0.00330022
0.00327412
1.95121e-07
1.74977e-06
1.61361e-05
5.22373e-05
9.58261e-05
0.000133999
0.000163567
0.000185425
0.000199918
0.000208303
0.000212706
0.000214206
0.000213813
0.000212322
0.000210274
0.000207967
0.000205477
0.000202723
0.000199476
0.000195702
0.000191234
0.000185888
0.000179444
0.000161634
0.000145351
0.000130536
0.000116416
0.00010372
9.38075e-05
8.96018e-05
9.11455e-05
9.24158e-05
0.000105214
0.0001281
0.000154662
0.000178148
0.000196567
0.000205013
0.000211369
0.000214305
0.000216743
0.000226845
0.000245107
0.000271676
0.000306982
0.000350172
0.000401133
0.00045893
0.000523482
0.000593697
0.000668298
0.000745695
0.000824743
0.000904785
0.00098517
0.00106544
0.00114509
0.00122357
0.00130044
0.00137645
0.00145081
0.00152356
0.00159451
0.00166373
0.0017312
0.00179696
0.00186107
0.00192359
0.00198456
0.00204406
0.00210217
0.00215896
0.0022145
0.00226883
0.00232203
0.00237411
0.00242509
0.00247499
0.00252384
0.00257164
0.00261841
0.00266416
0.0027089
0.00275266
0.00279545
0.00283731
0.00287826
0.00291836
0.00295757
0.0029959
0.00303336
0.00306997
0.00310575
0.00314071
0.00317486
0.00320821
0.00324076
0.00327253
0.00330354
0.00333378
0.00336326
0.00339197
0.00341992
0.00344711
0.00347352
0.00349916
0.00352403
0.00354812
0.00357144
0.00359397
0.00361572
0.00363669
0.00365687
0.00367627
0.00369489
0.00371273
0.00372979
0.00374607
0.00376158
0.00377632
0.00379029
0.00380349
0.00381594
0.00382763
0.00383857
0.00384877
0.00385828
0.00386707
0.00387505
0.00388231
0.00388888
0.00389474
0.00389979
0.00390423
0.00390802
0.0039111
0.0039135
0.00391522
0.00391628
0.00391668
0.00391644
0.00391556
0.00391406
0.00391194
0.00390922
0.00390589
0.00390198
0.00389749
0.00389242
0.00388678
0.00388056
0.00387378
0.00386645
0.00385858
0.00385019
0.00384131
0.00383195
0.00382215
0.00381192
0.00380128
0.00379025
0.00377884
0.00376706
0.00375492
0.00374245
0.00372967
0.0037166
0.00370327
0.00368971
0.00367595
0.00366199
0.00364786
0.00363356
0.00361909
0.00360444
0.00358955
0.00357427
0.00355815
0.00353992
0.00351688
4.14694e-07
3.85756e-06
3.00469e-05
7.80979e-05
0.000125979
0.000164206
0.000191115
0.000207758
0.000217624
0.00022196
0.000222247
0.000220118
0.000216735
0.000212866
0.000208953
0.000205175
0.00020147
0.00019771
0.00019355
0.00018903
0.000183773
0.000177944
0.000166154
0.000151927
0.000140105
0.000131014
0.000125762
0.000123367
0.000116051
0.000114684
0.000123313
0.000140095
0.000160618
0.000182044
0.000201565
0.000216793
0.000226221
0.000231892
0.000237279
0.000246575
0.000262445
0.000285557
0.000317191
0.000356717
0.000403691
0.0004573
0.000517135
0.000582567
0.000653062
0.000727457
0.000804486
0.000883006
0.000962264
0.00104176
0.00112103
0.00119975
0.00127702
0.0013534
0.00142871
0.00150255
0.00157484
0.00164556
0.00171466
0.00178219
0.00184819
0.00191271
0.00197582
0.00203756
0.00209798
0.00215707
0.00221497
0.00227173
0.0023274
0.00238203
0.00243567
0.00248837
0.00254026
0.00259122
0.00264113
0.00268996
0.00273772
0.00278439
0.00283
0.00287455
0.00291807
0.00296058
0.0030021
0.00304263
0.00308224
0.00312097
0.00315884
0.00319588
0.00323209
0.0032675
0.0033021
0.00333592
0.00336896
0.00340124
0.00343274
0.00346347
0.00349343
0.00352262
0.00355104
0.00357868
0.00360554
0.00363163
0.00365694
0.00368147
0.00370522
0.0037282
0.00375039
0.0037718
0.00379243
0.00381229
0.00383137
0.00384967
0.00386721
0.00388397
0.00389997
0.00391521
0.00392969
0.00394342
0.0039564
0.00396864
0.00398014
0.00399091
0.00400102
0.00401035
0.00401895
0.00402684
0.00403405
0.00404056
0.00404631
0.00405146
0.00405593
0.00405972
0.00406284
0.00406531
0.00406713
0.00406832
0.00406887
0.0040688
0.00406813
0.00406685
0.00406498
0.00406252
0.00405949
0.00405588
0.00405171
0.00404696
0.00404165
0.00403578
0.00402935
0.00402239
0.0040149
0.00400691
0.00399845
0.00398952
0.00398016
0.00397036
0.00396016
0.00394955
0.00393854
0.00392715
0.0039154
0.0039033
0.00389088
0.00387817
0.00386519
0.00385196
0.00383851
0.00382486
0.00381101
0.00379699
0.0037828
0.00376842
0.00375376
0.00373848
0.00372157
0.00370189
6.33537e-07
7.54257e-06
4.59903e-05
0.0001005
0.000149563
0.000186586
0.000211045
0.000224538
0.000229783
0.000229643
0.000226223
0.000221007
0.000215008
0.000208872
0.000202906
0.00019726
0.000191494
0.000185864
0.000179996
0.000173777
0.000167312
0.000160159
0.000151941
0.000143283
0.000135309
0.000129517
0.000127885
0.000131647
0.000140923
0.000154902
0.000171152
0.000188629
0.00020594
0.000221509
0.00023358
0.000242561
0.000251845
0.000262291
0.000277578
0.000298114
0.000326196
0.000361641
0.000404293
0.000453317
0.000508124
0.000568144
0.000632988
0.000702112
0.000774779
0.000849931
0.000926539
0.00100379
0.00108114
0.0011582
0.00123427
0.00130929
0.00138361
0.00145651
0.00152807
0.00159819
0.00166686
0.00173407
0.00179973
0.00186401
0.00192702
0.00198882
0.0020495
0.00210916
0.00216795
0.00222613
0.00228336
0.0023396
0.00239486
0.00244918
0.0025026
0.00255514
0.00260674
0.00265741
0.00270713
0.00275585
0.00280357
0.00285028
0.00289595
0.00294058
0.00298419
0.00302682
0.0030685
0.00310926
0.00314914
0.00318815
0.00322631
0.00326364
0.00330016
0.00333589
0.00337082
0.00340498
0.00343836
0.00347097
0.00350281
0.00353389
0.0035642
0.00359374
0.00362251
0.00365052
0.00367775
0.00370421
0.00372991
0.00375483
0.00377898
0.00380237
0.00382498
0.00384682
0.00386789
0.0038882
0.00390775
0.00392653
0.00394456
0.00396183
0.00397836
0.00399414
0.00400917
0.00402347
0.00403704
0.00404988
0.004062
0.00407343
0.00408415
0.00409415
0.00410345
0.00411206
0.00411999
0.00412724
0.00413381
0.00413976
0.00414503
0.00414965
0.00415362
0.00415695
0.00415966
0.00416175
0.00416323
0.00416412
0.00416441
0.00416411
0.00416325
0.00416181
0.00415981
0.00415726
0.00415415
0.00415048
0.00414625
0.00414146
0.00413612
0.00413024
0.00412385
0.00411696
0.00410958
0.00410174
0.00409346
0.00408473
0.00407558
0.00406599
0.00405599
0.00404558
0.00403478
0.00402361
0.00401209
0.00400024
0.00398808
0.00397565
0.00396295
0.00395001
0.00393685
0.0039235
0.00390998
0.00389629
0.0038824
0.00386806
0.0038524
0.0038356
7.96786e-07
1.31138e-05
6.36241e-05
0.000125103
0.000175193
0.000209219
0.000228676
0.00023721
0.000238324
0.000234708
0.000228328
0.000220566
0.000212328
0.000204206
0.000196073
0.000188582
0.000181395
0.000174557