/*--------------------------------*- C++ -*----------------------------------*\
  =========                 |
  \\      /  F ield         | OpenFOAM: The Open Source CFD Toolbox
   \\    /   O peration     | Website:  https://openfoam.org
    \\  /    A nd           | Version:  8
     \\/     M anipulation  |
\*---------------------------------------------------------------------------*/
FoamFile
{
    version     2.0;
    format      ascii;
    class       volScalarField;
    location    "1100";
    object      nut;
}
// * * * * * * * * * * * * * * * * * * * * * * * * * * * * * * * * * * * * * //

dimensions      [0 2 -1 0 0 0 0];

internalField   nonuniform List<scalar> 
12225
(
4.40358e-06
2.25893e-05
2.08131e-05
2.20277e-05
1.99641e-05
1.91554e-05
1.87984e-05
1.58693e-05
3.27646e-05
2.55057e-05
2.09682e-05
2.84191e-05
3.24535e-05
2.56349e-05
2.05494e-05
2.93441e-05
2.82807e-05
3.27209e-05
0.000175193
5.89629e-05
4.92175e-05
3.11893e-05
2.8232e-05
3.54503e-05
2.8183e-05
3.26909e-05
4.33286e-05
4.35668e-05
4.36328e-05
4.79395e-05
5.00528e-05
4.68442e-05
4.76466e-05
5.18859e-05
5.33972e-05
5.38432e-05
0.000680924
0.00030433
0.0002091
0.000122881
8.98656e-05
8.56736e-05
7.25859e-05
6.72883e-05
6.49245e-05
6.08366e-05
5.72918e-05
5.45988e-05
5.2769e-05
5.07249e-05
4.92905e-05
4.8692e-05
4.82994e-05
4.75444e-05
0.000808732
0.000689029
0.000508124
0.000363251
0.000299512
0.000267715
0.000236147
0.000210409
0.000193508
0.00017651
0.000164472
0.000151977
0.000143808
0.000134345
0.000128563
0.000121764
0.00011823
0.000112904
0.000844141
0.000818685
0.000736837
0.000631243
0.000576814
0.000534047
0.000495495
0.000454869
0.000425165
0.000393911
0.000371735
0.000346981
0.000330377
0.000310373
0.000298154
0.000282198
0.000274237
0.000261563
0.000851779
0.000845743
0.000824096
0.000783433
0.00075369
0.000727421
0.000702899
0.000671216
0.000645171
0.000614961
0.000591592
0.000564236
0.000543954
0.000519454
0.000502637
0.000481575
0.000469348
0.000451784
0.00085138
0.00085127
0.000846415
0.000836025
0.000825235
0.000814324
0.0008046
0.000789915
0.000776284
0.000758593
0.00074331
0.000724095
0.000708324
0.000688335
0.000673481
0.000654247
0.000642195
0.000625158
0.000851209
0.000851107
0.000849821
0.000846722
0.000842908
0.0008384
0.000833806
0.000828127
0.000822429
0.000813826
0.000805719
0.000794825
0.000785144
0.000772086
0.000761841
0.000747996
0.000738832
0.000725802
0.000851419
0.000850763
0.000850089
0.000848899
0.000847498
0.000845774
0.00084384
0.000841526
0.000838955
0.000835294
0.000831529
0.000826716
0.000821678
0.000814449
0.000808374
0.000799882
0.000793839
0.000785293
0.000851519
0.000850687
0.000849968
0.000849182
0.000848336
0.000847525
0.000846542
0.000845596
0.000844403
0.000843086
0.000841674
0.000839271
0.00083777
0.000835016
0.000831931
0.000827968
0.000824218
0.000819907
0.000851543
0.000850685
0.000849898
0.000849154
0.000848399
0.000847726
0.000847
0.000846358
0.000845637
0.000844931
0.000844268
0.000843252
0.000842432
0.000841241
0.000840083
0.00083843
0.000837016
0.000835093
0.000851543
0.000850682
0.000849877
0.000849113
0.000848382
0.000847691
0.000847029
0.000846396
0.000845795
0.000845192
0.000844656
0.000844045
0.000843498
0.000842848
0.000842255
0.00084152
0.000840876
0.000840093
0.000851542
0.000850679
0.000849867
0.000849093
0.000848361
0.000847661
0.000847
0.000846365
0.000845766
0.000845184
0.000844642
0.000844106
0.000843603
0.000843097
0.00084262
0.000842133
0.000841676
0.00084121
0.000851539
0.000850676
0.000849859
0.000849081
0.000848345
0.000847641
0.000846975
0.000846336
0.000845731
0.000845149
0.000844598
0.000844068
0.000843565
0.000843079
0.000842616
0.000842169
0.000841742
0.000841331
0.000851538
0.000850674
0.000849853
0.000849074
0.000848333
0.000847627
0.000846955
0.000846315
0.000845704
0.00084512
0.000844564
0.000844032
0.000843523
0.000843037
0.000842572
0.000842127
0.000841701
0.000841293
0.000851537
0.000850673
0.000849851
0.000849069
0.000848326
0.000847618
0.000846943
0.0008463
0.000845687
0.000845101
0.000844541
0.000844007
0.000843496
0.000843007
0.000842539
0.000842092
0.000841663
0.000841254
0.000851538
0.000850676
0.000849855
0.000849073
0.00084833
0.000847622
0.000846947
0.000846303
0.000845688
0.000845101
0.00084454
0.000844004
0.000843492
0.000843001
0.000842532
0.000842083
0.000841654
0.000841242
0.000851538
0.000850677
0.000849854
0.000849074
0.000848328
0.000847621
0.000846943
0.0008463
0.000845683
0.000845097
0.000844534
0.000843998
0.000843483
0.000842993
0.000842522
0.000842073
0.000841642
0.000841229
0.000851537
0.000850673
0.000849851
0.000849067
0.000848323
0.000847612
0.000846936
0.00084629
0.000845675
0.000845085
0.000844524
0.000843985
0.000843472
0.000842979
0.000842509
0.000842059
0.000841628
0.000841215
0.000851537
0.000850674
0.000849852
0.000849071
0.000848325
0.000847618
0.000846941
0.000846297
0.000845681
0.000845094
0.000844531
0.000843995
0.00084348
0.000842989
0.000842518
0.000842067
0.000841635
0.000841223
0.000851537
0.000850676
0.000849854
0.000849076
0.000848332
0.000847627
0.000846952
0.00084631
0.000845693
0.000845106
0.000844538
0.000843998
0.000843474
0.000842975
0.000842491
0.000842033
0.000841586
0.000841164
0.000851534
0.000850683
0.000849855
0.000849086
0.000848343
0.000847642
0.000846966
0.000846313
0.000845665
0.000845038
0.0008444
0.000843781
0.00084315
0.000842553
0.000841942
0.000841385
0.000840805
0.000840289
0.000851522
0.000850711
0.000849833
0.000849111
0.000848344
0.000847601
0.000846877
0.000845957
0.000845041
0.000843987
0.000842793
0.000841501
0.000840143
0.00083878
0.000837392
0.000836152
0.000834809
0.000833743
0.000851532
0.00085083
0.000849707
0.000849014
0.000847793
0.000846455
0.000844963
0.000841914
0.000839812
0.000835944
0.000831648
0.000826897
0.000822226
0.000817438
0.000813077
0.000809115
0.000805355
0.000802285
0.00085211
0.000851307
0.00084867
0.000845338
0.000840117
0.000835071
0.000827778
0.000818079
0.000805936
0.000792014
0.0007779
0.000764562
0.000751443
0.000740703
0.000731261
0.00072464
0.000717432
0.000712265
0.000858124
0.000852998
0.0008356
0.000814957
0.000793486
0.000770956
0.00074326
0.000715104
0.00068339
0.000654425
0.000626302
0.000603989
0.00058346
0.000568411
0.000553997
0.000543858
0.000532712
0.000524943
0.000911072
0.000820611
0.000738018
0.000666285
0.000604052
0.000553162
0.000504956
0.000464337
0.000425279
0.000394256
0.000366416
0.000346165
0.000328085
0.000315526
0.000303387
0.000295127
0.000286103
0.000279989
0.00130211
0.000561359
0.000397306
0.00030999
0.000258585
0.000223828
0.000197589
0.000177874
0.000160883
0.000148422
0.000137636
0.0001302
0.000123576
0.000119149
0.00011488
0.000112032
0.00010919
0.000107036
0.000665675
0.000124708
8.33372e-05
7.02624e-05
6.40111e-05
6.0582e-05
5.84641e-05
5.70516e-05
5.61729e-05
5.57756e-05
5.58945e-05
5.65787e-05
5.76542e-05
5.89339e-05
6.05073e-05
6.22006e-05
6.31987e-05
6.33947e-05
9.50266e-06
1.51526e-05
1.90238e-05
2.12498e-05
2.24837e-05
2.29421e-05
2.30947e-05
2.30593e-05
2.28341e-05
2.2543e-05
2.22266e-05
2.19081e-05
2.16041e-05
2.1322e-05
2.10659e-05
2.08358e-05
2.06313e-05
2.04533e-05
1.6539e-12
1.86936e-10
9.51605e-10
3.73991e-09
1.24552e-08
3.78537e-08
9.81103e-08
1.94039e-07
3.13377e-07
4.38613e-07
5.50836e-07
6.37151e-07
6.94733e-07
7.15154e-07
7.0535e-07
6.75662e-07
6.20893e-07
5.29347e-07
4.50616e-07
3.82702e-07
3.18351e-07
2.55847e-07
1.95632e-07
1.39815e-07
9.04574e-08
5.25282e-08
2.76557e-08
1.38407e-08
7.02577e-09
3.82387e-09
2.33071e-09
1.79357e-09
2.13246e-09
4.56971e-09
1.04163e-08
6.31182e-08
1.42436e-07
3.0579e-07
4.48867e-07
4.73461e-07
4.31424e-07
3.43202e-07
2.85584e-07
2.83608e-07
3.12494e-07
4.31549e-07
5.97539e-07
1.25195e-06
2.89101e-06
8.73266e-06
2.10034e-05
3.25515e-05
3.80362e-05
4.04266e-05
4.27453e-05
4.3785e-05
4.2825e-05
3.2526e-05
3.27946e-05
3.3512e-05
3.47077e-05
3.60338e-05
3.11176e-05
3.31859e-05
3.35588e-05
3.42021e-05
3.47796e-05
3.53901e-05
3.59327e-05
3.652e-05
3.70556e-05
3.76149e-05
3.81465e-05
3.86863e-05
3.92119e-05
3.97392e-05
4.02583e-05
4.07771e-05
4.12904e-05
4.18031e-05
4.23116e-05
4.28199e-05
4.33246e-05
4.38294e-05
4.4331e-05
4.48329e-05
4.53315e-05
4.58304e-05
4.63269e-05
4.68234e-05
4.73178e-05
4.78099e-05
4.82989e-05
4.8785e-05
4.92675e-05
4.97465e-05
5.02219e-05
5.06953e-05
5.11691e-05
5.16484e-05
5.21411e-05
5.26321e-05
5.31275e-05
5.36276e-05
5.41333e-05
5.46451e-05
5.51634e-05
5.56888e-05
5.62218e-05
5.67628e-05
5.73128e-05
5.78719e-05
5.84413e-05
5.90213e-05
5.96132e-05
6.02173e-05
6.08351e-05
6.1467e-05
6.21147e-05
6.27788e-05
6.34611e-05
6.41623e-05
6.48843e-05
6.56284e-05
6.63961e-05
6.7189e-05
6.80085e-05
6.88597e-05
6.97552e-05
7.06927e-05
7.16325e-05
7.26492e-05
7.36835e-05
7.47923e-05
7.59616e-05
7.71918e-05
7.83874e-05
7.81427e-05
7.78893e-05
7.76209e-05
7.73417e-05
7.70507e-05
7.67489e-05
7.64368e-05
7.61146e-05
7.57832e-05
7.54486e-05
7.50931e-05
7.47463e-05
7.43709e-05
7.40107e-05
7.36167e-05
7.32384e-05
7.28397e-05
7.244e-05
7.20351e-05
7.1625e-05
7.12118e-05
7.07953e-05
7.03767e-05
6.99565e-05
6.95351e-05
6.91131e-05
6.86906e-05
6.82686e-05
6.78471e-05
6.74277e-05
6.70104e-05
6.65966e-05
6.61862e-05
6.57801e-05
6.53772e-05
6.49776e-05
6.45777e-05
6.41743e-05
6.37589e-05
6.33222e-05
6.28333e-05
6.22377e-05
6.06408e-05
7.17095e-12
1.1585e-09
1.56919e-08
8.39121e-08
3.60714e-07
1.21475e-06
2.77078e-06
5.05017e-06
7.81977e-06
1.0971e-05
1.41543e-05
1.70932e-05
1.95832e-05
2.14437e-05
2.25326e-05
2.28506e-05
2.24868e-05
2.16886e-05
1.93315e-05
1.61471e-05
1.24038e-05
9.09053e-06
6.38223e-06
4.27838e-06
2.68699e-06
1.6544e-06
1.00913e-06
6.24817e-07
3.92062e-07
2.57603e-07
1.87423e-07
1.67726e-07
1.6402e-07
3.16889e-07
4.93168e-07
3.68236e-06
8.15954e-06
1.60425e-05
2.1671e-05
2.32975e-05
2.185e-05
1.92461e-05
1.67357e-05
1.58485e-05
1.66258e-05
1.73598e-05
2.1119e-05
2.91956e-05
4.04626e-05
5.159e-05
6.27405e-05
7.16308e-05
7.89945e-05
8.70838e-05
9.87365e-05
0.000109635
0.000121248
0.000131048
0.000143377
0.000162235
0.000174648
0.000189904
0.000197758
0.000212024
0.000223602
0.000235337
0.000246635
0.000257411
0.000267888
0.000277962
0.000287789
0.000297307
0.00030662
0.000315701
0.000324613
0.000333344
0.000341934
0.000350377
0.000358697
0.000366892
0.000374976
0.000382951
0.000390823
0.000398594
0.000406269
0.00041385
0.000421338
0.000428737
0.000436045
0.000443264
0.000450393
0.000457426
0.000464354
0.000471167
0.000477844
0.000484358
0.000490667
0.000496709
0.000502387
0.000507577
0.000512123
0.000516683
0.000521048
0.000525332
0.000529475
0.000533504
0.000537402
0.000541173
0.000544811
0.000548315
0.000551681
0.000554908
0.000557994
0.000560935
0.00056373
0.000566376
0.000568873
0.000571218
0.000573411
0.000575449
0.000577333
0.00057906
0.00058063
0.000582041
0.000583293
0.000584383
0.000585308
0.000586066
0.000586658
0.00058711
0.000587378
0.00058753
0.000587402
0.000587211
0.000586935
0.00058667
0.000586401
0.000586289
0.000586011
0.000585595
0.000585044
0.000584361
0.000583547
0.000582603
0.000581524
0.000580372
0.000578961
0.000577813
0.000576053
0.000574713
0.000572719
0.000571122
0.000569009
0.00056696
0.000564814
0.000562534
0.000560194
0.000557756
0.000555254
0.000552677
0.000550042
0.000547346
0.000544596
0.000541791
0.000538935
0.000536033
0.000533091
0.000530115
0.000527111
0.000524083
0.000521031
0.00051795
0.000514843
0.000511655
0.000508348
0.00050484
0.000501006
0.00049653
0.000490678
0.000474475
1.93289e-11
3.31693e-09
6.25861e-08
3.79875e-07
1.04997e-06
2.99163e-06
6.30119e-06
1.09339e-05
1.66516e-05
2.31418e-05
3.00323e-05
3.68662e-05
4.30195e-05
4.81361e-05
5.20024e-05
5.45443e-05
5.58967e-05
5.61934e-05
5.45951e-05
5.16599e-05
4.689e-05
4.08444e-05
3.35826e-05
2.63377e-05
1.97149e-05
1.40389e-05
9.51064e-06
6.32357e-06
4.00857e-06
2.66906e-06
1.90033e-06
1.54521e-06
1.29724e-06
2.3305e-06
4.54669e-06
1.84124e-05
3.81627e-05
5.60129e-05
6.4408e-05
6.17519e-05
4.93183e-05
4.06916e-05
4.07323e-05
4.74028e-05
5.4894e-05
6.49185e-05
7.77052e-05
9.02723e-05
0.000103408
0.000120615
0.000138801
0.000159384
0.000182363
0.000209291
0.00023944
0.000269774
0.000300745
0.000331853
0.000362397
0.000393166
0.00042124
0.000448605
0.000473794
0.00049963
0.000523334
0.00054647
0.000568519
0.000589797
0.00061041
0.000630395
0.000649884
0.000668894
0.000687517
0.000705769
0.000723707
0.000741342
0.00075871
0.00077582
0.000792692
0.000809332
0.000825751
0.000841955
0.00085795
0.000873738
0.000889322
0.000904702
0.000919877
0.000934845
0.000949602
0.000964143
0.000978459
0.000992533
0.00100635
0.00101987
0.00103308
0.00104595
0.00105841
0.00107045
0.00108201
0.00109308
0.0011038
0.00111436
0.00112461
0.00113464
0.00114438
0.00115387
0.00116307
0.00117199
0.00118062
0.00118895
0.00119699
0.00120472
0.00121214
0.00121924
0.00122603
0.00123249
0.00123863
0.00124444
0.00124992
0.00125506
0.00125987
0.00126435
0.00126848
0.00127228
0.00127573
0.00127885
0.00128161
0.00128404
0.00128613
0.00128788
0.0012893
0.00129041
0.00129115
0.00129158
0.00129179
0.00129191
0.00129181
0.00129153
0.00129093
0.00129003
0.00128882
0.00128733
0.00128554
0.00128347
0.00128113
0.00127853
0.00127561
0.00127266
0.00126912
0.0012657
0.00126163
0.00125771
0.00125319
0.0012486
0.00124378
0.00123871
0.00123348
0.00122805
0.00122246
0.00121672
0.00121085
0.00120485
0.00119874
0.00119251
0.00118617
0.00117975
0.00117324
0.00116666
0.00116004
0.00115337
0.00114666
0.0011399
0.00113307
0.0011261
0.00111889
0.00111127
0.00110294
0.00109314
0.00108002
0.00105062
7.05997e-11
1.19246e-08
1.88503e-07
8.24838e-07
2.53624e-06
6.99092e-06
1.3825e-05
2.30066e-05
3.38325e-05
4.51996e-05
5.6177e-05
6.62292e-05
7.48083e-05
8.13243e-05
8.62166e-05
8.93179e-05
9.05558e-05
9.02849e-05
8.86342e-05
8.53862e-05
8.07245e-05
7.50801e-05
6.7586e-05
5.86662e-05
4.88442e-05
3.90123e-05
3.00121e-05
2.25259e-05
1.68105e-05
1.22249e-05
9.45566e-06
7.10096e-06
7.9003e-06
1.23953e-05
2.82012e-05
5.20166e-05
7.06297e-05
7.89604e-05
7.60546e-05
7.31653e-05
7.34855e-05
7.75455e-05
8.56864e-05
9.72125e-05
0.000111478
0.000123716
0.000144001
0.000166826
0.000193842
0.000226174
0.000261259
0.000300412
0.000342234
0.00038664
0.000432108
0.000477304
0.000522001
0.0005657
0.000608055
0.000648751
0.000687763
0.000725163
0.00076101
0.000795956
0.000829246
0.000861498
0.000892663
0.000922951
0.000952453
0.000981257
0.00100946
0.0010371
0.00106426
0.00109097
0.00111727
0.00114318
0.00116873
0.00119393
0.00121878
0.00124331
0.00126751
0.00129139
0.00131495
0.00133819
0.00136111
0.00138371
0.00140598
0.00142793
0.00144953
0.00147078
0.00149167
0.00151218
0.00153229
0.00155197
0.00157122
0.00159
0.0016083
0.0016261
0.00164343
0.0016603
0.00167678
0.00169292
0.00170866
0.00172401
0.00173896
0.0017535
0.00176761
0.00178129
0.00179453
0.00180733
0.00181967
0.00183155
0.00184297
0.00185391
0.00186437
0.00187435
0.00188385
0.00189286
0.00190137
0.00190939
0.00191691
0.00192394
0.00193047
0.0019365
0.00194203
0.00194706
0.00195159
0.00195562
0.00195917
0.00196223
0.00196479
0.0019669
0.0019685
0.00196962
0.00197045
0.00197095
0.00197105
0.00197074
0.00196999
0.00196879
0.00196716
0.00196509
0.0019626
0.00195969
0.00195638
0.00195267
0.00194857
0.00194417
0.00193925
0.00193411
0.00192841
0.00192254
0.00191611
0.00190943
0.0019024
0.00189504
0.0018874
0.00187949
0.00187133
0.00186294
0.00185435
0.00184556
0.0018366
0.00182747
0.00181819
0.00180876
0.00179921
0.00178957
0.00177984
0.00177006
0.00176022
0.00175031
0.0017403
0.00173011
0.00171962
0.0017086
0.00169667
0.00168272
0.00166437
0.00162951
2.4059e-10
3.57774e-08
4.21436e-07
1.97958e-06
6.85713e-06
1.64354e-05
3.04052e-05
4.69899e-05
6.42706e-05
8.05346e-05
9.46099e-05
0.000105518
0.000113615
0.000119193
0.000122273
0.000123432
0.000122934
0.000121052
0.00011799
0.000113738
0.000108309
0.000102244
9.47546e-05
8.59846e-05
7.58543e-05
6.47039e-05
5.3396e-05
4.31938e-05
3.48078e-05
2.80298e-05
2.24328e-05
2.11761e-05
2.71478e-05
4.57021e-05
7.00399e-05
8.53632e-05
9.27712e-05
9.60936e-05
9.89731e-05
0.000104335
0.000113629
0.000127735
0.000140219
0.000153655
0.000175972
0.000205116
0.000237899
0.000276819
0.000320378
0.000368244
0.000418624
0.000471752
0.000526191
0.000581409
0.00063638
0.000690487
0.000743378
0.000794825
0.000844753
0.000892669
0.000939354
0.000984483
0.00102804
0.00107028
0.00111116
0.00115093
0.00118965
0.00122746
0.00126446
0.00130072
0.00133632
0.00137131
0.00140575
0.00143967
0.0014731
0.00150606
0.00153856
0.00157062
0.00160223
0.00163341
0.00166416
0.00169448
0.00172437
0.00175382
0.00178284
0.00181142
0.00183955
0.00186723
0.00189445
0.0019212
0.00194747
0.00197324
0.00199851
0.00202325
0.00204746
0.00207114
0.00209427
0.00211687
0.00213895
0.00216053
0.00218162
0.00220222
0.00222232
0.00224191
0.00226097
0.0022795
0.00229748
0.00231491
0.00233177
0.00234806
0.00236376
0.00237889
0.00239341
0.00240735
0.00242067
0.0024334
0.00244551
0.00245701
0.00246789
0.00247816
0.00248781
0.00249684
0.00250526
0.00251306
0.00252024
0.00252682
0.00253278
0.00253814
0.0025429
0.00254706
0.00255061
0.0025536
0.00255596
0.00255772
0.00255915
0.00256004
0.00256041
0.00256024
0.00255953
0.00255828
0.00255649
0.00255417
0.00255133
0.00254798
0.00254414
0.00253979
0.00253497
0.0025297
0.00252392
0.00251771
0.00251098
0.00250386
0.00249621
0.00248816
0.00247969
0.00247081
0.00246157
0.00245198
0.00244208
0.00243188
0.00242142
0.00241071
0.00239977
0.00238861
0.00237724
0.00236569
0.00235397
0.00234213
0.00233017
0.00231811
0.00230596
0.00229372
0.00228137
0.00226882
0.00225595
0.00224255
0.0022282
0.00221181
0.00219062
0.00215554
7.66522e-10
8.76142e-08
1.05424e-06
5.35139e-06
1.73725e-05
3.65471e-05
5.94904e-05
8.28408e-05
0.000103174
0.000119192
0.000131088
0.000139804
0.00014517
0.000148061
0.000148989
0.000148338
0.000146364
0.000143259
0.000139169
0.000134054
0.000128038
0.000121433
0.000113649
0.000104793
9.38701e-05
7.8162e-05
6.29579e-05
4.87775e-05
3.70151e-05
3.22729e-05
3.37178e-05
4.64287e-05
6.89577e-05
9.06793e-05
0.000105686
0.000114749
0.000120652
0.000127246
0.000138029
0.000154879
0.000165463
0.000179464
0.000203361
0.000232861
0.000269001
0.000311882
0.000359512
0.000412328
0.000468195
0.000526712
0.000586733
0.000647942
0.000709436
0.000770724
0.000831254
0.000890711
0.000948513
0.0010049
0.00106025
0.00111385
0.00116602
0.00121669
0.00126597
0.00131398
0.00136077
0.00140648
0.0014512
0.00149502
0.00153802
0.00158027
0.00162182
0.00166273
0.00170303
0.00174275
0.0017819
0.0018205
0.00185856
0.00189608
0.00193306
0.00196951
0.00200542
0.00204079
0.00207562
0.00210991
0.00214365
0.00217684
0.00220948
0.00224155
0.00227306
0.002304
0.00233437
0.00236415
0.00239333
0.00242191
0.00244989
0.00247725
0.00250402
0.00253019
0.00255578
0.00258077
0.00260519
0.00262901
0.00265222
0.00267483
0.00269681
0.00271815
0.00273886
0.00275892
0.00277832
0.00279705
0.00281511
0.00283248
0.00284917
0.00286518
0.00288049
0.00289512
0.00290904
0.00292227
0.00293481
0.00294664
0.00295778
0.00296823
0.00297798
0.00298705
0.00299542
0.00300312
0.00301013
0.00301648
0.00302219
0.00302717
0.0030315
0.00303521
0.00303819
0.00304055
0.00304248
0.00304379
0.00304448
0.00304457
0.00304406
0.00304294
0.00304124
0.00303895
0.00303609
0.00303266
0.00302867
0.00302412
0.00301905
0.00301344
0.0030073
0.00300064
0.00299345
0.00298576
0.00297753
0.00296882
0.00295964
0.00295
0.00293993
0.00292947
0.00291864
0.00290747
0.00289598
0.00288419
0.00287212
0.00285979
0.00284721
0.0028344
0.00282139
0.00280821
0.00279488
0.00278143
0.00276788
0.00275421
0.00274041
0.00272643
0.00271215
0.00269739
0.00268177
0.00266434
0.00264249
0.00260944
2.46355e-09
2.24457e-07
2.79224e-06
1.45741e-05
3.78715e-05
6.71249e-05
9.48801e-05
0.000117505
0.00013469
0.000147422
0.000156307
0.000161728
0.000164575
0.000165489
0.000164902
0.000163098
0.000160264
0.000156494
0.000151741
0.000145929
0.000139287
0.000131605
0.000122591
0.000106487
9.09735e-05
7.72873e-05
6.5208e-05
5.68352e-05
5.63366e-05
6.48161e-05
7.78793e-05
0.000102893
0.00012073
0.000133511
0.000142848
0.000151155
0.000162427
0.000179627
0.000188371
0.000201986
0.000224964
0.000253535
0.000289868
0.000332558
0.000381868
0.000436511
0.00049483
0.000556254
0.000619453
0.000684021
0.000749248
0.000814743
0.000879988
0.000944644
0.0010081
0.0010704
0.00113196
0.00119198
0.00125071
0.00130802
0.001364
0.00141867
0.00147209
0.00152433
0.00157548
0.00162561
0.00167481
0.00172313
0.00177064
0.00181741
0.00186346
0.00190884
0.00195357
0.00199767
0.00204114
0.00208399
0.00212623
0.00216784
0.00220883
0.00224918
0.00228891
0.00232799
0.00236644
0.00240425
0.00244141
0.00247793
0.0025138
0.00254902
0.00258359
0.00261751
0.00265078
0.00268338
0.00271533
0.00274661
0.00277721
0.00280715
0.00283641
0.002865
0.0028929
0.00292013
0.0029467
0.0029726
0.00299782
0.00302235
0.00304619
0.00306932
0.00309175
0.00311346
0.00313446
0.00315473
0.00317429
0.00319313
0.00321122
0.00322858
0.00324519
0.00326105
0.00327618
0.00329055
0.00330418
0.00331706
0.0033292
0.00334061
0.00335127
0.00336121
0.00337041
0.0033789
0.00338666
0.00339374
0.00340014
0.00340572
0.00341066
0.00341493
0.00341842
0.0034213
0.00342365
0.00342534
0.00342637
0.00342676
0.00342652
0.00342565
0.00342415
0.00342205
0.00341935
0.0034161
0.00341229
0.00340791
0.00340296
0.00339745
0.00339139
0.00338477
0.0033776
0.00336988
0.00336162
0.00335284
0.00334355
0.00333377
0.00332353
0.00331286
0.00330179
0.00329033
0.00327851
0.00326636
0.00325389
0.00324111
0.00322805
0.00321471
0.00320115
0.00318737
0.00317342
0.00315931
0.00314507
0.0031307
0.00311619
0.0031015
0.00308657
0.00307124
0.0030552
0.00303771
0.00301674
0.00298675
7.42007e-09
5.94129e-07
7.52075e-06
3.10614e-05
6.51893e-05
9.93029e-05
0.00012753
0.000148352
0.000162611
0.000171301
0.000175696
0.000177464
0.000177509
0.000176221
0.000173917
0.000170755
0.0001667
0.000161658
0.000155734
0.000149075
0.00014152
0.000132651
0.00011538
9.85663e-05
8.45391e-05
7.51135e-05
7.25103e-05
7.66937e-05
8.70222e-05
0.000107999
0.00013333
0.000156162
0.000170018
0.000179989
0.000191595
0.000201509
0.000208798
0.000221806
0.000242197
0.000268748
0.000303082
0.000343818
0.000391577
0.0004451
0.000503656
0.000565686
0.000630021
0.000696045
0.000763029
0.000830596
0.0008983
0.000965826
0.00103263
0.00109853
0.001164
0.00122834
0.00129157
0.00135355
0.00141433
0.00147388
0.00153224
0.00158944
0.00164552
0.00170054
0.00175456
0.00180763
0.00185983
0.00191119
0.00196178
0.00201163
0.00206077
0.00210924
0.00215705
0.00220419
0.00225066
0.00229647
0.0023416
0.00238605
0.00242979
0.00247283
0.00251516
0.00255677
0.00259766
0.00263783
0.00267728
0.002716
0.002754
0.00279129
0.00282786
0.00286372
0.00289887
0.00293331
0.00296704
0.00300006
0.00303236
0.00306395
0.00309481
0.00312493
0.00315433
0.00318302
0.00321101
0.00323828
0.00326482
0.00329065
0.00331573
0.00334008
0.00336369
0.00338654
0.00340863
0.00342997
0.00345053
0.00347033
0.00348935
0.00350761
0.00352508
0.00354179
0.00355772
0.00357288
0.00358727
0.00360089
0.00361375
0.00362585
0.0036372
0.00364779
0.00365764
0.00366676
0.00367514
0.00368287
0.00368981
0.00369599
0.0037015
0.00370632
0.00371034
0.0037138
0.00371664
0.00371881
0.00372032
0.00372117
0.00372138
0.00372096
0.00371991
0.00371825
0.00371598
0.0037131
0.00370964
0.00370559
0.00370096
0.00369576
0.00368999
0.00368365
0.00367675
0.00366928
0.00366126
0.00365269
0.0036436
0.003634
0.00362393
0.00361339
0.00360242
0.00359105
0.00357928
0.00356715
0.00355466
0.00354183
0.00352868
0.00351523
0.00350151
0.00348755
0.00347337
0.00345901
0.00344449
0.00342982
0.003415
0.00340001
0.00338482
0.00336933
0.00335345
0.00333648
0.00331683
0.00329045
1.93184e-08
1.47685e-06
1.66844e-05
5.21278e-05
9.27383e-05
0.000127126
0.000152976
0.000170305
0.000181107
0.000186661
0.000188375
0.000187375
0.000184617
0.000180822
0.000176381
0.000171402
0.000165814
0.000159644
0.000152828
0.000145497
0.00013744
0.000125844
0.000113727
0.000106764
0.000102015
9.79633e-05
0.000102642
0.000117806
0.000137622
0.000158915
0.00017895
0.000195501
0.000207309
0.000216265
0.000225646
0.000237997
0.000256181
0.000280061
0.000311209
0.000348924
0.000393426
0.000443836
0.000499849
0.000560247
0.000623941
0.000689739
0.000756886
0.000824912
0.000893375
0.000961966
0.00103035
0.00109796
0.00116524
0.00123193
0.00129771
0.00136248
0.00142619
0.00148881
0.00155034
0.00161077
0.00167013
0.00172845
0.00178576
0.00184212
0.00189757
0.00195216
0.00200592
0.00205892
0.00211118
0.00216276
0.00221367
0.00226393
0.00231356
0.00236253
0.00241083
0.00245844
0.00250535
0.00255153
0.00259697
0.00264166
0.00268558
0.00272871
0.00277107
0.00281265
0.00285348
0.00289359
0.00293292
0.00297147
0.00300925
0.00304626
0.00308251
0.003118
0.00315273
0.00318672
0.00321995
0.00325244
0.00328418
0.0033152
0.00334548
0.00337503
0.00340384
0.00343191
0.00345924
0.0034858
0.00351161
0.00353666
0.00356094
0.00358445
0.00360718
0.00362914
0.00365031
0.00367069
0.00369029
0.00370911
0.00372714
0.00374438
0.00376085
0.00377653
0.00379145
0.00380559
0.00381896
0.00383158
0.00384344
0.00385455
0.00386492
0.00387455
0.00388348
0.00389173
0.00389917
0.00390591
0.00391197
0.00391733
0.00392191
0.00392595
0.00392933
0.00393205
0.00393411
0.00393554
0.00393632
0.00393648
0.00393603
0.00393497
0.0039333
0.00393105
0.00392821
0.0039248
0.00392081
0.00391625
0.00391113
0.00390545
0.00389919
0.00389238
0.00388501
0.00387709
0.00386865
0.00385969
0.00385024
0.00384032
0.00382996
0.00381916
0.00380795
0.00379635
0.00378437
0.00377202
0.00375931
0.00374627
0.00373293
0.00371932
0.00370545
0.00369137
0.00367709
0.00366264
0.00364802
0.00363323
0.00361827
0.00360306
0.00358749
0.00357109
0.00355261
0.00352935
4.30352e-08
3.4091e-06
3.00355e-05
7.5812e-05
0.000120044
0.000153862
0.000175937
0.000189801
0.000196394
0.000197549
0.000195177
0.000190667
0.000184956
0.000178621
0.000171912
0.000164717
0.000157317
0.000149199
0.000141152
0.000132776
0.00012413
0.000116288
0.000111121
0.000110949
0.000117263
0.000129408
0.000145494
0.000163283
0.000181478
0.000198622
0.000212953
0.000224475
0.000236584
0.000249952
0.00026698
0.000288503
0.000316376
0.000350477
0.000391002
0.000437355
0.000489215
0.000545867
0.000606625
0.000670417
0.000736273
0.000803389
0.00087125
0.000939506
0.00100786
0.00107578
0.00114324
0.00121062
0.00127719
0.00134299
0.00140789
0.00147183
0.00153478
0.00159672
0.00165766
0.00171759
0.00177653
0.00183454
0.00189165
0.00194791
0.00200337
0.00205808
0.00211206
0.0021653
0.00221792
0.00226993
0.00232137
0.00237225
0.00242258
0.0024724
0.00252178
0.00257057
0.00261865
0.00266595
0.00271246
0.00275814
0.00280299
0.00284699
0.00289013
0.00293242
0.00297385
0.00301441
0.00305415
0.0030931
0.00313128
0.0031687
0.00320537
0.00324129
0.00327647
0.00331091
0.00334462
0.00337759
0.00340983
0.00344134
0.00347212
0.00350216
0.00353145
0.00355998
0.00358777
0.00361479
0.00364104
0.00366653
0.00369125
0.00371518
0.00373834
0.00376072
0.00378231
0.00380312
0.00382314
0.00384237
0.00386082
0.00387849
0.00389539
0.0039115
0.00392685
0.00394144
0.00395527
0.00396835
0.00398069
0.00399229
0.00400315
0.0040133
0.00402278
0.00403152
0.00403951
0.00404683
0.00405346
0.00405941
0.00406465
0.00406931
0.00407332
0.00407667
0.0040794
0.00408149
0.00408297
0.00408385
0.00408412
0.0040838
0.00408291
0.00408144
0.0040794
0.0040768
0.00407365
0.00406994
0.00406568
0.00406087
0.00405551
0.00404959
0.00404311
0.0040361
0.00402855
0.0040205
0.00401196
0.00400295
0.00399347
0.00398356
0.00397322
0.00396246
0.00395129
0.00393973
0.00392779
0.00391549
0.00390286
0.00388991
0.00387669
0.0038632
0.00384949
0.00383557
0.00382146
0.00380718
0.00379273
0.00377809
0.00376319
0.00374769
0.00373056
0.00371071
8.17608e-08
6.96855e-06
4.43293e-05
9.64033e-05
0.000142213
0.000174887
0.000195159
0.000204707
0.000206802
0.000204005
0.000198198
0.000190679
0.000182276
0.00017329
0.00016454
0.000155704
0.000147656
0.000140542
0.000134961
0.000130746
0.000128806
0.000130127
0.000135161
0.000144001
0.000156083
0.000170498
0.000186109
0.000201884
0.000216461
0.000229113
0.000242542
0.000257729
0.000274739
0.000294922
0.000320046
0.000350618
0.000387049
0.000428993
0.000476158
0.000528031
0.000584161
0.000643912
0.000706554
0.000771227
0.000837183
0.000903852
0.00097085
0.00103784
0.00110431
0.0011707
0.00123662
0.0013019
0.00136636
0.00142995
0.0014926
0.0015543
0.00161504
0.00167485
0.00173372
0.00179169
0.00184872
0.00190489
0.0019603
0.002015
0.00206906
0.00212257
0.00217566
0.00222856
0.00228099
0.0023329
0.0023843
0.0024352
0.0024856
0.00253548
0.00258477
0.00263343
0.00268145
0.00272874
0.00277528
0.00282106
0.00286601
0.00291013
0.00295339
0.00299581
0.00303739
0.00307817
0.00311816
0.00315738
0.00319583
0.00323353
0.00327048
0.0033067
0.00334219
0.00337695
0.00341099
0.0034443
0.00347689
0.00350875
0.00353988
0.00357028
0.00359993
0.00362884
0.003657
0.00368441
0.00371105
0.00373694
0.00376205
0.00378639
0.00380996
0.00383276
0.00385477
0.003876
0.00389646
0.00391614
0.00393504
0.00395317
0.00397052
0.00398711
0.00400295
0.00401803
0.00403237
0.00404598
0.00405885
0.004071
0.00408244
0.00409318
0.00410324
0.00411258
0.00412122
0.00412919
0.00413649
0.00414313
0.00414912
0.0041545
0.00415924
0.00416334
0.00416684
0.00416973
0.00417202
0.00417373
0.00417486
0.00417543
0.00417543
0.00417489
0.0041738
0.00417217
0.00417
0.00416731
0.00416408
0.00416031
0.004156
0.00415114
0.00414574
0.00413981
0.00413336
0.00412641
0.00411897
0.00411106
0.00410269
0.00409387
0.00408461
0.00407491
0.00406479
0.00405425
0.0040433
0.00403197
0.00402027
0.00400823
0.00399587
0.00398322
0.00397031
0.00395715
0.00394377
0.0039302
0.00391646
0.00390255
0.00388845
0.00387391
0.00385805
0.00384112
1.30507e-07
1.18986e-05
6.02208e-05
0.000118203
0.000164249
0.000194716
0.000210919
0.000216554
0.000215125
0.00020932
0.000201109
0.000191529
0.000181985
0.000172816
0.000164828
0.000157933
0.000152696
0.000149718
0.000148809
0.000150226
0.000154236
0.000160885
0.000169973
0.000181111
0.000193782
0.000207397
0.000220893
0.000233536
0.000247016
0.00026292
0.000280649
0.000300144
0.000323418
0.00035108
0.000383723
0.000421344