/*--------------------------------*- C++ -*----------------------------------*\
| =========                 |                                                 |
| \\      /  F ield         | OpenFOAM: The Open Source CFD Toolbox           |
|  \\    /   O peration     | Version:  v2012                                 |
|   \\  /    A nd           | Website:  www.openfoam.com                      |
|    \\/     M anipulation  |                                                 |
\*---------------------------------------------------------------------------*/
FoamFile
{
    version     2.0;
    format      ascii;
    class       volScalarField;
    location    "1100";
    object      omega;
}
// * * * * * * * * * * * * * * * * * * * * * * * * * * * * * * * * * * * * * //

dimensions      [0 0 -1 0 0 0 0];


internalField   nonuniform List<scalar> 
12225
(
38760.5
41518
43128.3
43937
44175.5
44120
43969.1
43693.3
43396.3
43110.4
42843.6
42597
42383.2
42179.4
42025.5
41853.8
41768.1
41614.1
3030.42
6733.15
9203.21
11298.4
12781
13756.5
14404.4
14823.3
15093.4
15327.4
15549.7
15788.8
16004.1
16223.1
16397.7
16568
16674.4
16705.7
585.489
1224.57
1747.18
2273.78
2735.6
3166.97
3480.35
3788.09
4012.89
4323.07
4551.58
4848.54
5051.65
5318.36
5483.58
5717.38
5837.76
6034.32
423.068
577
713.382
867.804
992.361
1129.15
1230.14
1350.3
1433.16
1548.85
1626.01
1735.68
1802.61
1903.27
1957.92
2048.2
2088.45
2172.3
434.782
462.435
503.745
555.936
595.197
642.785
677.667
723.441
755.189
799.155
828.332
870.486
896.336
935.934
957.761
994.299
1011.4
1045.89
437.308
440.703
449.316
465.664
477.79
494.525
506.526
523.963
536.425
554.398
566.745
584.709
596.231
613.676
623.792
640.483
648.764
664.791
437.973
436.973
437.282
439.664
442.162
446.559
449.602
454.939
458.702
465.026
469.42
476.448
481.086
488.404
492.853
500.199
504.158
511.461
438.751
436.69
435.064
434.324
433.842
434.153
434.549
435.511
436.118
437.705
438.898
441.329
442.937
445.871
447.651
450.868
452.62
456.117
438.944
436.772
434.682
433.028
431.5
430.325
429.284
428.554
427.871
427.567
427.445
427.511
427.657
428.057
428.413
429.28
429.765
431.004
438.986
436.799
434.664
432.743
430.908
429.258
427.685
426.301
424.981
423.848
422.778
421.949
421.113
420.559
419.913
419.624
419.131
419.091
438.995
436.792
434.669
432.691
430.79
429.025
427.321
425.75
424.227
422.841
421.485
420.284
419.093
418.071
417.033
416.176
415.281
414.571
438.999
436.784
434.666
432.673
430.765
428.97
427.248
425.63
424.072
422.614
421.206
419.893
418.622
417.442
416.299
415.241
414.215
413.268
439.001
436.778
434.663
432.661
430.754
428.947
427.224
425.592
424.032
422.553
421.139
419.799
418.516
417.299
416.133
415.028
413.969
412.964
439.001
436.775
434.66
432.653
430.745
428.933
427.209
425.57
424.009
422.523
421.107
419.759
418.472
417.247
416.076
414.96
413.894
412.877
439.001
436.773
434.657
432.648
430.738
428.923
427.197
425.555
423.991
422.502
421.084
419.732
418.442
417.213
416.04
414.92
413.851
412.83
439.001
436.772
434.655
432.644
430.733
428.916
427.187
425.543
423.977
422.486
421.065
419.711
418.419
417.187
416.011
414.889
413.818
412.795
439
436.769
434.651
432.638
430.725
428.906
427.176
425.53
423.962
422.469
421.046
419.689
418.396
417.162
415.984
414.861
413.788
412.763
439
436.769
434.651
432.637
430.724
428.905
427.174
425.526
423.958
422.463
421.039
419.682
418.388
417.153
415.974
414.85
413.776
412.75
439
436.771
434.654
432.642
430.729
428.91
427.179
425.532
423.964
422.47
421.046
419.688
418.394
417.159
415.98
414.855
413.781
412.755
439.001
436.772
434.655
432.643
430.731
428.913
427.183
425.536
423.968
422.474
421.051
419.693
418.399
417.165
415.987
414.862
413.789
412.763
439.001
436.772
434.657
432.645
430.735
428.917
427.188
425.542
423.975
422.482
421.062
419.706
418.416
417.184
416.01
414.889
413.821
412.8
439.002
436.773
434.661
432.649
430.742
428.922
427.197
425.552
423.997
422.516
421.118
419.783
418.523
417.315
416.177
415.086
414.064
413.081
439.001
436.772
434.67
432.661
430.768
428.951
427.257
425.657
424.202
422.851
421.622
420.465
419.402
418.381
417.471
416.588
415.828
415.067
438.963
436.759
434.767
432.831
431.073
429.457
428.083
426.919
426.167
425.641
425.334
425.14
424.984
424.93
424.969
425.088
425.285
425.397
438.587
436.813
435.944
434.652
434.374
434.646
435.103
436.227
438.806
441.516
444.809
447.694
450.912
453.598
456.742
459.349
462.571
465.108
436.318
438.431
443.801
447.882
454.691
462.111
472.547
483.54
496.67
508.792
521.781
532.812
544.465
554.059
564.614
573.154
583.036
590.684
419.849
464.872
499.677
523.906
563.704
601.17
643.056
682.459
724.452
760.86
798.464
829.059
861.193
886.331
914.102
935.106
959.761
977.514
398.57
673.688
847.729
1006.21
1166.1
1314.76
1461.61
1590.28
1715.98
1819.65
1922
2000.98
2082.69
2141.68
2208.05
2252.75
2308.51
2343.67
970.95
2468.9
3456.44
4383.82
5161.69
5787.18
6288.45
6680.93
7001.3
7251.03
7459.22
7613.96
7754.33
7850.05
7954.34
8018.14
8111.74
8165.01
20972.5
22180.8
23098.4
23777.4
24251
24575
24775.4
24900.7
24974.4
25006.7
25000
24981.6
24938.5
24885.4
24817.2
24749.7
24684.2
24621.3
11463.3
2495.07
2497.96
2501.23
2504.75
2508.52
2513.31
2519.75
2528.21
2538.51
2549.46
2560.55
2571.07
2580.64
2589.18
2596.57
2602.85
2607.91
2612.09
2614.54
2616.83
2617.75
2617.91
2615.95
2612.04
2605.93
2597.77
2588.22
2578.93
2572.42
2570.3
2571.71
2574.52
2577.53
2580.6
2583.72
2586.89
2590.05
2593.24
2597.22
2602.25
2610.78
2621.62
2631.42
2638.81
2642.05
2644.16
2644.9
2645.39
2646.42
2649.96
2656.65
2666.83
2672.98
2681.9
2697.1
2747.04
2920.88
3130.3
3326.33
3501.74
3659.64
3802.16
3932.96
4054.2
4168.6
4276.41
4375
4468.06
4554.83
4637.33
4715.41
4790.27
4862.02
4931.25
4998.19
5063.15
5126.29
5187.91
5247.99
5306.79
5364.27
5420.62
5475.78
5529.88
5582.88
5634.83
5685.72
5735.57
5784.34
5832.03
5878.61
5924.03
5968.27
6011.27
6053.02
6093.5
6132.72
6170.76
6207.81
6244.21
6279.68
6314.1
6347.58
6380.06
6411.57
6442.07
6471.56
6500.03
6527.46
6553.85
6579.19
6603.46
6626.66
6648.79
6669.84
6689.81
6708.7
6726.51
6743.24
6758.89
6773.49
6787.04
6799.55
6811.04
6821.53
6831.53
6839.51
6847
6853.43
6858.14
6861.9
6864.43
6865.92
6866.56
6866.28
6864.81
6862.4
6859.03
6854.72
6849.51
6843.41
6836.44
6828.62
6819.99
6810.56
6800.41
6789.68
6777.82
6765.75
6752.41
6739.06
6724.41
6709.96
6694.2
6678.89
6662.24
6646.28
6629
6612.39
6594.91
6577.59
6560
6542.31
6524.51
6506.67
6488.84
6471.08
6453.41
6435.85
6418.38
6400.95
6383.46
6365.78
6347.59
6328.41
6307.97
6289.64
6280.51
6184.6
11463.5
1999.17
1054.05
893.679
779.604
654.343
664.556
680.692
672.847
657.994
631.774
605.144
580.093
556.541
537.226
522.583
513.315
508.981
508.443
527.432
556.104
620.642
708.616
812.906
927.944
1043.82
1154.92
1245.32
1314.86
1330.73
1309.47
1245.43
1112.52
946.653
792.346
689.637
619.741
538.796
489.312
455.749
443.297
447.521
457.527
474.95
492.333
513.791
530.861
588.071
656.818
737.839
805.966
1077.95
1513.74
1900.16
2158.06
2303.64
2399.93
2453.58
2471.41
2452.43
2387.48
2318.01
2242.62
2175.39
2113.54
2061.43
2016.88
1980.76
1951.78
1929.32
1912.38
1899.99
1892.87
1886.63
1884.59
1883.21
1883.48
1885.9
1888.81
1892.78
1897.19
1902.14
1907.39
1912.91
1918.58
1924.36
1930.18
1935.99
1941.76
1947.45
1953.02
1958.45
1963.74
1968.88
1973.92
1978.9
1983.95
1989.25
1995.08
2001.88
2010.23
2018.75
2026.9
2034.91
2042.67
2050.21
2057.53
2064.62
2071.47
2078.11
2084.51
2090.68
2096.62
2102.33
2107.81
2113.06
2118.09
2122.89
2127.46
2131.81
2135.95
2139.87
2143.57
2147.07
2150.35
2153.43
2156.28
2158.79
2161.02
2162.74
2163.61
2164.29
2164.7
2164.89
2164.86
2164.62
2164.14
2163.43
2162.51
2161.37
2160.02
2158.47
2156.72
2154.79
2152.7
2150.49
2148.29
2144.74
2142.79
2138.68
2136.53
2132.02
2129.65
2124.81
2122.23
2117.12
2114.34
2109.01
2105.94
2100.79
2096.94
2092.45
2088.03
2083.55
2079.03
2074.49
2069.92
2065.35
2060.79
2056.25
2051.73
2047.26
2042.85
2038.51
2034.36
2030.49
2027.17
2025.91
2026.92
2041.44
11463.6
2047.87
830.011
638.8
676.432
740.383
723.49
681.734
618.499
555.907
499.139
449.36
406.403
373.021
347.101
327.09
311.909
300.632
292.991
288.114
288.69
295.081
306.658
330.178
365.651
413.177
473.938
543.397
617.445
684.004
735.285
766.527
760.244
736.008
677.585
602.162
525.142
447.841
390.27
357.996
358.427
370.378
388.48
405.572
420.07
468.464
556.412
701.508
912.692
1203.97
1417.54
1561.9
1692.7
1768.65
1788.42
1768.84
1722.75
1659.67
1585.71
1512.05
1443.52
1386.67
1338.06
1299.9
1269.02
1245.49
1227.26
1213.76
1203.84
1196.84
1192.49
1189.44
1188.39
1187.77
1188.19
1189.51
1191.35
1193.72
1196.36
1199.31
1202.44
1205.73
1209.14
1212.63
1216.17
1219.75
1223.33
1226.92
1230.48
1234.03
1237.55
1241.06
1244.55
1248.04
1251.56
1255.15
1258.84
1262.68
1266.71
1270.95
1275.3
1279.52
1283.61
1287.59
1291.44
1295.17
1298.78
1302.26
1305.61
1308.83
1311.93
1314.9
1317.73
1320.44
1323.02
1325.47
1327.79
1329.98
1332.04
1333.97
1335.78
1337.45
1339
1340.41
1341.69
1342.83
1343.82
1344.63
1345.26
1345.68
1345.87
1345.94
1345.9
1345.74
1345.5
1345
1344.46
1343.78
1342.98
1342.07
1341.03
1339.89
1338.63
1337.26
1335.8
1334.24
1332.55
1330.62
1328.88
1326.68
1324.8
1322.4
1320.39
1317.8
1315.68
1312.92
1310.67
1307.78
1305.41
1302.48
1299.85
1297.03
1294.21
1291.35
1288.46
1285.55
1282.62
1279.67
1276.72
1273.78
1270.85
1267.97
1265.16
1262.46
1259.95
1257.76
1256.11
1255.92
1257.77
1269.72
11463.6
2023.82
963.968
983.507
961.334
876.22
751.529
633.69
535.156
459.42
401.972
356.28
321.059
294.278
273.878
258.277
246.344
237.246
230.51
225.819
223.118
223.318
224.749
230.233
239.358
254.81
277.591
308.972
348.105
390.962
434.076
473.405
503.32
514.745
508.305
489.585
454.321
408.002
383.357
408.763
469.645
528.628
573.995
621.358
691.637
810.145
983.309
1172.25
1304.94
1375.26
1429.84
1463.1
1467.48
1391.45
1343.53
1286.32
1226.73
1170.42
1119.72
1076.25
1040.02
1011.13
988.114
970.637
957.321
947.625
940.649
935.863
933.045
931.34
930.879
930.863
931.795
933.162
934.979
937.157
939.589
942.239
945.044
947.983
951.017
954.128
957.293
960.498
963.728
966.972
970.22
973.467
976.708
979.94
983.163
986.381
989.597
992.819
996.053
999.308
1002.59
1005.9
1009.23
1012.56
1015.84
1019.01
1022.09
1025.08
1027.98
1030.77
1033.47
1036.06
1038.56
1040.95
1043.23
1045.42
1047.49
1049.46
1051.32
1053.08
1054.73
1056.27
1057.69
1059.01
1060.22
1061.32
1062.3
1063.17
1063.93
1064.56
1065.06
1065.43
1065.67
1065.77
1065.73
1065.59
1065.35
1065
1064.55
1063.97
1063.3
1062.53
1061.65
1060.68
1059.6
1058.43
1057.17
1055.81
1054.36
1052.83
1051.19
1049.44
1047.67
1045.75
1043.84
1041.76
1039.72
1037.51
1035.35
1033.01
1030.74
1028.28
1025.92
1023.38
1020.9
1018.34
1015.75
1013.13
1010.49
1007.83
1005.15
1002.45
999.754
997.054
994.375
991.734
989.157
986.685
984.385
982.366
980.791
980.292
981.417
988.269
11463.7
2186.41
1459.65
1292.82
1053.69
829.51
645.825
514.961
424.496
360.763
314.814
282.541
259.239
241.628
227.904
217.025
208.443
201.844
196.956
193.551
191.458
191.045
191.603
193.829
197.703
204.485
214.807
229.778
250.728
277.003
305.776
334.695
361.788
383.267
394.958
392.876
387.909
401.882
467.667
570.246
640.329
702.172
778.629
880.817
994.606
1094.27
1166.27
1224.24
1258.31
1268.18
1241.18
1177.09
1127.13
1075.45
1032.03
986.745
947.987
913.764
885.002
861.373
842.558
828.049
817.122
809.261
803.788
800.239
798.507
797.814
797.789
798.675
800.127
801.998
804.265
806.805
809.577
812.531
815.625
818.832
822.124
825.484
828.895
832.343
835.815
839.303
842.798
846.292
849.779
853.256
856.719
860.166
863.594
867.006
870.4
873.778
877.138
880.479
883.797
887.082
890.32
893.5
896.602
899.617
902.545
905.383
908.13
910.783
913.34
915.799
918.159
920.418
922.574
924.627
926.575
928.416
930.15
931.776
933.293
934.7
935.996
937.18
938.25
939.206
940.047
940.771
941.377
941.861
942.221
942.454
942.556
942.553
942.421
942.179
941.829
941.37
940.804
940.127
939.348
938.465
937.479
936.392
935.205
933.921
932.541
931.066
929.498
927.843
926.089
924.25
922.339
920.337
918.28
916.132
913.94
911.656
909.34
906.934
904.507
901.992
899.468
896.864
894.246
891.584
888.893
886.174
883.43
880.666
877.884
875.092
872.296
869.513
866.751
864.025
861.359
858.787
856.368
854.186
852.364
851.311
851.556
854.901
11463.6
2850.34
1858.69
1354.13
956.213
677.693
511.374
404.661
337.306
294.293
265.082
243.759
227.331
214.234
203.676
195.106
188.171
182.678
178.509
175.575
173.824
173.42
173.915
175.474
178.485
183.178
190.017
199.677
213.118
230.902
251.971
274.423
295.879
316.323
337.829
372.981
439.834
550.851
650.48
725.236
797.123
873.549
947.019
1007
1052.97
1090.82
1113
1116.27
1073.33
1029.96
988.335
945.976
909.315
873.137
842.183
813.555
789.761
769.532
753.166
740.275
730.527
723.507
718.733
715.991
714.836
714.595
715.385
716.929
719.011
721.576
724.485
727.665
731.062
734.626
738.321
742.118
745.993
749.929
753.908
757.919
761.95
765.992
770.036
774.076
778.104
782.116
786.107
790.073
794.009
797.914
801.784
805.62
809.418
813.176
816.891
820.559
824.173
827.724
831.201
834.6
837.914
841.137
844.268
847.303
850.241
853.079
855.813
858.443
860.966
863.379
865.68
867.869
869.942
871.9
873.739
875.459
877.059
878.539
879.895
881.128
882.235
883.217
884.071
884.797
885.394
885.859
886.194
886.387
886.448
886.404
886.222
885.917
885.49
884.944
884.279
883.496
882.6
881.591
880.469
879.236
877.895
876.448
874.896
873.242
871.487
869.636
867.685
865.644
863.517
861.304
859.016
856.649
854.213
851.702
849.132
846.492
843.803
841.05
838.259
835.413
832.534
829.618
826.672
823.699
820.701
817.682
814.648
811.604
808.558
805.523
802.51
799.532
796.61
793.773
791.073
788.573
786.374
784.742
784.037
785.144
11464.1
3553.57
1960.79
1199.26
759.463
528.018
404.405
336.831
294.547
265.612
244.092
227.087
213.332
201.936
192.363
184.321
177.683
172.39
168.393
165.621
164.072
163.796
164.411
166.112
169.095
173.48
179.668
188.219
199.828
215.072
234.162
257.795
288.646
328.152
386.07
483.087
599.123
692.483
766.781
833.346
889.219
930.423
962.6
988.182
998.946
993.672
955.472
920.856
887.07
855.764
825.518
796.215
769.855
745.718
725.117
707.189
692.502
680.59
671.405
664.666
660.067
657.573
656.644
656.629
657.862
659.89
662.594
665.816
669.431
673.362
677.529
681.878
686.367
690.961
695.635
700.368
705.141
709.942
714.758
719.58
724.397
729.203
733.99
738.754
743.487
748.186
752.846
757.462
762.031
766.549
771.013
775.421
779.771
784.059
788.281
792.435
796.514
800.515
804.434
808.262
811.993
815.622
819.146
822.563
825.87
829.063
832.14
835.098
837.934
840.644
843.228
845.683
848.006
850.196
852.251
854.169
855.947
857.582
859.076
860.429
861.64
862.708
863.633
864.415
865.052
865.543
865.889
866.074
866.127
866.054
865.832
865.47
864.973
864.342
863.578
862.681
861.648
860.486
859.196
857.783
856.249
854.595
852.825
850.942
848.947
846.844
844.634
842.323
839.915
837.416
834.83
832.16
829.411
826.583
823.686
820.719
817.693
814.606
811.471
808.285
805.06
801.798
798.506
795.185
791.84
788.476
785.096
781.709
778.322
774.946
771.593
768.276
765.011
761.825
758.762
755.867
753.215
750.986
749.359
748.849
11470.8
3803.25
1779.28
942.114
584.696
424.965
344.686
297.506
266.894
245.274
229.004
216.03
205.019
195.36
186.843
179.429
173.121
167.976
164.101
161.612
160.5
160.701
162.025
164.73
168.8
174.246
181.518
191.458
204.908
223.044
248.91
287.288
345.562
434.474
539.126
629.204
702.012
766.51
818.953
857.362
886.127
904.258
909.818
895.758
866.857
838.494
810
785.483
761.975
739.383
717.283
696.596
678.238
662.155
648.609
637.366
628.482
621.754
617.03
614.337
613.295
613.274
614.581
616.818
619.897
623.621
627.862
632.508
637.466
642.666
648.048
653.567
659.186
664.877
670.616
676.387
682.175
687.965
693.747
699.511
705.248
710.952
716.617
722.236
727.804
733.317
738.769
744.158
749.478
754.724
759.894
764.986
769.996
774.922
779.76
784.506
789.159
793.717
798.175
802.52
806.749
810.857
814.84
818.697
822.424
826.018
829.476
832.795
835.972
839.005
841.89
844.626
847.21
849.642
851.918
854.038
856
857.803
859.445
860.927
862.246
863.403
864.397
865.229
865.897
866.402
866.741
866.901
866.923
866.79
866.493
866.04
865.433
864.676
863.769
862.714
861.515
860.173
858.691
857.072
855.319
853.434
851.42
849.281
847.02
844.639
842.143
839.536
836.822
834.006
831.096
828.094
825.005
821.832
818.581
815.258
811.869
808.418
804.912
801.355
797.755
794.118
790.449
786.75
783.027
779.284
775.528
771.766
768.007
764.26
760.537
756.85
753.214
749.651
746.168
742.826
739.682
736.863
734.443
732.607
11491
3712.35
1454.61
744.922
491.615
381.504
322.423
284.921
260.114
241.817
227.076
214.721
204.019
194.594
186.311
179.18
173.288
168.735
165.638
163.896
163.488
164.401
166.683
170.657
176.855
185.479
197.88
215.771
240.955
276.464
328.521
403.682
489.44
567.489
633.505
690.602
739.532
779.648
811.904
829.978
834.727
819.486
796.088
772.179
749.013
728.693
709.986
692.778
675.642
658.782
642.681
628.121
615.486
604.796
596.09
589.281
584.315
581.178
579.78
579.554
580.634
582.804
585.966
589.939
594.594
599.8
605.449
611.449
617.723
624.211
630.855
637.613
644.45
651.336
658.248
665.166
672.082
678.98
685.844
692.667
699.439
706.153
712.805
719.387
725.895
732.323
738.661
744.897
751.041
757.091
763.045
768.9
774.654
780.301
785.839
791.264
796.571
801.755
806.809
811.729
816.51
821.149
825.642
829.987
834.179
838.217
842.096
845.814
849.367
852.753
855.968
859.01
861.878
864.57
867.084
869.419
871.572
873.542
875.329
876.932
878.35
879.583
880.632
881.496
882.176
882.672
882.974
883.089
883.044
882.816
882.409
881.825
881.07
880.145
879.052
877.794
876.374
874.795
873.06
871.172
869.134
866.951
864.624
862.16
859.56
856.829
853.971
850.99
847.892
844.682
841.368
837.953
834.443
830.842
827.158
823.396
819.563
815.665
811.709
807.699
803.643
799.549
795.42
791.262
787.079
782.878
778.666
774.45
770.239
766.043
761.873
757.741
753.66
749.649
745.734
741.948
738.33
734.975
731.899
729.032
11522.4
3266.31
1156.09
619.815
436.031
351.867
305.879
278.013
257.661
242.115
229.62
218.85
209.225
200.583
192.977
186.559
181.526
178.002
176.193
175.897
177.359
180.298
185.269
193.282
205.271
221.907
247.07
283.347
332.323
392.583
456.929
517.25
572.96
622.399
665.653
702.406
734.364
756.249
763.482
755.077
736.783
717.237
697.841
680.876
665.865
652.402
639.475
626.683
613.774
601.249
589.694
579.572
571.07
564.217
559.011
555.386
553.53
552.987
553.67
555.578
558.587
562.566
567.403
572.965
579.136
585.807
592.884
600.286
607.945
615.82
623.836
631.95
640.126
648.332
656.535
664.702
672.788
680.808
688.779
696.696
704.549
712.328
720.027
727.642
735.164
742.589
749.911
757.131
764.231
771.202
778.043
784.75
791.321
797.753
804.042
810.185
816.177
822.012
827.691
833.209
838.563
843.749
848.763
853.602
858.263
862.743
867.039
871.148
875.066
878.79
882.317
885.645
888.773
891.699
894.421
896.938
899.248
901.35
903.243
904.927
906.401
907.667
908.724
909.573
910.216
910.651
910.865
910.888
910.713
910.337
909.761
908.989
908.026
906.873
905.534
904.012
902.311
900.433
898.383
896.164
893.78
891.235
888.533
885.68
882.679
879.535
876.253
872.836
869.292
865.626
861.846
857.957
853.965
849.876
845.698
841.438
837.104
832.702
828.239
823.719
819.151
814.542
809.898
805.223
800.526
795.812
791.09
786.367
781.652
776.955
772.287
767.658
763.082
758.574
754.158
749.861
745.711
741.781
738.054
734.243
11553.6
2738.08
974.844
565.106
416.126
344.541
304.487
279.843
263.134
250.37
239.69
230.291
221.918
214.62
208.62
204.11
201.688
201.123
202.705
206.325
212.412
221.057
233.812
251.956
276.396
308.406
347.091
390.474
436.257
481.845
525.211
565.094
601.292
633.19
661.886
684.747
694.348
693.916
682.587
668.542
653.009
639.12
626.939
616.385
606.686
597.29
587.764
578.075
568.463
559.427
551.409
544.685
539.373
535.489
533.195
532.337
532.639
534.259
537.039
540.902
545.75
551.487
558.039
565.272
573.067
581.331
589.972
598.903
608.028
617.23
626.568
636.015
645.535
655.092
664.644
674.158
683.627
693.025
702.337
711.558
720.668
729.662
738.536
747.287
755.91
764.397
772.74
780.925
788.949
796.809
804.503
812.031
819.39
826.578
833.59
840.423
847.074
853.54
859.819
865.908
871.803
877.499
882.994
888.283
893.365
898.237
902.896
907.339
911.562
915.563
919.338
922.886
926.204
929.293
932.152
934.778
937.17
939.328
941.25
942.938
944.39
945.608
946.593
947.348
947.872
948.16
948.219
948.058
947.673
947.067
946.242
945.202
943.95
942.49
940.826
938.962
936.9
934.647
932.205
929.579
926.773
923.793
920.644
917.329
913.856
910.229
906.453
902.534
898.477
894.289
889.978
885.551
881.014
876.376
871.645
866.83
861.938
856.976
851.95
846.866
841.731
836.554
831.341
826.098
820.834
815.557
810.275
804.997
799.73
794.485
789.272
784.1
778.983
773.936
768.978
764.134
759.423
754.903
750.545
745.882
11577.1
2239.82
843.711
518.88
397.881
339.934
308.261
288.576
274.828
264.236
255.506
248.13
242.059
237.441
235.044
234.538
236.484
241.123
247.927
256.645
268.411
284.511
305.136
330.106
358.774
390.119
422.776
455.696
488.029
518.946
547.496
573.567
597.945
619.503
630.897
633.54
629.164
621.659
611.198
600.968
591.581
583.529
576.373
569.698
563.067
556.253
549.224
542.174
535.449
529.444
524.465
520.671
518.268
517.285
517.383
518.866
521.639
525.581
530.579
536.547
543.389
550.981
559.129
567.858
577.159
586.954
597.157
607.686
618.479
629.511
640.681
651.927
663.204
674.487
685.703
696.798
707.742
718.514
729.095
739.485
749.711
759.784
769.708
779.484
789.107
798.565
807.845
816.934
825.824
834.511
842.995
851.277
859.353
867.221
874.877
882.318
889.541
896.545
903.329
909.889
916.222
922.324
928.19
933.819
939.208
944.355
949.259
953.916
958.324
962.479
966.379
970.022
973.408
976.536
979.405
982.016
984.367
986.457
988.285
989.853
991.162
992.211
993.006
993.546
993.832
993.866
993.649
993.188
992.483
991.538
990.355
988.939
987.294
985.424
983.334
981.027
978.509
975.784
972.857
969.733
966.417
962.915
959.232
955.374
951.347
947.157
942.81
938.313
933.672
928.892
923.982
918.949
913.803
908.554
903.212
897.783
892.277
886.7
881.057
875.356
869.604
863.807
857.974
852.113
846.235
840.349
834.463
828.585
822.723
816.886
811.084
805.328
799.628
794.003
788.467
783.043
777.744
772.619
767.642
762.187
11590.6
2027.61
810.75
512.231
399.307
347.269
319.337
302.313
290.764
282.293
275.89
271.182
268.461
267.593
268.706
272.403
278.537
286.886
297.218
310.235
326.057
344.495
365.17
387.531
410.931
434.743
458.424
481.423
503.026
523.691
543.687
561.558
572.928
577.132
577.404
574.994
570.058
564.317
558.371
553.033
548.286
543.993
539.857
535.659
531.279
526.734
522.173
517.858
514.109
511.255
509.705
509.206
509.787
511.582
514.483
518.467
523.294
529.173
536.119
544.059
552.906
562.577
573.035
584.164
595.86
608.031
620.567
633.376
646.382
659.541
672.765
685.943
699.015
711.924
724.612
737.033
749.158
760.977
772.503
783.772
794.833
805.72
816.449
827.027
837.445
847.681
857.706
867.507
877.074
886.402
895.489
904.336
912.94
921.298
929.404
937.257
944.854
952.197
959.283
966.112
972.679
978.98
985.013
990.775
996.265
1001.48
1006.43
1011.09
1015.48
1019.59
1023.42
1026.96
1030.22
1033.19
1035.88
1038.29
1040.41
1042.25
1043.81
1045.08
1046.07
1046.78
1047.22
1047.38
1047.27
1046.89
1046.24
1045.33
1044.16
1042.73
1041.05
1039.12
1036.95
1034.54
1031.9
1029.03
1025.93
1022.62
1019.1
1015.37
1011.44
1007.31
1003
998.499
993.826
988.984
983.982
978.824
973.519
968.074
962.491
956.783
950.963
945.042
939.028
932.929
926.753
920.506
914.195
907.825
901.406
894.94
888.439
881.916
875.381
868.844
862.314
855.797
849.3
842.834
836.404
830.025
823.708
817.47
811.326
805.293
799.383
793.636
788.044
781.843
11599
1955.32
787.975
507.56
405.409
358.486
333.727
318.891
309.139
302.514
298.406
296.591
296.332
298.243
302.301
308.408
316.419
326.215
337.871
351.323
366.186
382.193
399.01
416.183
433.324
450.074
466.167
482.064
498.013
511.869
521.752
526.893
529.548
530.409
530.262
528.902
527
525.063
523.251
521.669
520.243
518.922
517.731
516.431
515.039
513.669
512.481
511.717
511.455
511.686
512.461
514.278
517.267
521.501
526.979
533.763
542.037
551.602
562.245
573.83
586.249
599.407
613.223
627.575
642.377
657.544
672.883
688.263
703.571
718.685
733.508
748.02
762.234
776.251
789.895
803.056
815.695
827.831
839.528
850.888
862.051
873.092
884.025
894.869
905.602
916.171
926.501
936.59
946.426
955.998
965.299
974.328
983.079
991.55
999.734
1007.63
1015.24
1022.55
1029.59
1036.33
1042.78
1048.93
1054.79
1060.35
1065.61
1070.57
1075.23
1079.6
1083.66
1087.42
1090.87
1094.02
1096.86
1099.4
1101.63
1103.57
1105.21
1106.54
1107.57
1108.31
1108.75
1108.89
1108.75
1108.32
1107.6
1106.6
1105.32
1103.77
1101.94
1099.85
1097.5
1094.89
1092.03
1088.93
1085.58
1082
1078.19
1074.15
1069.9
1065.44
1060.77
1055.91
1050.85
1045.61
1040.19
1034.59
1028.84
1022.93
1016.88
1010.69
1004.36
997.908
991.351
984.697
977.954
971.127
964.226
957.256
950.225
943.139
936.006
928.824
921.614
914.389
907.161
899.938
892.728
885.537
878.373
871.242
864.152
857.118
850.154
843.276
836.498
829.835
823.295
816.91
810.704
803.791
11602.3
1910.74
779.673
512.578
416.402
373.104
350.627
337.087
328.287
322.865
320.334
319.692
321.073
324.607
329.851
336.615
344.74
354.108
364.574
375.934
387.945
400.374
412.957
425.467
437.725
449.592
460.898
470.889
478.822
485.098
490.269
494.431
498.036
501.192
504.015
506.511
508.828
511.053
513.202
515.253
517.129
518.714
519.727
520.697
521.816
523.233
525.111
527.625
530.903
535.115
540.515
547.114
555.002
564.173
574.64
586.5
599.905
614.633
630.326
646.716
663.653
681.016
698.691
716.552
734.451
752.254
769.918
787.344
804.421
821.032
837.06
852.417
867.089
881.088
894.301
906.712
918.291
929.122
939.354
949.193
959.047
969.04
979.07
989.224
999.419
1009.54
1019.51
1029.27
1038.77
1048
1056.93
1065.56
1073.9
1081.93
1089.64
1097.04
1104.12
1110.89
1117.34
1123.49
1129.32
1134.84
1140.03
1144.91
1149.47
1153.71
1157.64
1161.26
1164.56
1167.54
1170.21
1172.56
1174.6
1176.31
1177.71
1178.82
1179.62
1180.1
1180.26
1180.14
1179.72
1178.97
1177.94
1176.62
1175.01
1173.12
1170.94
1168.49
1165.77
1162.77
1159.52
1156
1152.23
1148.22
1143.96
1139.47
1134.75
1129.81
1124.66
1119.29
1113.73
1107.96
1102.01
1095.87
1089.56
1083.08
1076.45
1069.67
1062.74
1055.69
1048.54
1041.28
1033.93
1026.49
1018.96
1011.35
1003.67
995.927
988.126
980.277
972.388
964.452
956.499
948.543
940.592
932.654
924.736
916.843
908.983
901.16
893.382
885.67
878.039
870.501
863.071
855.76
848.577
841.543
834.723
827.132
11602.7
1881.59
776.616
521.762
429.905
388.225
366.927
354.178
345.876
341.192
339.242
338.935
340.882
344.668
349.837
356.129
363.355
371.411
380.16
389.471
399.219
409.318
419.723
430.084
440.126
449.653
458.357
466.477
474.008
481.093
487.799
494.056
499.658
505.017
510.252
515.372
520.441
525.514
530.641
535.813
541.027
546.36
552.034
558.083
564.637
571.829
579.782
588.596
598.369
609.223
621.289
634.612
649.419
665.366
682.259
699.948
718.13
736.607
755.397
774.501
793.829
813.279
832.749
852.133
871.324
890.22
908.738
926.804
944.333
961.231
977.384
992.608
1006.8
1019.83
1031.9
1043.15
1053.67
1063.5
1072.65
1081.21
1089.41
1097.41
1105.44
1114.03
1122.89
1131.74
1140.52
1149.08
1157.38
1165.37
1173.06
1180.45
1187.52
1194.28
1200.71
1206.8
1212.57
1218.01
1223.14
1227.95
1232.46
1236.64
1240.5
1244.04
1247.25
1250.16
1252.76
1255.05
1257.02
1258.7
1260.06
1261.11
1261.84
1262.27
1262.39
1262.24
1261.79
1261.02
1259.95
1258.6
1256.95
1255.01
1252.78
1250.28
1247.5
1244.45
1241.12
1237.54
1233.69
1229.58
1225.22
1220.61
1215.75
1210.66
1205.34
1199.8
1194.04
1188.08
1181.9
1175.53
1168.96
1162.2
1155.27
1148.16
1140.89
1133.46
1125.88
1118.17
1110.32
1102.36
1094.3
1086.16
1077.93
1069.62
1061.22
1052.75
1044.21
1035.62
1026.97
1018.29
1009.57
1000.86
992.15
983.446
974.753
966.079
957.429
948.811
940.234
931.7
923.22
914.819
906.51
898.304
890.212
882.246
874.412
866.726
859.294
851.061
11600
1864.55
779.707
532.322
442.359
402.075
381.75
369.402
361.448
357.269
355.633
355.475
357.61
361.358
366.421
372.588
379.729
387.834
396.623
406.012
415.8
425.755
435.776
445.891
456.123
466.511
477.192
487.78
498.376
509.044
519.806
530.688
541.818
553.147
564.636
576.253
587.973
599.791
611.699
623.737
635.999
648.612
661.739
675.388
689.634
704.583
720.337
736.869
754.131
772.115
790.82
810.267
830.271
850.631
871.218
891.891
912.483
932.838
952.867
972.519
991.743
1010.49
1028.71
1046.37
1063.43
1079.85
1095.63
1110.75
1125.2
1138.95
1152.01
1164.38
1176.06
1186.77
1196.8
1206.3
1215.36
1223.95
1231.92
1239.3
1245.99
1252.19
1258.55
1265.2
1271.81
1278.27
1284.51
1290.5
1296.2
1301.63
1306.78
1311.65
1316.25
1320.56
1324.57
1328.29
1331.71
1334.85
1337.73
1340.33
1342.66
1344.71
1346.48
1347.96
1349.17
1350.1
1350.78
1351.19
1351.31
1351.2
1350.82
1350.13
1349.19
1347.98
1346.51
1344.78
1342.8
1340.55
1338.04
1335.27
1332.23
1328.94
1325.4
1321.61
1317.58
1313.31
1308.79
1304.04
1299.05
1293.83
1288.39
1282.71
1276.82
1270.72
1264.41
1257.9
1251.19
1244.29
1237.21
1229.94
1222.5
1214.88
1207.1
1199.15
1191.06
1182.82
1174.44
1165.93
1157.3
1148.54
1139.68
1130.72
1121.67
1112.53
1103.31
1094.01
1084.65
1075.24
1065.78
1056.29
1046.77
1037.27
1027.77
1018.29
1008.82
999.377
989.96
980.58
971.25
961.989
952.815
943.732
934.75
925.878
917.125
908.507
900.028
891.698
883.662
874.833
11594.5
1851.11
784.523
539.769
452.707
415.539
396.602
385.242
378.579
375.644
374.887
376.457
380.374
386.112
393.427
402.178
412.32
422.95
434.642
447.559
461.453
476.113
491.835
508.733
526.88
546.322
566.98
588.632
611.137
634.328
658.061
682.258
706.886
731.789
756.928
782.183
807.242
831.983
856.369
880.397
904.13
927.654
951.028
974.267
997.423
1020.67
1044.54
1068.58
1092.24
1115.33
1137.7
1159.09
1179.15
1198.18
1216.26
1233.37
1249.46
1264.52
1278.55
1291.61
1303.76
1315
1325.39
1334.98
1343.79
1351.88
1359.27
1366.02
1372.17
1377.77
1382.9
1387.77
1392.51
1397.18
1401.7
1405.96
1409.94
1413.57
1416.66
1419.57
1422.53
1425.98
1429.6
1432.67
1435.23
1437.45
1439.43
1441.22
1442.84
1444.29
1445.56
1446.66
1447.58
1448.3
1448.84
1449.18
1449.34