/*--------------------------------*- C++ -*----------------------------------*\
  =========                 |
  \\      /  F ield         | OpenFOAM: The Open Source CFD Toolbox
   \\    /   O peration     | Website:  https://openfoam.org
    \\  /    A nd           | Version:  8
     \\/     M anipulation  |
\*---------------------------------------------------------------------------*/
FoamFile
{
    version     2.0;
    format      ascii;
    class       volScalarField;
    location    "700";
    object      k;
}
// * * * * * * * * * * * * * * * * * * * * * * * * * * * * * * * * * * * * * //

dimensions      [0 2 -2 0 0 0 0];

internalField   nonuniform List<scalar> 
12225
(
0.437069
1.89855
1.92373
1.87212
1.85739
1.93063
1.30501
2.69456
2.18075
2.05049
1.70002
1.538
1.7646
1.39372
2.36607
1.93285
1.67779
1.57246
0.320157
0.476539
0.573082
0.606458
0.628408
0.654852
0.64261
0.690681
0.745298
0.773123
0.826545
0.83252
0.833394
0.828085
0.855025
0.866553
0.88181
0.890075
0.3605
0.374792
0.38803
0.396083
0.396334
0.39513
0.388473
0.379872
0.380275
0.375331
0.380642
0.376656
0.368684
0.367066
0.365916
0.362279
0.359025
0.356978
0.369869
0.370413
0.370622
0.370543
0.369153
0.366376
0.362476
0.357963
0.35387
0.349402
0.345253
0.33942
0.332089
0.322068
0.311624
0.299728
0.287902
0.276629
0.372676
0.370959
0.368856
0.367195
0.365213
0.363133
0.360535
0.357894
0.355072
0.352268
0.349213
0.345116
0.340236
0.332993
0.325516
0.315872
0.307254
0.297145
0.373575
0.371404
0.369116
0.367114
0.365057
0.363104
0.361008
0.358959
0.356883
0.354801
0.352648
0.349758
0.346619
0.341911
0.337185
0.330994
0.325442
0.318841
0.37378
0.37158
0.369373
0.367333
0.365332
0.363428
0.361559
0.359728
0.357992
0.356217
0.354521
0.35235
0.350152
0.347042
0.34398
0.340041
0.336531
0.332281
0.373817
0.371609
0.36945
0.367426
0.365473
0.363602
0.361822
0.360078
0.35846
0.356822
0.355292
0.353488
0.351706
0.349404
0.347145
0.34436
0.341866
0.33888
0.373828
0.371596
0.369457
0.36744
0.365517
0.363671
0.361932
0.360236
0.358665
0.357104
0.355649
0.354067
0.352523
0.350708
0.348928
0.346845
0.344955
0.342755
0.373829
0.371584
0.369447
0.367428
0.365513
0.363681
0.361955
0.36029
0.358733
0.357219
0.355797
0.354353
0.352959
0.351459
0.349998
0.348393
0.346911
0.345263
0.37383
0.371571
0.36943
0.367405
0.365486
0.363659
0.361931
0.36028
0.35872
0.357225
0.355812
0.354432
0.353114
0.351782
0.350503
0.349182
0.347942
0.346644
0.373828
0.371564
0.369418
0.367385
0.365459
0.363629
0.361895
0.360244
0.358678
0.357185
0.355769
0.35441
0.353115
0.351857
0.350653
0.349469
0.348343
0.347228
0.373828
0.371558
0.369408
0.36737
0.365438
0.363604
0.361862
0.360208
0.358635
0.357139
0.355715
0.354359
0.353066
0.351829
0.350646
0.349511
0.348425
0.347381
0.373827
0.371554
0.369401
0.367359
0.365422
0.363584
0.361838
0.360178
0.358601
0.357099
0.355671
0.35431
0.353014
0.351777
0.350598
0.349471
0.348396
0.347367
0.373826
0.371552
0.369395
0.36735
0.365411
0.363569
0.361819
0.360156
0.358574
0.35707
0.355637
0.354272
0.352972
0.351732
0.35055
0.349423
0.348346
0.34732
0.373825
0.37155
0.369392
0.367345
0.365403
0.363559
0.361806
0.360141
0.358556
0.357048
0.355612
0.354245
0.352941
0.351699
0.350514
0.349384
0.348305
0.347277
0.373825
0.371549
0.369391
0.367342
0.365399
0.363552
0.361798
0.360131
0.358544
0.357034
0.355596
0.354227
0.352922
0.351678
0.350491
0.349359
0.348278
0.347248
0.373825
0.37155
0.36939
0.367343
0.365397
0.363552
0.361795
0.360128
0.358539
0.35703
0.35559
0.354221
0.352913
0.351669
0.35048
0.349349
0.348266
0.347235
0.373825
0.37155
0.369392
0.367344
0.3654
0.363553
0.361799
0.360129
0.358543
0.357031
0.355594
0.354223
0.352918
0.351671
0.350485
0.349351
0.34827
0.347237
0.373826
0.371551
0.369394
0.367347
0.365404
0.363559
0.361805
0.360139
0.358552
0.357043
0.355605
0.354236
0.35293
0.351686
0.350499
0.349367
0.348286
0.347255
0.373826
0.371553
0.369397
0.367352
0.365411
0.363568
0.361817
0.360152
0.358568
0.35706
0.355625
0.354257
0.352954
0.351711
0.350526
0.349395
0.348316
0.347286
0.373827
0.371555
0.369402
0.36736
0.365422
0.363582
0.361834
0.360173
0.358593
0.357089
0.355657
0.354292
0.352992
0.351751
0.350569
0.349439
0.348361
0.347327
0.373827
0.371561
0.36941
0.367373
0.365439
0.363607
0.361866
0.360213
0.35864
0.357142
0.355714
0.354352
0.353052
0.351812
0.350624
0.349488
0.348393
0.34734
0.373827
0.37157
0.369422
0.367398
0.365479
0.363669
0.361947
0.360313
0.358751
0.357256
0.355822
0.354447
0.353127
0.351859
0.350635
0.34945
0.348288
0.347148
0.373825
0.371597
0.369465
0.367495
0.365629
0.363885
0.362205
0.360601
0.359032
0.357508
0.356014
0.354561
0.353143
0.351767
0.350408
0.34907
0.347715
0.346359
0.373851
0.371739
0.369734
0.367952
0.366245
0.364644
0.363016
0.361421
0.359764
0.358092
0.356391
0.354695
0.353003
0.351337
0.349639
0.347952
0.346165
0.344373
0.374223
0.372634
0.371226
0.369974
0.368643
0.367298
0.365746
0.364105
0.362189
0.360104
0.35789
0.355607
0.353303
0.351004
0.348646
0.346294
0.343778
0.341245
0.3773
0.377709
0.378971
0.379791
0.37996
0.379461
0.378744
0.377277
0.375231
0.372571
0.369927
0.367076
0.364554
0.362068
0.359879
0.357714
0.355792
0.353548
0.402539
0.418137
0.437339
0.456157
0.474703
0.488974
0.501949
0.511946
0.522308
0.530714
0.540475
0.549287
0.559999
0.5701
0.581747
0.592916
0.605
0.614731
0.830585
1.14293
1.36153
1.48805
1.55539
1.57034
1.56325
1.54608
1.51607
1.48324
1.45028
1.41862
1.38907
1.36196
1.33729
1.31504
1.29489
1.27699
1.90313e-08
4.6819e-07
2.38329e-06
9.36646e-06
3.12146e-05
9.47372e-05
0.000246427
0.000489158
0.000791101
0.00110974
0.00139513
0.0016173
0.00176555
0.0018223
0.00180068
0.00172857
0.00159158
0.00136381
0.00116181
0.000988234
0.000823962
0.000664308
0.000510238
0.000367055
0.000239456
0.0001404
7.45535e-05
3.74757e-05
1.90089e-05
1.03212e-05
6.24525e-06
4.70089e-06
5.21541e-06
1.07376e-05
2.44616e-05
0.000155265
0.00032648
0.000727516
0.00110004
0.00120019
0.00110883
0.000887149
0.000749338
0.0007518
0.000833619
0.00112771
0.00152147
0.0031214
0.00708106
0.0217956
0.0555082
0.0948915
0.112348
0.127062
0.126458
0.132409
0.146723
0.156873
0.162571
0.157762
0.17376
0.142443
0.168778
0.17201
0.183136
0.191181
0.199679
0.208121
0.216035
0.224161
0.231878
0.239681
0.247249
0.25481
0.262231
0.269604
0.276876
0.284086
0.29121
0.298266
0.305238
0.312139
0.318953
0.32569
0.332333
0.338893
0.34535
0.351713
0.357963
0.364105
0.370122
0.376008
0.38175
0.387339
0.392763
0.398012
0.403079
0.407967
0.412688
0.417282
0.421823
0.426168
0.430385
0.434452
0.43837
0.442139
0.44575
0.449204
0.452496
0.455624
0.458584
0.461375
0.463994
0.466439
0.468708
0.4708
0.472713
0.474447
0.476001
0.477375
0.478568
0.47958
0.480412
0.481064
0.481537
0.481831
0.481946
0.481911
0.481743
0.481481
0.480758
0.480196
0.479166
0.478238
0.477183
0.47597
0.474571
0.472885
0.471105
0.469148
0.467078
0.464876
0.462561
0.46013
0.457595
0.454956
0.452224
0.449401
0.446502
0.443502
0.440454
0.437303
0.434124
0.43087
0.427583
0.424257
0.420909
0.417548
0.414182
0.410819
0.407466
0.404126
0.400803
0.397499
0.394218
0.390968
0.387754
0.384585
0.381466
0.378401
0.375386
0.372417
0.369482
0.366547
0.363567
0.360454
0.357089
0.353147
0.347998
0.331902
8.3391e-08
2.35146e-06
1.58838e-05
6.8562e-05
0.000254062
0.000753528
0.00174738
0.00317501
0.00482897
0.00652909
0.00808057
0.00935596
0.0102943
0.0108902
0.0111719
0.0111342
0.0109513
0.0105944
0.00999126
0.00916243
0.00811491
0.00689804
0.0055702
0.00422465
0.00292824
0.00193678
0.00122723
0.000758008
0.000459473
0.000280784
0.000179954
0.000132763
0.000104098
0.000165276
0.000221392
0.0016443
0.00335041
0.00695088
0.0100939
0.0118332
0.0118202
0.011503
0.0116374
0.0132199
0.0172825
0.0231514
0.0340243
0.052735
0.0791577
0.105
0.130837
0.151028
0.165344
0.176598
0.18765
0.204482
0.221499
0.239799
0.25799
0.27694
0.295063
0.313839
0.335241
0.354172
0.373729
0.392734
0.411474
0.430022
0.448279
0.466406
0.484331
0.502144
0.519827
0.537419
0.55492
0.572346
0.589699
0.606984
0.6242
0.641349
0.658425
0.675426
0.692344
0.709176
0.72591
0.742541
0.759056
0.775447
0.7917
0.807806
0.823747
0.839504
0.855056
0.870383
0.885461
0.900262
0.914755
0.928907
0.942679
0.956034
0.968958
0.981696
0.994128
1.00631
1.01819
1.02979
1.04107
1.05205
1.06269
1.073
1.08296
1.09256
1.1018
1.11067
1.11915
1.12724
1.13493
1.14222
1.14909
1.15555
1.16158
1.16719
1.17236
1.1771
1.1814
1.18526
1.18867
1.19164
1.19418
1.19627
1.19792
1.19914
1.19978
1.20016
1.20031
1.20012
1.19961
1.19894
1.19783
1.1963
1.1944
1.19213
1.18949
1.18651
1.18319
1.17953
1.17556
1.17128
1.1667
1.16184
1.15668
1.15127
1.1456
1.1397
1.13358
1.12726
1.12077
1.11412
1.10735
1.10046
1.09348
1.08641
1.07927
1.07205
1.06477
1.05743
1.05006
1.04267
1.03528
1.02789
1.0205
1.01311
1.00569
0.9982
0.990561
0.982658
0.974272
0.965082
0.953143
0.925985
2.15437e-07
6.4368e-06
4.91439e-05
0.00023052
0.000758305
0.00203767
0.00413573
0.00657104
0.00900952
0.0112208
0.0130662
0.0144881
0.0154842
0.0160799
0.0163392
0.0163033
0.0161153
0.0157422
0.0151912
0.0145049
0.0136776
0.0127021
0.0115586
0.0102547
0.0087927
0.00713755
0.0054339
0.00392031
0.00261316
0.00173437
0.00119268
0.000889576
0.000680509
0.000977083
0.00164897
0.00651208
0.0140027
0.0224509
0.0287766
0.0325122
0.0341384
0.037111
0.0453424
0.0616751
0.0794613
0.0979887
0.11888
0.140185
0.160317
0.181678
0.202565
0.223727
0.246056
0.271108
0.298198
0.326956
0.355549
0.384491
0.41336
0.442121
0.470196
0.498131
0.52542
0.551899
0.57787
0.603303
0.628263
0.65285
0.677097
0.701079
0.724826
0.748384
0.771779
0.795035
0.818167
0.841185
0.864098
0.886907
0.909612
0.932212
0.954701
0.977074
0.999322
1.02144
1.04341
1.06523
1.08688
1.10835
1.12964
1.15071
1.17158
1.1922
1.21257
1.23267
1.2525
1.27203
1.29125
1.31016
1.32875
1.34702
1.36497
1.38259
1.39984
1.41672
1.43321
1.44928
1.46494
1.48015
1.49492
1.50921
1.52303
1.53636
1.54918
1.56149
1.57328
1.58452
1.59523
1.60537
1.61496
1.62397
1.63241
1.64026
1.64753
1.65421
1.66029
1.66577
1.67066
1.67494
1.67863
1.68171
1.6842
1.6861
1.68735
1.68806
1.68834
1.68815
1.68735
1.68603
1.68416
1.68174
1.6788
1.67533
1.67137
1.66691
1.66198
1.65659
1.65075
1.64449
1.6378
1.63072
1.62323
1.6154
1.6072
1.59867
1.58983
1.58071
1.57134
1.56174
1.55194
1.54197
1.53185
1.5216
1.51122
1.50073
1.49014
1.47946
1.46872
1.45793
1.44712
1.43631
1.4255
1.41469
1.40387
1.39301
1.38205
1.37092
1.35942
1.34733
1.33271
1.30739
8.16315e-07
2.45737e-05
0.000193814
0.000760361
0.00234303
0.00541169
0.00910821
0.0126993
0.0158164
0.0182838
0.0200636
0.0211953
0.0217906
0.0219019
0.0217701
0.02141
0.0208372
0.0201477
0.0193722
0.0185273
0.0176137
0.0166278
0.0155515
0.0143635
0.0130437
0.0115688
0.00996083
0.00828571
0.00671477
0.0051727
0.00405189
0.00298766
0.00309167
0.00469968
0.0114588
0.0260517
0.0405458
0.0521256
0.0611064
0.0697059
0.0804535
0.0942869
0.110193
0.125821
0.142058
0.159647
0.180118
0.201784
0.225568
0.251514
0.279102
0.308609
0.339851
0.372697
0.406394
0.440492
0.474457
0.508249
0.541668
0.574659
0.607025
0.638849
0.670031
0.700605
0.730664
0.760263
0.789462
0.81833
0.846913
0.875262
0.903416
0.931407
0.95926
0.986992
1.01461
1.04213
1.06955
1.09687
1.12409
1.15119
1.17817
1.20502
1.23174
1.2583
1.2847
1.31091
1.33694
1.36276
1.38835
1.41372
1.43883
1.46368
1.48825
1.51252
1.53649
1.56013
1.58344
1.60641
1.62901
1.65124
1.67307
1.69448
1.71545
1.73596
1.75598
1.7755
1.79449
1.81295
1.83085
1.84817
1.86491
1.88104
1.89655
1.91143
1.92567
1.93924
1.95215
1.96438
1.97592
1.98676
1.9969
2.00632
2.01503
2.02302
2.03028
2.03681
2.04261
2.04768
2.05202
2.05563
2.05852
2.06068
2.06207
2.06273
2.06289
2.06236
2.0611
2.05917
2.05657
2.05331
2.04941
2.04488
2.03974
2.034
2.02768
2.0208
2.01338
2.00542
1.99696
1.98802
1.9786
1.96874
1.95845
1.94775
1.93667
1.92524
1.91349
1.90145
1.88917
1.87666
1.86396
1.85108
1.83804
1.82486
1.81155
1.79813
1.78462
1.77104
1.75743
1.74381
1.73019
1.71659
1.703
1.68942
1.67583
1.66218
1.64836
1.6342
1.61807
1.59457
2.75205e-06
8.25111e-05
0.000614274
0.00237126
0.00645511
0.0119838
0.0171137
0.0212126
0.0241195
0.0259363
0.0268778
0.0271435
0.0269968
0.0265538
0.0258428
0.0250053
0.0240944
0.0231488
0.0221905
0.0212285
0.0202583
0.0192707
0.0182468
0.0171634
0.0159936
0.0147042
0.0132917
0.0118062
0.0103499
0.00886563
0.00741
0.00775221
0.0115925
0.0238432
0.0444573
0.0643364
0.0809337
0.0940094
0.105124
0.116062
0.127753
0.140464
0.154204
0.16998
0.188947
0.210747
0.23542
0.26264
0.29215
0.32355
0.356465
0.390682
0.425868
0.461741
0.497941
0.534253
0.570492
0.606568
0.642377
0.677871
0.712952
0.747615
0.781848
0.815672
0.849128
0.882258
0.915103
0.947709
0.980115
1.01236
1.04446
1.07646
1.10837
1.14019
1.17193
1.2036
1.23519
1.2667
1.29811
1.32941
1.3606
1.39165
1.42256
1.4533
1.48387
1.51424
1.5444
1.57432
1.60401
1.63343
1.66258
1.69143
1.71996
1.74817
1.77603
1.80352
1.83063
1.85734
1.88363
1.90946
1.93483
1.95969
1.98404
2.00784
2.03107
2.05371
2.07574
2.09713
2.11787
2.13794
2.15731
2.17597
2.19391
2.2111
2.22754
2.2432
2.25808
2.27216
2.28544
2.2979
2.30953
2.32033
2.33029
2.33942
2.34769
2.35511
2.36168
2.3674
2.37226
2.37627
2.37944
2.38177
2.38317
2.38375
2.38371
2.38281
2.38108
2.37856
2.37527
2.37122
2.36642
2.36089
2.35465
2.34772
2.34012
2.33186
2.32297
2.31347
2.30337
2.29271
2.28151
2.2698
2.25758
2.24489
2.23176
2.21821
2.20429
2.19003
2.17547
2.16064
2.14557
2.13029
2.11482
2.09918
2.08338
2.06744
2.0514
2.03527
2.0191
2.00291
1.98673
1.97059
1.95449
1.93844
1.92246
1.90655
1.89065
1.87464
1.85716
1.83427
8.78458e-06
0.000256929
0.00183096
0.00646835
0.014493
0.0215161
0.0265025
0.0295695
0.0311685
0.0317645
0.0316907
0.0312502
0.0304134
0.0293944
0.0282768
0.0271251
0.0259826
0.0248767
0.0238193
0.0228103
0.0218394
0.0208912
0.0199402
0.018956
0.0179079
0.0167278
0.0153562
0.0137594
0.0122388
0.0121686
0.0143486
0.0228151
0.0409886
0.0653123
0.0885843
0.107403
0.121154
0.131262
0.140088
0.149461
0.160312
0.17414
0.191347
0.211813
0.235774
0.262735
0.292203
0.323614
0.356532
0.390649
0.425717
0.461551
0.497976
0.534854
0.572041
0.609439
0.646958
0.684521
0.72205
0.759483
0.796754
0.833838
0.870719
0.907397
0.943884
0.980199
1.01637
1.05242
1.08838
1.12427
1.16011
1.19591
1.23169
1.26744
1.30317
1.33887
1.37452
1.41012
1.44564
1.48107
1.51639
1.55158
1.58662
1.6215
1.65618
1.69066
1.72491
1.75891
1.79264
1.82608
1.85922
1.89203
1.92448
1.95657
1.98826
2.01953
2.05037
2.08074
2.11062
2.13998
2.1688
2.19704
2.22468
2.2517
2.27807
2.30376
2.32875
2.35301
2.37652
2.39925
2.42119
2.44232
2.46261
2.48205
2.50062
2.51831
2.53509
2.55097
2.56592
2.57993
2.593
2.60512
2.61628
2.62648
2.63571
2.64397
2.65126
2.65757
2.66291
2.66727
2.67067
2.67312
2.67451
2.675
2.6747
2.67343
2.67124
2.66814
2.66416
2.65932
2.65364
2.64713
2.63981
2.63171
2.62285
2.61325
2.60293
2.59192
2.58024
2.56792
2.55498
2.54146
2.52738
2.51276
2.49763
2.48204
2.46602
2.44961
2.43285
2.41577
2.39843
2.38083
2.36302
2.345
2.3268
2.30844
2.28995
2.27137
2.25273
2.23407
2.21543
2.19684
2.17833
2.15991
2.14163
2.12353
2.10557
2.0877
2.06875
2.04555
2.8189e-05
0.000771024
0.00495978
0.0151006
0.0246765
0.030782
0.0341335
0.0357091
0.0361516
0.0359057
0.0351519
0.0340075
0.0326653
0.0312314
0.0297863
0.0283884
0.0270734
0.0258594
0.0247471
0.0237262
0.0227779
0.0218747
0.0209822
0.0200555
0.0191329
0.018292
0.0177108
0.017858
0.0199069
0.0261041
0.0393827
0.0612379
0.085783
0.108719
0.127018
0.139724
0.148457
0.155814
0.163907
0.175006
0.189699
0.208073
0.230132
0.255496
0.283721
0.314082
0.34602
0.379137
0.413191
0.448035
0.483566
0.519715
0.556425
0.593649
0.631332
0.669424
0.707861
0.746571
0.785491
0.82456
0.863723
0.902939
0.942181
0.981432
1.02069
1.05995
1.09922
1.13852
1.17786
1.21726
1.25671
1.29623
1.33582
1.37546
1.41514
1.45485
1.49457
1.53427
1.57392
1.61351
1.653
1.69237
1.7316
1.77065
1.80951
1.84815
1.88654
1.92466
1.96249
2
2.03718
2.07398
2.1104
2.1464
2.18195
2.21704
2.25163
2.28569
2.31919
2.3521
2.3844
2.41605
2.44701
2.47728
2.5068
2.53556
2.56352
2.59066
2.61695
2.64236
2.66688
2.69047
2.71312
2.7348
2.7555
2.7752
2.79389
2.81154
2.82815
2.84371
2.85819
2.87161
2.88394
2.89519
2.90535
2.91442
2.92239
2.92927
2.93505
2.93974
2.94335
2.94588
2.94723
2.94761
2.94702
2.94537
2.94268
2.93899
2.93431
2.92867
2.92209
2.91459
2.90618
2.8969
2.88678
2.87582
2.86407
2.85154
2.83827
2.82428
2.80961
2.79429
2.77834
2.7618
2.74469
2.72706
2.70895
2.6904
2.67147
2.65217
2.63257
2.61268
2.59254
2.57217
2.5516
2.53084
2.50994
2.48893
2.46786
2.44677
2.4257
2.40469
2.38379
2.36303
2.34246
2.32215
2.3021
2.28227
2.26163
2.23747
8.47977e-05
0.00212313
0.0117361
0.0253478
0.0336661
0.0380385
0.0400767
0.0406627
0.0403452
0.0393725
0.0379212
0.0362212
0.0344115
0.0326025
0.030874
0.0292795
0.027845
0.0265757
0.0254603
0.0244796
0.0236086
0.0228211
0.0220459
0.0213271
0.0208352
0.0210047
0.0229238
0.0283127
0.0397612
0.0579208
0.0800149
0.102301
0.12274
0.139131
0.150614
0.158545
0.165546
0.174258
0.186099
0.20171
0.221131
0.24407
0.270093
0.298574
0.328885
0.36047
0.393002
0.426314
0.460331
0.49502
0.530369
0.566379
0.603053
0.640389
0.678365
0.716943
0.75608
0.795723
0.835815
0.876301
0.917126
0.958247
0.999626
1.04124
1.08306
1.12509
1.16731
1.20973
1.25236
1.29518
1.3382
1.38141
1.42479
1.46834
1.51201
1.55579
1.59964
1.64352
1.68739
1.73123
1.77499
1.81863
1.86214
1.90547
1.9486
1.9915
2.03413
2.07646
2.11848
2.16015
2.20144
2.24233
2.28278
2.32277
2.36226
2.40122
2.43963
2.47745
2.51464
2.55116
2.587
2.6221
2.65645
2.69
2.72272
2.75458
2.78555
2.8156
2.84469
2.8728
2.8999
2.92597
2.95098
2.97491
2.99774
3.01945
3.04002
3.05944
3.07769
3.09476
3.11064
3.12532
3.1388
3.15107
3.16212
3.17196
3.18058
3.18798
3.19417
3.19914
3.20291
3.20548
3.20675
3.20697
3.20606
3.20398
3.20077
3.19644
3.19103
3.18455
3.17704
3.1685
3.15898
3.14849
3.13707
3.12473
3.11152
3.09745
3.08257
3.06689
3.05047
3.03333
3.0155
2.99701
2.97791
2.95823
2.93802
2.91734
2.89623
2.87472
2.85285
2.83068
2.80822
2.78551
2.76256
2.73942
2.71611
2.69269
2.66919
2.64568
2.62219
2.59878
2.57548
2.55236
2.52949
2.50693
2.48471
2.46282
2.4403
2.41469
0.000220611
0.00501322
0.0213548
0.0344764
0.0411883
0.0443334
0.0454368
0.0452535
0.0442242
0.0425498
0.0405146
0.0383045
0.0360723
0.033939
0.0319891
0.0302748
0.0288202
0.0276298
0.0266962
0.0259986
0.0255669
0.0254919
0.0258514
0.0270851
0.0296169
0.0344119
0.043189
0.0570967
0.07445
0.09371
0.113003
0.130335
0.144483
0.155188
0.163523
0.17155
0.181334
0.194198
0.21068
0.230732
0.253992
0.279942
0.30801
0.337626
0.36833
0.399833
0.432013
0.464842
0.498334
0.532522
0.567443
0.603139
0.639637
0.67695
0.715073
0.753993
0.79368
0.834095
0.875192
0.916922
0.959235
1.00209
1.04544
1.08926
1.13351
1.17819
1.22327
1.26875
1.31461
1.36084
1.40742
1.45435
1.50158
1.54909
1.59684
1.64478
1.69286
1.74103
1.78925
1.83745
1.8856
1.93364
1.98155
2.02927
2.07679
2.12405
2.17103
2.21768
2.26398
2.30989
2.35539
2.40045
2.44502
2.48907
2.53256
2.57548
2.61776
2.65939
2.70032
2.74052
2.77993
2.81853
2.85628
2.89314
2.92908
2.96406
2.99804
3.031
3.06289
3.09369
3.12336
3.15188
3.17922
3.20537
3.23029
3.25397
3.27638
3.29752
3.31736
3.33589
3.3531
3.369
3.38356
3.39678
3.40867
3.41921
3.42841
3.43627
3.44278
3.44797
3.45183
3.45437
3.45552
3.4555
3.4542
3.45164
3.44783
3.44281
3.43661
3.42924
3.42073
3.41111
3.40042
3.38867
3.37591
3.36215
3.34745
3.33181
3.31528
3.2979
3.27969
3.26071
3.24097
3.22052
3.19941
3.17767
3.15536
3.13254
3.10925
3.08552
3.06141
3.03695
3.01218
2.98712
2.96181
2.93628
2.91058
2.88475
2.85885
2.83292
2.80702
2.7812
2.75552
2.73003
2.70483
2.67998
2.65553
2.63148
2.60694
2.57962
0.000491281
0.0101103
0.031007
0.0426508
0.0481111
0.0503756
0.0507486
0.049902
0.0481863
0.0459204
0.0433504
0.04069
0.038116
0.0357652
0.033731
0.0320696
0.0308067
0.029921
0.0294812
0.0293745
0.0298087
0.0310847
0.0338135
0.0387615
0.0466416
0.0577651
0.0716028
0.0870404
0.103358
0.119347
0.133857
0.146216
0.156528
0.165606
0.174926
0.186003
0.199916
0.217064
0.237357
0.26043
0.285801
0.312975
0.34149
0.370968
0.401165
0.431973
0.463384
0.495441
0.528206
0.561748
0.596135
0.63142
0.667644
0.704836
0.743011
0.78217
0.8223
0.863373
0.905358
0.948215
0.991901
1.03638
1.0816
1.12754
1.17416
1.22144
1.26935
1.31788
1.36699
1.41667
1.46688
1.51759
1.56876
1.62034
1.67228
1.7245
1.77694
1.82954
1.88223
1.93493
1.98759
2.04016
2.09258
2.14482
2.19682
2.24855
2.29996
2.35102
2.40168
2.45192
2.50169
2.55097
2.59971
2.64788
2.69543
2.74232
2.78852
2.83398
2.87867
2.92253
2.96552
3.00761
3.04875
3.0889
3.12802
3.16608
3.20303
3.23884
3.27347
3.30689
3.33907
3.36997
3.39957
3.42785
3.45477
3.48033
3.50449
3.52724
3.54857
3.56846
3.5869
3.6039
3.61943
3.6335
3.64611
3.65725
3.66692
3.67512
3.68186
3.68715
3.691
3.6934
3.69436
3.69398
3.69221
3.68908
3.6846
3.6788
3.67172
3.66338
3.65382
3.64305
3.63112
3.61806
3.6039
3.58868
3.57242
3.55518
3.53697
3.51784
3.49783
3.47697
3.45531
3.43288
3.40973
3.38593
3.36152
3.33656
3.31109
3.28516
3.2588
3.23207
3.20499
3.1776
3.14994
3.12204
3.09396
3.06575
3.03745
3.00913
2.98084
2.95262
2.92456
2.8967
2.86914
2.84198
2.81525
2.78899
2.76234
2.73337
0.000933524
0.0173579
0.039417
0.0500832
0.0548336
0.0565084
0.0563399
0.0549183
0.0526616
0.0499028
0.0469262
0.0439786
0.0412636
0.0389374
0.0371125
0.0358625
0.0353009
0.0352736
0.0359938
0.0376774
0.0406549
0.045259
0.0517498
0.0602844
0.0707839
0.0829414
0.0961781
0.109729
0.122928
0.135217
0.146361
0.156511
0.16635
0.176907
0.189218
0.203995
0.221522
0.241692
0.264187
0.288609
0.314559
0.341683
0.369686
0.398368
0.427631
0.457468
0.487927
0.51909
0.551046
0.583884
0.617679
0.652499
0.688399
0.725423
0.763602
0.80295
0.84347
0.885152
0.927978
0.971919
1.01694
1.06302
1.11011
1.15817
1.20718
1.2571
1.3079
1.35954
1.412
1.46523
1.51919
1.57382
1.62906
1.68485
1.7411
1.79773
1.85467
1.91183
1.96911
2.02644
2.08373
2.14093
2.19797
2.2548
2.31138
2.36765
2.42356
2.47907
2.53413
2.58872
2.64279
2.6963
2.74922
2.80149
2.85307
2.90391
2.95398
3.00323
3.05161
3.09908
3.14558
3.19107
3.2355
3.27883
3.32102
3.36204
3.40183
3.44037
3.4776
3.5135
3.54803
3.58115
3.61285
3.64309
3.67186
3.69912
3.72486
3.74905
3.77169
3.79277
3.81227
3.83019
3.84653
3.86128
3.87445
3.88602
3.896
3.90439
3.91119
3.91644
3.92012
3.92226
3.92288
3.92202
3.91966
3.91583
3.91056
3.90389
3.89584
3.88644
3.87572
3.86373
3.85049
3.83604
3.82043
3.80368
3.78584
3.76694
3.74703
3.72613
3.70429
3.68154
3.65793
3.63351
3.60833
3.58247
3.55596
3.52888
3.50126
3.47315
3.44459
3.41561
3.38626
3.35657
3.32659
3.29636
3.26594
3.23538
3.20474
3.17406
3.1434
3.11282
3.08239
3.05218
3.02228
2.99279
2.96377
2.93525
2.90646
2.87567
0.00149095
0.0247693
0.0474366
0.0575874
0.0618539
0.0630804
0.062484
0.0606199
0.0579617
0.0549013
0.0517717
0.0488543
0.0463819
0.0445332
0.0435456
0.0433068
0.0439062
0.0454478
0.0480832
0.0519581
0.0571962
0.0638573
0.0719157
0.0812463
0.0916093
0.102629
0.113887
0.125011
0.1358
0.146202
0.15643
0.167
0.178604
0.191868
0.207222
0.224811
0.244539
0.266158
0.289363
0.313856
0.339375
0.365708
0.392702
0.420277
0.448419
0.477174
0.506623
0.536868
0.568007
0.600138
0.633349
0.667719
0.703317
0.7402
0.778411
0.817983
0.858934
0.901271
0.944993
0.990087
1.03653
1.0843
1.13336
1.18367
1.2352
1.28791
1.34175
1.39668
1.45265
1.50962
1.56751
1.62625
1.68575
1.74591
1.80664
1.86784
1.92941
1.99124
2.05322
2.11526
2.17726
2.23916
2.30087
2.36234
2.42351
2.48433
2.54473
2.60466
2.66409
2.72296
2.78126
2.83894
2.89594
2.95221
3.00771
3.06238
3.11618
3.16906
3.22097
3.27187
3.32168
3.37038
3.41789
3.46419
3.50923
3.55297
3.59536
3.63637
3.67596
3.71407
3.75069
3.78578
3.8193
3.85125
3.88158
3.91028
3.93733
3.9627
3.98638
4.00838
4.02868
4.04728
4.06417
4.07936
4.09284
4.10461
4.11467
4.12302
4.12969
4.13468
4.13801
4.1397
4.13979
4.1383
4.13518
4.13051
4.12432
4.11664
4.10749
4.09693
4.08497
4.07165
4.05702
4.04112
4.02398
4.00565
3.98618
3.9656
3.94395
3.92127
3.8976
3.87296
3.8474
3.821
3.79382
3.76592
3.73736
3.7082
3.67848
3.64824
3.61753
3.58637
3.5548
3.52287
3.49063
3.45814
3.42545
3.39262
3.3597
3.32673
3.29378
3.2609
3.22816
3.19563
3.16343
3.13165
3.10034
3.06958
3.03863
3.00599
0.00221957
0.0314963
0.0549286
0.065083
0.0691692
0.0701562
0.0692539
0.0670635
0.064168
0.0610526
0.0581061
0.0556259
0.0538451
0.053032
0.0529657
0.0539179
0.0558575
0.058839
0.062894
0.068029
0.0742233
0.0814028
0.0894497
0.0981964
0.107455
0.117037
0.126811
0.136704
0.146778
0.157241
0.168453
0.18082
0.194687
0.210269
0.22762
0.246649
0.267177
0.288988
0.311873
0.335652
0.360181
0.385361
0.411136
0.4375
0.464489
0.492184
0.520676
0.550073
0.580485
0.612014
0.644758
0.678809
0.714248
0.751146
0.789558
0.829527
0.871091
0.914276
0.959097
1.00556
1.05364
1.10334
1.15463
1.20746
1.2618
1.3176
1.37481
1.43335
1.49316
1.55418
1.6163
1.67943
1.74342
1.80816
1.87351
1.93937
2.00563
2.07216
2.13886
2.2056
2.27228
2.33883
2.40517
2.47123
2.53693
2.60219
2.66695
2.73116
2.79478
2.85778
2.92012
2.98175
3.04261
3.10266
3.16181
3.22004
3.27728
3.3335
3.38863
3.44263
3.49542
3.54697
3.59721
3.6461
3.69361
3.73968
3.78429
3.82738
3.86891
3.90885
3.94715
3.9838
4.01875
4.05199
4.0835
4.11325
4.14121
4.16738
4.19173
4.21428
4.23501
4.25393
4.27104
4.28633
4.2998
4.31146
4.32129
4.32932
4.33556
4.34003
4.34276
4.34377
4.34312
4.34078
4.33671
4.33102
4.32374
4.31489
4.30452
4.29266
4.27934
4.26461
4.24851
4.23107
4.21235
4.19239
4.17124
4.14895
4.12556
4.1011
4.07562
4.0491
4.02163
3.99329
3.96415
3.93428
3.90374
3.87258
3.84084
3.80857
3.7758
3.74256
3.70887
3.67479
3.6404
3.60575
3.5709
3.53591
3.50082
3.46568
3.43054
3.39544
3.36048
3.32574
3.29131
3.25731
3.22378
3.19083
3.15775
3.12331
0.00308574
0.0376595
0.0625018
0.0728331
0.076808
0.077616
0.0764664
0.074022
0.0709804
0.0679991
0.0655446
0.0638853
0.063151
0.0631105
0.0640992
0.0660641
0.0689628
0.0727632
0.0774344
0.0829307
0.0891919
0.0961371
0.103688
0.111767
0.120324
0.12932
0.138781
0.148798
0.159537
0.171199
0.183999
0.198097
0.213575
0.230426
0.248571
0.267884
0.288223
0.309455
0.331463
0.354166
0.377506
0.401465
0.426052
0.451309
0.477304
0.504132
0.531898
0.560709
0.590667
0.621884
0.654464
0.688508
0.724108
0.761348
0.800299
0.841029
0.883593
0.928037
0.974393
1.02268
1.0729
1.12504
1.17907
1.23497
1.29267
1.35212
1.41324
1.47592
1.54007
1.60557
1.67228
1.74008
1.80878
1.87822
1.94823
2.01869
2.08951
2.16058
2.2318
2.30305
2.37422
2.44522
2.51597
2.58639
2.65638
2.72582
2.79463
2.8628
2.93029
2.99705
3.06306
3.12825
3.19257
3.25595
3.31833
3.37964
3.43984
3.49888
3.55672
3.61328
3.66851
3.72235
3.77475
3.82567
3.87506
3.92289
3.96912
4.01371
4.05661
4.09778
4.13719
4.17482
4.21063
4.24461
4.27674
4.307
4.33536
4.3618
4.38634
4.40895
4.42964
4.44841
4.46527
4.48021
4.49325
4.50438
4.5136
4.52093
4.5264
4.53004
4.53186
4.5319
4.53028
4.52677
4.52153
4.51462
4.50606
4.49588
4.48413
4.47083
4.45604
4.43979
4.42213
4.40309
4.38274
4.36111
4.33826
4.31425
4.28912
4.26291
4.23565
4.20732
4.178
4.14781
4.11681
4.08508
4.05266
4.01961
3.98597
3.95179
3.9171
3.88191
3.84623
3.81015
3.77376
3.73711
3.70027
3.66328
3.62618
3.58902
3.55182
3.51466
3.47762
3.44079
3.40428
3.36817
3.33254
3.29749
3.26238
3.22626
0.00399997
0.0438201
0.0698616
0.0805015
0.0844513
0.0851168
0.0835987
0.0808419
0.0778523
0.0753291
0.0736626
0.0729457
0.0728785
0.0736816
0.0754089
0.0780076
0.0814113
0.0855669
0.0904334
0.0959717
0.102153
0.108952
0.116359
0.124366
0.133001
0.142309
0.152379
0.163296
0.175172
0.188092
0.202106
0.217222
0.233408
0.250596
0.2687
0.287634
0.307321
0.327707
0.348751
0.370446
0.392795
0.41583
0.439599
0.464181
0.489651
0.516095
0.543623
0.572349
0.602386
0.633852
0.666859
0.70152
0.737942
0.776221
0.816449
0.858707
0.90307
0.949605
0.998361
1.04936
1.10261
1.15809
1.21576
1.27558
1.33748
1.40137
1.46714
1.53462
1.60365
1.67404
1.74559
1.81816
1.89155
1.96556
2.03998
2.11462
2.18951
2.26458
2.33978
2.41502
2.49015
2.56509
2.63977
2.71405
2.78779
2.86088
2.93324
3.00486
3.07568
3.14566
3.21475
3.2829
3.35005
3.41611
3.48102
3.54471
3.60715
3.66828
3.72806
3.78641
3.8433
3.89865
3.95242
4.00456
4.05503
4.10381
4.15086
4.19614
4.23962
4.28124
4.32098
4.35882
4.39473
4.4287
4.46072
4.49076
4.51882
4.54489
4.56896
4.591
4.61103
4.62906
4.64509
4.65912
4.67118
4.68126
4.68938
4.69557
4.69983
4.70222
4.70277
4.70158
4.69851
4.69358
4.6869
4.67851
4.66843
4.65672
4.6434
4.62851
4.6121
4.59421
4.57488
4.55416
4.53209
4.50874
4.48416
4.4584
4.43151
4.40354
4.37455
4.34449
4.31346
4.28157
4.24886
4.21541
4.18126
4.14648
4.1111
4.07518
4.03875
4.00181
3.96433
3.92646
3.88828
3.84985
3.81122
3.77243
3.73353
3.69456
3.65551
3.61647
3.57754
3.53882
3.50041
3.46238
3.42481
3.38783
3.35083
3.31321
0.0049514
0.0499213
0.0770627
0.0879313
0.0918024
0.0922789
0.0903513
0.0874715
0.0848012
0.0829355
0.0820693
0.0818923
0.0824528
0.0838187
0.0860298
0.0890196
0.0927295
0.0971211
0.102178
0.107892
0.11427
0.121321
0.129078
0.137572
0.146858
0.156977
0.167987
0.179914
0.192784
0.206571
0.22127
0.23684
0.253222
0.270356
0.288196
0.306711
0.325885
0.345726
0.366241
0.387465
0.409445
0.43226
0.456016
0.480799
0.506606
0.533531
0.561774
0.59143
0.622616
0.655452
0.690059
0.72656
0.765068
0.805691
0.848523
0.893655
0.941169
0.991132
1.04361
1.09862
1.15611
1.21603
1.27832
1.34291
1.40971
1.47861
1.54947
1.62208
1.69619
1.77149
1.84763
1.92453
2.00206
2.08005
2.15825
2.23649
2.3149
2.39339
2.4719
2.55029
2.62843
2.70635
2.78406
2.86129
2.93789
3.01378
3.08888
3.16309
3.23633
3.30858
3.37978
3.44989
3.51882
3.5865
3.65286
3.71783
3.78138
3.84347
3.90404
3.96306
4.02045
4.07616
4.13014
4.18235
4.23277
4.28137
4.32813
4.37302
4.41599
4.457
4.49602
4.53304
4.56806
4.60105
4.63202
4.66094
4.68781
4.71262
4.73537
4.75605
4.77467
4.79123
4.80577
4.81828
4.82877
4.83727
4.84377
4.8483
4.8509
4.85162
4.85061
4.84771
4.84288
4.83626
4.82789
4.8178
4.80603
4.79262
4.77761
4.76103
4.74294
4.72336
4.70235
4.67995
4.65621
4.63119
4.60493
4.5775
4.54896
4.51934
4.4887
4.45711
4.42459
4.39121
4.35701
4.32206
4.2864
4.25009
4.21318
4.17573
4.13776
4.0993
4.06032
4.02095
3.98126
3.94132
3.90115
3.86083
3.82038
3.77986
3.73922
3.69858