/*--------------------------------*- C++ -*----------------------------------*\
  =========                 |
  \\      /  F ield         | OpenFOAM: The Open Source CFD Toolbox
   \\    /   O peration     | Website:  https://openfoam.org
    \\  /    A nd           | Version:  8
     \\/     M anipulation  |
\*---------------------------------------------------------------------------*/
FoamFile
{
    version     2.0;
    format      ascii;
    class       volScalarField;
    location    "700";
    object      nut;
}
// * * * * * * * * * * * * * * * * * * * * * * * * * * * * * * * * * * * * * //

dimensions      [0 2 -1 0 0 0 0];

internalField   nonuniform List<scalar> 
12225
(
4.27398e-06
1.88818e-05
1.957e-05
1.94784e-05
1.97304e-05
2.09033e-05
1.43719e-05
3.01403e-05
2.47527e-05
2.36355e-05
1.98733e-05
1.81936e-05
2.1079e-05
1.67821e-05
2.86824e-05
2.35899e-05
2.06018e-05
1.94524e-05
6.40291e-05
7.27869e-05
4.53968e-05
3.06367e-05
3.44337e-05
3.72563e-05
3.99163e-05
4.21357e-05
4.74166e-05
3.78062e-05
4.08369e-05
4.07889e-05
4.24211e-05
4.36872e-05
4.71734e-05
4.88153e-05
5.05759e-05
4.89702e-05
0.0002912
0.00031052
0.00016234
0.000111316
9.52878e-05
8.28981e-05
7.51528e-05
6.8037e-05
6.52467e-05
5.94075e-05
5.62012e-05
5.33113e-05
5.09594e-05
4.98327e-05
4.92568e-05
4.71701e-05
4.59473e-05
4.42985e-05
0.000613565
0.000644173
0.000452868
0.000353386
0.000301863
0.000259886
0.000230885
0.000206775
0.000190016
0.000173878
0.000161849
0.000150063
0.000140406
0.000129698
0.000119448
0.000110002
0.000100079
9.27577e-05
0.000794058
0.000792953
0.000713257
0.000632111
0.000573678
0.000521301
0.000480574
0.000442737
0.000414586
0.000386878
0.000366349
0.000343554
0.000323744
0.000299221
0.000277212
0.000251865
0.000233216
0.000210522
0.00084314
0.000837436
0.000816895
0.000782902
0.000750208
0.00071558
0.000685827
0.000654696
0.000630158
0.000603577
0.000583583
0.000557705
0.000535819
0.000502306
0.00047674
0.000436973
0.000414136
0.00037877
0.000850521
0.000849393
0.000844454
0.000834601
0.000823454
0.0008085
0.000794248
0.000777933
0.000764433
0.000748193
0.000735797
0.000716946
0.000701101
0.00067273
0.000650594
0.000614194
0.000589897
0.000554353
0.000851058
0.000851114
0.00084919
0.000846617
0.000842054
0.000836545
0.000830126
0.000822322
0.000815549
0.000807222
0.000800322
0.000789596
0.000779972
0.000761572
0.000746343
0.000719227
0.0007004
0.000672756
0.000851326
0.000850912
0.000849956
0.000848856
0.000847169
0.000845013
0.000842361
0.000839184
0.000835887
0.000832063
0.000828191
0.000823519
0.000818473
0.000809198
0.000800042
0.000783327
0.000770476
0.000751649
0.000851471
0.000850749
0.000849936
0.000849195
0.000848275
0.000847327
0.000846173
0.000844909
0.000843521
0.000842025
0.00084021
0.0008386
0.000836657
0.000832698
0.000828695
0.000821056
0.000814139
0.000803581
0.000851523
0.000850705
0.000849879
0.000849167
0.000848381
0.0008477
0.000846932
0.000846243
0.000845459
0.000844702
0.000843901
0.000843067
0.000842364
0.000840736
0.000840203
0.000837918
0.000835485
0.000832392
0.000851535
0.000850691
0.000849866
0.000849124
0.000848368
0.000847701
0.000847004
0.0008464
0.000845758
0.000845166
0.0008446
0.000843992
0.000843563
0.000842753
0.000842185
0.000841163
0.000840268
0.000838835
0.000851539
0.000850682
0.000849864
0.000849097
0.000848357
0.000847665
0.000846994
0.000846366
0.000845762
0.000845179
0.00084464
0.000844095
0.000843623
0.000843091
0.000842618
0.000842055
0.000841538
0.000840921
0.000851538
0.000850677
0.000849859
0.000849082
0.000848344
0.000847641
0.000846973
0.000846335
0.00084573
0.000845147
0.000844598
0.000844066
0.000843568
0.000843078
0.000842618
0.000842158
0.000841723
0.000841285
0.000851538
0.000850675
0.000849854
0.000849074
0.000848333
0.000847627
0.000846955
0.000846314
0.000845703
0.000845119
0.000844563
0.000844031
0.000843524
0.000843037
0.000842572
0.000842126
0.000841699
0.00084129
0.000851537
0.000850673
0.000849851
0.000849069
0.000848326
0.000847618
0.000846943
0.0008463
0.000845686
0.0008451
0.000844541
0.000844006
0.000843495
0.000843007
0.00084254
0.000842093
0.000841664
0.000841255
0.000851538
0.000850676
0.000849855
0.000849074
0.00084833
0.000847622
0.000846947
0.000846302
0.000845688
0.000845101
0.00084454
0.000844004
0.000843492
0.000843002
0.000842533
0.000842085
0.000841655
0.000841244
0.000851538
0.000850677
0.000849855
0.000849074
0.000848329
0.000847621
0.000846943
0.0008463
0.000845683
0.000845096
0.000844534
0.000843998
0.000843484
0.000842994
0.000842523
0.000842075
0.000841643
0.000841232
0.000851537
0.000850674
0.000849851
0.000849068
0.000848323
0.000847612
0.000846936
0.000846289
0.000845674
0.000845085
0.000844524
0.000843985
0.000843473
0.00084298
0.000842511
0.00084206
0.00084163
0.000841217
0.000851537
0.000850674
0.000849852
0.000849071
0.000848326
0.000847618
0.000846941
0.000846297
0.000845681
0.000845094
0.000844531
0.000843996
0.000843481
0.000842991
0.000842521
0.000842072
0.00084164
0.000841228
0.000851537
0.000850677
0.000849854
0.000849077
0.000848332
0.000847627
0.000846951
0.000846311
0.000845694
0.00084511
0.000844546
0.00084401
0.000843491
0.000842999
0.000842521
0.000842067
0.000841624
0.000841202
0.000851536
0.000850681
0.000849857
0.000849088
0.000848338
0.000847645
0.000846961
0.000846327
0.000845693
0.000845101
0.000844498
0.000843926
0.000843346
0.000842791
0.000842233
0.000841697
0.000841134
0.000840602
0.000851533
0.000850686
0.000849862
0.00084911
0.000848341
0.000847636
0.000846868
0.000846141
0.000845326
0.000844518
0.000843572
0.000842611
0.00084156
0.000840491
0.000839362
0.000838218
0.000836908
0.00083572
0.0008515
0.000850684
0.000849857
0.000849067
0.000847981
0.00084677
0.000845104
0.000843356
0.00084111
0.00083866
0.000835636
0.000832502
0.000829146
0.00082568
0.000821791
0.000818241
0.000814037
0.000810283
0.000851171
0.000850335
0.000849023
0.000846705
0.000842256
0.00083693
0.000829629
0.00082216
0.000812835
0.000803795
0.000793072
0.000783225
0.000772219
0.000762639
0.000752006
0.00074297
0.000732545
0.000723836
0.000847133
0.000842001
0.000835945
0.000819768
0.000799338
0.000775061
0.000748018
0.000723955
0.000698153
0.000675706
0.000652088
0.000632327
0.000611791
0.00059526
0.000577723
0.000563915
0.000548485
0.000536608
0.000795178
0.000788153
0.000740601
0.000676866
0.000611246
0.000557384
0.000508844
0.000471671
0.000437487
0.000410991
0.000385935
0.000366609
0.000347795
0.000333554
0.000318974
0.000308142
0.000296282
0.000287629
0.000535033
0.000488161
0.000389836
0.000314194
0.000260944
0.000224725
0.000197979
0.000179531
0.000164522
0.000153559
0.000144159
0.000137071
0.000130736
0.000125935
0.000121301
0.000117822
0.000114148
0.000111368
0.000159773
0.000109726
8.37944e-05
7.07217e-05
6.38433e-05
6.00912e-05
5.82433e-05
5.72015e-05
5.70047e-05
5.71372e-05
5.77649e-05
5.85926e-05
5.97861e-05
6.09982e-05
6.24436e-05
6.38618e-05
6.43535e-05
6.42093e-05
1.15008e-05
1.59563e-05
1.91994e-05
2.12241e-05
2.24451e-05
2.29202e-05
2.30686e-05
2.30563e-05
2.28347e-05
2.25494e-05
2.2241e-05
2.1932e-05
2.16366e-05
2.13618e-05
2.11098e-05
2.08823e-05
2.06765e-05
2.04957e-05
1.66019e-12
1.87678e-10
9.5451e-10
3.7479e-09
1.24789e-08
3.78393e-08
9.83358e-08
1.95015e-07
3.15098e-07
4.41594e-07
5.54632e-07
6.4234e-07
7.0054e-07
7.22352e-07
7.13081e-07
6.83846e-07
6.29022e-07
5.38461e-07
4.5824e-07
3.89379e-07
3.24318e-07
2.61205e-07
2.00414e-07
1.44021e-07
9.38548e-08
5.49705e-08
2.91581e-08
1.46408e-08
7.41811e-09
4.02331e-09
2.43173e-09
1.82833e-09
2.02613e-09
4.16662e-09
9.48109e-09
6.01091e-08
1.26244e-07
2.80983e-07
4.2435e-07
4.62422e-07
4.26702e-07
3.40975e-07
2.8765e-07
2.88234e-07
3.192e-07
4.31259e-07
5.81097e-07
1.19062e-06
2.69746e-06
8.29191e-06
2.10895e-05
3.60044e-05
4.25702e-05
4.80801e-05
4.26393e-05
4.01085e-05
4.05814e-05
4.00561e-05
3.87841e-05
3.54672e-05
3.70828e-05
2.91004e-05
3.31994e-05
3.26712e-05
3.36979e-05
3.419e-05
3.47923e-05
3.54047e-05
3.59443e-05
3.65341e-05
3.70695e-05
3.76294e-05
3.8162e-05
3.87022e-05
3.92291e-05
3.97567e-05
4.02772e-05
4.07964e-05
4.1311e-05
4.18242e-05
4.23339e-05
4.28426e-05
4.33485e-05
4.38537e-05
4.43565e-05
4.48587e-05
4.53586e-05
4.5858e-05
4.63554e-05
4.68521e-05
4.73467e-05
4.78391e-05
4.83285e-05
4.88149e-05
4.92977e-05
4.97769e-05
5.02526e-05
5.07265e-05
5.12012e-05
5.16824e-05
5.21776e-05
5.26681e-05
5.31644e-05
5.36652e-05
5.41714e-05
5.46838e-05
5.52025e-05
5.57284e-05
5.62616e-05
5.6803e-05
5.7353e-05
5.79124e-05
5.84819e-05
5.90622e-05
5.96542e-05
6.02586e-05
6.08765e-05
6.15089e-05
6.21568e-05
6.28216e-05
6.35043e-05
6.42065e-05
6.49294e-05
6.56749e-05
6.64445e-05
6.72401e-05
6.80633e-05
6.89204e-05
6.98159e-05
7.07578e-05
7.16948e-05
7.27212e-05
7.37464e-05
7.48604e-05
7.60327e-05
7.72603e-05
7.83473e-05
7.80973e-05
7.78387e-05
7.75649e-05
7.72809e-05
7.69852e-05
7.66793e-05
7.63631e-05
7.60374e-05
7.57021e-05
7.53581e-05
7.50054e-05
7.46468e-05
7.42751e-05
7.39045e-05
7.35167e-05
7.31325e-05
7.27361e-05
7.23381e-05
7.1935e-05
7.15289e-05
7.11207e-05
7.07107e-05
7.02999e-05
6.98887e-05
6.94776e-05
6.90668e-05
6.86566e-05
6.82474e-05
6.78397e-05
6.74342e-05
6.70316e-05
6.66323e-05
6.62368e-05
6.58448e-05
6.5456e-05
6.50692e-05
6.46815e-05
6.4289e-05
6.38838e-05
6.34552e-05
6.29743e-05
6.2384e-05
6.07976e-05
7.27462e-12
1.18006e-09
1.5932e-08
8.45473e-08
3.66314e-07
1.2075e-06
2.76896e-06
5.06156e-06
7.83853e-06
1.1e-05
1.4193e-05
1.7143e-05
1.9645e-05
2.15201e-05
2.26282e-05
2.29586e-05
2.26145e-05
2.17922e-05
1.95337e-05
1.63631e-05
1.26014e-05
9.25504e-06
6.51138e-06
4.37822e-06
2.75505e-06
1.70099e-06
1.03815e-06
6.44094e-07
4.03946e-07
2.64796e-07
1.91561e-07
1.68154e-07
1.58352e-07
2.89573e-07
4.40465e-07
3.54173e-06
7.32447e-06
1.49517e-05
2.07721e-05
2.28758e-05
2.15578e-05
1.97199e-05
1.7214e-05
1.64305e-05
1.71126e-05
1.73643e-05
2.06814e-05
2.83902e-05
3.97798e-05
5.10268e-05
6.30715e-05
7.33328e-05
8.19123e-05
8.92442e-05
9.70009e-05
0.000109572
0.00012184
0.00013519
0.000149022
0.000161297
0.000175793
0.000185478
0.000199758
0.000211831
0.000224081
0.000235735
0.000247061
0.000257879
0.000268365
0.000278458
0.000288298
0.000297831
0.000307158
0.000316254
0.00032518
0.000333929
0.000342534
0.000350996
0.000359333
0.000367548
0.000375651
0.000383645
0.000391536
0.000399326
0.000407019
0.000414617
0.00042212
0.000429532
0.000436851
0.000444077
0.000451209
0.000458242
0.000465166
0.000471969
0.000478631
0.000485123
0.000491398
0.000497392
0.000503003
0.000508102
0.000512551
0.000517119
0.000521449
0.000525716
0.000529835
0.000533844
0.00053772
0.000541471
0.000545089
0.000548575
0.000551925
0.000555138
0.00055821
0.00056114
0.000563926
0.000566566
0.000569057
0.000571399
0.000573589
0.000575625
0.000577507
0.000579233
0.0005808
0.000582208
0.000583454
0.000584537
0.000585455
0.000586206
0.000586795
0.00058724
0.000587493
0.000587636
0.00058748
0.000587262
0.00058698
0.000586656
0.000586372
0.000586197
0.000585866
0.000585393
0.000584784
0.000584045
0.000583178
0.000582186
0.000581073
0.000579839
0.000578485
0.000577034
0.000575423
0.000573852
0.000571962
0.000570167
0.000568131
0.000566067
0.000563896
0.000561638
0.00055931
0.000556909
0.000554449
0.000551932
0.000549367
0.000546754
0.000544096
0.000541393
0.000538648
0.000535863
0.000533043
0.000530194
0.00052732
0.000524423
0.000521499
0.000518541
0.000515547
0.000512467
0.000509257
0.000505838
0.000502076
0.000497664
0.000491847
0.00047567
1.87936e-11
3.20174e-09
6.03171e-08
3.58516e-07
1.10946e-06
2.98027e-06
6.30555e-06
1.09457e-05
1.66666e-05
2.31626e-05
3.00546e-05
3.69032e-05
4.3073e-05
4.82086e-05
5.21066e-05
5.46661e-05
5.60511e-05
5.6344e-05
5.48384e-05
5.19347e-05
4.72575e-05
4.12453e-05
3.39945e-05
2.67111e-05
2.00409e-05
1.42975e-05
9.69629e-06
6.45396e-06
4.09289e-06
2.72452e-06
1.93772e-06
1.54911e-06
1.32803e-06
2.19838e-06
4.18946e-06
1.69245e-05
3.5409e-05
5.35442e-05
6.28886e-05
6.12965e-05
4.92356e-05
4.05298e-05
4.0342e-05
4.70074e-05
5.42791e-05
6.39022e-05
7.72441e-05
8.95212e-05
0.000102706
0.000120088
0.000138845
0.000159959
0.000183199
0.000209602
0.00023886
0.000270654
0.000301925
0.000333067
0.000363694
0.000392662
0.000421216
0.000448312
0.000475331
0.000500194
0.000524345
0.000547498
0.000569601
0.000590909
0.000611549
0.000631561
0.000651075
0.00067011
0.000688757
0.000707034
0.000724995
0.000742657
0.000760051
0.000777188
0.000794087
0.000810754
0.0008272
0.00084343
0.000859449
0.000875259
0.000890862
0.000906258
0.000921445
0.000936421
0.000951179
0.000965715
0.000980018
0.000994072
0.00100786
0.00102135
0.00103451
0.00104732
0.00105972
0.00107168
0.00108316
0.00109415
0.00110481
0.00111533
0.00112553
0.0011355
0.0011452
0.00115463
0.00116379
0.00117266
0.00118125
0.00118954
0.00119754
0.00120524
0.00121263
0.00121971
0.00122648
0.00123293
0.00123905
0.00124486
0.00125033
0.00125547
0.00126028
0.00126476
0.00126889
0.00127269
0.00127614
0.00127925
0.00128201
0.00128443
0.00128651
0.00128825
0.00128963
0.0012907
0.00129136
0.00129173
0.00129193
0.00129197
0.00129178
0.00129138
0.00129066
0.00128963
0.00128829
0.00128665
0.00128473
0.00128253
0.00128005
0.0012773
0.0012743
0.00127105
0.00126753
0.00126386
0.0012598
0.00125568
0.0012512
0.00124658
0.00124174
0.00123671
0.00123151
0.00122616
0.00122068
0.00121508
0.00120936
0.00120355
0.00119763
0.00119163
0.00118553
0.00117935
0.00117311
0.0011668
0.00116044
0.00115404
0.00114759
0.00114108
0.00113448
0.00112771
0.00112068
0.00111323
0.00110503
0.00109533
0.00108226
0.00105288
7.12112e-11
1.20542e-08
1.91039e-07
7.75362e-07
2.5898e-06
6.97643e-06
1.38276e-05
2.30158e-05
3.38493e-05
4.52336e-05
5.62359e-05
6.63166e-05
7.49328e-05
8.14984e-05
8.64323e-05
8.95713e-05
9.08465e-05
9.06062e-05
8.89827e-05
8.581e-05
8.12013e-05
7.56043e-05
6.81635e-05
5.9271e-05
4.94518e-05
3.95664e-05
3.04788e-05
2.28911e-05
1.7074e-05
1.24151e-05
9.58118e-06
7.17153e-06
7.83231e-06
1.18679e-05
2.64138e-05
4.98136e-05
6.8633e-05
7.7184e-05
7.47923e-05
7.23024e-05
7.27965e-05
7.68544e-05
8.49078e-05
9.63132e-05
0.000111423
0.000123342
0.000143489
0.000166515
0.000193613
0.000226154
0.000261531
0.000300759
0.000342461
0.000386733
0.000432262
0.000478091
0.000522946
0.000566562
0.000608762
0.000649435
0.000688527
0.000726025
0.000762664
0.000797408
0.000830828
0.000863122
0.000894336
0.000924662
0.000954201
0.000983038
0.00101127
0.00103894
0.00106613
0.00109287
0.0011192
0.00114514
0.00117072
0.00119594
0.00122083
0.00124538
0.0012696
0.00129351
0.00131709
0.00134035
0.00136328
0.00138589
0.00140817
0.0014301
0.00145169
0.00147292
0.00149378
0.00151425
0.00153431
0.00155394
0.00157312
0.00159183
0.00161005
0.00162777
0.00164501
0.0016618
0.00167822
0.00169428
0.00170995
0.00172523
0.0017401
0.00175457
0.00176861
0.00178223
0.00179541
0.00180814
0.00182043
0.00183226
0.00184364
0.00185454
0.00186498
0.00187494
0.00188442
0.00189342
0.00190192
0.00190994
0.00191747
0.00192449
0.00193102
0.00193706
0.00194258
0.00194761
0.00195213
0.00195616
0.00195968
0.00196271
0.00196523
0.00196728
0.00196876
0.00196979
0.00197057
0.00197096
0.00197091
0.00197045
0.00196952
0.00196814
0.00196631
0.00196404
0.00196134
0.00195823
0.00195471
0.00195079
0.00194649
0.00194182
0.00193678
0.00193141
0.00192563
0.00191958
0.00191315
0.00190643
0.0018994
0.00189209
0.00188452
0.00187673
0.00186873
0.00186054
0.00185219
0.00184368
0.00183502
0.00182621
0.00181727
0.00180821
0.00179904
0.00178978
0.00178044
0.00177104
0.00176157
0.00175201
0.00174232
0.00173241
0.00172217
0.00171137
0.00169962
0.00168583
0.0016675
0.00163266
2.40075e-10
3.56725e-08
4.17129e-07
1.99559e-06
6.84417e-06
1.64325e-05
3.03998e-05
4.69961e-05
6.43031e-05
8.06179e-05
9.47606e-05
0.000105768
0.000113943
0.000119583
0.000122717
0.000123926
0.000123465
0.000121611
0.000118569
0.00011435
0.000108945
0.000102916
9.54768e-05
8.67502e-05
7.66627e-05
6.55131e-05
5.41475e-05
4.38427e-05
3.52929e-05
2.84105e-05
2.2433e-05
2.09969e-05
2.64996e-05
4.40492e-05
6.81939e-05
8.37975e-05
9.14851e-05
9.50092e-05
9.80125e-05
0.000103384
0.000112657
0.000126749
0.000140175
0.000153492
0.000175831
0.000204976
0.000237804
0.000276845
0.000320517
0.000368511
0.00041902
0.000472172
0.000526608
0.000581953
0.000637124
0.000691478
0.000744518
0.000796063
0.000845709
0.000894189
0.000940868
0.000986227
0.00102997
0.00107222
0.00111318
0.00115299
0.00119176
0.00122961
0.00126664
0.00130294
0.00133857
0.00137359
0.00140806
0.00144201
0.00147546
0.00150845
0.00154097
0.00157305
0.00160469
0.00163589
0.00166666
0.001697
0.0017269
0.00175636
0.00178538
0.00181395
0.00184207
0.00186973
0.00189693
0.00192364
0.00194986
0.00197558
0.00200079
0.00202546
0.0020496
0.00207319
0.00209624
0.00211875
0.00214074
0.00216223
0.00218324
0.00220376
0.00222377
0.00224327
0.00226224
0.00228068
0.00229858
0.00231593
0.00233272
0.00234895
0.00236459
0.00237966
0.00239414
0.00240804
0.00242134
0.00243403
0.00244613
0.00245762
0.00246849
0.00247876
0.00248841
0.00249745
0.00250587
0.00251367
0.00252085
0.00252742
0.00253337
0.00253871
0.00254344
0.00254757
0.00255105
0.00255396
0.0025562
0.00255787
0.0025592
0.00255996
0.00256016
0.0025598
0.00255889
0.00255741
0.00255539
0.00255284
0.00254975
0.00254615
0.00254205
0.00253746
0.0025324
0.00252687
0.00252089
0.00251448
0.00250761
0.00250035
0.00249265
0.00248457
0.00247611
0.00246729
0.00245816
0.00244872
0.00243902
0.00242907
0.0024189
0.00240853
0.00239795
0.00238718
0.00237623
0.00236511
0.00235385
0.00234246
0.00233095
0.00231934
0.00230763
0.0022958
0.00228381
0.0022716
0.00225903
0.00224588
0.00223173
0.00221553
0.00219436
0.00215928
7.66323e-10
8.76188e-08
1.05475e-06
5.34156e-06
1.73572e-05
3.6526e-05
5.94695e-05
8.28683e-05
0.000103287
0.000119396
0.000131364
0.000140158
0.000145582
0.000148529
0.000149508
0.000148903
0.000146968
0.000143891
0.000139826
0.000134733
0.000128738
0.000122168
0.000114432
0.000105631
9.47767e-05
7.90938e-05
6.38653e-05
4.96442e-05
3.82106e-05
3.33094e-05
3.43502e-05
4.61585e-05
6.789e-05
8.94793e-05
0.000104514
0.000113659
0.000119686
0.000126323
0.000137047
0.000153857
0.000165326
0.000179337
0.000203387
0.000232858
0.000269096
0.000312009
0.000359741
0.000412647
0.000468622
0.000527244
0.000587386
0.000648703
0.000710314
0.000771785
0.000832485
0.000892088
0.000949958
0.00100653
0.00106191
0.00111577
0.001168
0.00121883
0.00126821
0.00131626
0.00136311
0.00140887
0.00145363
0.00149748
0.00154051
0.00158279
0.00162437
0.0016653
0.00170562
0.00174535
0.00178452
0.00182314
0.00186121
0.00189875
0.00193574
0.0019722
0.00200811
0.00204349
0.00207832
0.0021126
0.00214633
0.0021795
0.00221211
0.00224415
0.00227562
0.00230651
0.00233682
0.00236653
0.00239564
0.00242414
0.00245203
0.00247931
0.00250598
0.00253206
0.00255755
0.00258245
0.00260677
0.00263049
0.00265362
0.00267613
0.00269801
0.00271928
0.0027399
0.00275988
0.00277921
0.00279787
0.00281587
0.00283319
0.00284984
0.00286581
0.0028811
0.0028957
0.00290962
0.00292284
0.00293537
0.00294721
0.00295836
0.00296881
0.00297857
0.00298763
0.00299601
0.0030037
0.0030107
0.00301702
0.00302271
0.00302764
0.0030319
0.00303553
0.00303839
0.00304067
0.00304248
0.00304364
0.00304416
0.00304406
0.00304333
0.00304199
0.00304005
0.00303751
0.00303439
0.0030307
0.00302644
0.00302164
0.00301631
0.00301046
0.00300411
0.00299725
0.00298991
0.00298209
0.00297381
0.00296507
0.00295591
0.00294634
0.00293639
0.0029261
0.00291548
0.00290458
0.0028934
0.00288196
0.00287028
0.00285837
0.00284623
0.00283388
0.00282134
0.00280864
0.0027958
0.00278282
0.00276972
0.00275648
0.00274307
0.00272943
0.00271547
0.00270097
0.00268556
0.00266831
0.00264655
0.00261343
2.45907e-09
2.24101e-07
2.786e-06
1.45439e-05
3.78132e-05
6.70673e-05
9.49076e-05
0.00011761
0.000134872
0.00014765
0.00015657
0.000162036
0.000164929
0.000165891
0.00016535
0.000163592
0.000160797
0.000157064
0.000152338
0.000146548
0.000139931
0.000132283
0.000123318
0.000107617
9.20398e-05
7.82554e-05
6.59366e-05
5.70964e-05
5.58383e-05
6.43032e-05
7.76861e-05
0.000102308
0.000119695
0.000132517
0.000141917
0.000150252
0.000161545
0.000178737
0.00018804
0.000201948
0.000224975
0.000253563
0.000290028
0.000332748
0.000382165
0.000436868
0.000495295
0.000556814
0.000620135
0.000684841
0.000750229
0.00081589
0.000881308
0.000946159
0.00100973
0.00107217
0.00113383
0.00119396
0.00125279
0.00131024
0.00136631
0.00142107
0.00147456
0.00152685
0.00157805
0.00162822
0.00167744
0.00172579
0.00177333
0.00182011
0.00186618
0.00191158
0.00195632
0.00200042
0.0020439
0.00208675
0.00212899
0.0021706
0.00221159
0.00225194
0.00229165
0.00233072
0.00236915
0.00240693
0.00244407
0.00248055
0.00251637
0.00255155
0.00258606
0.00261991
0.00265311
0.00268563
0.00271749
0.00274868
0.00277919
0.00280903
0.00283819
0.00286667
0.00289446
0.00292159
0.00294806
0.00297386
0.00299898
0.00302341
0.00304716
0.00307021
0.00309256
0.0031142
0.00313513
0.00315535
0.00317487
0.00319366
0.00321172
0.00322905
0.00324565
0.00326151
0.00327662
0.003291
0.00330464
0.00331753
0.00332969
0.00334111
0.00335179
0.00336173
0.00337095
0.00337943
0.00338718
0.00339425
0.00340062
0.00340617
0.00341106
0.00341525
0.00341863
0.00342144
0.00342367
0.00342521
0.00342609
0.0034263
0.00342585
0.00342476
0.00342304
0.0034207
0.00341775
0.00341425
0.00341019
0.00340556
0.00340037
0.00339463
0.00338836
0.00338156
0.00337423
0.00336641
0.00335808
0.00334927
0.00334
0.00333029
0.00332016
0.00330965
0.00329878
0.00328758
0.00327606
0.00326425
0.00325215
0.00323977
0.00322713
0.00321425
0.00320114
0.00318783
0.00317434
0.00316069
0.00314688
0.00313293
0.0031188
0.00310446
0.00308982
0.00307475
0.00305892
0.00304161
0.00302073
0.00299069
7.39733e-09
5.9244e-07
7.49467e-06
3.09942e-05
6.50993e-05
9.92444e-05
0.000127505
0.000148364
0.000162656
0.000171387
0.000175826
0.000177626
0.00017771
0.000176465
0.000174206
0.00017109
0.000167081
0.000162077
0.000156186
0.000149561
0.000142054
0.00013329
0.000116971
0.000100087
8.61391e-05
7.66174e-05
7.39741e-05
7.76834e-05
8.78499e-05
0.000108493
0.000133375
0.000155909
0.000168982
0.000179027
0.000190764
0.000201119
0.000208455
0.000221649
0.000242131
0.000268782
0.000303183
0.000343991
0.00039186
0.000445458
0.000504119
0.000566229
0.000630673
0.000696817
0.000763959
0.000831706
0.000899599
0.00096731
0.0010343
0.00110036
0.00116594
0.00123039
0.00129372
0.0013558
0.00141667
0.00147632
0.00153475
0.00159202
0.00164815
0.00170321
0.00175727
0.00181037
0.00186259
0.00191397
0.00196457
0.00201443
0.00206358
0.00211205
0.00215986
0.00220699
0.00225346
0.00229926
0.00234437
0.0023888
0.00243253
0.00247555
0.00251785
0.00255943
0.00260028
0.0026404
0.0026798
0.00271847
0.00275641
0.00279363
0.00283012
0.0028659
0.00290097
0.00293531
0.00296894
0.00300186
0.00303405
0.00306553
0.00309628
0.00312628
0.00315557
0.00318416
0.00321204
0.00323921
0.00326566
0.00329139
0.00331639
0.00334066
0.00336419
0.00338697
0.00340901
0.0034303
0.00345083
0.0034706
0.0034896
0.00350784
0.00352532
0.00354203
0.00355797
0.00357315
0.00358756
0.00360121
0.0036141
0.00362623
0.0036376
0.00364822
0.0036581
0.00366722
0.00367561
0.00368334
0.00369027
0.00369643
0.0037019
0.00370667
0.00371061
0.003714
0.00371675
0.00371879
0.00372016
0.00372086
0.00372089
0.00372028
0.00371902
0.00371714
0.00371464
0.00371153
0.00370783
0.00370355
0.00369869
0.00369327
0.0036873
0.00368078
0.00367373
0.00366615
0.00365805
0.00364944
0.00364035
0.00363079
0.0036208
0.0036104
0.0035996
0.00358845
0.00357694
0.00356511
0.00355296
0.00354049
0.00352772
0.00351468
0.00350138
0.00348784
0.00347409
0.00346015
0.00344604
0.00343175
0.00341729
0.00340263
0.00338772
0.0033725
0.00335683
0.00334004
0.00332049
0.00329409
1.9245e-08
1.47069e-06
1.66255e-05
5.20042e-05
9.2616e-05
0.000127027
0.000152854
0.000170192
0.000180991
0.000186553
0.000188285
0.000187305
0.000184575
0.000180813
0.000176407
0.000171472
0.000165914
0.00015978
0.000152976
0.000145646
0.00013755
0.0001272
0.000114908
0.000107643
0.000102244
9.84234e-05
0.000103338
0.000118767
0.000138381
0.000159363
0.000179077
0.000195399
0.000207048
0.000215952
0.000225321
0.000237788
0.000255989
0.000279998
0.000311229
0.000349033
0.000393621
0.000444128
0.000500246
0.000560733
0.000624531
0.000690441
0.000757738
0.000825924
0.000894564
0.000963339
0.00103192
0.00109971
0.00116713
0.00123396
0.00129985
0.00136472
0.00142853
0.00149123
0.00155283
0.00161333
0.00167275
0.00173112
0.00178847
0.00184487
0.00190034
0.00195495
0.00200873
0.00206173
0.002114
0.00216558
0.00221649
0.00226674
0.00231636
0.00236532
0.0024136
0.00246118
0.00250806
0.00255422
0.00259963
0.00264428
0.00268815
0.00273124
0.00277354
0.00281507
0.00285583
0.00289587
0.00293512
0.00297358
0.00301126
0.00304817
0.00308431
0.00311969
0.00315431
0.00318818
0.00322129
0.00325366
0.00328528
0.00331618
0.00334634
0.00337578
0.00340448
0.00343245
0.00345967
0.00348614
0.00351187
0.00353684
0.00356106
0.00358451
0.00360719
0.00362911
0.00365026
0.00367063
0.00369022
0.00370905
0.00372709
0.00374436
0.00376086
0.00377658
0.00379153
0.00380572
0.00381914
0.00383181
0.00384372
0.00385487
0.00386528
0.00387494
0.0038839
0.00389217
0.00389962
0.00390636
0.00391241
0.00391774
0.00392228
0.00392627
0.00392958
0.00393221
0.00393416
0.00393546
0.0039361
0.0039361
0.00393547
0.00393421
0.00393235
0.00392989
0.00392683
0.0039232
0.003919
0.00391424
0.00390892
0.00390306
0.00389666
0.00388972
0.00388226
0.00387428
0.00386581
0.00385686
0.00384746
0.00383762
0.00382738
0.00381676
0.00380576
0.0037944
0.00378269
0.00377064
0.00375825
0.00374556
0.00373258
0.00371934
0.00370585
0.00369214
0.00367823
0.00366413
0.00364984
0.00363536
0.00362067
0.00360573
0.00359037
0.00357417
0.00355582
0.00353262
4.28569e-08
3.39143e-06
2.9927e-05
7.56377e-05
0.000119824
0.000153613
0.000175681
0.000189505
0.000196069
0.000197195
0.000194802
0.000190285
0.000184581
0.000178271
0.000171579
0.000164445
0.000157079
0.000149068
0.000141127
0.000132823
0.000124429
0.00011687
0.000111967
0.000112016
0.000118376
0.000130496
0.00014651
0.000164156
0.000182094
0.000198962
0.000213044
0.000224395
0.000236422
0.00024974
0.000266749
0.000288345
0.000316274
0.000350471
0.000391078
0.000437521
0.000489478
0.000546238
0.000607111
0.000671023
0.000737021
0.000804287
0.000872316
0.000940745
0.00100928
0.00107738
0.00114498
0.00121251
0.00127922
0.00134514
0.00141015
0.00147418
0.00153721
0.00159921
0.00166021
0.00172019
0.00177918
0.00183722
0.00189436
0.00195065
0.00200613
0.00206086
0.00211484
0.00216809
0.0022207
0.00227271
0.00232414
0.00237501
0.00242533
0.00247513
0.0025245
0.00257327
0.00262131
0.00266857
0.00271503
0.00276067
0.00280546
0.00284939
0.00289246
0.00293466
0.002976
0.00301646
0.00305609
0.00309494
0.00313301
0.00317032
0.00320686
0.00324266
0.00327771
0.00331202
0.0033456
0.00337844
0.00341055
0.00344194
0.00347259
0.00350251
0.00353168
0.00356011
0.00358779
0.00361471
0.00364088
0.0036663
0.00369095
0.00371484
0.00373796
0.00376031
0.00378188
0.00380269
0.00382272
0.00384198
0.00386046
0.00387817
0.00389512
0.00391129
0.00392671
0.00394136
0.00395526
0.00396842
0.00398082
0.00399249
0.00400341
0.00401361
0.00402314
0.00403193
0.00403996
0.0040473
0.00405396
0.0040599
0.00406514
0.00406978
0.00407375
0.00407705
0.00407969
0.0040817
0.00408307
0.00408382
0.00408395
0.00408347
0.0040824
0.00408075
0.00407852
0.00407572
0.00407237
0.00406846
0.00406401
0.00405902
0.0040535
0.00404744
0.00404085
0.00403375
0.00402614
0.00401805
0.00400951
0.00400052
0.00399111
0.0039813
0.0039711
0.00396051
0.00394955
0.00393822
0.00392653
0.00391451
0.00390217
0.00388954
0.00387663
0.00386348
0.00385009
0.00383649
0.00382269
0.0038087
0.00379452
0.00378014
0.00376548
0.00375019
0.00373324
0.00371351
8.14361e-08
6.93182e-06
4.41977e-05
9.61898e-05
0.000141908
0.000174508
0.000194714
0.000204193
0.000206211
0.000203346
0.000197494
0.000189963
0.00018157
0.000172665
0.000163968
0.000155289
0.00014742
0.000140467
0.000135137
0.000131167
0.000129526
0.00013111
0.000136324
0.000145228
0.00015727
0.000171562
0.000186994
0.000202553
0.000216899
0.000229318
0.000242581
0.000257651
0.000274561
0.000294721
0.000319867
0.000350501
0.000386999
0.000429031
0.000476283
0.000528254
0.000584492
0.000644366
0.000707147
0.00077197
0.000838088
0.000904925
0.000972095
0.00103926
0.00110589
0.00117242
0.00123847
0.00130388
0.00136846
0.00143215
0.00149488
0.00155665
0.00161745
0.00167731
0.00173623
0.00179423
0.00185129
0.00190748
0.00196292
0.00201765
0.00207173
0.00212526
0.00217838
0.0022313
0.00228372
0.00233562
0.00238701
0.00243789
0.00248827
0.00253813
0.00258738
0.00263601
0.00268399
0.00273123
0.00277773
0.00282345
0.00286834
0.00291239
0.00295557
0.0029979
0.00303938
0.00308005
0.00311993
0.00315903
0.00319736
0.00323492
0.00327174
0.00330782
0.00334317
0.00337779
0.00341168
0.00344485
0.0034773
0.00350902
0.00354002
0.00357028
0.00359981
0.00362861
0.00365666
0.00368396
0.00371052
0.00373632
0.00376137
0.00378566
0.0038092
0.00383197
0.00385397
0.00387521
0.00389569
0.0039154
0.00393435
0.00395253
0.00396996
0.00398663
0.00400255
0.00401772
0.00403216
0.00404586
0.00405883
0.00407107
0.00408259
0.00409342
0.00410355
0.00411296
0.00412167
0.0041297
0.00413705
0.00414372
0.00414973
0.00415513
0.00415986
0.00416395
0.00416741
0.00417024
0.00417246
0.00417408
0.0041751
0.00417554
0.0041754
0.00417469
0.00417343
0.00417161
0.00416925
0.00416636
0.00416294
0.00415899
0.00415451
0.0041495
0.00414396
0.0041379
0.00413134
0.0041243
0.0041168
0.00410885
0.00410047
0.00409168
0.00408249
0.00407289
0.00406289
0.00405251
0.00404174
0.00403062
0.00401915
0.00400736
0.00399527
0.00398291
0.00397028
0.00395741
0.00394432
0.00393104
0.00391758
0.00390395
0.00389011
0.00387583
0.00386021
0.00384348
1.30063e-07
1.18474e-05
6.00568e-05
0.000117915
0.000163857
0.000194217
0.000210298
0.000215808
0.000214263
0.000208375
0.000200114
0.000190544
0.000181106
0.000172039
0.000164299
0.000157615
0.000152739
0.00015003
0.000149366
0.000151005
0.000155199
0.000161965
0.000171095
0.000182197
0.000194765
0.000208219
0.000221528
0.00023398
0.000247272
0.000263021
0.000280623
0.000300013
0.000323238
0.000350896
0.000383569