/*--------------------------------*- C++ -*----------------------------------*\
  =========                 |
  \\      /  F ield         | OpenFOAM: The Open Source CFD Toolbox
   \\    /   O peration     | Website:  https://openfoam.org
    \\  /    A nd           | Version:  8
     \\/     M anipulation  |
\*---------------------------------------------------------------------------*/
FoamFile
{
    version     2.0;
    format      ascii;
    class       volScalarField;
    location    "2200";
    object      p;
}
// * * * * * * * * * * * * * * * * * * * * * * * * * * * * * * * * * * * * * //

dimensions      [0 2 -2 0 0 0 0];

internalField   nonuniform List<scalar> 
12225
(
514.675
55.5274
2.36302
0.280905
-1.89957
-3.37513
-3.81239
-4.02282
-4.23259
-4.36952
-4.41671
-4.42636
-4.42942
-4.45747
-4.511
-4.57768
-4.72337
-4.94686
-122.18
0.238122
-2.7192
-0.765891
-2.21727
-3.52572
-3.95346
-4.13759
-4.2813
-4.38532
-4.46027
-4.51864
-4.56964
-4.60211
-4.62317
-4.64892
-4.71584
-4.81047
-200.646
-16.1492
-2.34721
-0.359115
-1.90161
-3.2456
-3.77302
-4.02328
-4.196
-4.32029
-4.41301
-4.48026
-4.52895
-4.55427
-4.56943
-4.58517
-4.61726
-4.60076
-110.617
-10.9749
-2.17792
-0.432823
-1.78854
-3.02962
-3.60213
-3.90933
-4.11862
-4.26445
-4.36686
-4.43758
-4.48636
-4.51502
-4.53245
-4.54043
-4.53952
-4.47098
-61.5736
-8.14663
-3.62338
-1.21082
-2.01605
-2.99918
-3.53008
-3.84987
-4.0724
-4.22711
-4.33478
-4.40948
-4.46089
-4.49208
-4.50744
-4.50492
-4.47881
-4.3887
-45.7316
-8.78607
-5.25959
-2.20117
-2.4308
-3.10196
-3.53744
-3.83443
-4.05044
-4.20429
-4.31337
-4.39014
-4.44263
-4.47361
-4.48522
-4.47454
-4.43449
-4.33994
-35.7954
-9.27732
-6.38138
-3.12561
-2.92282
-3.29092
-3.60485
-3.85576
-4.0512
-4.1964
-4.30242
-4.37825
-4.4299
-4.45968
-4.46864
-4.45407
-4.41009
-4.323
-27.7789
-8.9081
-6.97484
-3.80387
-3.36289
-3.49975
-3.70182
-3.90133
-4.07071
-4.203
-4.30279
-4.37557
-4.42552
-4.45438
-4.46275
-4.44846
-4.40746
-4.33267
-21.6909
-8.52106
-7.13554
-4.31173
-3.73019
-3.70736
-3.81765
-3.96603
-4.10634
-4.22264
-4.31372
-4.38182
-4.4293
-4.45726
-4.46598
-4.45402
-4.419
-4.35795
-16.6136
-8.14174
-7.0892
-4.75662
-4.08449
-3.93572
-3.9606
-4.05407
-4.16045
-4.25667
-4.33615
-4.39779
-4.44203
-4.46923
-4.47941
-4.47192
-4.44596
-4.40142
-12.64
-7.68193
-6.90722
-5.10292
-4.40812
-4.17169
-4.1233
-4.16287
-4.23308
-4.30646
-4.37206
-4.4258
-4.46631
-4.49313
-4.50612
-4.50526
-4.49095
-4.46473
-9.70007
-7.14984
-6.63032
-5.32775
-4.67997
-4.39849
-4.29583
-4.28811
-4.3233
-4.37297
-4.4235
-4.46854
-4.50519
-4.53225
-4.54941
-4.55698
-4.55605
-4.54871
-7.66713
-6.60579
-6.30709
-5.43273
-4.88441
-4.59862
-4.46502
-4.42187
-4.42716
-4.45495
-4.49094
-4.52754
-4.56084
-4.58902
-4.61151
-4.62869
-4.64173
-4.65259
-6.37204
-6.11413
-5.98681
-5.44146
-5.01705
-4.75888
-4.61745
-4.55379
-4.53779
-4.54838
-4.57245
-4.60229
-4.63354
-4.66395
-4.69269
-4.7199
-4.74646
-4.77377
-5.62379
-5.72347
-5.71012
-5.39197
-5.08705
-4.87414
-4.74292
-4.67336
-4.64636
-4.64656
-4.6632
-4.68929
-4.72055
-4.75455
-4.79018
-4.82718
-4.86596
-4.90725
-5.24448
-5.46128
-5.5092
-5.32865
-5.11612
-4.94905
-4.83677
-4.77177
-4.74308
-4.74022
-4.75487
-4.78114
-4.81506
-4.85418
-4.89713
-4.94329
-4.99256
-5.04508
-5.10324
-5.34537
-5.41804
-5.30004
-5.136
-4.99688
-4.89921
-4.8413
-4.81617
-4.81597
-4.83379
-4.86437
-4.90393
-4.94996
-5.00083
-5.05559
-5.11374
-5.17503
-5.14097
-5.40117
-5.47527
-5.34911
-5.17528
-5.02953
-4.92925
-4.87202
-4.85008
-4.8549
-4.87907
-4.91688
-4.96423
-5.01828
-5.07716
-5.13965
-5.20501
-5.27279
-5.39326
-5.65562
-5.69131
-5.47617
-5.22693
-5.03653
-4.9154
-4.8523
-4.83322
-4.84547
-4.87909
-4.9269
-4.984
-5.04717
-5.1143
-5.18405
-5.25564
-5.32863
-6.00265
-6.13745
-6.04321
-5.63568
-5.24767
-4.98789
-4.84134
-4.77636
-4.76682
-4.79315
-4.84167
-4.90347
-4.97296
-5.04674
-5.12275
-5.19979
-5.27722
-5.35482
-7.25028
-6.8901
-6.49476
-5.76244
-5.18366
-4.85352
-4.69688
-4.64671
-4.6606
-4.71107
-4.78125
-4.86121
-4.94545
-5.03092
-5.1161
-5.20026
-5.28312
-5.36481
-9.64179
-7.96517
-6.98319
-5.77247
-4.98014
-4.61273
-4.4825
-4.47425
-4.52907
-4.61435
-4.71203
-4.81309
-4.91306
-5.01021
-5.10402
-5.19454
-5.28204
-5.36704
-13.983
-9.39165
-7.40377
-5.57014
-4.59536
-4.26481
-4.21567
-4.2803
-4.39243
-4.51985
-4.64787
-4.77024
-4.88515
-4.99242
-5.09323
-5.18867
-5.27958
-5.36689
-20.8906
-10.9546
-7.55479
-5.05786
-4.01649
-3.83649
-3.93063
-4.09479
-4.2729
-4.4437
-4.60015
-4.7413
-4.86804
-4.98266
-5.08788
-5.18623
-5.27903
-5.36734
-29.7372
-11.95
-7.03414
-4.12675
-3.2647
-3.37864
-3.67176
-3.94756
-4.18991
-4.39793
-4.57644
-4.73054
-4.86481
-4.98279
-5.08977
-5.1889
-5.28194
-5.36993
-43.1071
-12.6146
-5.47342
-2.72959
-2.41391
-2.96413
-3.485
-3.86318
-4.1545
-4.38683
-4.57852
-4.73865
-4.87435
-4.99127
-5.09703
-5.19579
-5.28801
-5.37489
-84.6001
-17.3741
-3.66473
-1.26608
-1.69668
-2.72252
-3.43693
-3.87076
-4.1744
-4.41156
-4.60775
-4.76863
-4.90015
-5.00718
-5.10468
-5.20333
-5.29491
-5.37856
-177.886
-26.8502
-3.68079
-0.770863
-1.53577
-2.84376
-3.61483
-4.01607
-4.27202
-4.46824
-4.65202
-4.81727
-4.95284
-5.04915
-5.13252
-5.22235
-5.30681
-5.38534
-154.791
-9.62791
-3.27303
-1.06894
-1.84377
-3.22157
-3.91443
-4.22584
-4.41848
-4.5601
-4.70337
-4.85543
-5.00655
-5.12095
-5.20685
-5.29673
-5.37395
-5.44414
428.057
66.6049
7.05532
1.59877
-0.916272
-2.85762
-3.65371
-3.99552
-4.31126
-4.57814
-4.70861
-4.75673
-4.80161
-4.90657
-5.03956
-5.13779
-5.2344
-5.33264
-8.52638
-8.51353
-8.50283
-8.54413
-8.63718
-8.74097
-8.82101
-8.86114
-8.86486
-8.84721
-8.81977
-8.79113
-8.76937
-8.76047
-8.7654
-8.77802
-8.78924
-8.79435
-8.79343
-8.79092
-8.79483
-8.82726
-8.91719
-9.08808
-9.34079
-9.65834
-10.0293
-10.443
-10.884
-11.3361
-11.7841
-12.2163
-12.6231
-12.9981
-13.3369
-13.6371
-13.8975
-14.1184
-14.3003
-14.4442
-14.5515
-14.6234
-14.6614
-14.6668
-14.6409
-14.585
-14.5009
-14.3907
-14.2558
-14.094
-13.9026
-13.6829
-13.4378
-13.1688
-12.8772
-12.5642
-12.2307
-11.8778
-11.5065
-11.1179
-10.7129
-10.2929
-9.85881
-9.41188
-8.95327
-8.48417
-8.00578
-7.51931
-7.02593
-6.52685
-6.02321
-5.51616
-5.00682
-4.49627
-3.98554
-3.47565
-2.96754
-2.46214
-1.96029
-1.46282
-0.970468
-0.483945
-0.00389681
0.469086
0.934466
1.39176
1.84055
2.28046
2.71116
3.13242
3.54401
3.94577
4.33751
4.71922
5.09114
5.45327
5.80515
6.14639
6.47698
6.79715
7.10715
7.40717
7.6974
7.97803
8.24923
8.51122
8.7642
9.00838
9.24399
9.47124
9.69034
9.90155
10.1051
10.3013
10.4903
10.6723
10.8477
11.0167
11.1794
11.3362
11.4872
11.6326
11.7728
11.9078
12.038
12.1634
12.2843
12.4009
12.5134
12.6218
12.7264
12.8275
12.9255
13.0202
13.1116
13.1999
13.2852
13.3677
13.4475
13.5247
13.5994
13.6717
13.7417
13.8096
13.8754
13.9392
14.001
14.061
14.1192
14.1756
14.2303
14.2834
14.335
14.385
14.4334
14.4805
14.526
14.5702
14.613
14.6544
14.6945
14.7332
14.7707
14.8068
14.8417
14.8753
14.9077
14.9389
14.9691
14.9983
15.0266
15.0543
15.0818
15.1095
15.1382
15.169
15.2044
15.246
15.3039
15.3643
-8.58379
-8.61504
-8.68899
-8.78262
-8.88615
-8.97847
-9.03984
-9.06434
-9.0474
-8.98702
-8.89727
-8.80036
-8.71857
-8.66707
-8.64485
-8.64152
-8.65099
-8.67643
-8.71176
-8.73188
-8.75604
-8.83349
-8.99247
-9.23155
-9.53807
-9.90874
-10.3343
-10.7944
-11.2673
-11.7352
-12.1855
-12.6089
-12.9988
-13.3515
-13.6652
-13.9395
-14.1751
-14.3727
-14.5336
-14.659
-14.75
-14.8078
-14.8333
-14.8274
-14.791
-14.7247
-14.6289
-14.5036
-14.3494
-14.1694
-13.9673
-13.7434
-13.4967
-13.2275
-12.9363
-12.6239
-12.2911
-11.939
-11.5685
-11.1806
-10.7764
-10.357
-9.9235
-9.47709
-9.01893
-8.5502
-8.07209
-7.58581
-7.09256
-6.59351
-6.08983
-5.58265
-5.0731
-4.56225
-4.05116
-3.54082
-3.03219
-2.52618
-2.02367
-1.52546
-1.03231
-0.544929
-0.0639664
0.40998
0.876364
1.3347
1.78453
2.22548
2.65719
3.07936
3.49172
3.89404
4.2861
4.66778
5.03917
5.40048
5.75191
6.09348
6.42505
6.74651
7.05789
7.35933
7.65097
7.93299
8.20557
8.46891
8.7232
8.96866
9.20553
9.43404
9.65442
9.86688
10.0717
10.269
10.4592
10.6424
10.8189
10.989
11.1528
11.3106
11.4626
11.6091
11.7502
11.8863
12.0174
12.1439
12.2659
12.3836
12.4971
12.6067
12.7124
12.8142
12.9123
13.007
13.0986
13.1871
13.2727
13.3554
13.4355
13.513
13.588
13.6606
13.731
13.7992
13.8652
13.9293
13.9914
14.0517
14.1101
14.1668
14.2218
14.2752
14.327
14.3772
14.4259
14.4732
14.519
14.5633
14.6063
14.6479
14.6882
14.7271
14.7647
14.801
14.836
14.8698
14.9023
14.9337
14.964
14.9933
15.0217
15.0496
15.0771
15.1049
15.1336
15.1644
15.1992
15.2387
15.2924
15.3422
-8.71086
-8.7927
-8.91074
-9.01667
-9.09967
-9.15363
-9.17435
-9.16063
-9.11113
-9.02807
-8.9205
-8.80496
-8.70494
-8.6401
-8.61114
-8.60616
-8.625
-8.68157
-8.78508
-8.93202
-9.12212
-9.36243
-9.65601
-9.99484
-10.3667
-10.7623
-11.1716
-11.583
-11.9856
-12.3723
-12.7383
-13.0799
-13.3944
-13.6802
-13.9361
-14.1616
-14.3567
-14.5213
-14.6556
-14.7601
-14.8351
-14.8809
-14.898
-14.8868
-14.8478
-14.7814
-14.6879
-14.5674
-14.4199
-14.2462
-14.0479
-13.8259
-13.5809
-13.3133
-13.0238
-12.7132
-12.3823
-12.032
-11.6633
-11.2771
-10.8744
-10.4565
-10.0243
-9.57907
-9.12194
-8.6541
-8.17675
-7.69107
-7.19827
-6.69953
-6.19602
-5.68888
-5.17922
-4.66815
-4.1567
-3.64589
-3.13668
-2.62999
-2.12669
-1.6276
-1.13349
-0.64506
-0.16298
0.312152
0.779786
1.23943
1.69064
2.13303
2.56625
2.99003
3.40413
3.80833
4.2025
4.58654
4.96043
5.32417
5.6778
6.02132
6.35471
6.67797
6.99116
7.29441
7.58786
7.87166
8.14601
8.41109
8.6671
8.91427
9.1528
9.38294
9.6049
9.81891
10.0252
10.2241
10.4157
10.6003
10.7782
10.9496
11.1147
11.2738
11.4271
11.5748
11.7171
11.8542
11.9863
12.1136
12.2364
12.3548
12.469
12.5792
12.6855
12.788
12.8871
12.9829
13.0755
13.165
13.2515
13.3351
13.4159
13.4942
13.5699
13.6433
13.7143
13.7831
13.8498
13.9144
13.9771
14.0378
14.0968
14.1539
14.2094
14.2632
14.3154
14.366
14.4151
14.4626
14.5088
14.5535
14.5968
14.6387
14.6792
14.7184
14.7562
14.7927
14.828
14.8619
14.8947
14.9262
14.9567
14.9861
15.0147
15.0426
15.0702
15.0979
15.1264
15.1565
15.19
15.2266
15.2739
15.3075
-8.75056
-8.84807
-8.9494
-9.03598
-9.10049
-9.14026
-9.15278
-9.13543
-9.08818
-9.01604
-8.93019
-8.84742
-8.78594
-8.75866
-8.7705
-8.82353
-8.92164
-9.06848
-9.26469
-9.5053
-9.78142
-10.0858
-10.4126
-10.7553
-11.1086
-11.4673
-11.8261
-12.1798
-12.5237
-12.8538
-13.1668
-13.46
-13.7312
-13.9787
-14.2014
-14.3982
-14.5687
-14.7124
-14.829
-14.9186
-14.9812
-15.0168
-15.0255
-15.0075
-14.9628
-14.8918
-14.7947
-14.6718
-14.5236
-14.3508
-14.1539
-13.9335
-13.69
-13.4241
-13.1363
-12.8274
-12.4982
-12.1495
-11.7822
-11.3974
-10.9961
-10.5793
-10.1481
-9.70378
-9.24736
-8.78007
-8.30311
-7.81766
-7.32493
-6.82611
-6.32235
-5.81482
-5.30463
-4.79288
-4.28062
-3.76886
-3.25859
-2.75072
-2.24613
-1.74565
-1.25006
-0.760055
-0.276319
0.200544
0.669979
1.13148
1.58461
2.02897
2.46422
2.89007
3.30628
3.71264
4.10904
4.49536
4.87157
5.23763
5.59352
5.93921
6.27471
6.60005
6.91533
7.22064
7.51614
7.80197
8.07833
8.34538
8.60335
8.85243
9.09284
9.32481
9.54857
9.76434
9.97237
10.1729
10.3662
10.5524
10.7319
10.9048
11.0714
11.2319
11.3865
11.5355
11.679
11.8174
11.9507
12.0792
12.2032
12.3227
12.438
12.5492
12.6565
12.7601
12.8602
12.957
13.0506
13.141
13.2284
13.3129
13.3946
13.4736
13.5501
13.6241
13.6958
13.7653
13.8326
13.8979
13.9611
14.0224
14.0819
14.1396
14.1955
14.2498
14.3024
14.3534
14.4029
14.4509
14.4974
14.5424
14.5861
14.6283
14.6691
14.7086
14.7467
14.7835
14.819
14.8532
14.8861
14.9178
14.9484
14.9779
15.0065
15.0344
15.0618
15.0891
15.117
15.1459
15.1773
15.2098
15.2492
15.2678
-8.53897
-8.62391
-8.72403
-8.82114
-8.89853
-8.95129
-8.97841
-8.98068
-8.96257
-8.93235
-8.9021
-8.8858
-8.89627
-8.94309
-9.03249
-9.1676
-9.34857
-9.57082
-9.82591
-10.1058
-10.4049
-10.7192
-11.0441
-11.3748
-11.7068
-12.0365
-12.3604
-12.6754
-12.9788
-13.2682
-13.5415
-13.797
-14.0333
-14.2491
-14.4436
-14.6157
-14.7649
-14.8905
-14.9921
-15.0693
-15.1219
-15.1495
-15.1521
-15.1296
-15.0819
-15.009
-14.911
-14.7881
-14.6405
-14.4687
-14.273
-14.0539
-13.8119
-13.5474
-13.2611
-12.9536
-12.6259
-12.2786
-11.9127
-11.5291
-11.1288
-10.713
-10.2827
-9.83901
-9.38313
-8.91625
-8.43954
-7.9542
-7.46142
-6.9624
-6.4583
-5.95028
-5.43947
-4.92696
-4.41382
-3.90106
-3.38966
-2.88055
-2.37462
-1.8727
-1.37556
-0.883928
-0.398478
0.0801774
0.551479
1.01492
1.47005
1.91648
2.35384
2.78186
3.20029
3.60892
4.0076
4.39623
4.77475
5.14309
5.50124
5.84917
6.1869
6.51447
6.83196
7.13949
7.43718
7.7252
8.00371
8.2729
8.53297
8.78411
9.02657
9.26057
9.48631
9.70402
9.91395
10.1163
10.3114
10.4994
10.6806
10.8551
11.0234
11.1854
11.3416
11.4921
11.6371
11.7769
11.9117
12.0416
12.1668
12.2876
12.4041
12.5166
12.6251
12.7298
12.831
12.9289
13.0234
13.1147
13.203
13.2884
13.3709
13.4508
13.5281
13.6029
13.6754
13.7456
13.8136
13.8795
13.9433
14.0053
14.0653
14.1236
14.1801
14.2348
14.288
14.3395
14.3894
14.4379
14.4848
14.5302
14.5742
14.6168
14.658
14.6978
14.7362
14.7733
14.809
14.8434
14.8766
14.9085
14.9391
14.9687
14.9973
15.025
15.0521
15.0789
15.1058
15.1331
15.1617
15.1895
15.2211
15.2273
-8.11907
-8.20746
-8.32839
-8.45108
-8.55631
-8.63673
-8.69502
-8.73705
-8.77043
-8.80493
-8.85153
-8.92053
-9.01997
-9.1547
-9.32694
-9.5357
-9.77633
-10.0432
-10.3311
-10.6342
-10.9471
-11.265
-11.5839
-11.9004
-12.2117
-12.5157
-12.8103
-13.0941
-13.3655
-13.6233
-13.8663
-14.0932
-14.3032
-14.4951
-14.668
-14.8212
-14.9539
-15.0653
-15.1548
-15.222
-15.2663
-15.2874
-15.2848
-15.2584
-15.2079
-15.1332
-15.0342
-14.9111
-14.7638
-14.5926
-14.3979
-14.1799
-13.9391
-13.676
-13.3911
-13.0851
-12.7588
-12.4129
-12.0483
-11.6659
-11.2668
-10.852
-10.4226
-9.97962
-9.52433
-9.0579
-8.58149
-8.0963
-7.60352
-7.10434
-6.59994
-6.09147
-5.58007
-5.06684
-4.55283
-4.03909
-3.52658
-3.01626
-2.509
-2.00565
-1.50698
-1.01373
-0.526578
-0.0461351
0.42703
0.892408
1.34954
1.79803
2.23752
2.66772
3.08836
3.49926
3.90023
4.29117
4.672
5.04264
5.40308
5.7533
6.09331
6.42316
6.74294
7.05274
7.3527
7.64297
7.92373
8.19514
8.4574
8.71072
8.9553
9.19138
9.41916
9.6389
9.85081
10.0551
10.2521
10.442
10.625
10.8014
10.9713
11.1351
11.293
11.4451
11.5917
11.733
11.8693
12.0006
12.1273
12.2495
12.3673
12.481
12.5908
12.6968
12.7992
12.8981
12.9937
13.086
13.1753
13.2617
13.3451
13.4259
13.5041
13.5798
13.653
13.724
13.7928
13.8594
13.924
13.9866
14.0473
14.1062
14.1632
14.2186
14.2723
14.3243
14.3748
14.4237
14.4711
14.517
14.5614
14.6044
14.646
14.6861
14.7249
14.7623
14.7983
14.833
14.8663
14.8983
14.9291
14.9587
14.9872
15.0147
15.0414
15.0674
15.0931
15.1184
15.1439
15.1669
15.1912
15.1867
-7.65381
-7.7525
-7.89455
-8.04333
-8.18125
-8.29984
-8.40267
-8.49907
-8.59842
-8.70965
-8.8404
-8.99557
-9.17791
-9.38789
-9.62382
-9.88357
-10.1642
-10.461
-10.7688
-11.0824
-11.3975
-11.7108
-12.0194
-12.3213
-12.6149
-12.8989
-13.1723
-13.4342
-13.6836
-13.9198
-14.1418
-14.349
-14.5403
-14.7151
-14.8724
-15.0115
-15.1316
-15.232
-15.312
-15.371
-15.4084
-15.4238
-15.4165
-15.3864
-15.333
-15.2562
-15.1559
-15.0318
-14.8842
-14.7131
-14.5187
-14.3012
-14.0612
-13.799
-13.5151
-13.2103
-12.8851
-12.5403
-12.1769
-11.7958
-11.3978
-10.9841
-10.5557
-10.1137
-9.65928
-9.19358
-8.71779
-8.2331
-7.74071
-7.24179
-6.73751
-6.22903
-5.71749
-5.20397
-4.68955
-4.17526
-3.66208
-3.15096
-2.64277
-2.13837
-1.63855
-1.14402
-0.655488
-0.173563
0.301182
0.768231
1.22712
1.67745
2.11885
2.55103
2.97372
3.38671
3.78982
4.18293
4.56595
4.9388
5.30145
5.65389
5.99613
6.32823
6.65026
6.96231
7.26453
7.55704
7.84002
8.11364
8.3781
8.63359
8.88033
9.11853
9.34842
9.57022
9.78418
9.99051
10.1895
10.3813
10.5662
10.7444
10.9162
11.0818
11.2414
11.3952
11.5434
11.6864
11.8242
11.9571
12.0852
12.2088
12.3281
12.4432
12.5542
12.6615
12.7651
12.8652
12.9619
13.0554
13.1458
13.2331
13.3176
13.3994
13.4785
13.5551
13.6292
13.701
13.7706
13.838
13.9034
13.9667
14.0281
14.0877
14.1454
14.2014
14.2557
14.3083
14.3593
14.4087
14.4566
14.503
14.5479
14.5914
14.6333
14.6739
14.713
14.7507
14.787
14.822
14.8555
14.8877
14.9185
14.9481
14.9764
15.0036
15.0297
15.0548
15.0791
15.1023
15.1245
15.1426
15.1603
15.1464
-7.29772
-7.39124
-7.54327
-7.70897
-7.87577
-8.03668
-8.19119
-8.34717
-8.51289
-8.69415
-8.89502
-9.1167
-9.35778
-9.61741
-9.89498
-10.1882
-10.4934
-10.8061
-11.122
-11.4377
-11.7502
-12.0572
-12.3569
-12.6478
-12.929
-13.1997
-13.459
-13.7064
-13.9414
-14.1632
-14.3712
-14.5649
-14.7435
-14.9062
-15.0524
-15.1814
-15.2923
-15.3844
-15.4571
-15.5097
-15.5415
-15.5521
-15.5408
-15.5073
-15.4512
-15.3722
-15.27
-15.1447
-14.9961
-14.8243
-14.6295
-14.4119
-14.1718
-13.9098
-13.6262
-13.3218
-12.9971
-12.653
-12.2902
-11.9098
-11.5126
-11.0997
-10.6721
-10.2309
-9.77729
-9.31239
-8.83736
-8.3534
-7.86168
-7.36338
-6.85966
-6.35166
-5.84052
-5.32731
-4.81311
-4.29893
-3.78576
-3.27452
-2.76612
-2.26138
-1.76109
-1.266
-0.776763
-0.294025
0.181648
0.649737
1.10978
1.56136
2.00412
2.43775
2.86197
3.27658
3.68137
4.07623
4.46104
4.83573
5.20026
5.55461
5.89881
6.2329
6.55695
6.87105
7.17532
7.46992
7.75498
8.0307
8.29725
8.55482
8.80364
9.0439
9.27584
9.49967
9.71563
9.92395
10.1249
10.3186
10.5054
10.6855
10.8591
11.0265
11.1878
11.3433
11.4933
11.6379
11.7773
11.9117
12.0414
12.1665
12.2872
12.4037
12.5161
12.6247
12.7295
12.8309
12.9288
13.0234
13.1149
13.2034
13.2889
13.3717
13.4518
13.5293
13.6044
13.6771
13.7475
13.8158
13.8819
13.946
14.0082
14.0684
14.1268
14.1835
14.2384
14.2916
14.3432
14.3932
14.4417
14.4886
14.534
14.5779
14.6203
14.6612
14.7007
14.7388
14.7754
14.8106
14.8444
14.8767
14.9076
14.9371
14.9652
14.992
15.0174
15.0415
15.0642
15.085
15.1039
15.1173
15.129
15.107
-7.10696
-7.19307
-7.34717
-7.51951
-7.70288
-7.89513
-8.09283
-8.29798
-8.51516
-8.74681
-8.99324
-9.25441
-9.53024
-9.82038
-10.1229
-10.4346
-10.7519
-11.0712
-11.3897
-11.7047
-12.014
-12.316
-12.6094
-12.893
-13.1662
-13.4283
-13.6787
-13.9171
-14.1428
-14.3556
-14.5547
-14.7397
-14.9099
-15.0648
-15.2035
-15.3255
-15.43
-15.5163
-15.5837
-15.6315
-15.659
-15.6658
-15.6512
-15.6148
-15.5561
-15.4749
-15.3709
-15.2439
-15.094
-14.9211
-14.7254
-14.5071
-14.2665
-14.004
-13.7202
-13.4155
-13.0908
-12.7468
-12.3842
-12.004
-11.6072
-11.1947
-10.7676
-10.3269
-9.87393
-9.40968
-8.93536
-8.45212
-7.96114
-7.46359
-6.96062
-6.45336
-5.94294
-5.43042
-4.91687
-4.40328
-3.89065
-3.37988
-2.87186
-2.36743
-1.86736
-1.37238
-0.883158
-0.400328
0.0755442
0.543942
1.0044
1.4565
1.89989
2.33424
2.75929
3.17482
3.58064
3.97661
4.36261
4.73858
5.10445
5.46022
5.8059
6.14152
6.46716
6.78291
7.08888
7.3852
7.67203
7.94954
8.2179
8.47731
8.72797
8.97009
9.20388
9.42957
9.64738
9.85753
10.0603
10.2558
10.4444
10.6263
10.8016
10.9707
11.1338
11.291
11.4426
11.5887
11.7297
11.8657
11.9969
12.1234
12.2456
12.3634
12.4773
12.5872
12.6933
12.7959
12.895
12.9908
13.0834
13.173
13.2596
13.3434
13.4245
13.503
13.579
13.6526
13.7239
13.793
13.86
13.9249
13.9878
14.0488
14.1079
14.1652
14.2208
14.2747
14.3269
14.3775
14.4264
14.4739
14.5198
14.5642
14.6071
14.6484
14.6884
14.7268
14.7637
14.7992
14.8331
14.8656
14.8965
14.926
14.9538
14.9801
15.0048
15.0277
15.0487
15.0671
15.0826
15.0915
15.0978
15.0688
-7.07864
-7.16545
-7.31315
-7.48192
-7.66863
-7.87315
-8.09233
-8.32416
-8.56889
-8.82715
-9.09844
-9.38192
-9.67733
-9.98353
-10.2978
-10.6172
-10.9388
-11.2599
-11.5781
-11.8913
-12.1977
-12.4961
-12.7853
-13.0644
-13.3329
-13.5901
-13.8356
-14.0689
-14.2896
-14.4973
-14.6914
-14.8715
-15.0369
-15.1871
-15.3214
-15.4391
-15.5395
-15.6219
-15.6857
-15.7302
-15.7546
-15.7585
-15.7413
-15.7024
-15.6415
-15.5583
-15.4525
-15.3239
-15.1725
-14.9983
-14.8014
-14.5821
-14.3406
-14.0773
-13.7929
-13.4878
-13.1627
-12.8185
-12.4558
-12.0756
-11.6789
-11.2667
-10.84
-10.3998
-9.94739
-9.48381
-9.01024
-8.52782
-8.03773
-7.54111
-7.03911
-6.53286
-6.02345
-5.51195
-4.99941
-4.48683
-3.97516
-3.46532
-2.95819
-2.45458
-1.95527
-1.46097
-0.972363
-0.490056
-0.0146119
0.453458
0.913692
1.36568
1.80907
2.24353
2.6688
3.08465
3.49088
3.88736
4.27397
4.65063
5.01729
5.37393
5.72056
6.05721
6.38396
6.70089
7.0081
7.30573
7.59393
7.87284
8.14266
8.40356
8.65574
8.89941
9.13477
9.36205
9.58146
9.79323
9.99759
10.1948
10.385
10.5684
10.7454
10.9161
11.0807
11.2394
11.3925
11.5402
11.6827
11.8201
11.9528
12.0807
12.2042
12.3235
12.4386
12.5498
12.6572
12.7609
12.8612
12.9582
13.0519
13.1426
13.2302
13.3151
13.3972
13.4766
13.5536
13.6281
13.7003
13.7702
13.838
13.9037
13.9674
14.0291
14.0889
14.1469
14.2032
14.2577
14.3105
14.3617
14.4113
14.4593
14.5057
14.5506
14.5939
14.6358
14.6761
14.7149
14.7521
14.7879
14.822
14.8546
14.8855
14.9148
14.9424
14.9682
14.9921
15.0138
15.033
15.049
15.0612
15.0659
15.0672
15.0321
-7.18917
-7.26754
-7.39849
-7.55438
-7.73301
-7.93407
-8.15487
-8.39283
-8.64629
-8.91394
-9.19412
-9.48572
-9.78778
-10.0984
-10.415
-10.7351
-11.0561
-11.3758
-11.692
-12.0029
-12.3071
-12.6031
-12.89
-13.167
-13.4334
-13.6887
-13.9322
-14.1636
-14.3825
-14.5882
-14.7804
-14.9584
-15.1218
-15.2699
-15.402
-15.5176
-15.6158
-15.6961
-15.7577
-15.8
-15.8223
-15.8241
-15.8049
-15.7641
-15.7014
-15.6164
-15.5089
-15.3787
-15.2258
-15.0503
-14.8521
-14.6317
-14.3892
-14.1252
-13.84
-13.5344
-13.2089
-12.8644
-12.5017
-12.1216
-11.7251
-11.3133
-10.8871
-10.4476
-9.99597
-9.53331
-9.06077
-8.57949
-8.09063
-7.59532
-7.0947
-6.58987
-6.08193
-5.57193
-5.06091
-4.54984
-4.03968
-3.53131
-3.02561
-2.52338
-2.02538
-1.53232
-1.04486
-0.563619
-0.0891449
0.378053
0.837519
1.28885
1.73167
2.16569
2.59062
3.00624
3.41236
3.80882
4.19552
4.57238
4.93933
5.29636
5.64348
5.98072
6.30815
6.62583
6.93389
7.23243
7.52161
7.80158
8.0725
8.33457
8.58796
8.83288
9.06953
9.29813
9.51889
9.73203
9.93778
10.1363
10.328
10.5129
10.6912
10.8633
11.0294
11.1895
11.3441
11.4931
11.637
11.7758
11.9097
12.039
12.1638
12.2843
12.4007
12.5131
12.6217
12.7266
12.8281
12.9261
13.0209
13.1126
13.2013
13.2871
13.3702
13.4506
13.5285
13.6039
13.6769
13.7477
13.8163
13.8828
13.9472
14.0097
14.0702
14.1289
14.1858
14.241
14.2944
14.3462
14.3964
14.4449
14.4919
14.5373
14.5811
14.6234
14.6641
14.7033
14.7408
14.7768
14.8112
14.8439
14.8748
14.904
14.9313
14.9565
14.9795
14.9999
15.0174
15.031
15.0401
15.0408
15.0376
14.9973
-7.36547
-7.43005
-7.54097
-7.6794
-7.84321
-8.03193
-8.24321
-8.47437
-8.72298
-8.98669
-9.26329
-9.55159
-9.85039
-10.1575
-10.4704
-10.7868
-11.1044
-11.4209
-11.7344
-12.0432
-12.3457
-12.6407
-12.9271
-13.204
-13.4706
-13.7262
-13.9703
-14.2023
-14.4217
-14.628
-14.8205
-14.9988
-15.1622
-15.3101
-15.4419
-15.5569
-15.6544
-15.7337
-15.7942
-15.8353
-15.8564
-15.8568
-15.8361
-15.7938
-15.7295
-15.643
-15.534
-15.4025
-15.2483
-15.0715
-14.8722
-14.6507
-14.4074
-14.1427
-13.857
-13.551
-13.2254
-12.8809
-12.5184
-12.1387
-11.7428
-11.3318
-10.9065
-10.4682
-10.0179
-9.55665
-9.0857
-8.60613
-8.11908
-7.62568
-7.12705
-6.62427
-6.11842
-5.61054
-5.10164
-4.5927
-4.08465
-3.57838
-3.07472
-2.57447
-2.0784
-1.58719
-1.1015
-0.621922
-0.149015
0.316725
0.774846
1.22495
1.66667
2.0997
2.52377
2.93865
3.34415
3.74012
4.12645
4.50305
4.86986
5.22687
5.57407
5.9115
6.23922
6.5573
6.86584
7.16497
7.45481
7.73551
8.00725
8.27019
8.52452
8.77043
9.00813
9.23781
9.4597
9.67401
9.88094
10.0807
10.2736
10.4597
10.6394
10.8128
10.9801
11.1415
11.2973
11.4477
11.5928
11.7328
11.868
11.9985
12.1246
12.2463
12.3638
12.4774
12.5871
12.6931
12.7957
12.8948
12.9906
13.0833
13.173
13.2598
13.3438
13.4252
13.5039
13.5802
13.6541
13.7257
13.7951
13.8623
13.9275
13.9907
14.0519
14.1113
14.1689
14.2247
14.2788
14.3311
14.3819
14.431
14.4785
14.5244
14.5687
14.6114
14.6525
14.6921
14.73
14.7663
14.8008
14.8336
14.8646
14.8936
14.9205
14.9451
14.9673
14.9864
15.0022
15.0135
15.0196
15.0167
15.0094
14.9647
-7.5393
-7.59079
-7.68336
-7.80393
-7.95055
-8.12267
-8.31823
-8.53487
-8.77011
-9.02142
-9.28676
-9.56501
-9.85479
-10.1539
-10.4598
-10.7703
-11.083
-11.3957
-11.7066
-12.0138
-12.3158
-12.6111
-12.8985
-13.1771
-13.4458
-13.7038
-13.9504
-14.185
-14.407
-14.6156
-14.8104
-14.9905
-15.1555
-15.3047
-15.4374
-15.553
-15.6508
-15.7301
-15.7904
-15.8309
-15.8512
-15.8507
-15.829
-15.7855
-15.7201
-15.6324
-15.5222
-15.3895
-15.2343
-15.0565
-14.8564
-14.6343
-14.3905
-14.1254
-13.8396
-13.5338
-13.2085
-12.8645
-12.5028
-12.1241
-11.7295
-11.3198
-10.8962
-10.4597
-10.0114
-9.55233
-9.08369
-8.60658
-8.12212
-7.6314
-7.13552
-6.63557
-6.1326
-5.62762
-5.12163
-4.61558
-4.1104
-3.60697
-3.1061
-2.60857
-2.11512
-1.62645
-1.14319
-0.665934
-0.195227
0.26844
0.724621
1.17292
1.61297
2.04448
2.46717
2.88081
3.28522
3.68024
4.06575
4.44166
4.80792
5.16451
5.51142
5.84869
6.17636
6.4945
6.80322
7.10262
7.39284
7.67401
7.9463
8.20987
8.4649
8.71158
8.95011
9.18069
9.40351
9.6188
9.82676
10.0276
10.2215
10.4088
10.5896
10.7641
10.9326
11.0952
11.2522
11.4037
11.55
11.6912
11.8276
11.9592
12.0864
12.2092
12.3279
12.4426
12.5534
12.6605
12.7641
12.8642
12.961
13.0547
13.1454
13.2331
13.318
13.4003
13.4799
13.557
13.6317
13.7041
13.7743
13.8423
13.9082
13.9722
14.0341
14.0942
14.1524
14.2089
14.2635
14.3165
14.3678
14.4175
14.4655
14.5119
14.5567
14.5999
14.6415
14.6814
14.7197
14.7562
14.791
14.8239
14.8549
14.8837
14.9103
14.9344
14.9556
14.9736
14.9876
14.9967
15
14.9938
14.9828
14.9343
-7.66612
-7.70828
-7.78546
-7.8894
-8.01862
-8.17266
-8.34979
-8.54805
-8.76543
-8.99972
-9.24955
-9.51418
-9.79218
-10.0813
-10.379
-10.683
-10.9908
-11.3003
-11.6094
-11.9162
-12.2189
-12.5161
-12.8062
-13.088
-13.3605
-13.6226
-13.8735
-14.1123
-14.3382
-14.5506
-14.7487
-14.9319
-15.0995
-15.2509
-15.3853
-15.5022
-15.6008
-15.6807
-15.7411
-15.7815
-15.8015
-15.8004
-15.778
-15.7337
-15.6674
-15.5788
-15.4678
-15.3343
-15.1784
-15.0001
-14.7997
-14.5774
-14.3337
-14.0689
-13.7837
-13.4786
-13.1544
-12.8118
-12.4516
-12.0748
-11.6822
-11.2749
-10.8539
-10.4201
-9.97479
-9.5189
-9.05357
-8.57991
-8.09899
-7.61193
-7.11978
-6.62361
-6.12444
-5.62329
-5.12111
-4.61885
-4.1174
-3.61764
-3.12037
-2.62635
-2.1363
-1.65091
-1.1708
-0.696554
-0.228714
0.232238
0.685864
1.13177
1.56959
1.99903
2.41982
2.83173
3.23456
3.62817
4.01243
4.38725
4.75258
5.10838
5.45465
5.79141
6.11871
6.43663
6.74523
7.04464
7.33498
7.61637
7.88898
8.15296
8.40849
8.65576
8.89493
9.12623
9.34983
9.56595
9.77479
9.97656
10.1715
10.3597
10.5415
10.7171
10.8866
11.0503
11.2084
11.361
11.5084
11.6507
11.7882
11.921
12.0492
12.1731
12.2929
12.4086
12.5204
12.6286
12.7331
12.8343
12.9321
13.0268
13.1183
13.207
13.2928
13.3759
13.4564
13.5344
13.6099
13.6831
13.754
13.8228
13.8895
13.9541
14.0168
14.0775
14.1364
14.1935
14.2488
14.3024
14.3543
14.4045
14.4531
14.5
14.5453
14.589
14.631
14.6713
14.7099
14.7468
14.7817
14.8148
14.8457
14.8745
14.9007
14.9242
14.9446
14.9614
14.9739
14.9809
14.9816
14.9724
14.9581
14.9064
-7.72164
-7.75987
-7.82546
-7.91443
-8.02663
-8.16201
-8.31953
-8.49786
-8.69544
-8.91075
-9.14325
-9.39288
-9.65827
-9.93706
-10.2267
-10.5246
-10.8283
-11.1356
-11.4442
-11.7519
-12.0568
-12.3572
-12.6513
-12.9379
-13.2154
-13.4828
-13.739
-13.983
-14.2138
-14.4308
-14.633
-14.8199
-14.9906
-15.1446
-15.2811
-15.3996
-15.4995
-15.5801
-15.6409
-15.6815
-15.7013
-15.6999
-15.6771
-15.6323
-15.5655
-15.4765
-15.3652
-15.2315
-15.0755
-14.8973
-14.6973
-14.4756
-14.2328
-13.9692
-13.6854
-13.3822
-13.06
-12.7198
-12.3624
-11.9885
-11.5992
-11.1954
-10.7781
-10.3483
-9.90711
-9.45554
-8.99468
-8.5256
-8.04939
-7.5671
-7.07979
-6.58847
-6.09418
-5.59787
-5.10051
-4.60301
-4.10624
-3.61105
-3.11825
-2.62859
-2.14276
-1.66144
-1.18523
-0.714715
-0.250428
0.207154
0.657596
1.1005
1.53553
1.96236
2.38074
2.79042
3.19122
3.58298
3.96557
4.33891
4.70293
5.05759
5.40289
5.73884
6.06548
6.38288
6.69112
6.99029
7.28051
7.56191
7.83464
8.09885
8.3547
8.60237
8.84205
9.07391
9.29815
9.51497
9.72457
9.92715
10.1229
10.3121
10.4948
10.6713
10.8418
11.0065
11.1656
11.3193
11.4677
11.6111
11.7496
11.8835
12.0128
12.1377
12.2585
12.3752
12.4881
12.5973
12.7028
12.8049
12.9037
12.9993
13.0918
13.1813
13.2681
13.352
13.4334
13.5121
13.5885
13.6625
13.7342
13.8037
13.8711
13.9364
13.9998
14.0612
14.1208
14.1785
14.2345
14.2887
14.3411
14.3919
14.4411
14.4886
14.5344
14.5785
14.621
14.6617
14.7007
14.7379
14.7731
14.8063
14.8373
14.8659
14.8919
14.9149
14.9345
14.9501
14.9611
14.9662
14.9646
14.9527
14.9354
14.881
-7.70733
-7.74201
-7.79882
-7.87395
-7.96894
-8.08463
-8.221
-8.37771
-8.55398
-8.7491
-8.9635
-9.1977
-9.45049
-9.7194
-10.0017
-10.2948
-10.5959
-10.9025
-11.2122
-11.5224
-11.8311
-12.1361
-12.4356
-12.7279
-13.0115
-13.2849
-13.547
-13.7966
-14.0327
-14.2544
-14.4609
-14.6515
-14.8253
-14.9819
-15.1204
-15.2405
-15.3415
-15.4229
-15.4843
-15.5251
-15.5451
-15.5437
-15.5208
-15.4761
-15.4093
-15.3205
-15.2095
-15.0763
-14.9211
-14.744
-14.5454
-14.3254
-14.0845
-13.8233
-13.5423
-13.242
-12.9233
-12.5868
-12.2334
-11.8639
-11.4792
-11.0802
-10.668
-10.2436
-9.80788
-9.36196
-8.9069
-8.44372
-7.97348
-7.49721
-7.01594
-6.53067
-6.04238
-5.55204
-5.06057
-4.56886
-4.07777
-3.58812
-3.1007
-2.61626
-2.1355
-1.65905
-1.18752
-0.721472
-0.261427
0.192131
0.638767
1.07809
1.50975
1.93345
2.3489
2.75589
3.15421
3.5437
3.92424
4.29572
4.65808
5.01128
5.3553
5.69016
6.01588
6.33252
6.64015
6.93886
7.22877
7.50999
7.78266
8.04692
8.30294
8.55089
8.79092
9.02323
9.248
9.46542
9.67568
9.87898
10.0755
10.2655
10.4491
10.6265
10.7979
10.9636
11.1237
11.2783
11.4278
11.5722
11.7117
11.8465
11.9769
12.1028
12.2246
12.3424
12.4563
12.5664
12.6729
12.776
12.8757
12.9722
13.0656
13.1561
13.2437
13.3285
13.4107
13.4903
13.5674
13.6422
13.7147
13.785
13.8531
13.9192
13.9832
14.0453
14.1056
14.1639
14.2205
14.2753
14.3284
14.3798
14.4295
14.4776
14.5239
14.5686
14.6115
14.6527
14.6921
14.7296
14.7651
14.7984
14.8295
14.858
14.8838
14.9063
14.9252
14.9399
14.9494
14.9528
14.9491
14.9347
14.9147
14.8583
-7.64369
-7.66943
-7.71556
-7.77417
-7.8489
-7.94176
-8.05397
-8.1864
-8.33929
-8.51292
-8.70868
-8.92759
-9.16849
-9.42868
-9.70519
-9.99504
-10.2953
-10.6029
-10.9152
-11.2295
-11.5431
-11.8538
-12.1594
-12.458
-12.7479
-13.0275
-13.2954
-13.5504
-13.7915
-14.0177
-14.228
-14.4219
-14.5986
-14.7574
-14.8978
-15.0193
-15.1214
-15.2037
-15.2657
-15.3071
-15.3275
-15.3267