/*--------------------------------*- C++ -*----------------------------------*\
  =========                 |
  \\      /  F ield         | OpenFOAM: The Open Source CFD Toolbox
   \\    /   O peration     | Website:  https://openfoam.org
    \\  /    A nd           | Version:  8
     \\/     M anipulation  |
\*---------------------------------------------------------------------------*/
FoamFile
{
    version     2.0;
    format      ascii;
    class       volScalarField;
    location    "1300";
    object      nut;
}
// * * * * * * * * * * * * * * * * * * * * * * * * * * * * * * * * * * * * * //

dimensions      [0 2 -1 0 0 0 0];

internalField   nonuniform List<scalar> 
12225
(
6.54205e-06
1.3094e-05
1.66476e-05
1.75461e-05
1.77468e-05
1.7494e-05
1.71737e-05
2.69605e-05
3.44943e-05
3.25367e-05
3.16192e-05
2.77917e-05
3.17847e-05
3.19696e-05
3.40759e-05
2.81022e-05
2.09254e-05
1.90939e-05
5.00216e-05
4.5525e-05
4.07504e-05
4.2252e-05
3.29092e-05
3.74302e-05
3.35876e-05
3.93285e-05
4.023e-05
3.69629e-05
4.24949e-05
4.0722e-05
4.53088e-05
4.71745e-05
4.48616e-05
4.60811e-05
4.60452e-05
4.75038e-05
0.00126261
0.000330746
0.000170325
0.000123999
8.69652e-05
7.22445e-05
6.45181e-05
6.15612e-05
5.8845e-05
5.38826e-05
5.13564e-05
4.92843e-05
4.80747e-05
4.72018e-05
4.6809e-05
4.5635e-05
4.53121e-05
4.5417e-05
0.00110519
0.000653098
0.00045983
0.000356845
0.000282737
0.000235968
0.000209198
0.000189674
0.000176794
0.00016215
0.000152084
0.000141781
0.000135588
0.000128522
0.000124587
0.000119637
0.000116896
0.000112809
0.000822179
0.000729521
0.000654356
0.000587101
0.000528227
0.000476049
0.000441707
0.000409433
0.00038743
0.000362103
0.000344407
0.000324036
0.000310879
0.000295313
0.000286279
0.00027463
0.000268841
0.000258791
0.000761474
0.000746115
0.000719464
0.000696046
0.000672599
0.000643167
0.000622151
0.000597767
0.000580156
0.000557325
0.000540309
0.000518842
0.000503733
0.000485213
0.00047358
0.000458526
0.000450661
0.000437737
0.000752704
0.000749046
0.000742368
0.000734758
0.000727602
0.000717809
0.000707813
0.000696736
0.000688333
0.000676457
0.000666682
0.000653057
0.000642432
0.000628795
0.00061934
0.000607105
0.000600055
0.000589215
0.000750241
0.000749053
0.000747121
0.000744509
0.000741875
0.000738086
0.000733475
0.000728962
0.000724616
0.000719605
0.000714608
0.000708105
0.000702028
0.000694115
0.000688012
0.000680293
0.000675178
0.000667928
0.000749683
0.000748812
0.000747896
0.000746804
0.000745573
0.000744077
0.000742448
0.000740372
0.000738508
0.000736141
0.000733897
0.000730853
0.000727637
0.000724109
0.000720642
0.00071661
0.000713144
0.000709255
0.000749585
0.000748711
0.000747936
0.000747128
0.000746369
0.00074548
0.00074471
0.000743702
0.000742859
0.000741753
0.000740777
0.000739452
0.000738191
0.000736513
0.000735062
0.000733123
0.000731678
0.000729612
0.00074957
0.000748694
0.000747912
0.000747125
0.000746428
0.000745685
0.000745047
0.000744335
0.000743733
0.000743038
0.000742449
0.00074173
0.000741105
0.000740306
0.000739629
0.000738764
0.00073807
0.000737181
0.000749564
0.000748694
0.000747895
0.000747112
0.000746398
0.000745686
0.000745041
0.000744391
0.000743805
0.000743207
0.00074267
0.000742112
0.000741607
0.000741073
0.000740587
0.000740071
0.000739603
0.000739108
0.000749559
0.000748694
0.000747884
0.000747105
0.000746375
0.000745671
0.000745011
0.000744372
0.000743774
0.000743193
0.000742648
0.000742118
0.000741619
0.000741134
0.000740674
0.000740227
0.000739803
0.000739391
0.000749556
0.000748694
0.000747876
0.000747098
0.00074636
0.000745657
0.000744989
0.000744351
0.000743744
0.000743165
0.000742612
0.000742084
0.00074158
0.000741098
0.000740637
0.000740196
0.000739774
0.00073937
0.000749555
0.000748692
0.000747873
0.000747093
0.000746352
0.000745647
0.000744975
0.000744335
0.000743726
0.000743143
0.000742588
0.000742057
0.000741551
0.000741066
0.000740603
0.000740159
0.000739736
0.00073933
0.000749555
0.000748694
0.000747875
0.000747096
0.000746356
0.00074565
0.00074498
0.000744339
0.00074373
0.000743147
0.000742593
0.000742061
0.000741555
0.000741069
0.000740607
0.000740162
0.00073974
0.000739332
0.000749568
0.000748728
0.000747928
0.000747166
0.00074644
0.000745747
0.000745087
0.000744457
0.000743855
0.000743281
0.000742732
0.000742206
0.000741705
0.000741224
0.000740764
0.000740324
0.000739903
0.0007395
0.000749568
0.000748727
0.000747927
0.000747163
0.000746438
0.000745744
0.000745084
0.000744452
0.000743851
0.000743275
0.000742725
0.000742199
0.000741696
0.000741215
0.000740755
0.000740314
0.000739892
0.000739488
0.000749555
0.000748694
0.000747872
0.000747094
0.00074635
0.000745645
0.00074497
0.00074433
0.000743716
0.000743133
0.000742574
0.000742042
0.000741531
0.000741045
0.000740579
0.000740134
0.000739707
0.0007393
0.000749555
0.000748691
0.00074787
0.000747089
0.000746346
0.000745637
0.000744963
0.00074432
0.000743707
0.00074312
0.000742561
0.000742026
0.000741516
0.000741027
0.00074056
0.000740113
0.000739686
0.000739277
0.000749554
0.000748694
0.000747872
0.000747094
0.00074635
0.000745645
0.00074497
0.000744329
0.000743715
0.00074313
0.000742569
0.000742035
0.000741521
0.000741033
0.000740562
0.000740115
0.000739684
0.000739275
0.000749552
0.000748699
0.000747874
0.000747103
0.000746353
0.000745656
0.000744975
0.000744337
0.000743709
0.000743114
0.000742526
0.000741971
0.00074142
0.000740907
0.000740396
0.000739926
0.000739449
0.000739008
0.000749537
0.000748717
0.000747886
0.000747124
0.000746336
0.000745639
0.000744891
0.000744189
0.000743427
0.000742658
0.000741826
0.000741007
0.000740155
0.000739369
0.000738549
0.000737821
0.00073702
0.000736291
0.00074949
0.000748787
0.000748029
0.000747123
0.000746002
0.000744951
0.000743565
0.000742144
0.000740372
0.000738309
0.000735901
0.000733462
0.000730963
0.000728618
0.000726301
0.000724231
0.000721854
0.000719381
0.000749486
0.000748897
0.000748657
0.000745816
0.000741634
0.000736894
0.000731863
0.000725746
0.000719431
0.000711724
0.000703116
0.000695404
0.000687321
0.000680716
0.00067374
0.00066836
0.000661967
0.000657015
0.00074984
0.000745044
0.000739328
0.000724382
0.000704765
0.000688753
0.000669235
0.000650225
0.000628707
0.000609327
0.000589548
0.000573455
0.000557602
0.000545354
0.00053258
0.000522985
0.000511833
0.000503583
0.000741643
0.000708168
0.000675619
0.000609388
0.000554571
0.000511784
0.000472078
0.00043967
0.000409033
0.000384644
0.000361867
0.000344522
0.000328113
0.0003159
0.000303511
0.000294692
0.000284768
0.000277858
0.000701179
0.000502723
0.000401026
0.000303111
0.00024947
0.000216197
0.000191785
0.000173834
0.000159148
0.000147996
0.000138519
0.000131456
0.000125395
0.000120623
0.000116187
0.000113198
0.000109707
0.000107683
0.000615211
0.000126249
8.42484e-05
7.00982e-05
6.33725e-05
5.96971e-05
5.73652e-05
5.58436e-05
5.50257e-05
5.47692e-05
5.51835e-05
5.61172e-05
5.74269e-05
5.89077e-05
6.06522e-05
6.24214e-05
6.3213e-05
6.33349e-05
1.016e-05
1.51849e-05
1.8937e-05
2.12051e-05
2.25011e-05
2.29536e-05
2.31056e-05
2.3071e-05
2.2833e-05
2.253e-05
2.22056e-05
2.18833e-05
2.15791e-05
2.12983e-05
2.10445e-05
2.08168e-05
2.06142e-05
2.04376e-05
1.59322e-12
1.8039e-10
9.17792e-10
3.60633e-09
1.20314e-08
3.65585e-08
9.53321e-08
1.89187e-07
3.05771e-07
4.285e-07
5.37849e-07
6.22623e-07
6.78555e-07
6.9854e-07
6.88556e-07
6.59234e-07
6.05095e-07
5.15216e-07
4.38467e-07
3.72328e-07
3.09695e-07
2.48953e-07
1.90447e-07
1.36276e-07
8.8408e-08
5.1638e-08
2.74453e-08
1.39056e-08
7.14768e-09
3.94427e-09
2.43284e-09
1.87857e-09
2.3114e-09
4.91103e-09
1.10036e-08
6.16794e-08
1.40247e-07
2.98884e-07
4.37969e-07
4.60921e-07
4.21714e-07
3.34919e-07
2.80157e-07
2.79251e-07
3.08646e-07
4.16687e-07
5.63301e-07
1.14273e-06
2.62638e-06
8.33733e-06
2.1847e-05
3.85539e-05
5.03335e-05
5.49412e-05
5.05973e-05
4.67115e-05
4.51527e-05
4.05314e-05
3.32502e-05
3.30399e-05
3.6455e-05
3.78451e-05
3.04822e-05
3.34731e-05
3.33755e-05
3.42317e-05
3.47163e-05
3.53632e-05
3.58907e-05
3.64822e-05
3.70153e-05
3.75745e-05
3.81053e-05
3.86449e-05
3.917e-05
3.96973e-05
4.02163e-05
4.07352e-05
4.12488e-05
4.17618e-05
4.22709e-05
4.27795e-05
4.3285e-05
4.37902e-05
4.42929e-05
4.47952e-05
4.52953e-05
4.57948e-05
4.62924e-05
4.67891e-05
4.72839e-05
4.77766e-05
4.82668e-05
4.87542e-05
4.92382e-05
4.97189e-05
5.01962e-05
5.06714e-05
5.11472e-05
5.16292e-05
5.21254e-05
5.26166e-05
5.31138e-05
5.36149e-05
5.41219e-05
5.46343e-05
5.51536e-05
5.56791e-05
5.62125e-05
5.67531e-05
5.73027e-05
5.78606e-05
5.84287e-05
5.90066e-05
5.95961e-05
6.0197e-05
6.08112e-05
6.14388e-05
6.20814e-05
6.27398e-05
6.34155e-05
6.41097e-05
6.48235e-05
6.55589e-05
6.63165e-05
6.70987e-05
6.7905e-05
6.87378e-05
6.96088e-05
7.05345e-05
7.14881e-05
7.24833e-05
7.35161e-05
7.46104e-05
7.57644e-05
7.69855e-05
7.82547e-05
7.81656e-05
7.7918e-05
7.76549e-05
7.73798e-05
7.70922e-05
7.67928e-05
7.64829e-05
7.61631e-05
7.58379e-05
7.54911e-05
7.51531e-05
7.47837e-05
7.443e-05
7.40404e-05
7.36719e-05
7.32632e-05
7.28804e-05
7.24633e-05
7.2057e-05
7.16398e-05
7.12201e-05
7.07967e-05
7.03707e-05
6.99435e-05
6.95152e-05
6.90865e-05
6.86577e-05
6.82296e-05
6.78025e-05
6.73778e-05
6.69558e-05
6.65376e-05
6.61233e-05
6.57136e-05
6.53076e-05
6.49051e-05
6.45025e-05
6.40966e-05
6.36787e-05
6.324e-05
6.27486e-05
6.21507e-05
6.05502e-05
7.19902e-12
1.16855e-09
1.58055e-08
8.39573e-08
3.66661e-07
1.18095e-06
2.72795e-06
4.98785e-06
7.72879e-06
1.08485e-05
1.39928e-05
1.69025e-05
1.93521e-05
2.12032e-05
2.22448e-05
2.25622e-05
2.21935e-05
2.13742e-05
1.90756e-05
1.58774e-05
1.2197e-05
8.94746e-06
6.29559e-06
4.22813e-06
2.66563e-06
1.64745e-06
1.0113e-06
6.30049e-07
3.98603e-07
2.64889e-07
1.94994e-07
1.75529e-07
1.77287e-07
3.39668e-07
5.7088e-07
3.64473e-06
8.19387e-06
1.59133e-05
2.14529e-05
2.30298e-05
2.16045e-05
1.91145e-05
1.6488e-05
1.57214e-05
1.65247e-05
1.68945e-05
2.00976e-05
2.75167e-05
3.87701e-05
4.98807e-05
6.19816e-05
7.26202e-05
8.23281e-05
9.02329e-05
9.84461e-05
0.00010919
0.00012262
0.000133897
0.000144432
0.000157813
0.000176039
0.000189545
0.000197706
0.000211705
0.000223332
0.000235178
0.000246454
0.0002573
0.000267772
0.00027788
0.000287723
0.000297267
0.000306603
0.00031571
0.000324646
0.000333403
0.000342015
0.000350482
0.000358822
0.000367036
0.000375134
0.00038312
0.000390998
0.000398771
0.000406442
0.000414015
0.00042149
0.000428871
0.000436155
0.000443343
0.00045043
0.000457415
0.000464288
0.00047104
0.000477651
0.000484094
0.000490325
0.000496279
0.000501857
0.000506924
0.000511335
0.000515869
0.000520165
0.000524397
0.000528483
0.000532458
0.000536304
0.000540024
0.000543614
0.000547074
0.0005504
0.000553591
0.000556646
0.000559562
0.000562338
0.000564973
0.000567465
0.000569813
0.000572017
0.000574075
0.000575986
0.000577749
0.000579363
0.000580827
0.000582141
0.000583301
0.000584307
0.000585153
0.000585829
0.00058634
0.000586709
0.000586933
0.000586891
0.000586826
0.000586585
0.000586374
0.000586213
0.000586134
0.000585937
0.000585593
0.000585108
0.000584484
0.000583718
0.00058281
0.000581792
0.000580555
0.000579546
0.000577909
0.000576682
0.000574771
0.000573324
0.000571151
0.00056949
0.000567118
0.00056507
0.000562693
0.000560302
0.000557818
0.000555254
0.000552625
0.000549933
0.000547182
0.000544379
0.000541523
0.000538619
0.000535672
0.000532688
0.000529672
0.000526632
0.000523572
0.00052049
0.000517382
0.00051425
0.000511038
0.000507709
0.00050418
0.000500325
0.000495827
0.00048995
0.000473732
1.84242e-11
3.12606e-09
5.87497e-08
3.47479e-07
1.13933e-06
2.94484e-06
6.24804e-06
1.08547e-05
1.65364e-05
2.2983e-05
2.98198e-05
3.65875e-05
4.26739e-05
4.77345e-05
5.15271e-05
5.40247e-05
5.53345e-05
5.56071e-05
5.40159e-05
5.10906e-05
4.63941e-05
4.03679e-05
3.3199e-05
2.6044e-05
1.95438e-05
1.39421e-05
9.49699e-06
6.33981e-06
4.06289e-06
2.72806e-06
1.95766e-06
1.61476e-06
1.35306e-06
2.55146e-06
5.07442e-06
1.87967e-05
3.88577e-05
5.62592e-05
6.43826e-05
6.16832e-05
4.87117e-05
4.01344e-05
4.00752e-05
4.66511e-05
5.38637e-05
6.34469e-05
7.656e-05
8.8924e-05
0.000102063
0.000119612
0.000138632
0.000160094
0.000183308
0.000209455
0.000238957
0.000269037
0.000300921
0.000331002
0.000361157
0.000391008
0.000421349
0.000448075
0.000473452
0.000499155
0.000522934
0.000546209
0.000568263
0.000589585
0.000610222
0.000630245
0.000649765
0.000668812
0.000687469
0.000705755
0.000723724
0.000741391
0.000758786
0.00077592
0.00079281
0.000809464
0.000825891
0.000842095
0.000858082
0.000873854
0.000889413
0.00090476
0.000919893
0.000934811
0.000949507
0.000963975
0.000978205
0.000992183
0.00100589
0.0010193
0.0010324
0.00104513
0.00105746
0.00106935
0.00108076
0.00109168
0.00110226
0.0011127
0.00112283
0.00113273
0.00114235
0.00115171
0.0011608
0.0011696
0.00117812
0.00118635
0.00119429
0.00120193
0.00120928
0.00121632
0.00122305
0.00122948
0.0012356
0.0012414
0.00124689
0.00125206
0.00125692
0.00126147
0.00126569
0.00126959
0.00127317
0.00127642
0.00127935
0.00128194
0.0012842
0.00128612
0.00128774
0.00128903
0.00129
0.00129066
0.00129102
0.00129129
0.00129137
0.00129126
0.00129083
0.00129009
0.00128903
0.00128767
0.00128599
0.00128401
0.00128175
0.00127918
0.00127652
0.00127326
0.00127008
0.00126623
0.00126254
0.00125812
0.00125394
0.001249
0.00124422
0.001239
0.00123365
0.00122811
0.0012224
0.00121655
0.00121056
0.00120445
0.00119823
0.0011919
0.00118547
0.00117895
0.00117235
0.0011657
0.001159
0.00115227
0.0011455
0.00113869
0.0011318
0.00112478
0.00111752
0.00110985
0.00110148
0.00109163
0.00107847
0.00104903
7.03538e-11
1.18972e-08
1.87966e-07
7.76015e-07
2.56529e-06
6.93556e-06
1.37428e-05
2.2874e-05
3.36257e-05
4.49037e-05
5.57804e-05
6.5779e-05
7.43109e-05
8.07728e-05
8.56027e-05
8.86258e-05
8.97834e-05
8.94674e-05
8.78022e-05
8.45731e-05
7.9972e-05
7.43547e-05
6.69148e-05
5.80625e-05
4.83784e-05
3.86625e-05
2.98301e-05
2.24545e-05
1.68328e-05
1.23604e-05
9.58835e-06
7.38238e-06
8.36247e-06
1.34841e-05
2.96259e-05
5.36139e-05
7.15708e-05
7.85753e-05
7.55404e-05
7.26802e-05
7.29529e-05
7.69001e-05
8.48522e-05
9.61526e-05
0.000110787
0.000122742
0.000142824
0.000165814
0.0001929
0.000225546
0.000261045
0.000300388
0.000341999
0.000385968
0.0004312
0.000476392
0.000521259
0.000564432
0.000606642
0.000647787
0.000687204
0.000724483
0.000760349
0.000795399
0.000828731
0.000861024
0.000892219
0.000922543
0.000952079
0.000980922
0.00100916
0.00103684
0.00106404
0.00109079
0.00111712
0.00114307
0.00116864
0.00119386
0.00121873
0.00124326
0.00126746
0.00129133
0.00131488
0.00133809
0.00136097
0.00138353
0.00140574
0.00142761
0.00144913
0.00147029
0.00149107
0.00151146
0.00153144
0.00155099
0.00157008
0.00158871
0.00160685
0.00162449
0.00164164
0.00165835
0.00167468
0.00169066
0.00170623
0.00172143
0.00173621
0.00175059
0.00176455
0.00177808
0.00179118
0.00180384
0.00181605
0.00182782
0.00183914
0.00185
0.00186039
0.00187033
0.0018798
0.0018888
0.00189733
0.00190539
0.00191298
0.0019201
0.00192675
0.00193291
0.00193861
0.00194382
0.00194856
0.00195282
0.00195659
0.00195989
0.00196271
0.00196508
0.001967
0.0019684
0.00196941
0.00197016
0.0019705
0.00197042
0.00196989
0.0019689
0.00196745
0.00196555
0.0019632
0.00196042
0.00195719
0.00195357
0.00194959
0.00194506
0.00194028
0.00193493
0.00192936
0.00192319
0.00191687
0.00190992
0.00190283
0.00189529
0.00188749
0.00187942
0.00187109
0.00186254
0.00185379
0.00184485
0.00183574
0.00182647
0.00181705
0.0018075
0.00179783
0.00178808
0.00177825
0.00176838
0.00175846
0.00174847
0.00173838
0.00172811
0.00171755
0.00170646
0.00169446
0.00168043
0.001662
0.00162708
2.38036e-10
3.52241e-08
4.12779e-07
1.99286e-06
6.82058e-06
1.63648e-05
3.02798e-05
4.6783e-05
6.39326e-05
8.00748e-05
9.41002e-05
0.000104905
0.000112889
0.000118348
0.000121367
0.00012254
0.000122108
0.000120275
0.000117237
0.000112986
0.0001076
0.000101515
9.40527e-05
8.52762e-05
7.52042e-05
6.41434e-05
5.3013e-05
4.29851e-05
3.47868e-05
2.76619e-05
2.23791e-05
2.17086e-05
2.83898e-05
4.77351e-05
7.13999e-05
8.59801e-05
9.29378e-05
9.59972e-05
9.87395e-05
0.000103988
0.000113137
0.000127086
0.000139665
0.000153013
0.000175298
0.000204342
0.000237112
0.000276114
0.000319769
0.000367765
0.000418227
0.000471251
0.000525422
0.000580414
0.000635289
0.000689341
0.000742251
0.000793598
0.000843531
0.000891673
0.000938435
0.0009836
0.00102719
0.00106946
0.00111038
0.00115017
0.00118892
0.00122676
0.00126379
0.00130009
0.00133573
0.00137076
0.00140524
0.00143919
0.00147265
0.00150564
0.00153816
0.00157024
0.00160187
0.00163305
0.0016638
0.00169411
0.00172397
0.00175339
0.00178237
0.00181089
0.00183896
0.00186656
0.0018937
0.00192035
0.00194651
0.00197216
0.0019973
0.00202191
0.00204597
0.0020695
0.00209247
0.00211492
0.00213684
0.00215825
0.00217918
0.00219963
0.00221957
0.00223899
0.00225789
0.00227626
0.00229409
0.00231136
0.00232808
0.00234424
0.00235982
0.00237484
0.00238927
0.00240312
0.00241639
0.00242907
0.00244116
0.00245266
0.00246357
0.00247388
0.00248361
0.00249275
0.00250129
0.00250924
0.0025166
0.00252337
0.00252954
0.00253513
0.00254014
0.00254457
0.00254838
0.00255166
0.00255435
0.00255639
0.00255803
0.00255919
0.00255981
0.00255989
0.0025594
0.00255836
0.00255676
0.0025546
0.00255191
0.00254868
0.00254491
0.00254064
0.00253587
0.00253056
0.00252479
0.00251847
0.00251172
0.00250442
0.00249673
0.00248847
0.00247987
0.00247081
0.00246138
0.00245161
0.00244152
0.00243113
0.00242049
0.0024096
0.00239849
0.00238716
0.00237564
0.00236394
0.0023521
0.00234012
0.00232805
0.00231588
0.00230363
0.00229129
0.00227884
0.00226619
0.00225323
0.00223974
0.00222529
0.0022088
0.00218749
0.00215232
7.63013e-10
8.71648e-08
1.05346e-06
5.34216e-06
1.73269e-05
3.64321e-05
5.93303e-05
8.25636e-05
0.000102732
0.000118611
0.000130424
0.000139074
0.000144396
0.000147266
0.00014819
0.00014755
0.000145595
0.00014251
0.000138431
0.000133311
0.000127325
0.000120701
0.000112906
0.000104055
9.20264e-05
7.65725e-05
6.16506e-05
4.78381e-05
3.67712e-05
3.26944e-05
3.51891e-05
4.8967e-05
7.16664e-05
9.25484e-05
0.000106687
0.00011521
0.000120834
0.000127345
0.000138079
0.000154856
0.000164991
0.000179057
0.000203018
0.00023241
0.000268561
0.000311376
0.000359027
0.000411847
0.000467723
0.000526213
0.000586151
0.000647191
0.000708468
0.000769599
0.000830034
0.000889412
0.000947258
0.00100364
0.00105897
0.00111268
0.00116486
0.00121555
0.00126486
0.00131288
0.00135969
0.00140542
0.00145016
0.001494
0.00153703
0.0015793
0.00162089
0.00166182
0.00170215
0.00174189
0.00178106
0.00181968
0.00185776
0.00189529
0.00193228
0.00196872
0.00200462
0.00203998
0.00207478
0.00210904
0.00214273
0.00217587
0.00220845
0.00224046
0.00227189
0.00230274
0.00233301
0.00236268
0.00239175
0.00242021
0.00244806
0.0024753
0.00250194
0.00252798
0.00255343
0.0025783
0.00260258
0.00262627
0.00264935
0.00267182
0.00269367
0.0027149
0.00273548
0.00275542
0.00277471
0.00279334
0.00281131
0.0028286
0.00284522
0.00286117
0.00287645
0.00289105
0.00290497
0.00291822
0.00293078
0.00294267
0.00295389
0.00296443
0.00297431
0.00298351
0.00299204
0.00299991
0.00300712
0.00301366
0.0030196
0.00302483
0.0030294
0.00303337
0.00303665
0.00303922
0.00304137
0.0030429
0.00304382
0.00304412
0.00304381
0.00304287
0.00304132
0.00303917
0.00303642
0.00303308
0.00302915
0.00302465
0.00301959
0.00301396
0.00300778
0.00300104
0.00299377
0.00298594
0.00297761
0.00296873
0.00295939
0.00294957
0.00293932
0.00292867
0.00291765
0.00290628
0.00289461
0.00288264
0.00287039
0.00285789
0.00284515
0.00283219
0.00281903
0.00280572
0.00279227
0.0027787
0.00276502
0.00275124
0.00273732
0.00272322
0.00270883
0.00269395
0.00267821
0.00266066
0.00263869
0.00260551
2.45013e-09
2.23874e-07
2.7876e-06
1.45538e-05
3.77854e-05
6.69236e-05
9.43628e-05
0.00011668
0.000133617
0.000146425
0.000155443
0.000160952
0.000163843
0.000164776
0.000164194
0.000162392
0.000159555
0.000155775
0.000150988
0.000145122
0.000138445
0.000130666
0.000121574
0.00010452
8.93385e-05
7.6021e-05
6.44712e-05
5.70723e-05
5.78046e-05
6.72303e-05
8.14379e-05
0.000106297
0.00012242
0.000134592
0.000143523
0.000151649
0.000162941
0.000180183
0.000187918
0.00020182
0.000224849
0.000253365
0.000289742
0.000332369
0.000381662
0.000436227
0.000494499
0.000555839
0.000618951
0.000683406
0.000748499
0.000813832
0.000878911
0.000943448
0.00100681
0.00106904
0.00113056
0.00119058
0.00124929
0.00130663
0.00136262
0.00141728
0.00147071
0.00152295
0.00157411
0.00162424
0.00167344
0.00172177
0.0017693
0.00181607
0.00186214
0.00190753
0.00195228
0.00199638
0.00203986
0.00208272
0.00212496
0.00216657
0.00220756
0.0022479
0.00228761
0.00232668
0.0023651
0.00240287
0.00244
0.00247647
0.00251228
0.00254745
0.00258196
0.00261581
0.002649
0.00268152
0.00271338
0.00274457
0.00277509
0.00280494
0.00283411
0.0028626
0.00289041
0.00291756
0.00294405
0.00296987
0.00299501
0.00301946
0.00304323
0.0030663
0.00308866
0.00311031
0.00313125
0.00315146
0.00317097
0.00318976
0.00320783
0.00322516
0.00324176
0.00325763
0.00327276
0.00328716
0.00330082
0.00331376
0.00332597
0.00333745
0.00334821
0.00335826
0.00336758
0.0033762
0.0033841
0.00339133
0.00339791
0.00340369
0.00340882
0.00341329
0.00341701
0.00342003
0.00342256
0.00342442
0.00342562
0.00342617
0.00342607
0.00342532
0.00342394
0.00342193
0.0034193
0.00341609
0.0034123
0.00340794
0.00340298
0.00339743
0.00339131
0.00338462
0.00337735
0.00336952
0.00336114
0.00335221
0.00334276
0.00333282
0.00332242
0.00331157
0.00330032
0.00328868
0.00327669
0.00326437
0.00325173
0.00323879
0.00322557
0.00321209
0.00319837
0.00318446
0.00317037
0.00315613
0.00314176
0.00312726
0.00311262
0.0030978
0.00308272
0.00306726
0.00305108
0.00303344
0.00301232
0.00298218
7.3607e-09
5.92129e-07
7.50584e-06
3.09755e-05
6.49179e-05
9.8852e-05
0.000126969
0.000147762
0.000162073
0.000170714
0.000175055
0.000176826
0.000176884
0.000175609
0.000173306
0.000170126
0.000166023
0.000160925
0.000154959
0.00014825
0.000140599
0.000131601
0.000113274
9.6808e-05
8.34238e-05
7.50151e-05
7.38797e-05
7.85112e-05
9.02634e-05
0.000111867
0.000136546
0.000158599
0.0001712
0.000180847
0.000192327
0.000201178
0.000208546
0.00022171
0.000242244
0.000268848
0.000303218
0.000343934
0.000391678
0.000445111
0.000503575
0.000565475
0.000629685
0.000695564
0.000762407
0.000829829
0.000897387
0.000964767
0.00103144
0.00109723
0.0011626
0.00122685
0.00129002
0.00135198
0.00141273
0.00147228
0.00153062
0.0015878
0.00164387
0.00169888
0.00175288
0.00180595
0.00185813
0.00190948
0.00196006
0.00200991
0.00205905
0.00210751
0.00215531
0.00220244
0.00224891
0.00229471
0.00233983
0.00238426
0.00242799
0.00247102
0.00251332
0.00255491
0.00259577
0.0026359
0.00267532
0.002714
0.00275196
0.0027892
0.00282573
0.00286155
0.00289665
0.00293105
0.00296473
0.0029977
0.00302996
0.0030615
0.00309232
0.0031224
0.00315177
0.00318043
0.0032084
0.00323565
0.00326218
0.00328799
0.00331307
0.00333742
0.00336102
0.00338387
0.00340597
0.00342731
0.00344789
0.00346769
0.00348673
0.003505
0.0035225
0.00353923
0.00355519
0.00357038
0.00358481
0.00359848
0.00361139
0.00362355
0.00363496
0.00364562
0.00365555
0.00366473
0.00367319
0.00368098
0.00368807
0.00369437
0.00369999
0.00370494
0.0037091
0.00371262
0.00371557
0.00371784
0.00371944
0.00372039
0.00372068
0.00372033
0.00371933
0.00371771
0.00371547
0.00371262
0.00370915
0.00370509
0.00370044
0.00369519
0.00368936
0.00368294
0.00367595
0.00366838
0.00366024
0.00365154
0.00364232
0.00363258
0.00362235
0.00361166
0.00360054
0.003589
0.00357708
0.00356479
0.00355215
0.00353917
0.00352587
0.00351228
0.00349842
0.00348431
0.00347
0.00345551
0.00344084
0.00342603
0.00341106
0.00339593
0.00338058
0.00336493
0.00334886
0.00333172
0.00331189
0.00328535
1.91122e-08
1.47053e-06
1.66319e-05
5.1939e-05
9.24888e-05
0.000126683
0.00015236
0.00016966
0.00018046
0.000186026
0.000187758
0.000186781
0.000184045
0.000180259
0.0001758
0.000170776
0.000165109
0.000158863
0.000151935
0.00014453
0.000136382
0.000124271
0.000113116
0.000106909
0.000101598
9.87949e-05
0.000105223
0.000120937
0.000140733
0.000161641
0.000180944
0.000196697
0.000207747
0.000216345
0.000225613
0.000238049
0.000256311
0.000280336
0.000311572
0.000349308
0.000393791
0.000444131
0.000500047
0.000560299
0.000623835
0.000689456
0.00075643
0.000824279
0.000892576
0.000961009
0.00102925
0.00109673
0.00116389
0.00123046
0.00129614
0.00136083
0.00142448
0.00148706
0.00154855
0.00160895
0.00166828
0.00172656
0.00178385
0.00184017
0.00189559
0.00195015
0.00200389
0.00205685
0.00210909
0.00216064
0.00221152
0.00226176
0.00231135
0.00236031
0.00240857
0.00245615
0.00250303
0.00254919
0.00259461
0.00263926
0.00268315
0.00272625
0.00276858
0.00281014
0.00285093
0.00289102
0.00293032
0.00296884
0.00300659
0.00304357
0.0030798
0.00311527
0.00315
0.00318398
0.00321721
0.00324971
0.00328147
0.00331251
0.00334282
0.00337241
0.00340127
0.00342939
0.00345677
0.0034834
0.00350928
0.0035344
0.00355875
0.00358233
0.00360514
0.00362717
0.00364841
0.00366887
0.00368853
0.00370741
0.0037255
0.0037428
0.00375932
0.00377506
0.00379001
0.0038042
0.00381761
0.00383026
0.00384215
0.00385329
0.00386368
0.00387333
0.00388225
0.00389052
0.00389802
0.00390479
0.00391087
0.00391628
0.0039209
0.00392493
0.00392833
0.00393106
0.00393314
0.00393457
0.00393537
0.00393554
0.00393508
0.00393401
0.00393233
0.00393006
0.00392719
0.00392373
0.0039197
0.00391508
0.0039099
0.00390413
0.0038978
0.0038909
0.00388343
0.00387541
0.00386685
0.00385778
0.00384821
0.00383816
0.00382767
0.00381674
0.0038054
0.00379367
0.00378155
0.00376907
0.00375623
0.00374306
0.00372958
0.00371583
0.00370183
0.0036876
0.00367318
0.00365857
0.00364379
0.00362884
0.00361371
0.00359833
0.00358257
0.00356598
0.0035473
0.00352386
4.24776e-08
3.39014e-06
2.99444e-05
7.55995e-05
0.000119614
0.000153259
0.000175314
0.000189124
0.000195702
0.000196881
0.000194548
0.000190074
0.000184383
0.000178052
0.000171283
0.000164056
0.00015653
0.000148345
0.000140227
0.000131818
0.000123415
0.000116061
0.000111619
0.000112406
0.000119485
0.000132128
0.000148139
0.000165777
0.00018361
0.000200205
0.000213906
0.000225054
0.000236969
0.000250237
0.000267263
0.000288904
0.00031687
0.000351044
0.000391576
0.000437876
0.000489642
0.000546158
0.000606752
0.000670353
0.00073601
0.000802923
0.000870591
0.000938662
0.00100685
0.00107461
0.00114193
0.00120917
0.00127564
0.00134133
0.00140615
0.00147002
0.0015329
0.00159479
0.00165568
0.00171556
0.00177447
0.00183242
0.00188949
0.0019457
0.00200111
0.00205577
0.00210969
0.00216288
0.00221544
0.0022674
0.00231879
0.00236961
0.00241989
0.00246967
0.00251901
0.00256776
0.00261579
0.00266304
0.0027095
0.00275515
0.00279995
0.0028439
0.002887
0.00292925
0.00297065
0.00301117
0.00305088
0.00308982
0.00312799
0.00316541
0.00320209
0.00323803
0.00327323
0.00330771
0.00334146
0.00337449
0.00340681
0.00343841
0.00346928
0.00349941
0.00352882
0.00355748
0.00358539
0.00361255
0.00363895
0.00366458
0.00368945
0.00371354
0.00373685
0.00375938
0.00378111
0.00380205
0.0038222
0.00384156
0.00386012
0.00387788
0.00389486
0.00391105
0.00392646
0.00394109
0.00395496
0.00396806
0.0039804
0.00399199
0.00400283
0.00401293
0.00402234
0.00403106
0.00403902
0.00404628
0.00405286
0.00405876
0.00406393
0.00406851
0.00407245
0.00407573
0.00407839
0.00408042
0.00408183
0.00408264
0.00408285
0.00408247
0.00408151
0.00407998
0.00407788
0.00407522
0.00407199
0.00406822
0.00406389
0.004059
0.00405356
0.00404757
0.00404101
0.00403392
0.00402629
0.00401816
0.00400952
0.00400041
0.00399084
0.00398083
0.00397038
0.00395952
0.00394824
0.00393657
0.00392451
0.00391209
0.00389933
0.00388625
0.00387289
0.00385926
0.0038454
0.00383132
0.00381704
0.00380258
0.00378795
0.00377312
0.00375801
0.0037423
0.00372496
0.0037049
8.05649e-08
6.92189e-06
4.4034e-05
9.56106e-05
0.00014132
0.000174066
0.000194365
0.000203925
0.00020605
0.000203292
0.000197519
0.000190026
0.000181613
0.000172651
0.000163863
0.000155085
0.000147138
0.000140106
0.000134774
0.000130854
0.000129334
0.000131117
0.000136618
0.000145833
0.000158128
0.00017257
0.000188009
0.000203469
0.000217637
0.000230029
0.000243303
0.000258331
0.000275243
0.00029545
0.000320634
0.000351274
0.000387726
0.000429645
0.000476732
0.000528484
0.000584461
0.00064403
0.00070647
0.00077093
0.000836674
0.000903138
0.000969942
0.00103676
0.00110306
0.00116931
0.00123509
0.00130026
0.00136463
0.00142814
0.00149071
0.00155235
0.00161303
0.00167278
0.0017316
0.00178951
0.00184649
0.00190259
0.00195794
0.00201257
0.00206655
0.00211998
0.00217299
0.00222582
0.00227816
0.00232999
0.0023813
0.00243211
0.00248243
0.00253223
0.00258143
0.00263002
0.00267796
0.00272518
0.00277167
0.00281738
0.00286228
0.00290635
0.00294957
0.00299194
0.00303349
0.00307424
0.00311421
0.00315342
0.00319188
0.00322959
0.00326657
0.00330283
0.00333838
0.00337321
0.00340733
0.00344074
0.00347344
0.00350544
0.00353671
0.00356727
0.0035971
0.0036262
0.00365456
0.00368217
0.00370903
0.00373514
0.00376048
0.00378505
0.00380885
0.00383187
0.0038541
0.00387555
0.0038962
0.00391606
0.00393512
0.00395339
0.00397088
0.00398758
0.0040035
0.00401865
0.00403303
0.00404665
0.00405952
0.00407164
0.00408303
0.00409368
0.00410365
0.00411289
0.00412143
0.00412927
0.00413644
0.00414294
0.00414878
0.004154
0.00415858
0.00416254
0.00416588
0.00416862
0.00417078
0.00417236
0.00417336
0.00417381
0.00417371
0.00417306
0.00417187
0.00417014
0.00416789
0.00416511
0.0041618
0.00415796
0.00415358
0.00414866
0.0041432
0.00413721
0.0041307
0.00412369
0.00411619
0.00410822
0.00409978
0.00409088
0.00408155
0.00407177
0.00406156
0.00405093
0.00403988
0.00402844
0.00401663
0.00400446
0.00399197
0.00397918
0.00396611
0.00395279
0.00393923
0.00392548
0.00391154
0.00389743
0.00388311
0.00386834
0.00385225
0.0038351
1.28527e-07
1.18023e-05
5.99072e-05
0.000117695
0.000163543
0.000193886
0.000210048
0.000215691
0.000214289
0.000208512
0.000200316
0.000190745
0.000181246
0.000172084
0.000164198
0.000157386
0.000152398
0.000149653
0.000149013
0.000150724
0.000155034
0.000161955
0.000171258
0.000182528
0.000195231
0.000208727
0.000221992
0.000234496
0.00024791
0.000263736
0.000281348
0.000300807
0.000324076
0.00035176
0.000384411
0.000422012
0.000464381
0.000511129
0.000561892