/*--------------------------------*- C++ -*----------------------------------*\
  =========                 |
  \\      /  F ield         | OpenFOAM: The Open Source CFD Toolbox
   \\    /   O peration     | Website:  https://openfoam.org
    \\  /    A nd           | Version:  8
     \\/     M anipulation  |
\*---------------------------------------------------------------------------*/
FoamFile
{
    version     2.0;
    format      ascii;
    class       volVectorField;
    location    "2300";
    object      wallShearStress;
}
// * * * * * * * * * * * * * * * * * * * * * * * * * * * * * * * * * * * * * //

dimensions      [0 2 -2 0 0 0 0];

internalField   uniform (0 0 0);

boundaryField
{
    inlet
    {
        type            calculated;
        value           uniform (0 0 0);
    }
    outlet
    {
        type            calculated;
        value           uniform (0 0 0);
    }
    upperWall
    {
        type            calculated;
        value           nonuniform List<vector> 
223
(
(-0.582193 -0.392359 0)
(-0.977814 -0.219377 0)
(-0.939336 -0.0567747 0)
(-0.81071 -0.00585779 0)
(-0.734594 0.00331371 0)
(-0.695452 0.00231544 0)
(-0.670941 0.000424233 0)
(-0.653507 -0.00144879 0)
(-0.640532 -0.00256252 0)
(-0.629821 -0.00218352 0)
(-0.620058 -0.00130529 0)
(-0.610993 -0.00107838 0)
(-0.603033 -0.0013885 0)
(-0.596184 -0.00127385 0)
(-0.590434 -0.00106044 0)
(-0.585075 -0.000334577 0)
(-0.579787 0.0016871 0)
(-0.575194 0.00141473 0)
(-0.571309 0.00162533 0)
(-0.567715 0.00312829 4.27755e-22)
(-0.564341 0.00251106 0)
(-0.561641 0.00175049 0)
(-0.558902 0.00303622 0)
(-0.555755 0.00321358 4.48359e-22)
(-0.552843 0.00331366 0)
(-0.54995 0.00393379 0)
(-0.546937 0.00376722 0)
(-0.544106 0.00348256 -9.38192e-22)
(-0.541328 0.00298075 9.46106e-22)
(-0.538633 0.00256639 9.56546e-22)
(-0.535952 0.00245937 0)
(-0.533231 0.00218857 -9.78542e-22)
(-0.530575 0.00194056 0)
(-0.527935 0.00174262 1.00155e-21)
(-0.525292 0.00157381 1.01363e-21)
(-0.52264 0.00144505 -1.02618e-21)
(-0.519969 0.00134116 0)
(-0.517283 0.00125817 0)
(-0.514578 0.00119383 0)
(-0.51185 0.0011446 0)
(-0.509095 0.00110714 -1.09101e-21)
(-0.506311 0.0010793 0)
(-0.503494 0.00105928 0)
(-0.500642 0.0010458 1.1312e-21)
(-0.497753 0.00103784 0)
(-0.494822 0.00103437 1.1577e-21)
(-0.491847 0.00103485 -1.17069e-21)
(-0.488823 0.00103853 1.18344e-21)
(-0.485748 0.00104491 0)
(-0.482619 0.00105281 0)
(-0.479436 0.0010614 0)
(-0.476199 0.00106958 1.23095e-21)
(-0.472914 0.00107621 -1.24161e-21)
(-0.469594 0.00108156 0)
(-0.466252 0.00108668 0)
(-0.462904 0.00109187 0)
(-0.459561 0.00109638 0)
(-0.456227 0.0010991 0)
(-0.452904 0.00109926 0)
(-0.449586 0.00109683 0)
(-0.446268 0.00109257 0)
(-0.442936 0.00108744 1.29212e-21)
(-0.439582 0.00108261 -1.2919e-21)
(-0.436194 0.001079 0)
(-0.43276 0.00107713 0)
(-0.42927 0.00107731 0)
(-0.425716 0.00107957 -1.27853e-21)
(-0.422088 0.00108375 0)
(-0.41838 0.00108955 0)
(-0.414587 0.00109674 0)
(-0.410704 0.00110482 0)
(-0.406728 0.00111331 0)
(-0.402656 0.00112178 -2.43472e-21)
(-0.398487 0.00112962 0)
(-0.394224 0.00113627 0)
(-0.389869 0.00114134 0)
(-0.385427 0.0011445 0)
(-0.380908 0.00114563 0)
(-0.376323 0.00114474 0)
(-0.371683 0.0011414 0)
(-0.367002 0.00113537 2.09571e-21)
(-0.362289 0.00112656 0)
(-0.357552 0.00111502 0)
(-0.352796 0.00110111 0)
(-0.348023 0.00108525 -1.84008e-21)
(-0.343233 0.00106809 0)
(-0.338424 0.00105029 -1.69067e-21)
(-0.333592 0.00103234 0)
(-0.328733 0.00101525 0)
(-0.323839 0.000999801 0)
(-0.319026 0.000991975 -1.35149e-21)
(-0.316385 0.00100108 0)
(-0.313661 0.00101497 1.18104e-21)
(-0.310856 0.0010296 1.09036e-21)
(-0.307977 0.0010428 0)
(-0.305032 0.0010537 8.96707e-22)
(-0.302035 0.00106253 0)
(-0.298998 0.00106961 0)
(-0.295937 0.00107732 0)
(-0.292866 0.00108326 -4.55366e-22)
(-0.289795 0.00109623 0)
(-0.286746 0.00109711 -2.05987e-22)
(-0.283718 0.00110645 7.40742e-23)
(-0.280739 0.00112031 0)
(-0.277803 0.00111329 0)
(-0.274934 0.00111827 0)
(-0.272123 0.00109392 0)
(-0.269395 0.00107853 0)
(-0.266712 0.00119469 0)
(-0.264238 0.00108602 0)
(-0.261753 0.00144674 1.13973e-21)
(-0.259616 0.00147333 0)
(-0.257355 0.00117045 0)
(-0.25548 0.00137288 0)
(-0.253593 0.0010905 0)
(-0.251515 0.00109907 0)
(-0.249669 0.00115872 0)
(-0.24787 0.00098157 0)
(-0.246065 0.00089025 0)
(-0.244196 0.000818497 0)
(-0.24237 0.000530564 0)
(-0.240297 0.000571102 0)
(-0.238518 0.000999951 0)
(-0.236662 0.00100252 7.11473e-21)
(-0.235081 0.000636012 0)
(-0.233377 0.000614179 0)
(-0.231845 0.000873566 0)
(-0.23004 0.000919606 -8.74068e-21)
(-0.228499 0.000282651 0)
(-0.226537 -0.000346518 0)
(-0.224469 -0.000130671 -1.01553e-20)
(-0.222989 0.000178008 0)
(-0.22164 0.000319738 1.09202e-20)
(-0.220284 0.000309378 0)
(-0.218931 0.000743557 0)
(-0.217674 0.000999082 0)
(-0.21675 0.000820659 -1.25108e-20)
(-0.215772 0.000749721 0)
(-0.21484 0.000628761 1.33466e-20)
(-0.21378 0.000736655 0)
(-0.212635 0.000783478 0)
(-0.211708 0.000328111 0)
(-0.210758 0.000432329 0)
(-0.209637 0.000699529 0)
(-0.208807 0.000412678 0)
(-0.208104 0.000488195 0)
(-0.207364 0.000364158 0)
(-0.206019 0.000284584 0)
(-0.205335 0.000521414 0)
(-0.204753 -6.54985e-05 0)
(-0.203449 -0.000577795 1.8584e-20)
(-0.202357 -0.000258049 -1.90251e-20)
(-0.201511 -0.000110111 0)
(-0.201194 -5.8453e-05 0)
(-0.200436 0.00012542 0)
(-0.199975 0.000231138 0)
(-0.199116 0.000209018 -2.1012e-20)
(-0.198409 0.00015266 2.13758e-20)
(-0.197743 0.000184274 -2.18008e-20)
(-0.197101 0.000268218 0)
(-0.196857 0.000266881 -2.2525e-20)
(-0.196483 0.000267623 -4.58266e-20)
(-0.196222 0.000685348 0)
(-0.195781 0.000856406 -4.74562e-20)
(-0.1958 0.000659453 4.79577e-20)
(-0.195549 0.000557972 0)
(-0.195352 0.000331771 0)
(-0.194587 0.000341267 0)
(-0.194327 0.000297314 0)
(-0.193807 0.000294946 0)
(-0.193546 0.000295554 -5.30918e-20)
(-0.193202 0.000255174 0)
(-0.192775 0.000393856 -5.48933e-20)
(-0.192002 0.000309637 0)
(-0.191722 -0.000106024 0)
(-0.190726 -0.000392092 0)
(-0.189603 -0.000196912 0)
(-0.188732 3.47074e-06 0)
(-0.188159 9.33938e-05 6.11905e-20)
(-0.187962 7.8533e-05 0)
(-0.187566 0.00012023 0)
(-0.186397 0.000200321 -6.43301e-20)
(-0.185781 0.000225385 0)
(-0.185305 0.000292941 0)
(-0.184079 0.000346528 0)
(-0.183097 0.000337468 6.88343e-20)
(-0.181861 0.000369048 0)
(-0.180549 0.000369079 0)
(-0.179166 0.00042822 0)
(-0.176978 0.000518637 0)
(-0.174829 0.000547611 -7.71905e-20)
(-0.172469 0.00057204 0)
(-0.169864 0.000721999 0)
(-0.1656 0.000908157 0)
(-0.160843 0.00102361 8.86564e-20)
(-0.154432 0.00135399 0)
(-0.147262 0.00232459 0)
(-0.122642 0.00233463 -1.07826e-19)
(-0.140616 0.00688168 1.20371e-35)
(-0.169068 0.013487 1.24959e-17)
(-0.186464 0.0172451 2.35804e-17)
(-0.193117 0.0189719 2.26841e-17)
(-0.196714 0.0197667 2.20034e-17)
(-0.200359 0.020319 2.12487e-17)
(-0.205062 0.0210032 -2.02573e-17)
(-0.20951 0.0215314 -1.95363e-17)
(-0.213805 0.0218845 -6.01853e-36)
(-0.218084 0.0220281 -3.66647e-17)
(-0.220234 0.0221886 -1.80772e-17)
(-0.224701 0.0227255 6.19909e-34)
(-0.227521 0.0229068 0)
(-0.231058 0.0233651 -3.2279e-17)
(-0.235339 0.0239359 -3.06859e-17)
(-0.242335 0.024779 -2.8466e-17)
(-0.249513 0.0254443 -4.81482e-35)
(-0.256855 0.0260675 4.94046e-17)
(-0.263904 0.026647 2.26466e-17)
(-0.272746 0.0274457 3.61112e-35)
(-0.282651 0.0283566 -3.48625e-17)
(-0.29121 0.0289988 -1.58062e-20)
(-0.300875 0.0295772 0)
(-0.304431 0.0304161 1.34852e-17)
(-0.332556 0.032149 -7.62903e-18)
)
;
    }
    lowerWall
    {
        type            calculated;
        value           nonuniform List<vector> 
250
(
(-0.653909 0.466638 0)
(-1.14095 0.204678 0)
(-1.03492 0.0379587 0)
(-0.869573 -0.000935979 0)
(-0.786941 -0.00419161 0)
(-0.746063 -0.00160781 0)
(-0.719878 0.00041618 0)
(-0.700645 -0.000651802 0)
(-0.685088 -0.00405596 0)
(-0.671318 -0.00471228 0)
(-0.658932 -0.0029883 0)
(-0.64772 -0.000864334 0)
(-0.637516 0.00142597 0)
(-0.628189 0.00210381 0)
(-0.61932 0.00136788 0)
(-0.611521 0.0013575 0)
(-0.604581 0.00169586 0)
(-0.605069 0.00194304 0)
(-0.00426033 -0.0228579 0)
(-0.00275877 -0.0176426 0)
(-0.000676825 -0.0144935 0)
(0.00194469 -0.0137781 9.02244e-20)
(0.00526912 -0.0151986 -7.86176e-20)
(0.0089619 -0.0208217 6.2849e-20)
(0.0127405 -0.0200872 -4.84737e-20)
(0.0256273 -0.0633162 0)
(-0.0840668 -0.144715 0)
(0.00087231 -0.00384024 0)
(-0.00766521 0.00954687 0)
(-0.00851599 0.0328213 0)
(-0.00254936 0.044855 0)
(0.00295335 0.0442611 1.82224e-20)
(0.00618266 0.036063 -1.89658e-20)
(0.00818715 0.0241612 0)
(0.00946038 0.0101609 -5.42285e-20)
(0.00943155 -0.00404205 6.11436e-20)
(0.00793316 -0.0174219 0)
(0.00614114 -0.0291943 0)
(0.00438166 -0.0385618 0)
(0.00268716 -0.045139 0)
(0.000985961 -0.048879 0)
(-0.000885182 -0.0495137 0)
(-0.0028205 -0.0464076 0)
(-0.00437897 -0.0399021 0)
(-0.0049261 -0.0308266 0)
(0.00132862 -0.00151193 0)
(0.00133789 0.00652711 0)
(-0.00450918 0.00961848 0)
(-0.00959706 0.00975636 0)
(-0.013383 0.0082994 0)
(-0.0158892 0.00623513 0)
(-0.0172641 0.00409756 1.49577e-21)
(-0.0177828 0.00200604 -1.52738e-21)
(-0.0173312 -7.0881e-06 0)
(-0.0160536 -0.00168632 -1.65313e-21)
(-0.0141882 -0.0028376 0)
(-0.0120502 -0.00329646 0)
(-0.0100505 -0.00303584 -0)
(-0.00855293 -0.00228019 2.57037e-21)
(-0.00761636 -0.00142295 0)
(-0.00693814 -0.000815762 0)
(-0.00612069 -0.000623351 -3.37823e-21)
(-0.00499309 -0.00100038 0)
(-0.00340873 -0.0023858 0)
(-0.0004889 -0.0050574 0)
(0.00436037 -0.00740353 3.03323e-21)
(0.00994531 -0.00889508 0)
(0.0158463 -0.00984994 1.46919e-21)
(0.0218917 -0.0106169 0)
(0.0280975 -0.0112689 -0)
(0.0344079 -0.0115143 8.44717e-22)
(0.0405404 -0.0113546 0)
(0.0491479 -0.0116032 -7.5405e-22)
(0.058938 -0.0117553 -0)
(0.0686323 -0.0115827 7.70713e-22)
(0.0780412 -0.0111689 0)
(0.0870142 -0.0105841 0)
(0.0954584 -0.00989006 0)
(0.103316 -0.00913659 -0)
(0.110563 -0.0083607 0)
(0.117196 -0.0075896 -8.11165e-22)
(0.123229 -0.00684043 -0)
(0.128685 -0.00612267 1.63311e-21)
(0.13359 -0.00544048 0)
(0.137973 -0.00479416 -1.63498e-21)
(0.141858 -0.0041821 -0)
(0.145271 -0.0036015 -0)
(0.148231 -0.0030495 1.62108e-21)
(0.150757 -0.0025241 0)
(0.152863 -0.00202411 1.60086e-21)
(0.154561 -0.0015503 -1.58755e-21)
(0.155863 -0.00110633 -0)
(0.156781 -0.000698895 -1.55493e-21)
(0.157328 -0.000337803 -1.5359e-21)
(0.157513 -3.97683e-05 -0)
(0.157408 0.000194784 0)
(0.157076 0.000391503 0)
(0.156522 0.000568144 0)
(0.155761 0.000731054 -0)
(0.1548 0.000884246 1.37584e-21)
(0.153648 0.00102836 0)
(0.152312 0.00116398 -1.30705e-21)
(0.150799 0.00129164 -0)
(0.149116 0.00141122 -0)
(0.147271 0.00152285 1.1906e-21)
(0.145272 0.00162644 0)
(0.143126 0.00172187 -1.1049e-21)
(0.140842 0.00180923 -0)
(0.138429 0.00188851 0)
(0.135895 0.00195983 -0)
(0.133249 0.00202309 9.16881e-22)
(0.130501 0.00207831 0)
(0.127659 0.00212589 -0)
(0.124733 0.00216582 7.63838e-22)
(0.121732 0.00219822 0)
(0.118665 0.00222346 6.57307e-22)
(0.115541 0.00224163 0)
(0.11237 0.00225308 0)
(0.10916 0.00225806 0)
(0.105919 0.00225681 -4.36227e-22)
(0.102656 0.00224973 -0)
(0.0993797 0.00223706 0)
(0.0960972 0.00221912 -2.65624e-22)
(0.0928159 0.00219633 -2.08173e-22)
(0.089543 0.00216893 -0)
(0.0862855 0.0021373 -9.27008e-23)
(0.0830494 0.00210178 -0)
(0.0798411 0.00206275 4.65189e-23)
(0.0766658 0.00202064 -0)
(0.0735287 0.00197581 2.7894e-22)
(0.0704347 0.00192878 0)
(0.0673881 0.00188021 -5.11626e-22)
(0.0643923 0.00183082 -0)
(0.0614509 0.00178159 0)
(0.0585662 0.00173384 -0)
(0.0557402 0.00168924 9.78404e-22)
(0.0529744 0.00164993 0)
(0.050269 0.00161809 -1.21385e-21)
(0.047623 0.00159484 0)
(0.0457844 0.0016035 1.47563e-21)
(0.0442419 0.00162104 1.63414e-21)
(0.0427029 0.00162595 1.79907e-21)
(0.0411755 0.00161307 0)
(0.0396651 0.00158975 0)
(0.0381714 0.00156405 0)
(0.0366932 0.00153825 0)
(0.0352302 0.00151257 0)
(0.033783 0.00148695 0)
(0.0323521 0.00146146 0)
(0.030938 0.00143627 0)
(0.0295409 0.00141143 -3.69192e-21)
(0.0281616 0.00138724 -3.96758e-21)
(0.0267998 0.00136383 0)
(0.0254559 0.00134083 0)
(0.0241305 0.00131677 0)
(0.0228247 0.00129189 -5.2676e-21)
(0.0215385 0.00126772 0)
(0.0202717 0.00124404 0)
(0.0190247 0.00122096 0)
(0.0177973 0.00119855 0)
(0.0165897 0.00117682 7.53634e-21)
(0.0154018 0.00115587 0)
(0.0142336 0.00113578 0)
(0.0130851 0.00111667 -9.45528e-21)
(0.011956 0.00109856 1.02329e-20)
(0.0108464 0.00108154 0)
(0.00975627 0.00106592 1.20693e-20)
(0.00868545 0.00105233 0)
(0.00763359 0.00104195 -1.44079e-20)
(0.00660003 0.00103506 0)
(0.0055844 0.00103065 0)
(0.0045867 0.00102842 0)
(0.00360648 0.00102871 0)
(0.00264327 0.00103173 0)
(0.00169757 0.00103745 5.57139e-20)
(0.000770849 0.00104303 6.4225e-20)
(-0.000138918 0.0010303 0)
(-0.00103616 0.000987449 0)
(-0.00191793 0.000935051 0)
(-0.00278421 0.000885552 -5.28879e-20)
(-0.00363484 0.000840626 0)
(-0.00446969 0.000799876 0)
(-0.00528912 0.000762807 0)
(-0.0060937 0.000728923 -4.04163e-20)
(-0.00688398 0.000697773 3.83665e-20)
(-0.00766048 0.000668976 0)
(-0.00842365 0.000642224 0)
(-0.00917396 0.000617276 3.36192e-20)
(-0.00991183 0.000593933 3.23791e-20)
(-0.0106377 0.000572025 0)
(-0.011352 0.000551424 0)
(-0.0120552 0.000532012 -2.93542e-20)
(-0.0127476 0.000513691 2.85266e-20)
(-0.0134297 0.000496382 0)
(-0.014102 0.000480016 0)
(-0.0147648 0.00046453 2.64369e-20)
(-0.0154186 0.000449869 0)
(-0.0160639 0.000435992 0)
(-0.0167011 0.000422857 2.47914e-20)
(-0.0173306 0.00041042 0)
(-0.0179529 0.000398657 2.38755e-20)
(-0.0185685 0.000387532 0)
(-0.0191778 0.000377018 0)
(-0.0197813 0.000367079 0)
(-0.0203795 0.000357688 -2.23597e-20)
(-0.0209728 0.00034881 0)
(-0.0215616 0.000340392 0)
(-0.0221463 0.000332399 0)
(-0.0227272 0.000324772 0)
(-0.0233046 0.000317395 0)
(-0.0238782 0.000310188 0)
(-0.0244483 0.000303011 -2.03864e-20)
(-0.0250143 0.000295652 -2.0156e-20)
(-0.0255755 0.000287815 0)
(-0.0261302 0.000279152 0)
(-0.0266766 0.000269121 0)
(-0.0272107 0.000256974 1.93611e-20)
(-0.0277281 0.000241517 0)
(-0.0282201 0.00022128 -3.81358e-20)
(-0.028677 0.000192214 3.79296e-20)
(-0.0290699 0.000152592 3.78203e-20)
(-0.0294012 7.78607e-05 -3.78589e-20)
(-0.0294829 -3.94117e-05 3.80458e-20)
(-0.0295076 -0.000356573 -3.83978e-20)
(-0.027973 -0.000616902 0)
(-0.0293457 -0.000516212 -2.43317e-18)
(-0.0327695 -0.0013424 -2.26974e-18)
(-0.036413 -0.00203337 -3.00927e-36)
(-0.0395339 -0.00257606 -4.06082e-18)
(-0.0424838 -0.00301853 -7.75769e-18)
(-0.0455564 -0.00342181 -3.71951e-18)
(-0.0487807 -0.00381769 3.56813e-18)
(-0.0521118 -0.00430672 -1.80556e-35)
(-0.0556009 -0.00472379 3.00927e-36)
(-0.0593112 -0.0050295 3.15101e-18)
(-0.0632376 -0.00544111 3.03011e-18)
(-0.0674367 -0.00584868 3.00927e-36)
(-0.0719241 -0.0062349 0)
(-0.076737 -0.00669154 0)
(-0.081925 -0.00719837 -1.34712e-34)
(-0.087542 -0.00774649 6.44171e-36)
(-0.093659 -0.00834948 1.86574e-34)
(-0.100329 -0.00901367 -4.15818e-18)
(-0.107692 -0.0097345 -3.8122e-18)
(-0.116753 -0.0106269 1.80556e-35)
(-0.12757 -0.0116299 6.13661e-18)
(-0.138425 -0.0127362 1.03491e-17)
(-0.153649 -0.0139291 0)
(-0.162849 -0.0152956 -5.09788e-18)
(-0.191964 -0.0169832 -1.50463e-35)
)
;
    }
    frontAndBack
    {
        type            empty;
    }
}


// ************************************************************************* //
