/*--------------------------------*- C++ -*----------------------------------*\
| =========                 |                                                 |
| \\      /  F ield         | OpenFOAM: The Open Source CFD Toolbox           |
|  \\    /   O peration     | Version:  v2012                                 |
|   \\  /    A nd           | Website:  www.openfoam.com                      |
|    \\/     M anipulation  |                                                 |
\*---------------------------------------------------------------------------*/
FoamFile
{
    version     2.0;
    format      ascii;
    class       volScalarField;
    location    "379";
    object      nut;
}
// * * * * * * * * * * * * * * * * * * * * * * * * * * * * * * * * * * * * * //

dimensions      [0 2 -1 0 0 0 0];


internalField   nonuniform List<scalar> 
12225
(
1.39482e-05
1.99552e-05
2.35831e-05
2.53972e-05
2.62562e-05
2.6291e-05
2.61528e-05
2.58267e-05
2.53652e-05
2.48845e-05
2.44223e-05
2.39774e-05
2.35901e-05
2.32058e-05
2.29182e-05
2.25809e-05
2.24154e-05
2.20923e-05
0.000183086
9.50738e-05
7.15127e-05
6.00233e-05
5.33333e-05
4.93206e-05
4.66486e-05
4.51461e-05
4.40057e-05
4.35586e-05
4.31126e-05
4.32068e-05
4.31268e-05
4.35331e-05
4.36605e-05
4.42719e-05
4.45237e-05
4.53672e-05
0.00065457
0.000382184
0.000277237
0.000217523
0.000182296
0.000155922
0.000138495
0.000124182
0.000114418
0.000105631
9.97083e-05
9.38928e-05
9.01843e-05
8.61473e-05
8.3837e-05
8.09842e-05
7.95506e-05
7.75803e-05
0.000804683
0.000713003
0.000584718
0.000487486
0.000424465
0.000371822
0.000336637
0.000303739
0.000282079
0.000259869
0.000245608
0.000229626
0.000219814
0.000207795
0.00020086
0.000191607
0.000186628
0.000179086
0.000844076
0.000825864
0.000780938
0.000717683
0.000666275
0.000612146
0.000573129
0.000532023
0.000503785
0.00047272
0.000452187
0.000428152
0.00041305
0.000393963
0.000382797
0.00036729
0.0003591
0.000346008
0.000851899
0.000847704
0.000835357
0.000818302
0.000796481
0.000766055
0.000741703
0.000711659
0.000689286
0.000662535
0.000643591
0.000620511
0.000605058
0.000585224
0.000572955
0.000555766
0.000546381
0.000531231
0.000851607
0.000850576
0.000848254
0.000843682
0.000836756
0.000827808
0.000818301
0.000804372
0.000793156
0.000778121
0.000766663
0.000751789
0.000741049
0.000726943
0.000717433
0.000704291
0.000696262
0.000684067
0.00085152
0.000850471
0.000849671
0.000847857
0.000845809
0.000842311
0.000838253
0.000833227
0.000827956
0.00082089
0.00081489
0.000806864
0.000800613
0.000792297
0.000786234
0.000777938
0.000772405
0.000764144
0.000851506
0.000850382
0.000849614
0.000848492
0.00084751
0.000846023
0.000844408
0.0008422
0.000839945
0.00083705
0.000833879
0.000830459
0.000826996
0.000822956
0.000819419
0.000815017
0.00081153
0.000806808
0.000851487
0.000850388
0.000849504
0.000848518
0.00084769
0.000846719
0.000845835
0.000844725
0.000843668
0.000842352
0.000841067
0.00083944
0.000837995
0.000836082
0.000834515
0.000832366
0.000830756
0.000828397
0.000851468
0.000850402
0.000849462
0.0008485
0.000847655
0.000846773
0.000846
0.00084516
0.000844419
0.000843574
0.000842839
0.00084195
0.000841193
0.000840249
0.000839461
0.000838458
0.000837642
0.000836591
0.000851458
0.000850408
0.000849443
0.000848494
0.000847624
0.000846762
0.000845976
0.000845189
0.000844474
0.000843746
0.000843087
0.000842405
0.000841787
0.00084114
0.000840551
0.00083993
0.000839361
0.000838761
0.000851452
0.000850411
0.000849432
0.00084849
0.000847604
0.000846751
0.000845948
0.000845174
0.000844444
0.00084374
0.000843075
0.000842431
0.000841823
0.000841233
0.000840673
0.00084013
0.000839613
0.000839111
0.000851449
0.000850411
0.000849425
0.000848485
0.000847592
0.00084674
0.00084593
0.000845156
0.000844419
0.000843716
0.000843045
0.000842403
0.000841791
0.000841205
0.000840645
0.00084011
0.000839596
0.000839105
0.000851448
0.00085041
0.000849421
0.00084848
0.000847584
0.00084673
0.000845916
0.000845141
0.000844401
0.000843695
0.00084302
0.000842376
0.000841761
0.000841173
0.000840609
0.000840071
0.000839556
0.000839063
0.000851447
0.000850408
0.000849419
0.000848476
0.000847578
0.000846723
0.000845907
0.000845129
0.000844387
0.000843678
0.000843002
0.000842355
0.000841737
0.000841146
0.000840581
0.00084004
0.000839522
0.000839027
0.000851447
0.000850408
0.000849417
0.000848474
0.000847575
0.000846718
0.0008459
0.000845121
0.000844377
0.000843667
0.000842988
0.00084234
0.00084172
0.000841127
0.00084056
0.000840017
0.000839498
0.000839001
0.000851447
0.000850407
0.000849417
0.000848473
0.000847573
0.000846715
0.000845897
0.000845117
0.000844372
0.000843661
0.000842981
0.000842331
0.00084171
0.000841116
0.000840548
0.000840004
0.000839484
0.000838986
0.000851447
0.000850408
0.000849417
0.000848473
0.000847573
0.000846716
0.000845897
0.000845117
0.000844372
0.00084366
0.00084298
0.00084233
0.000841708
0.000841113
0.000840545
0.000840001
0.00083948
0.000838981
0.000851447
0.000850408
0.000849418
0.000848474
0.000847575
0.000846718
0.0008459
0.000845119
0.000844374
0.000843663
0.000842982
0.000842333
0.000841711
0.000841116
0.000840547
0.000840003
0.000839482
0.000838983
0.000851447
0.00085041
0.000849418
0.000848477
0.000847577
0.000846722
0.000845904
0.000845125
0.000844379
0.000843668
0.000842986
0.000842337
0.000841712
0.000841116
0.000840542
0.000839995
0.000839467
0.000838963
0.000851444
0.000850413
0.000849418
0.000848484
0.00084758
0.000846731
0.000845906
0.000845129
0.000844371
0.000843655
0.000842951
0.000842284
0.000841623
0.000840997
0.00084037
0.000839778
0.000839181
0.000838618
0.000851435
0.000850425
0.000849418
0.0008485
0.000847574
0.000846724
0.000845836
0.000845009
0.000844126
0.000843284
0.000842373
0.000841496
0.000840542
0.000839624
0.000838621
0.000837672
0.000836615
0.000835654
0.000851417
0.000850483
0.000849425
0.00084847
0.000847354
0.000846193
0.000844726
0.000843263
0.000841395
0.000839518
0.000837265
0.000835029
0.000832472
0.000829971
0.000827211
0.000824466
0.000821621
0.00081901
0.000851561
0.00085068
0.000848922
0.000847063
0.000843901
0.000839633
0.000834791
0.000829285
0.00082245
0.000815818
0.000808175
0.000801042
0.00079311
0.000785939
0.000778056
0.000771155
0.000763498
0.000757069
0.000853344
0.000848453
0.000840777
0.000831264
0.00081499
0.000798098
0.000778308
0.000759914
0.000740044
0.000722434
0.000704008
0.000688122
0.000671603
0.000657671
0.000643043
0.000631004
0.000618064
0.000607761
0.000856529
0.000819208
0.000779756
0.000729077
0.000678767
0.000636214
0.000595848
0.000563056
0.000531819
0.000506866
0.000482607
0.000463396
0.000444213
0.000429187
0.000413712
0.000401784
0.000389049
0.000379464
0.000796655
0.000630651
0.000513806
0.000434237
0.000376534
0.000335283
0.000301407
0.000276567
0.000254862
0.000238655
0.00022365
0.000212414
0.00020148
0.000193352
0.000185072
0.000179
0.000172542
0.000167886
0.000337279
0.000197097
0.000148471
0.000123417
0.000107026
9.63153e-05
8.85553e-05
8.31941e-05
7.89585e-05
7.6113e-05
7.36117e-05
7.20016e-05
7.04463e-05
6.95273e-05
6.85298e-05
6.802e-05
6.73654e-05
6.71023e-05
2.14093e-05
2.63741e-05
3.01784e-05
3.2847e-05
3.48032e-05
3.60311e-05
3.69846e-05
3.76596e-05
3.81503e-05
3.84413e-05
3.86274e-05
3.86722e-05
3.86468e-05
3.85816e-05
3.84535e-05
3.82903e-05
3.81042e-05
3.79014e-05
3.33046e-10
1.19812e-08
3.02295e-08
5.61581e-08
8.2776e-08
1.0295e-07
1.23493e-07
1.63624e-07
2.30439e-07
3.36062e-07
4.72327e-07
6.1116e-07
7.50975e-07
8.7299e-07
9.77776e-07
1.05825e-06
1.10357e-06
1.12703e-06
1.11986e-06
1.09593e-06
1.00987e-06
8.76028e-07
6.6996e-07
4.23643e-07
1.97891e-07
5.96093e-08
1.35211e-08
9.54224e-09
1.09124e-08
1.32558e-08
1.69849e-08
2.25095e-08
2.7881e-08
3.04172e-08
3.59039e-08
5.22284e-08
9.92762e-08
1.75706e-07
2.31984e-07
2.51521e-07
2.501e-07
2.39508e-07
2.24628e-07
2.39221e-07
3.18482e-07
4.63723e-07
5.3744e-07
6.51455e-07
9.17014e-07
3.07428e-06
8.29688e-06
1.33152e-05
1.73999e-05
2.07692e-05
2.3585e-05
2.59769e-05
2.80465e-05
2.98608e-05
3.14794e-05
3.2939e-05
3.42771e-05
3.55216e-05
3.67012e-05
3.77825e-05
3.87931e-05
3.97355e-05
4.06286e-05
4.14734e-05
4.22828e-05
4.30571e-05
4.38046e-05
4.45271e-05
4.5228e-05
4.59098e-05
4.6574e-05
4.72226e-05
4.78561e-05
4.8476e-05
4.90825e-05
4.96766e-05
5.0258e-05
5.08274e-05
5.13846e-05
5.19297e-05
5.24625e-05
5.29829e-05
5.34905e-05
5.39852e-05
5.44664e-05
5.49339e-05
5.53874e-05
5.58267e-05
5.62518e-05
5.66628e-05
5.70605e-05
5.74462e-05
5.78223e-05
5.81923e-05
5.8553e-05
5.88988e-05
5.92341e-05
5.95564e-05
5.9867e-05
6.01647e-05
6.04498e-05
6.07217e-05
6.09803e-05
6.12252e-05
6.14563e-05
6.16733e-05
6.18759e-05
6.20638e-05
6.22368e-05
6.23947e-05
6.25371e-05
6.26638e-05
6.27747e-05
6.28694e-05
6.29478e-05
6.30095e-05
6.30545e-05
6.30825e-05
6.30932e-05
6.30866e-05
6.30624e-05
6.30205e-05
6.29608e-05
6.28832e-05
6.27882e-05
6.2682e-05
6.25378e-05
6.24151e-05
6.22154e-05
6.20358e-05
6.18299e-05
6.16054e-05
6.13638e-05
6.11029e-05
6.08243e-05
6.05271e-05
6.0212e-05
5.98781e-05
5.9528e-05
5.91628e-05
5.87805e-05
5.83782e-05
5.7962e-05
5.75286e-05
5.70802e-05
5.66163e-05
5.61377e-05
5.56449e-05
5.51385e-05
5.46193e-05
5.40873e-05
5.35432e-05
5.29877e-05
5.24213e-05
5.18448e-05
5.12588e-05
5.0664e-05
5.00612e-05
4.94509e-05
4.88339e-05
4.82107e-05
4.75822e-05
4.69495e-05
4.63127e-05
4.56733e-05
4.50351e-05
4.44829e-05
4.42202e-05
4.40142e-05
4.38003e-05
4.35619e-05
4.32853e-05
4.29416e-05
4.24734e-05
4.18687e-05
3.86971e-05
1.73393e-09
5.55894e-09
3.10891e-08
7.79505e-08
1.81951e-07
5.21327e-07
1.15208e-06
2.10767e-06
3.3871e-06
4.80868e-06
6.45179e-06
8.03656e-06
9.57477e-06
1.07329e-05
1.16618e-05
1.19884e-05
1.19504e-05
1.13418e-05
9.89902e-06
7.85488e-06
5.88953e-06
4.17222e-06
2.86602e-06
1.88916e-06
1.1521e-06
6.60456e-07
3.52338e-07
1.92795e-07
1.17972e-07
8.01457e-08
5.60124e-08
4.73211e-08
7.35856e-08
1.62884e-07
8.51707e-07
1.84394e-06
3.92298e-06
6.53247e-06
7.8109e-06
7.3981e-06
6.82087e-06
5.46989e-06
5.15775e-06
4.33814e-06
4.20332e-06
4.55354e-06
6.59297e-06
9.57226e-06
1.42906e-05
2.07143e-05
2.87934e-05
3.72961e-05
4.6991e-05
5.71538e-05
6.87459e-05
8.10983e-05
9.46857e-05
0.000108808
0.000123586
0.000138406
0.000152929
0.000166704
0.000179771
0.00019195
0.000203339
0.000213916
0.000223664
0.00023299
0.000241714
0.000250052
0.000257816
0.000265373
0.000272575
0.000279606
0.000286417
0.000293101
0.000299649
0.000306109
0.000312484
0.000318802
0.000325069
0.000331299
0.000337499
0.000343677
0.000349835
0.000355979
0.000362108
0.000368222
0.000374317
0.000380389
0.000386426
0.000392413
0.000398329
0.000404143
0.000409812
0.000415275
0.000420451
0.000425239
0.000429825
0.000434461
0.000439014
0.000443559
0.000448051
0.000452512
0.000456926
0.000461298
0.000465621
0.000469894
0.000474112
0.000478275
0.000482377
0.000486416
0.000490389
0.000494293
0.000498124
0.000501878
0.000505553
0.000509145
0.00051265
0.000516066
0.000519387
0.000522611
0.000525734
0.000528753
0.000531664
0.000534464
0.000537148
0.000539714
0.000542158
0.000544473
0.000546665
0.00054875
0.000550674
0.000552479
0.00055413
0.00055565
0.000557023
0.000558255
0.000559338
0.000560272
0.000561065
0.000561672
0.000562114
0.00056244
0.000562659
0.000562663
0.000562531
0.000562245
0.00056181
0.000561227
0.000560496
0.000559618
0.000558596
0.00055745
0.000556169
0.000554759
0.000553221
0.00055156
0.000549781
0.000547889
0.00054589
0.000543789
0.00054159
0.000539299
0.00053692
0.000534456
0.000531923
0.000529302
0.000526589
0.00052375
0.000520584
0.000516533
0.000511991
0.000507161
0.000502075
0.000496666
0.000490655
0.000483853
0.000475745
0.000448874
2.26414e-09
3.92443e-09
3.22212e-08
1.44735e-07
5.63836e-07
1.17314e-06
2.4201e-06
4.3501e-06
6.65645e-06
9.51729e-06
1.28858e-05
1.63497e-05
1.99523e-05
2.3169e-05
2.59373e-05
2.76452e-05
2.84891e-05
2.86887e-05
2.72703e-05
2.52615e-05
2.19408e-05
1.81782e-05
1.3797e-05
9.95436e-06
6.60193e-06
4.26873e-06
2.40179e-06
1.37997e-06
7.98912e-07
5.01477e-07
3.59024e-07
2.85812e-07
3.79911e-07
5.02048e-07
2.90899e-06
6.53116e-06
1.26638e-05
1.89716e-05
2.01461e-05
1.99436e-05
1.62398e-05
1.14375e-05
8.93157e-06
1.17463e-05
1.60123e-05
2.19716e-05
3.14011e-05
4.4381e-05
6.07799e-05
8.1143e-05
0.000106708
0.000135219
0.000168766
0.000205829
0.000246267
0.000287375
0.000328699
0.000368018
0.000405106
0.000438901
0.000470014
0.000498463
0.000524531
0.000548396
0.000570183
0.00059057
0.000609802
0.000627673
0.000644628
0.000660757
0.000676193
0.000691126
0.000705573
0.000719673
0.000733448
0.000746981
0.000760298
0.000773447
0.000786449
0.000799333
0.000812115
0.000824813
0.000837435
0.00084999
0.000862483
0.000874914
0.000887283
0.000899584
0.00091181
0.000923948
0.000935982
0.000947892
0.000959653
0.000971235
0.000982608
0.000993743
0.00100463
0.00101532
0.00102593
0.0010365
0.00104697
0.00105736
0.00106765
0.00107785
0.00108794
0.00109791
0.00110777
0.0011175
0.0011271
0.00113656
0.00114587
0.00115502
0.00116402
0.00117285
0.0011815
0.00118997
0.00119825
0.00120633
0.0012142
0.00122186
0.00122929
0.0012365
0.00124346
0.00125019
0.00125665
0.00126286
0.00126879
0.00127445
0.00127983
0.00128492
0.00128972
0.00129422
0.0012984
0.00130227
0.00130581
0.00130904
0.00131193
0.0013145
0.00131673
0.0013186
0.00132008
0.00132119
0.00132202
0.00132257
0.0013227
0.00132247
0.00132189
0.00132098
0.00131972
0.00131812
0.00131618
0.00131391
0.00131133
0.00130843
0.00130523
0.00130173
0.00129795
0.00129388
0.00128955
0.00128496
0.00128013
0.00127507
0.00126979
0.00126431
0.00125862
0.00125275
0.00124672
0.0012405
0.00123411
0.00122748
0.00122039
0.00121227
0.00120337
0.0011939
0.00118385
0.00117308
0.00116108
0.0011474
0.00113062
0.00108288
2.46125e-09
7.92102e-09
9.49942e-08
3.52652e-07
1.15333e-06
2.84367e-06
5.62893e-06
9.7417e-06
1.48442e-05
2.20417e-05
3.00851e-05
3.81105e-05
4.50917e-05
4.99011e-05
5.35038e-05
5.53228e-05
5.55399e-05
5.4708e-05
5.21055e-05
4.88219e-05
4.43864e-05
3.91212e-05
3.26501e-05
2.60058e-05
1.93359e-05
1.36685e-05
9.25624e-06
5.8447e-06
3.57102e-06
2.22117e-06
1.49134e-06
1.18081e-06
1.41918e-06
2.42473e-06
8.58436e-06
1.8487e-05
2.53033e-05
3.01933e-05
2.35242e-05
1.68486e-05
1.79073e-05
2.18156e-05
3.04945e-05
4.07813e-05
5.39485e-05
7.41691e-05
0.000103856
0.00013513
0.000176084
0.000222363
0.000276021
0.000332082
0.000392557
0.000453147
0.000513667
0.000571744
0.000627101
0.000678735
0.000726743
0.000771034
0.00081189
0.000849512
0.000884296
0.000916995
0.000947299
0.000975805
0.00100274
0.00102827
0.00105267
0.00107608
0.00109868
0.00112061
0.00114194
0.0011628
0.00118324
0.00120334
0.00122314
0.0012427
0.00126204
0.0012812
0.00130019
0.00131904
0.00133776
0.00135635
0.00137482
0.00139318
0.00141141
0.00142952
0.0014475
0.00146532
0.00148299
0.00150048
0.00151779
0.00153489
0.00155178
0.00156845
0.00158494
0.00160127
0.0016175
0.00163362
0.00164959
0.00166542
0.0016811
0.00169662
0.00171197
0.00172714
0.00174212
0.0017569
0.00177147
0.00178582
0.00179995
0.00181383
0.00182746
0.00184084
0.00185395
0.00186677
0.00187931
0.00189154
0.00190346
0.00191506
0.00192632
0.00193724
0.0019478
0.00195799
0.00196781
0.00197724
0.00198627
0.00199489
0.0020031
0.00201087
0.00201822
0.00202512
0.00203156
0.00203754
0.00204303
0.00204806
0.0020526
0.00205666
0.00206021
0.00206325
0.00206569
0.00206761
0.00206919
0.00207021
0.00207067
0.00207061
0.00207004
0.00206895
0.00206735
0.00206525
0.00206265
0.00205956
0.00205599
0.00205194
0.00204744
0.00204249
0.0020371
0.00203129
0.00202507
0.00201846
0.00201147
0.00200413
0.00199647
0.00198848
0.00198019
0.0019716
0.00196274
0.00195362
0.00194423
0.00193454
0.00192435
0.00191325
0.00190129
0.00188857
0.00187506
0.00186058
0.00184459
0.00182612
0.00180399
0.00174766
3.26662e-09
2.58738e-08
2.21574e-07
9.24267e-07
2.99705e-06
7.36542e-06
1.43693e-05
2.5052e-05
3.90629e-05
5.21407e-05
6.18325e-05
6.93142e-05
7.43122e-05
7.75257e-05
7.92798e-05
7.97558e-05
7.90779e-05
7.71719e-05
7.39573e-05
7.00399e-05
6.48482e-05
5.87631e-05
5.15114e-05
4.36297e-05
3.50378e-05
2.68802e-05
1.94258e-05
1.38904e-05
9.3462e-06
6.08729e-06
4.37689e-06
3.54458e-06
5.08604e-06
1.21306e-05
2.87209e-05
3.68426e-05
2.90407e-05
2.74788e-05
3.07663e-05
3.62475e-05
4.53862e-05
5.72045e-05
7.36744e-05
0.000100433
0.000137071
0.000182886
0.000234312
0.000292446
0.000358533
0.000427799
0.000500925
0.000574167
0.000648059
0.000719861
0.000789401
0.000855572
0.000918214
0.00097709
0.00103196
0.00108322
0.0011315
0.00117656
0.00121873
0.00125845
0.00129586
0.00133132
0.00136506
0.00139729
0.00142824
0.00145807
0.00148694
0.00151499
0.00154234
0.00156909
0.00159531
0.00162109
0.00164648
0.00167153
0.00169629
0.00172078
0.00174504
0.00176908
0.00179293
0.00181658
0.00184006
0.00186335
0.00188646
0.0019094
0.00193214
0.00195469
0.00197704
0.00199918
0.00202111
0.00204282
0.00206433
0.00208563
0.00210674
0.00212768
0.00214845
0.00216905
0.00218947
0.00220968
0.00222969
0.00224948
0.00226904
0.00228836
0.00230743
0.00232624
0.00234478
0.00236303
0.00238098
0.00239863
0.00241596
0.00243295
0.0024496
0.0024659
0.00248184
0.0024974
0.00251256
0.00252733
0.00254168
0.00255561
0.0025691
0.00258213
0.00259471
0.00260681
0.00261842
0.00262954
0.00264015
0.00265025
0.00265981
0.00266884
0.00267732
0.00268523
0.00269256
0.00269931
0.00270549
0.00271108
0.00271606
0.00272042
0.00272401
0.0027271
0.00272966
0.00273153
0.00273275
0.00273334
0.00273329
0.00273262
0.00273132
0.00272939
0.00272685
0.0027237
0.00271995
0.00271561
0.00271069
0.0027052
0.00269916
0.00269259
0.00268549
0.00267788
0.0026698
0.00266124
0.00265221
0.00264276
0.0026329
0.00262266
0.00261204
0.00260109
0.0025898
0.00257815
0.00256599
0.00255306
0.0025393
0.00252473
0.00250929
0.0024928
0.00247477
0.00245427
0.00242953
0.00237354
2.16712e-09
6.25158e-08
5.5827e-07
2.53976e-06
8.70024e-06
2.05039e-05
3.86587e-05
5.60911e-05
6.90876e-05
7.85202e-05
8.49268e-05
8.91757e-05
9.22299e-05
9.41353e-05
9.49752e-05
9.48483e-05
9.37775e-05
9.15769e-05
8.84066e-05
8.43748e-05
7.92857e-05
7.30069e-05
6.5574e-05
5.72227e-05
4.79307e-05
3.84294e-05
2.93646e-05
2.12712e-05
1.72921e-05
1.32173e-05
1.01137e-05
1.13933e-05
2.64043e-05
4.85935e-05
5.19161e-05
4.81914e-05
4.76719e-05
5.04988e-05
5.81542e-05
6.90347e-05
8.88367e-05
0.000120442
0.000162111
0.000213522
0.0002735
0.00034094
0.000413058
0.000490453
0.000571139
0.000652763
0.000734993
0.000816022
0.000895596
0.000972535
0.00104659
0.0011173
0.00118419
0.00124776
0.00130829
0.00136518
0.00141897
0.00146975
0.00151776
0.00156328
0.00160651
0.00164772
0.00168711
0.0017249
0.00176127
0.00179641
0.00183046
0.00186356
0.00189584
0.00192739
0.00195832
0.00198869
0.00201857
0.00204803
0.0020771
0.00210582
0.00213424
0.00216236
0.00219022
0.00221782
0.00224518
0.0022723
0.00229918
0.00232583
0.00235225
0.00237843
0.00240437
0.00243008
0.00245554
0.00248076
0.00250575
0.00253053
0.00255508
0.00257941
0.00260352
0.00262741
0.00265107
0.00267447
0.00269762
0.0027205
0.0027431
0.00276541
0.00278742
0.00280911
0.00283049
0.00285153
0.00287223
0.00289258
0.00291255
0.00293214
0.00295134
0.00297014
0.00298853
0.00300649
0.00302402
0.0030411
0.00305772
0.00307387
0.00308954
0.00310471
0.00311937
0.00313351
0.00314713
0.0031602
0.00317271
0.00318467
0.00319606
0.00320686
0.00321709
0.00322665
0.00323561
0.00324394
0.00325166
0.00325873
0.00326517
0.00327088
0.0032758
0.00328023
0.00328398
0.003287
0.00328932
0.00329095
0.00329188
0.00329212
0.00329166
0.00329051
0.00328868
0.00328616
0.00328297
0.00327911
0.00327459
0.00326943
0.00326363
0.00325721
0.00325019
0.00324258
0.00323441
0.00322568
0.00321641
0.00320663
0.00319636
0.00318563
0.00317443
0.00316278
0.0031507
0.0031382
0.00312519
0.0031115
0.00309707
0.00308186
0.00306579
0.00304872
0.00303025
0.00300973
0.00298495
0.00293345
7.84448e-09
1.81569e-07
1.55283e-06
8.01088e-06
2.42771e-05
4.57885e-05
6.35266e-05
7.65072e-05
8.61295e-05
9.2407e-05
9.71993e-05
0.000100435
0.000102447
0.00010357
0.00010385
0.0001033
0.000101957
9.97211e-05
9.66828e-05
9.27411e-05
8.76966e-05
8.16639e-05
7.46095e-05
6.65072e-05
5.73847e-05
4.7238e-05
3.73657e-05
2.64057e-05
1.67973e-05
1.42156e-05
1.92417e-05
4.17937e-05
6.52512e-05
6.66199e-05
6.59275e-05
6.45609e-05
6.79605e-05
7.92664e-05
9.89288e-05
0.00013206
0.000176751
0.000229853
0.000294027
0.000365259
0.000442488
0.000524012
0.000608301
0.000694929
0.000782233
0.000869148
0.00095513
0.00103935
0.00112142
0.00120087
0.001277
0.00135032
0.0014209
0.00148809
0.00155217
0.00161311
0.00167108
0.00172623
0.00177872
0.00182875
0.00187652
0.00192222
0.00196604
0.00200818
0.00204881
0.00208809
0.00212617
0.0021632
0.00219928
0.00223452
0.00226904
0.00230289
0.00233617
0.00236892
0.0024012
0.00243306
0.00246453
0.00249565
0.00252642
0.00255688
0.00258704
0.00261691
0.00264649
0.00267579
0.00270481
0.00273356
0.00276204
0.00279024
0.00281817
0.00284582
0.00287321
0.00290032
0.00292716
0.00295374
0.00298005
0.0030061
0.00303186
0.00305734
0.00308252
0.00310739
0.00313195
0.00315618
0.00318008
0.00320363
0.00322683
0.00324967
0.00327213
0.00329421
0.00331591
0.00333723
0.00335814
0.00337863
0.00339868
0.00341829
0.00343744
0.00345613
0.00347434
0.00349206
0.00350928
0.00352599
0.00354217
0.00355782
0.00357293
0.00358747
0.00360145
0.00361485
0.00362767
0.00363993
0.00365154
0.0036625
0.00367284
0.00368254
0.00369161
0.00370002
0.0037078
0.00371486
0.00372124
0.00372706
0.00373217
0.00373655
0.00374022
0.00374318
0.00374542
0.00374695
0.00374776
0.00374785
0.00374723
0.00374589
0.00374384
0.00374108
0.00373763
0.00373348
0.00372865
0.00372315
0.00371699
0.00371019
0.00370276
0.00369472
0.00368608
0.00367687
0.00366711
0.00365682
0.00364598
0.00363466
0.00362286
0.00361059
0.00359781
0.00358443
0.00357037
0.0035556
0.00354006
0.00352362
0.003506
0.00348667
0.00346396
0.00341819
7.80328e-08
5.59215e-07
4.50864e-06
2.15139e-05
4.70061e-05
6.88605e-05
8.43009e-05
9.33871e-05
9.83672e-05
0.000101759
0.000104092
0.000105823
0.000107047
0.000107592
0.000107478
0.000106737
0.000105324
0.000102987
9.98014e-05
9.53915e-05
8.95893e-05
8.26124e-05
7.45778e-05
6.56693e-05
5.59779e-05
4.6249e-05
3.77161e-05
3.23979e-05
3.21252e-05
3.98013e-05
5.89906e-05
7.65803e-05
8.03116e-05
7.90952e-05
7.90422e-05
8.60418e-05
0.000105081
0.000136671
0.000180362
0.00023425
0.000298919
0.000370419
0.000449641
0.000532651
0.00061909
0.000707575
0.000797236
0.000887417
0.000977149
0.00106583
0.00115302
0.0012383
0.00132092
0.00140102
0.0014792
0.00155435
0.00162671
0.00169614
0.00176268
0.00182636
0.00188727
0.0019455
0.00200119
0.00205447
0.00210551
0.00215447
0.00220152
0.00224682
0.00229053
0.00233281
0.0023738
0.00241363
0.00245242
0.00249028
0.00252731
0.00256359
0.0025992
0.00263421
0.00266867
0.00270264
0.00273615
0.00276923
0.00280193
0.00283425
0.00286622
0.00289784
0.00292914
0.00296013
0.0029908
0.00302116
0.00305122
0.00308098
0.00311044
0.00313959
0.00316843
0.00319696
0.0032252
0.00325316
0.00328083
0.0033082
0.00333528
0.00336205
0.00338851
0.00341464
0.00344044
0.0034659
0.00349102
0.00351578
0.00354017
0.00356419
0.00358783
0.00361108
0.00363393
0.00365637
0.0036784
0.0037
0.00372116
0.00374188
0.00376215
0.00378196
0.00380129
0.00382013
0.00383849
0.00385634
0.00387368
0.00389049
0.00390677
0.00392251
0.00393769
0.00395232
0.00396641
0.00397992
0.00399278
0.00400505
0.00401671
0.00402775
0.00403817
0.00404796
0.00405712
0.00406554
0.00407334
0.00408051
0.00408697
0.00409273
0.00409778
0.00410212
0.00410576
0.00410868
0.00411088
0.00411236
0.00411311
0.00411314
0.00411245
0.00411104
0.00410891
0.00410607
0.00410252
0.00409827
0.00409333
0.00408772
0.00408144
0.0040745
0.00406694
0.00405875
0.00404998
0.00404068
0.00403095
0.00402071
0.00400995
0.00399869
0.00398691
0.00397458
0.00396163
0.00394805
0.0039338
0.00391881
0.00390285
0.00388564
0.00386582
0.0038272
2.71621e-07
1.43465e-06
1.20625e-05
3.9222e-05
6.5742e-05
8.3808e-05
9.38775e-05
9.87374e-05
0.000101316
0.000103166
0.000104893
0.00010642
0.000107509
0.000108022
0.000107841
0.000106709
0.000104603
0.000101757
9.82046e-05
9.35474e-05
8.75073e-05
8.002e-05
7.1428e-05
6.20736e-05
5.31785e-05
4.38924e-05
3.89539e-05
4.11703e-05
5.38328e-05
7.40066e-05
8.71801e-05
9.17523e-05
9.09022e-05
9.27759e-05
0.000106945
0.000135698
0.000176751
0.00022814
0.000290912
0.000361541
0.000439547
0.000521888
0.000608462
0.000697039
0.000787284
0.000878324
0.000969548
0.00106042
0.00115036
0.00123899
0.00132584
0.00141039
0.00149331
0.00157406
0.00165243
0.00172824
0.00180145
0.001872
0.0019399
0.00200515
0.00206779
0.0021279
0.00218556
0.00224088
0.00229399
0.00234502
0.00239412
0.00244143
0.0024871
0.00253127
0.00257409
0.00261567
0.00265614
0.0026956
0.00273414
0.00277186
0.00280884
0.00284515
0.00288085
0.00291599
0.00295063
0.00298479
0.00301851
0.00305182
0.00308474
0.00311732
0.00314953
0.00318139
0.0032129
0.00324407
0.0032749
0.0033054
0.00333558
0.00336543
0.00339497
0.0034242
0.00345312
0.00348174
0.00351006
0.00353807
0.00356576
0.00359314
0.00362019
0.00364691
0.0036733
0.00369934
0.00372503
0.00375037
0.00377534
0.00379994
0.00382416
0.003848
0.00387145
0.00389451
0.00391715
0.00393939
0.0039612
0.00398259
0.00400355
0.00402406
0.00404413
0.00406374
0.00408288
0.00410155
0.00411973
0.00413742
0.00415461
0.00417129
0.00418745
0.0042031
0.00421826
0.00423283
0.00424684
0.00426029
0.00427317
0.00428547
0.00429719
0.00430832
0.00431885
0.00432873
0.00433805
0.00434672
0.00435472
0.00436205
0.00436872
0.00437473
0.00438005
0.00438469
0.00438863
0.00439188
0.00439443
0.00439627
0.0043974
0.00439782
0.00439752
0.00439652
0.0043948
0.00439238
0.00438926
0.00438544
0.00438094
0.00437576
0.00436992
0.00436343
0.00435631
0.00434858
0.00434025
0.00433136
0.00432193
0.00431197
0.00430148
0.00429045
0.00427887
0.00426673
0.00425401
0.00424068
0.00422661
0.00421165
0.00419492
0.00416352
5.28453e-07
3.18306e-06
2.41044e-05
5.87631e-05
8.43255e-05
9.7753e-05
0.000101573
0.000101968
0.000102394
0.000103427
0.000104826
0.000106076
0.00010673
0.000106504
0.000105183
0.000102882
9.97767e-05
9.54105e-05
9.01542e-05
8.40806e-05
7.74152e-05
7.03007e-05
6.29558e-05
5.55762e-05
5.12635e-05
5.17585e-05
5.76188e-05
6.97857e-05
8.61334e-05
9.60793e-05
9.9615e-05
0.000102003
0.000108679
0.000130275
0.00016846
0.000215088
0.000274452
0.000341788
0.000417191
0.000497437
0.000581987
0.000669093
0.000758329
0.000848619
0.000939557
0.0010306
0.0011213
0.00121127
0.00130014
0.00138726
0.00147263
0.00155681
0.00163893
0.00171895
0.00179677
0.00187226
0.00194535
0.00201601
0.00208419
0.00214988
0.00221311
0.00227391
0.00233237
0.00238856
0.00244259
0.00249456
0.00254459
0.00259281
0.00263936
0.00268438
0.00272801
0.00277035
0.00281156
0.00285176
0.00289107
0.00292949
0.0029671
0.00300398
0.00304017
0.00307576
0.00311077
0.00314526
0.00317926
0.00321281
0.00324591
0.00327858
0.00331087
0.00334279
0.00337436
0.0034056
0.0034365
0.00346707
0.00349734
0.00352729
0.00355694
0.00358628
0.00361532
0.00364405
0.00367247
0.00370058
0.00372838
0.00375587
0.00378303
0.00380987
0.00383638
0.00386256
0.0038884
0.0039139
0.00393905
0.00396384
0.00398828
0.00401235
0.00403605
0.00405938
0.00408233
0.0041049
0.00412707
0.00414886
0.00417024
0.00419121
0.00421178
0.00423192
0.00425164
0.00427093
0.00428977
0.00430817
0.00432611
0.00434359
0.0043606
0.00437718
0.00439325
0.00440883
0.00442391
0.00443848
0.00445254
0.00446607
0.00447907
0.00449154
0.00450347
0.00451484
0.0045257
0.00453594
0.00454554
0.00455455
0.00456295
0.00457074
0.00457789
0.0045844
0.00459027
0.00459548
0.00460002
0.00460389
0.00460708
0.00460959
0.00461141
0.00461253
0.00461296
0.00461269
0.00461171
0.00461005
0.00460769
0.00460464
0.00460091
0.00459652
0.00459147
0.00458577
0.00457946
0.00457254
0.00456505
0.00455699
0.0045484
0.00453927
0.00452962
0.00451946
0.0045088
0.00449764
0.00448591
0.00447357
0.00445984
0.0044347
7.41385e-07
6.42426e-06
3.76676e-05
7.34847e-05
9.512e-05
0.000102774
0.000103141
0.00010163
0.000101001
0.000101285
0.000101886
0.000102255
0.00010205
0.000101192
9.91269e-05
9.69352e-05
9.34072e-05
8.87746e-05
8.33827e-05
7.76552e-05
7.13929e-05
6.55394e-05
6.12448e-05
5.94798e-05
6.12397e-05
7.03237e-05
8.42501e-05
9.58282e-05
0.000103763
0.000107611
0.00011233
0.000127408
0.000155791
0.000199686
0.000253542
0.000316082
0.000387505
0.000464012
0.000545344
0.000629568
0.000716202
0.000804327
0.000893498
0.000983145
0.0010729
0.00116239
0.00125127
0.00133928
0.00142568
0.00151091
0.00159484
0.00167712
0.00175754
0.00183599
0.00191237
0.00198659
0.00205859
0.00212831
0.00219571
0.00226076
0.00232343
0.00238379
0.00244189
0.00249781
0.00255165
0.00260354
0.00265368
0.00270212
0.00274886
0.00279403
0.00283773
0.0028801
0.00292125
0.00296126
0.00300019
0.00303819
0.00307535
0.00311178
0.00314754
0.00318268
0.00321726
0.00325132
0.0032849
0.00331803
0.00335074
0.00338307
0.00341501
0.0034466
0.00347783
0.00350874
0.00353932
0.00356958
0.00359954
0.00362919
0.00365855
0.00368761
0.00371637
0.00374484
0.00377301
0.00380088
0.00382846
0.00385574
0.00388271
0.00390939
0.00393575
0.0039618
0.00398754
0.00401296
0.00403805
0.00406282
0.00408727
0.00411138
0.00413515
0.00415858
0.00418167
0.00420441
0.00422681
0.00424885
0.00427053
0.00429185
0.00431281
0.00433339
0.0043536
0.00437342
0.00439285
0.00441189
0.00443053
0.00444877
0.00446659
0.00448401
0.00450101
0.00451759
0.00453372
0.00454941
0.00456464
0.00457941
0.00459371
0.00460755
0.00462091
0.0046338
0.00464629
0.00465812
0.00466942
0.00468018
0.0046904
0.00470006
0.00470915
0.00471766
0.00472557
0.00473288
0.00473957
0.00474563
0.00475106
0.00475584
0.00475996
0.00476341
0.00476619
0.00476829
0.00476971
0.00477044
0.00477049
0.00476984
0.00476851
0.00476649
0.0047638
0.00476045
0.00475645
0.00475183
0.00474659
0.00474077
0.00473439
0.00472747
0.00472004
0.00471213
0.00470377
0.004695
0.00468577
0.00467614
0.00466552
0.00464638
8.65189e-07
1.17165e-05
5.25079e-05
8.94041e-05
0.000106096
0.000106641
0.000101813
9.77817e-05
9.58567e-05
9.53451e-05
9.52549e-05
9.48841e-05
9.36153e-05
9.19044e-05
8.94913e-05
8.63474e-05
8.25649e-05
7.80558e-05
7.35588e-05
6.96167e-05
6.64844e-05
6.4784e-05
6.64752e-05
7.55157e-05