/*--------------------------------*- C++ -*----------------------------------*\
| =========                 |                                                 |
| \\      /  F ield         | OpenFOAM: The Open Source CFD Toolbox           |
|  \\    /   O peration     | Version:  v2012                                 |
|   \\  /    A nd           | Website:  www.openfoam.com                      |
|    \\/     M anipulation  |                                                 |
\*---------------------------------------------------------------------------*/
FoamFile
{
    version     2.0;
    format      ascii;
    class       volScalarField;
    location    "379";
    object      p;
}
// * * * * * * * * * * * * * * * * * * * * * * * * * * * * * * * * * * * * * //

dimensions      [0 2 -2 0 0 0 0];


internalField   nonuniform List<scalar> 
12225
(
-1.81934
-4.02533
-5.15307
-5.47471
-5.65579
-5.83986
-5.99332
-6.10986
-6.2068
-6.29548
-6.37883
-6.45794
-6.53481
-6.61213
-6.69285
-6.78051
-6.88287
-6.99198
-5.06492
-5.91711
-6.1132
-5.99822
-5.95778
-6.01543
-6.09622
-6.171
-6.24303
-6.31608
-6.3893
-6.46162
-6.53367
-6.60711
-6.68385
-6.76713
-6.85631
-6.96585
-5.44824
-5.36472
-5.47739
-5.56623
-5.67814
-5.82445
-5.96261
-6.07698
-6.17527
-6.26562
-6.35027
-6.43028
-6.5072
-6.58321
-6.66011
-6.73971
-6.82029
-6.89752
-5.30237
-5.1935
-5.45856
-5.65944
-5.78435
-5.90754
-6.02445
-6.12319
-6.20924
-6.28959
-6.36643
-6.44016
-6.51181
-6.58272
-6.65382
-6.7253
-6.79355
-6.85131
-5.29155
-5.3002
-5.55119
-5.72255
-5.81719
-5.91698
-6.02199
-6.11583
-6.19959
-6.27847
-6.35431
-6.42715
-6.49763
-6.56655
-6.63424
-6.69997
-6.76018
-6.80931
-5.35945
-5.40385
-5.58686
-5.73001
-5.82227
-5.91926
-6.02151
-6.11441
-6.19759
-6.27554
-6.35008
-6.42133
-6.48975
-6.55578
-6.6194
-6.67954
-6.73337
-6.77694
-5.43076
-5.47178
-5.60787
-5.73883
-5.83507
-5.92925
-6.02604
-6.11551
-6.19647
-6.27229
-6.34461
-6.41358
-6.47941
-6.54229
-6.60192
-6.65725
-6.7062
-6.74619
-5.48564
-5.5213
-5.63376
-5.75424
-5.84891
-5.93846
-6.02964
-6.11557
-6.1943
-6.26814
-6.33845
-6.40539
-6.46897
-6.52924
-6.58581
-6.63776
-6.6836
-6.72163
-5.53167
-5.56449
-5.66037
-5.76958
-5.86081
-5.94633
-6.03285
-6.11557
-6.19217
-6.2641
-6.33249
-6.39748
-6.459
-6.51695
-6.57097
-6.62028
-6.66383
-6.70053
-5.5797
-5.60985
-5.69032
-5.78723
-5.87385
-5.95525
-6.03694
-6.11595
-6.18994
-6.25956
-6.32567
-6.38839
-6.44758
-6.50306
-6.55448
-6.60126
-6.64275
-6.67828
-5.629
-5.65589
-5.72288
-5.80766
-5.88853
-5.96537
-6.04196
-6.11675
-6.18762
-6.25453
-6.31802
-6.37817
-6.43478
-6.48766
-6.53649
-6.5809
-6.62051
-6.65497
-5.67842
-5.70176
-5.7574
-5.83071
-5.90477
-5.97648
-6.04781
-6.11799
-6.18523
-6.24903
-6.30958
-6.36689
-6.42075
-6.47095
-6.51725
-6.55941
-6.59729
-6.63071
-5.72667
-5.74654
-5.79276
-5.85558
-5.92218
-5.98827
-6.05424
-6.11954
-6.18274
-6.24307
-6.30041
-6.35467
-6.40565
-6.45315
-6.49699
-6.53704
-6.57327
-6.60564
-5.77221
-5.78893
-5.82742
-5.88098
-5.94006
-6.00024
-6.06081
-6.12113
-6.18001
-6.23659
-6.29053
-6.34162
-6.38968
-6.4345
-6.47598
-6.51405
-6.54872
-6.58003
-5.8131
-5.82716
-5.8594
-5.90514
-5.95718
-6.01149
-6.06678
-6.1222
-6.17671
-6.22945
-6.27993
-6.32786
-6.37304
-6.41531
-6.45456
-6.49077
-6.52398
-6.55425
-5.8469
-5.85883
-5.88624
-5.92571
-5.97166
-6.0206
-6.07101
-6.1219
-6.17229
-6.22134
-6.2685
-6.31344
-6.35594
-6.39584
-6.43306
-6.46759
-6.49948
-6.52877
-5.87031
-5.88068
-5.90464
-5.93955
-5.98083
-6.02544
-6.07183
-6.11894
-6.16582
-6.21168
-6.25595
-6.2983
-6.33848
-6.37636
-6.41186
-6.44497
-6.47574
-6.50422
-5.8781
-5.88767
-5.90987
-5.94242
-5.9812
-6.02335
-6.06732
-6.11207
-6.15671
-6.20046
-6.2428
-6.28337
-6.32197
-6.35845
-6.39277
-6.42491
-6.45492
-6.48285
-5.8699
-5.87941
-5.9015
-5.93398
-5.97266
-6.01449
-6.0579
-6.10197
-6.14587
-6.18886
-6.2304
-6.2702
-6.30807
-6.3439
-6.37765
-6.40933
-6.43898
-6.46668
-5.85025
-5.86016
-5.88333
-5.91763
-5.9582
-6.00139
-6.04566
-6.09033
-6.13465
-6.17786
-6.21947
-6.25923
-6.29701
-6.33274
-6.36637
-6.39795
-6.42753
-6.4552
-5.8225
-5.83294
-5.85815
-5.89607
-5.94019
-5.98585
-6.03192
-6.07816
-6.12375
-6.16783
-6.21002
-6.25021
-6.2883
-6.32424
-6.35803
-6.38974
-6.41943
-6.44723
-5.78915
-5.79954
-5.82762
-5.87159
-5.92079
-5.96931
-6.01759
-6.06607
-6.11353
-6.15894
-6.20208
-6.24299
-6.28163
-6.31797
-6.35205
-6.38397
-6.41383
-6.44176
-5.75251
-5.76107
-5.79245
-5.84548
-5.90141
-5.95318
-6.00401
-6.05497
-6.10435
-6.15115
-6.19541
-6.23724
-6.2766
-6.31348
-6.34798
-6.38023
-6.41038
-6.43858
-5.71435
-5.71878
-5.75531
-5.81897
-5.88078
-5.93632
-5.9914
-6.04576
-6.0971
-6.14511
-6.19036
-6.233
-6.27293
-6.3102
-6.34496
-6.37741
-6.40768
-6.43594
-5.67454
-5.66817
-5.72355
-5.80136
-5.86202
-5.91739
-5.97697
-6.03579
-6.08985
-6.13976
-6.18662
-6.23056
-6.27144
-6.30938
-6.34461
-6.37739
-6.40793
-6.43656
-5.63975
-5.58227
-5.68344
-5.79772
-5.85946
-5.90995
-5.96849
-6.02723
-6.08105
-6.13104
-6.17835
-6.22284
-6.26423
-6.30264
-6.33832
-6.37152
-6.40243
-6.43122
-5.66495
-5.46378
-5.57903
-5.74234
-5.83852
-5.9104
-5.97982
-6.04255
-6.09752
-6.14774
-6.1947
-6.23836
-6.2786
-6.31574
-6.3501
-6.38201
-6.41183
-6.44029
-5.81152
-5.5581
-5.53331
-5.59131
-5.67051
-5.76676
-5.86202
-5.94464
-6.01638
-6.08129
-6.14069
-6.19453
-6.24305
-6.28689
-6.32665
-6.36285
-6.3961
-6.42746
-5.57115
-6.15793
-6.27053
-6.14069
-6.05406
-6.04966
-6.07529
-6.10534
-6.13831
-6.17519
-6.21389
-6.25215
-6.28876
-6.32341
-6.35596
-6.38623
-6.41443
-6.4422
-2.55578
-4.2038
-5.19265
-5.49418
-5.63337
-5.7708
-5.88799
-5.97714
-6.04984
-6.1143
-6.1724
-6.22426
-6.27055
-6.31207
-6.34936
-6.38252
-6.41151
-6.43483
-7.50736
-7.50751
-7.5076
-7.50771
-7.50777
-7.50707
-7.50454
-7.49996
-7.49464
-7.48995
-7.48717
-7.48738
-7.49039
-7.4952
-7.5006
-7.5055
-7.50908
-7.511
-7.5115
-7.51102
-7.50997
-7.50874
-7.50772
-7.50714
-7.50696
-7.5069
-7.50669
-7.50628
-7.50575
-7.50525
-7.50486
-7.50454
-7.50408
-7.50313
-7.50139
-7.49905
-7.49682
-7.49545
-7.49548
-7.4966
-7.49808
-7.49939
-7.5005
-7.50134
-7.5024
-7.50671
-7.51282
-7.5156
-7.51142
-7.50295
-7.49594
-7.4995
-7.51904
-7.55708
-7.61307
-7.68402
-7.76539
-7.85218
-7.93972
-8.02423
-8.10297
-8.17419
-8.23687
-8.29063
-8.3357
-8.37259
-8.40191
-8.42432
-8.44042
-8.45076
-8.45581
-8.45597
-8.45156
-8.44285
-8.43004
-8.41328
-8.39268
-8.36832
-8.34024
-8.30846
-8.27298
-8.23378
-8.19084
-8.14409
-8.0935
-8.03899
-7.98049
-7.91793
-7.85123
-7.7803
-7.70507
-7.62546
-7.54137
-7.45274
-7.35954
-7.26177
-7.15944
-7.05228
-6.93994
-6.82236
-6.69964
-6.57173
-6.4386
-6.30019
-6.15647
-6.00739
-5.85292
-5.69303
-5.52771
-5.35695
-5.18074
-4.9991
-4.81205
-4.61962
-4.42185
-4.21879
-4.0105
-3.79707
-3.57858
-3.35512
-3.12682
-2.89378
-2.65616
-2.41409
-2.16774
-1.91728
-1.6629
-1.40479
-1.14316
-0.878228
-0.61022
-0.339375
-0.0659402
0.209827
0.487663
0.767297
1.04845
1.33086
1.61422
1.89826
2.18268
2.46719
2.7515
3.03533
3.31839
3.6004
3.88108
4.16016
4.43737
4.71247
4.98519
5.25532
5.5226
5.78684
6.04783
6.30536
6.55926
6.80935
7.05547
7.29749
7.53525
7.76863
7.99751
8.22179
8.44137
8.65615
8.86606
9.07102
9.27096
9.46581
9.65568
9.84063
10.0204
10.1947
10.3639
10.5281
10.6882
10.8446
11.004
11.1564
-7.50885
-7.5091
-7.50969
-7.51054
-7.51107
-7.51062
-7.50856
-7.50481
-7.50067
-7.49794
-7.49761
-7.49979
-7.50402
-7.50939
-7.51491
-7.51972
-7.52324
-7.52509
-7.52502
-7.52312
-7.51994
-7.51625
-7.51282
-7.51016
-7.50837
-7.50711
-7.50601
-7.50513
-7.50479
-7.50488
-7.50509
-7.50522
-7.50511
-7.50448
-7.50302
-7.50091
-7.49901
-7.49823
-7.49869
-7.49956
-7.50011
-7.50061
-7.50179
-7.50127
-7.49734
-7.49351
-7.49737
-7.5096
-7.5176
-7.51545
-7.51369
-7.52393
-7.55268
-7.60204
-7.66949
-7.74986
-7.83709
-7.92559
-8.01098
-8.09032
-8.1619
-8.22498
-8.27942
-8.32552
-8.36378
-8.39482
-8.41923
-8.43759
-8.45041
-8.45811
-8.46107
-8.45959
-8.4539
-8.44421
-8.43066
-8.41335
-8.39235
-8.36773
-8.33949
-8.30765
-8.27218
-8.23307
-8.19026
-8.14371
-8.09336
-8.03913
-7.98097
-7.91879
-7.85252
-7.78206
-7.70734
-7.62826
-7.54474
-7.45666
-7.36392
-7.26639
-7.16392
-7.05652
-6.94431
-6.82724
-6.70512
-6.57787
-6.44541
-6.30771
-6.16471
-6.01636
-5.86263
-5.7035
-5.53895
-5.36897
-5.19355
-5.01271
-4.82647
-4.63485
-4.4379
-4.23567
-4.02821
-3.8156
-3.59793
-3.3753
-3.14781
-2.91559
-2.67877
-2.43749
-2.19192
-1.94223
-1.6886
-1.43122
-1.1703
-0.906053
-0.638708
-0.368501
-0.0956796
0.179503
0.456787
0.735902
1.01658
1.29853
1.58148
1.86515
2.14924
2.43344
2.7175
3.00112
3.28401
3.5659
3.84649
4.12553
4.40275
4.67788
4.9507
5.22094
5.4884
5.75284
6.01407
6.27189
6.5261
6.77655
7.02306
7.26549
7.5037
7.73757
7.96697
8.1918
8.41196
8.62736
8.83798
9.04375
9.24456
9.44034
9.6309
9.81596
9.99565
10.1701
10.3396
10.5042
10.6652
10.8224
10.9838
11.1347
-7.51048
-7.51053
-7.51069
-7.51099
-7.51138
-7.51155
-7.5116
-7.51211
-7.5138
-7.51712
-7.52203
-7.52808
-7.53466
-7.54109
-7.54677
-7.55118
-7.55394
-7.55485
-7.55386
-7.55099
-7.54647
-7.54062
-7.53389
-7.52683
-7.52001
-7.51403
-7.50936
-7.50634
-7.50489
-7.50445
-7.50442
-7.5045
-7.50446
-7.50399
-7.50299
-7.50209
-7.50223
-7.50371
-7.50536
-7.50603
-7.50387
-7.49798
-7.4917
-7.49229
-7.49764
-7.50045
-7.5086
-7.52807
-7.55452
-7.58308
-7.61492
-7.65372
-7.70142
-7.75786
-7.82113
-7.88862
-7.9576
-8.02563
-8.09077
-8.15164
-8.20728
-8.25717
-8.30105
-8.33888
-8.37078
-8.39699
-8.41779
-8.43347
-8.44432
-8.4506
-8.45254
-8.45036
-8.44422
-8.43426
-8.42058
-8.40327
-8.38237
-8.35791
-8.32991
-8.29837
-8.26325
-8.22452
-8.18214
-8.13606
-8.08621
-8.03253
-7.97493
-7.91335
-7.8477
-7.7779
-7.70386
-7.6255
-7.54274
-7.45548
-7.36365
-7.26711
-7.16572
-7.05941
-6.94821
-6.83209
-6.71095
-6.58471
-6.45331
-6.31667
-6.17476
-6.02753
-5.87494
-5.71697
-5.55359
-5.3848
-5.21059
-5.03097
-4.84596
-4.65558
-4.45988
-4.2589
-4.0527
-3.84136
-3.62495
-3.40358
-3.17735
-2.94637
-2.71079
-2.47074
-2.22638
-1.97789
-1.72543
-1.4692
-1.20941
-0.946268
-0.679993
-0.410825
-0.139006
0.135213
0.411572
0.689804
0.969637
1.2508
1.533
1.81598
2.09941
2.38302
2.66653
2.94966
3.23212
3.51362
3.79389
4.07265
4.34964
4.62461
4.8973
5.16747
5.43491
5.69937
5.96066
6.21858
6.47294
6.72356
6.97029
7.21296
7.45144
7.68559
7.9153
8.14046
8.36096
8.57671
8.78757
8.99345
9.19436
9.39024
9.58103
9.76671
9.94731
10.1228
10.2934
10.4594
10.6219
10.7802
10.9438
11.089
-7.5116
-7.5113
-7.51086
-7.5108
-7.51209
-7.51565
-7.52149
-7.52901
-7.53743
-7.54618
-7.55483
-7.56303
-7.57043
-7.57669
-7.58155
-7.58483
-7.58638
-7.58614
-7.58402
-7.58
-7.57416
-7.56668
-7.55777
-7.54774
-7.53708
-7.52646
-7.51674
-7.50869
-7.5028
-7.499
-7.49681
-7.49563
-7.49505
-7.49503
-7.49602
-7.49863
-7.50285
-7.50661
-7.50644
-7.50293
-7.50037
-7.49936
-7.49905
-7.50614
-7.52327
-7.54645
-7.57411
-7.60723
-7.64518
-7.68614
-7.72891
-7.77382
-7.82156
-7.87229
-7.92565
-7.98076
-8.03643
-8.09135
-8.1443
-8.19422
-8.2403
-8.282
-8.31899
-8.35113
-8.3784
-8.40087
-8.4187
-8.43204
-8.44108
-8.44598
-8.44689
-8.44395
-8.43729
-8.42699
-8.41313
-8.39576
-8.37492
-8.35061
-8.32284
-8.29158
-8.25681
-8.21849
-8.17656
-8.13097
-8.08165
-8.02854
-7.97154
-7.91059
-7.84561
-7.77649
-7.70316
-7.62553
-7.54351
-7.457
-7.36592
-7.27017
-7.16966
-7.06431
-6.95411
-6.83898
-6.71885
-6.59365
-6.4633
-6.32774
-6.18693
-6.04082
-5.88937
-5.73256
-5.57036
-5.40275
-5.22975
-5.05135
-4.86756
-4.67842
-4.48396
-4.28423
-4.07929
-3.8692
-3.65405
-3.43393
-3.20894
-2.9792
-2.74485
-2.50602
-2.26286
-2.01555
-1.76426
-1.50917
-1.2505
-0.988448
-0.723237
-0.455101
-0.184278
0.0889806
0.364417
0.641767
0.920759
1.20112
1.48258
1.76484
2.04761
2.33062
2.61358
2.89621
3.17821
3.45931
3.73923
4.01769
4.29443
4.5692
4.84175
5.11183
5.3792
5.64366
5.90499
6.16298
6.41745
6.66823
6.91513
7.15801
7.39671
7.63111
7.86108
8.0865
8.30727
8.5233
8.73448
8.94073
9.14201
9.33827
9.5295
9.71577
9.89707
10.0734
10.2448
10.4115
10.5749
10.7331
10.8965
11.033
-7.51398
-7.51332
-7.51276
-7.51433
-7.52016
-7.52987
-7.54162
-7.55384
-7.56569
-7.57662
-7.58631
-7.59458
-7.6014
-7.60673
-7.6105
-7.61266
-7.61311
-7.61181
-7.60864
-7.60357
-7.5966
-7.58779
-7.57722
-7.56505
-7.55154
-7.53712
-7.52248
-7.50853
-7.49635
-7.4868
-7.48014
-7.47625
-7.4753
-7.47767
-7.48301
-7.48878
-7.49342
-7.49775
-7.50117
-7.50272
-7.50721
-7.51764
-7.5337
-7.55633
-7.58607
-7.6212
-7.65914
-7.69858
-7.73891
-7.77994
-7.82192
-7.86527
-7.91026
-7.95679
-8.00445
-8.05256
-8.10032
-8.1469
-8.19149
-8.23341
-8.27213
-8.30725
-8.33849
-8.36571
-8.38886
-8.40792
-8.42296
-8.43405
-8.44128
-8.44475
-8.44456
-8.4408
-8.43352
-8.4228
-8.40867
-8.39116
-8.37028
-8.34604
-8.3184
-8.28735
-8.25285
-8.21485
-8.1733
-8.12812
-8.07926
-8.02663
-7.97016
-7.90976
-7.84535
-7.77684
-7.70414
-7.62717
-7.54582
-7.46002
-7.36966
-7.27467
-7.17495
-7.07044
-6.96109
-6.84682
-6.72756
-6.60324
-6.4738
-6.33916
-6.19928
-6.05412
-5.90364
-5.7478
-5.58659
-5.41999
-5.248
-5.07061
-4.88786
-4.69975
-4.50633
-4.30764
-4.10374
-3.89469
-3.68058
-3.46149
-3.23754
-3.00883
-2.77549
-2.53766
-2.2955
-2.04916
-1.79883
-1.54469
-1.28694
-1.02579
-0.76146
-0.494176
-0.224178
0.0482852
0.322955
0.599571
0.877863
1.15756
1.43838
1.72005
2.00227
2.28477
2.56727
2.84946
3.13107
3.41182
3.69144
3.96964
4.24616
4.52075
4.79316
5.06314
5.33047
5.59491
5.85626
6.11431
6.36887
6.61976
6.86681
7.10986
7.34877
7.58341
7.81363
8.03934
8.26041
8.47676
8.68829
8.89492
9.0966
9.29325
9.48487
9.67147
9.85309
10.0297
10.2014
10.3683
10.5315
10.6887
10.8503
10.9775
-7.51914
-7.51793
-7.51849
-7.52499
-7.53683
-7.55085
-7.5651
-7.57863
-7.59082
-7.60144
-7.61053
-7.61815
-7.62429
-7.62892
-7.63198
-7.63339
-7.63307
-7.63099
-7.62704
-7.62115
-7.6133
-7.60344
-7.59157
-7.57774
-7.56205
-7.54476
-7.5264
-7.50784
-7.49027
-7.47523
-7.46416
-7.4582
-7.45788
-7.46209
-7.46833
-7.47445
-7.48076
-7.48849
-7.49895
-7.51307
-7.53246
-7.55763
-7.58783
-7.62169
-7.65812
-7.69646
-7.73611
-7.77662
-7.81763
-7.85894
-7.9006
-7.94269
-7.9852
-8.02799
-8.07075
-8.11309
-8.15452
-8.19452
-8.23261
-8.26832
-8.30128
-8.3312
-8.35784
-8.38105
-8.40076
-8.41692
-8.42952
-8.4386
-8.44419
-8.44634
-8.44511
-8.44053
-8.43264
-8.42147
-8.40704
-8.38935
-8.3684
-8.34416
-8.31662
-8.28572
-8.25143
-8.2137
-8.17245
-8.12762
-8.07914
-8.02692
-7.97089
-7.91096
-7.84704
-7.77905
-7.70689
-7.63048
-7.54971
-7.46451
-7.37477
-7.28042
-7.18137
-7.07756
-6.9689
-6.85534
-6.7368
-6.6132
-6.48448
-6.35059
-6.21147
-6.06707
-5.91735
-5.7623
-5.60187
-5.43606
-5.26487
-5.08829
-4.90634
-4.71904
-4.52643
-4.32856
-4.12546
-3.91723
-3.70392
-3.48564
-3.26248
-3.03456
-2.802
-2.56495
-2.32355
-2.07797
-1.82838
-1.57497
-1.31793
-1.05747
-0.793818
-0.527191
-0.257831
0.0140134
0.288087
0.564131
0.841875
1.12105
1.40137
1.68256
1.96433
2.24643
2.52854
2.81038
3.09166
3.37212
3.65146
3.92943
4.20576
4.48018
4.75245
5.02232
5.28957
5.55396
5.81529
6.07334
6.32793
6.57888
6.82602
7.06919
7.30824
7.54303
7.77343
7.99933
8.22061
8.43718
8.64895
8.85584
9.05777
9.25467
9.44652
9.63329
9.81502
9.99169
10.1634
10.3301
10.4926
10.6482
10.8078
10.9258
-7.52596
-7.52537
-7.52955
-7.54131
-7.55617
-7.57101
-7.58491
-7.59755
-7.60883
-7.61876
-7.62731
-7.63444
-7.64008
-7.64419
-7.64671
-7.64757
-7.64671
-7.64407
-7.63957
-7.63312
-7.62465
-7.6141
-7.60142
-7.58659
-7.56967
-7.55081
-7.53045
-7.50946
-7.48928
-7.47187
-7.45922
-7.45287
-7.45284
-7.45542
-7.45905
-7.46573
-7.47703
-7.49391
-7.51628
-7.54354
-7.57457
-7.60831
-7.64425
-7.68189
-7.72074
-7.76048
-7.80084
-7.84162
-7.88257
-7.92346
-7.96416
-8.00458
-8.04468
-8.08434
-8.12335
-8.16146
-8.19834
-8.23365
-8.26708
-8.2983
-8.32703
-8.35304
-8.37615
-8.39624
-8.4132
-8.42698
-8.43757
-8.44495
-8.44913
-8.45013
-8.44796
-8.44265
-8.4342
-8.42262
-8.4079
-8.39003
-8.36898
-8.34474
-8.31725
-8.28648
-8.25236
-8.21484
-8.17384
-8.1293
-8.08114
-8.02927
-7.97361
-7.91407
-7.85056
-7.78299
-7.71128
-7.63532
-7.55503
-7.47031
-7.38108
-7.28725
-7.18874
-7.08548
-6.97738
-6.86437
-6.74639
-6.62336
-6.49521
-6.36189
-6.22335
-6.07954
-5.93041
-5.77595
-5.61612
-5.45091
-5.28032
-5.10434
-4.923
-4.7363
-4.5443
-4.34702
-4.14453
-3.9369
-3.72419
-3.5065
-3.28393
-3.05659
-2.82461
-2.58813
-2.34729
-2.10226
-1.85321
-1.60033
-1.34382
-1.08388
-0.820728
-0.554588
-0.285706
-0.0143265
0.2593
0.534912
0.812239
1.09101
1.37095
1.65176
1.93319
2.21496
2.49677
2.77831
3.05932
3.33952
3.61863
3.89639
4.17252
4.44678
4.7189
4.98864
5.25577
5.52008
5.78134
6.03935
6.29392
6.54487
6.79203
7.03523
7.27433
7.50918
7.73967
7.96566
8.18705
8.40373
8.61562
8.82263
9.02468
9.22171
9.41365
9.60048
9.7822
9.95878
10.1302
10.2964
10.4581
10.6118
10.7693
10.8789
-7.53176
-7.53325
-7.54238
-7.55661
-7.57112
-7.58473
-7.59741
-7.60911
-7.61972
-7.62911
-7.63717
-7.64384
-7.64904
-7.65273
-7.65486
-7.65535
-7.65417
-7.65124
-7.64645
-7.63974
-7.63103
-7.62024
-7.60734
-7.5923
-7.57514
-7.55608
-7.53564
-7.51478
-7.49511
-7.47882
-7.46836
-7.46341
-7.46094
-7.46095
-7.46581
-7.47762
-7.49677
-7.52198
-7.55146
-7.58401
-7.61879
-7.65522
-7.69302
-7.73196
-7.77175
-7.81207
-7.85261
-7.89315
-7.93349
-7.97348
-8.01299
-8.05193
-8.09019
-8.12762
-8.16405
-8.19926
-8.23303
-8.26514
-8.29532
-8.32335
-8.34904
-8.3722
-8.39269
-8.41041
-8.42527
-8.43722
-8.44622
-8.45225
-8.45531
-8.45538
-8.45246
-8.44655
-8.43764
-8.42571
-8.41075
-8.39273
-8.37162
-8.34736
-8.31993
-8.28926
-8.25528
-8.21794
-8.17715
-8.13284
-8.08494
-8.03335
-7.97798
-7.91876
-7.85558
-7.78835
-7.71699
-7.64139
-7.56147
-7.47714
-7.38831
-7.29488
-7.19678
-7.09393
-6.98625
-6.87366
-6.75609
-6.63348
-6.50575
-6.37285
-6.23473
-6.09134
-5.94264
-5.7886
-5.6292
-5.46442
-5.29425
-5.11869
-4.93777
-4.7515
-4.55991
-4.36306
-4.16099
-3.95376
-3.74147
-3.52419
-3.30202
-3.07509
-2.8435
-2.60741
-2.36697
-2.12232
-1.87365
-1.62114
-1.365
-1.10542
-0.842616
-0.576826
-0.308287
-0.0372404
0.236062
0.511356
0.788375
1.06685
1.34649
1.62703
1.9082
2.18971
2.47126
2.75256
3.03334
3.31333
3.59223
3.86979
4.14574
4.41982
4.69178
4.96138
5.22839
5.49258
5.75374
6.01167
6.26617
6.51706
6.76418
7.00735
7.24643
7.48128
7.71177
7.93778
8.1592
8.37592
8.58785
8.7949
8.99699
9.19405
9.38599
9.57279
9.7544
9.93076
10.1019
10.2674
10.4279
10.5797
10.7354
10.8373
-7.53501
-7.53938
-7.55149
-7.56517
-7.57813
-7.59051
-7.60231
-7.61337
-7.62345
-7.63238
-7.64004
-7.64635
-7.65128
-7.65475
-7.65672
-7.65714
-7.65592
-7.65297
-7.64823
-7.6416
-7.63303
-7.62246
-7.60989
-7.59536
-7.57906
-7.56131
-7.5427
-7.52446
-7.50864
-7.49666
-7.48783
-7.48096
-7.47706
-7.47902
-7.48879
-7.50595
-7.52888
-7.55623
-7.58692
-7.62024
-7.65565
-7.69274
-7.73113
-7.77047
-7.81041
-7.85066
-7.89096
-7.9311
-7.97091
-8.01023
-8.04893
-8.08686
-8.12387
-8.15981
-8.19451
-8.22781
-8.25953
-8.28948
-8.31747
-8.34334
-8.36693
-8.38811
-8.40677
-8.42282
-8.43619
-8.44682
-8.45468
-8.45974
-8.46197
-8.46136
-8.45789
-8.45155
-8.44231
-8.43015
-8.41503
-8.39692
-8.37576
-8.35153
-8.32415
-8.29357
-8.25972
-8.22252
-8.18191
-8.13779
-8.09009
-8.03872
-7.98359
-7.92461
-7.86168
-7.79471
-7.72361
-7.64829
-7.56865
-7.4846
-7.39605
-7.30291
-7.2051
-7.10253
-6.99514
-6.88283
-6.76555
-6.64321
-6.51577
-6.38315
-6.2453
-6.10219
-5.95376
-5.8
-5.64086
-5.47635
-5.30645
-5.13116
-4.95051
-4.7645
-4.57318
-4.37658
-4.17476
-3.9678
-3.75575
-3.53872
-3.31681
-3.09012
-2.85878
-2.62293
-2.38272
-2.13832
-1.88988
-1.63761
-1.3817
-1.12235
-0.859776
-0.594217
-0.325906
-0.0550832
0.217996
0.493069
0.769868
1.04812
1.32754
1.60787
1.88883
2.17014
2.45148
2.73258
3.01316
3.29294
3.57165
3.84903
4.1248
4.3987
4.6705
4.93994
5.2068
5.47085
5.73188
5.98968
6.24407
6.49485
6.74187
6.98495
7.22396
7.45875
7.68918
7.91515
8.13654
8.35323
8.56514
8.77217
8.97423
9.17124
9.36312
9.5498
9.73122
9.90727
10.0779
10.2426
10.402
10.5519
10.7057
10.801
-7.53376
-7.54051
-7.55251
-7.56458
-7.57636
-7.58795
-7.5992
-7.60986
-7.61967
-7.62845
-7.63605
-7.64239
-7.64737
-7.65094
-7.65302
-7.65357
-7.65249
-7.64972
-7.6452
-7.63889
-7.63076
-7.62083
-7.60917
-7.59592
-7.58131
-7.56581
-7.55035
-7.53617
-7.52387
-7.513
-7.50349
-7.49698
-7.49595
-7.50191
-7.51448
-7.53264
-7.55557
-7.58255
-7.61294
-7.64612
-7.68154
-7.71869
-7.75711
-7.79641
-7.83626
-7.87637
-7.91651
-7.95646
-7.99602
-8.03504
-8.07331
-8.11066
-8.14695
-8.18201
-8.21571
-8.24787
-8.27835
-8.30699
-8.33364
-8.35817
-8.38045
-8.40039
-8.4179
-8.43289
-8.44531
-8.45511
-8.46225
-8.4667
-8.46842
-8.46739
-8.46359
-8.45699
-8.44756
-8.43527
-8.42008
-8.40194
-8.38081
-8.35662
-8.32932
-8.29884
-8.26511
-8.22805
-8.18758
-8.14363
-8.09609
-8.04489
-7.98993
-7.93112
-7.86837
-7.80158
-7.73066
-7.65552
-7.57605
-7.49218
-7.40381
-7.31085
-7.21321
-7.11082
-7.00359
-6.89145
-6.77433
-6.65216
-6.52487
-6.3924
-6.2547
-6.11173
-5.96345
-5.80982
-5.65083
-5.48645
-5.31668
-5.14153
-4.961
-4.77512
-4.58392
-4.38745
-4.18575
-3.97891
-3.76698
-3.55007
-3.32827
-3.1017
-2.87048
-2.63475
-2.39467
-2.15038
-1.90207
-1.64992
-1.39413
-1.1349
-0.872467
-0.607043
-0.338867
-0.0681833
0.204752
0.479677
0.756322
1.03441
1.31367
1.59384
1.87463
2.15576
2.43692
2.71784
2.99825
3.27785
3.55638
3.83357
4.10916
4.38289
4.6545
4.92376
5.19045
5.45432
5.71518
5.97282
6.22704
6.47768
6.72455
6.9675
7.20638
7.44105
7.67138
7.89724
8.11853
8.33514
8.54697
8.75392
8.95589
9.15279
9.34454
9.53103
9.71218
9.88783
10.0579
10.2218
10.3799
10.528
10.6802
10.7697
-7.52398
-7.53169
-7.54248
-7.55369
-7.56507
-7.57645
-7.58769
-7.5985
-7.60859
-7.6177
-7.62566
-7.63237
-7.63772
-7.64165
-7.6441
-7.64499
-7.64426
-7.64187
-7.6378
-7.63204
-7.62459
-7.61549
-7.60487
-7.59297
-7.58024
-7.56731
-7.55471
-7.54247
-7.53052
-7.51954
-7.51124
-7.50747
-7.50914
-7.51636
-7.52907
-7.54693
-7.56954
-7.59629
-7.62655
-7.65967
-7.69504
-7.73216
-7.77057
-7.8099
-7.8498
-7.89
-7.93023
-7.97027
-8.0099
-8.04892
-8.0871
-8.1243
-8.16035
-8.19508
-8.22835
-8.26001
-8.28991
-8.31792
-8.34392
-8.3678
-8.38944
-8.40876
-8.42568
-8.44014
-8.45208
-8.46147
-8.46826
-8.47242
-8.47393
-8.47274
-8.46884
-8.46218
-8.45272
-8.44044
-8.42528
-8.40721
-8.38615
-8.36205
-8.33486
-8.30448
-8.27086
-8.23392
-8.19357
-8.14972
-8.1023
-8.05122
-7.99637
-7.93766
-7.87502
-7.80833
-7.7375
-7.66245
-7.58307
-7.49928
-7.41099
-7.31811
-7.22055
-7.11823
-7.01106
-6.89899
-6.78192
-6.65979
-6.53255
-6.40012
-6.26247
-6.11953
-5.97128
-5.81768
-5.65871
-5.49436
-5.32461
-5.14947
-4.96896
-4.7831
-4.59191
-4.39545
-4.19377
-3.98694
-3.77503
-3.55814
-3.33636
-3.10981
-2.87861
-2.64291
-2.40285
-2.15859
-1.91032
-1.65821
-1.40247
-1.14331
-0.880933
-0.615579
-0.347482
-0.0768844
0.195956
0.470778
0.747313
1.02529
1.30442
1.58446
1.86512
2.14609
2.42709
2.70785
2.98808
3.2675
3.54585
3.82285
4.09824
4.37177
4.64318
4.91225
5.17872
5.4424
5.70306
5.9605
6.21453
6.46497
6.71166
6.95443
7.19314
7.42765
7.65782
7.88354
8.10469
8.32116
8.53286
8.73967
8.9415
9.13824
9.32979
9.51604
9.69686
9.87206
10.0414
10.2044
10.3614
10.5076
10.6582
10.743
-7.50185
-7.50936
-7.51998
-7.53183
-7.54378
-7.55566
-7.56753
-7.57914
-7.59014
-7.60021
-7.60912
-7.6167
-7.62285
-7.6275
-7.63057
-7.63201
-7.63176
-7.62979
-7.6261
-7.62071
-7.61369
-7.60514
-7.59539
-7.58475
-7.57339
-7.56135
-7.54872
-7.53593
-7.52387
-7.51396
-7.5074
-7.50496
-7.50726
-7.51491
-7.52806
-7.54642
-7.56948
-7.59662
-7.62716
-7.66051
-7.69609
-7.73343
-7.77209
-7.8117
-7.85193
-7.89247
-7.93307
-7.97347
-8.01344
-8.05274
-8.0912
-8.12863
-8.16487
-8.19974
-8.23308
-8.26475
-8.29461
-8.32253
-8.34842
-8.37216
-8.39367
-8.41287
-8.4297
-8.44409
-8.45599
-8.46536
-8.47217
-8.47638
-8.47796
-8.47686
-8.47306
-8.46652
-8.45719
-8.44503
-8.43001
-8.41205
-8.39111
-8.36713
-8.34004
-8.30976
-8.27623
-8.23937
-8.1991
-8.15533
-8.10797
-8.05693
-8.00213
-7.94346
-7.88085
-7.81418
-7.74337
-7.66833
-7.58896
-7.50518
-7.41688
-7.32398
-7.22641
-7.12406
-7.01687
-6.90476
-6.78766
-6.66549
-6.5382
-6.40572
-6.26801
-6.12502
-5.97671
-5.82305
-5.66401
-5.49959
-5.32978
-5.15457
-4.97399
-4.78806
-4.59681
-4.40028
-4.19854
-3.99164
-3.77968
-3.56273
-3.3409
-3.11431
-2.88307
-2.64733
-2.40724
-2.16297
-1.91469
-1.66258
-1.40684
-1.14769
-0.885337
-0.620016
-0.351961
-0.0814184
0.191356
0.466099
0.742543
1.02041
1.29944
1.57937
1.85988
2.1407
2.42153
2.70211
2.98216
3.26139
3.53954
3.81633
4.09151
4.36481
4.636
4.90483
5.17108
5.43452
5.69494
5.95215
6.20595
6.45617
6.70264
6.9452
7.1837
7.418
7.64798
7.87352
8.09449
8.31079
8.52231
8.72895
8.9306
9.12714
9.31846
9.50442
9.68486
9.85955
10.0283
10.1903
10.3461
10.4906
10.6396
10.7205
-7.46509
-7.47251
-7.48475
-7.49858
-7.51193
-7.52504
-7.53834
-7.5516
-7.56432
-7.57606
-7.58652
-7.59547
-7.60278
-7.60839
-7.61219
-7.61413
-7.61419
-7.61239
-7.60879
-7.6035
-7.59661
-7.58821
-7.57838
-7.56715
-7.55463
-7.54114
-7.52728
-7.51397
-7.50216
-7.49274
-7.48666
-7.48495
-7.48849
-7.49769
-7.51239
-7.53211
-7.55627
-7.58428
-7.61552
-7.64946
-7.68558
-7.72343
-7.76262
-7.80277
-7.84358
-7.88473
-7.92596
-7.96698
-8.00754
-8.04743
-8.08645
-8.12442
-8.16115
-8.19648
-8.23026
-8.26235
-8.29261
-8.32091
-8.34715
-8.37123
-8.39307
-8.41261
-8.42978
-8.44452
-8.45676
-8.46647
-8.4736
-8.47811
-8.47998
-8.47916
-8.47561
-8.4693
-8.46019
-8.44824
-8.43339
-8.41559
-8.39479
-8.37093
-8.34394
-8.31376
-8.2803
-8.24349
-8.20326
-8.15951
-8.11216
-8.06112
-8.0063
-7.94761
-7.88496
-7.81825
-7.74739
-7.67228
-7.59285
-7.50898
-7.42061
-7.32762
-7.22995
-7.12751
-7.02022
-6.908
-6.79078
-6.6685
-6.54109
-6.40849
-6.27065
-6.12753
-5.9791
-5.82531
-5.66615
-5.5016
-5.33166
-5.15632
-4.97562
-4.78957
-4.5982
-4.40156
-4.1997
-3.9927
-3.78064
-3.56359
-3.34167
-3.11499
-2.88368
-2.64787
-2.40773
-2.16341
-1.91509
-1.66297
-1.40722
-1.14806
-0.885721
-0.620427
-0.352414
-0.0819268
0.190777
0.465434
0.741776
1.01953
1.29845
1.57824
1.85859
2.13922
2.41987
2.70026
2.98009
3.2591
3.53702
3.81357
4.0885
4.36155
4.63248
4.90105
5.16702
5.43019
5.69035
5.94729
6.20082
6.45078
6.69699
6.9393
7.17756
7.41163
7.64139
7.8667
8.08747
8.30357
8.51489
8.72132
8.92276
9.11907
9.31012
9.49576
9.67579
9.84995
10.018
10.1791
10.3336
10.4766
10.624
10.7019
-7.41361
-7.4223
-7.43766
-7.45443
-7.46966
-7.48443
-7.49974
-7.5153
-7.53037
-7.54434
-7.55684
-7.5676
-7.57642
-7.58317
-7.58777
-7.59019
-7.59045
-7.58857
-7.58459
-7.57852
-7.57038
-7.56027
-7.54833
-7.5348
-7.52013
-7.50493
-7.48994
-7.47596
-7.46389
-7.45483
-7.45005
-7.45048
-7.45654
-7.46813
-7.48488
-7.50629
-7.53182
-7.56095
-7.59316
-7.62796
-7.66489
-7.70352
-7.74345
-7.78435
-7.82591
-7.86781
-7.90978
-7.95154
-7.99288
-8.03357
-8.0734
-8.11217
-8.1497
-8.18581
-8.22037
-8.25324
-8.28428
-8.31336
-8.34036
-8.3652
-8.38776
-8.40799
-8.42581
-8.44116
-8.45398
-8.46423
-8.47187
-8.47686
-8.47915
-8.47872
-8.47554
-8.46956
-8.46073
-8.44903
-8.4344
-8.41679
-8.39615
-8.37241
-8.34552
-8.31541
-8.28199
-8.24521
-8.20497
-8.1612
-8.11381
-8.06272
-8.00783
-7.94906
-7.88631
-7.81949
-7.74852
-7.6733
-7.59373
-7.50973
-7.42121
-7.32808
-7.23026
-7.12766
-7.0202
-6.90782
-6.79043
-6.66798
-6.5404
-6.40763
-6.26962
-6.12633
-5.97772
-5.82376
-5.66443
-5.49972
-5.32961
-5.15412
-4.97326
-4.78706
-4.59555
-4.39877
-4.19678
-3.98965
-3.77747
-3.56032
-3.3383
-3.11154
-2.88015
-2.64428
-2.40409
-2.15974
-1.9114
-1.65926
-1.40351
-1.14438
-0.882073
-0.616831
-0.348886
-0.0784828
0.194118
0.468653
0.74486
1.02248
1.30125
1.58085
1.86098
2.1414
2.42182
2.70196
2.98155
3.2603
3.53794
3.8142
4.08884
4.36159
4.63221
4.90047
5.16614
5.429
5.68884
5.94547
6.1987
6.44836
6.69428
6.93631
7.1743
7.40811
7.63761
7.86269
8.08322
8.29909
8.51019
8.71641
8.91761
9.11367
9.30443
9.48972
9.66932
9.84293
10.0102
10.1704
10.3238
10.4653
10.6111
10.6868
-7.35135
-7.3625
-7.38199
-7.40211
-7.41915
-7.43556
-7.4531
-7.47132
-7.48917
-7.50584
-7.5208
-7.53363
-7.54409
-7.55198
-7.55721
-7.5597
-7.55945
-7.55648
-7.55083
-7.54261
-7.53197
-7.51914
-7.50448
-7.48847
-7.47166
-7.45474
-7.43856
-7.42421
-7.41289
-7.40579
-7.40378
-7.40721
-7.41605
-7.43005
-7.4488
-7.47184
-7.49872
-7.52899
-7.56218
-7.59787
-7.63561
-7.67502
-7.71576
-7.75748
-7.79985
-7.84257
-7.88538
-7.92803
-7.9703
-8.01198
-8.05282
-8.09264
-8.13125
-8.16846
-8.20412
-8.23805
-8.27013
-8.30022
-8.32821
-8.354
-8.37748
-8.39857
-8.4172
-8.43332
-8.44687
-8.4578
-8.46607
-8.47164
-8.47447
-8.47452
-8.47177
-8.46616
-8.45767
-8.44625
-8.43186
-8.41445
-8.39396
-8.37033
-8.34352
-8.31345
-8.28005
-8.24325
-8.20298
-8.15915
-8.11168
-8.06048
-8.00548
-7.94658
-7.88369
-7.81672
-7.74559
-7.6702
-7.59046
-7.50627
-7.41757
-7.32424
-7.22623
-7.12343
-7.01577
-6.90319
-6.78561
-6.66296
-6.53518
-6.40221
-6.26401
-6.12052
-5.97172
-5.81758
-5.65808
-5.49319
-5.32292
-5.14726
-4.96625
-4.77991
-4.58826
-4.39136
-4.18924
-3.98201
-3.76974
-3.55251
-3.33041
-3.10359
-2.87217
-2.63627
-2.39607
-2.15172
-1.9034
-1.65129
-1.3956
-1.13654
-0.874324
-0.609186
-0.341365
-0.0711036
0.201333
0.475687
0.751711
1.02914
1.30767
1.58701
1.86688
2.14702
2.42715
2.70699
2.98626
3.26468
3.54199
3.81791
4.0922
4.36459
4.63486
4.90276
5.16806
5.43056
5.69005
5.94633
6.19922
6.44855
6.69414
6.93585
7.17354
7.40706
7.63629
7.86111
8.08139
8.29703
8.50789
8.71387
8.91483
9.11062
9.30109
9.48602
9.66518
9.83823
10.0048
10.1641
10.3163
10.4565
10.6006
10.6749
-7.2873
-7.30116
-7.32519
-7.34864
-7.36714
-7.38476
-7.40419
-7.42493
-7.44561
-7.46503
-7.48236
-7.49709
-7.50884
-7.51735
-7.52247
-7.52415
-7.52242
-7.51737
-7.50917
-7.49807
-7.48441
-7.46861
-7.45117
-7.4327
-7.41399
-7.39601
-7.37991
-7.36686
-7.35786
-7.35359
-7.35441
-7.3604
-7.37141
-7.38718
-7.40737
-7.43162
-7.45952
-7.49067
-7.52463
-7.561
-7.59939
-7.63948
-7.68093
-7.72341
-7.7666
-7.81019
-7.85394
-7.89758
-7.9409
-7.98366
-8.02563
-8.06661
-8.10639
-8.14477
-8.18159
-8.21668
-8.24988
-8.28107
-8.31012
-8.33693
-8.36141
-8.38346
-8.40301
-8.41999
-8.43435
-8.44603
-8.455
-8.46121
-8.46461
-8.46518
-8.46289
-8.45768
-8.44954
-8.43841
-8.42425
-8.40703
-8.38668
-8.36316
-8.33641
-8.30636
-8.27296
-8.23612
-8.19578
-8.15186
-8.10428
-8.05296
-7.99782
-7.93876
-7.87571
-7.80857
-7.73725
-7.66167
-7.58173
-7.49735
-7.40843
-7.31491
-7.21668
-7.11368
-7.00582
-6.89303
-6.77524