/*--------------------------------*- C++ -*----------------------------------*\
| =========                 |                                                 |
| \\      /  F ield         | OpenFOAM: The Open Source CFD Toolbox           |
|  \\    /   O peration     | Version:  v2012                                 |
|   \\  /    A nd           | Website:  www.openfoam.com                      |
|    \\/     M anipulation  |                                                 |
\*---------------------------------------------------------------------------*/
FoamFile
{
    version     2.0;
    format      ascii;
    class       surfaceScalarField;
    location    "379";
    object      phi;
}
// * * * * * * * * * * * * * * * * * * * * * * * * * * * * * * * * * * * * * //

dimensions      [0 3 -1 0 0 0 0];
oriented        oriented;


internalField   nonuniform List<scalar> 
24170
(
3.05606e-06
7.7834e-08
2.94982e-06
1.06242e-07
2.85168e-06
9.81389e-08
2.75794e-06
9.37406e-08
2.66868e-06
8.92633e-08
2.5873e-06
8.13835e-08
2.51514e-06
7.21587e-08
2.45178e-06
6.33583e-08
2.3963e-06
5.54787e-08
2.34778e-06
4.8524e-08
2.30539e-06
4.23825e-08
2.26844e-06
3.69546e-08
2.23634e-06
3.2095e-08
2.20868e-06
2.76631e-08
2.18527e-06
2.34072e-08
2.16629e-06
1.89856e-08
2.15205e-06
1.42386e-08
3.613e-09
2.14843e-06
3.51153e-06
2.27495e-08
3.52862e-06
8.91578e-08
3.53304e-06
9.37143e-08
3.53008e-06
9.67067e-08
3.52134e-06
9.80046e-08
3.50802e-06
9.46995e-08
3.49114e-06
8.90424e-08
3.47169e-06
8.28041e-08
3.45059e-06
7.65806e-08
3.42862e-06
7.04938e-08
3.40639e-06
6.462e-08
3.38434e-06
5.89964e-08
3.36283e-06
5.36052e-08
3.34213e-06
4.83625e-08
3.32244e-06
4.31003e-08
3.30398e-06
3.74429e-08
3.2872e-06
3.10189e-08
2.07213e-08
3.27009e-06
3.81843e-06
1.65143e-08
3.83283e-06
7.4761e-08
3.84366e-06
8.28782e-08
3.85399e-06
8.63791e-08
3.86289e-06
8.91072e-08
3.8694e-06
8.81837e-08
3.87363e-06
8.48117e-08
3.87589e-06
8.05503e-08
3.8765e-06
7.59667e-08
3.87577e-06
7.12294e-08
3.87396e-06
6.64268e-08
3.87132e-06
6.16379e-08
3.86806e-06
5.68657e-08
3.86437e-06
5.20493e-08
3.86042e-06
4.70511e-08
3.85634e-06
4.15255e-08
3.85211e-06
3.52408e-08
2.70504e-08
3.84578e-06
4.20389e-06
1.71864e-08
4.21619e-06
6.2458e-08
4.22515e-06
7.39216e-08
4.23331e-06
7.82168e-08
4.24087e-06
8.15513e-08
4.24729e-06
8.17642e-08
4.25266e-06
7.94401e-08
4.2572e-06
7.60105e-08
4.26104e-06
7.21248e-08
4.26428e-06
6.7992e-08
4.267e-06
6.37055e-08
4.26929e-06
5.93457e-08
4.27124e-06
5.49205e-08
4.2729e-06
5.03812e-08
4.27434e-06
4.56119e-08
4.27549e-06
4.03837e-08
4.27612e-06
3.46026e-08
2.79124e-08
4.27526e-06
4.63788e-06
1.66146e-08
4.64738e-06
5.29595e-08
4.65458e-06
6.67132e-08
4.66114e-06
7.16618e-08
4.66764e-06
7.50538e-08
4.67363e-06
7.57757e-08
4.67899e-06
7.40801e-08
4.68382e-06
7.11804e-08
4.68819e-06
6.77486e-08
4.69218e-06
6.40072e-08
4.69582e-06
6.00587e-08
4.69919e-06
5.59788e-08
4.70232e-06
5.17883e-08
4.70525e-06
4.74531e-08
4.70797e-06
4.2896e-08
4.71036e-06
3.79934e-08
4.71222e-06
3.27339e-08
2.71091e-08
4.71303e-06
5.11618e-06
1.50326e-08
5.12363e-06
4.551e-08
5.13022e-06
6.01215e-08
5.13629e-06
6.55894e-08
5.14246e-06
6.88807e-08
5.14835e-06
6.98934e-08
5.15374e-06
6.86898e-08
5.15868e-06
6.62323e-08
5.16326e-06
6.31747e-08
5.16751e-06
5.97534e-08
5.17149e-06
5.60825e-08
5.17523e-06
5.22377e-08
5.17876e-06
4.82555e-08
5.18209e-06
4.41213e-08
5.18519e-06
3.98002e-08
5.18794e-06
3.52434e-08
5.19018e-06
3.04935e-08
2.56624e-08
5.19163e-06
5.6427e-06
1.33402e-08
5.64903e-06
3.91786e-08
5.65559e-06
5.35564e-08
5.66164e-06
5.95477e-08
5.66771e-06
6.28118e-08
5.67357e-06
6.40271e-08
5.67903e-06
6.3228e-08
5.68411e-06
6.11545e-08
5.68886e-06
5.84226e-08
5.69333e-06
5.52868e-08
5.69754e-06
5.18705e-08
5.70153e-06
4.82528e-08
5.7053e-06
4.44846e-08
5.70884e-06
4.05736e-08
5.71212e-06
3.652e-08
5.71504e-06
3.23252e-08
5.71748e-06
2.80595e-08
2.38573e-08
5.71928e-06
4.40731e-06
1.21444e-08
4.41135e-06
3.51382e-08
4.41603e-06
4.88715e-08
4.42044e-06
5.51346e-08
4.4248e-06
5.84583e-08
4.42905e-06
5.97775e-08
4.43307e-06
5.92094e-08
4.43683e-06
5.73878e-08
4.44038e-06
5.48788e-08
4.44372e-06
5.1941e-08
4.44689e-06
4.87052e-08
4.44988e-06
4.52566e-08
4.45271e-06
4.16541e-08
4.45537e-06
3.79211e-08
4.45781e-06
3.40771e-08
4.45999e-06
3.01478e-08
4.46183e-06
2.62105e-08
2.23922e-08
4.4633e-06
5.1411e-06
1.08978e-08
5.14516e-06
3.1081e-08
5.15008e-06
4.3951e-08
5.15487e-06
5.03474e-08
5.15962e-06
5.37033e-08
5.16429e-06
5.51048e-08
5.16875e-06
5.47558e-08
5.17295e-06
5.31868e-08
5.17692e-06
5.09086e-08
5.18068e-06
4.81829e-08
5.18424e-06
4.51459e-08
5.1876e-06
4.18896e-08
5.19078e-06
3.84804e-08
5.19374e-06
3.4957e-08
5.19646e-06
3.13543e-08
5.1989e-06
2.77152e-08
5.20099e-06
2.41152e-08
2.06661e-08
5.20272e-06
5.99709e-06
9.598e-09
6.00111e-06
2.70643e-08
6.0062e-06
3.88624e-08
6.01134e-06
4.5204e-08
6.0165e-06
4.85384e-08
6.02162e-06
4.99874e-08
6.02654e-06
4.98361e-08
6.03121e-06
4.85171e-08
6.03564e-06
4.64782e-08
6.03984e-06
4.39802e-08
6.04382e-06
4.11645e-08
6.04759e-06
3.81281e-08
6.05112e-06
3.49443e-08
6.05441e-06
3.16647e-08
6.05743e-06
2.83353e-08
6.06014e-06
2.50082e-08
6.0625e-06
2.1752e-08
1.86589e-08
6.06451e-06
6.9956e-06
8.26299e-09
6.99953e-06
2.31389e-08
7.00472e-06
3.36646e-08
7.01019e-06
3.97343e-08
7.01575e-06
4.29772e-08
7.02131e-06
4.44273e-08
7.02671e-06
4.44347e-08
7.03188e-06
4.33525e-08
7.0368e-06
4.15587e-08
7.04147e-06
3.93046e-08
7.0459e-06
3.67348e-08
7.05008e-06
3.39493e-08
7.054e-06
3.10262e-08
7.05764e-06
2.80255e-08
7.06097e-06
2.50002e-08
7.06398e-06
2.20045e-08
7.06663e-06
1.90974e-08
1.63522e-08
7.06894e-06
8.16036e-06
6.9212e-09
8.16417e-06
1.93271e-08
8.16941e-06
2.84203e-08
8.17515e-06
3.39915e-08
8.18109e-06
3.7046e-08
8.18707e-06
3.84399e-08
8.19295e-06
3.85527e-08
8.19863e-06
3.76802e-08
8.20405e-06
3.61307e-08
8.20923e-06
3.41338e-08
8.21413e-06
3.18337e-08
8.21875e-06
2.93306e-08
8.22307e-06
2.67033e-08
8.22708e-06
2.40159e-08
8.23075e-06
2.1323e-08
8.23408e-06
1.86763e-08
8.23706e-06
1.61246e-08
1.37251e-08
8.23968e-06
9.51905e-06
5.59636e-09
9.52274e-06
1.56343e-08
9.52798e-06
2.3184e-08
9.53393e-06
2.80401e-08
9.5402e-06
3.0781e-08
9.54659e-06
3.20481e-08
9.55294e-06
3.22039e-08
9.55912e-06
3.15015e-08
9.56506e-06
3.01852e-08
9.57074e-06
2.84536e-08
9.57613e-06
2.64429e-08
9.58121e-06
2.42497e-08
9.58597e-06
2.19499e-08
9.59038e-06
1.9606e-08
9.59443e-06
1.72702e-08
9.59812e-06
1.49888e-08
9.60144e-06
1.28006e-08
1.07501e-08
9.60442e-06
1.1104e-05
4.30285e-09
1.11076e-05
1.20525e-08
1.11128e-05
1.79858e-08
1.11189e-05
2.19376e-08
1.11254e-05
2.42217e-08
1.11322e-05
2.52764e-08
1.1139e-05
2.54069e-08
1.11457e-05
2.48251e-08
1.11521e-05
2.37203e-08
1.11583e-05
2.22538e-08
1.11642e-05
2.05457e-08
1.11698e-05
1.86836e-08
1.1175e-05
1.67364e-08
1.11799e-05
1.47605e-08
1.11843e-05
1.28022e-08
1.11884e-05
1.09003e-08
1.11921e-05
9.08497e-09
7.39079e-09
1.11955e-05
1.29529e-05
3.04262e-09
1.29564e-05
8.55674e-09
1.29615e-05
1.28201e-08
1.29678e-05
1.57123e-08
1.29746e-05
1.73939e-08
1.29817e-05
1.81381e-08
1.2989e-05
1.81699e-08
1.29961e-05
1.76537e-08
1.30031e-05
1.67296e-08
1.30099e-05
1.55193e-08
1.30163e-05
1.41191e-08
1.30224e-05
1.26019e-08
1.30281e-05
1.10253e-08
1.30334e-05
9.4356e-09
1.30384e-05
7.87061e-09
1.30429e-05
6.36088e-09
1.3047e-05
4.92855e-09
3.60012e-09
1.30508e-05
1.51097e-05
1.80234e-09
1.51132e-05
5.09469e-09
1.51183e-05
7.63228e-09
1.51247e-05
9.33514e-09
1.51318e-05
1.02772e-08
1.51394e-05
1.06078e-08
1.51471e-05
1.04655e-08
1.51548e-05
9.95919e-09
1.51623e-05
9.18093e-09
1.51696e-05
8.21179e-09
1.51766e-05
7.11865e-09
1.51833e-05
5.95419e-09
1.51895e-05
4.76018e-09
1.51954e-05
3.57039e-09
1.52009e-05
2.41188e-09
1.52059e-05
1.30613e-09
1.52106e-05
2.6785e-10
-6.83601e-10
1.52149e-05
1.76257e-05
5.50932e-10
1.76292e-05
1.56695e-09
1.76346e-05
2.29006e-09
1.76412e-05
2.67741e-09
1.76488e-05
2.75306e-09
1.76568e-05
2.57183e-09
1.76651e-05
2.18584e-09
1.76734e-05
1.64028e-09
1.76816e-05
9.77492e-10
1.76896e-05
2.36269e-10
1.76972e-05
-5.50183e-10
1.77045e-05
-1.35449e-09
1.77115e-05
-2.15406e-09
1.7718e-05
-2.93028e-09
1.7724e-05
-3.66828e-09
1.77297e-05
-4.35629e-09
1.7735e-05
-4.987e-09
-5.54789e-09
1.77398e-05
1.78274e-05
-6.13613e-10
1.78307e-05
-1.73603e-09
1.78357e-05
-2.74369e-09
1.7842e-05
-3.63757e-09
1.78492e-05
-4.41962e-09
1.78569e-05
-5.11495e-09
1.78648e-05
-5.75567e-09
1.78728e-05
-6.35839e-09
1.78807e-05
-6.92765e-09
1.78884e-05
-7.46494e-09
1.78958e-05
-7.97066e-09
1.79029e-05
-8.44283e-09
1.79097e-05
-8.87796e-09
1.7916e-05
-9.27221e-09
1.79219e-05
-9.62229e-09
1.79275e-05
-9.92538e-09
1.79327e-05
-1.01806e-08
-1.03812e-08
1.79375e-05
1.58824e-05
-1.64483e-09
1.58853e-05
-4.65985e-09
1.58898e-05
-7.21854e-09
1.58954e-05
-9.24954e-09
1.59017e-05
-1.07662e-08
1.59085e-05
-1.18886e-08
1.59155e-05
-1.27362e-08
1.59225e-05
-1.33765e-08
1.59294e-05
-1.38525e-08
1.59362e-05
-1.42031e-08
1.59426e-05
-1.44593e-08
1.59488e-05
-1.46411e-08
1.59547e-05
-1.47611e-08
1.59603e-05
-1.48278e-08
1.59655e-05
-1.48474e-08
1.59704e-05
-1.48242e-08
1.5975e-05
-1.47623e-08
-1.4659e-08
1.59793e-05
1.41496e-05
-2.60164e-09
1.41523e-05
-7.38798e-09
1.41566e-05
-1.14298e-08
1.41618e-05
-1.44981e-08
1.41677e-05
-1.66228e-08
1.41739e-05
-1.80753e-08
1.41802e-05
-1.90699e-08
1.41865e-05
-1.97091e-08
1.41927e-05
-2.00706e-08
1.41988e-05
-2.02308e-08
1.42046e-05
-2.02483e-08
1.42101e-05
-2.01605e-08
1.42153e-05
-1.99932e-08
1.42202e-05
-1.97656e-08
1.42249e-05
-1.94916e-08
1.42292e-05
-1.9181e-08
1.42333e-05
-1.88411e-08
-1.84728e-08
1.42371e-05
1.26059e-05
-3.49152e-09
1.26086e-05
-1.00265e-08
1.26127e-05
-1.55785e-08
1.26178e-05
-1.95812e-08
1.26233e-05
-2.21708e-08
1.26291e-05
-2.38643e-08
1.2635e-05
-2.4946e-08
1.26408e-05
-2.55314e-08
1.26465e-05
-2.57423e-08
1.2652e-05
-2.56975e-08
1.26572e-05
-2.54768e-08
1.26622e-05
-2.51296e-08
1.26669e-05
-2.46924e-08
1.26713e-05
-2.41932e-08
1.26754e-05
-2.3652e-08
1.26793e-05
-2.30825e-08
1.2683e-05
-2.24948e-08
-2.18918e-08
1.26864e-05
1.12306e-05
-4.24989e-09
1.12332e-05
-1.26451e-08
1.12374e-05
-1.98471e-08
1.12425e-05
-2.46068e-08
1.12478e-05
-2.74816e-08
1.12533e-05
-2.9348e-08
1.12588e-05
-3.04655e-08
1.12642e-05
-3.09419e-08
1.12694e-05
-3.09649e-08
1.12744e-05
-3.06981e-08
1.12792e-05
-3.02346e-08
1.12837e-05
-2.96324e-08
1.12879e-05
-2.89369e-08
1.12919e-05
-2.81834e-08
1.12957e-05
-2.73959e-08
1.12992e-05
-2.65905e-08
1.13025e-05
-2.57784e-08
-2.49626e-08
1.13055e-05
1.00051e-05
-4.73976e-09
1.00077e-05
-1.52748e-08
1.00123e-05
-2.43935e-08
1.00173e-05
-2.96302e-08
1.00224e-05
-3.26003e-08
1.00277e-05
-3.45733e-08
1.00328e-05
-3.56591e-08
1.00379e-05
-3.59742e-08
1.00427e-05
-3.57897e-08
1.00473e-05
-3.52984e-08
1.00517e-05
-3.45957e-08
1.00558e-05
-3.37467e-08
1.00596e-05
-3.28058e-08
1.00633e-05
-3.18145e-08
1.00667e-05
-3.07995e-08
1.00699e-05
-2.97788e-08
1.00729e-05
-2.87649e-08
-2.77627e-08
1.00757e-05
8.91318e-06
-4.81742e-09
8.91593e-06
-1.80268e-08
8.9207e-06
-2.91644e-08
8.92562e-06
-3.45542e-08
8.93061e-06
-3.75895e-08
8.93568e-06
-3.96353e-08
8.94061e-06
-4.0593e-08
8.94533e-06
-4.06908e-08
8.94983e-06
-4.02895e-08
8.95411e-06
-3.95808e-08
8.95816e-06
-3.86497e-08
8.96198e-06
-3.75672e-08
8.96557e-06
-3.63955e-08
8.96894e-06
-3.5181e-08
8.97209e-06
-3.39534e-08
8.97505e-06
-3.27317e-08
8.97781e-06
-3.1527e-08
-3.03369e-08
8.98038e-06
7.93984e-06
-3.99211e-09
7.9434e-06
-2.15822e-08
7.94814e-06
-3.39048e-08
7.95267e-06
-3.90834e-08
7.95754e-06
-4.24647e-08
7.96259e-06
-4.46813e-08
7.96747e-06
-4.54768e-08
7.97211e-06
-4.53298e-08
7.97652e-06
-4.46941e-08
7.98068e-06
-4.37488e-08
7.98461e-06
-4.25728e-08
7.98829e-06
-4.12444e-08
7.99172e-06
-3.98327e-08
7.99493e-06
-3.83884e-08
7.99792e-06
-3.69436e-08
8.00071e-06
-3.55199e-08
8.00332e-06
-3.41338e-08
-3.27891e-08
8.00577e-06
7.07045e-06
-1.14781e-10
7.07632e-06
-2.74465e-08
7.08155e-06
-3.91405e-08
7.08615e-06
-4.36828e-08
7.09124e-06
-4.75537e-08
7.09647e-06
-4.99073e-08
7.1015e-06
-5.05081e-08
7.10628e-06
-5.01158e-08
7.11082e-06
-4.92271e-08
7.11507e-06
-4.80017e-08
7.11903e-06
-4.6532e-08
7.12269e-06
-4.49102e-08
7.12608e-06
-4.32166e-08
7.12919e-06
-4.15047e-08
7.13206e-06
-3.98116e-08
7.1347e-06
-3.81596e-08
7.13713e-06
-3.65609e-08
-3.49819e-08
7.13932e-06
6.29309e-06
9.30855e-09
6.30187e-06
-3.62298e-08
6.30928e-06
-4.65482e-08
6.31609e-06
-5.04919e-08
6.32287e-06
-5.43393e-08
6.32909e-06
-5.61287e-08
6.33468e-06
-5.60921e-08
6.33979e-06
-5.52277e-08
6.3445e-06
-5.39418e-08
6.34882e-06
-5.23205e-08
6.35274e-06
-5.04547e-08
6.35628e-06
-4.84466e-08
6.35945e-06
-4.63876e-08
6.36228e-06
-4.43333e-08
6.3648e-06
-4.23266e-08
6.36703e-06
-4.0396e-08
6.36904e-06
-3.85674e-08
-3.68437e-08
6.3709e-06
5.60831e-06
1.5896e-08
5.61688e-06
-4.47984e-08
5.62546e-06
-5.51303e-08
5.63531e-06
-6.03409e-08
5.64542e-06
-6.44532e-08
5.65443e-06
-6.51352e-08
5.66202e-06
-6.36815e-08
5.66834e-06
-6.1553e-08
5.67356e-06
-5.91557e-08
5.67778e-06
-5.65461e-08
5.68112e-06
-5.3794e-08
5.68367e-06
-5.09968e-08
5.68552e-06
-4.82395e-08
5.68676e-06
-4.55731e-08
5.68747e-06
-4.3031e-08
5.68773e-06
-4.06622e-08
5.68764e-06
-3.84719e-08
-3.64872e-08
5.68728e-06
5.04221e-06
-2.40103e-08
5.05516e-06
-5.77497e-08
5.06424e-06
-6.42098e-08
5.07139e-06
-6.74947e-08
5.07706e-06
-7.01165e-08
5.08061e-06
-6.86945e-08
5.08171e-06
-6.4782e-08
5.08027e-06
-6.01063e-08
5.07649e-06
-5.53776e-08
5.07073e-06
-5.07883e-08
5.06338e-06
-4.64455e-08
5.05479e-06
-4.24052e-08
5.04527e-06
-3.87173e-08
5.03507e-06
-3.53788e-08
5.02442e-06
-3.23811e-08
5.01351e-06
-2.9753e-08
5.00257e-06
-2.75329e-08
-2.62008e-08
4.99229e-06
4.43254e-06
4.37479e-06
4.31058e-06
4.24308e-06
4.17297e-06
4.10427e-06
4.03949e-06
3.97938e-06
3.92401e-06
3.87322e-06
3.82677e-06
3.78437e-06
3.74565e-06
3.71027e-06
3.67789e-06
3.64814e-06
3.6206e-06
3.5944e-06
-9.95804e-09
9.95763e-09
-2.70128e-08
1.70539e-08
-4.64022e-08
1.93887e-08
-6.50999e-08
1.86971e-08
-7.86268e-08
1.35263e-08
-7.96852e-08
1.05795e-09
-6.3097e-08
-1.65887e-08
-2.93061e-08
-3.37913e-08
1.72975e-08
-4.6604e-08
7.15626e-08
-5.42654e-08
1.27986e-07
-5.64239e-08
1.81571e-07
-5.35851e-08
2.28831e-07
-4.72609e-08
2.6741e-07
-3.85789e-08
2.95792e-07
-2.83828e-08
3.13036e-07
-1.72446e-08
3.185e-07
-5.46444e-09
3.11858e-07
6.64138e-09
2.93368e-07
1.84902e-08
2.64045e-07
2.93223e-08
2.25645e-07
3.84001e-08
1.8071e-07
4.49343e-08
1.32615e-07
4.80949e-08
8.5481e-08
4.71332e-08
4.37903e-08
4.16903e-08
1.13349e-08
3.24549e-08
-1.03992e-08
2.17338e-08
-2.3199e-08
1.27996e-08
-3.00592e-08
6.86001e-09
-3.43666e-08
4.30742e-09
-3.94681e-08
5.10146e-09
-4.57399e-08
6.27207e-09
-4.94812e-08
3.74143e-09
-4.56498e-08
-3.83082e-09
-3.08316e-08
-1.4818e-08
-4.79428e-09
-2.60368e-08
2.85186e-08
-3.33129e-08
6.17487e-08
-3.32303e-08
8.84599e-08
-2.67114e-08
1.06189e-07
-1.77299e-08
1.15228e-07
-9.03847e-09
1.18028e-07
-2.80019e-09
1.18114e-07
-8.57607e-11
1.25554e-07
-7.43929e-09
1.49133e-07
-2.3579e-08
1.63339e-07
-1.42047e-08
1.5162e-07
1.17206e-08
1.03621e-07
4.80014e-08
1.05684e-08
9.30533e-08
-1.2685e-07
1.3742e-07
-2.96124e-07
1.69274e-07
-4.85201e-07
1.89077e-07
-6.83692e-07
1.9849e-07
-8.82804e-07
1.99111e-07
-1.07556e-06
1.92755e-07
-1.25689e-06
1.81327e-07
-1.42358e-06
1.66691e-07
-1.57405e-06
1.50466e-07
-1.70799e-06
1.33943e-07
-1.82604e-06
1.18054e-07
-1.92945e-06
1.03403e-07
-2.01977e-06
9.03249e-08
-2.09872e-06
7.89527e-08
-2.16797e-06
6.92486e-08
-2.22904e-06
6.1063e-08
-2.28324e-06
5.4207e-08
-2.33173e-06
4.84837e-08
-2.37543e-06
4.37083e-08
-2.41515e-06
3.97161e-08
-2.45151e-06
3.63604e-08
-2.48503e-06
3.35226e-08
-2.51613e-06
3.11015e-08
-2.54515e-06
2.90128e-08
-2.57234e-06
2.719e-08
-2.59791e-06
2.55778e-08
-2.62205e-06
2.41328e-08
-2.64487e-06
2.28191e-08
-2.66647e-06
2.1608e-08
-2.68695e-06
2.04762e-08
-2.70635e-06
1.94047e-08
-2.72473e-06
1.83778e-08
-2.74211e-06
1.73827e-08
-2.75852e-06
1.64087e-08
-2.77397e-06
1.54465e-08
-2.78846e-06
1.44884e-08
-2.80199e-06
1.35273e-08
-2.81454e-06
1.25568e-08
-2.82611e-06
1.15708e-08
-2.83668e-06
1.0563e-08
-2.8462e-06
9.5268e-09
-2.85466e-06
8.45495e-09
-2.862e-06
7.33965e-09
-2.86817e-06
6.17291e-09
-2.87312e-06
4.94619e-09
-2.87677e-06
3.6494e-09
-2.87904e-06
2.2774e-09
-2.8799e-06
8.61492e-10
-2.87942e-06
-4.87065e-10
-2.87774e-06
-1.6733e-09
-2.87498e-06
-2.76196e-09
-2.87114e-06
-3.84179e-09
-2.86621e-06
-4.9295e-09
-2.86018e-06
-6.03381e-09
-2.85302e-06
-7.15574e-09
-2.84473e-06
-8.29589e-09
-2.83527e-06
-9.45365e-09
-2.82464e-06
-1.06286e-08
-2.81282e-06
-1.18199e-08
-2.7998e-06
-1.30268e-08
-2.78555e-06
-1.42484e-08
-2.77007e-06
-1.54836e-08
-2.75334e-06
-1.67316e-08
-2.73535e-06
-1.79911e-08
-2.71609e-06
-1.9261e-08
-2.69555e-06
-2.054e-08
-2.67372e-06
-2.1827e-08
-2.6506e-06
-2.31203e-08
-2.62618e-06
-2.44186e-08
-2.60046e-06
-2.57204e-08
-2.57344e-06
-2.7024e-08
-2.54511e-06
-2.83278e-08
-2.51548e-06
-2.96299e-08
-2.48455e-06
-3.09286e-08
-2.45233e-06
-3.22219e-08
-2.41883e-06
-3.35079e-08
-2.38404e-06
-3.47846e-08
-2.34799e-06
-3.60499e-08
-2.31069e-06
-3.7302e-08
-2.27215e-06
-3.85384e-08
-2.23239e-06
-3.97574e-08
-2.19144e-06
-4.09534e-08
-2.14931e-06
-4.2132e-08
-2.10602e-06
-4.32886e-08
-2.0616e-06
-4.44155e-08
-2.01608e-06
-4.5516e-08
-1.9695e-06
-4.65858e-08
-1.92187e-06
-4.76247e-08
-1.87324e-06
-4.86304e-08
-1.82363e-06
-4.96014e-08
-1.7731e-06
-5.05347e-08
-1.72167e-06
-5.14282e-08
-1.66938e-06
-5.22818e-08
-1.61628e-06
-5.30973e-08
-1.56241e-06
-5.38712e-08
-1.50781e-06
-5.45994e-08
-1.45252e-06
-5.52823e-08
-1.3966e-06
-5.59209e-08
-1.34008e-06
-5.65147e-08
-1.28302e-06
-5.70635e-08
-1.22546e-06
-5.75669e-08
-1.16743e-06
-5.80254e-08
-1.109e-06
-5.84393e-08
-1.05019e-06
-5.88095e-08
-9.91056e-07
-5.91367e-08
-9.31638e-07
-5.94222e-08
-8.71975e-07
-5.96672e-08
-8.12106e-07
-5.98735e-08
-7.52069e-07
-6.00432e-08
-6.91896e-07
-6.01785e-08
-6.31621e-07
-6.02814e-08
-5.71273e-07
-6.03545e-08
-5.1088e-07
-6.04e-08
-4.50468e-07
-6.04191e-08
-3.90061e-07
-6.04145e-08
-3.29683e-07
-6.03858e-08
-2.69357e-07
-6.03341e-08
-2.09102e-07
-6.02631e-08
-1.48943e-07
-6.01671e-08
-8.89161e-08
-6.00358e-08
-2.91285e-08
-5.97965e-08
3.03525e-08
-5.94897e-08
8.95028e-08
-5.91589e-08
1.4811e-07
-5.86149e-08
2.05879e-07
-5.77778e-08
2.62452e-07
-5.65806e-08
3.17167e-07
-5.47219e-08
3.68825e-07
-5.16644e-08
4.14792e-07
-4.59738e-08
4.52324e-07
-3.7538e-08
-4.69966e-10
4.52788e-07
-4.56773e-09
1.45246e-08
-1.32259e-08
2.57106e-08
-1.97506e-08
2.59122e-08
-1.71544e-08
1.60995e-08
2.52978e-09
-6.15909e-09
3.97746e-08
-3.61876e-08
9.11066e-08
-6.79211e-08
1.51082e-07
-9.37668e-08
2.13875e-07
-1.09397e-07
2.74157e-07
-1.14548e-07
3.28581e-07
-1.10848e-07
3.75571e-07
-1.00575e-07
4.14318e-07
-8.60081e-08
4.44652e-07
-6.8914e-08
4.66754e-07
-5.04848e-08
4.80975e-07
-3.14651e-08
4.87816e-07
-1.23062e-08
4.87715e-07
6.74183e-09
4.80622e-07
2.55831e-08
4.6593e-07
4.40142e-08
4.42878e-07
6.1452e-08
4.10858e-07
7.69542e-08
3.69703e-07
8.92501e-08
3.19961e-07
9.68742e-08
2.63148e-07
9.85038e-08
2.02082e-07
9.35201e-08
1.4131e-07
8.2506e-08
8.70611e-08
6.70479e-08
4.46111e-08
4.931e-08
1.65462e-08
3.23723e-08
2.74124e-09
1.89067e-08
1.40941e-09
7.6046e-09
1.07122e-08
-5.56073e-09
2.99711e-08
-2.30887e-08
5.88973e-08
-4.37438e-08
9.32518e-08
-6.0391e-08
1.25578e-07
-6.56386e-08
1.48973e-07
-5.66254e-08
1.60313e-07
-3.80521e-08
1.60758e-07
-1.81754e-08
1.55565e-07
-3.84574e-09
1.51311e-07
1.45444e-09
1.32955e-07
1.82707e-08
7.55938e-08
4.9922e-08
-4.71816e-08
9.91972e-08
-2.27134e-07
1.65748e-07
-4.40868e-07
2.25456e-07
-6.67954e-07
2.75088e-07
-8.92542e-07
3.17642e-07
-1.10517e-06
3.50049e-07
-1.30303e-06
3.67136e-07
-1.48239e-06
3.68433e-07
-1.64054e-06
3.56641e-07
-1.7764e-06
3.34966e-07
-1.89057e-06
3.06932e-07
-1.98507e-06
2.75822e-07
-2.06266e-06
2.4428e-07
-2.1264e-06
2.14212e-07
-2.17924e-06
1.86778e-07
-2.22374e-06
1.62549e-07
-2.26198e-06
1.41645e-07
-2.29556e-06
1.23911e-07
-2.32565e-06
1.09039e-07
-2.35305e-06
9.66483e-08
-2.37833e-06
8.63472e-08
-2.4019e-06
7.77756e-08
-2.42403e-06
7.06145e-08
-2.44492e-06
6.4598e-08
-2.46471e-06
5.95053e-08
-2.4835e-06
5.51521e-08
-2.50137e-06
5.13914e-08
-2.51837e-06
4.8102e-08
-2.53455e-06
4.51879e-08
-2.54993e-06
4.25721e-08
-2.56454e-06
4.01916e-08
-2.57841e-06
3.79961e-08
-2.59153e-06
3.59443e-08
-2.60393e-06
3.4003e-08
-2.6156e-06
3.21447e-08
-2.62654e-06
3.03469e-08
-2.63675e-06
2.85908e-08
-2.64623e-06
2.68612e-08
-2.65497e-06
2.51451e-08
-2.66295e-06
2.34316e-08
-2.67017e-06
2.17116e-08
-2.67662e-06
1.99771e-08
-2.68229e-06
1.82217e-08
-2.68716e-06
1.64396e-08
-2.69122e-06
1.46259e-08
-2.69447e-06
1.27766e-08
-2.6969e-06
1.08889e-08
-2.69853e-06
8.96125e-09
-2.69935e-06
6.99413e-09
-2.69939e-06
4.99067e-09
-2.6987e-06
2.95889e-09
-2.69734e-06
9.17341e-10
-2.69537e-06
-1.10816e-09
-2.69274e-06
-3.11966e-09
-2.68925e-06
-5.15853e-09
-2.68477e-06
-7.24413e-09
-2.67925e-06
-9.36645e-09
-2.67265e-06
-1.15243e-08
-2.66497e-06
-1.37193e-08
-2.65617e-06
-1.59511e-08
-2.64625e-06
-1.82193e-08
-2.63518e-06
-2.05228e-08
-2.62295e-06
-2.28602e-08
-2.60954e-06
-2.52301e-08
-2.59493e-06
-2.76308e-08
-2.57912e-06
-3.00605e-08
-2.56209e-06
-3.25174e-08
-2.54382e-06
-3.49992e-08
-2.52431e-06
-3.75038e-08
-2.50354e-06
-4.0029e-08
-2.48151e-06
-4.25721e-08
-2.45821e-06
-4.51305e-08
-2.43363e-06
-4.77016e-08
-2.40776e-06
-5.02824e-08
-2.38061e-06
-5.28698e-08
-2.35218e-06
-5.54606e-08
-2.32245e-06
-5.80515e-08
-2.29145e-06
-6.06389e-08
-2.25916e-06
-6.32191e-08
-2.22559e-06
-6.57884e-08
-2.19076e-06
-6.83429e-08
-2.15466e-06
-7.08785e-08
-2.11732e-06
-7.33913e-08
-2.07875e-06
-7.58772e-08
-2.03895e-06
-7.83318e-08
-1.99796e-06
-8.07512e-08
-1.95578e-06
-8.31308e-08
-1.91244e-06
-8.54687e-08
-1.86797e-06
-8.77596e-08
-1.82239e-06
-8.99972e-08
-1.77573e-06
-9.21785e-08
-1.72801e-06
-9.43e-08
-1.67928e-06
-9.63587e-08
-1.62955e-06
-9.83512e-08
-1.57888e-06
-1.00274e-07
-1.52729e-06
-1.02122e-07
-1.47483e-06
-1.03892e-07
-1.42152e-06
-1.05583e-07
-1.36742e-06
-1.07195e-07
-1.31257e-06
-1.08722e-07
-1.25701e-06
-1.1016e-07
-1.20078e-06
-1.11509e-07
-1.14393e-06
-1.12768e-07
-1.08651e-06
-1.13937e-07
-1.02856e-06
-1.15017e-07
-9.70119e-07
-1.16006e-07
-9.11241e-07
-1.16905e-07
-8.51967e-07
-1.17715e-07
-7.92342e-07
-1.18437e-07
-7.32408e-07
-1.19073e-07
-6.72206e-07
-1.19627e-07
-6.11776e-07
-1.20099e-07
-5.51158e-07
-1.20495e-07
-4.90388e-07
-1.20817e-07
-4.29499e-07
-1.2107e-07
-3.68525e-07
-1.21259e-07
-3.07494e-07
-1.21389e-07
-2.46435e-07
-1.21463e-07
-1.85373e-07
-1.21486e-07
-1.24331e-07
-1.21461e-07
-6.33287e-08
-1.21392e-07
-2.39494e-09
-1.21272e-07
5.84579e-08
-1.2112e-07
1.19214e-07
-1.20928e-07
1.79836e-07
-1.20662e-07
2.40332e-07
-1.20296e-07
3.00633e-07
-1.19795e-07
3.60547e-07
-1.19077e-07
4.1996e-07
-1.18032e-07
4.7873e-07
-1.16552e-07
5.36552e-07
-1.14406e-07
5.9295e-07
-1.11124e-07
6.47009e-07
-1.05728e-07
6.97754e-07
-9.67227e-08
7.41453e-07
-8.12403e-08
-3.92341e-08
7.80215e-07
6.39263e-10
1.38846e-08
2.96184e-09
2.33865e-08
1.49072e-08
1.39656e-08
4.77419e-08
-1.67361e-08
1.03198e-07
-6.16152e-08
1.73929e-07
-1.06919e-07
2.47499e-07
-1.41492e-07
3.1461e-07
-1.60877e-07
3.70913e-07
-1.657e-07
4.15469e-07
-1.59104e-07
4.49357e-07
-1.44735e-07
4.74441e-07
-1.2566e-07
4.92502e-07
-1.04069e-07
5.04948e-07
-8.13601e-08
5.12788e-07
-5.83246e-08
5.16692e-07
-3.53693e-08
5.17043e-07
-1.26573e-08
5.14087e-07
9.69835e-09
5.08059e-07
3.16109e-08
4.99044e-07
5.30288e-08
4.86724e-07
7.37724e-08
4.70255e-07
9.34225e-08
4.4831e-07
1.11196e-07
4.19335e-07
1.25849e-07
3.82092e-07
1.35746e-07
3.3651e-07
1.39103e-07
2.84509e-07
1.34507e-07
2.30132e-07
1.21425e-07
1.78753e-07
1.00689e-07
1.36449e-07
7.46763e-08
1.08976e-07
4.63801e-08
9.91595e-08
1.74213e-08
1.05459e-07
-1.18593e-08
1.24492e-07
-4.21212e-08
1.49343e-07
-6.85952e-08
1.68112e-07
-7.91588e-08
1.72615e-07
-7.01422e-08
1.59952e-07
-4.39616e-08
1.33061e-07
-1.11614e-08
9.10254e-08
2.38595e-08
1.9588e-08
6.75916e-08
-1.04139e-07
1.25182e-07
-2.82128e-07
1.96259e-07
-4.99133e-07
2.66927e-07
-7.32447e-07
3.32512e-07
-9.57144e-07
3.90445e-07
-1.16569e-06
4.34005e-07
-1.35214e-06
4.61534e-07
-1.50916e-06
4.7466e-07
-1.63335e-06
4.74241e-07
-1.7277e-06
4.61493e-07
-1.79783e-06
4.3856e-07
-1.84948e-06
4.08286e-07
-1.88824e-06
3.7373e-07
-1.9189e-06
3.3759e-07
-1.94508e-06
3.02e-07
-1.96922e-06
2.6842e-07
-1.99275e-06
2.37741e-07
-2.01634e-06
2.10373e-07
-2.04019e-06
1.86394e-07
-2.06419e-06
1.6565e-07
-2.08815e-06
1.47864e-07
-2.11181e-06
1.32702e-07
-2.13497e-06
1.19811e-07
-2.15748e-06
1.08851e-07
-2.17921e-06
9.95133e-08
-2.20012e-06
9.1523e-08
-2.22017e-06
8.46491e-08
-2.23936e-06
7.8693e-08
-2.25769e-06
7.34852e-08
-2.27519e-06
6.88884e-08
-2.29187e-06
6.4786e-08
-2.30777e-06
6.10828e-08
-2.3229e-06
5.77004e-08
-2.33728e-06
5.45735e-08
-2.35093e-06
5.16484e-08
-2.36387e-06
4.88804e-08
-2.3761e-06
4.62324e-08
-2.38763e-06
4.36737e-08
-2.39846e-06
4.11785e-08
-2.40859e-06
3.87252e-08
-2.41803e-06
3.62958e-08
-2.42676e-06
3.38753e-08
-2.43478e-06
3.1451e-08
-2.44208e-06
2.90123e-08
-2.44865e-06
2.65505e-08
-2.45449e-06
2.40581e-08
-2.45958e-06
2.15295e-08
-2.46391e-06
1.89601e-08
-2.46748e-06
1.63466e-08
-2.47028e-06
1.36874e-08
-2.4723e-06
1.09824e-08
-2.47354e-06
8.2332e-09
-2.47399e-06
5.44295e-09
-2.47365e-06
2.6168e-09
-2.47249e-06
-2.38894e-10
-2.47048e-06
-3.12384e-09
-2.46754e-06
-6.05417e-09
-2.46365e-06
-9.05276e-09
-2.45877e-06
-1.21239e-08
-2.45288e-06
-1.52591e-08
-2.44595e-06
-1.84543e-08
-2.43796e-06
-2.17078e-08
-2.42889e-06
-2.50177e-08
-2.41873e-06
-2.83822e-08
-2.40745e-06
-3.17994e-08
-2.39504e-06
-3.52673e-08
-2.38149e-06
-3.87835e-08
-2.36678e-06
-4.23456e-08
-2.35089e-06
-4.59509e-08
-2.33381e-06
-4.95964e-08
-2.31553e-06
-5.32792e-08
-2.29604e-06
-5.69959e-08
-2.27532e-06
-6.07431e-08
-2.25338e-06
-6.45171e-08
-2.23019e-06
-6.83139e-08
-2.20577e-06
-7.21295e-08
-2.18009e-06
-7.59595e-08
-2.15316e-06
-7.97994e-08
-2.12498e-06
-8.36443e-08
-2.09554e-06
-8.74894e-08
-2.06485e-06
-9.13294e-08
-2.03291e-06
-9.51588e-08
-1.99973e-06
-9.89719e-08
-1.96531e-06
-1.02763e-07
-1.92966e-06
-1.06526e-07
-1.8928e-06
-1.10255e-07
-1.85473e-06
-1.13944e-07
-1.81547e-06
-1.17587e-07
-1.77505e-06
-1.21177e-07
-1.73347e-06
-1.24709e-07
-1.69076e-06
-1.28178e-07
-1.64694e-06
-1.31576e-07
-1.60204e-06
-1.34896e-07
-1.55609e-06
-1.38132e-07
-1.50911e-06
-1.41279e-07
-1.46114e-06
-1.44331e-07
-1.4122e-06
-1.47285e-07
-1.36234e-06
-1.50136e-07
-1.31158e-06
-1.52876e-07
-1.25998e-06
-1.55501e-07
-1.20755e-06
-1.58007e-07
-1.15435e-06
-1.60394e-07
-1.10042e-06
-1.62653e-07
-1.0458e-06
-1.64781e-07
-9.90527e-07
-1.66777e-07
-9.34655e-07
-1.68639e-07
-8.78224e-07
-1.70368e-07
-8.2128e-07
-1.71962e-07
-7.63866e-07
-1.73421e-07
-7.06025e-07
-1.74746e-07
-6.47803e-07
-1.75938e-07
-5.89241e-07
-1.76999e-07
-5.30382e-07
-1.77933e-07
-4.71267e-07
-1.78743e-07
-4.11934e-07
-1.79433e-07
-3.52423e-07
-1.80008e-07
-2.92767e-07
-1.80474e-07
-2.33001e-07
-1.80837e-07
-1.73157e-07
-1.81105e-07
-1.13263e-07
-1.81284e-07
-5.33458e-08
-1.81381e-07
6.57155e-09
-1.81404e-07
6.64661e-08
-1.81357e-07
1.26317e-07
-1.81244e-07
1.86111e-07
-1.81067e-07
2.45823e-07
-1.80833e-07
3.05427e-07
-1.80532e-07
3.64906e-07
-1.80142e-07
4.24244e-07
-1.79635e-07
4.83396e-07
-1.78947e-07
5.42282e-07
-1.77964e-07
6.00808e-07
-1.76558e-07
6.58825e-07
-1.7457e-07
7.16099e-07
-1.7168e-07
7.72274e-07
-1.673e-07
8.26853e-07
-1.60307e-07
8.79236e-07
-1.49107e-07
9.28393e-07
-1.30398e-07
-8.97443e-08
9.78902e-07
-1.30728e-09
1.51912e-08
9.33413e-09
1.27437e-08
5.05349e-08
-2.72359e-08
1.23355e-07
-8.95571e-08
2.09766e-07
-1.48026e-07
2.90474e-07
-1.87628e-07
3.5461e-07
-2.05628e-07
3.99659e-07
-2.05926e-07
4.2825e-07
-1.94292e-07
4.44829e-07
-1.75683e-07
4.53596e-07
-1.53503e-07
4.5768e-07
-1.29744e-07
4.59068e-07
-1.05458e-07
4.5886e-07
-8.1152e-08
4.57589e-07
-5.70532e-08
4.55482e-07
-3.3263e-08
4.52638e-07
-9.81266e-09
4.49064e-07
1.32718e-08
4.44679e-07
3.5996e-08
4.39379e-07
5.83295e-08
4.32991e-07
8.016e-08
4.25174e-07
1.01239e-07
4.15268e-07
1.21102e-07
4.02193e-07
1.38925e-07
3.84545e-07
1.53394e-07
3.61021e-07
1.62627e-07
3.31143e-07
1.64385e-07
2.9596e-07
1.56607e-07
2.58373e-07
1.38276e-07
2.23114e-07
1.09936e-07
1.95812e-07
7.36823e-08
1.80662e-07
3.25713e-08
1.78734e-07
-9.93064e-09
1.82825e-07
-4.62113e-08
1.77858e-07
-6.3628e-08
1.51539e-07
-5.28393e-08
1.00381e-07
-1.89839e-08
2.18927e-08
3.45263e-08
-9.38756e-08
1.04607e-07
-2.52674e-07
1.82658e-07
-4.47894e-07
2.62811e-07
-6.64153e-07
3.41441e-07
-8.81615e-07
4.13721e-07
-1.08719e-06
4.72506e-07
-1.26919e-06
5.14512e-07
-1.41831e-06
5.39561e-07
-1.53366e-06
5.49359e-07
-1.61827e-06
5.46137e-07
-1.67589e-06
5.3228e-07
-1.71186e-06
5.10213e-07
-1.73246e-06
4.82097e-07
-1.74386e-06
4.49957e-07
-1.75115e-06
4.15575e-07
-1.75798e-06
3.8056e-07
-1.76657e-06
3.4618e-07
-1.77795e-06
3.13383e-07
-1.79234e-06
2.82807e-07
-1.80943e-06
2.54829e-07
-1.82867e-06
2.29613e-07
-1.84944e-06
2.0716e-07
-1.87114e-06
1.87351e-07
-1.89326e-06
1.69993e-07
-1.91542e-06
1.54854e-07
-1.93729e-06
1.41681e-07
-1.95866e-06
1.30224e-07
-1.97939e-06
1.20249e-07
-1.99941e-06
1.11534e-07
-2.01864e-06
1.03888e-07
-2.03709e-06
9.71392e-08
-2.05474e-06
9.11377e-08
-2.07161e-06
8.57563e-08
-2.08771e-06
8.08854e-08
-2.10306e-06
7.6432e-08
-2.11768e-06
7.23175e-08
-2.13158e-06
6.84754e-08
-2.14478e-06
6.48495e-08
-2.15729e-06
6.1392e-08
-2.16912e-06
5.80631e-08
-2.18028e-06
5.48287e-08
-2.19076e-06
5.16602e-08
-2.20057e-06
4.85334e-08
-2.2097e-06
4.54279e-08
-2.21815e-06
4.23263e-08
-2.22591e-06
3.92144e-08
-2.23298e-06
3.608e-08
-2.23934e-06
3.29129e-08
-2.24499e-06
2.97051e-08
-2.24991e-06
2.64499e-08
-2.25409e-06
2.31421e-08
-2.25752e-06
1.97782e-08
-2.26019e-06
1.63557e-08
-2.26208e-06
1.28736e-08
-2.26318e-06
9.33203e-09
-2.26347e-06
5.73153e-09
-2.26293e-06
2.07292e-09
-2.26152e-06
-1.64428e-09
-2.25922e-06
-5.42554e-09
-2.25599e-06
-9.28333e-09
-2.25181e-06
-1.32298e-08
-2.24667e-06
-1.72665e-08
-2.24054e-06
-2.13881e-08
-2.23341e-06
-2.55906e-08
-2.22524e-06
-2.98712e-08
-2.21603e-06
-3.42269e-08
-2.20576e-06
-3.86552e-08
-2.19441e-06
-4.31533e-08
-2.18195e-06
-4.77186e-08
-2.16839e-06
-5.23477e-08
-2.1537e-06