/*--------------------------------*- C++ -*----------------------------------*\
  =========                 |
  \\      /  F ield         | OpenFOAM: The Open Source CFD Toolbox
   \\    /   O peration     | Website:  https://openfoam.org
    \\  /    A nd           | Version:  8
     \\/     M anipulation  |
\*---------------------------------------------------------------------------*/
FoamFile
{
    version     2.0;
    format      ascii;
    class       volScalarField;
    location    "2700";
    object      nut;
}
// * * * * * * * * * * * * * * * * * * * * * * * * * * * * * * * * * * * * * //

dimensions      [0 2 -1 0 0 0 0];

internalField   nonuniform List<scalar> 
12225
(
0.0122671
0.00158819
0.000666129
0.000410105
0.000294025
0.00022806
0.000183261
0.000170805
0.000132697
0.000106844
9.46735e-05
8.80085e-05
7.89856e-05
7.2233e-05
6.77318e-05
6.4507e-05
6.12104e-05
6.46338e-05
0.0323823
0.00744532
0.00330638
0.00204329
0.00146801
0.0011445
0.000936338
0.000799975
0.00067951
0.000577234
0.000506286
0.000452432
0.00041054
0.000378806
0.000350182
0.000327767
0.000311172
0.000292818
0.0490123
0.01515
0.00728196
0.00457854
0.00330639
0.00258054
0.00211233
0.00178913
0.00154181
0.00134762
0.00119772
0.0010787
0.000982056
0.000902481
0.000835978
0.000780909
0.000735546
0.00068717
0.063054
0.0237783
0.0122894
0.00788814
0.00573397
0.00448498
0.00367412
0.00310733
0.00268471
0.00235805
0.00210111
0.00189458
0.00172531
0.00158451
0.00146613
0.00136604
0.00128146
0.00119789
0.074932
0.0328517
0.0181452
0.0119262
0.00874548
0.00686412
0.0056308
0.00476254
0.00411748
0.00362029
0.00322731
0.00290992
0.00264899
0.00243143
0.00224799
0.00209188
0.00195826
0.00183626
0.0849536
0.0420208
0.0246655
0.0166359
0.0123325
0.00972587
0.00799539
0.00676785
0.00585345
0.00514769
0.00458844
0.00413587
0.00376334
0.00345239
0.00318983
0.00296596
0.0027736
0.00260471
0.0933822
0.0510219
0.0316642
0.0219415
0.016474
0.0130717
0.0107778
0.00913551
0.0079057
0.0069534
0.0061969
0.00558367
0.00507837
0.00465632
0.00429976
0.00399561
0.00373414
0.00350818
0.0993794
0.0583363
0.0378386
0.0268568
0.0204171
0.0163053
0.0134891
0.011453
0.00991891
0.00872629
0.00777635
0.00700497
0.00636866
0.00583685
0.0053874
0.00500398
0.00467452
0.00439126
0.104023
0.0645454
0.0433804
0.0314239
0.0241571
0.0194092
0.0161097
0.0137018
0.0118766
0.0104521
0.00931443
0.00838904
0.00762485
0.00698574
0.00644544
0.00598449
0.00558858
0.00524877
0.108368
0.0708939
0.0493756
0.0365496
0.0284517
0.0230231
0.0191863
0.0163547
0.0141926
0.0124968
0.011138
0.0100303
0.00911434
0.00834759
0.0076991
0.00714579
0.00667068
0.00626297
0.112368
0.0772557
0.0557282
0.0421918
0.0332976
0.0271652
0.0227467
0.0194432
0.0168984
0.0148903
0.0132749
0.0119544
0.0108605
0.00994379
0.00916796
0.00850586
0.00793736
0.00744915
0.115994
0.0834975
0.0623053
0.0482611
0.0386474
0.0318167
0.026789
0.0229739
0.0200046
0.0176452
0.0157378
0.0141736
0.0128749
0.011785
0.0108618
0.0100736
0.00939671
0.00881464
0.119234
0.0894856
0.0689377
0.0546109
0.0443919
0.0369007
0.0312597
0.0269088
0.0234836
0.02074
0.0185096
0.0166735
0.0151449
0.01386
0.0127704
0.0118396
0.0110397
0.0103508
0.122086
0.095084
0.075415
0.0610223
0.0503361
0.0422534
0.0360231
0.0311353
0.0272402
0.024093
0.021519
0.0193909
0.017614
0.0161174
0.0148466
0.01376
0.0128257
0.0120196
0.124546
0.100135
0.0814619
0.0671725
0.056158
0.047577
0.0408126
0.0354174
0.031066
0.0275196
0.0246012
0.0221777
0.0201481
0.0184349
0.0169782
0.0157314
0.0146583
0.0137311
0.126578
0.104396
0.0866605
0.0725515
0.0613228
0.0523526
0.0451453
0.0393148
0.0345631
0.0306611
0.0274325
0.0247409
0.0224806
0.020569
0.0189413
0.0175468
0.0163454
0.0153061
0.128011
0.107322
0.0902141
0.0762353
0.0648743
0.0556509
0.0481493
0.0420254
0.0370012
0.0328553
0.0294126
0.0265352
0.0241143
0.0220643
0.0203172
0.0188191
0.0175275
0.0164083
0.128006
0.107313
0.0902048
0.0762269
0.0648674
0.0556454
0.048145
0.0420222
0.0369988
0.0328537
0.0294117
0.0265349
0.0241147
0.0220652
0.0203185
0.0188206
0.0175287
0.0164083
0.126509
0.104255
0.0864922
0.0723807
0.0611613
0.052205
0.0450128
0.0391967
0.0344584
0.0305686
0.0273506
0.0246684
0.0224163
0.0205118
0.0188903
0.0175006
0.0163024
0.0152631
0.124267
0.0995604
0.0807712
0.0664676
0.0554886
0.0469631
0.0402594
0.0349228
0.0306248
0.0271258
0.0242488
0.0218611
0.0198626
0.0181762
0.0167426
0.0155152
0.0144575
0.0135405
0.12136
0.0936399
0.0737261
0.0593348
0.0487592
0.0408249
0.0347467
0.0300003
0.0262308
0.0231928
0.0207127
0.018665
0.0169572
0.0155198
0.0142999
0.0132567
0.0123583
0.0115798
0.117686
0.0865903
0.0656967
0.0514791
0.0415374
0.0343608
0.0290184
0.0249322
0.0217348
0.0191848
0.0171184
0.0154211
0.0140106
0.0128263
0.0118229
0.0109657
0.010228
0.00958895
0.11305
0.0784122
0.056921
0.0432687
0.0342296
0.0279652
0.0234365
0.0200435
0.0174263
0.0153597
0.0136966
0.0123369
0.0112106
0.010267
0.00946866
0.00878719
0.00820101
0.00769346
0.107169
0.0691009
0.0476372
0.035029
0.0271566
0.021922
0.0182437
0.0155401
0.0134817
0.0118706
0.0105816
0.00953197
0.00866487
0.00793965
0.0073267
0.00680377
0.00635411
0.00596494
0.0996761
0.0587036
0.0381279
0.0270699
0.0205782
0.016433
0.0135949
0.0115438
0.00999923
0.00879908
0.00784341
0.00706755
0.00642793
0.00589353
0.00544234
0.00505736
0.00472636
0.00444011
0.0901097
0.0473665
0.0287363
0.0196847
0.0146976
0.0116312
0.00957853
0.00811528
0.00702332
0.00617994
0.00551058
0.0049679
0.00452123
0.00414796
0.00383348
0.00356466
0.00333342
0.00313388
0.0779076
0.0353826
0.0198606
0.0131383
0.00966107
0.00759298
0.00623352
0.0052743
0.004564
0.00401882
0.00358701
0.00323599
0.00294752
0.00270526
0.00250288
0.00232854
0.0021779
0.00204891
0.06238
0.0232554
0.0119461
0.00765493
0.00556337
0.00435256
0.00356724
0.00301639
0.00261307
0.00230792
0.00206665
0.00186689
0.00170308
0.00156251
0.0014487
0.00134759
0.00125907
0.00118357
0.0426105
0.0117794
0.0054693
0.00341385
0.00246071
0.00192005
0.00157275
0.00132885
0.00115943
0.00103846
0.000944042
0.000857504
0.000785386
0.00072053
0.000665877
0.000615683
0.000576586
0.000531896
0.0168348
0.00255985
0.00110002
0.000683428
0.000493724
0.000386803
0.000318219
0.000266307
0.000272613
0.00032205
0.000354121
0.00033789
0.000300244
0.000268116
0.000240464
0.000205925
0.000197281
0.000141055
3.99443e-09
5.91181e-07
2.00094e-06
6.28951e-06
1.08028e-05
1.3532e-05
1.32572e-05
1.17922e-05
9.06423e-06
5.94822e-06
3.52422e-06
2.02515e-06
1.41007e-06
1.50307e-06
2.06719e-06
2.56608e-06
2.45451e-06
2.06917e-06
2.54284e-06
8.67676e-06
9.02526e-06
5.55433e-06
6.75193e-06
2.65127e-05
5.67525e-05
7.44258e-05
9.09792e-05
0.000104827
0.000117048
0.000127208
0.000136112
0.000143759
0.000150449
0.000156276
0.000161358
0.000165844
0.000169818
0.000173369
0.000176551
0.00017941
0.000181975
0.000184268
0.000186308
0.000188111
0.000189692
0.000191063
0.000192235
0.000193215
0.000194004
0.000194476
0.000194974
0.000195082
0.000195144
0.000195019
0.00019472
0.000194274
0.000193675
0.000192929
0.000192035
0.000190997
0.000189815
0.000188494
0.000187034
0.000185438
0.00018371
0.00018185
0.00017986
0.000177742
0.000175499
0.000173133
0.000170647
0.000168041
0.000165318
0.000162479
0.000159525
0.000156458
0.000153278
0.000149985
0.000146579
0.000143058
0.00013942
0.000135663
0.000131783
0.000127773
0.000123624
0.000119325
0.000114862
0.000110224
0.000105394
0.000100347
9.5048e-05
8.94683e-05
8.36118e-05
7.75439e-05
7.15318e-05
6.62499e-05
6.24909e-05
6.0149e-05
5.83965e-05
5.67906e-05
5.52144e-05
5.36459e-05
5.20837e-05
5.05294e-05
4.89847e-05
4.74517e-05
4.59332e-05
4.44352e-05
4.29859e-05
4.17489e-05
4.05449e-05
3.93551e-05
3.81826e-05
3.70279e-05
3.58921e-05
3.47758e-05
3.36799e-05
3.26051e-05
3.1552e-05
3.0521e-05
2.95124e-05
2.85269e-05
2.75649e-05
2.6627e-05
2.57131e-05
2.48231e-05
2.39582e-05
2.31461e-05
2.24118e-05
2.16963e-05
2.09957e-05
2.03184e-05
1.96691e-05
1.90342e-05
1.84132e-05
1.78094e-05
1.72235e-05
1.66558e-05
1.61062e-05
1.55743e-05
1.50595e-05
1.45616e-05
1.408e-05
1.36145e-05
1.31645e-05
1.27296e-05
1.23095e-05
1.19038e-05
1.1512e-05
1.11339e-05
1.0769e-05
1.0417e-05
1.00776e-05
9.75035e-06
9.43508e-06
9.13144e-06
8.83916e-06
8.558e-06
8.28772e-06
8.02811e-06
7.77899e-06
7.54017e-06
7.31149e-06
7.09275e-06
6.88375e-06
6.68425e-06
6.49391e-06
6.31231e-06
6.13891e-06
5.97294e-06
5.81362e-06
5.65935e-06
5.5097e-06
5.3597e-06
5.21394e-06
5.04789e-06
4.8939e-06
4.64752e-06
4.4893e-06
3.59422e-06
1.6818e-07
6.14265e-06
6.38837e-05
0.000139687
0.000183242
0.000207007
0.00021638
0.000214888
0.000206542
0.000189839
0.000169047
0.000148913
0.0001385
0.000143714
0.000157682
0.000166604
0.000169022
0.000170206
0.00017561
0.000185312
0.000200067
0.000217506
0.00023434
0.000250842
0.000262142
0.000272046
0.000280861
0.000293707
0.000312804
0.00032675
0.000339493
0.000350417
0.000360347
0.000369445
0.000377345
0.000384558
0.000391273
0.000397715
0.000404015
0.000410238
0.00041638
0.000422399
0.000428241
0.000433865
0.000439244
0.000444361
0.000449201
0.000453752
0.000458014
0.000461988
0.000465713
0.000469155
0.000472352
0.000475294
0.000477985
0.000480427
0.00048262
0.000484565
0.000486263
0.000487714
0.000488918
0.000489876
0.000490592
0.000491069
0.000491317
0.000491342
0.000491138
0.000490701
0.000490048
0.000489182
0.00048811
0.000486837
0.000485371
0.000483719
0.000481887
0.000479882
0.000477713
0.000475386
0.00047291
0.000470291
0.000467539
0.000464661
0.000461664
0.000458559
0.000455351
0.000452049
0.000448661
0.000445194
0.000441659
0.000438064
0.000434414
0.000430711
0.000426957
0.000423148
0.000419262
0.000415271
0.000411162
0.000406962
0.000402721
0.000398464
0.000394199
0.00038993
0.00038566
0.000381392
0.000377131
0.000372878
0.000368639
0.000364413
0.000360203
0.000356004
0.000351828
0.00034768
0.000343561
0.000339473
0.000335418
0.000331398
0.000327414
0.000323467
0.000319559
0.000315692
0.000311865
0.00030808
0.000304338
0.00030064
0.000296987
0.000293379
0.000289815
0.000286294
0.000282815
0.000279381
0.00027599
0.000272651
0.000269364
0.000266114
0.0002629
0.000259727
0.000256598
0.000253514
0.000250475
0.000247481
0.000244531
0.000241624
0.00023876
0.000235939
0.000233159
0.000230421
0.000227723
0.000225066
0.000222448
0.00021987
0.000217331
0.000214831
0.000212369
0.000209946
0.000207561
0.000205216
0.000202909
0.000200643
0.000198417
0.000196233
0.000194092
0.000191996
0.000189947
0.000187946
0.000185994
0.000184095
0.000182248
0.000180453
0.000178711
0.00017702
0.000175375
0.000173775
0.000172197
0.000170683
0.000169072
0.000167749
0.000165617
0.000164901
0.000162093
0.00016072
7.68607e-07
4.45423e-05
0.00016429
0.000246525
0.000299859
0.000330181
0.00034122
0.000338351
0.000325519
0.000306245
0.00028647
0.000273748
0.000271488
0.000278167
0.000288524
0.000299354
0.000312116
0.000329071
0.000350671
0.000375833
0.000403223
0.000431579
0.000469795
0.000516182
0.000561837
0.000605994
0.000649096
0.00069277
0.00073211
0.0007634
0.000788409
0.000808233
0.000823948
0.000836417
0.000846422
0.000854738
0.000862068
0.000869054
0.000876235
0.000883967
0.000892356
0.000901279
0.000910497
0.000919774
0.000928932
0.000937851
0.000946455
0.000954696
0.000962539
0.000969954
0.00097692
0.000983406
0.00098941
0.000994925
0.00099995
0.00100448
0.00100852
0.00101207
0.00101513
0.00101769
0.00101976
0.00102134
0.00102242
0.00102296
0.00102312
0.00102284
0.00102204
0.0010208
0.00101911
0.00101699
0.00101446
0.00101151
0.00100818
0.00100446
0.00100038
0.000995948
0.000991181
0.000986093
0.0009807
0.000975015
0.000969055
0.000962834
0.000956368
0.000949672
0.000942761
0.000935651
0.000928354
0.000920886
0.00091326
0.00090549
0.000897589
0.000889565
0.00088143
0.000873191
0.000864856
0.000856436
0.000847942
0.000839391
0.000830799
0.000822179
0.000813542
0.000804896
0.00079625
0.000787612
0.000778989
0.000770387
0.000761813
0.000753273
0.000744772
0.000736317
0.000727913
0.000719565
0.000711277
0.000703055
0.000694901
0.000686818
0.000678811
0.000670882
0.000663033
0.000655266
0.000647585
0.00063999
0.000632483
0.000625067
0.000617743
0.000610511
0.000603371
0.000596324
0.00058937
0.000582511
0.000575746
0.000569077
0.000562501
0.000556012
0.000549609
0.000543296
0.000537073
0.000530942
0.000524902
0.000518953
0.000513094
0.000507325
0.000501643
0.000496048
0.00049054
0.000485116
0.000479775
0.000474517
0.00046934
0.000464244
0.000459227
0.000454287
0.000449425
0.000444638
0.000439926
0.000435287
0.000430721
0.000426227
0.000421802
0.000417446
0.000413158
0.000408935
0.000404777
0.00040068
0.000396642
0.000392661
0.000388731
0.000384847
0.000381004
0.000377191
0.000373398
0.000369609
0.000365801
0.000361954
0.000357995
0.000353954
0.000349472
0.000345078
0.000338588
0.000327129
5.07095e-07
8.12902e-05
0.000212972
0.000309207
0.000372991
0.000410403
0.000425978
0.000426368
0.000416357
0.000402954
0.000394797
0.000393961
0.000403188
0.000420399
0.000443154
0.000470909
0.000504263
0.000543574
0.000588031
0.00065027
0.000724135
0.000803928
0.00088819
0.000958851
0.00102128
0.00107741
0.00112782
0.00117272
0.00121199
0.00124587
0.00127512
0.00130045
0.00132257
0.00134211
0.00135965
0.00137567
0.0013906
0.00140476
0.00141842
0.00143177
0.00144494
0.00145799
0.00147095
0.00148381
0.0014965
0.00150896
0.00152109
0.0015328
0.00154399
0.00155459
0.00156454
0.00157382
0.00158239
0.00159025
0.00159739
0.0016038
0.00160947
0.00161441
0.00161861
0.00162207
0.00162479
0.00162677
0.00162793
0.00162837
0.00162824
0.00162733
0.0016257
0.00162338
0.00162038
0.00161673
0.00161243
0.00160751
0.00160199
0.00159589
0.00158923
0.00158204
0.00157433
0.00156613
0.00155747
0.00154836
0.00153883
0.0015289
0.0015186
0.00150794
0.00149696
0.00148567
0.00147409
0.00146226
0.00145018
0.00143788
0.00142538
0.0014127
0.00139985
0.00138685
0.00137372
0.00136047
0.00134712
0.00133369
0.0013202
0.00130666
0.0012931
0.00127953
0.00126595
0.00125239
0.00123886
0.00122536
0.0012119
0.00119849
0.00118515
0.00117189
0.0011587
0.0011456
0.00113259
0.00111968
0.00110688
0.00109419
0.00108162
0.00106917
0.00105685
0.00104465
0.00103259
0.00102066
0.00100886
0.000997209
0.000985696
0.000974326
0.0009631
0.000952018
0.000941081
0.000930291
0.000919647
0.000909149
0.000898794
0.000888579
0.000878502
0.000868564
0.000858767
0.000849111
0.000839595
0.00083022
0.000820984
0.000811885
0.000802922
0.000794094
0.000785399
0.000776835
0.0007684
0.000760093
0.000751912
0.000743854
0.000735919
0.000728104
0.000720407
0.000712827
0.000705363
0.000698011
0.00069077
0.000683639
0.000676615
0.000669695
0.000662879
0.000656162
0.000649542
0.000643015
0.000636579
0.000630226
0.000623952
0.000617748
0.000611606
0.000605513
0.000599452
0.000593402
0.000587334
0.000581211
0.000574967
0.000568548
0.000561771
0.000554579
0.000546337
0.000530146
1.49347e-06
0.000102059
0.000235125
0.000355062
0.000433979
0.000481487
0.000505125
0.000513595
0.00051517
0.000516158
0.000523038
0.0005392
0.000565258
0.000600245
0.000643373
0.000694658
0.000754744
0.000838165
0.00093384
0.00103006
0.00111907
0.00120346
0.00128281
0.00135551
0.00142227
0.00148368
0.00154015
0.001592
0.0016396
0.00168337
0.0017238
0.00176137
0.0017965
0.00182958
0.00186091
0.00189076
0.0019193
0.00194669
0.00197302
0.00199834
0.0020227
0.00204611
0.00206856
0.00209002
0.00211049
0.00212992
0.00214829
0.00216556
0.00218172
0.00219674
0.00221062
0.00222334
0.00223494
0.00224541
0.00225478
0.00226306
0.00227028
0.00227644
0.00228157
0.00228568
0.00228877
0.00229082
0.00229174
0.00229183
0.00229095
0.00228907
0.00228624
0.00228247
0.00227778
0.0022722
0.00226575
0.00225847
0.00225037
0.00224149
0.00223186
0.0022215
0.00221046
0.00219876
0.00218643
0.0021735
0.00216
0.00214597
0.00213143
0.00211642
0.00210097
0.00208511
0.00206886
0.00205227
0.00203535
0.00201813
0.00200065
0.00198292
0.00196498
0.00194684
0.00192853
0.00191008
0.0018915
0.00187282
0.00185406
0.00183525
0.0018164
0.00179754
0.00177868
0.00175985
0.00174105
0.00172229
0.00170361
0.00168499
0.00166647
0.00164805
0.00162974
0.00161155
0.00159349
0.00157557
0.0015578
0.00154018
0.00152272
0.00150543
0.00148831
0.00147136
0.0014546
0.00143802
0.00142163
0.00140544
0.00138943
0.00137362
0.001358
0.00134259
0.00132737
0.00131235
0.00129753
0.00128291
0.00126849
0.00125426
0.00124022
0.00122638
0.00121272
0.00119926
0.00118599
0.00117291
0.00116002
0.00114732
0.0011348
0.00112247
0.00111032
0.00109834
0.00108654
0.00107492
0.00106346
0.00105217
0.00104105
0.0010301
0.0010193
0.00100866
0.000998182
0.000987853
0.000977674
0.000967643
0.000957756
0.000948011
0.000938405
0.000928934
0.000919594
0.00091038
0.000901288
0.000892311
0.000883441
0.000874671
0.000865987
0.000857375
0.000848816
0.000840286
0.000831749
0.000823163
0.00081446
0.000805569
0.000796325
0.000786581
0.000776613
0.000756792
2.27172e-06
0.000118203
0.00025637
0.000390154
0.000487243
0.000549162
0.000587027
0.000610492
0.000628251
0.000647577
0.000673721
0.000709335
0.000755153
0.000811449
0.000878627
0.000969132
0.00107427
0.00117599
0.00127521
0.00137071
0.00146141
0.00154741
0.00162865
0.00170511
0.00177707
0.00184489
0.00190891
0.00196946
0.00202687
0.00208148
0.0021336
0.00218353
0.00223151
0.00227776
0.00232243
0.00236564
0.00240749
0.00244803
0.00248728
0.00252527
0.00256198
0.0025974
0.00263149
0.00266423
0.00269557
0.00272547
0.0027539
0.00278081
0.00280616
0.00282993
0.00285209
0.00287261
0.00289147
0.00290868
0.00292421
0.00293808
0.00295028
0.00296082
0.00296971
0.00297698
0.00298263
0.00298671
0.00298914
0.00299004
0.00298958
0.00298761
0.00298426
0.00297956
0.00297356
0.00296631
0.00295786
0.00294827
0.00293758
0.00292585
0.00291314
0.00289947
0.00288491
0.00286949
0.00285327
0.00283628
0.00281857
0.00280017
0.00278114
0.00276151
0.00274132
0.00272061
0.00269942
0.00267779
0.00265576
0.00263336
0.00261063
0.0025876
0.0025643
0.00254077
0.00251704
0.00249313
0.00246907
0.0024449
0.00242064
0.00239631
0.00237195
0.00234758
0.00232321
0.00229888
0.00227459
0.00225038
0.00222624
0.00220221
0.0021783
0.00215451
0.00213088
0.00210739
0.00208408
0.00206095
0.002038
0.00201525
0.00199271
0.00197038
0.00194828
0.00192639
0.00190474
0.00188332
0.00186215
0.00184121
0.00182052
0.00180008
0.00177989
0.00175995
0.00174027
0.00172083
0.00170165
0.00168272
0.00166404
0.00164561
0.00162742
0.00160948
0.00159178
0.00157433
0.00155712
0.00154014
0.00152341
0.00150692
0.00149065
0.00147462
0.00145882
0.00144324
0.00142788
0.00141275
0.00139782
0.00138311
0.00136861
0.00135432
0.00134022
0.00132633
0.00131263
0.00129913
0.00128581
0.00127268
0.00125973
0.00124696
0.00123436
0.00122193
0.00120967
0.00119757
0.00118562
0.00117382
0.00116216
0.00115063
0.00113921
0.00112789
0.00111665
0.00110546
0.00109428
0.00108308
0.00107177
0.0010603
0.00104848
0.00103626
0.00102408
0.0010016
2.80558e-06
0.000126821
0.000269281
0.000407728
0.000526503
0.00060804
0.000664246
0.000706256
0.000743315
0.000782688
0.000829432
0.000886497
0.000955506
0.00104784
0.00115484
0.00126145
0.00136756
0.00147092
0.001571
0.00166735
0.00175975
0.00184819
0.00193275
0.00201361
0.002091
0.00216519
0.00223647
0.0023051
0.00237134
0.00243541
0.00249754
0.0025579
0.00261663
0.00267386
0.00272967
0.00278411
0.00283723
0.00288903
0.00293951
0.00298864
0.00303641
0.00308277
0.00312768
0.00317109
0.00321295
0.0032532
0.00329179
0.00332867
0.0033638
0.00339712
0.00342858
0.00345816
0.00348582
0.00351152
0.00353524
0.00355696
0.00357667
0.00359436
0.00361001
0.00362363
0.00363523
0.00364481
0.00365239
0.00365801
0.00366166
0.00366328
0.00366319
0.0036612
0.00365743
0.00365191
0.0036447
0.00363586
0.00362544
0.00361351
0.00360013
0.00358536
0.00356927
0.00355193
0.0035334
0.00351375
0.00349305
0.00347136
0.00344876
0.0034253
0.00340105
0.00337607
0.00335043
0.00332417
0.00329737
0.00327006
0.00324231
0.00321415
0.00318565
0.00315683
0.00312775
0.00309844
0.00306894
0.00303929
0.00300952
0.00297967
0.00294977
0.00291985
0.00288993
0.00286005
0.00283023
0.00280048
0.00277084
0.00274132
0.00271194
0.00268272
0.00265368
0.00262482
0.00259617
0.00256773
0.00253953
0.00251156
0.00248384
0.00245638
0.00242919
0.00240226
0.00237562
0.00234926
0.00232319
0.00229741
0.00227193
0.00224675
0.00222187
0.00219729
0.00217302
0.00214905
0.00212539
0.00210202
0.00207896
0.0020562
0.00203374
0.00201157
0.00198969
0.00196811
0.00194682
0.00192582
0.0019051
0.00188467
0.00186452
0.00184465
0.00182505
0.00180572
0.00178666
0.00176786
0.00174932
0.00173104
0.001713
0.00169521
0.00167767
0.00166037
0.0016433
0.00162646
0.00160985
0.00159346
0.00157729
0.00156134
0.00154559
0.00153006
0.00151472
0.00149957
0.00148462
0.00146984
0.00145524
0.0014408
0.0014265
0.00141233
0.00139826
0.00138428
0.00137033
0.00135638
0.00134236
0.00132819
0.00131371
0.00129895
0.00128394
0.00125969
2.94246e-06
0.000128735
0.000270669
0.000407307
0.000538108
0.000641778
0.000719043
0.000780497
0.000836303
0.000894162
0.00096177
0.00105374
0.00116338
0.00128511
0.00140069
0.00151196
0.0016198
0.00172437
0.00182563
0.0019235
0.002018
0.0021092
0.00219726
0.00228235
0.00236471
0.00244454
0.00252208
0.00259754
0.0026711
0.00274294
0.0028132
0.002882
0.00294943
0.00301556
0.00308042
0.00314404
0.00320641
0.00326752
0.00332735
0.00338584
0.00344297
0.00349866
0.00355286
0.00360551
0.00365654
0.00370589
0.0037535
0.00379929
0.00384321
0.0038852
0.0039252
0.00396317
0.00399905
0.00403281
0.0040644
0.0040938
0.00412098
0.00414591
0.00416858
0.00418898
0.00420711
0.00422296
0.00423654
0.00424787
0.00425696
0.00426383
0.00426855
0.004271
0.00427144
0.00426979
0.00426612
0.00426048
0.00425291
0.00424348
0.00423225
0.00421928
0.00420463
0.00418837
0.00417058
0.00415131
0.00413065
0.00410865
0.00408541
0.00406098
0.00403544
0.00400886
0.00398131
0.00395287
0.0039236
0.00389357
0.00386284
0.00383148
0.00379955
0.0037671
0.0037342
0.00370091
0.00366726
0.00363333
0.00359915
0.00356477
0.00353024
0.00349561
0.0034609
0.00342616
0.00339143
0.00335673
0.0033221
0.00328756
0.00325314
0.00321887
0.00318477
0.00315085
0.00311715
0.00308367
0.00305043
0.00301745
0.00298474
0.00295231
0.00292018
0.00288835
0.00285682
0.00282562
0.00279475
0.0027642
0.00273399
0.00270412
0.00267459
0.0026454
0.00261657
0.00258808
0.00255994
0.00253214
0.00250469
0.00247759
0.00245083
0.00242441
0.00239833
0.00237259
0.00234718
0.00232211
0.00229736
0.00227295
0.00224886
0.00222509
0.00220164
0.0021785
0.00215567
0.00213314
0.00211091
0.00208898
0.00206735
0.00204599
0.00202493
0.00200414
0.00198362
0.00196338
0.0019434
0.00192368
0.00190422
0.00188501
0.00186604
0.00184732
0.00182883
0.00181058
0.00179254
0.00177472
0.0017571
0.00173968
0.00172243
0.00170534
0.00168839
0.00167154
0.00165476
0.00163799
0.00162118
0.00160425
0.00158705
0.00156965
0.00155172
0.00152558
2.75939e-06
0.000125268
0.000264043
0.000395768
0.000520539
0.000633071
0.000727059
0.000808267
0.000891335
0.000986685
0.00109594
0.00122064
0.00135705
0.00148457
0.00160488
0.0017199
0.00183062
0.00193739
0.00204054
0.00214042
0.00223725
0.00233122
0.00242253
0.0025114
0.00259802
0.0026826
0.00276532
0.00284637
0.0029259
0.00300402
0.00308086
0.00315649
0.00323097
0.00330432
0.00337657
0.0034477
0.0035177
0.00358653
0.00365413
0.00372046
0.00378544
0.00384902
0.0039111
0.00397162
0.0040305
0.00408766
0.00414302
0.00419652
0.00424806
0.0042976
0.00434505
0.00439037
0.00443349
0.00447436
0.00451294
0.00454919
0.00458306
0.00461455
0.00464361
0.00467023
0.00469441
0.00471614
0.00473542
0.00475225
0.00476665
0.00477864
0.00478825
0.00479548
0.00480041
0.00480298
0.00480337
0.00480155
0.00479759
0.00479152
0.00478342
0.00477334
0.00476134
0.00474749
0.00473185
0.00471449
0.00469548
0.00467489
0.0046528
0.00462927
0.00460439
0.00457822
0.00455083
0.0045223
0.00449271
0.00446211
0.00443058
0.0043982
0.00436502
0.00433111
0.00429655
0.00426138
0.00422567
0.00418948
0.00415287
0.00411589
0.00407861
0.00404106
0.0040033
0.00396538
0.00392734
0.00388922
0.00385105
0.00381289
0.00377476
0.00373669
0.00369873
0.00366088
0.00362319
0.00358567
0.00354836
0.00351126
0.00347441
0.00343781
0.00340149
0.00336545
0.00332972
0.0032943
0.0032592
0.00322444
0.00319002
0.00315595
0.00312223
0.00308887
0.00305588
0.00302325
0.00299099
0.00295911
0.00292759
0.00289645
0.00286567
0.00283527
0.00280523
0.00277557
0.00274627
0.00271733
0.00268876
0.00266055
0.0026327
0.0026052
0.00257805
0.00255125
0.00252479
0.00249867
0.00247289
0.00244743
0.00242231
0.0023975
0.00237302
0.00234884
0.00232498
0.00230142
0.00227816
0.00225519
0.00223252
0.00221013
0.00218802
0.00216618
0.00214461
0.00212331
0.00210226
0.00208146
0.00206089
0.00204054
0.0020204
0.00200045
0.00198066
0.001961
0.00194143
0.0019219
0.00190235
0.00188269
0.00186281
0.00184274
0.001822
0.00179367
2.34434e-06
0.000117989
0.000252847
0.000380972
0.000503944
0.00062048
0.000731375
0.000840491
0.000955425
0.00108133
0.00121946
0.00136924
0.00151155
0.00164355
0.00176781
0.00188625
0.00199997
0.00210962
0.00221558
0.00231807
0.00241748
0.00251418
0.00260849
0.00270065
0.00279089
0.00287942
0.00296641
0.00305203
0.0031364
0.00321964
0.00330183
0.00338303
0.00346327
0.00354257
0.00362091
0.00369828
0.00377463
0.0038499
0.00392405
0.00399698
0.00406862
0.00413889
0.0042077
0.00427495
0.00434056
0.00440444
0.00446649
0.00452664
0.00458479
0.00464087
0.0046948
0.00474652
0.00479595
0.00484305
0.00488776
0.00493003
0.00496981
0.00500709
0.00504182
0.00507399
0.00510359
0.0051306
0.00515502
0.00517685
0.00519612
0.00521282
0.00522699
0.00523864
0.00524781
0.00525454
0.00525886
0.00526079
0.00526045
0.00525784
0.00525303
0.00524606
0.00523701
0.00522593
0.00521289
0.00519795
0.00518119
0.00516267
0.00514247
0.00512065
0.00509729
0.00507246
0.00504623
0.00501869
0.00498989
0.00495992
0.00492883
0.00489671
0.00486361
0.00482961
0.00479478
0.00475918
0.00472287
0.00468591
0.00464838
0.00461032
0.0045718
0.00453287
0.00449359
0.004454
0.00441416
0.00437411
0.0043339
0.00429358
0.00425317
0.00421272
0.00417228
0.00413186
0.00409151
0.00405125
0.00401111
0.00397113
0.00393131
0.0038917
0.0038523
0.00381315
0.00377425
0.00373562
0.00369728
0.00365924
0.00362152
0.00358412
0.00354706
0.00351034
0.00347396
0.00343795
0.0034023
0.00336701
0.0033321
0.00329755
0.00326338
0.00322959
0.00319617
0.00316313
0.00313047
0.00309818
0.00306627
0.00303474
0.00300357
0.00297278
0.00294236
0.00291231
0.00288261
0.00285328
0.00282431
0.00279568
0.00276741
0.00273948
0.00271189
0.00268464
0.00265772
0.00263113
0.00260487
0.00257893
0.0025533
0.00252799
0.00250298
0.00247827
0.00245386
0.00242974
0.00240589
0.00238232
0.00235901
0.00233595
0.00231312
0.0022905
0.00226807
0.00224579
0.00222362
0.00220151
0.0021794
0.0021572
0.0021348
0.00211222
0.00208892
0.00205826
1.92686e-06
0.000110307
0.000242562
0.000369907
0.000495648
0.000620081
0.00074501
0.000874506
0.00101188
0.00115921
0.00131665
0.00147845
0.00162626
0.00176272
0.00189082
0.00201259
0.00212928
0.00224173
0.00235047
0.00245588
0.00255827
0.00265783
0.002755
0.00285014
0.00294352
0.0030354
0.00312596
0.00321536
0.00330375
0.00339121
0.00347782
0.00356363
0.00364866
0.00373291
0.00381636
0.00389896
0.00398067
0.0040614
0.0041411
0.00421966
0.004297
0.00437301
0.00444759
0.00452065
0.00459207
0.00466176
0.00472962
0.00479554
0.00485944
0.00492123
0.00498083
0.00503815
0.00509313
0.0051457
0.0051958
0.00524338
0.00528839
0.0053308
0.00537058
0.0054077
0.00544213
0.00547388
0.00550293
0.00552929
0.00555297
0.00557397
0.00559232
0.00560804
0.00562116
0.00563172
0.00563975
0.00564529
0.0056484
0.00564913
0.00564752
0.00564364
0.00563755
0.0056293
0.00561897
0.0056066
0.00559228
0.00557606
0.00555803
0.00553825
0.00551679
0.00549373
0.00546914
0.00544309
0.00541566
0.0053869
0.00535691
0.00532573
0.00529346
0.00526014
0.00522585
0.00519066
0.00515463
0.00511782
0.0050803
0.00504213
0.00500337
0.00496407
0.0049243
0.00488411
0.00484354
0.00480265
0.00476148
0.00472009
0.00467851
0.0046368
0.00459497
0.00455309
0.00451118
0.00446927
0.0044274
0.00438561
0.00434391
0.00430233
0.00426091
0.00421965
0.0041786
0.00413776
0.00409715
0.0040568
0.00401671
0.0039769
0.00393739
0.00389819
0.0038593
0.00382074
0.00378252
0.00374463
0.0037071
0.00366992
0.00363309
0.00359663
0.00356053
0.0035248
0.00348944
0.00345445
0.00341983
0.00338558
0.00335171
0.00331821
0.00328508
0.00325231
0.00321992
0.00318789
0.00315623
0.00312492
0.00309398
0.00306339
0.00303315
0.00300326
0.00297372
0.00294452
0.00291565
0.00288713
0.00285893
0.00283107
0.00280352
0.0027763
0.00274939
0.00272278
0.00269647
0.00267046
0.00264472
0.00261926
0.00259404
0.00256905
0.00254427
0.00251966
0.00249518
0.00247078
0.0024464
0.00242194
0.00239732
0.00237252
0.00234701
0.0023142
1.54347e-06
0.000102167
0.000232071
0.000359053
0.00048772
0.000618989
0.000755524
0.000899239
0.00105186
0.00121393
0.00138596
0.00155193
0.00170373
0.00184405
0.00197566
0.00210054
0.00222004
0.00233509
0.00244637
0.00255435
0.00265942
0.0027619
0.00286205
0.00296005
0.00305634
0.0031512
0.00324486
0.00333753
0.00342933
0.00352038
0.00361075
0.00370047
0.00378958
0.00387804
0.00396583
0.00405291
0.0041392
0.00422463
0.00430909
0.0043925
0.00447475
0.00455573
0.00463531
0.0047134
0.00478987
0.00486462
0.00493753
0.00500849
0.00507742
0.00514421
0.00520877
0.00527101
0.00533087
0.00538826
0.00544313
0.00549542
0.00554508
0.00559206
0.00563634
0.00567788
0.00571666
0.00575268
0.00578592
0.00581638
0.00584407
0.00586901
0.00589121
0.00591068
0.00592748
0.00594161
0.00595312
0.00596206
0.00596847
0.00597239
0.00597388
0.00597301
0.00596985
0.00596441
0.00595679
0.00594704
0.00593523
0.00592143
0.00590571
0.00588813
0.00586878
0.00584772
0.00582503
0.00580077
0.00577502
0.00574785
0.00571933
0.00568953
0.00565851
0.00562635
0.00559311
0.00555886
0.00552367
0.00548759
0.0054507
0.00541305
0.00537471
0.00533573
0.00529617
0.00525609
0.00521553
0.00517455
0.0051332
0.00509153
0.00504958
0.0050074
0.00496502
0.00492249
0.00487985
0.00483713
0.00479437
0.0047516
0.00470886
0.00466616
0.00462355
0.00458104
0.00453866
0.00449644
0.00445439
0.00441253
0.00437089
0.00432948
0.00428831
0.00424741
0.00420678
0.00416643
0.00412639
0.00408664
0.00404722