/*--------------------------------*- C++ -*----------------------------------*\
| =========                 |                                                 |
| \\      /  F ield         | OpenFOAM: The Open Source CFD Toolbox           |
|  \\    /   O peration     | Version:  v2012                                 |
|   \\  /    A nd           | Website:  www.openfoam.com                      |
|    \\/     M anipulation  |                                                 |
\*---------------------------------------------------------------------------*/
FoamFile
{
    version     2.0;
    format      ascii;
    class       volScalarField;
    location    "2700";
    object      nut;
}
// * * * * * * * * * * * * * * * * * * * * * * * * * * * * * * * * * * * * * //

dimensions      [0 2 -1 0 0 0 0];


internalField   nonuniform List<scalar> 
12225
(
0.0122671
0.00158819
0.000666128
0.000410104
0.00029404
0.000227808
0.000186418
0.000144343
0.000166318
0.000215672
0.000223825
0.000214193
0.000195171
0.000167532
0.000161405
0.000145535
0.000132334
0.000120161
0.0323823
0.00744532
0.00330638
0.00204329
0.00146802
0.00114429
0.00093866
0.000784862
0.000690367
0.000626881
0.000569545
0.000518717
0.000475217
0.000435572
0.00040498
0.000372255
0.00034712
0.00032111
0.0490123
0.01515
0.00728196
0.00457854
0.00330639
0.00258047
0.00211327
0.00178187
0.00154674
0.00137249
0.00123146
0.00111529
0.00101836
0.00093611
0.0008667
0.000804299
0.000753566
0.000701009
0.063054
0.0237783
0.0122894
0.00788814
0.00573397
0.00448496
0.0036744
0.00310418
0.00268715
0.00236995
0.0021179
0.00191315
0.00174402
0.00160222
0.00148243
0.00137861
0.00129107
0.00120453
0.074932
0.0328517
0.0181452
0.0119262
0.00874549
0.00686412
0.00563086
0.00476129
0.00411867
0.0036257
0.00323515
0.00291875
0.002658
0.00244005
0.00225597
0.00209833
0.00196335
0.00183981
0.0849536
0.0420208
0.0246655
0.0166359
0.0123325
0.00972587
0.0079954
0.00676739
0.00585402
0.00515004
0.0045919
0.00413983
0.00376743
0.00345635
0.00319352
0.00296907
0.00277613
0.00260657
0.0933822
0.0510219
0.0316642
0.0219415
0.016474
0.0130717
0.0107779
0.00913539
0.00790597
0.00695436
0.00619832
0.00558532
0.00508009
0.00465802
0.00430137
0.00399702
0.00373534
0.00350913
0.0993794
0.0583363
0.0378386
0.0268568
0.0204171
0.0163053
0.0134892
0.011453
0.00991905
0.0087267
0.00777696
0.00700569
0.00636943
0.00583762
0.00538816
0.00500468
0.00467516
0.00439182
0.104023
0.0645454
0.0433804
0.0314239
0.0241571
0.0194092
0.0161097
0.0137018
0.0118767
0.0104523
0.00931473
0.0083894
0.00762524
0.00698615
0.00644586
0.00598491
0.00558899
0.00524916
0.108368
0.0708939
0.0493757
0.0365496
0.0284517
0.0230231
0.0191863
0.0163548
0.0141927
0.0124969
0.0111382
0.0100306
0.00911456
0.00834784
0.00769937
0.00714607
0.00667097
0.00626328
0.112368
0.0772557
0.0557282
0.0421918
0.0332976
0.0271652
0.0227468
0.0194433
0.0168984
0.0148904
0.013275
0.0119546
0.0108606
0.00994396
0.00916816
0.00850607
0.00793759
0.0074494
0.115994
0.0834975
0.0623053
0.0482611
0.0386474
0.0318167
0.026789
0.0229739
0.0200047
0.0176453
0.0157379
0.0141737
0.012875
0.0117851
0.010862
0.0100738
0.0093969
0.00881485
0.119234
0.0894856
0.0689377
0.0546109
0.0443919
0.0369007
0.0312597
0.0269089
0.0234837
0.02074
0.0185097
0.0166735
0.015145
0.0138601
0.0127705
0.0118397
0.0110398
0.010351
0.122086
0.095084
0.075415
0.0610223
0.0503361
0.0422535
0.0360231
0.0311353
0.0272402
0.0240931
0.0215191
0.0193909
0.0176141
0.0161175
0.0148467
0.0137601
0.0128258
0.0120198
0.124546
0.100135
0.0814619
0.0671726
0.056158
0.047577
0.0408126
0.0354174
0.031066
0.0275197
0.0246013
0.0221778
0.0201482
0.018435
0.0169783
0.0157315
0.0146584
0.0137312
0.126578
0.104396
0.0866605
0.0725515
0.0613228
0.0523526
0.0451453
0.0393148
0.0345631
0.0306611
0.0274325
0.024741
0.0224806
0.020569
0.0189413
0.0175468
0.0163455
0.0153062
0.128011
0.107322
0.0902141
0.0762353
0.0648743
0.0556509
0.0481493
0.0420254
0.0370012
0.0328553
0.0294126
0.0265352
0.0241143
0.0220643
0.0203171
0.0188191
0.0175275
0.0164083
0.128006
0.107313
0.0902048
0.0762269
0.0648674
0.0556454
0.048145
0.0420221
0.0369988
0.0328537
0.0294117
0.0265349
0.0241147
0.0220651
0.0203184
0.0188205
0.0175286
0.0164082
0.126509
0.104255
0.0864922
0.0723807
0.0611613
0.052205
0.0450128
0.0391967
0.0344584
0.0305685
0.0273506
0.0246684
0.0224163
0.0205118
0.0188902
0.0175006
0.0163023
0.015263
0.124267
0.0995604
0.0807712
0.0664676
0.0554886
0.0469631
0.0402594
0.0349228
0.0306248
0.0271258
0.0242487
0.0218611
0.0198625
0.0181762
0.0167425
0.0155151
0.0144574
0.0135404
0.12136
0.0936399
0.0737261
0.0593348
0.0487592
0.0408248
0.0347467
0.0300003
0.0262308
0.0231928
0.0207127
0.018665
0.0169572
0.0155197
0.0142998
0.0132566
0.0123582
0.0115797
0.117686
0.0865903
0.0656967
0.0514791
0.0415374
0.0343608
0.0290183
0.0249322
0.0217348
0.0191848
0.0171184
0.0154211
0.0140105
0.0128263
0.0118228
0.0109656
0.0102279
0.00958885
0.11305
0.0784122
0.056921
0.0432687
0.0342296
0.0279652
0.0234365
0.0200435
0.0174263
0.0153598
0.0136967
0.012337
0.0112107
0.0102671
0.00946865
0.00878716
0.00820096
0.00769339
0.107169
0.0691009
0.0476371
0.035029
0.0271566
0.021922
0.0182437
0.0155401
0.0134818
0.0118708
0.0105819
0.00953233
0.00866517
0.00793989
0.00732686
0.0068039
0.00635418
0.00596494
0.0996761
0.0587036
0.0381279
0.0270699
0.0205782
0.0164329
0.0135949
0.0115437
0.00999935
0.00879954
0.00784424
0.00706856
0.00642885
0.0058944
0.00544298
0.00505791
0.0047268
0.00444036
0.0901097
0.0473665
0.0287363
0.0196847
0.0146976
0.0116311
0.00957849
0.0081152
0.0070235
0.00618081
0.00551237
0.00497027
0.00452353
0.00415035
0.00383528
0.00356624
0.00333493
0.0031349
0.0779076
0.0353826
0.0198606
0.0131383
0.00966105
0.00759295
0.00623348
0.00527409
0.00456424
0.00402037
0.00359045
0.00324083
0.00295227
0.00271073
0.00250694
0.00233189
0.00218173
0.00205174
0.06238
0.0232554
0.0119461
0.00765493
0.00556336
0.00435253
0.00356719
0.00301614
0.0026133
0.00231033
0.00207207
0.00187465
0.0017106
0.00157184
0.0014556
0.00135292
0.00126567
0.00118919
0.0426105
0.0117794
0.0054693
0.00341385
0.0024607
0.00192004
0.00157265
0.00132941
0.00115829
0.00104118
0.000949664
0.00086468
0.000793207
0.000727294
0.000676548
0.000628206
0.000582228
0.000544544
0.0168348
0.00255985
0.00110002
0.000683429
0.000493725
0.00038681
0.000318007
0.000268386
0.000267477
0.00033589
0.000375118
0.000352419
0.00032595
0.000271052
0.000310777
0.000301053
0.000235847
0.00026029
5.2897e-10
1.01587e-07
1.14813e-06
5.17005e-06
9.86296e-06
1.28052e-05
1.31287e-05
1.11703e-05
8.84838e-06
5.76836e-06
3.39677e-06
1.93883e-06
1.35822e-06
1.47296e-06
2.01092e-06
2.48093e-06
2.41349e-06
1.63495e-06
7.30498e-07
3.70637e-07
4.11468e-07
1.22138e-06
5.52473e-06
2.8396e-05
5.71824e-05
7.50051e-05
9.13933e-05
0.000105188
0.000117328
0.000127442
0.000136301
0.000143914
0.000150575
0.000156377
0.000161439
0.000165909
0.00016987
0.000173409
0.000176583
0.000179434
0.000181992
0.00018428
0.000186315
0.000188114
0.00018969
0.000191058
0.000192226
0.000193202
0.000193984
0.000194567
0.000194829
0.000195079
0.000195127
0.000194999
0.0001947
0.000194253
0.000193653
0.000192905
0.00019201
0.000190971
0.000189789
0.000188466
0.000187005
0.000185408
0.000183678
0.000181817
0.000179826
0.000177707
0.000175463
0.000173097
0.000170609
0.000168002
0.000165278
0.000162438
0.000159483
0.000156412
0.000153226
0.000149925
0.000146506
0.00014297
0.000139313
0.000135536
0.000131635
0.000127607
0.000123446
0.000119145
0.000114689
0.000110063
0.000105243
0.000100203
9.49125e-05
8.93449e-05
8.34934e-05
7.7427e-05
7.14269e-05
6.61697e-05
6.24435e-05
6.0121e-05
5.83737e-05
5.67689e-05
5.51928e-05
5.36244e-05
5.20622e-05
5.05079e-05
4.89632e-05
4.74304e-05
4.5912e-05
4.44144e-05
4.2966e-05
4.1734e-05
4.05295e-05
3.93401e-05
3.81677e-05
3.70134e-05
3.58778e-05
3.47619e-05
3.36662e-05
3.25918e-05
3.15389e-05
3.05083e-05
2.95001e-05
2.8515e-05
2.75535e-05
2.66162e-05
2.57029e-05
2.48135e-05
2.39492e-05
2.31409e-05
2.2407e-05
2.16919e-05
2.09912e-05
2.03137e-05
1.96641e-05
1.90291e-05
1.84084e-05
1.7805e-05
1.72194e-05
1.66521e-05
1.61028e-05
1.55711e-05
1.50567e-05
1.45592e-05
1.4078e-05
1.36128e-05
1.31631e-05
1.27286e-05
1.23087e-05
1.19032e-05
1.15116e-05
1.11336e-05
1.07688e-05
1.04169e-05
1.00776e-05
9.75044e-06
9.43521e-06
9.1316e-06
8.83936e-06
8.55822e-06
8.28797e-06
8.02837e-06
7.77928e-06
7.54045e-06
7.3118e-06
7.09305e-06
6.88409e-06
6.68456e-06
6.49425e-06
6.31262e-06
6.13923e-06
5.97327e-06
5.81385e-06
5.65987e-06
5.50928e-06
5.36194e-06
5.20849e-06
5.06466e-06
4.86123e-06
4.71914e-06
4.30485e-06
3.68178e-06
3.34257e-09
6.03875e-06
6.15703e-05
0.000137862
0.0001819
0.000206011
0.000215533
0.000214034
0.000205556
0.000188725
0.000167811
0.000147699
0.000137579
0.000143059
0.000156908
0.00016532
0.000167427
0.000168287
0.000173764
0.000183532
0.000199765
0.000218066
0.000235165
0.000251142
0.000262456
0.000272241
0.000281087
0.000294262
0.000313155
0.000327059
0.000339734
0.000350619
0.000360521
0.000369577
0.000377452
0.000384643
0.000391343
0.000397774
0.000404065
0.000410281
0.000416417
0.000422428
0.000428264
0.000433883
0.000439257
0.00044437
0.000449206
0.000453753
0.000458012
0.00046199
0.000465696
0.00046915
0.000472343
0.000475284
0.000477974
0.000480415
0.000482607
0.000484552
0.000486249
0.000487699
0.000488903
0.000489861
0.000490576
0.000491052
0.0004913
0.000491324
0.000491119
0.000490681
0.000490027
0.00048916
0.000488087
0.000486813
0.000485346
0.000483691
0.000481857
0.00047985
0.000477678
0.000475347
0.000472866
0.000470242
0.000467484
0.0004646
0.000461599
0.000458489
0.000455279
0.000451977
0.000448591
0.000445129
0.000441598
0.000438006
0.000434358
0.000430659
0.000426908
0.000423099
0.000419212
0.00041522
0.000411109
0.000406908
0.000402666
0.000398409
0.000394144
0.000389875
0.000385604
0.000381337
0.000377075
0.000372823
0.000368584
0.000364358
0.000360148
0.000355949
0.000351774
0.000347626
0.000343507
0.00033942
0.000335366
0.000331346
0.000327362
0.000323416
0.000319509
0.000315642
0.000311816
0.000308032
0.000304291
0.000300594
0.000296942
0.000293335
0.000289772
0.000286252
0.000282774
0.000279341
0.00027595
0.000272611
0.000269324
0.000266074
0.000262861
0.00025969
0.000256563
0.00025348
0.000250443
0.000247451
0.000244503
0.000241598
0.000238737
0.000235917
0.00023314
0.000230403
0.000227707
0.000225051
0.000222434
0.000219856
0.000217318
0.000214819
0.000212358
0.000209935
0.000207552
0.000205207
0.000202902
0.000200637
0.000198412
0.00019623
0.000194091
0.000191997
0.00018995
0.000187952
0.000186003
0.000184107
0.000182264
0.000180474
0.000178736
0.000177049
0.000175409
0.000173814
0.000172244
0.00017073
0.000169137
0.000167796
0.000165743
0.000165156
0.000162108
0.000160616
7.63459e-08
3.98508e-05
0.000162915
0.000245631
0.000298896
0.000329088
0.000339972
0.000336953
0.000323953
0.000304605
0.0002849
0.000272501
0.000270554
0.000277535
0.000288081
0.00029912
0.00031218
0.00032934
0.000350991
0.000376353
0.000403784
0.000431998
0.000471287
0.000517463
0.000563059
0.000607135
0.000650191
0.000693837
0.0007329
0.000763974
0.00078881
0.000808505
0.000824123
0.000836519
0.000846475
0.000854761
0.000862074
0.000869055
0.000876237
0.000883971
0.000892362
0.000901285
0.0009105
0.000919773
0.000928926
0.00093784
0.00094644
0.000954678
0.000962516
0.000969929
0.000976889
0.000983375
0.000989377
0.00099489
0.000999913
0.00100444
0.00100848
0.00101203
0.00101508
0.00101765
0.00101971
0.00102129
0.00102237
0.00102291
0.00102307
0.00102278
0.00102199
0.00102074
0.00101905
0.00101693
0.00101439
0.00101145
0.00100811
0.00100439
0.00100031
0.000995872
0.000991102
0.000986011
0.000980613
0.000974925
0.000968961
0.000962736
0.000956266
0.000949567
0.000942654
0.000935541
0.000928244
0.000920775
0.00091315
0.00090538
0.000897477
0.000889453
0.000881317
0.000873077
0.000864741
0.000856319
0.000847824
0.000839272
0.000830679
0.000822058
0.000813421
0.000804775
0.000796129
0.000787491
0.000778867
0.000770266
0.000761692
0.000753152
0.000744652
0.000736198
0.000727794
0.000719447
0.000711161
0.000702939
0.000694786
0.000686705
0.000678698
0.00067077
0.000662923
0.000655158
0.000647478
0.000639885
0.00063238
0.000624966
0.000617644
0.000610414
0.000603276
0.000596231
0.000589281
0.000582424
0.000575661
0.000568993
0.000562419
0.000555932
0.000549532
0.000543222
0.000537002
0.000530874
0.000524838
0.000518892
0.000513037
0.000507272
0.000501594
0.000496003
0.000490497
0.000485077
0.000479739
0.000474483
0.000469308
0.000464214
0.000459198
0.00045426
0.000449399
0.000444614
0.000439904
0.000435267
0.000430703
0.00042621
0.000421786
0.000417432
0.000413145
0.000408924
0.000404766
0.00040067
0.000396633
0.000392652
0.000388722
0.000384838
0.000380994
0.000377181
0.000373387
0.000369597
0.000365786
0.000361943
0.000357969
0.000353961
0.000349422
0.000345169
0.000338622
0.000326903
6.16397e-07
8.21683e-05
0.000213027
0.000308848
0.00037228
0.000409357
0.000424639
0.000424851
0.000414749
0.000401418
0.000393585
0.00039302
0.000402623
0.000420122
0.000443115
0.000471099
0.00050466
0.000544068
0.000588492
0.000652291
0.000726397
0.000806356
0.000890227
0.000960485
0.00102265
0.00107854
0.00112875
0.00117347
0.00121255
0.00124628
0.00127539
0.00130063
0.00132268
0.00134217
0.00135967
0.00137567
0.00139058
0.00140473
0.00141839
0.00143174
0.0014449
0.00145795
0.00147091
0.00148376
0.00149646
0.00150891
0.00152104
0.00153274
0.00154393
0.00155452
0.00156447
0.00157374
0.00158232
0.00159017
0.00159731
0.00160372
0.00160939
0.00161432
0.00161852
0.00162198
0.0016247
0.00162668
0.00162783
0.00162827
0.00162814
0.00162722
0.0016256
0.00162327
0.00162027
0.00161661
0.00161231
0.00160739
0.00160186
0.00159576
0.0015891
0.0015819
0.00157419
0.00156599
0.00155732
0.00154821
0.00153868
0.00152874
0.00151844
0.00150778
0.00149679
0.0014855
0.00147392
0.00146208
0.00145
0.0014377
0.0014252
0.00141251
0.00139966
0.00138666
0.00137352
0.00136027
0.00134692
0.00133349
0.00131999
0.00130646
0.0012929
0.00127933
0.00126575
0.00125219
0.00123865
0.00122515
0.0012117
0.00119829
0.00118495
0.00117169
0.0011585
0.0011454
0.00113239
0.00111949
0.00110669
0.001094
0.00108144
0.00106899
0.00105666
0.00104447
0.00103241
0.00102048
0.00100869
0.000997039
0.00098553
0.000974163
0.000962941
0.000951863
0.00094093
0.000930144
0.000919504
0.00090901
0.000898659
0.000888447
0.000878375
0.000868442
0.00085865
0.000848999
0.000839489
0.00083012
0.000820889
0.000811797
0.00080284
0.000794017
0.000785327
0.000776768
0.000768338
0.000760034
0.000751856
0.000743802
0.00073587
0.000728057
0.000720364
0.000712786
0.000705324
0.000697975
0.000690736
0.000683607
0.000676584
0.000669666
0.000662851
0.000656134
0.000649515
0.000642989
0.000636551
0.000630197
0.000623922
0.000617716
0.000611571
0.000605475
0.00059941
0.000593357
0.000587284
0.000581158
0.000574904
0.000568499
0.000561662
0.000554653
0.000546201
0.000529941
1.39991e-06
0.000101874
0.00023494
0.000354676
0.000433301
0.000480515
0.000503942
0.00051234
0.000513971
0.000515194
0.000522449
0.000539027
0.000565499
0.000600874
0.000644384
0.00069607
0.000756738
0.000840639
0.000936715
0.00103246
0.00112123
0.00120539
0.00128447
0.00135691
0.00142344
0.00148465
0.00154094
0.00159263
0.00164009
0.00168373
0.00172406
0.00176155
0.00179662
0.00182965
0.00186094
0.00189075
0.00191927
0.00194664
0.00197295
0.00199826
0.00202261
0.00204601
0.00206845
0.00208991
0.00211037
0.0021298
0.00214816
0.00216544
0.00218159
0.00219661
0.00221048
0.00222321
0.0022348
0.00224527
0.00225464
0.00226292
0.00227013
0.0022763
0.00228142
0.00228552
0.00228862
0.00229066
0.00229158
0.00229166
0.00229078
0.0022889
0.00228607
0.00228229
0.0022776
0.00227201
0.00226556
0.00225827
0.00225017
0.00224129
0.00223165
0.00222129
0.00221025
0.00219854
0.0021862
0.00217327
0.00215977
0.00214573
0.00213119
0.00211617
0.00210072
0.00208485
0.0020686
0.002052
0.00203508
0.00201786
0.00200037
0.00198264
0.00196469
0.00194655
0.00192824
0.00190979
0.0018912
0.00187252
0.00185376
0.00183495
0.00181611
0.00179724
0.00177839
0.00175955
0.00174075
0.001722
0.00170331
0.0016847
0.00166618
0.00164776
0.00162945
0.00161126
0.0015932
0.00157529
0.00155751
0.0015399
0.00152244
0.00150515
0.00148804
0.0014711
0.00145434
0.00143776
0.00142138
0.00140518
0.00138918
0.00137338
0.00135777
0.00134236
0.00132715
0.00131213
0.00129732
0.00128271
0.00126829
0.00125407
0.00124004
0.0012262
0.00121255
0.0011991
0.00118584
0.00117276
0.00115988
0.00114719
0.00113468
0.00112235
0.00111021
0.00109824
0.00108644
0.00107482
0.00106338
0.00105209
0.00104098
0.00103003
0.00101923
0.0010086
0.00099812
0.000987794
0.000977617
0.000967588
0.000957704
0.00094796
0.000938355
0.000928884
0.000919544
0.000910329
0.000901235
0.000892256
0.000883384
0.000874609
0.000865921
0.000857303
0.000848739
0.000840202
0.000831658
0.000823066
0.000814354
0.000805462
0.000796186
0.000786562
0.000776392
0.000756608
2.32641e-06
0.000118235
0.000256275
0.000389892
0.000486708
0.000548407
0.000586154
0.000609641
0.000627575
0.000647214
0.000673758
0.000709798
0.000756032
0.000812728
0.000880433
0.000971356
0.00107676
0.00117841
0.0012775
0.00137276
0.00146323
0.00154901
0.00163004
0.00170629
0.00177806
0.00184571
0.00190958
0.00196999
0.00202729
0.00208179
0.00213383
0.00218368
0.0022316
0.00227779
0.00232241
0.00236558
0.0024074
0.0024479
0.00248714
0.0025251
0.00256179
0.00259719
0.00263127
0.002664
0.00269533
0.00272522
0.00275365
0.00278055
0.0028059
0.00282967
0.00285183
0.00287235
0.00289121
0.00290842
0.00292395
0.00293782
0.00295002
0.00296056
0.00296946
0.00297672
0.00298238
0.00298646
0.00298888
0.00298978
0.00298932
0.00298734
0.002984
0.00297929
0.00297329
0.00296603
0.00295758
0.00294798
0.00293729
0.00292556
0.00291284
0.00289917
0.0028846
0.00286918
0.00285295
0.00283595
0.00281823
0.00279983
0.0027808
0.00276116
0.00274096
0.00272025
0.00269906
0.00267742
0.00265539
0.00263298
0.00261025
0.00258721
0.00256391
0.00254038
0.00251664
0.00249273
0.00246867
0.0024445
0.00242024
0.00239591
0.00237155
0.00234718
0.00232281
0.00229848
0.00227419
0.00224997
0.00222584
0.00220181
0.0021779
0.00215412
0.00213048
0.002107
0.00208369
0.00206056
0.00203762
0.00201487
0.00199234
0.00197001
0.00194791
0.00192603
0.00190438
0.00188297
0.0018618
0.00184087
0.00182019
0.00179975
0.00177957
0.00175964
0.00173996
0.00172053
0.00170136
0.00168244
0.00166377
0.00164535
0.00162717
0.00160924
0.00159155
0.0015741
0.0015569
0.00153994
0.00152322
0.00150673
0.00149048
0.00147446
0.00145866
0.00144309
0.00142775
0.00141261
0.0013977
0.001383
0.0013685
0.00135421
0.00134012
0.00132623
0.00131254
0.00129904
0.00128572
0.00127259
0.00125965
0.00124688
0.00123428
0.00122185
0.00120959
0.00119749
0.00118554
0.00117373
0.00116207
0.00115053
0.0011391
0.00112778
0.00111653
0.00110533
0.00109414
0.00108293
0.00107161
0.00106013
0.0010483
0.00103613
0.00102383
0.00100138
2.79515e-06
0.000126797
0.000269185
0.000407492
0.000526075
0.000607471
0.000663642
0.000705749
0.000743038
0.000782751
0.000829905
0.000887404
0.000956971
0.00104973
0.00115702
0.00126365
0.00136972
0.00147297
0.00157288
0.00166905
0.00176125
0.0018495
0.00193388
0.00201457
0.0020918
0.00216586
0.002237
0.00230552
0.00237165
0.00243563
0.00249767
0.00255795
0.00261662
0.00267379
0.00272955
0.00278395
0.00283702
0.00288879
0.00293923
0.00298834
0.00303609
0.00308243
0.00312732
0.00317072
0.00321256
0.0032528
0.00329138
0.00332826
0.00336338
0.00339669
0.00342816
0.00345773
0.00348539
0.00351109
0.00353481
0.00355654
0.00357624
0.00359393
0.00360958
0.00362321
0.00363481
0.00364439
0.00365197
0.00365759
0.00366124
0.00366286
0.00366277
0.00366078
0.00365701
0.00365149
0.00364428
0.00363543
0.00362501
0.00361308
0.00359969
0.00358492
0.00356883
0.00355148
0.00353295
0.00351329
0.00349259
0.0034709
0.00344829
0.00342482
0.00340057
0.00337559
0.00334994
0.00332368
0.00329687
0.00326956
0.0032418
0.00321364
0.00318513
0.00315632
0.00312723
0.00309792
0.00306842
0.00303877
0.003009
0.00297915
0.00294925
0.00291932
0.00288941
0.00285953
0.00282971
0.00279996
0.00277032
0.00274081
0.00271143
0.00268221
0.00265317
0.00262432
0.00259567
0.00256724
0.00253903
0.00251107
0.00248335
0.0024559
0.00242871
0.00240179
0.00237515
0.0023488
0.00232274
0.00229697
0.0022715
0.00224632
0.00222145
0.00219688
0.00217262
0.00214866
0.00212501
0.00210166
0.00207861
0.00205586
0.0020334
0.00201125
0.00198938
0.00196781
0.00194654
0.00192555
0.00190485
0.00188443
0.00186429
0.00184443
0.00182484
0.00180552
0.00178647
0.00176768
0.00174915
0.00173087
0.00171284
0.00169506
0.00167752
0.00166022
0.00164316
0.00162633
0.00160972
0.00159333
0.00157717
0.00156121
0.00154547
0.00152993
0.00151459
0.00149945
0.00148449
0.00146971
0.0014551
0.00144065
0.00142634
0.00141216
0.00139808
0.00138409
0.00137013
0.00135617
0.00134213
0.00132795
0.00131346
0.00129871
0.00128365
0.0012594
2.94023e-06
0.000128677
0.000270512
0.000407005
0.000537611
0.000641189
0.000718492
0.000780085
0.000836148
0.000894396
0.00096284
0.00105547
0.00116564
0.00128716
0.00140267
0.00151386
0.0016216
0.00172604
0.00182715
0.00192486
0.00201919
0.00211024
0.00219814
0.00228309
0.00236531
0.00244501
0.00252244
0.00259779
0.00267125
0.00274301
0.00281319
0.00288192
0.00294929
0.00301535
0.00308016
0.00314373
0.00320606
0.00326713
0.00332692
0.00338539
0.00344249
0.00349815
0.00355234
0.00360497
0.00365598
0.00370532
0.00375291
0.0037987
0.00384261
0.00388459
0.00392459
0.00396256
0.00399844
0.00403219
0.00406379
0.00409318
0.00412036
0.00414529
0.00416796
0.00418837
0.00420649
0.00422234
0.00423593
0.00424726
0.00425634
0.00426321
0.00426794
0.00427039
0.00427082
0.00426918
0.00426551
0.00425986
0.0042523
0.00424286
0.00423163
0.00421866
0.00420401
0.00418775
0.00416995
0.00415068
0.00413001
0.00410801
0.00408476
0.00406033
0.00403479
0.00400821
0.00398066
0.00395222
0.00392294
0.00389291
0.00386218
0.00383082
0.00379888
0.00376644
0.00373354
0.00370024
0.00366659
0.00363266
0.00359848
0.0035641
0.00352957
0.00349494
0.00346024
0.0034255
0.00339077
0.00335607
0.00332144
0.00328691
0.00325249
0.00321823
0.00318413
0.00315022
0.00311652
0.00308304
0.00304981
0.00301683
0.00298413
0.00295171
0.00291958
0.00288775
0.00285624
0.00282505
0.00279418
0.00276364
0.00273344
0.00270358
0.00267406
0.00264489
0.00261606
0.00258759
0.00255946
0.00253168
0.00250424
0.00247715
0.00245041
0.002424
0.00239793
0.00237221
0.00234681
0.00232176
0.00229703
0.00227263
0.00224855
0.0022248
0.00220136
0.00217823
0.00215541
0.00213289
0.00211068
0.00208876
0.00206713
0.00204578
0.00202472
0.00200394
0.00198343
0.00196319
0.00194321
0.0019235
0.00190404
0.00188483
0.00186586
0.00184714
0.00182865
0.00181039
0.00179235
0.00177452
0.00175689
0.00173946
0.0017222
0.0017051
0.00168813
0.00167127
0.00165448
0.0016377
0.00162088
0.00160393
0.00158672
0.00156931
0.00155135
0.00152519
2.75602e-06
0.00012517
0.000263818
0.000395357
0.000519896
0.000632176
0.000726115
0.000807607
0.00089154
0.000987476
0.0010973
0.00122243
0.00135892
0.00148633
0.00160653
0.00172145
0.00183206
0.0019387
0.00204172
0.00214146
0.00223815
0.00233198
0.00242316
0.0025119
0.0025984
0.00268286
0.00276548
0.00284643
0.00292587
0.00300391
0.00308068
0.00315624
0.00323065
0.00330395
0.00337614
0.00344723
0.00351718
0.00358597
0.00365354
0.00371983
0.00378479
0.00384834
0.0039104
0.0039709
0.00402976
0.00408691
0.00414226
0.00419574
0.00424728
0.00429681
0.00434425
0.00438956
0.00443268
0.00447355
0.00451213
0.00454837
0.00458225
0.00461373
0.00464279
0.00466942
0.0046936
0.00471532
0.0047346
0.00475143
0.00476583
0.00477782
0.00478743
0.00479466
0.00479959
0.00480216
0.00480255
0.00480073
0.00479677
0.0047907
0.0047826
0.00477252
0.00476051
0.00474666
0.00473102
0.00471366
0.00469465
0.00467406
0.00465197
0.00462844
0.00460355
0.00457738
0.00454999
0.00452146
0.00449186
0.00446127
0.00442974
0.00439736
0.00436418
0.00433027
0.0042957
0.00426053
0.00422483
0.00418864
0.00415203
0.00411506
0.00407778
0.00404023
0.00400248
0.00396456
0.00392652
0.0038884
0.00385025
0.00381209
0.00377396
0.0037359
0.00369794
0.0036601
0.00362241
0.0035849
0.0035476
0.00351051
0.00347366
0.00343707
0.00340076
0.00336473
0.00332901
0.0032936
0.00325851
0.00322376
0.00318935
0.00315529
0.00312159
0.00308824
0.00305526
0.00302265
0.0029904
0.00295853
0.00292703
0.0028959
0.00286515
0.00283476
0.00280474
0.00277509
0.00274581
0.00271689
0.00268834
0.00266014
0.00263231
0.00260482
0.00257769
0.0025509
0.00252446
0.00249835
0.00247258
0.00244713
0.00242202
0.00239722
0.00237274
0.00234857
0.00232471
0.00230116
0.0022779
0.00225494
0.00223226
0.00220987
0.00218776
0.00216592
0.00214435
0.00212304
0.00210198
0.00208117
0.00206059
0.00204024
0.00202008
0.00200012
0.00198031
0.00196064
0.00194106
0.00192151
0.00190194
0.00188227
0.00186237
0.00184229
0.00182153
0.00179318
2.33965e-06
0.000117878
0.00025265
0.000380669
0.000503551
0.00062006
0.000731057
0.000840548
0.000955959
0.00108233
0.00122083
0.00137089
0.00151309
0.00164496
0.00176912
0.00188744
0.00200106
0.00211059
0.00221644
0.0023188
0.00241808
0.00251467
0.00260886
0.0027009
0.00279103
0.00287946
0.00296635
0.00305188
0.00313617
0.00321933
0.00330145
0.00338259
0.00346277
0.00354201
0.0036203
0.00369762
0.00377392
0.00384916
0.00392327
0.00399617
0.00406779
0.00413803
0.00420682
0.00427405
0.00433964
0.0044035
0.00446554
0.00452567
0.00458381
0.00463989
0.00469381
0.00474552
0.00479495
0.00484205
0.00488675
0.00492902
0.0049688
0.00500607
0.00504081
0.00507298
0.00510257
0.00512958
0.005154
0.00517584
0.0051951
0.0052118
0.00522597
0.00523762
0.0052468
0.00525352
0.00525784
0.00525977
0.00525943
0.00525682
0.005252
0.00524504
0.00523598
0.0052249
0.00521186
0.00519693
0.00518016
0.00516164
0.00514144
0.00511962
0.00509626
0.00507143
0.00504521
0.00501766
0.00498886
0.00495889
0.0049278
0.00489568
0.00486259
0.00482859
0.00479376
0.00475816
0.00472185
0.0046849
0.00464737
0.00460931
0.0045708
0.00453187
0.00449259
0.00445301
0.00441318
0.00437314
0.00433293
0.00429261
0.00425221
0.00421177
0.00417133
0.00413092
0.00409058
0.00405033
0.0040102
0.00397022
0.00393042
0.00389082
0.00385143
0.00381229
0.0037734
0.00373478
0.00369646
0.00365843
0.00362072
0.00358334
0.00354629
0.00350958
0.00347322
0.00343723
0.00340159
0.00336632
0.00333143
0.0032969
0.00326275
0.00322897
0.00319557
0.00316255
0.00312991
0.00309764
0.00306575
0.00303423
0.00300309
0.00297231
0.00294191
0.00291187
0.00288219
0.00285287
0.0028239
0.00279529
0.00276703
0.00273911
0.00271153
0.00268428
0.00265737
0.00263079
0.00260453
0.00257858
0.00255296
0.00252764
0.00250263
0.00247792
0.0024535
0.00242937
0.00240552
0.00238194
0.00235862
0.00233555
0.0023127
0.00229007
0.00226762
0.00224533
0.00222314
0.00220102
0.00217888
0.00215667
0.00213425
0.00211166
0.00208834
0.00205766
1.92494e-06
0.000110221
0.000242419
0.00036972
0.000495461
0.00061997
0.000745165
0.000874922
0.00101269
0.00116041
0.00131826
0.00147988
0.0016275
0.00176381
0.0018918
0.00201345
0.00213004
0.00224238
0.002351
0.0024563
0.00255858
0.00265803
0.0027551
0.00285013
0.00294342
0.0030352
0.00312567
0.00321499
0.0033033
0.00339069
0.00347723
0.00356298
0.00364795
0.00373215
0.00381555
0.0038981
0.00397977
0.00406047
0.00414013
0.00421866
0.00429597
0.00437196
0.00444652
0.00451955
0.00459096
0.00466063
0.00472847
0.00479439
0.00485828
0.00492006
0.00497965
0.00503696
0.00509193
0.0051445
0.0051946
0.00524217
0.00528719
0.0053296
0.00536937
0.00540649
0.00544092
0.00547267
0.00550172
0.00552808
0.00555175
0.00557276
0.00559111
0.00560683
0.00561995
0.00563051
0.00563853
0.00564408
0.00564719
0.00564791
0.0056463
0.00564243
0.00563634
0.00562809
0.00561775
0.00560538
0.00559106
0.00557485
0.00555682
0.00553703
0.00551558
0.00549252
0.00546793
0.00544188
0.00541445
0.0053857
0.0053557
0.00532453
0.00529226
0.00525894
0.00522466
0.00518947
0.00515344
0.00511664
0.00507912
0.00504095
0.0050022
0.00496291
0.00492314
0.00488296
0.00484239
0.00480151
0.00476035
0.00471897
0.0046774
0.00463569
0.00459388
0.004552
0.0045101
0.0044682
0.00442635
0.00438456
0.00434287
0.00430131
0.00425989
0.00421865
0.00417761
0.00413678
0.00409619
0.00405585
0.00401578
0.00397599
0.00393649
0.00389731
0.00385844
0.00381989
0.00378169
0.00374382
0.00370631
0.00366914
0.00363234
0.0035959
0.00355982
0.00352411
0.00348877
0.0034538
0.0034192
0.00338497
0.00335112
0.00331763
0.00328452
0.00325177
0.00321939
0.00318738
0.00315572
0.00312443
0.0030935
0.00306291
0.00303268
0.0030028
0.00297326
0.00294407
0.00291521
0.00288668
0.00285849
0.00283062
0.00280307
0.00277584
0.00274893
0.00272231
0.002696
0.00266997
0.00264423
0.00261875
0.00259352
0.00256852
0.00254372
0.0025191
0.0024946
0.00247018
0.00244578
0.00242131
0.00239667
0.00237185
0.00234633
0.0023135
1.53496e-06
0.000102076
0.000231965
0.000358948
0.000487663
0.000619054
0.00075578
0.000899759
0.00105266
0.001215
0.00138728
0.00155306
0.00170467
0.00184484
0.00197632
0.00210109
0.00222049
0.00233543
0.0024466
0.00255448
0.00265945
0.00276183
0.00286188
0.00295979
0.00305598
0.00315075
0.00324434
0.00333693
0.00342866
0.00351964
0.00360994
0.00369961
0.00378865
0.00387707
0.00396482
0.00405185
0.0041381
0.00422349
0.00430793
0.00439131
0.00447353
0.00455448
0.00463404
0.00471211
0.00478857
0.0048633
0.00493619
0.00500715
0.00507607
0.00514285
0.0052074
0.00526964
0.00532949
0.00538688
0.00544174
0.00549403
0.00554368
0.00559066
0.00563494
0.00567648
0.00571526
0.00575128
0.00578452
0.00581498
0.00584267
0.00586761
0.0058898
0.00590928
0.00592607
0.00594021
0.00595172
0.00596066
0.00596707
0.00597099
0.00597248
0.00597161
0.00596845
0.00596301
0.00595539
0.00594564
0.00593384
0.00592004
0.00590431
0.00588674
0.00586739
0.00584633
0.00582364
0.00579939
0.00577364
0.00574647
0.00571795
0.00568815
0.00565714
0.00562499
0.00559175
0.00555751
0.00552232
0.00548625
0.00544936
0.00541172
0.00537338
0.00533441
0.00529486
0.00525478
0.00521423
0.00517326
0.00513192
0.00509026
0.00504832
0.00500614
0.00496378
0.00492126
0.00487863
0.00483592
0.00479317
0.00475042
0.00470768
0.004665