/*--------------------------------*- C++ -*----------------------------------*\
| =========                 |                                                 |
| \\      /  F ield         | OpenFOAM: The Open Source CFD Toolbox           |
|  \\    /   O peration     | Version:  v2012                                 |
|   \\  /    A nd           | Website:  www.openfoam.com                      |
|    \\/     M anipulation  |                                                 |
\*---------------------------------------------------------------------------*/
FoamFile
{
    version     2.0;
    format      ascii;
    class       volScalarField;
    location    "2700";
    object      nuTilda;
}
// * * * * * * * * * * * * * * * * * * * * * * * * * * * * * * * * * * * * * //

dimensions      [0 2 -1 0 0 0 0];


internalField   nonuniform List<scalar> 
12225
(
0.0122671
0.00158833
0.000666932
0.0004122
0.000298016
0.000234158
0.000195366
0.000157553
0.000177045
0.000222664
0.000230377
0.000221269
0.000203464
0.000178139
0.000172634
0.000158594
0.000147188
0.000136917
0.0323823
0.00744532
0.00330641
0.00204337
0.00146819
0.00114457
0.000939065
0.000785442
0.000691115
0.000627788
0.000570642
0.000520037
0.000476787
0.000437435
0.000407128
0.000374786
0.000350017
0.000324474
0.0490123
0.01515
0.00728196
0.00457856
0.00330642
0.00258052
0.00211335
0.00178198
0.00154689
0.00137268
0.0012317
0.00111558
0.0010187
0.000936518
0.000867175
0.000804851
0.000754195
0.000701735
0.063054
0.0237783
0.0122894
0.00788815
0.00573398
0.00448498
0.00367443
0.00310422
0.0026872
0.00237002
0.00211798
0.00191325
0.00174413
0.00160236
0.00148259
0.0013788
0.00129129
0.00120478
0.074932
0.0328517
0.0181452
0.0119262
0.00874549
0.00686413
0.00563087
0.0047613
0.00411869
0.00362573
0.00323518
0.00291879
0.00265805
0.00244011
0.00225604
0.00209841
0.00196344
0.00183991
0.0849536
0.0420208
0.0246655
0.0166359
0.0123325
0.00972587
0.00799541
0.0067674
0.00585404
0.00515005
0.00459192
0.00413985
0.00376745
0.00345638
0.00319356
0.00296911
0.00277617
0.00260662
0.0933822
0.0510219
0.0316642
0.0219415
0.016474
0.0130717
0.0107779
0.00913539
0.00790598
0.00695437
0.00619833
0.00558533
0.00508011
0.00465803
0.00430139
0.00399704
0.00373537
0.00350916
0.0993794
0.0583363
0.0378386
0.0268568
0.0204171
0.0163053
0.0134892
0.011453
0.00991905
0.00872671
0.00777697
0.0070057
0.00636944
0.00583763
0.00538817
0.0050047
0.00467517
0.00439184
0.104023
0.0645454
0.0433804
0.0314239
0.0241571
0.0194092
0.0161097
0.0137018
0.0118767
0.0104523
0.00931473
0.0083894
0.00762525
0.00698616
0.00644587
0.00598492
0.005589
0.00524917
0.108368
0.0708939
0.0493757
0.0365496
0.0284517
0.0230231
0.0191863
0.0163548
0.0141927
0.0124969
0.0111382
0.0100306
0.00911457
0.00834785
0.00769937
0.00714608
0.00667098
0.00626329
0.112368
0.0772557
0.0557282
0.0421918
0.0332976
0.0271652
0.0227468
0.0194433
0.0168984
0.0148904
0.013275
0.0119546
0.0108607
0.00994396
0.00916816
0.00850608
0.0079376
0.0074494
0.115994
0.0834975
0.0623054
0.0482611
0.0386474
0.0318167
0.026789
0.0229739
0.0200047
0.0176453
0.0157379
0.0141737
0.012875
0.0117851
0.010862
0.0100738
0.0093969
0.00881485
0.119234
0.0894856
0.0689377
0.0546109
0.0443919
0.0369007
0.0312597
0.0269089
0.0234837
0.02074
0.0185097
0.0166735
0.015145
0.0138601
0.0127705
0.0118397
0.0110399
0.010351
0.122086
0.095084
0.075415
0.0610223
0.0503361
0.0422535
0.0360231
0.0311353
0.0272402
0.0240931
0.0215191
0.0193909
0.0176141
0.0161175
0.0148467
0.0137601
0.0128258
0.0120198
0.124546
0.100135
0.0814619
0.0671726
0.056158
0.047577
0.0408126
0.0354174
0.031066
0.0275197
0.0246013
0.0221778
0.0201482
0.018435
0.0169783
0.0157315
0.0146584
0.0137312
0.126578
0.104396
0.0866605
0.0725515
0.0613228
0.0523526
0.0451453
0.0393148
0.0345631
0.0306611
0.0274325
0.024741
0.0224806
0.020569
0.0189413
0.0175468
0.0163455
0.0153062
0.128011
0.107322
0.0902141
0.0762353
0.0648743
0.0556509
0.0481493
0.0420254
0.0370012
0.0328553
0.0294126
0.0265352
0.0241143
0.0220643
0.0203171
0.0188191
0.0175275
0.0164083
0.128006
0.107313
0.0902048
0.0762269
0.0648674
0.0556454
0.048145
0.0420221
0.0369988
0.0328537
0.0294117
0.0265349
0.0241147
0.0220651
0.0203184
0.0188205
0.0175286
0.0164082
0.126509
0.104255
0.0864922
0.0723807
0.0611613
0.052205
0.0450128
0.0391967
0.0344584
0.0305685
0.0273506
0.0246684
0.0224163
0.0205118
0.0188902
0.0175006
0.0163023
0.015263
0.124267
0.0995604
0.0807712
0.0664676
0.0554886
0.0469631
0.0402594
0.0349228
0.0306248
0.0271258
0.0242487
0.0218611
0.0198625
0.0181762
0.0167425
0.0155151
0.0144574
0.0135404
0.12136
0.0936399
0.0737261
0.0593348
0.0487592
0.0408248
0.0347467
0.0300003
0.0262308
0.0231928
0.0207127
0.018665
0.0169572
0.0155197
0.0142998
0.0132566
0.0123582
0.0115797
0.117686
0.0865903
0.0656967
0.0514791
0.0415374
0.0343608
0.0290183
0.0249322
0.0217348
0.0191848
0.0171184
0.0154211
0.0140106
0.0128263
0.0118228
0.0109656
0.0102279
0.00958885
0.11305
0.0784122
0.056921
0.0432687
0.0342296
0.0279652
0.0234365
0.0200435
0.0174263
0.0153598
0.0136967
0.012337
0.0112107
0.0102671
0.00946866
0.00878717
0.00820097
0.00769339
0.107169
0.0691009
0.0476372
0.035029
0.0271566
0.021922
0.0182437
0.0155401
0.0134818
0.0118708
0.0105819
0.00953233
0.00866518
0.0079399
0.00732687
0.0068039
0.00635418
0.00596495
0.0996761
0.0587036
0.0381279
0.0270699
0.0205782
0.0164329
0.0135949
0.0115437
0.00999935
0.00879954
0.00784425
0.00706857
0.00642886
0.00589441
0.00544299
0.00505792
0.00472682
0.00444038
0.0901097
0.0473665
0.0287363
0.0196847
0.0146976
0.0116311
0.0095785
0.0081152
0.00702351
0.00618082
0.00551238
0.00497029
0.00452355
0.00415037
0.0038353
0.00356626
0.00333496
0.00313494
0.0779076
0.0353826
0.0198606
0.0131383
0.00966106
0.00759296
0.00623349
0.00527411
0.00456426
0.00402039
0.00359048
0.00324086
0.00295231
0.00271078
0.00250699
0.00233196
0.00218181
0.00205183
0.06238
0.0232554
0.0119461
0.00765493
0.00556338
0.00435255
0.00356722
0.00301618
0.00261335
0.0023104
0.00207215
0.00187475
0.00171072
0.00157199
0.00145577
0.00135312
0.00126589
0.00118945
0.0426105
0.0117794
0.00546931
0.00341388
0.00246076
0.00192014
0.0015728
0.00132961
0.00115855
0.00104151
0.00095006
0.000865158
0.000793774
0.000727969
0.000677327
0.000629109
0.000583278
0.000545743
0.0168348
0.0025599
0.00110031
0.000684193
0.00049518
0.000389159
0.000321434
0.000273101
0.000272222
0.000338976
0.000377611
0.000355233
0.00032922
0.000275682
0.000314358
0.000304856
0.000241816
0.00026528
3.70951e-06
1.38342e-05
2.56107e-05
3.8246e-05
4.60386e-05
4.98352e-05
5.02226e-05
4.77929e-05
4.4584e-05
3.94346e-05
3.40884e-05
2.93593e-05
2.67512e-05
2.73218e-05
2.96428e-05
3.13366e-05
3.11081e-05
2.80759e-05
2.27974e-05
1.91778e-05
1.96934e-05
2.60241e-05
3.89605e-05
6.51495e-05
8.76137e-05
0.000101034
0.000113667
0.000124634
0.000134562
0.00014303
0.000150587
0.000157178
0.000163016
0.000168149
0.000172664
0.000176676
0.000180252
0.000183461
0.000186349
0.000188953
0.000191297
0.000193398
0.000195271
0.000196929
0.000198386
0.000199651
0.000200733
0.000201637
0.000202362
0.000202903
0.000203147
0.000203379
0.000203424
0.000203305
0.000203027
0.000202612
0.000202055
0.000201361
0.000200532
0.00019957
0.000198477
0.000197255
0.000195907
0.000194436
0.000192845
0.000191137
0.000189312
0.000187375
0.000185329
0.000183176
0.00018092
0.000178564
0.000176109
0.000173559
0.000170915
0.00016818
0.000165356
0.000162443
0.000159443
0.000156356
0.000153185
0.000149929
0.000146591
0.00014317
0.000139664
0.000136071
0.000132382
0.000128589
0.000124678
0.000120632
0.000116434
0.000112066
0.000107529
0.000102878
9.83224e-05
9.4359e-05
9.15602e-05
8.98179e-05
8.85075e-05
8.73035e-05
8.61202e-05
8.49414e-05
8.37654e-05
8.2593e-05
8.1425e-05
8.02624e-05
7.91065e-05
7.79616e-05
7.68492e-05
7.58982e-05
7.49638e-05
7.40361e-05
7.31163e-05
7.22048e-05
7.13018e-05
7.0408e-05
6.95234e-05
6.86486e-05
6.77837e-05
6.69291e-05
6.60846e-05
6.52509e-05
6.4428e-05
6.36167e-05
6.28166e-05
6.20276e-05
6.12509e-05
6.05149e-05
5.98379e-05
5.91697e-05
5.85063e-05
5.7856e-05
5.72237e-05
5.65969e-05
5.59752e-05
5.53617e-05
5.47572e-05
5.41624e-05
5.35772e-05
5.30017e-05
5.24356e-05
5.1879e-05
5.13314e-05
5.0793e-05
5.02634e-05
4.97427e-05
4.92306e-05
4.87271e-05
4.8232e-05
4.77453e-05
4.7267e-05
4.67969e-05
4.63352e-05
4.58816e-05
4.54363e-05
4.49993e-05
4.45707e-05
4.41504e-05
4.37387e-05
4.33357e-05
4.29417e-05
4.25567e-05
4.21812e-05
4.18152e-05
4.14591e-05
4.11128e-05
4.07766e-05
4.045e-05
4.01327e-05
3.98237e-05
3.95217e-05
3.92251e-05
3.893e-05
3.86363e-05
3.83249e-05
3.80277e-05
3.75978e-05
3.72906e-05
3.63593e-05
3.48405e-05
5.88201e-06
3.99462e-05
9.09051e-05
0.000151931
0.000191212
0.000213579
0.000222534
0.000221119
0.000213153
0.000197493
0.000178391
0.000160488
0.000151688
0.000156434
0.000168621
0.000176146
0.000178044
0.000178821
0.000183783
0.00019271
0.00020774
0.000224925
0.000241166
0.00025647
0.00026737
0.000276834
0.000285414
0.000298232
0.000316684
0.000330308
0.000342753
0.000353461
0.000363214
0.000372144
0.000379915
0.000387018
0.00039364
0.000399999
0.000406223
0.000412375
0.000418451
0.000424406
0.00043019
0.00043576
0.000441089
0.000446161
0.000450959
0.000455472
0.0004597
0.000463649
0.000467329
0.00047076
0.000473931
0.000476853
0.000479526
0.000481951
0.00048413
0.000486062
0.000487749
0.00048919
0.000490386
0.000491339
0.00049205
0.000492523
0.000492769
0.000492793
0.000492589
0.000492154
0.000491504
0.000490642
0.000489575
0.000488309
0.000486851
0.000485207
0.000483384
0.00048139
0.000479231
0.000476916
0.000474451
0.000471844
0.000469105
0.000466241
0.000463261
0.000460173
0.000456986
0.000453709
0.000450349
0.000446914
0.000443411
0.000439848
0.00043623
0.000432563
0.000428846
0.000425071
0.000421219
0.000417266
0.000413195
0.000409036
0.000404838
0.000400627
0.000396409
0.000392188
0.000387968
0.000383752
0.000379544
0.000375347
0.000371163
0.000366997
0.000362846
0.000358709
0.000354597
0.000350515
0.000346464
0.000342445
0.000338461
0.000334514
0.000330605
0.000326735
0.000322906
0.000319119
0.000315374
0.000311673
0.000308018
0.000304408
0.000300845
0.000297329
0.000293859
0.000290434
0.000287053
0.000283719
0.000280429
0.000277192
0.000274009
0.000270866
0.000267762
0.000264702
0.000261687
0.000258719
0.000255798
0.000252925
0.000250097
0.000247315
0.000244577
0.000241884
0.000239234
0.000236627
0.000234062
0.00023154
0.000229058
0.000226618
0.000224218
0.000221859
0.00021954
0.000217262
0.000215024
0.000212826
0.000210669
0.000208553
0.000206479
0.000204449
0.000202462
0.00020052
0.000198626
0.00019678
0.000194984
0.000193239
0.000191546
0.000189905
0.000188315
0.000186775
0.00018528
0.000183828
0.000182402
0.00018103
0.000179588
0.000178377
0.000176527
0.000175999
0.000173263
0.000171928
1.28761e-05
7.44351e-05
0.000173986
0.000251179
0.000302751
0.000332298
0.000342988
0.000340021
0.000327261
0.000308324
0.00028912
0.000277086
0.0002752
0.000281966
0.000292213
0.00030297
0.00031573
0.000332546
0.000353827
0.000378831
0.000405944
0.000433891
0.000472883
0.00051879
0.000564181
0.000608101
0.000651035
0.000694578
0.000733564
0.000764586
0.000789384
0.000809052
0.000824648
0.00083703
0.000846973
0.00085525
0.000862555
0.000869528
0.000876702
0.000884429
0.000892811
0.000901725
0.000910932
0.000920195
0.00092934
0.000938246
0.000946839
0.00095507
0.000962902
0.000970309
0.000977264
0.000983745
0.000989742
0.000995251
0.00100027
0.0010048
0.00100883
0.00101238
0.00101543
0.00101799
0.00102006
0.00102163
0.00102271
0.00102325
0.00102341
0.00102312
0.00102233
0.00102109
0.0010194
0.00101728
0.00101474
0.0010118
0.00100846
0.00100474
0.00100066
0.000996233
0.000991466
0.000986379
0.000980985
0.000975301
0.000969341
0.000963122
0.000956657
0.000949964
0.000943056
0.00093595
0.000928659
0.000921197
0.000913578
0.000905816
0.000897921
0.000889905
0.000881777
0.000873545
0.000865219
0.000856806
0.000848321
0.000839779
0.000831197
0.000822587
0.000813961
0.000805326
0.000796693
0.000788067
0.000779456
0.000770867
0.000762307
0.000753782
0.000745296
0.000736857
0.000728468
0.000720137
0.000711866
0.000703661
0.000695525
0.000687461
0.000679473
0.000671563
0.000663734
0.000655989
0.000648328
0.000640755
0.000633271
0.000625878
0.000618578
0.00061137
0.000604255
0.000597233
0.000590306
0.000583473
0.000576735
0.000570092
0.000563543
0.000557083
0.00055071
0.000544427
0.000538235
0.000532135
0.000526127
0.000520211
0.000514386
0.000508651
0.000503004
0.000497445
0.000491972
0.000486584
0.000481279
0.000476057
0.000470917
0.000465857
0.000460877
0.000455975
0.000451151
0.000446403
0.000441731
0.000437132
0.000432607
0.000428153
0.00042377
0.000419457
0.000415211
0.000411031
0.000406916
0.000402863
0.00039887
0.000394933
0.000391048
0.000387211
0.000383414
0.000379648
0.000375903
0.000372164
0.000368404
0.000364615
0.000360699
0.000356751
0.000352282
0.000348098
0.000341661
0.000330154
2.18283e-05
0.000106509
0.000220171
0.000312471
0.000374811
0.000411461
0.000426597
0.000426806
0.000416799
0.000403604
0.000395856
0.000395297
0.000404795
0.000422121
0.000444916
0.000472696
0.000506053
0.000545269
0.00058952
0.000653129
0.000727074
0.000806906
0.000890677
0.000960873
0.00102299
0.00107885
0.00112903
0.00117373
0.00121279
0.00124651
0.00127561
0.00130084
0.00132288
0.00134237
0.00135986
0.00137585
0.00139076
0.00140491
0.00141857
0.00143191
0.00144507
0.00145812
0.00147108
0.00148392
0.00149661
0.00150907
0.00152119
0.00153289
0.00154408
0.00155467
0.00156462
0.00157389
0.00158246
0.00159032
0.00159745
0.00160385
0.00160953
0.00161446
0.00161866
0.00162212
0.00162484
0.00162681
0.00162797
0.0016284
0.00162827
0.00162736
0.00162573
0.00162341
0.00162041
0.00161675
0.00161245
0.00160753
0.001602
0.0015959
0.00158924
0.00158205
0.00157434
0.00156614
0.00155747
0.00154836
0.00153883
0.0015289
0.00151859
0.00150794
0.00149695
0.00148566
0.00147408
0.00146225
0.00145017
0.00143787
0.00142537
0.00141269
0.00139984
0.00138684
0.00137371
0.00136046
0.00134712
0.00133369
0.0013202
0.00130667
0.00129311
0.00127954
0.00126598
0.00125242
0.00123889
0.00122539
0.00121194
0.00119854
0.00118521
0.00117195
0.00115876
0.00114567
0.00113267
0.00111977
0.00110698
0.0010943
0.00108174
0.0010693
0.00105698
0.0010448
0.00103274
0.00102082
0.00100904
0.000997398
0.000985898
0.00097454
0.000963326
0.000952257
0.000941334
0.000930557
0.000919927
0.000909442
0.000899101
0.0008889
0.000878838
0.000868916
0.000859135
0.000849495
0.000839996
0.000830638
0.000821419
0.000812339
0.000803394
0.000794584
0.000785906
0.00077736
0.000768942
0.000760652
0.000752488
0.000744447
0.000736529
0.000728731
0.000721051
0.000713489
0.000706041
0.000698707
0.000691484
0.00068437
0.000677363
0.000670461
0.000663662
0.000656963
0.00065036
0.000643851
0.000637431
0.000631095
0.000624837
0.00061865
0.000612524
0.000606446
0.000600401
0.000594368
0.000588316
0.000582212
0.000575981
0.0005696
0.000562789
0.00055581
0.000547393
0.000531207
2.69624e-05
0.000121969
0.000240951
0.000357456
0.000435183
0.000482051
0.00050534
0.000513693
0.000515315
0.000516532
0.000523751
0.00054025
0.000566612
0.00060186
0.000645242
0.000696806
0.000757361
0.000841144
0.000937122
0.0010328
0.00112151
0.00120564
0.00128468
0.0013571
0.00142362
0.00148482
0.00154109
0.00159277
0.00164022
0.00168386
0.00172418
0.00176167
0.00179673
0.00182975
0.00186104
0.00189085
0.00191937
0.00194673
0.00197304
0.00199835
0.0020227
0.0020461
0.00206853
0.00208999
0.00211045
0.00212988
0.00214824
0.00216551
0.00218167
0.00219668
0.00221055
0.00222328
0.00223487
0.00224534
0.00225471
0.00226299
0.0022702
0.00227637
0.00228149
0.00228559
0.00228869
0.00229073
0.00229164
0.00229173
0.00229085
0.00228897
0.00228613
0.00228236
0.00227767
0.00227208
0.00226563
0.00225834
0.00225024
0.00224136
0.00223172
0.00222137
0.00221032
0.00219861
0.00218628
0.00217334
0.00215984
0.00214581
0.00213127
0.00211625
0.0021008
0.00208493
0.00206868
0.00205208
0.00203516
0.00201794
0.00200046
0.00198273
0.00196479
0.00194665
0.00192834
0.00190988
0.0018913
0.00187262
0.00185387
0.00183506
0.00181621
0.00179736
0.0017785
0.00175967
0.00174087
0.00172212
0.00170343
0.00168483
0.00166631
0.00164789
0.00162958
0.0016114
0.00159334
0.00157543
0.00155766
0.00154005
0.0015226
0.00150531
0.0014882
0.00147126
0.00145451
0.00143794
0.00142156
0.00140537
0.00138937
0.00137357
0.00135796
0.00134256
0.00132735
0.00131234
0.00129753
0.00128293
0.00126851
0.0012543
0.00124027
0.00122644
0.0012128
0.00119935
0.00118609
0.00117302
0.00116015
0.00114746
0.00113496
0.00112264
0.0011105
0.00109853
0.00108675
0.00107513
0.00106369
0.00105242
0.00104131
0.00103036
0.00101958
0.00100895
0.000998479
0.00098816
0.000977992
0.00096797
0.000958094
0.000948358
0.000938761
0.000929299
0.000919967
0.000910761
0.000901675
0.000892705
0.000883842
0.000875076
0.000866397
0.00085779
0.000849235
0.000840708
0.000832175
0.000823593
0.000814892
0.000806012
0.000796749
0.000787139
0.000776984
0.000757231
3.08064e-05
0.000135315
0.00026141
0.000392205
0.000488205
0.00054959
0.000587191
0.000610599
0.000628479
0.000648065
0.000674544
0.000710506
0.000756656
0.000813269
0.000880894
0.000971734
0.00107707
0.00117867
0.00127772
0.00137295
0.0014634
0.00154916
0.00163017
0.00170641
0.00177818
0.00184582
0.00190968
0.00197009
0.00202738
0.00208188
0.00213391
0.00218376
0.00223167
0.00227786
0.00232247
0.00236565
0.00240746
0.00244796
0.00248719
0.00252516
0.00256185
0.00259725
0.00263132
0.00266405
0.00269538
0.00272527
0.00275369
0.0027806
0.00280595
0.00282972
0.00285187
0.00287239
0.00289126
0.00290846
0.002924
0.00293786
0.00295006
0.0029606
0.0029695
0.00297676
0.00298242
0.0029865
0.00298892
0.00298982
0.00298936
0.00298738
0.00298404
0.00297933
0.00297333
0.00296607
0.00295762
0.00294802
0.00293733
0.0029256
0.00291288
0.00289921
0.00288464
0.00286922
0.00285299
0.002836
0.00281828
0.00279988
0.00278084
0.00276121
0.00274101
0.0027203
0.00269911
0.00267747
0.00265544
0.00263303
0.0026103
0.00258727
0.00256397
0.00254044
0.0025167
0.00249279
0.00246873
0.00244456
0.0024203
0.00239597
0.00237161
0.00234724
0.00232288
0.00229854
0.00227426
0.00225004
0.00222591
0.00220189
0.00217798
0.0021542
0.00213056
0.00210708
0.00208377
0.00206064
0.0020377
0.00201496
0.00199243
0.0019701
0.001948
0.00192613
0.00190448
0.00188307
0.0018619
0.00184098
0.0018203
0.00179986
0.00177968
0.00175975
0.00174008
0.00172065
0.00170148
0.00168257
0.0016639
0.00164548
0.0016273
0.00160937
0.00159169
0.00157425
0.00155705
0.00154009
0.00152337
0.00150689
0.00149064
0.00147462
0.00145883
0.00144327
0.00142792
0.00141279
0.00139788
0.00138318
0.00136869
0.00135441
0.00134032
0.00132644
0.00131275
0.00129925
0.00128594
0.00127281
0.00125987
0.00124711
0.00123451
0.00122209
0.00120983
0.00119774
0.00118579
0.00117399
0.00116233
0.0011508
0.00113938
0.00112806
0.00111681
0.00110562
0.00109444
0.00108323
0.00107193
0.00106045
0.00104862
0.00103646
0.00102417
0.00100174
3.23487e-05
0.000142485
0.000273875
0.000409614
0.000527359
0.000608436
0.000664452
0.000706465
0.000743684
0.000783334
0.000830424
0.000887857
0.000957361
0.00105006
0.00115729
0.00126388
0.00136991
0.00147313
0.00157302
0.00166918
0.00176137
0.0018496
0.00193398
0.00201466
0.00209188
0.00216593
0.00223708
0.00230558
0.00237171
0.00243569
0.00249773
0.00255801
0.00261667
0.00267384
0.0027296
0.00278399
0.00283707
0.00288883
0.00293928
0.00298838
0.00303613
0.00308247
0.00312736
0.00317075
0.00321259
0.00325283
0.00329142
0.00332829
0.00336341
0.00339672
0.00342819
0.00345776
0.00348542
0.00351112
0.00353484
0.00355656
0.00357627
0.00359396
0.00360961
0.00362324
0.00363483
0.00364442
0.00365199
0.00365761
0.00366127
0.00366288
0.0036628
0.00366081
0.00365703
0.00365151
0.0036443
0.00363546
0.00362504
0.00361311
0.00359972
0.00358495
0.00356886
0.00355151
0.00353298
0.00351332
0.00349262
0.00347093
0.00344832
0.00342485
0.0034006
0.00337562
0.00334997
0.00332371
0.0032969
0.00326959
0.00324184
0.00321368
0.00318517
0.00315635
0.00312727
0.00309796
0.00306846
0.0030388
0.00300904
0.00297919
0.00294929
0.00291937
0.00288945
0.00285957
0.00282975
0.00280001
0.00277037
0.00274085
0.00271148
0.00268226
0.00265322
0.00262437
0.00259572
0.00256729
0.00253909
0.00251113
0.00248341
0.00245596
0.00242877
0.00240185
0.00237522
0.00234887
0.0023228
0.00229704
0.00227157
0.00224639
0.00222152
0.00219696
0.0021727
0.00214874
0.00212509
0.00210174
0.00207869
0.00205594
0.00203349
0.00201133
0.00198947
0.00196791
0.00194663
0.00192564
0.00190494
0.00188453
0.00186439
0.00184453
0.00182495
0.00180563
0.00178658
0.0017678
0.00174927
0.00173099
0.00171297
0.00169519
0.00167765
0.00166035
0.00164329
0.00162646
0.00160986
0.00159347
0.00157731
0.00156136
0.00154562
0.00153008
0.00151475
0.00149961
0.00148465
0.00146987
0.00145527
0.00144082
0.00142651
0.00141234
0.00139827
0.00138427
0.00137032
0.00135636
0.00134233
0.00132815
0.00131367
0.00129892
0.00128386
0.00125962
3.27898e-05
0.000144076
0.000275159
0.000409132
0.000538841
0.000642056
0.000719183
0.000780671
0.000836659
0.000894842
0.000963226
0.00105579
0.0011659
0.00128738
0.00140285
0.00151402
0.00162173
0.00172616
0.00182726
0.00192496
0.00201928
0.00211032
0.00219821
0.00228316
0.00236537
0.00244507
0.00252249
0.00259784
0.0026713
0.00274305
0.00281324
0.00288196
0.00294933
0.00301539
0.0030802
0.00314377
0.00320609
0.00326717
0.00332696
0.00338542
0.00344252
0.00349818
0.00355236
0.00360499
0.00365601
0.00370535
0.00375294
0.00379872
0.00384263
0.00388462
0.00392462
0.00396258
0.00399846
0.00403222
0.00406381
0.00409321
0.00412038
0.00414531
0.00416799
0.00418839
0.00420651
0.00422236
0.00423595
0.00424728
0.00425636
0.00426323
0.00426796
0.00427041
0.00427084
0.0042692
0.00426553
0.00425988
0.00425231
0.00424288
0.00423165
0.00421868
0.00420403
0.00418777
0.00416997
0.0041507
0.00413003
0.00410804
0.00408479
0.00406035
0.00403481
0.00400823
0.00398068
0.00395224
0.00392297
0.00389293
0.0038622
0.00383084
0.00379891
0.00376646
0.00373356
0.00370026
0.00366662
0.00363268
0.0035985
0.00356413
0.0035296
0.00349497
0.00346027
0.00342553
0.0033908
0.0033561
0.00332147
0.00328694
0.00325253
0.00321826
0.00318416
0.00315025
0.00311655
0.00308308
0.00304985
0.00301687
0.00298417
0.00295175
0.00291962
0.0028878
0.00285629
0.00282509
0.00279423
0.00276369
0.00273349
0.00270363
0.00267411
0.00264494
0.00261612
0.00258764
0.00255951
0.00253173
0.0025043
0.00247721
0.00245047
0.00242406
0.002398
0.00237227
0.00234688
0.00232182
0.0022971
0.0022727
0.00224862
0.00222487
0.00220143
0.00217831
0.00215549
0.00213297
0.00211076
0.00208884
0.00206721
0.00204587
0.00202481
0.00200403
0.00198352
0.00196328
0.00194331
0.00192359
0.00190414
0.00188493
0.00186597
0.00184724
0.00182876
0.0018105
0.00179246
0.00177463
0.00175701
0.00173958
0.00172232
0.00170522
0.00168826
0.0016714
0.00165461
0.00163783
0.00162101
0.00160407
0.00158686
0.00156945
0.00155149
0.00152535
3.2227e-05
0.000141113
0.000268686
0.000397608
0.00052121
0.000633067
0.000726791
0.000808154
0.000891989
0.000987843
0.0010976
0.00122267
0.00135911
0.00148649
0.00160667
0.00172157
0.00183216
0.0019388
0.00204181
0.00214154
0.00223822
0.00233205
0.00242322
0.00251195
0.00259845
0.00268291
0.00276553
0.00284648
0.00292591
0.00300395
0.00308072
0.00315627
0.00323068
0.00330398
0.00337617
0.00344726
0.00351721
0.003586
0.00365357
0.00371986
0.00378482
0.00384836
0.00391042
0.00397092
0.00402979
0.00408693
0.00414228
0.00419576
0.0042473
0.00429682
0.00434427
0.00438958
0.0044327
0.00447357
0.00451214
0.00454839
0.00458226
0.00461375
0.00464281
0.00466943
0.00469361
0.00471534
0.00473462
0.00475145
0.00476585
0.00477784
0.00478744
0.00479468
0.00479961
0.00480218
0.00480256
0.00480075
0.00479678
0.00479072
0.00478262
0.00477253
0.00476053
0.00474668
0.00473103
0.00471367
0.00469466
0.00467408
0.00465198
0.00462845
0.00460357
0.00457739
0.00455001
0.00452148
0.00449188
0.00446129
0.00442976
0.00439738
0.0043642
0.00433029
0.00429572
0.00426055
0.00422485
0.00418866
0.00415205
0.00411508
0.0040778
0.00404025
0.0040025
0.00396458
0.00392654
0.00388843
0.00385027
0.00381211
0.00377399
0.00373593
0.00369796
0.00366013
0.00362244
0.00358493
0.00354762
0.00351054
0.00347369
0.0034371
0.00340079
0.00336476
0.00332904
0.00329363
0.00325854
0.00322379
0.00318939
0.00315533
0.00312162
0.00308828
0.0030553
0.00302269
0.00299044
0.00295857
0.00292708
0.00289595
0.00286519
0.0028348
0.00280479
0.00277514
0.00274586
0.00271694
0.00268839
0.00266019
0.00263236
0.00260487
0.00257774
0.00255096
0.00252451
0.00249841
0.00247263
0.00244719
0.00242208
0.00239728
0.0023728
0.00234864
0.00232478
0.00230123
0.00227797
0.00225501
0.00223233
0.00220994
0.00218783
0.002166
0.00214443
0.00212312
0.00210207
0.00208125
0.00206068
0.00204032
0.00202017
0.00200021
0.0019804
0.00196073
0.00194115
0.00192161
0.00190204
0.00188237
0.00186247
0.0018424
0.00182164
0.00179329
3.08528e-05
0.000135018
0.00025792
0.000383092
0.000504951
0.000620987
0.000731724
0.000841053
0.00095635
0.00108264
0.00122107
0.00137108
0.00151325
0.0016451
0.00176923
0.00188754
0.00200115
0.00211067
0.00221651
0.00231887
0.00241814
0.00251473
0.00260891
0.00270095
0.00279108
0.0028795
0.00296639
0.00305192
0.00313621
0.00321937
0.00330149
0.00338262
0.0034628
0.00354203
0.00362033
0.00369764
0.00377395
0.00384919
0.00392329
0.00399619
0.00406781
0.00413805
0.00420684
0.00427407
0.00433966
0.00440352
0.00446556
0.00452569
0.00458383
0.0046399
0.00469383
0.00474554
0.00479497
0.00484206
0.00488677
0.00492903
0.00496882
0.00500609
0.00504082
0.00507299
0.00510259
0.00512959
0.00515401
0.00517585
0.00519511
0.00521182
0.00522598
0.00523764
0.00524681
0.00525353
0.00525785
0.00525979
0.00525944
0.00525683
0.00525202
0.00524505
0.005236
0.00522492
0.00521188
0.00519694
0.00518018
0.00516166
0.00514145
0.00511963
0.00509627
0.00507144
0.00504522
0.00501768
0.00498888
0.0049589
0.00492782
0.0048957
0.0048626
0.00482861
0.00479378
0.00475817
0.00472187
0.00468492
0.00464738
0.00460933
0.00457081
0.00453189
0.00449261
0.00445303
0.0044132
0.00437315
0.00433295
0.00429263
0.00425223
0.00421179
0.00417135
0.00413094
0.0040906
0.00405035
0.00401022
0.00397025
0.00393044
0.00389084
0.00385146
0.00381231
0.00377342
0.00373481
0.00369648
0.00365846
0.00362075
0.00358336
0.00354631
0.00350961
0.00347325
0.00343726
0.00340162
0.00336635
0.00333146
0.00329693
0.00326278
0.00322901
0.00319561
0.00316259
0.00312994
0.00309768
0.00306579
0.00303427
0.00300313
0.00297235
0.00294195
0.00291191
0.00288223
0.00285291
0.00282395
0.00279534
0.00276707
0.00273915
0.00271157
0.00268433
0.00265742
0.00263084
0.00260458
0.00257864
0.00255301
0.0025277
0.00250269
0.00247798
0.00245356
0.00242943
0.00240558
0.002382
0.00235868
0.00233561
0.00231277
0.00229014
0.00226769
0.0022454
0.00222321
0.00220109
0.00217896
0.00215675
0.00213433
0.00211174
0.00208843
0.00205775
2.93039e-05
0.000128719
0.000248101
0.000372285
0.000496906
0.000620897
0.000745808
0.000875388
0.00101304
0.00116068
0.00131846
0.00148004
0.00162764
0.00176393
0.0018919
0.00201354
0.00213012
0.00224245
0.00235107
0.00245636
0.00255864
0.00265808
0.00275515
0.00285018
0.00294346
0.00303524
0.00312571
0.00321503
0.00330333
0.00339072
0.00347726
0.00356301
0.00364798
0.00373217
0.00381557
0.00389813
0.00397979
0.00406049
0.00414015
0.00421868
0.00429599
0.00437197
0.00444654
0.00451957
0.00459098
0.00466065
0.00472849
0.0047944
0.00485829
0.00492007
0.00497966
0.00503698
0.00509195
0.00514451
0.00519461
0.00524219
0.0052872
0.00532961
0.00536938
0.0054065
0.00544094
0.00547268
0.00550173
0.00552809
0.00555177
0.00557277
0.00559112
0.00560684
0.00561996
0.00563052
0.00563855
0.00564409
0.0056472
0.00564792
0.00564632
0.00564244
0.00563635
0.0056281
0.00561776
0.0056054
0.00559107
0.00557486
0.00555683
0.00553705
0.00551559
0.00549253
0.00546794
0.00544189
0.00541446
0.00538571
0.00535571
0.00532454
0.00529227
0.00525895
0.00522467
0.00518948
0.00515345
0.00511665
0.00507913
0.00504097
0.00500221
0.00496293
0.00492316
0.00488297
0.00484241
0.00480153
0.00476037
0.00471899
0.00467742
0.00463571
0.0045939
0.00455202
0.00451012
0.00446822
0.00442636
0.00438458
0.00434289
0.00430133
0.00425991
0.00421867
0.00417763
0.0041368
0.00409621
0.00405587
0.0040158
0.00397601
0.00393652
0.00389733
0.00385846
0.00381992
0.00378171
0.00374385
0.00370633
0.00366917
0.00363237
0.00359593
0.00355985
0.00352414
0.0034888
0.00345383
0.00341923
0.003385
0.00335115
0.00331766
0.00328455
0.0032518
0.00321943
0.00318741
0.00315576
0.00312447
0.00309353
0.00306295
0.00303272
0.00300284
0.0029733
0.00294411
0.00291525
0.00288673
0.00285853
0.00283067
0.00280312
0.00277589
0.00274897
0.00272236
0.00269605
0.00267002
0.00264428
0.0026188
0.00259357
0.00256857
0.00254378
0.00251915
0.00249466
0.00247024
0.00244584
0.00242137
0.00239673
0.00237192
0.0023464
0.00231357
2.7617e-05
0.000122131
0.000238114
0.000361663
0.000489154
0.000619984
0.000756405
0.0009002
0.00105298
0.00121524
0.00138747
0.00155321
0.00170479
0.00184494
0.00197641
0.00210117
0.00222056
0.0023355
0.00244666
0.00255454
0.00265951
0.00276188
0.00286192
0.00295983
0.00305602
0.00315079
0.00324437
0.00333696
0.00342869
0.00351967
0.00360997
0.00369963
0.00378868
0.00387709
0.00396484
0.00405187
0.00413812
0.00422351
0.00430795
0.00439133
0.00447355
0.0045545
0.00463406
0.00471213
0.00478858
0.00486331
0.00493621
0.00500717
0.00507608
0.00514286
0.00520741
0.00526965
0.0053295
0.00538689
0.00544175
0.00549404
0.00554369
0.00559067
0.00563495
0.00567649
0.00571527
0.00575129
0.00578453
0.00581499
0.00584268
0.00586762
0.00588981
0.00590929
0.00592608
0.00594022
0.00595173
0.00596067
0.00596708
0.005971
0.00597249
0.00597162
0.00596846
0.00596302
0.0059554
0.00594565
0.00593385
0.00592005
0.00590432
0.00588675
0.0058674
0.00584634
0.00582365
0.0057994
0.00577365
0.00574648
0.00571796
0.00568817
0.00565715
0.005625
0.00559176
0.00555752
0.00552233
0.00548626
0.00544937
0.00541173
0.00537339
0.00533442
0.00529487
0.00525479
0.00521425
0.00517328
0.00513194
0.00509027
0.00504833
0.00500616
0.00496379
0.00492127
0.00487864