/*--------------------------------*- C++ -*----------------------------------*\
  =========                 |
  \\      /  F ield         | OpenFOAM: The Open Source CFD Toolbox
   \\    /   O peration     | Website:  https://openfoam.org
    \\  /    A nd           | Version:  8
     \\/     M anipulation  |
\*---------------------------------------------------------------------------*/
FoamFile
{
    version     2.0;
    format      ascii;
    class       surfaceScalarField;
    location    "2700";
    object      phi;
}
// * * * * * * * * * * * * * * * * * * * * * * * * * * * * * * * * * * * * * //

dimensions      [0 3 -1 0 0 0 0];

internalField   nonuniform List<scalar> 
24170
(
3.92539e-06
-7.91498e-07
3.76465e-06
1.6075e-07
3.63345e-06
1.31209e-07
3.43331e-06
2.00144e-07
3.28028e-06
1.53027e-07
3.18901e-06
9.11906e-08
3.13091e-06
5.81104e-08
3.08609e-06
4.58912e-08
3.04613e-06
4.23236e-08
3.01059e-06
3.81628e-08
2.97876e-06
3.38025e-08
2.94904e-06
3.07704e-08
2.92187e-06
2.73779e-08
2.89642e-06
2.52001e-08
2.87227e-06
2.36054e-08
2.85193e-06
1.9484e-08
2.84097e-06
9.85699e-09
-6.37719e-09
2.84668e-06
3.58445e-06
-9.19499e-07
3.80424e-06
-5.90412e-08
3.74282e-06
1.92629e-07
3.6906e-06
2.52375e-07
3.63729e-06
2.06333e-07
3.59023e-06
1.3828e-07
3.55289e-06
9.55997e-08
3.52309e-06
7.56598e-08
3.49853e-06
6.65699e-08
3.47732e-06
5.92153e-08
3.45871e-06
5.25294e-08
3.44252e-06
4.72646e-08
3.42795e-06
4.23378e-08
3.41466e-06
3.87864e-08
3.40269e-06
3.57304e-08
3.39122e-06
3.10525e-08
3.38036e-06
2.08422e-08
4.78101e-09
3.36943e-06
3.68518e-06
-7.92482e-07
3.83639e-06
-2.1025e-07
3.91494e-06
1.14082e-07
3.94502e-06
2.22293e-07
3.94408e-06
2.07265e-07
3.92749e-06
1.54897e-07
3.90755e-06
1.15615e-07
3.88932e-06
9.36447e-08
3.874e-06
8.11968e-08
3.86056e-06
7.19161e-08
3.84834e-06
6.42562e-08
3.83728e-06
5.81354e-08
3.82691e-06
5.27793e-08
3.8174e-06
4.84754e-08
3.80891e-06
4.44341e-08
3.80097e-06
3.92542e-08
3.79195e-06
3.02082e-08
1.7798e-08
3.77944e-06
4.05359e-06
-6.4151e-07
4.1146e-06
-2.71259e-07
4.20799e-06
2.06917e-08
4.26635e-06
1.63932e-07
4.29069e-06
1.82926e-07
4.29287e-06
1.52749e-07
4.28571e-06
1.22819e-07
4.27631e-06
1.02844e-07
4.26727e-06
8.96865e-08
4.25873e-06
7.98178e-08
4.25056e-06
7.19499e-08
4.24283e-06
6.5635e-08
4.23534e-06
6.02467e-08
4.22823e-06
5.56937e-08
4.22149e-06
5.13532e-08
4.21464e-06
4.63465e-08
4.20598e-06
3.91851e-08
3.06609e-08
4.19351e-06
4.50491e-06
-5.09114e-07
4.51536e-06
-2.81708e-07
4.58529e-06
-4.92341e-08
4.64665e-06
1.02566e-07
4.68258e-06
1.46992e-07
4.69688e-06
1.38473e-07
4.69946e-06
1.20238e-07
4.69723e-06
1.04926e-07
4.69331e-06
9.32555e-08
4.68868e-06
8.40577e-08
4.68366e-06
7.66423e-08
4.67851e-06
7.06086e-08
4.67321e-06
6.54951e-08
4.66783e-06
6.11067e-08
4.66227e-06
5.70061e-08
4.65606e-06
5.27046e-08
4.64786e-06
4.75925e-08
4.26068e-08
4.63612e-06
5.00014e-06
-3.94663e-07
4.98614e-06
-2.67704e-07
5.03069e-06
-9.37788e-08
5.08506e-06
4.81981e-08
5.12454e-06
1.07517e-07
5.14608e-06
1.16941e-07
5.15584e-06
1.10489e-07
5.1594e-06
1.01286e-07
5.15985e-06
9.26083e-08
5.15859e-06
8.50842e-08
5.15629e-06
7.87436e-08
5.15333e-06
7.34434e-08
5.14984e-06
6.89346e-08
5.14589e-06
6.50648e-08
5.14135e-06
6.15881e-08
5.13584e-06
5.83111e-08
5.12839e-06
5.51503e-08
5.30532e-08
5.11808e-06
5.54382e-06
-2.97475e-07
5.51664e-06
-2.40529e-07
5.54055e-06
-1.17686e-07
5.58388e-06
4.87057e-09
5.62166e-06
6.97347e-08
5.64656e-06
9.20465e-08
5.66107e-06
9.59688e-08
5.66906e-06
9.32476e-08
5.67315e-06
8.84249e-08
5.67481e-06
8.33017e-08
5.6749e-06
7.85525e-08
5.6739e-06
7.43764e-08
5.67204e-06
7.07668e-08
5.6694e-06
6.76971e-08
5.66591e-06
6.51012e-08
5.66127e-06
6.29899e-08
5.65494e-06
6.15491e-08
6.15342e-08
5.6465e-06
4.34788e-06
-2.39242e-07
4.32251e-06
-2.15162e-07
4.33078e-06
-1.25951e-07
4.35419e-06
-1.8536e-08
4.3784e-06
4.55263e-08
4.39646e-06
7.39853e-08
4.40841e-06
8.40232e-08
4.41597e-06
8.56742e-08
4.42059e-06
8.37683e-08
4.42325e-06
8.05983e-08
4.42456e-06
7.71973e-08
4.4249e-06
7.40037e-08
4.42446e-06
7.11812e-08
4.42334e-06
6.88116e-08
4.42151e-06
6.69384e-08
4.41884e-06
6.56727e-08
4.41514e-06
6.52708e-08
6.6351e-08
4.41035e-06
5.08621e-06
-1.85599e-07
5.05777e-06
-1.86718e-07
5.0584e-06
-1.26578e-07
5.07686e-06
-3.70021e-08
5.09918e-06
2.32144e-08
5.11773e-06
5.54366e-08
5.13124e-06
7.05075e-08
5.14059e-06
7.63173e-08
5.14686e-06
7.74762e-08
5.15094e-06
7.64978e-08
5.15344e-06
7.4677e-08
5.15477e-06
7.26672e-08
5.15514e-06
7.07979e-08
5.15468e-06
6.92655e-08
5.15341e-06
6.82116e-08
5.15128e-06
6.7815e-08
5.14821e-06
6.83523e-08
7.02739e-08
5.14429e-06
5.94839e-06
-1.38193e-07
5.91832e-06
-1.56649e-07
5.91161e-06
-1.19866e-07
5.924e-06
-4.93965e-08
5.94286e-06
4.35904e-09
5.96058e-06
3.77173e-08
5.97479e-06
5.62917e-08
5.98546e-06
6.5647e-08
5.9932e-06
6.97364e-08
5.99867e-06
7.1018e-08
6.00242e-06
7.09162e-08
6.00484e-06
7.02406e-08
6.00618e-06
6.9459e-08
6.00657e-06
6.88684e-08
6.0061e-06
6.86891e-08
6.00478e-06
6.91369e-08
6.00267e-06
7.0463e-08
7.29769e-08
5.99997e-06
6.95439e-06
-9.83129e-08
6.92401e-06
-1.26278e-07
6.91113e-06
-1.06984e-07
6.9168e-06
-5.50654e-08
6.93087e-06
-9.71e-09
6.94635e-06
2.22399e-08
6.96015e-06
4.24934e-08
6.9714e-06
5.43969e-08
6.98017e-06
6.09622e-08
6.98684e-06
6.43484e-08
6.9918e-06
6.5956e-08
6.99537e-06
6.66655e-08
6.9978e-06
6.70314e-08
6.99924e-06
6.7425e-08
6.99982e-06
6.81143e-08
6.99963e-06
6.93254e-08
6.99883e-06
7.12684e-08
7.41301e-08
6.99768e-06
8.12719e-06
-6.64876e-08
8.09793e-06
-9.70209e-08
8.08056e-06
-8.96086e-08
8.07955e-06
-5.40583e-08
8.08793e-06
-1.80889e-08
8.09985e-06
1.03234e-08
8.11198e-06
3.03595e-08
8.12285e-06
4.35228e-08
8.13202e-06
5.17961e-08
8.1395e-06
5.68685e-08
8.14548e-06
5.99763e-08
8.15018e-06
6.19708e-08
8.15378e-06
6.34321e-08
8.15644e-06
6.47579e-08
8.15832e-06
6.62343e-08
8.15958e-06
6.8075e-08
8.1604e-06
7.04417e-08
7.34396e-08
8.16109e-06
9.49368e-06
-4.24386e-08
9.4668e-06
-7.01426e-08
9.44683e-06
-6.964e-08
9.43991e-06
-4.71314e-08
9.44229e-06
-2.04674e-08
9.44965e-06
2.956e-09
9.45895e-06
2.1065e-08
9.4684e-06
3.40712e-08
9.47716e-06
4.3037e-08
9.48491e-06
4.91214e-08
9.49159e-06
5.32943e-08
9.49727e-06
5.62923e-08
9.50205e-06
5.8647e-08
9.50607e-06
6.07389e-08
9.50947e-06
6.28348e-08
9.51242e-06
6.51208e-08
9.51515e-06
6.77151e-08
7.0671e-08
9.51792e-06
1.10854e-05
-2.5159e-08
1.10618e-05
-4.65024e-08
1.1041e-05
-4.88064e-08
1.10294e-05
-3.55512e-08
1.10261e-05
-1.71693e-08
1.10284e-05
6.05447e-10
1.1034e-05
1.54753e-08
1.10411e-05
2.69714e-08
1.10487e-05
3.54924e-08
1.10561e-05
4.17163e-08
1.1063e-05
4.63139e-08
1.10695e-05
4.98434e-08
1.10754e-05
5.27352e-08
1.10808e-05
5.53033e-08
1.10859e-05
5.77681e-08
1.10908e-05
6.02732e-08
1.10956e-05
6.2899e-08
6.5669e-08
1.11006e-05
1.29396e-05
-1.31186e-08
1.29194e-05
-2.62784e-08
1.28988e-05
-2.82516e-08
1.28839e-05
-2.06872e-08
1.28758e-05
-8.99532e-09
1.28732e-05
3.14539e-09
1.28748e-05
1.39405e-08
1.28789e-05
2.2789e-08
1.28847e-05
2.9745e-08
1.28913e-05
3.51436e-08
1.28982e-05
3.93838e-08
1.29052e-05
4.28286e-08
1.29122e-05
4.57701e-08
1.29191e-05
4.84252e-08
1.29259e-05
5.09432e-08
1.29327e-05
5.34155e-08
1.29398e-05
5.58853e-08
5.83556e-08
1.29471e-05
1.50998e-05
-4.483e-09
1.50822e-05
-8.67578e-09
1.50621e-05
-8.11322e-09
1.50448e-05
-3.45781e-09
1.50327e-05
3.11011e-09
1.50259e-05
9.93912e-09
1.50237e-05
1.61622e-08
1.5025e-05
2.14647e-08
1.50289e-05
2.58536e-08
1.50346e-05
2.9485e-08
1.50414e-05
3.25547e-08
1.5049e-05
3.52432e-08
1.50571e-05
3.76937e-08
1.50655e-05
4.00077e-08
1.50742e-05
4.22475e-08
1.50832e-05
4.44425e-08
1.50925e-05
4.65955e-08
4.8688e-08
1.51021e-05
1.76171e-05
2.89321e-09
1.75999e-05
8.52338e-09
1.75787e-05
1.303e-08
1.7559e-05
1.62782e-08
1.75436e-05
1.84729e-08
1.75336e-05
1.9958e-08
1.75287e-05
2.10525e-08
1.75282e-05
2.19937e-08
1.75311e-05
2.29398e-08
1.75366e-05
2.39855e-08
1.7544e-05
2.51773e-08
1.75527e-05
2.65278e-08
1.75624e-05
2.80259e-08
1.75727e-05
2.96461e-08
1.75836e-05
3.13518e-08
1.7595e-05
3.31022e-08
1.76067e-05
3.48512e-08
3.65542e-08
1.76188e-05
1.78181e-05
1.10004e-08
1.77994e-05
2.72128e-08
1.77768e-05
3.56244e-08
1.7756e-05
3.70588e-08
1.77402e-05
3.43264e-08
1.77302e-05
2.99467e-08
1.77257e-05
2.55001e-08
1.7726e-05
2.17781e-08
1.77298e-05
1.90749e-08
1.77364e-05
1.74e-08
1.77449e-05
1.66323e-08
1.77549e-05
1.66033e-08
1.77658e-05
1.71411e-08
1.77773e-05
1.80888e-08
1.77894e-05
1.93141e-08
1.78017e-05
2.07033e-08
1.78144e-05
2.21675e-08
2.36301e-08
1.78274e-05
1.58702e-05
2.21334e-08
1.58478e-05
4.95816e-08
1.58233e-05
6.01325e-08
1.58032e-05
5.72348e-08
1.57899e-05
4.76108e-08
1.57834e-05
3.63718e-08
1.57827e-05
2.6198e-08
1.57864e-05
1.81467e-08
1.57931e-05
1.23655e-08
1.58019e-05
8.61245e-09
1.5812e-05
6.49721e-09
1.5823e-05
5.62898e-09
1.58345e-05
5.66504e-09
1.58462e-05
6.32868e-09
1.58581e-05
7.39987e-09
1.58701e-05
8.71543e-09
1.58821e-05
1.01465e-08
1.16046e-08
1.58942e-05
1.41313e-05
3.95387e-08
1.41021e-05
7.87071e-08
1.40745e-05
8.7788e-08
1.40557e-05
7.60388e-08
1.40469e-05
5.64139e-08
1.40462e-05
3.70405e-08
1.40512e-05
2.12112e-08
1.40597e-05
9.58356e-09
1.40704e-05
1.76374e-09
1.4082e-05
-3.04778e-09
1.40941e-05
-5.60348e-09
1.41063e-05
-6.55925e-09
1.41184e-05
-6.41464e-09
1.41303e-05
-5.55914e-09
1.41419e-05
-4.26249e-09
1.41534e-05
-2.72324e-09
1.41646e-05
-1.07888e-09
5.72987e-10
1.41756e-05
1.25772e-05
6.73555e-08
1.25392e-05
1.1674e-07
1.25091e-05
1.17889e-07
1.24942e-05
9.08913e-08
1.24928e-05
5.78145e-08
1.25002e-05
2.96842e-08
1.25122e-05
9.13323e-09
1.25264e-05
-4.49376e-09
1.25409e-05
-1.28325e-08
1.25552e-05
-1.73446e-08
1.25689e-05
-1.92796e-08
1.25819e-05
-1.94975e-08
1.25941e-05
-1.86517e-08
1.26057e-05
-1.71575e-08
1.26167e-05
-1.53141e-08
1.26273e-05
-1.33124e-08
1.26375e-05
-1.12744e-08
-9.29238e-09
1.26473e-05
1.11862e-05
1.10916e-07
1.11384e-05
1.6457e-07
1.11088e-05
1.47521e-07
1.11022e-05
9.74851e-08
1.11117e-05
4.83139e-08
1.11289e-05
1.24036e-08
1.11486e-05
-1.04579e-08
1.11678e-05
-2.37222e-08
1.11855e-05
-3.05014e-08
1.12014e-05
-3.32834e-08
1.12157e-05
-3.35497e-08
1.12285e-05
-3.23504e-08
1.12402e-05
-3.02995e-08
1.12508e-05
-2.78598e-08
1.12608e-05
-2.52738e-08
1.12701e-05
-2.26722e-08
1.1279e-05
-2.01605e-08
-1.77793e-08
1.12875e-05
9.93908e-06
1.76452e-07
9.88248e-06
2.21163e-07
9.85873e-06
1.71262e-07
9.86593e-06
9.0276e-08
9.88961e-06
2.46399e-08
9.9176e-06
-1.55532e-08
9.94392e-06
-3.67905e-08
9.96668e-06
-4.64026e-08
9.98571e-06
-4.9601e-08
1.00017e-05
-4.92778e-08
1.00152e-05
-4.7114e-08
1.00269e-05
-4.39951e-08
1.00371e-05
-4.05223e-08
1.00462e-05
-3.70136e-08
1.00546e-05
-3.36407e-08
1.00623e-05
-3.04399e-08
1.00696e-05
-2.74402e-08
-2.47041e-08
1.00765e-05
8.81963e-06
2.69916e-07
8.75785e-06
2.82944e-07
8.74788e-06
1.81226e-07
8.77481e-06
6.33234e-08
8.81458e-06
-1.51279e-08
8.85212e-06
-5.30894e-08
8.88269e-06
-6.72243e-08
8.90623e-06
-7.00183e-08
8.92427e-06
-6.76054e-08
8.93842e-06
-6.33579e-08
8.94983e-06
-5.83941e-08
8.95924e-06
-5.33299e-08
8.96721e-06
-4.84656e-08
8.97418e-06
-4.40018e-08
8.98049e-06
-3.99935e-08
8.98632e-06
-3.62914e-08
8.99174e-06
-3.29043e-08
-2.98866e-08
8.99691e-06
7.81391e-06
3.96675e-07
7.75391e-06
3.42943e-07
7.76868e-06
1.6644e-07
7.82054e-06
1.14614e-08
7.87567e-06
-7.02732e-08
7.91913e-06
-9.64891e-08
7.94967e-06
-9.7832e-08
7.97057e-06
-9.06422e-08
7.98484e-06
-8.15748e-08
7.99524e-06
-7.35376e-08
8.00315e-06
-6.60953e-08
8.00936e-06
-5.94348e-08
8.01442e-06
-5.33071e-08
8.01874e-06
-4.81901e-08
8.02269e-06
-4.38819e-08
8.02632e-06
-3.99549e-08
8.02969e-06
-3.63285e-08
-3.31996e-08
8.03296e-06
6.90424e-06
5.66768e-07
6.86137e-06
3.85805e-07
6.91717e-06
1.10634e-07
6.99674e-06
-6.81329e-08
7.06253e-06
-1.36071e-07
7.10529e-06
-1.39267e-07
7.13032e-06
-1.22546e-07
7.14448e-06
-1.04614e-07
7.15208e-06
-8.89755e-08
7.15709e-06
-7.5794e-08
7.16036e-06
-6.66433e-08
7.16269e-06
-5.96178e-08
7.16412e-06
-5.41352e-08
7.16536e-06
-4.91602e-08
7.16661e-06
-4.52162e-08
7.16779e-06
-4.1657e-08
7.16889e-06
-3.77467e-08
-3.4663e-08
7.1701e-06
6.07162e-06
7.97662e-07
6.08526e-06
3.72164e-07
6.19865e-06
-2.7734e-09
6.2999e-06
-1.69398e-07
6.36526e-06
-2.01462e-07
6.39754e-06
-1.71503e-07
6.41011e-06
-1.35219e-07
6.41343e-06
-1.06943e-07
6.41239e-06
-8.57928e-08
6.40989e-06
-7.40077e-08
6.40746e-06
-6.45099e-08
6.40486e-06
-5.76809e-08
6.40233e-06
-5.1108e-08
6.39997e-06
-4.64761e-08
6.39809e-06
-4.37497e-08
6.39676e-06
-4.01714e-08
6.39514e-06
-3.64419e-08
-3.40955e-08
6.3939e-06
5.35805e-06
1.05451e-06
5.50649e-06
2.23716e-07
5.64777e-06
-1.44085e-07
5.73564e-06
-2.57314e-07
5.77646e-06
-2.42347e-07
5.78324e-06
-1.78425e-07
5.77528e-06
-1.26643e-07
5.76328e-06
-9.40042e-08
5.74975e-06
-7.56512e-08
5.73931e-06
-6.40092e-08
5.73029e-06
-5.65007e-08
5.72239e-06
-5.00012e-08
5.71428e-06
-4.41821e-08
5.70724e-06
-3.97255e-08
5.70186e-06
-3.77854e-08
5.69671e-06
-3.54019e-08
5.6917e-06
-3.14648e-08
-2.96533e-08
5.68737e-06
5.04576e-06
1.01105e-06
5.36491e-06
-9.54497e-08
5.35251e-06
-1.31766e-07
5.33285e-06
-2.37745e-07
5.296e-06
-2.05651e-07
5.25016e-06
-1.32589e-07
5.20891e-06
-8.47325e-08
5.17485e-06
-6.08213e-08
5.14634e-06
-4.9826e-08
5.12483e-06
-4.29546e-08
5.10676e-06
-3.93125e-08
5.09059e-06
-3.559e-08
5.07487e-06
-3.02686e-08
5.06152e-06
-2.66321e-08
5.05062e-06
-2.70199e-08
5.0397e-06
-2.44148e-08
5.02919e-06
-2.02437e-08
-2.11068e-08
5.0213e-06
5.4676e-06
5.37215e-06
5.24037e-06
5.00261e-06
4.79694e-06
4.66444e-06
4.57967e-06
4.51835e-06
4.46847e-06
4.42535e-06
4.38573e-06
4.34971e-06
4.31933e-06
4.29269e-06
4.26567e-06
4.24143e-06
4.22142e-06
4.20064e-06
2.31289e-08
-2.31296e-08
2.37208e-07
-2.14083e-07
4.89334e-07
-2.52095e-07
7.096e-07
-2.20245e-07
8.77315e-07
-1.67696e-07
9.88443e-07
-1.11119e-07
1.04411e-06
-5.56512e-08
1.04653e-06
-2.42138e-09
1.00103e-06
4.55125e-08
9.1775e-07
8.32666e-08
8.11951e-07
1.05809e-07
7.02764e-07
1.09173e-07
6.09982e-07
9.27781e-08
5.43694e-07
6.6297e-08
4.92548e-07
5.11625e-08
4.33365e-07
5.9883e-08
3.47053e-07
8.61708e-08
2.21946e-07
1.25876e-07
4.36336e-08
1.77892e-07
-2.0184e-07
2.4484e-07
-5.04381e-07
3.02284e-07
-8.45375e-07
3.40741e-07
-1.20972e-06
3.64348e-07
-1.58711e-06
3.77407e-07
-1.96871e-06
3.8164e-07
-2.34454e-06
3.7585e-07
-2.70657e-06
3.62056e-07
-3.04965e-06
3.43086e-07
-3.36994e-06
3.20303e-07
-3.66511e-06
2.95175e-07
-3.93429e-06
2.69191e-07
-4.17782e-06
2.43524e-07
-4.3967e-06
2.18883e-07
-4.59242e-06
1.95722e-07
-4.76668e-06
1.74267e-07
-4.92128e-06
1.54601e-07
-5.05797e-06
1.36684e-07
-5.17837e-06
1.204e-07
-5.28395e-06
1.05588e-07
-5.37602e-06
9.20672e-08
-5.45568e-06
7.96559e-08
-5.52386e-06
6.81816e-08
-5.58135e-06
5.7489e-08
-5.62879e-06
4.74442e-08
-5.66673e-06
3.79381e-08
-5.69562e-06
2.88835e-08
-5.71582e-06
2.0209e-08
-5.72771e-06
1.18849e-08
-5.73175e-06
4.03899e-09
-5.72881e-06
-2.94046e-09
-5.71997e-06
-8.83883e-09
-5.706e-06
-1.39654e-08
-5.68732e-06
-1.86817e-08
-5.66417e-06
-2.31491e-08
-5.63673e-06
-2.74457e-08
-5.60513e-06
-3.15994e-08
-5.5695e-06
-3.56252e-08
-5.52997e-06
-3.95299e-08
-5.48666e-06
-4.33144e-08
-5.43968e-06
-4.69778e-08
-5.38917e-06
-5.05174e-08
-5.33524e-06
-5.39299e-08
-5.27802e-06
-5.72117e-08
-5.21766e-06
-6.03596e-08
-5.15429e-06
-6.33711e-08
-5.08805e-06
-6.62432e-08
-5.01908e-06
-6.89722e-08
-4.94752e-06
-7.15561e-08
-4.87353e-06
-7.39931e-08
-4.79725e-06
-7.6282e-08
-4.71883e-06
-7.84221e-08
-4.63841e-06
-8.04129e-08
-4.55616e-06
-8.22547e-08
-4.47221e-06
-8.39484e-08
-4.38672e-06
-8.54949e-08
-4.29982e-06
-8.6896e-08
-4.21167e-06
-8.81538e-08
-4.12239e-06
-8.92709e-08
-4.03214e-06
-9.02502e-08
-3.94105e-06
-9.10954e-08
-3.84924e-06
-9.18103e-08
-3.75684e-06
-9.23992e-08
-3.66397e-06
-9.28671e-08
-3.57075e-06
-9.32196e-08
-3.47729e-06
-9.3463e-08
-3.38368e-06
-9.36044e-08
-3.29003e-06
-9.36521e-08
-3.19642e-06
-9.36162e-08
-3.10291e-06
-9.35098e-08
-3.00956e-06
-9.33495e-08
-2.9164e-06
-9.3156e-08
-2.82345e-06
-9.29536e-08
-2.73069e-06
-9.27601e-08
-2.63813e-06
-9.25563e-08
-2.54587e-06
-9.2257e-08
-2.45411e-06
-9.17602e-08
-2.36313e-06
-9.09809e-08
-2.2732e-06
-8.99362e-08
-2.18441e-06
-8.87828e-08
-2.09679e-06
-8.7628e-08
-2.01032e-06
-8.64718e-08
-1.92502e-06
-8.52983e-08
-1.84092e-06
-8.41002e-08
-1.75804e-06
-8.28765e-08
-1.67641e-06
-8.16298e-08
-1.59605e-06
-8.03639e-08
-1.51696e-06
-7.90825e-08
-1.43917e-06
-7.77884e-08
-1.36269e-06
-7.64795e-08
-1.28756e-06
-7.51351e-08
-1.21379e-06
-7.37671e-08
-1.14139e-06
-7.24035e-08
-1.07035e-06
-7.10391e-08
-1.00067e-06
-6.96751e-08
-9.32357e-07
-6.83127e-08
-8.65403e-07
-6.69532e-08
-7.99802e-07
-6.5599e-08
-7.35548e-07
-6.42527e-08
-6.72631e-07
-6.29162e-08
-6.1104e-07
-6.15889e-08
-5.50767e-07
-6.02716e-08
-4.91798e-07
-5.89669e-08
-4.34115e-07
-5.7681e-08
-3.77694e-07
-5.64194e-08
-3.22514e-07
-5.5178e-08
-2.68559e-07
-5.39534e-08
-2.15807e-07
-5.27497e-08
-1.6424e-07
-5.15659e-08
-1.13848e-07
-5.03902e-08
-6.46237e-08
-4.92225e-08
-1.66894e-08
-4.79331e-08
3.00868e-08
-4.67754e-08
7.60124e-08
-4.59249e-08
1.20981e-07
-4.49685e-08
1.64891e-07
-4.3909e-08
2.07736e-07
-4.28455e-08
2.49535e-07
-4.17993e-08
2.90317e-07
-4.07828e-08
3.30114e-07
-3.97983e-08
3.68957e-07
-3.8844e-08
4.06874e-07
-3.79183e-08
4.43892e-07
-3.70196e-08
4.80037e-07
-3.6147e-08
5.15334e-07
-3.52998e-08
5.49809e-07
-3.44774e-08
5.83486e-07
-3.36794e-08
6.16389e-07
-3.29057e-08
6.48542e-07
-3.21562e-08
6.7997e-07
-3.14306e-08
7.10697e-07
-3.0729e-08
7.40746e-07
-3.00514e-08
7.70142e-07
-2.93977e-08
7.98908e-07
-2.87682e-08
8.27069e-07
-2.81627e-08
8.54649e-07
-2.75813e-08
8.81672e-07
-2.70239e-08
9.08161e-07
-2.64904e-08
9.34141e-07
-2.59806e-08
9.59634e-07
-2.54938e-08
9.84663e-07
-2.50294e-08
1.00925e-06
-2.45861e-08
1.03341e-06
-2.41618e-08
1.05716e-06
-2.3754e-08
1.08052e-06
-2.33585e-08
1.10349e-06
-2.29695e-08
1.12607e-06
-2.25791e-08
1.14824e-06
-2.21757e-08
1.16999e-06
-2.17437e-08
1.19125e-06
-2.12608e-08
1.21194e-06
-2.06961e-08
1.23195e-06
-2.00052e-08
1.25107e-06
-1.91244e-08
1.26903e-06
-1.79562e-08
1.28538e-06
-1.63564e-08
1.29943e-06
-1.40498e-08
1.31006e-06
-1.06261e-08
1.31463e-06
-4.56203e-09
1.30778e-06
6.85279e-09
1.27824e-06
2.95331e-08
7.23261e-08
1.20591e-06
2.54188e-07
-2.77339e-07
4.90086e-07
-4.49978e-07
6.39669e-07
-4.01675e-07
7.24301e-07
-3.04874e-07
7.63814e-07
-2.072e-07
7.6976e-07
-1.17068e-07
7.48828e-07
-3.47132e-08
7.06646e-07
3.97534e-08
6.46285e-07
1.05878e-07
5.67658e-07
1.61885e-07
4.70043e-07
2.0343e-07
3.51772e-07
2.27433e-07
2.06807e-07
2.37748e-07
2.36058e-08
2.49513e-07
-2.08617e-07
2.83391e-07
-4.94265e-07
3.45623e-07
-8.32231e-07
4.24225e-07
-1.21209e-06
5.05753e-07
-1.61591e-06
5.8167e-07
-2.01736e-06
6.46226e-07
-2.40738e-06
6.92257e-07
-2.78285e-06
7.16203e-07
-3.1378e-06
7.1929e-07
-3.46522e-06
7.04832e-07
-3.75998e-06
6.76404e-07
-4.02112e-06
6.36997e-07
-4.24905e-06
5.89998e-07
-4.44507e-06
5.39102e-07
-4.61206e-06
4.87298e-07
-4.75354e-06
4.3666e-07
-4.87288e-06
3.88536e-07
-4.97326e-06
3.439e-07
-5.05754e-06
3.03167e-07
-5.12824e-06
2.66422e-07
-5.18748e-06
2.33504e-07
-5.23699e-06
2.0411e-07
-5.27817e-06
1.77871e-07
-5.31217e-06
1.54393e-07
-5.33988e-06
1.33297e-07
-5.36204e-06
1.1423e-07
-5.37926e-06
9.6881e-08
-5.39207e-06
8.09846e-08
-5.4009e-06
6.63186e-08
-5.40615e-06
5.27013e-08
-5.4082e-06
3.99859e-08
-5.40738e-06
2.80574e-08
-5.40401e-06
1.68382e-08
-5.39841e-06
6.2933e-09
-5.39075e-06
-3.62123e-09
-5.3806e-06
-1.30952e-08
-5.36707e-06
-2.23686e-08
-5.34957e-06
-3.14707e-08
-5.32791e-06
-4.03358e-08
-5.3021e-06
-4.89602e-08
-5.2722e-06
-5.73509e-08
-5.23828e-06
-6.55139e-08
-5.20045e-06
-7.3452e-08
-5.15882e-06
-8.11649e-08
-5.11349e-06
-8.86491e-08
-5.06456e-06
-9.58991e-08
-5.01217e-06
-1.02908e-07
-4.95643e-06
-1.09668e-07
-4.89747e-06
-1.16172e-07
-4.83542e-06
-1.22412e-07
-4.77041e-06
-1.28385e-07
-4.70257e-06
-1.34082e-07
-4.63204e-06
-1.39497e-07
-4.55898e-06
-1.44626e-07
-4.4835e-06
-1.49464e-07
-4.40578e-06
-1.5401e-07
-4.32594e-06
-1.58263e-07
-4.24413e-06
-1.6222e-07
-4.1605e-06
-1.65884e-07
-4.07519e-06
-1.69255e-07
-3.98835e-06
-1.72335e-07
-3.90012e-06
-1.75128e-07
-3.81064e-06
-1.77638e-07
-3.72004e-06
-1.7987e-07
-3.62846e-06
-1.8183e-07
-3.53603e-06
-1.83526e-07
-3.44288e-06
-1.84963e-07
-3.34912e-06
-1.86152e-07
-3.25489e-06
-1.871e-07
-3.16029e-06
-1.87819e-07
-3.06543e-06
-1.88318e-07
-2.97043e-06
-1.8861e-07
-2.87538e-06
-1.88705e-07
-2.78037e-06
-1.88618e-07
-2.68552e-06
-1.88361e-07
-2.59092e-06
-1.87947e-07
-2.49669e-06
-1.87387e-07
-2.40296e-06
-1.8669e-07
-2.30987e-06
-1.85849e-07
-2.21759e-06
-1.84836e-07
-2.12624e-06
-1.83609e-07
-2.03586e-06
-1.82137e-07
-1.94643e-06
-1.80416e-07
-1.85787e-06
-1.78488e-07
-1.77023e-06
-1.7643e-07
-1.68356e-06
-1.74295e-07
-1.59794e-06
-1.72096e-07
-1.5134e-06
-1.69835e-07
-1.42999e-06
-1.67513e-07
-1.34773e-06
-1.65134e-07
-1.26665e-06
-1.62703e-07
-1.18679e-06
-1.60226e-07
-1.10817e-06
-1.57708e-07
-1.0308e-06
-1.55153e-07
-9.54719e-07
-1.52562e-07
-8.79917e-07
-1.49936e-07
-8.06396e-07
-1.47288e-07
-7.34167e-07
-1.44632e-07
-6.63236e-07
-1.4197e-07
-5.93602e-07
-1.39308e-07
-5.25267e-07
-1.36647e-07
-4.58229e-07
-1.33991e-07
-3.92483e-07
-1.31344e-07
-3.28025e-07
-1.2871e-07
-2.64844e-07
-1.26096e-07
-2.0293e-07
-1.23502e-07
-1.42274e-07
-1.20926e-07
-8.28653e-08
-1.18375e-07
-2.46962e-08
-1.15849e-07
3.22467e-08
-1.13361e-07
8.79916e-08
-1.10922e-07
1.42556e-07
-1.08517e-07
1.95949e-07
-1.06142e-07
2.48188e-07
-1.03804e-07
2.99298e-07
-1.015e-07
3.4931e-07
-9.92335e-08
3.98381e-07
-9.70033e-08
4.46484e-07
-9.48789e-08
4.93405e-07
-9.2845e-08
5.39209e-07
-9.07727e-08
5.83975e-07
-8.86751e-08
6.27735e-07
-8.66051e-08
6.70517e-07
-8.45819e-08
7.12346e-07
-8.26123e-08
7.53245e-07
-8.06976e-08
7.93237e-07
-7.88367e-08
8.32346e-07
-7.70278e-08
8.70595e-07
-7.52695e-08
9.08008e-07
-7.35604e-08
9.44607e-07
-7.18998e-08
9.80415e-07
-7.0287e-08
1.01546e-06
-6.87217e-08
1.04975e-06
-6.72034e-08
1.08333e-06
-6.5732e-08
1.1162e-06
-6.43075e-08
1.1484e-06
-6.29296e-08
1.17995e-06
-6.15985e-08
1.21086e-06
-6.03142e-08
1.24117e-06
-5.90768e-08
1.27089e-06
-5.78861e-08
1.30005e-06
-5.67423e-08
1.32867e-06
-5.56449e-08
1.35678e-06
-5.45937e-08
1.38438e-06
-5.3588e-08
1.41152e-06
-5.26265e-08
1.43819e-06
-5.17076e-08
1.46444e-06
-5.08285e-08
1.49026e-06
-4.99854e-08
1.51568e-06
-4.91727e-08
1.5407e-06
-4.83825e-08
1.56533e-06
-4.76038e-08
1.58958e-06
-4.68213e-08
1.61341e-06
-4.60136e-08
1.63682e-06
-4.51511e-08
1.65975e-06
-4.41928e-08
1.68214e-06
-4.30812e-08
1.70387e-06
-4.17346e-08
1.72478e-06
-4.00349e-08
1.74462e-06
-3.78055e-08
1.76304e-06
-3.47768e-08
1.77948e-06
-3.04882e-08
1.79304e-06
-2.41873e-08
1.80276e-06
-1.42803e-08
1.80763e-06
1.99045e-09
1.80575e-06
3.14167e-08
8.80246e-08
1.79004e-06
2.46008e-07
-5.23368e-07
3.4232e-07
-5.46294e-07
3.58606e-07
-4.17959e-07
3.47561e-07
-2.9382e-07
3.19859e-07
-1.79492e-07
2.75776e-07
-7.29844e-08
2.14599e-07
2.64661e-08
1.35278e-07
1.1907e-07
3.67523e-08
2.04405e-07
-8.31422e-08
2.81776e-07
-2.30111e-07
3.50399e-07
-4.14674e-07
4.11995e-07
-6.50241e-07
4.73313e-07
-9.43733e-07
5.43008e-07
-1.28499e-06
6.24642e-07
-1.65209e-06
7.12724e-07
-2.02419e-06
7.96329e-07
-2.38445e-06
8.65996e-07
-2.71896e-06
9.16164e-07
-3.01718e-06
9.44434e-07
-3.27524e-06
9.5032e-07
-3.49413e-06
9.35101e-07
-3.67684e-06
9.01998e-07
-3.8274e-06
8.55396e-07
-3.95053e-06
7.99545e-07
-4.05166e-06
7.38129e-07
-4.13612e-06
6.7445e-07
-4.20828e-06
6.11267e-07
-4.27159e-06
5.50612e-07
-4.32867e-06
4.93738e-07
-4.38139e-06
4.41253e-07
-4.43088e-06
3.93389e-07
-4.47777e-06
3.50064e-07
-4.52235e-06
3.10996e-07
-4.56464e-06
2.75794e-07
-4.60455e-06
2.4402e-07
-4.64191e-06
2.15232e-07
-4.67653e-06
1.89017e-07
-4.70823e-06
1.64995e-07
-4.73684e-06
1.42838e-07
-4.76222e-06
1.22262e-07
-4.78427e-06
1.03029e-07
-4.80289e-06
8.4942e-08
-4.81802e-06
6.78349e-08
-4.82961e-06
5.15683e-08
-4.83757e-06
3.60229e-08
-4.84183e-06
2.10969e-08
-4.84223e-06
6.69651e-09
-4.83857e-06
-7.28495e-09
-4.8307e-06
-2.09618e-08
-4.81868e-06
-3.43937e-08
-4.80258e-06
-4.75682e-08
-4.78245e-06
-6.0463e-08
-4.75834e-06
-7.30698e-08
-4.73031e-06
-8.53821e-08
-4.69843e-06
-9.73941e-08
-4.66279e-06
-1.09099e-07
-4.62346e-06
-1.20488e-07
-4.58056e-06
-1.31551e-07
-4.53418e-06
-1.42277e-07
-4.48444e-06
-1.52652e-07
-4.43144e-06
-1.62665e-07
-4.37531e-06
-1.72302e-07
-4.31617e-06
-1.81552e-07
-4.25415e-06
-1.90407e-07
-4.18938e-06
-1.98857e-07
-4.12198e-06
-2.06891e-07
-4.05211e-06
-2.14502e-07
-3.97988e-06
-2.21685e-07
-3.90546e-06
-2.28436e-07
-3.82897e-06
-2.34752e-07
-3.75056e-06
-2.40632e-07
-3.67037e-06
-2.46076e-07
-3.58854e-06
-2.51086e-07
-3.50521e-06
-2.55665e-07
-3.42051e-06
-2.59819e-07
-3.3346e-06
-2.63552e-07
-3.2476e-06
-2.66872e-07
-3.15964e-06
-2.69788e-07
-3.07086e-06
-2.72309e-07
-2.98137e-06
-2.74446e-07
-2.89132e-06
-2.7621e-07
-2.8008e-06
-2.77614e-07
-2.70995e-06
-2.78671e-07
-2.61887e-06
-2.79396e-07
-2.52768e-06
-2.79802e-07
-2.43648e-06
-2.79905e-07
-2.34538e-06
-2.7972e-07
-2.25448e-06
-2.79261e-07
-2.16389e-06
-2.78541e-07
-2.0737e-06
-2.77571e-07
-1.98403e-06
-2.76359e-07
-1.89498e-06
-2.74901e-07
-1.80663e-06
-2.73187e-07
-1.71904e-06
-2.71201e-07
-1.63223e-06
-2.6894e-07
-1.54623e-06
-2.66421e-07
-1.46104e-06
-2.63678e-07
-1.37671e-06
-2.60759e-07
-1.29331e-06
-2.57698e-07
-1.21089e-06
-2.54515e-07
-1.1295e-06
-2.51222e-07
-1.04919e-06
-2.47829e-07
-9.69976e-07
-2.44346e-07
-8.91897e-07
-2.40782e-07
-8.14978e-07
-2.37145e-07
-7.39242e-07
-2.33444e-07
-6.64708e-07
-2.29686e-07
-5.91391e-07
-2.25879e-07
-5.19296e-07
-2.22031e-07
-4.4843e-07
-2.18153e-07
-3.78806e-07
-2.14256e-07
-3.10429e-07
-2.10347e-07
-2.433e-07
-2.06436e-07
-1.77419e-07
-2.02527e-07
-1.12786e-07
-1.98624e-07
-4.93962e-08
-1.94734e-07
1.27573e-08
-1.90863e-07
7.36783e-08
-1.87016e-07
1.33375e-07
-1.83198e-07
1.9186e-07
-1.79411e-07
2.49146e-07
-1.7566e-07
3.05249e-07
-1.71951e-07
3.6018e-07
-1.68291e-07
4.13944e-07
-1.64686e-07
4.6656e-07
-1.61131e-07
5.18045e-07
-1.57627e-07
5.68419e-07
-1.54177e-07
6.17704e-07
-1.50785e-07
6.65931e-07
-1.47459e-07
7.1314e-07
-1.44212e-07
7.59316e-07
-1.41055e-07
8.04424e-07
-1.37953e-07
8.48513e-07
-1.34861e-07
8.91627e-07
-1.31789e-07
9.33789e-07
-1.28767e-07
9.75018e-07
-1.25811e-07
1.01533e-06
-1.22927e-07
1.05475e-06
-1.20117e-07
1.0933e-06
-1.17381e-07
1.13099e-06
-1.14719e-07
1.16785e-06
-1.12129e-07
1.20389e-06
-1.0961e-07
1.23916e-06
-1.07162e-07
1.27365e-06
-1.04783e-07
1.3074e-06
-1.02474e-07
1.34043e-06
-1.00234e-07
1.37276e-06
-9.80635e-08
1.40442e-06
-9.59615e-08
1.43541e-06
-9.39282e-08
1.46578e-06
-9.19637e-08
1.49553e-06
-9.0068e-08
1.5247e-06
-8.82412e-08
1.55329e-06
-8.64833e-08
1.58134e-06
-8.4794e-08
1.60887e-06
-8.31731e-08
1.6359e-06
-8.16199e-08
1.66244e-06
-8.01334e-08
1.68853e-06
-7.87118e-08
1.71417e-06
-7.73525e-08
1.7394e-06
-7.60516e-08
1.76421e-06
-7.48037e-08
1.78864e-06
-7.36006e-08
1.81269e-06
-7.24312e-08
1.83637e-06
-7.12799e-08
1.85967e-06
-7.0125e-08
1.88259e-06
-6.89365e-08
1.90511e-06
-6.76731e-08
1.9272e-06
-6.62776e-08
1.94879e-06
-6.46697e-08
1.96979e-06
-6.27363e-08
1.99007e-06
-6.03146e-08
2.00943e-06
-5.71639e-08
2.02757e-06
-5.29209e-08
2.04408e-06
-4.69951e-08
2.05833e-06
-3.84466e-08
2.06957e-06
-2.55157e-08
2.07692e-06
-5.35873e-09
2.08082e-06
2.75128e-08
8.54833e-08
2.08336e-06
9.37312e-08
-6.1711e-07
6.23856e-08
-5.14961e-07
1.39012e-08
-3.69467e-07
-4.3191e-08
-2.36721e-07
-1.12689e-07
-1.09988e-07
-1.98062e-07
1.23927e-08
-3.02294e-07
1.307e-07
-4.27801e-07
2.44577e-07
-5.7716e-07
3.53763e-07
-7.53753e-07
4.5837e-07
-9.62339e-07
5.58982e-07
-1.20723e-06
6.5689e-07
-1.48723e-06
7.533e-07
-1.79151e-06
8.47293e-07
-2.1014e-06
9.3452e-07
-2.39725e-06
1.00857e-06
-2.66459e-06
1.06366e-06
-2.89514e-06
1.09653e-06
-3.08563e-06
1.10665e-06
-3.23689e-06
1.09569e-06
-3.35327e-06
1.0667e-06
-3.4413e-06
1.02314e-06
-3.50812e-06
9.68818e-07
-3.56023e-06
9.07515e-07
-3.60313e-06
8.42446e-07
-3.64125e-06
7.76245e-07
-3.67782e-06
7.11025e-07
-3.71489e-06
6.48334e-07
-3.75345e-06
5.89174e-07
-3.79378e-06
5.34067e-07
-3.83569e-06
4.83165e-07
-3.87869e-06
4.36391e-07
-3.92214e-06
3.93511e-07
-3.96535e-06
3.54205e-07
-4.00766e-06
3.1811e-07
-4.0485e-06
2.84855e-07
-4.08735e-06
2.54085e-07
-4.1238e-06
2.25466e-07
-4.15751e-06
1.98701e-07
-4.18819e-06
1.73524e-07
-4.21563e-06
1.49705e-07
-4.23966e-06
1.2705e-07
-4.2601e-06
1.05391e-07
-4.27686e-06
8.45869e-08
-4.28981e-06
6.45181e-08
-4.29887e-06
4.50829e-08
-4.30396e-06
2.61952e-08
-4.30505e-06
7.77808e-09
-4.30209e-06
-1.0242e-08
-4.29513e-06
-2.79264e-08
-4.28422e-06
-4.53029e-08
-4.26942e-06
-6.23683e-08
-4.25077e-06
-7.91101e-08
-4.22832e-06
-9.55154e-08
-4.20214e-06
-1.11571e-07
-4.17227e-06
-1.27262e-07
-4.13879e-06
-1.42574e-07
-4.10179e-06
-1.57488e-07
-4.06135e-06
-1.71989e-07
-4.01757e-06
-1.86058e-07
-3.97055e-06
-1.99676e-07
-3.92039e-06
-2.12825e-07
-3.86721e-06
-2.25485e-07
-3.81112e-06
-2.37641e-07
-3.75224e-06
-2.49282e-07
-3.69071e-06
-2.60392e-07
-3.62664e-06
-2.70959e-07
-3.56017e-06
-2.80973e-07
-3.49143e-06
-2.90426e-07
-3.42055e-06
-2.99312e-07
-3.34768e-06
-3.07628e-07
-3.27294e-06
-3.1537e-07
-3.19647e-06
-3.22541e-07
-3.11842e-06
-3.29142e-07
-3.03891e-06
-3.35176e-07
-2.95808e-06
-3.40649e-07
-2.87606e-06
-3.4557e-07
-2.79298e-06
-3.49946e-07
-2.70898e-06
-3.5379e-07
-2.62418e-06
-3.57112e-07
-2.5387e-06
-3.59927e-07
-2.45266e-06
-3.62248e-07
-2.36618e-06
-3.64092e-07
-2.27938e-06
-3.65474e-07
-2.19236e-06
-3.66413e-07
-2.10524e-06
-3.66926e-07
-2.01811e-06
-3.6703e-07
-1.93109e-06
-3.66744e-07
-1.84427e-06
-3.66085e-07
-1.75774e-06
-3.65068e-07
-1.6716e-06
-3.63708e-07
-1.58594e-06
-3.62015e-07
-1.50085e-06
-3.59996e-07
-1.41638e-06
-3.57653e-07
-1.3326e-06
-3.54989e-07
-1.24953e-06
-3.52012e-07
-1.16721e-06
-3.48742e-07
-1.08567e-06
-3.45212e-07
-1.00498e-06
-3.41456e-07
-9.25169e-07
-3.37504e-07
-8.46303e-07
-3.33381e-07
-7.68422e-07
-3.29103e-07
-6.91564e-07
-3.24687e-07
-6.15762e-07
-3.20148e-07
-5.41045e-07
-3.15499e-07
-4.67439e-07
-3.10752e-07
-3.94964e-07
-3.05918e-07
-3.2364e-07
-3.0101e-07
-2.5348e-07
-2.9604e-07
-1.84493e-07
-2.91018e-07
-1.1669e-07
-2.85956e-07
-5.00779e-08
-2.80867e-07
1.5337e-08
-2.75762e-07
7.95502e-08
-2.70649e-07
1.4256e-07