/*--------------------------------*- C++ -*----------------------------------*\
  =========                 |
  \\      /  F ield         | OpenFOAM: The Open Source CFD Toolbox
   \\    /   O peration     | Website:  https://openfoam.org
    \\  /    A nd           | Version:  8
     \\/     M anipulation  |
\*---------------------------------------------------------------------------*/
FoamFile
{
    version     2.0;
    format      ascii;
    class       volScalarField;
    location    "800";
    object      nut;
}
// * * * * * * * * * * * * * * * * * * * * * * * * * * * * * * * * * * * * * //

dimensions      [0 2 -1 0 0 0 0];

internalField   nonuniform List<scalar> 
12225
(
3.38769e-06
2.28117e-05
2.21163e-05
1.9486e-05
2.13889e-05
1.9355e-05
2.0704e-05
1.80108e-05
1.7294e-05
2.37612e-05
2.06414e-05
2.09298e-05
1.6665e-05
2.70602e-05
2.25649e-05
2.65459e-05
2.57221e-05
3.12181e-05
0.000246432
6.78599e-05
4.42053e-05
3.99864e-05
3.66177e-05
3.60522e-05
3.93811e-05
3.93044e-05
4.2066e-05
4.39098e-05
4.18443e-05
4.40979e-05
4.48615e-05
5.06655e-05
5.5192e-05
5.68549e-05
5.65647e-05
5.79541e-05
0.00068973
0.000337835
0.000205143
0.000144314
0.000105944
8.7742e-05
7.80704e-05
6.94203e-05
6.34114e-05
6.07129e-05
5.73863e-05
5.47611e-05
5.28519e-05
5.06713e-05
5.05663e-05
5.02683e-05
4.96835e-05
4.96548e-05
0.000828638
0.000677433
0.00053754
0.000435029
0.000340133
0.000276594
0.000241221
0.000211762
0.000193734
0.000177741
0.000167483
0.000155228
0.000147653
0.000138685
0.000133868
0.000127962
0.000124558
0.000119831
0.000902813
0.000849624
0.000788484
0.000725461
0.000639544
0.000560056
0.000509692
0.000462391
0.000432941
0.000402027
0.000382687
0.000358846
0.000344178
0.000325472
0.00031494
0.000300434
0.000292901
0.000280607
0.000929831
0.000913369
0.000892641
0.000871368
0.000828389
0.000775908
0.000738715
0.000698696
0.000671768
0.000640406
0.000619443
0.00059282
0.000575532
0.000552612
0.00053889
0.000519213
0.000508667
0.000491298
0.000936942
0.00093186
0.000924987
0.000918913
0.000906797
0.000883641
0.000865714
0.000844006
0.000828381
0.000808342
0.000793861
0.000774604
0.000761073
0.000742767
0.000730677
0.00071354
0.000703197
0.000687167
0.000937246
0.000935517
0.000934214
0.000931232
0.000926605
0.000917911
0.00090936
0.000899021
0.000890932
0.000880375
0.000872165
0.000860797
0.000852299
0.000840515
0.000832202
0.000820297
0.000812618
0.000800676
0.000937198
0.000936067
0.000935535
0.000934262
0.000932501
0.000929012
0.000925617
0.000921229
0.00091688
0.000912068
0.000907879
0.000902348
0.000897644
0.000891303
0.000886308
0.000879392
0.000874307
0.000866913
0.000937133
0.000936167
0.000935534
0.000934643
0.0009338
0.000932392
0.000931053
0.000929348
0.00092768
0.00092564
0.00092378
0.000921416
0.000919155
0.000916529
0.000913683
0.000910734
0.000907781
0.000904303
0.000937094
0.000936187
0.000935452
0.000934637
0.000933936
0.000933102
0.000932356
0.000931496
0.000930722
0.000929787
0.000928935
0.000927897
0.000926924
0.000925754
0.000924666
0.000923273
0.000922124
0.000920508
0.000937073
0.000936194
0.000935411
0.000934623
0.000933914
0.000933191
0.000932541
0.000931869
0.000931268
0.000930628
0.000930052
0.00092942
0.000928853
0.000928211
0.000927643
0.00092697
0.000926385
0.000925677
0.000937063
0.000936196
0.00093539
0.000934612
0.000933886
0.000933183
0.000932527
0.000931888
0.000931292
0.000930708
0.000930163
0.000929623
0.00092912
0.000928616
0.000928146
0.000927671
0.000927224
0.000926772
0.000937058
0.000936194
0.000935379
0.000934601
0.000933866
0.000933163
0.000932498
0.00093186
0.000931256
0.000930676
0.000930126
0.000929596
0.000929093
0.000928608
0.000928146
0.000927701
0.000927275
0.000926866
0.000937056
0.000936192
0.000935372
0.000934592
0.000933852
0.000933147
0.000932476
0.000931835
0.000931225
0.000930642
0.000930085
0.000929553
0.000929045
0.000928558
0.000928093
0.000927647
0.00092722
0.000926812
0.000937055
0.00093619
0.000935368
0.000934586
0.000933843
0.000933135
0.00093246
0.000931817
0.000931203
0.000930616
0.000930056
0.000929521
0.000929009
0.000928519
0.000928051
0.000927602
0.000927172
0.000926761
0.000937055
0.00093619
0.000935367
0.000934583
0.000933838
0.000933128
0.000932452
0.000931806
0.00093119
0.000930601
0.000930039
0.000929501
0.000928987
0.000928495
0.000928024
0.000927573
0.000927141
0.000926728
0.000937055
0.00093619
0.000935366
0.000934583
0.000933836
0.000933126
0.000932448
0.000931802
0.000931184
0.000930596
0.000930032
0.000929494
0.000928978
0.000928485
0.000928013
0.000927561
0.000927128
0.000926714
0.000937055
0.00093619
0.000935367
0.000934583
0.000933838
0.000933127
0.00093245
0.000931804
0.000931188
0.000930598
0.000930035
0.000929496
0.000928981
0.000928488
0.000928016
0.000927564
0.000927131
0.000926716
0.000937055
0.000936192
0.000935369
0.000934588
0.000933842
0.000933134
0.000932457
0.000931814
0.000931197
0.00093061
0.000930047
0.00092951
0.000928995
0.000928503
0.000928031
0.000927579
0.000927145
0.00092673
0.000937054
0.000936195
0.000935372
0.000934595
0.00093385
0.000933146
0.00093247
0.00093183
0.000931213
0.000930629
0.000930063
0.000929526
0.000929004
0.000928507
0.000928022
0.000927559
0.000927104
0.000926669
0.000937048
0.000936204
0.000935377
0.000934606
0.000933859
0.00093316
0.000932473
0.000931834
0.000931191
0.00093059
0.000929969
0.000929383
0.000928769
0.000928186
0.000927564
0.000926971
0.000926325
0.000925714
0.000937007
0.000936248
0.000935393
0.000934608
0.000933832
0.000933046
0.000932234
0.000931425
0.000930526
0.000929597
0.000928494
0.000927416
0.000926125
0.000924875
0.000923385
0.00092196
0.000920263
0.00091869
0.000936816
0.000936551
0.000935446
0.000934299
0.000932953
0.000931119
0.000929083
0.000926746
0.000924097
0.000920623
0.000917047
0.000913276
0.000908975
0.000904713
0.000899784
0.0008952
0.000889911
0.000885203
0.000936583
0.000938264
0.000934027
0.000928902
0.000923106
0.00091482
0.00090564
0.000896518
0.000885277
0.000874195
0.000861521
0.000849763
0.000836895
0.000825353
0.000812825
0.000801864
0.000789843
0.00077976
0.000941117
0.000939671
0.000912894
0.000891699
0.000860813
0.000832417
0.00080179
0.000773931
0.000744607
0.000718982
0.000692815
0.000670774
0.000648362
0.000629894
0.000610735
0.000595255
0.000578687
0.000565784
0.000974026
0.000865379
0.000793548
0.00070711
0.00063596
0.000579242
0.000528729
0.000488736
0.00045271
0.000424587
0.000398585
0.000378471
0.000359117
0.000344253
0.000329209
0.000317823
0.00030569
0.000296783
0.000945519
0.00051826
0.000394114
0.000314223
0.000263847
0.000228191
0.00020117
0.000181789
0.000166512
0.00015525
0.000145827
0.000138717
0.000132422
0.000127585
0.000122994
0.000119476
0.000115914
0.000113244
0.000241504
0.000107797
8.16277e-05
7.04372e-05
6.43498e-05
6.07395e-05
5.86598e-05
5.7453e-05
5.70135e-05
5.70518e-05
5.75724e-05
5.84024e-05
5.95797e-05
6.08177e-05
6.23031e-05
6.3808e-05
6.4429e-05
6.44445e-05
8.74027e-06
1.56255e-05
1.94277e-05
2.14721e-05
2.25856e-05
2.29944e-05
2.31208e-05
2.3081e-05
2.28453e-05
2.25545e-05
2.22441e-05
2.19339e-05
2.16381e-05
2.13625e-05
2.11109e-05
2.08834e-05
2.06796e-05
2.05008e-05
1.62822e-12
1.84285e-10
9.38923e-10
3.69399e-09
1.23205e-08
3.72552e-08
9.75677e-08
1.94058e-07
3.14212e-07
4.40619e-07
5.53727e-07
6.41467e-07
6.99752e-07
7.21839e-07
7.12428e-07
6.8345e-07
6.28777e-07
5.38134e-07
4.58875e-07
3.9067e-07
3.25815e-07
2.62738e-07
2.01589e-07
1.44892e-07
9.43478e-08
5.5193e-08
2.92469e-08
1.46919e-08
7.45755e-09
4.05291e-09
2.44763e-09
1.86271e-09
1.99709e-09
4.43816e-09
1.00429e-08
5.7903e-08
1.33378e-07
2.90457e-07
4.36253e-07
4.72383e-07
4.34573e-07
3.44984e-07
2.85632e-07
2.77708e-07
3.03358e-07
4.04909e-07
5.41313e-07
1.07222e-06
2.45422e-06
7.66597e-06
2.05783e-05
3.68268e-05
4.68076e-05
5.1532e-05
4.75164e-05
4.65483e-05
4.15156e-05
3.60191e-05
3.03634e-05
3.04936e-05
3.30901e-05
3.13355e-05
3.14306e-05
3.33263e-05
3.35295e-05
3.42263e-05
3.48372e-05
3.54029e-05
3.59858e-05
3.65517e-05
3.71022e-05
3.76566e-05
3.81926e-05
3.87326e-05
3.92597e-05
3.97881e-05
4.03081e-05
4.0828e-05
4.13422e-05
4.18559e-05
4.23655e-05
4.28746e-05
4.33808e-05
4.38865e-05
4.43899e-05
4.48929e-05
4.53939e-05
4.58944e-05
4.63933e-05
4.68914e-05
4.73876e-05
4.78816e-05
4.83728e-05
4.88609e-05
4.93456e-05
4.98267e-05
5.03045e-05
5.07799e-05
5.12559e-05
5.17374e-05
5.22327e-05
5.27249e-05
5.32217e-05
5.37235e-05
5.42302e-05
5.47436e-05
5.52629e-05
5.579e-05
5.63241e-05
5.68671e-05
5.74185e-05
5.79801e-05
5.85516e-05
5.91348e-05
5.97298e-05
6.03381e-05
6.09601e-05
6.15975e-05
6.2251e-05
6.2922e-05
6.36117e-05
6.43215e-05
6.50533e-05
6.58083e-05
6.65892e-05
6.73977e-05
6.8238e-05
6.91181e-05
7.00314e-05
7.09413e-05
7.19535e-05
7.29182e-05
7.40001e-05
7.51068e-05
7.62955e-05
7.75262e-05
7.83257e-05
7.80694e-05
7.78047e-05
7.7525e-05
7.7236e-05
7.69357e-05
7.66261e-05
7.63059e-05
7.59769e-05
7.56381e-05
7.5291e-05
7.49354e-05
7.4573e-05
7.42066e-05
7.38234e-05
7.34499e-05
7.30512e-05
7.26658e-05
7.22606e-05
7.18619e-05
7.14557e-05
7.10498e-05
7.06425e-05
7.02351e-05
6.98273e-05
6.94201e-05
6.90131e-05
6.86071e-05
6.82019e-05
6.77985e-05
6.7397e-05
6.69985e-05
6.66029e-05
6.62113e-05
6.58229e-05
6.54378e-05
6.50546e-05
6.46709e-05
6.42822e-05
6.3881e-05
6.34564e-05
6.29799e-05
6.23952e-05
6.08244e-05
7.22553e-12
1.17755e-09
1.58997e-08
8.44121e-08
3.70792e-07
1.18586e-06
2.76288e-06
5.06083e-06
7.84554e-06
1.10151e-05
1.42134e-05
1.71723e-05
1.96733e-05
2.15684e-05
2.26574e-05
2.299e-05
2.26258e-05
2.18251e-05
1.95631e-05
1.63952e-05
1.26366e-05
9.29968e-06
6.5541e-06
4.42345e-06
2.78697e-06
1.72188e-06
1.05207e-06
6.52877e-07
4.09914e-07
2.68968e-07
1.94002e-07
1.73755e-07
1.52903e-07
3.10606e-07
4.83933e-07
3.37724e-06
7.67228e-06
1.54062e-05
2.1277e-05
2.32555e-05
2.18688e-05
1.96321e-05
1.67252e-05
1.57101e-05
1.64583e-05
1.67926e-05
1.96713e-05
2.66201e-05
3.8077e-05
4.9013e-05
6.09569e-05
7.1059e-05
8.00716e-05
8.73287e-05
9.65082e-05
0.000108783
0.000119927
0.000132052
0.000143979
0.000158751
0.000172219
0.000183752
0.000198276
0.000210631
0.000223369
0.000234919
0.000246337
0.000257164
0.000267702
0.000277834
0.000287708
0.000297274
0.00030663
0.000315752
0.000324703
0.000333475
0.000342102
0.000350585
0.000358943
0.000367179
0.000375302
0.000383318
0.000391229
0.000399043
0.000406758
0.000414379
0.000421906
0.000429342
0.000436686
0.00044394
0.000451102
0.000458168
0.000465129
0.000471975
0.000478684
0.000485228
0.000491563
0.000497625
0.000503317
0.00050851
0.000513043
0.000517642
0.000522024
0.000526336
0.000530503
0.000534558
0.000538482
0.000542279
0.000545943
0.000549473
0.000552865
0.000556116
0.000559223
0.000562185
0.000564997
0.000567659
0.000570166
0.000572519
0.000574713
0.000576747
0.00057862
0.000580329
0.000581871
0.000583247
0.000584454
0.000585491
0.000586358
0.000587057
0.00058761
0.000587964
0.000588232
0.000588199
0.000588076
0.000587766
0.000587443
0.000587009
0.000586732
0.000586477
0.00058607
0.000585521
0.00058484
0.000584031
0.0005831
0.000582046
0.000580873
0.000579581
0.00057817
0.000576638
0.000575076
0.000573234
0.000571658
0.000569558
0.000567751
0.000565508
0.000563402
0.000561119
0.000558798
0.000556407
0.00055396
0.000551461
0.000548915
0.000546325
0.000543692
0.000541016
0.000538298
0.000535543
0.000532752
0.000529933
0.000527088
0.00052422
0.000521325
0.000518398
0.000515435
0.00051239
0.000509217
0.000505837
0.000502116
0.000497752
0.000491997
0.000475936
1.83935e-11
3.12491e-09
5.90254e-08
3.52365e-07
1.18639e-06
2.96383e-06
6.31206e-06
1.09651e-05
1.66974e-05
2.32023e-05
3.0099e-05
3.69459e-05
4.31148e-05
4.8259e-05
5.21319e-05
5.46885e-05
5.60589e-05
5.63862e-05
5.48707e-05
5.19901e-05
4.7294e-05
4.13117e-05
3.40768e-05
2.68153e-05
2.01716e-05
1.44381e-05
9.82392e-06
6.55892e-06
4.17455e-06
2.77969e-06
1.96882e-06
1.58926e-06
1.34275e-06
2.25336e-06
4.25693e-06
1.73595e-05
3.6423e-05
5.48122e-05
6.418e-05
6.24252e-05
5.02759e-05
4.067e-05
3.95131e-05
4.59309e-05
5.31594e-05
6.25439e-05
7.57956e-05
8.82172e-05
0.000101142
0.000118403
0.000136992
0.000157734
0.000180613
0.000206555
0.000235678
0.000266891
0.000298336
0.000329726
0.000360334
0.000390537
0.000419099
0.000445938
0.000473378
0.000498288
0.000522821
0.000545975
0.000568185
0.000589588
0.000610313
0.000630408
0.000649991
0.000669094
0.000687802
0.000706137
0.000724155
0.00074187
0.000759317
0.000776505
0.000793455
0.000810173
0.00082667
0.000842951
0.000859021
0.000874883
0.000890539
0.000905988
0.00092123
0.000936262
0.00095108
0.000965678
0.000980047
0.00099417
0.00100803
0.0010216
0.00103486
0.00104776
0.00106026
0.00107232
0.00108391
0.00109502
0.00110578
0.00111638
0.00112668
0.00113676
0.00114656
0.0011561
0.00116537
0.00117435
0.00118304
0.00119144
0.00119954
0.00120734
0.00121482
0.00122198
0.00122882
0.00123533
0.00124151
0.00124735
0.00125285
0.00125801
0.00126282
0.00126728
0.00127138
0.00127512
0.00127851
0.00128154
0.00128422
0.00128654
0.00128851
0.00129011
0.00129139
0.00129227
0.0012928
0.001293
0.00129312
0.001293
0.00129268
0.00129211
0.00129123
0.00129003
0.00128853
0.00128675
0.00128469
0.00128235
0.00127975
0.00127689
0.00127377
0.00127041
0.00126686
0.00126298
0.00125913
0.00125473
0.00125044
0.00124564
0.00124086
0.00123581
0.00123063
0.0012253
0.00121984
0.00121427
0.00120859
0.00120281
0.00119694
0.00119098
0.00118493
0.0011788
0.0011726
0.00116634
0.00116003
0.00115368
0.00114729
0.00114083
0.00113428
0.00112757
0.00112062
0.00111323
0.00110512
0.00109552
0.00108257
0.00105342
7.04265e-11
1.19053e-08
1.87922e-07
8.31628e-07
2.52813e-06
6.99676e-06
1.38442e-05
2.30353e-05
3.38601e-05
4.52224e-05
5.62061e-05
6.62383e-05
7.48414e-05
8.14106e-05
8.63536e-05
8.95079e-05
9.07888e-05
9.05561e-05
8.89403e-05
8.57641e-05
8.1156e-05
7.55781e-05
6.81493e-05
5.92876e-05
4.95082e-05
3.96831e-05
3.06368e-05
2.30747e-05
1.72617e-05
1.25895e-05
9.75486e-06
7.29446e-06
7.96842e-06
1.20335e-05
2.70303e-05
5.06402e-05
6.96461e-05
7.8928e-05
7.60923e-05
7.28902e-05
7.27813e-05
7.63689e-05
8.40446e-05
9.50333e-05
0.000110045
0.00012162
0.000140839
0.000164415
0.000190623
0.000223224
0.000258144
0.000297178
0.000338649
0.000382766
0.000428232
0.000474006
0.000519039
0.000562977
0.00060553
0.000646591
0.000685919
0.000723506
0.000760136
0.000795078
0.000828745
0.000861149
0.000892506
0.000922956
0.000952608
0.000981553
0.00100988
0.00103765
0.00106493
0.00109176
0.00111817
0.0011442
0.00116985
0.00119516
0.00122012
0.00124476
0.00126906
0.00129305
0.00131671
0.00134005
0.00136306
0.00138575
0.00140811
0.00143013
0.0014518
0.00147312
0.00149407
0.00151463
0.00153478
0.00155452
0.0015738
0.00159262
0.00161095
0.00162879
0.00164615
0.00166306
0.0016796
0.00169579
0.00171158
0.001727
0.00174202
0.00175662
0.00177081
0.00178458
0.0017979
0.00181078
0.00182321
0.00183518
0.00184668
0.0018577
0.00186824
0.0018783
0.00188785
0.00189691
0.00190546
0.0019135
0.00192103
0.00192805
0.00193454
0.00194052
0.00194597
0.00195091
0.00195532
0.00195922
0.0019626
0.00196546
0.0019678
0.00196964
0.00197091
0.00197175
0.0019724
0.00197257
0.00197232
0.00197164
0.0019705
0.0019689
0.00196686
0.0019644
0.00196152
0.00195822
0.00195454
0.00195046
0.00194602
0.00194122
0.00193608
0.00193058
0.00192485
0.00191864
0.00191226
0.00190544
0.00189843
0.0018911
0.00188355
0.00187577
0.00186779
0.00185963
0.00185131
0.00184283
0.00183422
0.00182546
0.00181656
0.00180755
0.00179842
0.00178921
0.00177992
0.00177057
0.00176116
0.00175165
0.00174203
0.0017322
0.00172204
0.00171134
0.00169969
0.00168602
0.00166786
0.0016333
2.40618e-10
3.5757e-08
4.19774e-07
1.9862e-06
6.8598e-06
1.64473e-05
3.04107e-05
4.69843e-05
6.42369e-05
8.04948e-05
9.46011e-05
0.000105711
0.000113933
0.000119595
0.000122725
0.00012393
0.000123476
0.000121631
0.000118599
0.000114373
0.000108967
0.000102939
9.54923e-05
8.67254e-05
7.66322e-05
6.55128e-05
5.41935e-05
4.39362e-05
3.54292e-05
2.85769e-05
2.25791e-05
2.11141e-05
2.65712e-05
4.43244e-05
6.88874e-05
8.46746e-05
9.23801e-05
9.57471e-05
9.84037e-05
0.000103353
0.000112112
0.00012555
0.000138973
0.000151773
0.000173001
0.00020219
0.000234189
0.000273428
0.000316349
0.000364482
0.000414597
0.000467706
0.000522023
0.000577376
0.000632615
0.000687133
0.000740409
0.000792269
0.000842467
0.000890905
0.000937783
0.000983325
0.00102723
0.0010697
0.00111085
0.00115083
0.00118975
0.00122775
0.00126492
0.00130135
0.0013371
0.00137224
0.00140683
0.00144089
0.00147445
0.00150755
0.00154018
0.00157237
0.00160411
0.00163542
0.00166629
0.00169673
0.00172674
0.0017563
0.00178542
0.00181409
0.00184231
0.00187007
0.00189735
0.00192416
0.00195048
0.0019763
0.0020016
0.00202638
0.00205062
0.00207432
0.00209747
0.0021201
0.00214221
0.00216382
0.00218495
0.0022056
0.00222574
0.00224539
0.00226451
0.00228311
0.00230116
0.00231867
0.00233562
0.00235199
0.00236779
0.00238301
0.00239763
0.00241165
0.00242507
0.00243787
0.00245006
0.00246162
0.00247255
0.00248285
0.00249252
0.00250155
0.00250994
0.0025177
0.00252482
0.0025313
0.00253714
0.00254235
0.00254694
0.0025509
0.0025542
0.0025569
0.0025589
0.00256041
0.00256156
0.00256209
0.00256207
0.00256149
0.00256035
0.00255865
0.00255641
0.00255365
0.00255037
0.00254658
0.00254229
0.00253754
0.00253231
0.00252665
0.00252055
0.00251402
0.00250712
0.00249975
0.00249203
0.00248388
0.0024754
0.00246656
0.00245741
0.00244797
0.00243827
0.00242833
0.00241817
0.00240781
0.00239725
0.0023865
0.00237557
0.00236448
0.00235325
0.00234188
0.00233041
0.00231883
0.00230716
0.00229537
0.00228345
0.00227131
0.00225882
0.00224577
0.00223174
0.00221566
0.00219468
0.0021599
7.6743e-10
8.77494e-08
1.05561e-06
5.35139e-06
1.73724e-05
3.65331e-05
5.94282e-05
8.27821e-05
0.000103233
0.000119415
0.000131441
0.000140249
0.000145667
0.000148618
0.000149609
0.00014902
0.000147103
0.000144047
0.000139997
0.000134911
0.000128919
0.000122336
0.000114563
0.000105712
9.49069e-05
7.92313e-05
6.40603e-05
4.98816e-05
3.83837e-05
3.33344e-05
3.43347e-05
4.60005e-05
6.77929e-05
8.96804e-05
0.000105018
0.000114276
0.000120176
0.00012647
0.000136678
0.000152769
0.000164419
0.000177729
0.000200775
0.000229947
0.000265315
0.000308103
0.000355295
0.000408277
0.00046387
0.000522569
0.000582514
0.000643833
0.000705424
0.000766974
0.000827815
0.000887634
0.000945893
0.0010027
0.00105835
0.00111238
0.00116481
0.00121585
0.00126543
0.0013137
0.00136075
0.00140669
0.00145163
0.00149565
0.00153884
0.00158126
0.00162299
0.00166406
0.00170452
0.00174439
0.00178369
0.00182244
0.00186065
0.00189831
0.00193544
0.00197202
0.00200806
0.00204356
0.0020785
0.0021129
0.00214674
0.00218002
0.00221274
0.00224489
0.00227646
0.00230744
0.00233784
0.00236764
0.00239684
0.00242544
0.00245342
0.00248079
0.00250756
0.00253373
0.00255932
0.00258433
0.00260875
0.00263259
0.00265583
0.00267847
0.00270049
0.00272189
0.00274265
0.00276277
0.00278224
0.00280105
0.00281918
0.00283664
0.00285342
0.00286952
0.00288492
0.00289962
0.00291363
0.00292693
0.00293952
0.0029514
0.00296258
0.00297304
0.00298279
0.00299183
0.00300017
0.0030078
0.00301472
0.00302095
0.00302652
0.0030313
0.00303542
0.00303887
0.00304153
0.00304369
0.00304532
0.00304628
0.00304661
0.00304631
0.00304538
0.00304384
0.0030417
0.00303898
0.00303568
0.0030318
0.00302738
0.00302241
0.00301693
0.00301094
0.00300446
0.00299749
0.00299007
0.00298216
0.00297381
0.00296499
0.00295578
0.00294616
0.00293617
0.00292583
0.00291519
0.00290425
0.00289304
0.00288158
0.00286988
0.00285795
0.00284579
0.00283343
0.00282088
0.00280818
0.00279533
0.00278236
0.00276927
0.00275605
0.00274268
0.0027291
0.0027152
0.00270079
0.00268549
0.00266835
0.00264676
0.00261394
2.46562e-09
2.24768e-07
2.79283e-06
1.45696e-05
3.78394e-05
6.7078e-05
9.50042e-05
0.000117779
0.000135103
0.000147888
0.000156813
0.000162286
0.000165187
0.00016616
0.000165637
0.0001639
0.00016113
0.00015742
0.000152715
0.000146938
0.000140323
0.000132663
0.000123666
0.000107748
9.20426e-05
7.82026e-05
6.58568e-05
5.68556e-05
5.52736e-05
6.34844e-05
7.73732e-05
0.000102072
0.000119906
0.000132917
0.000142365
0.000150506
0.000161279
0.000177819
0.000187701
0.000200435
0.000222701
0.000250912
0.000286539
0.000328868
0.00037773
0.000432333
0.000490526
0.000552076
0.000615253
0.000679978
0.000745297
0.000810977
0.000876431
0.000941379
0.00100517
0.00106783
0.00112972
0.00119016
0.00124924
0.00130691
0.0013632
0.00141818
0.00147189
0.00152441
0.00157581
0.00162618
0.00167559
0.00172412
0.00177183
0.00181878
0.00186502
0.00191057
0.00195547
0.00199973
0.00204336
0.00208637
0.00212875
0.00217051
0.00221164
0.00225214
0.00229199
0.0023312
0.00236976
0.00240767
0.00244493
0.00248152
0.00251746
0.00255274
0.00258735
0.0026213
0.00265457
0.00268718
0.00271912
0.00275038
0.00278096
0.00281087
0.0028401
0.00286865
0.00289652
0.00292372
0.00295026
0.00297614
0.00300134
0.00302587
0.00304971
0.00307285
0.0030953
0.00311705
0.00313809
0.00315842
0.00317805
0.00319695
0.00321513
0.00323256
0.00324926
0.00326521
0.00328041
0.00329487
0.00330857
0.00332153
0.00333373
0.00334518
0.00335588
0.00336584
0.00337505
0.00338351
0.00339124
0.00339828
0.00340455
0.00341002
0.00341482
0.00341888
0.00342212
0.00342487
0.00342697
0.00342838
0.00342911
0.00342917
0.00342858
0.00342733
0.00342546
0.00342297
0.00341988
0.00341624
0.00341203
0.00340726
0.00340193
0.00339606
0.00338966
0.00338274
0.00337531
0.00336738
0.00335896
0.00335005
0.00334069
0.00333089
0.00332068
0.00331009
0.00329914
0.00328786
0.00327626
0.00326438
0.0032522
0.00323976
0.00322706
0.00321411
0.00320094
0.00318758
0.00317404
0.00316036
0.00314653
0.00313256
0.00311844
0.00310412
0.00308953
0.00307451
0.00305877
0.00304156
0.00302083
0.00299106
7.4254e-09
5.94769e-07
7.51966e-06
3.10508e-05
6.50975e-05
9.93905e-05
0.000127793
0.000148695
0.000162969
0.000171722
0.000176198
0.000178033
0.000178157
0.000176953
0.000174734
0.000171654
0.000167674
0.000162696
0.000156818
0.000150194
0.000142668
0.000133846
0.000116926
0.000100069
8.61111e-05
7.6419e-05
7.35191e-05
7.73643e-05
8.72525e-05
0.000107896
0.000132978
0.000155756
0.000169516
0.000179387
0.000190703
0.00020134
0.000208281
0.000220676
0.000240489
0.000266447
0.000300218
0.000340533
0.000387812
0.000441098
0.00049949
0.000561572
0.000625951
0.000692104
0.000759189
0.000826927
0.000894807
0.00096255
0.00102964
0.00109583
0.00116156
0.00122626
0.00128984
0.00135218
0.0014133
0.00147318
0.00153185
0.00158935
0.00164571
0.00170099
0.00175526
0.00180857
0.00186099
0.00191256
0.00196335
0.00201339
0.00206272
0.00211136
0.00215933
0.00220664
0.00225327
0.00229924
0.00234452
0.00238911
0.002433
0.00247617
0.00251863
0.00256035
0.00260135
0.00264161
0.00268114
0.00271993
0.00275798
0.0027953
0.0028319
0.00286776
0.0029029
0.00293732
0.00297101
0.00300398
0.00303622
0.00306774
0.00309853
0.00312857
0.00315789
0.00318651
0.00321442
0.00324162
0.00326811
0.00329387
0.00331892
0.00334323
0.00336682
0.00338966
0.00341176
0.00343311
0.00345371
0.00347355
0.00349263
0.00351095
0.00352851
0.0035453
0.00356132
0.00357658
0.00359107
0.00360479
0.00361775
0.00362994
0.00364137
0.00365204
0.00366195
0.00367112
0.00367955
0.00368729
0.00369419
0.00370035
0.00370581
0.00371051
0.00371441
0.00371779
0.00372048
0.00372247
0.00372376
0.00372438
0.00372433
0.00372362
0.00372227
0.00372029
0.00371768
0.00371446
0.00371065
0.00370624
0.00370126
0.00369572
0.00368963
0.00368299
0.00367582
0.00366812
0.0036599
0.00365117
0.00364196
0.00363228
0.00362216
0.00361163
0.00360071
0.00358943
0.0035778
0.00356583
0.00355355
0.00354097
0.00352808
0.00351492
0.00350151
0.00348787
0.00347403
0.00346001
0.00344582
0.00343148
0.00341698
0.00340231
0.00338741
0.00337222
0.0033566
0.00333988
0.00332045
0.00329427
1.93353e-08
1.47851e-06
1.66955e-05
5.21723e-05
9.32538e-05
0.000128057
0.000153683
0.000170837
0.000181583
0.000187155
0.00018893
0.000188015
0.000185347
0.000181641
0.000177286
0.000172387
0.000166858
0.000160729
0.000153927
0.000146571
0.000138455
0.000127108
0.000114704
0.000107363
0.000102431
9.81572e-05
0.000102749
0.000117987
0.000137662
0.000158848
0.000178828
0.00019543
0.000207373
0.000216191
0.000225367
0.000237212
0.00025499
0.000278268
0.000308882
0.000346104
0.000390188
0.000440276
0.00049603
0.00055634
0.00062004
0.000685943
0.000753205
0.00082138
0.000889999
0.000958778
0.00102741
0.00109527
0.00116277
0.00122977
0.00129584
0.00136093
0.00142497
0.00148792
0.00154977
0.00161051
0.00167017
0.00172877
0.00178636
0.00184297
0.00189867
0.00195349
0.00200748
0.00206068
0.00211314
0.0021649
0.00221599
0.00226642
0.00231621
0.00236535
0.0024138
0.00246156
0.00250861
0.00255494
0.00260052
0.00264533
0.00268937
0.00273261
0.00277507
0.00281674
0.00285763
0.0028978
0.00293717
0.00297575
0.00301353
0.00305052
0.00308674
0.00312218
0.00315685
0.00319075
0.00322389
0.00325628
0.0032879
0.0033188
0.00334896
0.00337838
0.00340706
0.00343501
0.00346221
0.00348866
0.00351437
0.00353933
0.00356353
0.00358698
0.00360967
0.0036316
0.00365276
0.00367316
0.00369279
0.00371165
0.00372975
0.00374707
0.00376364
0.00377943
0.00379447
0.00380874
0.00382225
0.003835
0.003847
0.00385824
0.00386874
0.0038785
0.00388757
0.0038959
0.00390341
0.00391022
0.00391633
0.00392169
0.0039263
0.00393034
0.00393369
0.00393633
0.0039383
0.00393959
0.00394023
0.00394021
0.00393954
0.00393825
0.00393633
0.00393381
0.00393068
0.00392696
0.00392266
0.00391779
0.00391237
0.00390639
0.00389986
0.0038928
0.00388519
0.00387707
0.00386844
0.00385932
0.00384975
0.00383975
0.00382933
0.00381852
0.00380734
0.0037958
0.00378391
0.00377167
0.00375912
0.00374626
0.00373311
0.00371971
0.00370607
0.00369223
0.0036782
0.00366399
0.00364962
0.00363508
0.00362035
0.00360538
0.00359004
0.00357387
0.00355559
0.00353254
4.30787e-08
3.41439e-06
3.01047e-05
7.61583e-05
0.000120475
0.000153965
0.000176183
0.000190139
0.000196801
0.00019804
0.000195757
0.000191339
0.000185722
0.000179479
0.000172857
0.000165743
0.000158407
0.000150323
0.000142303
0.000133972
0.000125372
0.000117473
0.000112111
0.00011169
0.000117782
0.00012974
0.000145663
0.000163417
0.000181565
0.00019872
0.000213113
0.00022447
0.000236355
0.000249509
0.000266166
0.000287192
0.000314596
0.000348199
0.000388307
0.000434307
0.000485892
0.000542354
0.000603014
0.000666823
0.000732769
0.000800022
0.000868037
0.000936467
0.00100501
0.00107316
0.00114081
0.00120846
0.00127529
0.00134138
0.00140657
0.00147081
0.00153407
0.00159632
0.00165756
0.00171778
0.00177702
0.0018353
0.00189268
0.00194919
0.0020049
0.00205983
0.00211403
0.00216748
0.00222028
0.00227248
0.00232408
0.00237512
0.0024256
0.00247556
0.00252507
0.00257401
0.00262222
0.00266966
0.00271629
0.00276211
0.00280707
0.00285117
0.0028944
0.00293676
0.00297826
0.00301886
0.00305862
0.00309759
0.00313576
0.00317316
0.00320978
0.00324564
0.00328074
0.00331508
0.00334867
0.00338151
0.0034136
0.00344496
0.00347557
0.00350543
0.00353454
0.00356289
0.00359049
0.00361734
0.00364343
0.00366876
0.00369334
0.00371715
0.00374021
0.0037625
0.00378403
0.0038048
0.00382481
0.00384406
0.00386256
0.0038803
0.00389728
0.00391352
0.003929
0.00394374
0.00395774
0.003971
0.00398353
0.00399532
0.00400638
0.00401673
0.00402643
0.00403532
0.00404351
0.00405099
0.0040578
0.00406387
0.00406925
0.00407403
0.00407811
0.00408153
0.00408427
0.00408636
0.00408781
0.00408861
0.00408878
0.00408833
0.00408727
0.00408561
0.00408335
0.0040805
0.00407709
0.0040731
0.00406856
0.00406346
0.00405781
0.00405161
0.00404487
0.00403759
0.0040298
0.00402152
0.00401276
0.00400356
0.00399393
0.00398388
0.00397345
0.00396262
0.00395142
0.00393985
0.00392793
0.00391568
0.00390312
0.00389027
0.00387716
0.00386382
0.00385025
0.0038365
0.00382256
0.00380845
0.00379419
0.00377974
0.00376504
0.00374974
0.00373281
0.00371317
8.18168e-08
6.98331e-06
4.45073e-05
9.6755e-05
0.000142644
0.000175144
0.000195375
0.000205006
0.000207191
0.000204483
0.000198765
0.000191337
0.000183028
0.000174134
0.000165463
0.000156705
0.000148682
0.000141551
0.000135962
0.000131696
0.000129654
0.00013085
0.000135769
0.000144475
0.000156437
0.000170758
0.000186307
0.000202076
0.000216679
0.000229253
0.000242439
0.000257451
0.000274175
0.00029401
0.000318714
0.000348846
0.000384878
0.000426463
0.000473339
0.00052499
0.000580967
0.000640643
0.00070329
0.000768045
0.00083413
0.000900958
0.000968127
0.00103534
0.00110201
0.00116858
0.00123474
0.00130028
0.001365
0.00142886
0.0014918
0.00155378
0.00161482
0.00167492
0.00173409
0.00179235
0.00184966
0.00190611
0.00196178
0.00201674
0.00207104
0.00212475
0.00217803
0.00223113
0.00228374
0.00233583
0.0023874
0.00243844
0.00248899
0.00253901
0.00258842
0.00263721
0.00268535
0.00273274
0.00277939
0.00282527
0.00287033
0.00291453
0.00295787
0.00300036
0.00304199
0.00308281
0.00312283
0.00316206
0.0032005
0.00323818
0.00327509
0.00331125
0.00334665
0.00338131
0.00341522
0.00344839
0.00348081
0.00351249
0.00354343
0.00357361
0.00360304
0.00363172
0.00365965
0.00368682
0.00371323
0.00373889
0.00376379
0.00378794
0.00381134
0.00383398
0.00385587
0.00387701
0.0038974
0.00391705
0.00393596
0.00395412
0.00397156
0.00398826
0.00400423
0.00401948
0.00403401
0.00404783
0.00406093
0.00407332
0.00408501
0.00409604
0.00410636
0.00411596
0.00412488
0.00413312
0.00414069
0.00414758
0.00415382
0.00415944
0.00416437
0.00416866
0.0041723
0.00417531
0.00417768
0.00417944
0.00418058
0.00418111
0.00418104
0.00418038
0.00417914
0.00417732
0.00417494
0.004172
0.0041685
0.00416446
0.00415986
0.0041547
0.004149
0.00414275
0.00413599
0.00412873
0.00412098
0.00411279
0.00410414
0.00409508
0.0040856
0.00407571
0.00406542
0.00405475
0.00404369
0.00403228
0.00402053
0.00400847
0.00399612
0.0039835
0.00397065
0.00395756
0.00394429
0.00393083
0.00391723
0.00390347
0.00388954
0.00387519
0.00385954
0.00384283
1.30444e-07
1.19452e-05
6.03914e-05
0.000118317
0.000164153
0.000194773
0.000211103
0.000216837
0.000215492
0.000209762
0.000201625
0.000192126
0.00018265
0.000173536
0.000165597
0.000158729
0.000153509
0.00015051
0.000149552
0.000150893
0.000154817
0.000161384
0.000170401
0.000181474
0.000194083
0.000207668
0.000221163
0.00023376
0.000247087
0.000262757
0.000280319
0.00029949
0.000322428
0.000349727
0.000382001
0.000419282