/*--------------------------------*- C++ -*----------------------------------*\
  =========                 |
  \\      /  F ield         | OpenFOAM: The Open Source CFD Toolbox
   \\    /   O peration     | Website:  https://openfoam.org
    \\  /    A nd           | Version:  8
     \\/     M anipulation  |
\*---------------------------------------------------------------------------*/
FoamFile
{
    version     2.0;
    format      ascii;
    class       volScalarField;
    location    "800";
    object      omega;
}
// * * * * * * * * * * * * * * * * * * * * * * * * * * * * * * * * * * * * * //

dimensions      [0 0 -1 0 0 0 0];

internalField   nonuniform List<scalar> 
12225
(
32582.3
32582.3
44483.5
46199.7
52116.7
53400.2
46877.6
40177.3
40321.4
32582.3
46445.2
41272.2
40776
32582.3
39421.8
32582.3
32582.3
32582.3
124.924
6556.82
11990.1
13898.6
17023.9
18259.4
17626.5
17597.4
16880
16630.6
17866.5
17708.6
17802.4
16775.2
16616.4
16384.2
16192.9
16026.3
539.392
1105.12
1898.48
2710.66
3640.75
4441.02
4959.28
5498.18
5933.93
6153.48
6417.58
6717.19
6934.2
7237.24
7398.47
7571.19
7713.8
7785.36
450.799
547.506
691.963
852.122
1081.18
1317.77
1498.7
1689.11
1829.54
1970.4
2067.95
2201.51
2288.66
2408.09
2472.73
2565.75
2612.65
2696.2
414.088
437.136
469.431
507.571
572.184
648.738
708.578
775.443
823.237
879.724
917.8
970.535
1004.33
1053.02
1080.13
1123.07
1143.57
1184.17
402.163
407.006
414.509
422.363
441.881
469.009
490.146
515.379
533.476
556.533
572.46
594.738
609.351
630.887
643.469
663.895
674.062
693.773
399.132
399.063
400.028
400.59
403.929
412.4
419.003
427.762
433.965
442.727
448.898
458.003
464.172
473.483
479.29
488.603
493.744
503.019
398.995
397.531
396.068
395.329
395.396
397.237
399.196
402.018
404.009
407.177
409.41
413.181
415.73
419.938
422.581
427.097
429.608
434.405
399.011
397.294
395.481
394.043
392.917
392.574
392.301
392.505
392.791
393.319
393.662
394.62
395.294
396.714
397.616
399.396
400.439
402.546
399.031
397.247
395.456
393.863
392.355
391.161
390.034
389.128
388.288
387.659
387.026
386.65
386.293
386.126
386.107
386.157
386.268
386.616
399.044
397.23
395.467
393.839
392.266
390.837
389.461
388.21
387.002
385.926
384.885
383.979
383.108
382.367
381.646
381.089
380.481
380.099
399.049
397.221
395.469
393.823
392.245
390.764
389.343
388.009
386.725
385.527
384.372
383.304
382.269
381.322
380.398
379.564
378.743
378.015
399.051
397.215
395.466
393.811
392.232
390.738
389.31
387.959
386.664
385.439
384.266
383.155
382.091
381.084
380.118
379.206
378.329
377.504
399.051
397.211
395.462
393.802
392.223
390.723
389.294
387.935
386.639
385.406
384.23
383.109
382.039
381.02
380.045
379.116
378.228
377.382
399.051
397.209
395.459
393.797
392.216
390.713
389.282
387.919
386.622
385.385
384.206
383.083
382.01
380.987
380.009
379.076
378.185
377.334
399.051
397.208
395.457
393.793
392.211
390.706
389.273
387.909
386.609
385.371
384.19
383.064
381.989
380.964
379.985
379.05
378.156
377.303
399.051
397.208
395.456
393.791
392.208
390.701
389.267
387.902
386.601
385.361
384.179
383.051
381.975
380.949
379.968
379.032
378.137
377.283
399.051
397.208
395.456
393.791
392.206
390.7
389.265
387.899
386.598
385.358
384.174
383.047
381.97
380.942
379.961
379.025
378.13
377.274
399.051
397.208
395.457
393.791
392.208
390.701
389.267
387.901
386.6
385.36
384.177
383.049
381.973
380.945
379.964
379.027
378.132
377.277
399.051
397.209
395.458
393.794
392.211
390.705
389.272
387.907
386.606
385.367
384.185
383.058
381.982
380.955
379.975
379.039
378.146
377.292
399.052
397.209
395.461
393.797
392.217
390.711
389.28
387.916
386.618
385.38
384.202
383.077
382.006
380.984
380.011
379.082
378.198
377.353
399.055
397.209
395.465
393.802
392.226
390.722
389.299
387.939
386.657
385.431
384.28
383.18
382.151
381.167
380.253
379.377
378.571
377.795
399.074
397.195
395.468
393.816
392.257
390.796
389.433
388.154
386.989
385.908
384.964
384.072
383.324
382.612
382.047
381.502
381.112
380.712
399.152
397.072
395.468
393.981
392.67
391.664
390.834
390.218
389.804
389.806
389.907
390.148
390.664
391.214
392.097
392.878
394.014
394.941
399.227
396.361
396.151
396.391
397.009
398.842
401.194
403.66
407.191
410.789
415.264
419.459
424.347
428.731
433.778
438.154
443.265
447.456
397.176
395.876
405.72
413.484
426.41
439.131
454.045
468.513
484.962
500.166
516.835
531.521
547.475
561.041
576.046
588.383
602.506
613.522
383.307
430.646
468.789
524.377
580.923
635.502
693.36
746.831
802.339
851.021
901.459
943.85
988.757
1025.12
1065.37
1096.64
1133.21
1160.08
393.37
727.166
963.805
1212.66
1445.46
1669.43
1886.57
2077.36
2255.06
2402.3
2540.56
2651.71
2760.56
2846.59
2938.02
3008.15
3090.07
3149.63
1538.89
3831.86
5390.82
6533.89
7423.52
8088.16
8571.77
8916.31
9146.29
9283.14
9359.1
9377.63
9369.84
9347.55
9316.95
9277.71
9254.57
9228.33
19087
21924
23614.7
24518.3
24974.7
25064.1
25008.2
24848.5
24605.9
24337.7
24065.7
23801.4
23552.2
23321.2
23109.6
22917.1
22742.6
22586.7
11463.3
2494.65
2496.87
2499.12
2501.38
2503.67
2505.98
2508.3
2510.65
2513.02
2515.42
2517.83
2520.27
2522.73
2525.21
2527.72
2530.25
2532.8
2535.37
2537.97
2540.6
2543.25
2545.92
2548.62
2551.34
2554.09
2556.87
2559.67
2562.5
2565.35
2568.23
2571.14
2574.08
2577.04
2580.04
2583.06
2586.11
2589.19
2592.3
2595.43
2598.6
2601.8
2605.03
2608.29
2611.59
2614.91
2618.27
2621.66
2625.08
2628.54
2632.03
2635.55
2639.11
2642.71
2646.33
2650
2653.7
2657.44
3156.31
3126.37
3262.97
3401.1
3242.46
3396.27
3483.69
3563.61
3648.45
3725.59
3800.81
3874.24
3944.3
4013.48
4080.04
4145.6
4209.23
4271.81
4332.86
4392.86
4451.55
4509.24
4565.75
4621.28
4675.72
4729.2
4781.64
4833.11
4883.57
4933.04
4981.48
5028.9
5075.25
5120.5
5164.6
5207.49
5249.13
5289.48
5328.51
5366.24
5402.78
5438.4
5473.59
5507.52
5540.55
5572.61
5603.66
5633.76
5662.83
5690.92
5717.95
5743.99
5768.96
5792.9
5815.76
5837.58
5858.32
5878
5896.59
5914.12
5930.58
5945.96
5960.27
5973.52
5985.72
5996.86
6007
6016.13
6024.36
6032.03
6037.47
6043.93
6046.42
6050.86
6051.57
6053.65
6054.86
6054.96
6054.15
6051.6
6048.49
6044.32
6039.49
6033.87
6027.59
6020.56
6012.9
6004.56
5995.63
5986.13
5976.13
5965.62
5954.86
5943.22
5931.6
5919.09
5906.67
5893.72
5880.7
5867.49
5854.22
5840.92
5827.6
5814.32
5801.07
5787.89
5774.79
5761.85
5749.07
5736.56
5724.32
5712.43
5700.85
5689.57
5678.5
5667.4
5655.91
5643.35
5628.74
5609.49
5580.52
5462.8
11463.3
1993.49
996.793
810.91
693.573
623.29
630.322
626.5
615.44
593.015
568.953
545.466
523.844
505.982
493.781
485.114
484.506
486.552
512.282
561.15
645.465
746.88
856.933
966.282
1064.06
1139.87
1182.51
1176.84
1135.69
1057.48
934.751
783.54
652.181
567.082
499.874
462.789
456.53
463.787
484.679
516.616
546.642
584.84
679.033
803.797
995.316
1305.99
1618.38
1835.76
1977.59
2050.05
2071.13
2062.95
2024.37
1996.15
1951.26
1885.82
1831.2
1788.2
1765.73
1725.06
1711.85
1703.13
1682.77
1677.57
1669.28
1668.05
1667.62
1669.48
1672.44
1676.83
1681.85
1687.85
1694.22
1701.16
1708.34
1715.83
1723.44
1731.2
1739.01
1746.86
1754.7
1762.51
1770.26
1777.94
1785.51
1792.96
1800.28
1807.44
1814.43
1821.22
1827.82
1834.2
1840.36
1846.33
1852.14
1857.86
1863.59
1869.53
1875.95
1883.25
1891.99
1899.93
1907.95
1915.6
1923.1
1930.33
1937.35
1944.13
1950.69
1957.01
1963.1
1968.96
1974.59
1979.98
1985.15
1990.08
1994.79
1999.27
2003.53
2007.57
2011.38
2014.99
2018.38
2021.56
2024.55
2027.34
2029.94
2032.36
2034.5
2036.57
2038.26
2039.96
2041.36
2042.78
2043.92
2044.59
2044.56
2043.98
2043.2
2042.23
2041.1
2039.8
2038.33
2036.69
2034.89
2032.95
2030.88
2028.72
2026.18
2024.12
2020.72
2018.62
2015.12
2012.67
2009.4
2006.38
2003.19
1999.97
1996.7
1993.4
1990.08
1986.73
1983.36
1979.99
1976.63
1973.27
1969.94
1966.65
1963.4
1960.22
1957.1
1954.08
1951.12
1948.31
1945.67
1943.3
1941.25
1940.1
1938.84
1947.85
11463.3
2011.8
815.122
641.14
680.875
682.419
655.07
599.63
539.98
483.928
434.37
392.345
359.307
333.403
313.464
298.149
287.473
279.362
277.16
279.466
289.888
308.477
340.694
384.635
439.559
499.981
561.192
608.207
638.98
637.016
615.319
573.877
511.747
443.328
392.617
383.776
393.933
416.467
452.591
522.598
631.014
782.478
980.608
1159.53
1308.02
1439.87
1530.29
1561.25
1561.62
1515.55
1462.18
1402.49
1346.75
1298.16
1253.48
1213.68
1182.75
1158.63
1141.37
1127.16
1118.56
1113.46
1107.19
1105.22
1103.37
1103.32
1104.37
1106.13
1108.48
1111.33
1114.52
1118.04
1121.77
1125.69
1129.73
1133.89
1138.12
1142.4
1146.71
1151.04
1155.37
1159.69
1163.99
1168.25
1172.48
1176.66
1180.78
1184.85
1188.85
1192.79
1196.68
1200.5
1204.29
1208.05
1211.82
1215.62
1219.5
1223.49
1227.64
1231.96
1236.28
1240.4
1244.44
1248.34
1252.12
1255.77
1259.29
1262.68
1265.95
1269.08
1272.09
1274.96
1277.71
1280.32
1282.8
1285.15
1287.38
1289.47
1291.44
1293.27
1294.98
1296.57
1298.03
1299.36
1300.58
1301.67
1302.65
1303.5
1304.22
1304.84
1305.32
1305.71
1305.97
1306.13
1306.13
1305.91
1305.46
1304.85
1304.13
1303.31
1302.39
1301.38
1300.26
1299.04
1297.74
1296.34
1294.85
1293.28
1291.59
1289.92
1287.94
1286.19
1284.09
1282.2
1280.06
1277.96
1275.78
1273.56
1271.3
1269
1266.67
1264.31
1261.92
1259.52
1257.1
1254.66
1252.23
1249.79
1247.36
1244.95
1242.57
1240.24
1237.97
1235.83
1233.86
1232.2
1231
1230.91
1232.32
1242.68
11463.3
2038.85
1013.62
977.237
904.573
775.297
658.198
551.31
466.98
404.075
356.695
319.699
290.879
268.765
251.867
239.001
229.349
222.362
217.732
215.999
217.073
220.133
228.443
242.691
264.211
292.844
327.314
362.435
393.781
417.096
423.137
416.776
394.435
395.35
431.621
520.224
585.32
641.859
712.076
812.35
946.726
1067.66
1147.51
1215.44
1269.78
1292.19
1260.98
1213.07
1170.16
1115.4
1070.58
1028.83
994.9
966.134
942.541
923.669
909.466
898.859
891.295
885.942
882.628
880.915
879.746
879.722
880.445
881.835
883.716
885.962
888.508
891.297
894.275
897.411
900.667
904.023
907.455
910.949
914.487
918.059
921.653
925.261
928.873
932.483
936.084
939.67
943.235
946.776
950.289
953.772
957.224
960.647
964.043
967.414
970.766
974.108
977.448
980.793
984.148
987.515
990.881
994.22
997.477
1000.63
1003.69
1006.65
1009.52
1012.29
1014.95
1017.51
1019.97
1022.33
1024.58
1026.72
1028.76
1030.69
1032.52
1034.23
1035.84
1037.34
1038.73
1040.01
1041.18
1042.24
1043.2
1044.05
1044.79
1045.42
1045.95
1046.37
1046.68
1046.89
1046.99
1046.99
1046.88
1046.66
1046.32
1045.84
1045.22
1044.49
1043.66
1042.75
1041.75
1040.67
1039.5
1038.24
1036.91
1035.49
1034
1032.42
1030.77
1029.06
1027.24
1025.42
1023.48
1021.55
1019.52
1017.46
1015.35
1013.19
1010.99
1008.75
1006.47
1004.17
1001.83
999.476
997.099
994.706
992.299
989.884
987.467
985.052
982.658
980.302
978.005
975.808
973.772
972
970.649
970.248
971.27
977.618
11463.3
2314.17
1471.18
1187.39
942.599
728.773
562.631
451.217
375.17
321.919
283.866
256.567
236.781
221.905
210.481
201.706
195.105
190.321
187.139
185.668
185.998
187.315
191.21
198.056
208.894
224.755
245.823
269.688
293.698
312.563
328.127
357.577
416.114
517.949
607.076
675.931
745.76
822.237
895.669
960.341
1016.38
1064.5
1096.9
1106.55
1078.98
1030.55
994.635
951.38
915.145
880.254
852.99
829.264
810.463
795.073
783.094
774.026
767.523
763.029
760.291
758.956
758.599
758.876
759.925
761.521
763.558
765.944
768.601
771.47
774.513
777.697
780.995
784.387
787.856
791.388
794.971
798.595
802.25
805.928
809.623
813.327
817.034
820.738
824.434
828.118
831.786
835.433
839.057
842.655
846.227
849.771
853.288
856.777
860.239
863.675
867.085
870.466
873.814
877.119
880.368
883.548
886.644
889.65
892.568
895.394
898.126
900.764
903.304
905.747
908.089
910.331
912.47
914.506
916.436
918.26
919.977
921.585
923.084
924.473
925.752
926.919
927.976
928.92
929.753
930.474
931.083
931.579
931.963
932.234
932.394
932.437
932.386
932.215
931.932
931.537
931.024
930.387
929.634
928.776
927.823
926.776
925.638
924.409
923.092
921.691
920.206
918.637
916.988
915.257
913.453
911.576
909.622
907.622
905.545
903.428
901.242
899.007
896.721
894.387
892.01
889.592
887.137
884.65
882.135
879.595
877.032
874.45
871.853
869.244
866.633
864.032
861.448
858.896
856.398
853.988
851.717
849.673
847.985
847.015
847.251
850.437
11463.3
2932.79
1734.98
1210.18
834.485
588.839
445.771
357.043
301.837
265.96
241.088
222.829
208.827
197.851
189.1
182.147
176.786
172.89
170.368
169.335
169.689
171.071
174.363
179.623
187.487
199.217
215.745
237.294
265.613
307.734
363.501
455.335
564.422
653.649
722.155
785.156
838.472
879.605
914.578
948.166
967.396
970.987
943.699
911.849
879.807
844.826
815.354
786.392
762.981
742.513
726.285
712.826
702.323
694.172
688.222
684.126
681.808
680.79
680.597
681.32
682.777
684.741
687.177
689.96
693.022
696.302
699.756
703.347
707.052
710.85
714.726
718.667
722.661
726.701
730.779
734.885
739.015
743.16
747.315
751.474
755.63
759.78
763.917
768.038
772.139
776.214
780.261
784.276
788.257
792.203
796.11
799.977
803.802
807.582
811.315
814.995
818.616
822.169
825.645
829.039
832.345
835.559
838.68
841.704
844.631
847.456
850.179
852.796
855.306
857.709
860.003
862.184
864.25
866.201
868.034
869.748
871.342
872.814
874.163
875.39
876.492
877.47
878.324
879.051
879.654
880.13
880.48
880.703
880.79
880.776
880.632
880.36
879.964
879.445
878.802
878.033
877.145
876.144
875.036
873.824
872.51
871.095
869.582
867.979
866.282
864.495
862.619
860.656
858.612
856.49
854.292
852.029
849.697
847.307
844.852
842.34
839.774
837.158
834.495
831.789
829.045
826.267
823.46
820.627
817.77
814.893
811.999
809.093
806.183
803.28
800.393
797.535
794.727
791.997
789.389
786.973
784.852
783.279
782.596
783.658
11463.3
3439.63
1779.02
1037.55
652.426
459.006
359.401
303.324
267.739
242.948
224.352
209.76
197.978
188.215
180.114
173.523
168.376
164.66
162.474
161.933
162.815
165.398
170.177
177.547
188.341
203.02
225.025
259.818
313.995
397.838
503.213
594.413
664.3
724.448
772.126
807.881
836.294
859.206
868.941
867.507
845.38
822.301
796.08
770.169
744.973
721.014
700.538
682.398
667.66
655.361
645.627
637.968
632.282
628.288
626.002
625.043
624.928
625.822
627.483
629.792
632.618
635.841
639.397
643.208
647.223
651.399
655.703
660.111
664.605
669.171
673.796
678.472
683.191
687.946
692.73
697.536
702.358
707.188
712.02
716.849
721.667
726.471
731.254
736.011
740.739
745.432
750.087
754.697
759.261
763.775
768.236
772.641
776.986
781.268
785.483
789.628
793.698
797.69
801.598
805.413
809.129
812.743
816.254
819.657
822.95
826.13
829.194
832.139
834.962
837.657
840.223
842.66
844.966
847.14
849.181
851.085
852.852
854.48
855.969
857.317
858.524
859.589
860.512
861.292
861.929
862.423
862.775
862.972
863.032
862.971
862.759
862.407
861.915
861.286
860.52
859.62
858.59
857.434
856.158
854.765
853.258
851.638
849.906
848.055
846.098
844.039
841.882
839.63
837.287
834.858
832.347
829.761
827.102
824.374
821.579
818.721
815.805
812.835
809.815
806.75
803.645
800.505
797.334
794.135
790.912
787.668
784.407
781.135
777.859
774.589
771.335
768.11
764.931
761.824
758.822
755.984
753.389
751.206
749.605
749.084
11463.3
3582.75
1564.7
817.387
517.695
383.146
313.998
273.83
247.919
229.646
215.605
203.861
193.59
184.707
177.183
171.093
166.614
163.921
162.954
163.596
166.065
170.977
178.877
191.666
211.872
241.99
288.337
361.273
449.194
530.588
596.007
651.693
698.654
735.967
765.755
785.247
792.363
786.392
769.662
752.053
731.181
711.262
691.206
672.052
654.091
638.018
624.379
612.844
603.513
596.048
590.37
586.273
583.74
582.608
582.398
583.2
584.871
587.299
590.347
593.912
597.897
602.219
606.815
611.628
616.616
621.743
626.983
632.316
637.725
643.197
648.721
654.289
659.893
665.526
671.182
676.854
682.533
688.212
693.883
699.54
705.176
710.785
716.36
721.898
727.392
732.84
738.233
743.567
748.836
754.038
759.169
764.225
769.201
774.095
778.902
783.619
788.244
792.777
797.205
801.521
805.72
809.8
813.758
817.591
821.295
824.868
828.307
831.609
834.77
837.788
840.662
843.389
845.966
848.392
850.664
852.78
854.739
856.538
858.177
859.655
860.971
862.124
863.114
863.942
864.605
865.106
865.44
865.596
865.615
865.475
865.17
864.705
864.085
863.31
862.382
861.306
860.084
858.722
857.223
855.594
853.835
851.95
849.943
847.818
845.578
843.227
840.768
838.205
835.543
832.785
829.939
827.01
824.001
820.916
817.76
814.535
811.249
807.906
804.51
801.066
797.58
794.056
790.501
786.917
783.307
779.676
776.029
772.372
768.711
765.057
761.421
757.813
754.25
750.752
747.349
744.079
740.981
738.198
735.801
733.957
11463.3
3406.1
1282.67
662.216
442.62
346.932
296.282
265.476
244.127
227.941
215.057
204.372
195.291
187.538
181.146
176.334
173.427
172.581
174.068
177.943
185.071
196.853
214.712
243.074
286.845
346.027
414.119
477.57
534.874
584.67
627.404
663.262
693.964
715.797
723.896
721.243
708.571
694.539
678.137
662.382
646.619
631.65
617.063
603.345
590.883
580.066
571.016
563.614
557.813
553.478
550.519
549.03
548.583
549.077
550.544
552.86
555.916
559.615
563.859
568.564
573.652
579.055
584.716
590.587
596.628
602.808
609.104
615.495
621.962
628.49
635.067
641.68
648.321
654.98
661.657
668.341
675.019
681.685
688.33
694.945
701.524
708.06
714.546
720.976
727.34
733.622
739.833
745.971
752.028
758.002
763.887
769.68
775.375
780.968
786.456
791.832
797.093
802.229
807.238
812.114
816.854
821.455
825.912
830.225
834.388
838.4
842.256
845.954
849.49
852.862
856.066
859.101
861.963
864.652
867.163
869.496
871.648
873.617
875.402
877.002
878.416
879.644
880.686
881.542
882.211
882.694
882.98
883.082
883.019
882.769
882.336
881.725
880.937
879.977
878.845
877.547
876.087
874.47
872.701
870.783
868.722
866.521
864.184
861.717
859.123
856.406
853.571
850.622
847.564
844.402
841.143
837.793
834.356
830.838
827.241
823.574
819.84
816.047
812.198
808.299
804.355
800.373
796.357
792.311
788.24
784.147
780.04
775.924
771.807
767.699
763.609
759.549
755.533
751.579
747.711
743.967
740.384
737.058
734
731.124
11463.3
2976.44
1033.64
561.564
400.292
327.954
288.788
263.197
245.626
232.693
222.313
213.558
206.154
200.195
196.039
194.332
195.232
199.638
207.543
219.449
237.343
263.262
298.839
342.891
390.885
439.602
485.794
527.425
564.757
596.867
625.17
649.16
660.578
662.253
655.514
645.454
632.7
620.173
607.808
596.146
584.813
573.898
563.408
553.71
545.118
537.837
531.911
527.3
523.96
521.961
521.171
521.215
522.327
524.348
527.215
530.844
535.149
540.051
545.471
551.338
557.589
564.161
570.999
578.056
585.292
592.676
600.184
607.809
615.509
623.268
631.068
638.895
646.729
654.55
662.322
670.061
677.786
685.494
693.173
700.813
708.406
715.945
723.424
730.836
738.175
745.443
752.62
759.692
766.653
773.499
780.225
786.828
793.303
799.645
805.85
811.914
817.832
823.6
829.215
834.674
839.972
845.107
850.074
854.871
859.496
863.944
868.213
872.299
876.198
879.907
883.424
886.746
889.871
892.795
895.518
898.036
900.347
902.45
904.343
906.024
907.495
908.754
909.802
910.639
911.266
911.679
911.869
911.869
911.663
911.25
910.634
909.818
908.807
907.602
906.207
904.628
902.868
900.934
898.831
896.564
894.138
891.558
888.83
885.957
882.946
879.802
876.529
873.134
869.62
865.993
862.261
858.431
854.508
850.497
846.404
842.236
838
833.702
829.347
824.94
820.486
815.991
811.463
806.904
802.319
797.715
793.098
788.475
783.854
779.244
774.654
770.096
765.583
761.129
756.756
752.495
748.373
744.464
740.749
736.923
11463.3
2497.86
888.386
518.915
385.391
323.535
289.265
268.82
255.165
245.102
237.204
230.991
226.583
224.677
225.247
229.576
237.839
249.281
264.181
284.693
311.052
342.306
376.819
412.484
447.563
481.011
511.966
539.371
564.333
587.438
601.844
606.427
605.301
600.076
591.691
582.377
572.868
563.885
555.265
546.967
538.835
530.947
523.479
516.721
510.903
506.159
502.534
500.033
498.797
498.497
499.171
500.804
503.37
506.8
511.031
515.987
521.599
527.795
534.509
541.68
549.266
557.204
565.424
573.879
582.526
591.32
600.207
609.095
618.058
627.09
636.174
645.289
654.411
663.521
672.622
681.693
690.721
699.706
708.623
717.464
726.223
734.896
743.478
751.96
760.333
768.587
776.709
784.694
792.534
800.228
807.771
815.161
822.391
829.457
836.357
843.085
849.639
856.016
862.212
868.223
874.046
879.676
885.111
890.348
895.385
900.218
904.845
909.262
913.466
917.452
921.218
924.761
928.08
931.172
934.036
936.667
939.065
941.228
943.153
944.84
946.29
947.502
948.478
949.217
949.722
949.982
950.013
949.816
949.389
948.735
947.856
946.758
945.442
943.915
942.178
940.239
938.103
935.775
933.262
930.57
927.705
924.672
921.478
918.129
914.63
910.988
907.21
903.299
899.264
895.108
890.839
886.466
881.994
877.43
872.781
868.057
863.263
858.406
853.492
848.524
843.508
838.451
833.359
828.236
823.089
817.925
812.752
807.577
802.407
797.251
792.119
787.02
781.966
776.973
772.058
767.246
762.559
758.055
753.705
749.018
11463.3
2081.48
787.672
488.015
377.894
324.901
297.055
280.691
270.18
263.007
258.091
255.582
255.127
257.595
263.532
273.026
285.536
300.791
319.589
341.65
366.115
391.938
418.119
443.821
468.349
490.909
512.098
532.391
547.626
554.778
556.583
556.153
552.309
546.751
540.343
533.882
527.586
521.531
515.59
509.719
503.931
498.367
493.235
488.766
485.137
482.452
480.896
480.351
480.711
482.076
484.39
487.625
491.75
496.738
502.55
509.075
516.249
524.007
532.28
540.982
549.987
559.272
568.874
578.76
588.892
599.227
609.732
620.409
631.176
641.989
652.815
663.636
674.408
685.092
695.673
706.135
716.463
726.646
736.706
746.65
756.48
766.198
775.8
785.28
794.623
803.816
812.843
821.694
830.365
838.85
847.151
855.261
863.177
870.894
878.408
885.717
892.818
899.71
906.389
912.852
919.094
925.113
930.905
936.469
941.804
946.906
951.774
956.403
960.79
964.932
968.826
972.47
975.861
978.998
981.88
984.504
986.868
988.969
990.806
992.379
993.69
994.736
995.522
996.047
996.313
996.317
996.067
995.563
994.808
993.805
992.557
991.071
989.349
987.398
985.22
982.824
980.214
977.399
974.384
971.177
967.784
964.212
960.467
956.558
952.49
948.272
943.909
939.41
934.779
930.023
925.151
920.167
915.08
909.901
904.638
899.3
893.892
888.422
882.895
877.315
871.688
866.018
860.313
854.578
848.823
843.055
837.282
831.512
825.752
820.01
814.294
808.615
802.982
797.411
791.919
786.527
781.25
776.137
771.165
765.681
11463.3
1944.5
770.076
484.595
380.061
333.326
309.508
296.188
288.308
283.928
282.201
282.297
285.191
290.923
299.461
310.532
323.822
339.352
356.741
375.389
394.689
413.984
432.729
450.637
468.018
484.983
499.075
507.711
512.017
513.561
513.653
511.928
508.858
505.175
501.245
497.288
493.335
489.383
485.412
481.47
477.663
474.161
471.15
468.817
467.419
466.934
467.38
468.953
471.461
474.892
479.222
484.418
490.421
497.112
504.394
512.399
521.113
530.48
540.44
550.932
561.932
573.38
585.195
597.326
609.723
622.333
635.101
647.998
660.94
673.827
686.589
699.158
711.506
723.622
735.496
747.122
758.509
769.678
780.667
791.504
802.201
812.769
823.213
833.524
843.679
853.653
863.419
872.97
882.299
891.405
900.287
908.941
917.361
925.543
933.483
941.179
948.632
955.839
962.8
969.512
975.97
982.172
988.116
993.802
999.228
1004.39
1009.3
1013.94
1018.31
1022.41
1026.23
1029.78
1033.05
1036.04
1038.76
1041.19
1043.34
1045.2
1046.77
1048.06
1049.06
1049.77
1050.2
1050.35
1050.23
1049.82
1049.13
1048.18
1046.95
1045.46
1043.71
1041.7
1039.44
1036.94
1034.2
1031.23
1028.03
1024.61
1020.99
1017.16
1013.13
1008.92
1004.53
999.967
995.239
990.355
985.323
980.151
974.846
969.415
963.866
958.2
952.433
946.576
940.639
934.628
928.552
922.415
916.222
909.979
903.69
897.36
890.994
884.603
878.196
871.782
865.371
858.968
852.58
846.215
839.879
833.581
827.335
821.154
815.055
809.056
803.168
797.431
791.843
785.61
11463.3
1885.39
746.968
482.401
387.546
345.229
324.355
313.224
307.278
304.681
304.178
306.174
310.761
317.62
326.458
336.949
348.833
361.839
375.607
389.726
403.787
417.677
431.562
445.151
456.859
465.089
470.902
474.853
477.009
477.879
478.04
477.335
476.012
474.37
472.541
470.601
468.584
466.543
464.56
462.786
461.46
460.725
460.528
461.045
462.403
464.568
467.457
470.885
475.222
480.536
486.827
494.071
502.233
511.301
521.281
532.088
543.689
556.002
568.95
582.464
596.488
610.941
625.731
640.785
656.066
671.489
686.909
702.2
717.266
732.05
746.485
760.515
774.102
787.234
799.91
812.136
823.962
835.464
846.747
857.892
868.904
879.808
890.634
901.356
911.93
922.308
932.427
942.297
951.916
961.278
970.38
979.217
987.782
996.071
1004.08
1011.81
1019.25
1026.42
1033.31
1039.93
1046.25
1052.3
1058.05
1063.52
1068.71
1073.62
1078.24
1082.57
1086.62
1090.37
1093.83
1097
1099.86
1102.43
1104.71
1106.68
1108.36
1109.73
1110.79
1111.56
1112.02
1112.17
1112.04
1111.61
1110.88
1109.85
1108.54
1106.95
1105.07
1102.92
1100.49
1097.8
1094.85
1091.64
1088.19
1084.5
1080.58
1076.43
1072.06
1067.49
1062.72
1057.75
1052.6
1047.28
1041.79
1036.14
1030.35
1024.41
1018.35
1012.16
1005.86
999.443
992.928
986.332
979.662
972.924
966.124
959.266
952.356
945.4
938.402
931.366
924.295
917.206
910.11
903.017
895.932
888.862
881.813
874.791
867.802
860.856
853.966
847.149
840.418
833.79
827.273
820.899
814.698
807.753
11463.3
1851.93
744.72
488.857
398.674
358.83
339.255
328.923
323.639
321.522
321.292
323.749
328.423
334.829
342.548
351.243
360.71
370.72
381.039
391.477
402.199
412.553
421.474
428.844
434.904
440.15
444.289
447.543
450.088
452.123
453.818
455.259
456.456
457.424
458.226
458.93
459.599
460.307
461.113
462.046
462.984
464.377
466.543
469.763
473.999
479.218
485.435
492.766
501.147
510.602
521.141
532.711
545.261
558.752
573.152
588.398
604.536
621.328
638.633
656.343
674.357
692.569
710.87
729.145
747.252
765.088
782.592
799.663
816.19
832.07
847.211
861.585
875.193
888.067
900.235
911.663
922.5
932.898
943.147
953.472
963.729
973.979
984.33
994.688
1004.95
1015.03
1024.91
1034.54
1043.9
1052.98
1061.78
1070.27
1078.47
1086.35
1093.92
1101.16
1108.1
1114.72
1121.04
1127.05
1132.76
1138.15
1143.24
1148.01
1152.49
1156.67
1160.56
1164.14
1167.43
1170.41
1173.09
1175.47
1177.54
1179.3
1180.76
1181.92
1182.78
1183.31
1183.53
1183.45
1183.07
1182.36
1181.35
1180.04
1178.44
1176.53
1174.34
1171.85
1169.09
1166.04
1162.71
1159.12
1155.26
1151.15
1146.79
1142.19
1137.36
1132.3
1127.03
1121.54
1115.86
1109.99
1103.93
1097.71
1091.32
1084.78
1078.09
1071.27
1064.33
1057.27
1050.1
1042.86
1035.54
1028.15
1020.7
1013.18
1005.6
997.97
990.293
982.576
974.824
967.04
959.227
951.409
943.595
935.792
928.004
920.238
912.499
904.795
897.126
889.505
881.95
874.476
867.096
859.825
852.667
845.647
838.834
831.215
11463.3
1828.54
743.671
496.93
408.572
369.808
350.983
340.651
335.171
332.902
332.529
334.561
338.493
343.783
350.02
356.952
364.469
372.452
380.676
388.641
396.24
403.409
410.388
416.897
423.029
428.851
434.33
439.498
444.341
448.823
452.884
456.344
459.415
462.389
465.363
468.433
471.687
475.23
479.164
483.629
488.881
495.073
502.456
511.304
521.296
532.382
544.588
557.961
572.436
588.013
604.82
622.631
641.264
660.583
680.46
700.744
721.219
741.872
762.613
783.342
803.956
824.36
844.463
864.178
883.419
902.114
920.199
937.602
954.236
969.977
984.663
998.387
1011.23
1023.3
1034.64
1045.32
1055.36
1064.79
1073.74
1082.38
1090.8
1099.32
1108.4
1117.62
1126.78
1135.78
1144.61
1153.18
1161.47
1169.45
1177.12
1184.48
1191.51
1198.2
1204.54
1210.53
1216.19
1221.53
1226.54
1231.24
1235.62
1239.68
1243.42
1246.85
1249.98
1252.82
1255.37
1257.63
1259.58
1261.26
1262.64
1263.72
1264.5
1264.99
1265.18
1265.1
1264.73
1264.03
1263.04
1261.74
1260.16
1258.27
1256.08
1253.61
1250.85
1247.81
1244.48
1240.87
1236.99
1232.84
1228.42
1223.74
1218.81
1213.63
1208.22
1202.57
1196.7
1190.62
1184.33
1177.83
1171.15
1164.29
1157.25
1150.05
1142.69
1135.19
1127.56
1119.8
1111.93
1103.95
1095.87
1087.74
1079.54
1071.28
1062.96
1054.57
1046.14
1037.66
1029.14
1020.59
1012.01
1003.43
994.851
986.287
977.737
969.203
960.691
952.205
943.753
935.342
926.973
918.664
910.433
902.294
894.257
886.334
878.533
870.865
863.446
855.192
11463.3
1815.09
745.975
502.301
415.087
377.382
358.763
348.267
342.635
340.229
339.745
341.492
345.058
349.971
355.811
362.358
369.433
376.861
384.574
392.656
400.711
408.628
416.544
424.385
432.213
440.048
447.902
455.795
463.638
471.377
479.087
486.894
494.888
503.139
511.744
520.823
530.488
540.874
552.093
564.281
577.587
592.028
607.581
624.01
641.397
659.8
679.248
699.763
721.191
743.321
765.884
789.047
812.538
836.118
859.609
882.857
905.712
928.094
949.903
971.069
991.53
1011.27
1030.25
1048.48
1065.91
1082.56
1098.42
1113.49
1127.76
1141.25
1153.98
1165.83
1176.89
1187.35
1197.27
1206.77
1215.71
1224
1231.6
1238.51
1245.16
1252.12
1259.33
1266.46
1273.4
1280.11
1286.56
1292.73
1298.62
1304.2
1309.5
1314.49
1319.16
1323.51
1327.53
1331.22
1334.6
1337.68
1340.49
1343.01
1345.24
1347.18
1348.84
1350.23
1351.36
1352.25
1352.88
1353.26
1353.38
1353.27
1352.93
1352.29
1351.4
1350.27
1348.88
1347.24
1345.35
1343.19
1340.75
1338.06
1335.09
1331.86
1328.37
1324.63
1320.62
1316.36
1311.85
1307.09
1302.08
1296.82
1291.32
1285.58
1279.62
1273.43
1267.04
1260.43
1253.62
1246.61
1239.41
1232.03
1224.47
1216.75
1208.86
1200.83
1192.66
1184.35
1175.92
1167.38
1158.72
1149.96
1141.11
1132.17
1123.16
1114.08
1104.94
1095.74
1086.49
1077.19
1067.86
1058.5
1049.12
1039.74
1030.39
1021.05
1011.73
1002.43
993.156
983.913
974.711
965.56
956.483
947.492
938.592
929.793
921.103
912.536
904.097
895.793
887.777
878.939
11463.3
1802.26
747.353
505.172
418.481
382.988
364.963
355.169
350.956
349.508
350.075
353.126
357.885
363.945
371.297
380.109
389.549
399.467
410.368
422.386
434.998
447.919
461.483
475.671
490.487
505.856
521.781
538.182
555.082
572.495
590.469
609.048
628.21
647.946
668.305
689.396
711.339
734.355
758.442
783.546
809.521
836.24
863.49
891.041
918.859
946.89
975.173
1004.14
1033.11
1061.46
1088.79
1114.66
1139.18
1162.34
1184.14
1204.54
1223.54
1241.12
1257.35
1272.27
1285.98
1298.55
1310.12
1320.71
1330.4
1339.24
1347.31
1354.67
1361.39
1367.63
1373.66
1379.5
1385.15
1390.52
1395.57
1400.28
1404.5
1408.28
1411.89
1415.6
1419.74
1423.95
1427.57
1430.75
1433.62
1436.25
1438.66
1440.89
1442.92
1444.74
1446.34
1447.72
1448.85
1449.75
1450.41
1450.84
1451.05
1451.05
1450.89
1450.49
1449.9
1449.11
1448.12
1446.95
1445.61
1444.1
1442.42
1440.58
1438.55
1436.35
1433.97
1431.4
1428.65
1425.72
1422.59
1419.28
1415.76
1412.04
1408.11