/*--------------------------------*- C++ -*----------------------------------*\
  =========                 |
  \\      /  F ield         | OpenFOAM: The Open Source CFD Toolbox
   \\    /   O peration     | Website:  https://openfoam.org
    \\  /    A nd           | Version:  8
     \\/     M anipulation  |
\*---------------------------------------------------------------------------*/
FoamFile
{
    version     2.0;
    format      ascii;
    class       volVectorField;
    location    "800";
    object      U;
}
// * * * * * * * * * * * * * * * * * * * * * * * * * * * * * * * * * * * * * //

dimensions      [0 1 -1 0 0 0 0];

internalField   nonuniform List<vector> 
12225
(
(9.76166 0.0499097 0)
(9.33359 0.0982277 0)
(8.90673 0.108383 0)
(8.50879 0.106168 0)
(8.1585 0.0996775 0)
(7.8622 0.0740597 0)
(7.62075 0.0462625 0)
(7.41993 0.0369135 0)
(7.25357 0.022397 0)
(7.11224 0.0228754 0)
(6.99463 0.0234405 0)
(6.90479 0.00931076 0)
(6.82944 0.00528779 0)
(6.76617 0.00584203 0)
(6.72113 0.00667974 0)
(6.67701 -0.00169389 0)
(6.64226 -0.0100348 0)
(6.62839 -0.00851481 0)
(10.0916 0.056923 0)
(10.2263 0.0877764 0)
(10.2908 0.0875161 0)
(10.2977 0.0832705 0)
(10.2579 0.0792782 0)
(10.1931 0.0766125 0)
(10.1252 0.0727699 0)
(10.0526 0.0661801 0)
(9.96695 0.0624191 0)
(9.89128 0.0567235 0)
(9.7979 0.0504503 0)
(9.71547 0.0474643 0)
(9.63263 0.0423425 0)
(9.55427 0.0361981 0)
(9.47236 0.0312816 0)
(9.4024 0.0297336 0)
(9.33898 0.0255466 0)
(9.27867 0.0176254 0)
(10.013 0.0421043 0)
(10.0734 0.0661503 0)
(10.1193 0.0713018 0)
(10.1562 0.0765757 0)
(10.1868 0.0808729 0)
(10.2109 0.0798562 0)
(10.2252 0.0767904 0)
(10.2325 0.0754975 0)
(10.2334 0.072443 0)
(10.2299 0.0691891 0)
(10.2228 0.0653333 0)
(10.212 0.0610726 0)
(10.1981 0.0592634 0)
(10.1828 0.0580555 0)
(10.1651 0.0559606 0)
(10.1471 0.0514039 0)
(10.1273 0.0448318 0)
(10.1049 0.038469 0)
(10.0066 0.0302756 0)
(10.0403 0.0571197 0)
(10.0705 0.0652379 0)
(10.0939 0.0711007 0)
(10.1147 0.0744624 0)
(10.1337 0.0730558 0)
(10.1487 0.069709 0)
(10.1607 0.0676775 0)
(10.171 0.0654303 0)
(10.1798 0.0634894 0)
(10.1872 0.0609652 0)
(10.1927 0.0578387 0)
(10.1967 0.0558918 0)
(10.2005 0.0545079 0)
(10.2041 0.0525494 0)
(10.2067 0.049177 0)
(10.2075 0.0447518 0)
(10.2065 0.0404228 0)
(10.0047 0.0237808 0)
(10.0278 0.0509501 0)
(10.0528 0.0598676 0)
(10.0716 0.0653 0)
(10.088 0.0684258 0)
(10.1033 0.0679901 0)
(10.1159 0.0658665 0)
(10.1265 0.0642125 0)
(10.136 0.0623714 0)
(10.1447 0.060523 0)
(10.1525 0.0583228 0)
(10.1592 0.0558155 0)
(10.165 0.0538316 0)
(10.1708 0.0520758 0)
(10.1766 0.0498747 0)
(10.1819 0.0467585 0)
(10.1862 0.0430235 0)
(10.1893 0.0393101 0)
(10.0032 0.0191901 0)
(10.0203 0.0445848 0)
(10.0416 0.0540202 0)
(10.0584 0.0596093 0)
(10.073 0.0629135 0)
(10.0866 0.06327 0)
(10.0982 0.0619856 0)
(10.1081 0.0605976 0)
(10.117 0.0589369 0)
(10.1252 0.0571212 0)
(10.1326 0.0550447 0)
(10.1392 0.0528148 0)
(10.1452 0.0508532 0)
(10.151 0.048967 0)
(10.1568 0.0467312 0)
(10.1622 0.0438743 0)
(10.1668 0.0406054 0)
(10.1706 0.03729 0)
(10.0021 0.0155902 0)
(10.0152 0.0383325 0)
(10.0331 0.0481742 0)
(10.0483 0.053959 0)
(10.0617 0.0573955 0)
(10.0742 0.0582936 0)
(10.0852 0.0576189 0)
(10.0948 0.0565076 0)
(10.1034 0.0550593 0)
(10.1113 0.0533744 0)
(10.1185 0.0514733 0)
(10.125 0.0494692 0)
(10.131 0.0475762 0)
(10.1368 0.0456563 0)
(10.1424 0.0434532 0)
(10.1476 0.0408259 0)
(10.1521 0.0379143 0)
(10.1561 0.0349171 0)
(10.0015 0.0129973 0)
(10.0121 0.0331147 0)
(10.0272 0.043006 0)
(10.0411 0.0488127 0)
(10.0535 0.0523355 0)
(10.065 0.053685 0)
(10.0756 0.0535589 0)
(10.085 0.0527737 0)
(10.0935 0.0515665 0)
(10.1012 0.0500492 0)
(10.1083 0.0483278 0)
(10.1148 0.0465058 0)
(10.1209 0.0446943 0)
(10.1266 0.0427882 0)
(10.1321 0.0406373 0)
(10.1372 0.0381678 0)
(10.1417 0.0354757 0)
(10.1457 0.0326974 0)
(10.0012 0.0110643 0)
(10.0098 0.0292245 0)
(10.0228 0.0388838 0)
(10.0355 0.0446705 0)
(10.0472 0.048195 0)
(10.0581 0.0497281 0)
(10.0682 0.0498536 0)
(10.0773 0.0492511 0)
(10.0856 0.0481951 0)
(10.0932 0.0468147 0)
(10.1001 0.0452217 0)
(10.1066 0.0435086 0)
(10.1126 0.041752 0)
(10.1183 0.0398885 0)
(10.1236 0.037818 0)
(10.1286 0.0355063 0)
(10.133 0.0330243 0)
(10.1369 0.0304761 0)
(10.0009 0.00934039 0)
(10.0079 0.0254001 0)
(10.0189 0.0345211 0)
(10.0304 0.0401623 0)
(10.0411 0.0436293 0)
(10.0513 0.0453122 0)
(10.0609 0.0456719 0)
(10.0697 0.0452626 0)
(10.0777 0.0443661 0)
(10.0851 0.0431407 0)
(10.0919 0.041687 0)
(10.0982 0.0400975 0)
(10.1041 0.0384252 0)
(10.1096 0.0366264 0)
(10.1148 0.0346618 0)
(10.1196 0.0325118 0)
(10.124 0.0302309 0)
(10.1279 0.0278965 0)
(10.0007 0.00777747 0)
(10.0063 0.0216433 0)
(10.0155 0.0299901 0)
(10.0257 0.0353565 0)
(10.0355 0.0387038 0)
(10.0449 0.0404666 0)
(10.0539 0.0410244 0)
(10.0622 0.0407946 0)
(10.0699 0.0400688 0)
(10.077 0.0389972 0)
(10.0836 0.037694 0)
(10.0897 0.0362351 0)
(10.0955 0.0346538 0)
(10.1009 0.0329462 0)
(10.1059 0.0311004 0)
(10.1105 0.0291133 0)
(10.1147 0.0270312 0)
(10.1186 0.0249165 0)
(10.0006 0.00635947 0)
(10.005 0.0180716 0)
(10.0126 0.0254278 0)
(10.0215 0.0303704 0)
(10.0304 0.0335084 0)
(10.039 0.0352585 0)
(10.0473 0.0359308 0)
(10.0551 0.0358579 0)
(10.0624 0.0352755 0)
(10.0692 0.0343605 0)
(10.0756 0.0331983 0)
(10.0815 0.0318678 0)
(10.087 0.0303906 0)
(10.0922 0.0288013 0)
(10.097 0.0270858 0)
(10.1014 0.025276 0)
(10.1055 0.023394 0)
(10.1092 0.0214961 0)
(10.0004 0.00507519 0)
(10.004 0.014662 0)
(10.0103 0.0208706 0)
(10.0179 0.0252354 0)
(10.0258 0.0280625 0)
(10.0337 0.0296928 0)
(10.0413 0.0304025 0)
(10.0486 0.0304275 0)
(10.0554 0.0299736 0)
(10.0619 0.0291884 0)
(10.068 0.0281649 0)
(10.0736 0.0269579 0)
(10.0789 0.0256173 0)
(10.0839 0.0241568 0)
(10.0885 0.022607 0)
(10.0927 0.0209807 0)
(10.0967 0.0193011 0)
(10.1003 0.017626 0)
(10.0004 0.00389832 0)
(10.0032 0.0114315 0)
(10.0084 0.0163732 0)
(10.0149 0.0200014 0)
(10.0219 0.0223883 0)
(10.029 0.0237925 0)
(10.0359 0.0244424 0)
(10.0427 0.0244963 0)
(10.0491 0.0241335 0)
(10.0552 0.0234525 0)
(10.061 0.0225571 0)
(10.0664 0.0214853 0)
(10.0715 0.0202902 0)
(10.0762 0.0189934 0)
(10.0806 0.017624 0)
(10.0847 0.0161914 0)
(10.0885 0.0147256 0)
(10.0919 0.013264 0)
(10.0003 0.00281406 0)
(10.0026 0.00836197 0)
(10.0069 0.0119621 0)
(10.0125 0.0146905 0)
(10.0186 0.0165073 0)
(10.025 0.017571 0)
(10.0313 0.018046 0)
(10.0376 0.018065 0)
(10.0436 0.0177239 0)
(10.0494 0.0171312 0)
(10.0549 0.0163391 0)
(10.06 0.0154091 0)
(10.0648 0.0143668 0)
(10.0694 0.0132487 0)
(10.0736 0.0120638 0)
(10.0775 0.0108373 0)
(10.0812 0.00958412 0)
(10.0845 0.00834323 0)
(10.0002 0.00178599 0)
(10.0022 0.00540269 0)
(10.0058 0.00758861 0)
(10.0106 0.00928016 0)
(10.0161 0.0103949 0)
(10.0219 0.0109923 0)
(10.0277 0.0111987 0)
(10.0335 0.0110821 0)
(10.0392 0.0107162 0)
(10.0446 0.0101591 0)
(10.0498 0.00945924 0)
(10.0547 0.00865296 0)
(10.0594 0.00776631 0)
(10.0637 0.00682035 0)
(10.0678 0.0058291 0)
(10.0716 0.00480972 0)
(10.0751 0.00377523 0)
(10.0784 0.00275807 0)
(10.0002 0.000771896 0)
(10.0019 0.00243641 0)
(10.0051 0.00312403 0)
(10.0094 0.00367392 0)
(10.0144 0.00394414 0)
(10.0197 0.0039764 0)
(10.0252 0.00379846 0)
(10.0306 0.00347261 0)
(10.036 0.00300475 0)
(10.0412 0.00244726 0)
(10.0462 0.00180292 0)
(10.0509 0.00110859 0)
(10.0554 0.000363485 0)
(10.0596 -0.000408041 0)
(10.0636 -0.00120692 0)
(10.0672 -0.00201402 0)
(10.0707 -0.00282739 0)
(10.0739 -0.00361838 0)
(10.0002 -0.000231755 0)
(10.0018 -0.000547248 0)
(10.0048 -0.00134856 0)
(10.009 -0.00200028 0)
(10.0138 -0.0026023 0)
(10.0189 -0.0032093 0)
(10.0242 -0.00380247 0)
(10.0295 -0.00440336 0)
(10.0348 -0.00499416 0)
(10.0399 -0.00559744 0)
(10.0447 -0.00619459 0)
(10.0494 -0.0068041 0)
(10.0538 -0.00740877 0)
(10.0579 -0.0080223 0)
(10.0618 -0.00863014 0)
(10.0654 -0.00923956 0)
(10.0688 -0.00983774 0)
(10.0719 -0.0104182 0)
(10.0002 -0.00118998 0)
(10.0019 -0.00340227 0)
(10.0051 -0.00562181 0)
(10.0094 -0.00739165 0)
(10.0143 -0.00881531 0)
(10.0196 -0.0100075 0)
(10.0249 -0.0109972 0)
(10.0303 -0.0118368 0)
(10.0356 -0.0125502 0)
(10.0407 -0.0131786 0)
(10.0456 -0.0137377 0)
(10.0502 -0.0142535 0)
(10.0546 -0.014733 0)
(10.0587 -0.0151907 0)
(10.0626 -0.0156292 0)
(10.0662 -0.0160538 0)
(10.0695 -0.0164647 0)
(10.0727 -0.0168542 0)
(10.0002 -0.00212663 0)
(10.0021 -0.00615818 0)
(10.0057 -0.00972663 0)
(10.0105 -0.012486 0)
(10.0158 -0.0146296 0)
(10.0213 -0.0163054 0)
(10.027 -0.0176231 0)
(10.0325 -0.0186336 0)
(10.038 -0.0194257 0)
(10.0432 -0.0200386 0)
(10.0482 -0.0205411 0)
(10.0529 -0.020946 0)
(10.0573 -0.0212995 0)
(10.0615 -0.0216021 0)
(10.0654 -0.0218828 0)
(10.069 -0.0221372 0)
(10.0724 -0.0223815 0)
(10.0756 -0.0226032 0)
(10.0003 -0.0031116 0)
(10.0026 -0.00898939 0)
(10.0068 -0.013854 0)
(10.0122 -0.0174929 0)
(10.0181 -0.020225 0)
(10.0241 -0.0223078 0)
(10.0302 -0.0238572 0)
(10.0361 -0.0249861 0)
(10.0418 -0.0257823 0)
(10.0472 -0.0263552 0)
(10.0524 -0.0267524 0)
(10.0572 -0.0270421 0)
(10.0617 -0.0272412 0)
(10.0659 -0.0273974 0)
(10.0699 -0.0275109 0)
(10.0735 -0.027613 0)
(10.077 -0.0276951 0)
(10.0802 -0.0277711 0)
(10.0003 -0.00421332 0)
(10.0033 -0.0120501 0)
(10.0085 -0.0181518 0)
(10.0148 -0.022518 0)
(10.0214 -0.0257219 0)
(10.028 -0.0281084 0)
(10.0345 -0.0298178 0)
(10.0408 -0.0309784 0)
(10.0469 -0.0317386 0)
(10.0526 -0.0322165 0)
(10.0579 -0.0324923 0)
(10.0629 -0.0326294 0)
(10.0675 -0.0326735 0)
(10.0719 -0.0326613 0)
(10.0759 -0.0326187 0)
(10.0796 -0.0325602 0)
(10.0831 -0.0324997 0)
(10.0863 -0.0324317 0)
(10.0005 -0.00552045 0)
(10.0043 -0.015484 0)
(10.0108 -0.0226976 0)
(10.0183 -0.027607 0)
(10.0257 -0.0311675 0)
(10.0329 -0.0337724 0)
(10.04 -0.0355492 0)
(10.0468 -0.0366754 0)
(10.0533 -0.0373458 0)
(10.0593 -0.0376947 0)
(10.0649 -0.0378213 0)
(10.0701 -0.037789 0)
(10.0749 -0.0376649 0)
(10.0793 -0.0374805 0)
(10.0834 -0.0372773 0)
(10.0873 -0.037065 0)
(10.0908 -0.0368628 0)
(10.0941 -0.0366636 0)
(10.0007 -0.00713488 0)
(10.0059 -0.0194617 0)
(10.0142 -0.0275414 0)
(10.0229 -0.0327651 0)
(10.0312 -0.0365754 0)
(10.0391 -0.0393223 0)
(10.0469 -0.0410942 0)
(10.0543 -0.0421264 0)
(10.0612 -0.0426637 0)
(10.0676 -0.0428539 0)
(10.0735 -0.0427993 0)
(10.0789 -0.0425839 0)
(10.084 -0.0422702 0)
(10.0886 -0.0419145 0)
(10.0928 -0.0415437 0)
(10.0967 -0.0411866 0)
(10.1004 -0.0408466 0)
(10.1038 -0.0405297 0)
(10.001 -0.00918966 0)
(10.0083 -0.0241318 0)
(10.0189 -0.0327351 0)
(10.029 -0.0380457 0)
(10.0382 -0.0419885 0)
(10.0471 -0.0447872 0)
(10.0558 -0.0464859 0)
(10.0639 -0.0473861 0)
(10.0713 -0.0477603 0)
(10.0782 -0.0477629 0)
(10.0845 -0.0475032 0)
(10.0903 -0.0470751 0)
(10.0956 -0.0465563 0)
(10.1004 -0.0460047 0)
(10.1049 -0.0454572 0)
(10.1089 -0.0449378 0)
(10.1127 -0.0444598 0)
(10.1162 -0.0440127 0)
(10.0015 -0.0119496 0)
(10.012 -0.0294756 0)
(10.0257 -0.0382628 0)
(10.0375 -0.0436025 0)
(10.0481 -0.0475816 0)
(10.0583 -0.0502539 0)
(10.0682 -0.0517363 0)
(10.0773 -0.0524163 0)
(10.0857 -0.0525962 0)
(10.0933 -0.0523943 0)
(10.1003 -0.0519341 0)
(10.1067 -0.0513131 0)
(10.1124 -0.0506105 0)
(10.1176 -0.0498949 0)
(10.1224 -0.0491959 0)
(10.1267 -0.0485445 0)
(10.1306 -0.0479522 0)
(10.1342 -0.047401 0)
(10.0028 -0.0162625 0)
(10.0189 -0.035301 0)
(10.0369 -0.0434543 0)
(10.052 -0.049073 0)
(10.0653 -0.0533871 0)
(10.0783 -0.0559907 0)
(10.0906 -0.0571839 0)
(10.1019 -0.0575328 0)
(10.112 -0.0573596 0)
(10.1212 -0.0568012 0)
(10.1294 -0.0559841 0)
(10.1368 -0.0550232 0)
(10.1433 -0.0540155 0)
(10.149 -0.0530199 0)
(10.154 -0.0520881 0)
(10.1584 -0.0512492 0)
(10.1623 -0.050502 0)
(10.1656 -0.0498072 0)
(10.007 -0.0243228 0)
(10.0381 -0.0433109 0)
(10.0668 -0.0486771 0)
(10.0912 -0.0537086 0)
(10.1132 -0.0586241 0)
(10.1339 -0.0618824 0)
(10.1524 -0.0635347 0)
(10.1683 -0.0641714 0)
(10.1816 -0.0641002 0)
(10.1924 -0.063499 0)
(10.2011 -0.0624969 0)
(10.2076 -0.0612381 0)
(10.2121 -0.0598566 0)
(10.215 -0.0584285 0)
(10.2163 -0.0570613 0)
(10.2164 -0.0558384 0)
(10.2155 -0.0547972 0)
(10.2137 -0.0540207 0)
(10.0427 -0.0349616 0)
(10.1347 -0.0635026 0)
(10.2014 -0.0687587 0)
(10.244 -0.0703407 0)
(10.2707 -0.0714382 0)
(10.2848 -0.0712726 0)
(10.2871 -0.0699724 0)
(10.2792 -0.0680464 0)
(10.2634 -0.0657755 0)
(10.2415 -0.0632964 0)
(10.2152 -0.0606801 0)
(10.1855 -0.0580181 0)
(10.1535 -0.0553705 0)
(10.1199 -0.0528157 0)
(10.0853 -0.0504513 0)
(10.0504 -0.0483446 0)
(10.0158 -0.0465128 0)
(9.98237 -0.0454435 0)
(9.88856 -0.0363725 0)
(9.66459 -0.0681366 0)
(9.42306 -0.07838 0)
(9.17779 -0.0805157 0)
(8.94421 -0.0790444 0)
(8.72911 -0.0750493 0)
(8.53335 -0.0695994 0)
(8.35649 -0.0634704 0)
(8.19811 -0.0571632 0)
(8.05722 -0.0510163 0)
(7.93245 -0.0451884 0)
(7.82225 -0.0397549 0)
(7.72517 -0.0347557 0)
(7.6397 -0.0302165 0)
(7.56443 -0.026149 0)
(7.498 -0.0226568 0)
(7.43832 -0.0198435 0)
(7.38465 -0.0180498 0)
(-0.00274094 0.00764145 0)
(-0.0127866 0.0127198 0)
(-0.0264318 0.0138869 0)
(-0.040907 0.0118829 0)
(-0.0514603 0.00605911 0)
(-0.0505152 -0.00356415 0)
(-0.0346499 -0.0165988 -8.16212e-19)
(-0.00724678 -0.0302232 9.26276e-19)
(0.0284287 -0.0404133 0)
(0.0694302 -0.0453863 5.30395e-19)
(0.112828 -0.0458176 0)
(0.155153 -0.0428997 0)
(0.193645 -0.0377004 0)
(0.226635 -0.0310403 -2.59795e-19)
(0.253249 -0.0234887 0)
(0.273069 -0.0154111 0)
(0.285758 -0.00701069 2.24496e-19)
(0.291525 0.00177966 0)
(0.289242 0.0108554 0)
(0.279116 0.019735 0)
(0.261786 0.0276648 -2.40502e-19)
(0.237901 0.0338507 0)
(0.208393 0.0375619 -2.84493e-19)
(0.174668 0.0381766 0)
(0.138579 0.0352675 0)
(0.102406 0.0288341 -4.62496e-19)
(0.0686476 0.0195827 0)
(0.0397198 0.00922808 7.68759e-19)
(0.0173613 0.000372401 0)
(0.00199265 -0.00496425 -1.31931e-18)
(-0.00757423 -0.00740141 0)
(-0.0123992 -0.00903754 0)
(-0.0113053 -0.0111402 0)
(-0.0038955 -0.0146674 0)
(0.0108037 -0.0200776 0)
(0.0332171 -0.0261753 8.34032e-19)
(0.0617685 -0.0305531 0)
(0.0922839 -0.0307915 -9.86648e-19)
(0.119681 -0.0264844 0)
(0.139645 -0.0189812 7.84089e-19)
(0.150332 -0.0107735 0)
(0.152757 -0.00409662 0)
(0.149633 -0.000379705 -7.75207e-19)
(0.145026 -0.000540925 0)
(0.142277 -0.0054329 -8.07486e-19)
(0.139879 -0.0145614 8.13374e-19)
(0.131455 -0.0232051 0)
(0.109583 -0.0213453 8.83026e-19)
(0.0690731 -0.0035296 1.03006e-18)
(-0.00265459 0.0160953 0)
(-0.0994902 0.0358989 0)
(-0.204277 0.0604032 0)
(-0.321012 0.0852605 0)
(-0.446998 0.104902 0)
(-0.580693 0.107886 -1.93895e-19)
(-0.717869 0.109353 0)
(-0.84951 0.111721 1.48972e-19)
(-0.978577 0.106992 0)
(-1.10097 0.101529 0)
(-1.21516 0.0947359 -1.15258e-19)
(-1.32118 0.0866584 0)
(-1.41874 0.0801162 1.02908e-19)
(-1.50869 0.072261 0)
(-1.59113 0.0646426 0)
(-1.66683 0.0590976 0)
(-1.73668 0.0540191 -8.91431e-20)
(-1.80135 0.0494871 0)
(-1.8614 0.0455812 0)
(-1.91742 0.0421408 -8.27819e-20)
(-1.96991 0.0391499 0)
(-2.01929 0.0365182 -7.95538e-20)
(-2.06591 0.0341906 0)
(-2.11006 0.0321135 0)
(-2.15199 0.0302396 0)
(-2.19188 0.0285348 7.44308e-20)
(-2.2299 0.0269653 0)
(-2.26617 0.0255097 0)
(-2.30079 0.0241449 7.12794e-20)
(-2.33385 0.0228588 7.03126e-20)
(-2.3654 0.0216347 0)
(-2.3955 0.020467 6.84685e-20)
(-2.4242 0.0193429 0)
(-2.45153 0.0182604 1.33429e-19)
(-2.47751 0.0172093 0)
(-2.50216 0.0161892 1.30045e-19)
(-2.52551 0.015191 0)
(-2.54757 0.0142149 -1.2674e-19)
(-2.56833 0.0132518 0)
(-2.58779 0.0123003 0)
(-2.60595 0.0113514 0)
(-2.62283 0.0103998 1.20233e-19)
(-2.63841 0.00943527 0)
(-2.65268 0.0084515 -1.16978e-19)
(-2.6656 0.00743982 0)
(-2.67713 0.00639424 1.13694e-19)
(-2.68722 0.00531086 1.12039e-19)
(-2.69583 0.00419349 1.10376e-19)
(-2.70289 0.00306143 0)
(-2.70834 0.00196583 0)
(-2.71209 0.000987322 0)
(-2.71412 0.000184826 0)
(-2.71493 -0.000508496 0)
(-2.71447 -0.0011748 0)
(-2.71279 -0.00182856 0)
(-2.70989 -0.00247611 0)
(-2.70575 -0.00312068 -9.43976e-20)
(-2.70037 -0.0037602 -9.24384e-20)
(-2.69375 -0.00439763 0)
(-2.68588 -0.00502937 0)
(-2.67675 -0.00565866 0)
(-2.66635 -0.00628138 -8.41411e-20)
(-2.6547 -0.00690088 0)
(-2.64177 -0.00751288 0)
(-2.62758 -0.00812056 0)
(-2.61212 -0.00871983 0)
(-2.5954 -0.00931339 7.25564e-20)
(-2.57742 -0.00989773 0)
(-2.55818 -0.0104748 0)
(-2.5377 -0.0110419 -6.48342e-20)
(-2.51599 -0.0116 6.21152e-20)
(-2.49305 -0.0121477 0)
(-2.46889 -0.0126845 5.64431e-20)
(-2.44354 -0.0132106 0)
(-2.41702 -0.0137239 -5.04402e-20)
(-2.38933 -0.0142262 0)
(-2.3605 -0.0147135 0)
(-2.33055 -0.0151885 0)
(-2.2995 -0.0156404 0)
(-2.26739 -0.0160856 0)
(-2.23423 -0.0165032 6.04375e-20)
(-2.20008 -0.0169063 5.29955e-20)
(-2.16494 -0.0172798 0)
(-2.12885 -0.0175987 0)
(-2.09182 -0.017835 0)
(-2.05394 -0.0179152 -2.09744e-20)
(-2.01531 -0.0177873 0)
(-1.97598 -0.0175989 0)
(-1.93587 -0.0177031 0)
(-1.89494 -0.0179998 1.4978e-20)
(-1.85323 -0.0182257 -2.46865e-20)
(-1.8108 -0.0184416 0)
(-1.76772 -0.0186395 0)
(-1.72401 -0.0188287 -5.57546e-20)
(-1.67973 -0.0190035 -6.68081e-20)
(-1.63488 -0.0191686 0)
(-1.5895 -0.0193198 0)
(-1.54361 -0.0194617 1.02332e-19)
(-1.49722 -0.0195937 -1.15043e-19)
(-1.45035 -0.0197196 0)
(-1.40302 -0.0198405 0)
(-1.35526 -0.0199504 -1.56194e-19)
(-1.30707 -0.0200601 0)
(-1.25851 -0.0201606 0)
(-1.20957 -0.0202618 -2.02611e-19)
(-1.16031 -0.0203614 0)
(-1.11072 -0.0204631 -2.3711e-19)
(-1.06083 -0.0205706 0)
(-1.01064 -0.0206861 0)
(-0.960161 -0.0208113 0)
(-0.909385 -0.0209502 3.16857e-19)
(-0.858308 -0.0211022 0)
(-0.806922 -0.0212702 0)
(-0.75522 -0.0214521 0)
(-0.703199 -0.0216503 0)
(-0.650855 -0.021864 0)
(-0.598185 -0.0220973 0)
(-0.54518 -0.0223513 5.08697e-19)
(-0.49183 -0.0226305 5.44247e-19)
(-0.438122 -0.0229357 0)
(-0.384039 -0.0232688 0)
(-0.329573 -0.0236261 0)
(-0.274728 -0.0240057 -7.19079e-19)
(-0.219532 -0.0244144 0)
(-0.164058 -0.0248345 1.6675e-18)
(-0.108474 -0.0252006 -1.80135e-18)
(-0.053153 -0.0253717 -1.95095e-18)
(0.00171987 -0.0249138 2.05035e-18)
(0.0528552 -0.0231737 -2.02998e-18)
(0.109449 -0.0207127 1.96687e-18)
(0.125272 -0.00934976 0)
(-0.000183767 0.020449 0)
(-0.00573571 0.0355344 0)
(-0.0121126 0.0368005 2.17845e-18)
(-0.012471 0.0273464 0)
(0.00156839 0.00551537 -2.26641e-18)
(0.0311314 -0.0314097 -1.43523e-18)
(0.0702414 -0.0729132 -4.52468e-19)
(0.114919 -0.106995 -3.22988e-19)
(0.161137 -0.127939 0)
(0.205467 -0.135391 -2.11301e-19)
(0.24572 -0.132009 0)
(0.280943 -0.121197 0)
(0.310814 -0.105855 3.14997e-19)
(0.335346 -0.0880723 1.50056e-19)
(0.354765 -0.0692023 -2.92556e-19)
(0.369389 -0.0500172 -2.89192e-19)
(0.3796 -0.0309012 -1.44619e-19)
(0.385579 -0.0119959 0)
(0.388317 0.00671617 0)
(0.387724 0.0250626 0)
(0.383416 0.0426864 -1.52893e-19)
(0.374893 0.0590437 0)
(0.361591 0.0733871 4.89453e-19)
(0.343031 0.0847297 0)
(0.319001 0.0919435 0)
(0.289733 0.0939421 1.98267e-19)
(0.25612 0.0899916 0)
(0.219806 0.0801563 -2.51027e-19)
(0.183127 0.0654948 -5.87552e-19)
(0.148996 0.0478103 3.5118e-19)
(0.120507 0.0287346 0)
(0.100935 0.00914039 0)
(0.0915939 -0.0111404 0)
(0.094192 -0.0312592 -1.02318e-18)
(0.10699 -0.0513041 -8.60815e-19)
(0.126407 -0.0686582 -3.55687e-19)
(0.146445 -0.0762531 0)
(0.161255 -0.0707098 5.15824e-19)
(0.168241 -0.0549788 0)
(0.167038 -0.0344737 -5.00649e-19)
(0.158375 -0.0157954 0)
(0.143245 -0.00331792 0)
(0.12155 0.00373078 6.40696e-19)
(0.0874672 0.00970114 0)
(0.0313285 0.0215907 2.54309e-18)
(-0.0604131 0.0515895 -6.58864e-19)
(-0.179955 0.0943931 0)
(-0.311327 0.139042 -2.76299e-19)
(-0.448702 0.182218 -2.03893e-19)
(-0.592556 0.218609 0)
(-0.738263 0.24609 0)
(-0.88174 0.265223 0)
(-1.02102 0.276104 0)
(-1.15252 0.279141 0)
(-1.27491 0.274786 8.52735e-20)
(-1.38451 0.264024 1.60147e-19)
(-1.48256 0.249585 -7.52162e-20)
(-1.56934 0.232362 0)
(-1.64593 0.213848 1.38415e-19)
(-1.71411 0.195411 -6.71854e-20)
(-1.77493 0.177738 0)
(-1.82972 0.161476 -6.29182e-20)
(-1.87964 0.146757 0)
(-1.92527 0.133629 0)
(-1.96757 0.122133 -1.18642e-19)
(-2.00705 0.112066 5.81849e-20)
(-2.04415 0.103287 -1.14483e-19)
(-2.07927 0.0956339 1.12628e-19)
(-2.11264 0.0889341 5.5449e-20)
(-2.14446 0.0830418 0)
(-2.17487 0.0778152 5.38676e-20)
(-2.20397 0.0731403 0)
(-2.23185 0.0689153 0)
(-2.25856 0.0650595 0)
(-2.28415 0.0615052 5.09653e-20)
(-2.30864 0.0581979 0)
(-2.33208 0.0550953 9.94544e-20)
(-2.35447 0.0521604 -1.47367e-19)
(-2.37582 0.0493684 -4.85445e-20)
(-2.39616 0.0466933 0)
(-2.41547 0.0441213 -4.73479e-20)
(-2.43378 0.0416331 0)
(-2.45108 0.0392214 -9.23461e-20)
(-2.46737 0.0368711 0)
(-2.48266 0.0345795 -9.00163e-20)
(-2.49693 0.0323349 1.77584e-19)
(-2.51021 0.0301374 8.76875e-20)
(-2.52246 0.0279781 0)
(-2.53369 0.0258555 0)
(-2.5439 0.0237632 0)
(-2.55307 0.0216945 -8.29712e-20)
(-2.56123 0.0196422 0)
(-2.56836 0.0176015 8.05578e-20)
(-2.57446 0.0155655 0)
(-2.57953 0.0135286 -2.34294e-19)
(-2.58361 0.0114837 -7.68416e-20)
(-2.58671 0.00942408 -7.55773e-20)
(-2.5889 0.00734942 0)
(-2.59025 0.0052851 0)
(-2.59086 0.00329865 0)
(-2.59082 0.00146267 0)
(-2.58967 -0.000260835 0)
(-2.58739 -0.00194015 -1.35218e-19)
(-2.58393 -0.00359012 -1.32383e-19)
(-2.57928 -0.00521957 0)
(-2.57343 -0.00683137 6.31973e-20)
(-2.56636 -0.00842394 6.17013e-20)
(-2.55808 -0.00999895 0)
(-2.54856 -0.0115525 1.17508e-19)
(-2.53781 -0.0130865 0)
(-2.52582 -0.0145962 -5.57387e-20)
(-2.51259 -0.0160839 0)
(-2.49811 -0.0175442 0)
(-2.48239 -0.0189796 1.01288e-19)
(-2.46542 -0.0203845 0)
(-2.44721 -0.0217613 -4.69906e-20)
(-2.42776 -0.0231048 0)
(-2.40708 -0.024417 0)
(-2.38517 -0.0256934 -4.19503e-20)
(-2.36205 -0.0269351 -3.96058e-20)
(-2.33773 -0.028139 0)
(-2.31222 -0.0293047 3.61918e-20)
(-2.28553 -0.0304308 0)
(-2.25768 -0.0315152 -3.2155e-20)
(-2.2287 -0.0325584 -5.95904e-20)
(-2.19859 -0.0335573 0)
(-2.16739 -0.0345143 0)
(-2.13512 -0.0354252 0)
(-2.10179 -0.0362942 0)
(-2.06745 -0.0371179 -3.67855e-20)
(-2.03214 -0.0378986 -9.75672e-20)
(-1.99586 -0.0386283 0)
(-1.95865 -0.0393062 0)
(-1.92051 -0.0399348 0)
(-1.88148 -0.0405406 1.23928e-20)
(-1.84157 -0.0411306 0)
(-1.8008 -0.0417059 0)
(-1.75924 -0.0422336 5.10606e-21)
(-1.71693 -0.0426866 7.20639e-21)
(-1.6739 -0.0430651 1.41679e-20)
(-1.63016 -0.0433953 0)
(-1.58576 -0.043681 0)
(-1.54074 -0.0439352 3.1158e-20)
(-1.49514 -0.0441531 -3.54398e-20)
(-1.44897 -0.0443409 0)
(-1.40227 -0.0444934 0)
(-1.35505 -0.0446163 -5.50587e-20)
(-1.30732 -0.0447081 1.82201e-19)
(-1.25912 -0.0447744 0)
(-1.21045 -0.044819 0)
(-1.16134 -0.0448381 8.0501e-20)
(-1.1118 -0.0448358 0)
(-1.06186 -0.0448108 1.86036e-19)
(-1.01154 -0.0447637 -9.90134e-20)
(-0.960871 -0.0447016 0)
(-0.909858 -0.0446239 1.14723e-19)
(-0.858523 -0.0445408 2.42161e-19)
(-0.806871 -0.0444538 0)
(-0.754905 -0.0443696 0)
(-0.702626 -0.0442913 -1.44339e-19)
(-0.650025 -0.0442222 0)
(-0.597096 -0.0441628 3.18255e-19)
(-0.543831 -0.0441124 0)
(-0.490223 -0.0440696 0)
(-0.436268 -0.0440344 0)
(-0.38196 -0.0440086 0)
(-0.32729 -0.0439946 -2.02119e-19)
(-0.272249 -0.0439961 -2.11116e-19)
(-0.216822 -0.0440145 0)
(-0.160994 -0.0440506 0)
(-0.104755 -0.044097 0)
(-0.0481109 -0.0441377 2.49337e-19)
(0.0089048 -0.0441373 0)
(0.066235 -0.0440468 -5.177e-19)
(0.123778 -0.0438042 5.19039e-19)
(0.181261 -0.0432719 5.20426e-19)
(0.238612 -0.0421159 5.18781e-19)
(0.293591 -0.0398915 5.24706e-19)
(0.351262 -0.0357669 5.26794e-19)
(0.387225 -0.0232921 0)
(0.000382379 0.0231092 0)
(0.000846848 0.0397569 0)
(0.00675671 0.0324854 -2.31216e-18)
(0.0268702 -0.000868985 -1.62362e-18)
(0.066549 -0.0605375 9.67857e-19)
(0.118077 -0.126592 6.27797e-19)
(0.170981 -0.179056 -3.54644e-22)
(0.218335 -0.209164 0)
(0.257461 -0.217733 0)
(0.288399 -0.21 0)
(0.312382 -0.191795 0)
(0.330873 -0.167843 0)
(0.345089 -0.14135 -7.16463e-19)
(0.355885 -0.11421 0)
(0.363831 -0.0874423 2.28585e-19)
(0.369299 -0.0615232 2.28014e-19)
(0.372558 -0.0366392 0)
(0.373805 -0.0128629 0)
(0.373293 0.00983766 0)
(0.371346 0.0316324 0)
(0.368227 0.0526576 2.42817e-19)
(0.364113 0.072845 0)
(0.358922 0.0918202 -2.60263e-19)
(0.352262 0.108831 0)
(0.343445 0.122752 0)
(0.331619 0.132166 0)
(0.315996 0.135586 -6.52095e-19)
(0.296261 0.131814 0)
(0.272965 0.120362 3.87464e-19)
(0.247729 0.101609 -8.64638e-19)
(0.223107 0.0767131 0)
(0.202034 0.0470929 0)
(0.187079 0.0144334 0)
(0.178376 -0.0204088 6.32918e-19)
(0.174724 -0.0539381 5.55773e-19)
(0.169523 -0.0756851 0)
(0.156199 -0.0765198 0)
(0.134566 -0.0594391 -7.60051e-19)
(0.105601 -0.0322755 -7.81202e-19)
(0.0695489 0.000282592 8.67719e-19)
(0.024326 0.0337505 0)
(-0.0400232 0.0650206 0)
(-0.130371 0.102686 0)
(-0.240829 0.15141 0)
(-0.367826 0.205969 -4.08932e-19)
(-0.505871 0.261665 -3.2301e-19)
(-0.647389 0.314668 2.64165e-19)
(-0.786547 0.359862 0)
(-0.919008 0.395632 0)
(-1.04115 0.421185 0)
(-1.15103 0.435399 0)
(-1.24812 0.438827 -1.45438e-19)
(-1.33194 0.432428 0)
(-1.40329 0.417475 0)
(-1.46408 0.395555 -1.2159e-19)
(-1.51661 0.369297 -1.14817e-19)
(-1.56303 0.341161 0)
(-1.60491 0.312509 2.14073e-19)
(-1.64376 0.284737 -1.02688e-19)
(-1.68054 0.258757 9.97066e-20)
(-1.71587 0.235036 0)
(-1.75014 0.213898 0)
(-1.78352 0.195223 0)
(-1.81615 0.178809 0)
(-1.84805 0.164565 8.87035e-20)
(-1.87917 0.152179 1.74122e-19)
(-1.90951 0.141354 8.53834e-20)
(-1.93904 0.131857 -8.38754e-20)
(-1.96775 0.123457 0)
(-1.99562 0.115967 1.6209e-19)
(-2.02264 0.109223 1.59465e-19)
(-2.04881 0.103091 1.56953e-19)
(-2.07411 0.0974589 -1.54539e-19)
(-2.09855 0.0922348 0)
(-2.1221 0.0873459 -2.25016e-19)
(-2.14478 0.0827329 0)
(-2.16658 0.0783495 7.27322e-20)
(-2.18748 0.0741574 7.18564e-20)
(-2.20749 0.0701281 0)
(-2.2266 0.0662363 0)
(-2.24481 0.0624644 1.37518e-19)
(-2.2621 0.0587949 0)
(-2.27848 0.0552165 1.3363e-19)
(-2.29394 0.0517164 0)
(-2.30847 0.0482874 -1.29802e-19)
(-2.32208 0.0449202 -2.55899e-19)
(-2.33475 0.0416107 0)
(-2.34648 0.0383523 0)
(-2.35727 0.0351415 0)
(-2.36709 0.0319733 -1.20302e-19)
(-2.37597 0.0288426 0)
(-2.38389 0.0257455 -1.16479e-19)
(-2.39086 0.02268 0)
(-2.39687 0.0196463 0)
(-2.40192 0.0166473 2.21335e-19)
(-2.40601 0.0136887 0)
(-2.40916 0.0107791 1.06739e-19)
(-2.41136 0.00793065 0)
(-2.41261 0.00515147 1.02741e-19)
(-2.41286 0.00243227 0)
(-2.41207 -0.000268158 0)
(-2.41017 -0.00296533 0)
(-2.40716 -0.00564237 2.82634e-19)
(-2.40301 -0.00829325 9.19489e-20)
(-2.39771 -0.0109183 0)
(-2.39124 -0.0135152 0)
(-2.3836 -0.0160838 0)
(-2.37478 -0.0186213 0)
(-2.36476 -0.0211266 -8.06192e-20)
(-2.35354 -0.0235968 1.56948e-19)
(-2.34111 -0.0260301 7.58952e-20)
(-2.32748 -0.0284238 -1.47438e-19)
(-2.31263 -0.0307756 -1.4259e-19)
(-2.29657 -0.0330829 -6.85786e-20)
(-2.2793 -0.0353428 0)
(-2.26082 -0.0375532 -1.27649e-19)
(-2.24112 -0.039711 0)
(-2.22023 -0.0418145 1.17339e-19)
(-2.19814 -0.0438604 5.57063e-20)
(-2.17487 -0.0458474 0)
(-2.15042 -0.0477723 -1.01323e-19)
(-2.12481 -0.0496339 -4.7544e-20)
(-2.09805 -0.0514292 0)
(-2.07017 -0.0531568 -4.27082e-20)
(-2.04116 -0.0548142 1.17939e-19)
(-2.01107 -0.0564004 0)
(-1.9799 -0.0579136 0)
(-1.94768 -0.0593526 0)
(-1.91444 -0.0607177 0)
(-1.88021 -0.0620087 4.91473e-20)
(-1.84501 -0.0632227 4.20269e-20)
(-1.80887 -0.0643534 0)
(-1.77181 -0.0653932 0)
(-1.73385 -0.066341 0)
(-1.69501 -0.0672101 0)
(-1.65533 -0.0680111 0)
(-1.61484 -0.0687588 0)
(-1.57358 -0.0694567 -3.19032e-21)
(-1.5316 -0.0700833 -1.0661e-21)
(-1.48891 -0.0706212 0)
(-1.44553 -0.0710843 0)
(-1.40151 -0.0714795 -2.91786e-20)
(-1.35687 -0.0718163 0)
(-1.31166 -0.0720948 4.40896e-20)
(-1.26588 -0.0723194 4.99457e-20)
(-1.21958 -0.0724893 0)
(-1.17275 -0.0726087 0)
(-1.12544 -0.0726793 -7.22104e-20)
(-1.07764 -0.0727074 -1.56411e-19)
(-1.02938 -0.0726965 0)
(-0.980681 -0.0726479 0)
(-0.931559 -0.0725608 0)
(-0.882028 -0.0724382 -1.08219e-19)
(-0.832115 -0.0722775 1.15524e-19)
(-0.781836 -0.0720892 0)
(-0.73121 -0.0718739 2.58212e-19)
(-0.680249 -0.0716439 1.35367e-19)
(-0.628961 -0.0714036 -2.87955e-19)
(-0.577349 -0.071162 0)
(-0.525413 -0.0709236 0)
(-0.473147 -0.0706938 -3.33105e-19)
(-0.420545 -0.0704729 -1.75324e-19)
(-0.367596 -0.0702598 0)
(-0.314296 -0.0700517 0)
(-0.260638 -0.069848 0)
(-0.206617 -0.0696504 0)
(-0.152223 -0.0694618 -4.25462e-19)
(-0.0974453 -0.069286 0)
(-0.0422711 -0.069124 0)
(0.0133107 -0.0689738 0)
(0.0693118 -0.0688238 0)
(0.125737 -0.0686527 0)
(0.182571 -0.0684156 0)
(0.239757 -0.0680494 -4.97739e-19)
(0.297209 -0.0674628 0)
(0.354704 -0.066487 0)
(0.412238 -0.0648231 -1.03433e-18)
(0.468251 -0.0619665 5.22796e-19)
(0.526628 -0.0569191 -5.33863e-19)
(0.572499 -0.0443934 5.45161e-19)
(-0.0011364 0.0231828 0)
(0.00198898 0.0264868 5.05053e-18)
(0.0238455 -0.0156676 0)
(0.0718966 -0.0987741 8.62344e-19)
(0.132979 -0.186657 0)
(0.190739 -0.250595 0)
(0.235877 -0.281713 -3.2373e-19)
(0.26713 -0.284937 0)
(0.287326 -0.269747 0)
(0.300117 -0.244504 0)
(0.308403 -0.214705 0)
(0.314014 -0.183397 0)
(0.317934 -0.152108 8.09038e-19)
(0.320615 -0.12154 3.97841e-19)
(0.322219 -0.092004 -3.95224e-19)
(0.322789 -0.0636383 0)
(0.322337 -0.0365034 0)
(0.320879 -0.0106386 0)
(0.318468 0.0139497 0)
(0.315197 0.0372912 0)
(0.311213 0.0594247 4.27524e-19)
(0.306736 0.0803581 4.39076e-19)
(0.301978 0.1 -4.55297e-19)
(0.297051 0.118039 4.77422e-19)
(0.291856 0.133835 0)
(0.286051 0.14636 0)
(0.279036 0.154171 5.78775e-19)
(0.270064 0.155572 0)
(0.258548 0.149002 0)
(0.244327 0.133371 7.46794e-19)
(0.228069 0.108494 8.33761e-19)
(0.210903 0.0754057 9.4395e-19)
(0.194213 0.0363321 0)
(0.17711 -0.00423601 0)
(0.152701 -0.0341121 -9.53418e-19)
(0.116286 -0.0401225 0)
(0.0693463 -0.0230709 0)
(0.0127109 0.0104261 7.63323e-19)
(-0.0565977 0.0548714 -6.8891e-19)
(-0.141878 0.108503 5.54154e-19)
(-0.241993 0.169041 0)
(-0.356195 0.232081 0)
(-0.481068 0.295854 5.95591e-19)
(-0.610725 0.358982 0)
(-0.739645 0.418035 4.25281e-19)
(-0.862751 0.467748 5.59059e-19)
(-0.975122 0.505689 -4.98046e-19)
(-1.07427 0.531873 3.00597e-19)
(-1.1595 0.546106 0)
(-1.23054 0.549116 0)
(-1.28871 0.542069 2.38053e-19)
(-1.33588 0.526449 1.10984e-19)
(-1.3742 0.503994 0)
(-1.40616 0.476458 0)
(-1.43417 0.445711 9.54293e-20)
(-1.46019 0.413681 1.8455e-19)
(-1.48554 0.381944 0)
(-1.511 0.351467 -1.69989e-19)
(-1.53703 0.322929 1.65535e-19)
(-1.56376 0.296709 -1.60511e-19)
(-1.59115 0.272958 0)
(-1.61905 0.251679 0)
(-1.64726 0.232726 0)
(-1.67559 0.215901 0)
(-1.70386 0.201013 0)
(-1.73189 0.18782 -1.38418e-19)
(-1.75955 0.176076 0)
(-1.78674 0.165563 0)