/*--------------------------------*- C++ -*----------------------------------*\
  =========                 |
  \\      /  F ield         | OpenFOAM: The Open Source CFD Toolbox
   \\    /   O peration     | Website:  https://openfoam.org
    \\  /    A nd           | Version:  8
     \\/     M anipulation  |
\*---------------------------------------------------------------------------*/
FoamFile
{
    version     2.0;
    format      ascii;
    class       volScalarField;
    location    "1100";
    object      k;
}
// * * * * * * * * * * * * * * * * * * * * * * * * * * * * * * * * * * * * * //

dimensions      [0 2 -2 0 0 0 0];

internalField   nonuniform List<scalar> 
12225
(
1.50426
1.8498
1.95049
1.82336
1.9146
1.75487
1.67953
1.62757
1.33323
2.86135
2.38364
1.7775
1.83799
1.46423
2.26341
2.24248
2.68892
2.67395
0.622443
0.671695
0.704869
0.70963
0.739322
0.779972
0.806807
0.808623
0.795811
0.871417
0.883302
0.885427
0.9044
0.90901
0.942601
0.944642
0.96562
0.981273
0.557085
0.563034
0.56166
0.559908
0.555278
0.549816
0.54458
0.536674
0.526622
0.518526
0.511746
0.506521
0.50291
0.497257
0.496242
0.491463
0.491767
0.491567
0.549781
0.549244
0.5466
0.543744
0.538552
0.531996
0.525944
0.518805
0.512016
0.503841
0.496306
0.48837
0.481525
0.474257
0.468239
0.462139
0.457297
0.452592
0.548711
0.54605
0.543578
0.540246
0.5363
0.531443
0.527026
0.522088
0.517486
0.512082
0.50689
0.501214
0.496102
0.490695
0.486071
0.481208
0.47724
0.472907
0.54847
0.545267
0.542583
0.539385
0.536059
0.532288
0.528814
0.525148
0.521683
0.517872
0.514138
0.510137
0.506392
0.502511
0.499049
0.495463
0.492382
0.489062
0.548375
0.545049
0.542152
0.539107
0.536102
0.532946
0.529976
0.526979
0.524114
0.521133
0.518202
0.515161
0.512247
0.509293
0.506562
0.5038
0.501316
0.498727
0.548333
0.545005
0.541997
0.539009
0.536129
0.533238
0.530495
0.527792
0.525202
0.522595
0.520044
0.517463
0.514972
0.512488
0.510147
0.507818
0.50567
0.50348
0.548312
0.544985
0.541915
0.53895
0.536122
0.533362
0.530737
0.52819
0.525752
0.523351
0.52102
0.518708
0.516474
0.514272
0.512179
0.510119
0.508189
0.506256
0.548298
0.544976
0.541868
0.538904
0.536092
0.533394
0.53083
0.52837
0.526021
0.523745
0.521554
0.519416
0.517358
0.515353
0.513437
0.511571
0.509806
0.508064
0.548291
0.544967
0.541836
0.538864
0.53605
0.53337
0.530827
0.528402
0.526093
0.52388
0.521762
0.519721
0.517767
0.51588
0.514078
0.512337
0.510681
0.509071
0.548284
0.544959
0.541815
0.538834
0.53601
0.533328
0.530785
0.528365
0.526065
0.523871
0.52178
0.519781
0.517871
0.516043
0.514297
0.512623
0.511024
0.50949
0.548282
0.544953
0.5418
0.538812
0.535979
0.533291
0.530738
0.528314
0.526007
0.523814
0.521724
0.519734
0.517836
0.516025
0.514296
0.512646
0.511069
0.509564
0.54828
0.544947
0.541789
0.538795
0.535956
0.533261
0.530702
0.528268
0.525956
0.523755
0.521661
0.519665
0.517765
0.515952
0.514225
0.512575
0.511002
0.5095
0.548279
0.544944
0.541782
0.538784
0.535939
0.533239
0.530674
0.528236
0.525917
0.52371
0.521609
0.519608
0.517702
0.515884
0.514151
0.512498
0.51092
0.509416
0.548278
0.544941
0.541777
0.538776
0.535928
0.533224
0.530655
0.528212
0.525889
0.523678
0.521573
0.519567
0.517656
0.515834
0.514096
0.512439
0.510856
0.509347
0.548277
0.54494
0.541775
0.538772
0.535922
0.533215
0.530644
0.528198
0.525872
0.523658
0.52155
0.519541
0.517626
0.515801
0.51406
0.5124
0.510814
0.509302
0.548277
0.544941
0.541775
0.538772
0.53592
0.533214
0.530639
0.528196
0.525865
0.523653
0.52154
0.519533
0.517614
0.515789
0.514044
0.512384
0.510795
0.509282
0.548277
0.544942
0.541777
0.538774
0.535924
0.533216
0.530646
0.528198
0.525874
0.523655
0.521549
0.519535
0.517621
0.51579
0.514049
0.512383
0.510798
0.509281
0.548278
0.544943
0.54178
0.538779
0.53593
0.533227
0.530655
0.528213
0.525884
0.523669
0.521552
0.519538
0.517613
0.515782
0.514031
0.512367
0.510775
0.509263
0.548277
0.544946
0.541784
0.538786
0.535941
0.533243
0.530678
0.528228
0.525882
0.523634
0.521481
0.519425
0.517461
0.515598
0.513822
0.512144
0.51054
0.509031
0.548275
0.544955
0.541785
0.538797
0.535958
0.533281
0.5307
0.528179
0.525728
0.523315
0.520992
0.518752
0.516632
0.514641
0.512769
0.511037
0.509392
0.507903
0.548271
0.544973
0.541771
0.53882
0.535989
0.533346
0.530616
0.527795
0.524909
0.521952
0.519068
0.516299
0.513694
0.511365
0.50918
0.507307
0.505521
0.504091
0.548275
0.544989
0.541715
0.538861
0.536009
0.533331
0.530003
0.526291
0.522225
0.517891
0.513646
0.509632
0.505842
0.502684
0.499672
0.49734
0.49516
0.49378
0.548324
0.544892
0.541548
0.538792
0.535887
0.53291
0.528085
0.522276
0.515472
0.508274
0.501006
0.494617
0.487952
0.483111
0.477952
0.473878
0.470235
0.468702
0.548377
0.544417
0.541039
0.538356
0.535413
0.531546
0.523619
0.513121
0.500932
0.487892
0.475176
0.463753
0.453817
0.446532
0.440257
0.433312
0.42974
0.424557
0.548045
0.543215
0.539276
0.537337
0.534001
0.528938
0.513846
0.496106
0.47225
0.448736
0.427176
0.407136
0.393376
0.382656
0.373867
0.370042
0.365535
0.364561
0.545545
0.542352
0.53546
0.537378
0.535198
0.526495
0.506837
0.481326
0.447316
0.414137
0.383504
0.359275
0.34105
0.334444
0.331789
0.331282
0.336948
0.349652
0.553958
0.558317
0.577347
0.595946
0.611012
0.619905
0.620202
0.600298
0.581702
0.574036
0.573714
0.567894
0.57679
0.581508
0.579822
0.587283
0.609618
0.636303
1.00081
1.24507
1.4314
1.53385
1.5888
1.59196
1.58373
1.56279
1.5293
1.4924
1.45541
1.41953
1.38666
1.35698
1.33055
1.30758
1.28838
1.27232
2.00186e-08
4.9102e-07
2.50128e-06
9.84166e-06
3.27853e-05
9.94577e-05
0.000257872
0.000510418
0.000824165
0.00115378
0.00144935
0.0016783
0.00183139
0.00189002
0.00186732
0.00179347
0.00165349
0.00141766
0.00121115
0.00103237
0.000862112
0.000696009
0.000534748
0.000384777
0.000250742
0.000146546
7.74302e-05
3.87262e-05
1.96014e-05
1.06717e-05
6.51589e-06
5.01817e-06
5.97737e-06
1.27676e-05
2.86225e-05
0.000168405
0.000380989
0.00082131
0.00120847
0.00128491
0.00118245
0.00094845
0.000809723
0.000818164
0.000905439
0.00124588
0.00171802
0.00370491
0.00864249
0.0271377
0.0623517
0.095929
0.106146
0.0857234
0.117325
0.119441
0.153671
0.165833
0.144587
0.160926
0.176592
0.153909
0.173143
0.179331
0.189839
0.198199
0.207106
0.215492
0.223893
0.231986
0.240104
0.247962
0.255835
0.263519
0.271179
0.278708
0.286183
0.293561
0.300865
0.308088
0.315225
0.322285
0.329251
0.336136
0.342918
0.349613
0.356192
0.362672
0.369026
0.375263
0.381363
0.387318
0.393113
0.398739
0.404184
0.409443
0.414513
0.419407
0.424159
0.428844
0.433353
0.437715
0.441925
0.445977
0.449874
0.453606
0.457175
0.460572
0.4638
0.46685
0.469725
0.472418
0.474931
0.477258
0.479404
0.48136
0.483133
0.484716
0.486116
0.487324
0.488351
0.489188
0.489847
0.49032
0.490621
0.490747
0.490737
0.49047
0.490224
0.489423
0.488827
0.487764
0.486802
0.485699
0.484436
0.48298
0.481266
0.479441
0.47745
0.475338
0.473096
0.470737
0.468263
0.465679
0.46299
0.460206
0.45733
0.454407
0.45135
0.448299
0.445095
0.441924
0.438591
0.435326
0.431893
0.428526
0.425078
0.421645
0.4182
0.414758
0.411318
0.407891
0.404471
0.40107
0.397686
0.394332
0.391011
0.387737
0.384509
0.381338
0.378215
0.375146
0.372103
0.369065
0.365975
0.362769
0.359313
0.355257
0.349993
0.333012
8.26672e-08
2.31977e-06
1.57572e-05
6.88089e-05
0.000256037
0.000778097
0.00180225
0.00327126
0.00497065
0.00671306
0.00830107
0.0096034
0.0105577
0.0111675
0.0114454
0.0114043
0.0112158
0.0108516
0.0102364
0.00939303
0.00832484
0.00708747
0.00572958
0.00436147
0.00302583
0.0020029
0.00127004
0.000785288
0.000476287
0.000292151
0.000188131
0.000140534
0.00011371
0.000190566
0.000267411
0.00174085
0.00385173
0.00770063
0.0109094
0.0125578
0.0124976
0.0121705
0.0124066
0.0142508
0.0185833
0.0250913
0.0373456
0.0582398
0.0844312
0.110431
0.134783
0.153616
0.168895
0.180885
0.197895
0.212909
0.230773
0.249332
0.267428
0.28788
0.307597
0.327619
0.348624
0.368536
0.388686
0.408188
0.427596
0.446625
0.465498
0.484128
0.502622
0.520951
0.539173
0.55728
0.5753
0.593233
0.611089
0.62887
0.646575
0.664205
0.681754
0.699222
0.716596
0.733877
0.751047
0.768106
0.785034
0.801826
0.818464
0.83494
0.851233
0.867317
0.883172
0.898772
0.91409
0.929094
0.943751
0.958022
0.971865
0.985257
0.998406
1.01126
1.02384
1.03611
1.04809
1.05974
1.07107
1.08205
1.09268
1.10295
1.11284
1.12235
1.13147
1.14019
1.14849
1.15639
1.16385
1.17089
1.17749
1.18366
1.18937
1.19464
1.19945
1.20381
1.20772
1.21116
1.21415
1.21668
1.21877
1.22039
1.22158
1.22218
1.2225
1.22259
1.2223
1.22178
1.22103
1.21984
1.21824
1.21626
1.21391
1.2112
1.20813
1.20471
1.20096
1.19689
1.19252
1.18784
1.18292
1.17767
1.17222
1.16646
1.1605
1.15426
1.14784
1.14119
1.13438
1.12742
1.12032
1.1131
1.10577
1.09835
1.09082
1.08322
1.07554
1.0678
1.06002
1.05222
1.04441
1.03661
1.02881
1.02102
1.01319
1.0053
0.997276
0.989018
0.980281
0.97075
0.95853
0.930066
2.21101e-07
6.62738e-06
5.07163e-05
0.000242628
0.000746142
0.00210576
0.00425673
0.00674874
0.00923924
0.0114922
0.0133694
0.0148124
0.0158221
0.0164239
0.0166791
0.0166393
0.0164446
0.0160629
0.0155031
0.014806
0.0139663
0.0129762
0.0118164
0.0104898
0.00901255
0.00733252
0.00559911
0.00405218
0.00271717
0.00180916
0.00124439
0.000944902
0.000706874
0.00110628
0.00191731
0.0073992
0.0157982
0.0244973
0.0308373
0.0344464
0.0360887
0.0396438
0.049315
0.066453
0.0849283
0.1044
0.126134
0.147633
0.168422
0.190192
0.211505
0.233023
0.254906
0.281315
0.310183
0.340147
0.37099
0.400664
0.430561
0.460325
0.489484
0.518138
0.546083
0.573344
0.60005
0.626183
0.651856
0.677121
0.702058
0.726704
0.75112
0.775331
0.799374
0.823267
0.847028
0.870666
0.894189
0.917598
0.940892
0.964071
0.987128
1.01006
1.03285
1.0555
1.07799
1.10031
1.12245
1.14439
1.16613
1.18764
1.20892
1.22995
1.25069
1.27115
1.29131
1.31115
1.33068
1.34987
1.36873
1.38726
1.40545
1.42326
1.44069
1.45771
1.47431
1.49047
1.50617
1.52141
1.53616
1.55041
1.56414
1.57735
1.59003
1.60215
1.61372
1.62472
1.63513
1.64496
1.6542
1.66284
1.67087
1.6783
1.68511
1.6913
1.69687
1.70182
1.70615
1.70987
1.71296
1.71544
1.71732
1.71851
1.71915
1.71938
1.7191
1.71822
1.71681
1.71485
1.71234
1.7093
1.70574
1.70167
1.69712
1.69208
1.68658
1.68063
1.67425
1.66744
1.66026
1.65267
1.64474
1.63641
1.62778
1.61877
1.60949
1.59989
1.59005
1.57998
1.5697
1.55924
1.54861
1.53783
1.52692
1.51587
1.50472
1.49347
1.48215
1.47079
1.4594
1.44802
1.43665
1.42529
1.41393
1.40255
1.39109
1.37949
1.36756
1.35509
1.34018
1.3138
8.35811e-07
2.5141e-05
0.000198697
0.0007963
0.00240271
0.00557156
0.00935641
0.0130242
0.0162033
0.0187138
0.0205217
0.0216647
0.0222628
0.0223639
0.0222233
0.0218488
0.0212595
0.0205522
0.0197595
0.0188967
0.0179657
0.0169614
0.0158664
0.0146575
0.0133172
0.0118218
0.0101923
0.00849821
0.00690079
0.00535382
0.00420097
0.00314883
0.00333633
0.00534445
0.0132188
0.029084
0.0439109
0.0556528
0.0648295
0.0738186
0.0852186
0.0997511
0.116087
0.132257
0.149104
0.167535
0.188756
0.211031
0.235825
0.262659
0.291392
0.322053
0.354442
0.388646
0.423568
0.458879
0.494124
0.528939
0.563438
0.597433
0.630753
0.663451
0.69549
0.726936
0.757837
0.788259
0.818275
0.847945
0.877324
0.906457
0.935387
0.964143
0.992751
1.02123
1.04958
1.07782
1.10595
1.13397
1.16186
1.18964
1.21728
1.24477
1.27212
1.29929
1.32629
1.35309
1.37968
1.40604
1.43217
1.45805
1.48366
1.50898
1.534
1.55871
1.58309
1.60712
1.63081
1.65413
1.67706
1.69958
1.72168
1.74332
1.76449
1.78516
1.8053
1.82491
1.84396
1.86244
1.88032
1.89758
1.91422
1.93021
1.94555
1.96021
1.97419
1.98747
2.00005
2.01191
2.02304
2.03345
2.04311
2.05203
2.0602
2.06763
2.07429
2.08021
2.08536
2.08977
2.09342
2.09632
2.09848
2.09982
2.10044
2.10055
2.09994
2.0986
2.09658
2.09388
2.09053
2.08652
2.08189
2.07664
2.07079
2.06435
2.05734
2.04979
2.04171
2.03311
2.02404
2.01447
2.00448
1.99402
1.98316
1.97187
1.96022
1.9482
1.93587
1.92324
1.91035
1.89722
1.88388
1.87036
1.85666
1.8428
1.8288
1.81468
1.80047
1.7862
1.77191
1.75761
1.74333
1.72908
1.71487
1.70069
1.68653
1.67236
1.65806
1.64351
1.62706
1.60275
2.85262e-06
8.56125e-05
0.000638903
0.00244601
0.00666992
0.0123339
0.0175741
0.0217516
0.0247075
0.0265451
0.0274901
0.0277411
0.0275799
0.0271145
0.0263803
0.0255188
0.0245857
0.0236188
0.0226411
0.0216599
0.0206714
0.0196647
0.0186206
0.0175148
0.0163199
0.0150062
0.0135741
0.0120744
0.0106146
0.00906653
0.00771719
0.00827355
0.0129605
0.0268059
0.0485093
0.0689355
0.0857448
0.098944
0.110281
0.121599
0.133719
0.146909
0.161181
0.177797
0.197684
0.220418
0.246141
0.274416
0.305147
0.337747
0.371942
0.40739
0.443793
0.480902
0.518299
0.555829
0.593257
0.630455
0.667386
0.703945
0.740056
0.775724
0.810939
0.845732
0.880139
0.914206
0.947978
0.981499
1.01481
1.04795
1.08094
1.11381
1.14658
1.17925
1.21183
1.24432
1.27672
1.30901
1.3412
1.37327
1.4052
1.43699
1.46861
1.50005
1.5313
1.56233
1.59314
1.62369
1.65398
1.68399
1.71371
1.7431
1.77216
1.80086
1.8292
1.85714
1.88468
1.91178
1.93843
1.96459
1.99025
2.01537
2.03994
2.06392
2.08729
2.11004
2.13212
2.15354
2.17425
2.19425
2.21351
2.23202
2.24976
2.26671
2.28286
2.29819
2.3127
2.32637
2.33919
2.35116
2.36226
2.3725
2.38187
2.39035
2.39796
2.40469
2.41054
2.4155
2.41959
2.42281
2.42516
2.42654
2.42709
2.42701
2.42604
2.42423
2.42163
2.41824
2.41408
2.40918
2.40353
2.39717
2.39012
2.38238
2.37398
2.36495
2.35529
2.34504
2.33422
2.32284
2.31095
2.29854
2.28564
2.27226
2.25844
2.2442
2.22959
2.21462
2.19935
2.1838
2.16799
2.15196
2.13573
2.11931
2.10271
2.08598
2.06914
2.05223
2.03528
2.01833
2.00141
1.98454
1.96774
1.95104
1.93444
1.91796
1.90155
1.88512
1.86731
1.8438
9.1492e-06
0.000267562
0.00190091
0.00670728
0.0149484
0.0221235
0.0271978
0.0303052
0.0319142
0.0324991
0.0324095
0.0319388
0.0310724
0.0300214
0.0288732
0.0276929
0.0265255
0.0253974
0.0243209
0.0232945
0.0223074
0.0213424
0.0203733
0.0193684
0.0182914
0.017077
0.015666
0.0140297
0.0125046
0.0126077
0.0153353
0.0251069
0.0450836
0.0704528
0.0940313
0.112914
0.126659
0.136858
0.145958
0.155741
0.167103
0.181734
0.199826
0.221311
0.246376
0.274459
0.305099
0.337697
0.371856
0.407213
0.443529
0.480587
0.518234
0.556336
0.594743
0.63337
0.672102
0.710855
0.749561
0.788139
0.826536
0.864726
0.902694
0.940445
0.977991
1.01535
1.05256
1.08964
1.12662
1.16352
1.20035
1.23715
1.2739
1.31061
1.34728
1.38391
1.42047
1.45696
1.49335
1.52964
1.56581
1.60182
1.63767
1.67333
1.70879
1.74402
1.779
1.8137
1.84812
1.88223
1.91601
1.94943
1.98247
2.01512
2.04734
2.07912
2.11043
2.14123
2.17151
2.20123
2.23037
2.2589
2.28679
2.31401
2.34054
2.36634
2.3914
2.41568
2.43916
2.46183
2.48365
2.5046
2.52468
2.54385
2.56211
2.57943
2.59581
2.61123
2.62568
2.63915
2.65164
2.66314
2.67364
2.68314
2.69164
2.69913
2.70561
2.71109
2.71557
2.71906
2.72155
2.72295
2.72343
2.72309
2.72176
2.71949
2.7163
2.71222
2.70727
2.70147
2.69483
2.68738
2.67914
2.67012
2.66036
2.64988
2.63869
2.62682
2.61431
2.60117
2.58744
2.57312
2.55826
2.54285
2.52694
2.51056
2.49374
2.47653
2.45897
2.44108
2.4229
2.40447
2.3858
2.36691
2.34783
2.32859
2.30922
2.28977
2.27028
2.25079
2.23133
2.21195
2.19268
2.17355
2.1546
2.13589
2.1174
2.09908
2.07977
2.05605
2.96162e-05
0.000807583
0.00516554
0.0156395
0.025422
0.0316223
0.0350097
0.0365894
0.0370169
0.036749
0.0359607
0.0347771
0.0333941
0.0319201
0.0304387
0.0290086
0.0276669
0.0264301
0.0252994
0.0242623
0.0232993
0.02238
0.0214694
0.0205193
0.019592
0.0187664
0.0182656
0.0186253
0.0211453
0.028103
0.042779
0.0659353
0.0911695
0.114434
0.132752
0.145405
0.154232
0.161856
0.17041
0.182245
0.197763
0.217115
0.240247
0.266744
0.296121
0.327629
0.360727
0.395019
0.430274
0.466332
0.503088
0.540465
0.578413
0.616883
0.65582
0.695172
0.734866
0.774824
0.814984
0.855279
0.895654
0.936071
0.9765
1.01693
1.05735
1.09777
1.1382
1.17864
1.21912
1.25965
1.30022
1.34085
1.38152
1.42224
1.46298
1.50373
1.54447
1.58517
1.62581
1.66636
1.70679
1.74709
1.78722
1.82716
1.86688
1.90636
1.94557
1.98448
2.02308
2.06134
2.09923
2.13672
2.1738
2.21042
2.24657
2.28221
2.31732
2.35186
2.3858
2.41911
2.45176
2.48373
2.51497
2.54546
2.57516
2.60404
2.63208
2.65925
2.68551
2.71085
2.73523
2.75864
2.78104
2.80244
2.82279
2.8421
2.86033
2.87748
2.89354
2.9085
2.92235
2.93509
2.9467
2.95719
2.96654
2.97477
2.98186
2.98782
2.99266
2.99638
2.99898
3.00036
3.00074
3.00012
2.99842
2.99565
2.99186
2.98707
2.98131
2.97459
2.96694
2.95838
2.94894
2.93864
2.92751
2.91556
2.90284
2.88936
2.87515
2.86024
2.84468
2.82846
2.81163
2.79421
2.77622
2.75771
2.73872
2.7193
2.69947
2.67927
2.65876
2.63795
2.61688
2.59556
2.57402
2.55231
2.53046
2.50851
2.48651
2.46451
2.44257
2.42071
2.39898
2.37745
2.35616
2.3352
2.31458
2.29427
2.27325
2.24862
8.9793e-05
0.00223341
0.0122524
0.0261875
0.0346392
0.039067
0.0411208
0.0416934
0.0413492
0.0403328
0.0388328
0.0370807
0.0352203
0.0333636
0.0315932
0.0299627
0.0284988
0.0272054
0.0260712
0.0250741
0.0241862
0.0233711
0.0225472
0.0217858
0.0212744
0.021596
0.023836
0.0299057
0.0424192
0.0617142
0.0846597
0.107596
0.128339
0.144783
0.156294
0.164349
0.171748
0.181051
0.193654
0.210163
0.230582
0.2546
0.281737
0.311334
0.342752
0.375443
0.409097
0.443553
0.478739
0.51462
0.551184
0.588429
0.626358
0.664965
0.704227
0.744102
0.784541
0.825488
0.866884
0.90867
0.950792
0.993203
1.03587
1.07876
1.12186
1.16517
1.20866
1.25236
1.29624
1.34032
1.38459
1.42904
1.47364
1.51839
1.56324
1.60818
1.65317
1.69817
1.74314
1.78804
1.83285
1.87753
1.92204
1.96636
2.01045
2.05428
2.09782
2.14104
2.18392
2.22641
2.2685
2.31015
2.35134
2.39201
2.43216
2.47174
2.51072
2.54906
2.58674
2.62371
2.65993
2.69539
2.73003
2.76383
2.79674
2.82875
2.8598
2.88988
2.91894
2.94696
2.97392
2.99978
3.02453
3.04813
3.07058
3.09185
3.11192
3.13079
3.14843
3.16485
3.18003
3.19397
3.20665
3.21809
3.22826
3.23718
3.24483
3.25123
3.25638
3.26028
3.26295
3.26427
3.2645
3.26357
3.26143
3.25813
3.2537
3.24816
3.24155
3.23388
3.22517
3.21547
3.2048
3.19318
3.18064
3.16721
3.15292
3.1378
3.12188
3.10519
3.08777
3.06964
3.05084
3.03138
3.01132
2.99068
2.96952
2.94788
2.92579
2.90331
2.88046
2.85729
2.83383
2.81009
2.78612
2.76195
2.73762
2.71319
2.6887
2.66422
2.63979
2.61546
2.59129
2.56734
2.54369
2.52044
2.4976
2.47519
2.45225
2.42619
0.000234815
0.0052832
0.0222095
0.0355739
0.0423861
0.0455646
0.0466633
0.0464533
0.0453782
0.0436471
0.0415497
0.0392758
0.0369827
0.0347935
0.0327954
0.0310407
0.0295547
0.0283418
0.0273955
0.0266949
0.0262763
0.0262354
0.026728
0.0280791
0.0308244
0.0359928
0.0454865
0.0601118
0.0782399
0.0981774
0.11796
0.135605
0.149923
0.160803
0.169424
0.177913
0.18834
0.202001
0.219392
0.240432
0.26473
0.291742
0.320877
0.351551
0.383312
0.415883
0.449153
0.4831
0.51774
0.553106
0.589237
0.626172
0.663938
0.702543
0.741981
0.782233
0.823267
0.865041
0.907505
0.950607
0.994298
1.03853
1.08327
1.12847
1.17412
1.2202
1.26668
1.31356
1.36081
1.40844
1.45641
1.50471
1.5533
1.60215
1.65121
1.70044
1.74979
1.7992
1.84863
1.89802
1.94733
1.99651
2.04553
2.09435
2.14292
2.19122
2.23921
2.28684
2.33408
2.38092
2.4273
2.4732
2.51857
2.56338
2.6076
2.65119
2.6941
2.73631
2.77777
2.81844
2.85829
2.89726
2.93533
2.97246
3.00861
3.04374
3.07781
3.11079
3.14265
3.17334
3.20285
3.23114
3.25819
3.28397
3.30847
3.33165
3.35352
3.37404
3.39321
3.41102
3.42746
3.44253
3.45623
3.46853
3.47946
3.48899
3.49713
3.50389
3.50927
3.51329
3.51593
3.51714
3.51714
3.51582
3.51319
3.50929
3.50415
3.4978
3.49027
3.48158
3.47178
3.46088
3.44892
3.43593
3.42195
3.40699
3.39111
3.37432
3.35666
3.33816
3.31887
3.29881
3.27802
3.25652
3.23436
3.21159
3.18826
3.16441
3.14008
3.11531
3.09015
3.06463
3.03879
3.01265
2.98624
2.95963
2.93284
2.90595
2.87899
2.85203
2.82513
2.79834
2.77172
2.74535
2.71932
2.69371
2.6686
2.64398
2.61898
2.59122
0.000524182
0.0106517
0.0321695
0.0439868
0.0495154
0.0518014
0.0521666
0.0512847
0.0495144
0.0471816
0.0445399
0.0418066
0.0391637
0.0367504
0.0346637
0.0329605
0.0316677
0.0307641
0.0303161
0.0302109
0.0306826
0.0320564
0.034992
0.04029
0.048677
0.0603963
0.0747612
0.0907724
0.107614
0.124033
0.138873
0.151513
0.162111
0.171564
0.181405
0.193153
0.207865
0.225902
0.247143
0.271198
0.297573
0.325756
0.355279
0.385765
0.416978
0.448823
0.481299
0.514453
0.548349
0.583059
0.618651
0.655179
0.69268
0.731182
0.770697
0.811222
0.852741
0.895226
0.938639
0.982941
1.02809
1.07404
1.12075
1.16819
1.21633
1.26513
1.31458
1.36464
1.4153
1.46652
1.51826
1.5705
1.62317
1.67624
1.72963
1.78328
1.83712
1.89108
1.9451
1.99911
2.05304
2.10686
2.16051
2.21394
2.26712
2.31998
2.37251
2.42464
2.47634
2.52758
2.57833
2.62853
2.67815
2.72715
2.77548
2.82311
2.86999
2.91609
2.96134
3.00572
3.04917
3.09166
3.13314
3.17357
3.21291
3.25112
3.28815
3.32398
3.35856
3.39185
3.42383
3.45447
3.48374
3.5116
3.53805
3.56305
3.58659
3.60866
3.62924
3.64834
3.66593
3.68202
3.6966
3.70967
3.72121
3.73125
3.73976
3.74676
3.75227
3.75628
3.75879
3.75981
3.75945
3.75764
3.75443
3.74984
3.74391
3.73666
3.72813
3.71836
3.70738
3.69521
3.68191
3.66749
3.65201
3.63548
3.61796
3.59947
3.58004
3.55971
3.53852
3.51651
3.4937
3.47015
3.44589
3.42099
3.39549
3.36944
3.34288
3.31585
3.28839
3.26054
3.23233
3.20381
3.175
3.14596
3.11675
3.08741
3.05801
3.0286
2.99924
2.97
2.94094
2.91214
2.88371
2.85573
2.82829
2.8014
2.77425
2.7448
0.000995027
0.018228
0.0407739
0.0516193
0.0564566
0.0581584
0.0579802
0.0565175
0.0542013
0.0513712
0.0483185
0.0452939
0.0425068
0.0401165
0.038242
0.036967
0.0364047
0.0363843
0.037144
0.0389143
0.0420328
0.0468548
0.0536528
0.0625787
0.073529
0.086161
0.0998497
0.11383
0.127416
0.140059
0.151543
0.162062
0.17235
0.183468
0.196458
0.212014
0.230389
0.251451
0.274869
0.30023
0.327131
0.355208
0.38417
0.413819
0.444067
0.474913
0.506414
0.538654
0.571727
0.605722
0.640716
0.676778
0.713961
0.75231
0.79185
0.832596
0.874547
0.917692
0.962009
1.00747
1.05404
1.10169
1.15038
1.20007
1.25072
1.3023
1.35478
1.40812
1.46227
1.5172
1.57285
1.62916
1.68606
1.74347
1.80133
1.85953
1.91801
1.97665
2.03539
2.09414
2.15283
2.21139
2.26976
2.3279
2.38575
2.44327
2.50038
2.55706
2.61326
2.66894
2.72406
2.77859
2.83246
2.88562
2.93805
2.98968
3.04049
3.09041
3.1394
3.18741
3.23439
3.28029
3.32507
3.36869
3.4111
3.45226
3.49212
3.53065
3.5678
3.60354
3.63783
3.67065
3.70196
3.73174
3.75996
3.78659
3.81163
3.83506
3.85687
3.87706
3.89561
3.91254
3.92782
3.94147
3.95347
3.96383
3.97254
3.97962
3.98509
3.98894
3.99118
3.99185
3.99099
3.98858
3.98465
3.97925
3.97241
3.96417
3.95455
3.9436
3.93135
3.91784
3.90312
3.88722
3.87017
3.85203
3.83283
3.8126
3.79137
3.76919
3.7461
3.72212
3.69729
3.67168
3.64534
3.61832
3.59068
3.56246
3.5337
3.50444
3.47472
3.44458
3.41405
3.38318
3.35201
3.32059
3.289
3.25727
3.22547
3.19366
3.16189
3.13023
3.09875
3.06755
3.03672
3.00637
2.97657
2.94738
2.91802
2.88671
0.00158234
0.0258653
0.0490229
0.0593701
0.0637289
0.0649858
0.0643802
0.0624747
0.0597575
0.0566273
0.0534252
0.0504357
0.0478982
0.0459956
0.0449773
0.0447242
0.045331
0.0469273
0.0496617
0.0536877
0.0591317
0.0660572
0.0744319
0.0841223
0.094866
0.106269
0.117899
0.129391
0.140545
0.151327
0.161981
0.17305
0.185239
0.199174
0.215273
0.23366
0.254225
0.276704
0.300786
0.326168
0.352585
0.379823
0.407733
0.43624
0.465337
0.495075
0.525542
0.556844
0.589083
0.622358
0.65676
0.692369
0.729254
0.767472
0.807064
0.848064
0.890486
0.93434
0.979621
1.02632
1.07441
1.12386
1.17464
1.22671
1.28002
1.33455
1.39022
1.44701
1.50485
1.56369
1.62344
1.68402
1.74533
1.80727
1.86974
1.93265
1.99589
2.05934
2.1229
2.18648
2.24999
2.31335
2.37651
2.4394
2.50195
2.5641
2.62579
2.68698
2.74762
2.80768
2.86712
2.92587
2.98389
3.04112
3.09752
3.15302
3.2076
3.26119
3.31374
3.36519
3.41549
3.4646
3.51245
3.55903
3.60426
3.64813
3.69056
3.73153
3.77099
3.8089
3.84523
3.87995
3.91302
3.94443
3.97413
4.00212
4.02837
4.05288
4.07564
4.09665
4.1159
4.1334
4.14913
4.16309
4.17529
4.18573
4.19442
4.20136
4.20656
4.21004
4.21181
4.21193
4.21042
4.20722
4.20243
4.19608
4.1882
4.17883
4.168
4.15577
4.14217
4.12723
4.11101
4.09355
4.0749
4.05509
4.03416
4.01217
3.98914
3.9651
3.9401
3.91415
3.88733
3.85969
3.83129
3.80219
3.77245
3.74212
3.71122
3.6798
3.6479
3.61553
3.58275
3.5496
3.51614
3.48244
3.44854
3.41451
3.38039
3.34625
3.31214
3.27813
3.24429
3.21074
3.17756
3.14487
3.11274
3.08125
3.04966
3.01647
0.0023592
0.0327699
0.0567255
0.0671162
0.0713122
0.0723363
0.0714314
0.0692029
0.0662537
0.063077
0.06007
0.0575333
0.0557069
0.0548617
0.0547726
0.0557209
0.0577101
0.0607841
0.0649751
0.0702897
0.0767023
0.0841392
0.0924726
0.101533
0.111119
0.121045
0.131176
0.141447
0.151928
0.162852
0.174587
0.187545
0.202068
0.21836
0.236463
0.256273
0.277603
0.300231
0.323946
0.348565
0.373946
0.399989
0.426644
0.453907
0.481824
0.510475
0.539962
0.570395
0.601887
0.634545
0.668469
0.703753
0.740479
0.77872
0.818531
0.859957
0.903036
0.947795
0.99425
1.0424
1.09224
1.14375
1.1969
1.25165
1.30794
1.36574
1.42496
1.48554
1.5474
1.61046
1.67462
1.73974
1.80569
1.87233
1.93956
2.00726
2.07531
2.14359
2.21198
2.28037
2.34868
2.41681
2.48471
2.55227
2.61944
2.68612
2.75225
2.8178
2.88271
2.94696
3.0105
3.07328
3.13521
3.19625
3.25634
3.31543
3.37348
3.43041
3.48619
3.54074
3.594
3.64594
3.69649
3.74563
3.7933
3.83945
3.88405
3.92704
3.96838
4.00804
4.04599
4.08219
4.11662
4.14924
4.18002
4.20894
4.236
4.2612
4.28453
4.30598
4.32555
4.34325
4.35907
4.37301
4.38508
4.39528
4.40362
4.41012
4.41479
4.41764
4.41869
4.41804
4.41564
4.41146
4.40562
4.39814
4.38906
4.37842
4.36627
4.35263
4.33756
4.32111
4.30332
4.28424
4.26391
4.24239
4.21973
4.19595
4.17111
4.14524
4.11836
4.09048
4.06169
4.03207
4.00168
3.97059
3.93884
3.90648
3.87354
3.84007
3.80609
3.7716
3.73667
3.70136
3.66573
3.62985
3.59378
3.55757
3.52126
3.48491
3.44856
3.4123
3.37622
3.3404
3.30497
3.27001
3.23562
3.20188
3.16812
3.13308
0.00325847
0.0390214
0.0645027
0.0751151
0.0792222
0.0800776
0.0789384
0.0764603
0.0733681
0.0703356
0.0678388
0.0661488
0.0653896
0.0653229
0.0662964
0.0682985
0.0712736
0.0751874
0.0800068
0.0856858
0.0921594
0.099348
0.107167
0.115545
0.124424
0.133775
0.14362
0.154066
0.165281
0.177475
0.190859
0.205592
0.221747
0.239306
0.258186
0.278251
0.299359
0.321368
0.344169
0.367673
0.39183
0.416621
0.442061
0.468193
0.495091
0.522855
0.551593
0.581419
0.612438
0.644765
0.678509
0.713775
0.750657
0.789243
0.829608
0.871824
0.915949
0.962033
1.01011
1.0602
1.11231
1.16641
1.22249
1.2805
1.34037
1.40202
1.46536
1.53028
1.59667
1.66439
1.7333
1.80323
1.874
1.94544
2.01741
2.08981
2.16253
2.23545
2.30848
2.38149
2.45438
2.52707
2.59948
2.67151
2.74304
2.81394
2.8842
2.95376
3.0226
3.09067
3.15793
3.22431
3.28973
3.35412
3.41743
3.47961
3.5406
3.60035
3.6588
3.71588
3.77154
3.82572
3.87838
3.92947
3.97896
4.0268
4.07295
4.11735
4.15997
4.20078
4.23973
4.27682
4.312
4.34526
4.37656
4.40589
4.43324
4.45861
4.482
4.50339
4.52281
4.54024
4.55569
4.56916
4.58066
4.5902
4.59779
4.60346
4.60724
4.60913
4.60917
4.6075
4.60391
4.59852
4.59141
4.58261
4.57216
4.5601
4.54647
4.53131
4.51468
4.49662
4.47718
4.45642
4.43438
4.41113
4.3867
4.36115
4.33453
4.30686
4.27816
4.2484
4.21774
4.18625
4.15398
4.12101
4.08736
4.0531
4.01827
3.98288
3.94698
3.91052
3.87359
3.83628
3.79865
3.76078
3.7227
3.68448
3.64615
3.60775
3.56933
3.53099
3.4928
3.45488
3.41732
3.38024
3.34369
3.30782
3.27198
3.23521
0.00422336
0.0454581
0.0721154
0.0830439
0.0871347
0.0878544
0.0863547
0.0835761
0.0805521
0.0779923
0.0763042
0.0755681
0.0754785
0.0762601
0.0780135
0.0806727
0.0841699
0.0884507
0.093473
0.0991995
0.105598
0.112647
0.120333
0.128656
0.137639
0.147341
0.157843
0.169241
0.181641
0.195133
0.209757
0.225522
0.242386
0.260273
0.279098
0.298766
0.319205
0.340351
0.362174
0.384658
0.407817
0.431675
0.456294
0.481748
0.508107
0.53547
0.563955
0.593675
0.624751
0.657303
0.69145
0.727312
0.765
0.804621
0.846271
0.890043
0.936018
0.984273
1.03486
1.08781
1.14312
1.20077
1.26072
1.32291
1.38724
1.45361
1.52186
1.5918
1.66325
1.736
1.80986
1.88466
1.96019
2.03624
2.1126
2.18922
2.26607
2.34308
2.4202
2.4973
2.57425
2.65098
2.72739
2.80335
2.87869
2.95329
3.02715
3.10022
3.17243
3.24374
3.3141
3.38344
3.45168
3.51874
3.58455
3.64908
3.71225
3.77403
3.83435
3.89316
3.95038
4.00598
4.0599
4.11211
4.16257
4.21125
4.2581
4.30308
4.34615
4.38727
4.42642
4.46358
4.49873
4.53186
4.56294
4.59196
4.61891
4.64378
4.66656
4.68726
4.70589
4.72245
4.73695
4.7494
4.75979
4.76815
4.77451
4.7789
4.78134
4.7819
4.78067
4.77753
4.77246
4.7656
4.75697
4.74662
4.73458
4.7209
4.70563
4.6888
4.67048
4.6507
4.62953
4.60702
4.58322
4.55818
4.53197
4.50463
4.47621
4.44676
4.4163
4.38481
4.35243
4.31922
4.28524
4.25054
4.21517
4.17919
4.14262
4.10551
4.06789
4.02966
3.99095
3.95187
3.91248
3.87283
3.83298
3.79297
3.75284
3.71262
3.67234
3.63211
3.59204
3.55222
3.51275
3.47372
3.43521
3.39737
3.35961
3.3213
0.00521206
0.0517131
0.0795184
0.0907009
0.0947373
0.095283
0.0933844
0.0904888
0.0877935
0.0859098
0.0850298
0.0848349
0.0853788
0.0867653
0.0890279
0.092098
0.0959194
0.100454
0.105683
0.111603
0.118218
0.125544
0.133609
0.142456
0.152132
0.162689
0.174176
0.186631
0.200056
0.21444
0.229772
0.246006
0.263076
0.280921
0.299496
0.318763
0.338713
0.359343
0.380668
0.402714
0.425538
0.449218
0.473878
0.499544
0.526223
0.554071
0.583268
0.613907
0.646106
0.679993
0.715696
0.753352
0.793087
0.835021
0.879266
0.925932
0.975112
1.02689
1.08134
1.13849
1.19827
1.26063
1.32549
1.39276
1.46233
1.53403
1.60768
1.68301
1.75971
1.83739
1.91587
1.99502
2.07471
2.15473
2.23485
2.31513
2.39552
2.47599
2.55643
2.63668
2.71669
2.7965
2.87599
2.95493
3.03317
3.11065
3.18726
3.26292
3.33755
3.41111
3.48356
3.55482
3.62479
3.69339
3.76056
3.82625
3.89044
3.95305
4.01405
4.07337
4.13094
4.18673
4.2407
4.29281
4.34306
4.39139
4.4378
4.48222
4.5246
4.56493
4.6032
4.63938
4.67348
4.70547
4.73534
4.76307
4.78868
4.81213
4.83345
4.85265
4.86973
4.88472
4.89761
4.90843
4.91716
4.92383
4.9285
4.93118
4.93192
4.93088
4.92791
4.92295
4.91616
4.90756
4.8972
4.88511
4.87134
4.85593
4.83892
4.82037
4.80031
4.7788
4.75591
4.73168
4.70616
4.67942
4.65151
4.62248
4.59238
4.56127
4.52918
4.4962
4.46233
4.42764
4.39217
4.35597
4.31911
4.28162
4.24355
4.20494
4.16582
4.12612
4.08595
4.0454
4.00452
3.96339
3.92203
3.88051
3.83887
3.7971