/*--------------------------------*- C++ -*----------------------------------*\
  =========                 |
  \\      /  F ield         | OpenFOAM: The Open Source CFD Toolbox
   \\    /   O peration     | Website:  https://openfoam.org
    \\  /    A nd           | Version:  8
     \\/     M anipulation  |
\*---------------------------------------------------------------------------*/
FoamFile
{
    version     2.0;
    format      ascii;
    class       volScalarField;
    location    "1100";
    object      omega;
}
// * * * * * * * * * * * * * * * * * * * * * * * * * * * * * * * * * * * * * //

dimensions      [0 0 -1 0 0 0 0];

internalField   nonuniform List<scalar> 
12225
(
32582.3
48766.7
42731.5
38466.8
45386.3
52827.9
45957.4
47476.2
42132.5
32582.3
43650
48640.1
43145
41295.9
32582.3
32582.3
32582.3
32582.3
305.354
11111.1
13474.6
13947.7
16230.4
16988.6
18593.1
19723.5
18758.8
16960.6
17440.5
18798.3
17868.6
17207.2
16944.9
16352.5
16878
16726
240.044
1616.55
2644.69
3121.38
3800.94
4270.83
4784.24
5364.04
5502.06
5525.81
5745.94
6076.44
6227.29
6511.25
6673.9
6871.92
7027.51
7151.33
275.313
620.936
899.247
1099.64
1307.65
1495
1659.29
1806.77
1929.41
2032.59
2137.07
2259.3
2348.67
2466.87
2542.02
2639.2
2685.48
2769.36
384.821
473.107
549.614
625.43
705.56
782.902
848.161
909.084
959.938
1014.52
1061.08
1116.85
1157.41
1209.25
1241.21
1285.96
1306.22
1347.31
424.707
442.416
465.338
486.622
519.095
553.617
582.415
610.735
633.845
660.339
682.66
709.884
730.221
755.637
771.723
794.096
804.894
825.436
435.886
437.257
441.963
446.172
456.324
469.886
481.681
494.076
504.256
516.432
526.931
539.97
550.168
562.722
571.124
582.429
588.449
598.932
438.229
436.433
436.19
436.643
438.73
443.759
448.512
453.919
458.428
464.153
469.224
475.807
481.121
487.774
492.372
498.562
501.996
507.928
438.88
436.53
434.886
433.472
432.987
433.637
434.97
436.702
438.206
440.331
442.315
445.19
447.587
450.802
453.056
456.214
457.948
461.178
439.012
436.706
434.669
432.783
431.234
430.177
429.465
429.055
428.767
428.809
428.993
429.375
429.85
430.775
431.402
432.428
432.993
434.179
439.011
436.776
434.664
432.69
430.843
429.206
427.719
426.419
425.219
424.23
423.336
422.661
422.03
421.653
421.213
421.031
420.631
420.629
439.002
436.785
434.667
432.676
430.776
429.001
427.314
425.746
424.252
422.886
421.591
420.434
419.328
418.363
417.412
416.607
415.761
415.087
439.001
436.78
434.664
432.665
430.759
428.957
427.236
425.612
424.058
422.595
421.197
419.888
418.637
417.469
416.346
415.304
414.292
413.358
439.001
436.776
434.661
432.655
430.748
428.938
427.215
425.577
424.017
422.534
421.12
419.775
418.494
417.275
416.112
415.006
413.949
412.944
439.001
436.773
434.658
432.65
430.741
428.927
427.202
425.561
423.998
422.51
421.092
419.741
418.453
417.225
416.052
414.935
413.867
412.848
439.001
436.772
434.656
432.646
430.736
428.92
427.193
425.55
423.985
422.495
421.075
419.722
418.431
417.2
416.024
414.904
413.833
412.811
439.001
436.772
434.655
432.644
430.733
428.916
427.188
425.543
423.977
422.486
421.064
419.709
418.417
417.184
416.007
414.885
413.812
412.789
439.001
436.772
434.655
432.644
430.732
428.916
427.186
425.542
423.974
422.483
421.059
419.705
418.411
417.179
416
414.878
413.804
412.78
439.001
436.772
434.656
432.645
430.734
428.916
427.189
425.542
423.978
422.484
421.066
419.709
418.42
417.185
416.011
414.886
413.815
412.79
439.003
436.772
434.658
432.649
430.738
428.921
427.188
425.546
423.983
422.506
421.099
419.763
418.487
417.269
416.103
414.987
413.922
412.899
439.01
436.765
434.67
432.662
430.747
428.911
427.16
425.559
424.062
422.711
421.43
420.241
419.089
417.969
416.892
415.82
414.813
413.801
439.036
436.734
434.732
432.691
430.736
428.78
427.078
425.873
424.927
424.38
423.889
423.519
423.04
422.495
421.914
421.155
420.561
419.745
439.114
436.646
434.916
432.778
430.789
428.219
427.534
428.357
430.303
433.058
435.956
438.574
440.844
442.795
444.149
445.511
446.907
448.385
439.448
435.598
435.975
434.011
433.297
432.723
435.093
443.126
453.016
464.859
476.837
487.96
497.288
505.045
510.333
515.224
517.717
522.04
438.418
438.226
446.169
450.626
449.381
451.906
465.011
489.989
519.579
552.768
586.762
614.893
639.635
655.267
668.423
675.539
679.132
684.415
438.682
463.68
493.185
499.798
507.848
524.664
566.405
628.726
700.118
778.658
852.287
914.366
963.249
997.842
1012.76
1020.03
1025.89
1028.84
493.257
612.51
710.242
734.116
752.058
808.285
918.254
1050.56
1242.21
1383.67
1495.7
1597.64
1679.48
1745.81
1793.1
1802.62
1806.34
1810.84
692.672
1254.08
1569.88
1711.18
1757.33
1989.3
2262.49
2529.26
2775.21
2938.75
3114.34
3210.19
3312.71
3408.31
3537.16
3633.01
3673.22
3686.6
1732.41
4254.91
5951.67
6560.86
7340.25
7925.74
8403.97
8843.3
9175.29
9445.91
9519.06
9601.13
9575.07
9552.1
9584.32
9558.92
9534.37
9418.19
16112.1
21718.5
23766.5
24725
25196.5
25230.1
25155.1
24974.4
24688.5
24378.7
24063.6
23765.4
23489.5
23239.7
23021.2
22834.9
22679.8
22550.2
11463.3
2494.65
2496.87
2499.12
2501.38
2503.67
2505.98
2508.3
2510.65
2513.02
2515.42
2517.83
2520.27
2522.73
2525.21
2527.72
2530.25
2532.8
2535.37
2537.97
2540.6
2543.25
2545.92
2548.62
2551.34
2554.09
2556.87
2559.67
2562.5
2565.35
2568.23
2571.14
2574.08
2577.04
2580.04
2583.06
2586.11
2589.19
2592.3
2595.43
2598.6
2601.8
2605.03
2608.29
2611.59
2614.91
2618.27
2621.66
2625.08
2628.54
2632.03
2635.55
2639.11
3194.35
3246.7
3291.97
3218.98
2657.44
3181.18
3352.53
2668.88
3282.93
3369.04
3456.92
3552.5
3635.28
3717.9
3795.41
3871.95
3944.06
4015.85
4084.14
4151.84
4217.1
4281.42
4344.02
4405.51
4465.66
4524.65
4582.52
4639.25
4694.95
4749.52
4803.12
4855.61
4907.13
4957.53
5006.94
5055.22
5102.45
5148.53
5193.43
5237.08
5279.45
5320.49
5360.19
5398.56
5435.71
5471.88
5507.57
5542.07
5575.6
5608.14
5639.68
5670.23
5699.75
5728.26
5755.72
5782.16
5807.53
5831.86
5855.11
5877.31
5898.42
5918.48
5937.44
5955.35
5972.16
5987.93
6002.6
6016.24
6028.8
6040.33
6050.81
6060.31
6068.81
6076.55
6083.47
6088.1
6093.82
6095.69
6098.9
6100.59
6102.22
6102.74
6102.12
6099.91
6097.04
6093.15
6088.52
6083.07
6076.88
6069.95
6062.31
6053.98
6045.03
6035.58
6025.35
6015.02
6003.67
5992.43
5980.07
5967.99
5954.73
5941.95
5928.09
5914.5
5900.59
5886.59
5872.53
5858.41
5844.29
5830.15
5816.06
5802.02
5788.12
5774.39
5760.92
5747.74
5734.9
5722.39
5710.2
5698.17
5686.12
5673.63
5660.16
5644.67
5624.3
5594.13
5468.26
11463.3
1993.53
1001.42
816.354
699.107
629.136
637.097
634.188
621.318
598.744
574.117
550.318
528.276
509.975
497.392
488.403
487.559
489.372
515.151
563.848
648.399
750.213
860.819
970.746
1069.12
1145.25
1188.43
1180.38
1147.79
1058.55
936.994
781.939
652.821
567.487
500.448
465.298
461.976
470.816
494.467
526.026
557.36
599.938
701.476
844.118
1071.62
1398.16
1694.52
1896.93
2016.95
2079.71
2092.68
2074.91
2046.05
2040.39
1970.83
1921.45
1856.67
1785.1
1773.56
1740.82
1699.44
1718.57
1700.08
1694.97
1691.08
1689.41
1688.91
1690.77
1694.14
1698.34
1703.74
1709.53
1716.1
1722.91
1730.15
1737.53
1745.12
1752.78
1760.51
1768.24
1775.96
1783.64
1791.24
1798.75
1806.14
1813.39
1820.49
1827.41
1834.15
1840.69
1847.02
1853.13
1859.05
1864.8
1870.47
1876.16
1882.05
1888.42
1895.66
1904.31
1912.43
1920.51
1928.27
1935.86
1943.2
1950.31
1957.2
1963.85
1970.28
1976.47
1982.43
1988.16
1993.66
1998.93
2003.97
2008.79
2013.37
2017.74
2021.87
2025.79
2029.49
2032.97
2036.24
2039.31
2042.17
2044.85
2047.34
2049.62
2051.64
2053.58
2055.17
2056.79
2058.19
2059.4
2060.14
2060.13
2059.57
2058.82
2057.87
2056.75
2055.44
2053.95
2052.3
2050.49
2048.55
2046.54
2043.93
2042.1
2038.73
2036.82
2033.12
2031.01
2027.01
2024.65
2020.65
2017.69
2014.21
2010.73
2007.22
2003.66
2000.05
1996.42
1992.77
1989.11
1985.44
1981.78
1978.14
1974.54
1970.98
1967.49
1964.07
1960.71
1957.47
1954.37
1951.48
1948.9
1946.67
1945.43
1944.29
1952.97
11463.3
2011.82
817.68
647.824
692.019
692.135
663.451
606.773
546.328
489.517
439.471
396.705
363.178
336.926
316.741
301.241
290.429
282.213
279.92
282.208
292.605
311.218
343.597
387.83
443.09
503.866
565.199
611.963
642.92
638.485
621.251
573.446
511.841
444.702
395.58
391.981
405.002
431.346
473.818
551.579
668.711
833.683
1032.82
1209.99
1356.79
1487.67
1562.13
1585.67
1573.53
1522.72
1466.82
1405.97
1351.89
1303.81
1258.39
1222.4
1191.83
1167
1151.43
1138.28
1129.56
1124.93
1120
1118.26
1117.26
1117.07
1118.07
1119.92
1122.31
1125.14
1128.37
1131.84
1135.56
1139.43
1143.44
1147.54
1151.71
1155.92
1160.17
1164.42
1168.67
1172.9
1177.11
1181.28
1185.41
1189.48
1193.5
1197.47
1201.37
1205.22
1209.02
1212.78
1216.52
1220.27
1224.05
1227.92
1231.91
1236.05
1240.37
1244.72
1248.89
1252.97
1256.91
1260.74
1264.43
1268
1271.45
1274.76
1277.95
1281
1283.93
1286.73
1289.39
1291.93
1294.34
1296.62
1298.76
1300.78
1302.67
1304.43
1306.05
1307.56
1308.93
1310.19
1311.32
1312.33
1313.21
1313.97
1314.6
1315.13
1315.52
1315.83
1315.99
1316
1315.79
1315.34
1314.73
1314.01
1313.18
1312.25
1311.2
1310.06
1308.82
1307.47
1306.04
1304.51
1302.83
1301.21
1299.24
1297.51
1295.36
1293.5
1291.17
1289.19
1286.77
1284.57
1282.2
1279.8
1277.36
1274.88
1272.35
1269.8
1267.21
1264.61
1261.98
1259.35
1256.7
1254.06
1251.42
1248.8
1246.22
1243.68
1241.23
1238.9
1236.76
1234.96
1233.65
1233.56
1235.09
1245.78
11463.3
2039.69
1021.19
986.785
916.998
784.742
665.786
557.255
471.827
408.142
360.207
322.782
293.711
271.44
254.443
241.527
231.843
224.833
220.189
218.462
219.549
222.636
231.017
245.409
267.154
296.05
330.634
365.819
397.014
420.136
426.016
418.874
398.438
403.446
451.05
543.133
608.486
668.411
743.959
852.414
989.122
1101.51
1179.59
1246.9
1294.77
1310.65
1262.88
1222.86
1171.61
1119.69
1074
1033.47
1000.35
972.494
949.926
932.015
918.271
908.064
901.042
895.944
892.924
891.469
890.653
890.603
891.428
892.812
894.706
896.969
899.516
902.295
905.264
908.377
911.613
914.939
918.342
921.799
925.3
928.831
932.382
935.943
939.507
943.067
946.616
950.148
953.661
957.149
960.611
964.045
967.454
970.841
974.207
977.558
980.9
984.243
987.595
990.961
994.342
997.727
1001.09
1004.38
1007.57
1010.67
1013.67
1016.57
1019.38
1022.08
1024.69
1027.19
1029.58
1031.88
1034.06
1036.14
1038.12
1039.98
1041.74
1043.38
1044.92
1046.35
1047.67
1048.88
1049.97
1050.96
1051.84
1052.61
1053.26
1053.81
1054.25
1054.58
1054.81
1054.93
1054.93
1054.84
1054.62
1054.28
1053.79
1053.17
1052.43
1051.59
1050.67
1049.65
1048.54
1047.34
1046.05
1044.67
1043.22
1041.67
1040.03
1038.35
1036.53
1034.71
1032.75
1030.8
1028.7
1026.64
1024.42
1022.23
1019.96
1017.64
1015.28
1012.87
1010.43
1007.95
1005.45
1002.92
1000.37
997.802
995.219
992.627
990.029
987.441
984.876
982.351
979.891
977.538
975.357
973.465
972.018
971.594
972.684
979.322
11463.3
2319.61
1489.34
1202.01
953.034
735.533
567.603
455.129
378.445
324.764
286.435
259.068
239.232
224.309
212.837
203.997
197.349
192.546
189.368
187.932
188.294
189.666
193.659
200.626
211.668
227.806
249.12
273.155
297.009
315.542
332.868
362.765
435.772
543.266
632.377
702.081
774.519
852.365
924.795
987.68
1042.75
1090.24
1115.96
1121.09
1082.77
1037.92
996.814
956.862
918.363
885.731
858.26
835.443
817.138
802.373
790.983
782.305
776.124
771.96
769.402
768.296
767.996
768.431
769.556
771.178
773.243
775.638
778.304
781.179
784.223
787.405
790.699
794.085
797.546
801.068
804.639
808.248
811.887
815.547
819.221
822.902
826.585
830.264
833.935
837.593
841.235
844.857
848.457
852.034
855.586
859.116
862.622
866.104
869.561
872.996
876.404
879.783
883.121
886.406
889.626
892.764
895.814
898.776
901.647
904.425
907.108
909.694
912.182
914.569
916.855
919.039
921.118
923.091
924.956
926.714
928.362
929.899
931.325
932.638
933.839
934.927
935.901
936.761
937.508
938.139
938.657
939.061
939.35
939.525
939.582
939.541
939.377
939.1
938.704
938.188
937.547
936.786
935.918
934.95
933.884
932.723
931.467
930.119
928.683
927.16
925.549
923.848
922.066
920.207
918.261
916.256
914.164
912.025
909.8
907.54
905.197
902.818
900.378
897.889
895.354
892.776
890.16
887.511
884.832
882.126
879.396
876.646
873.879
871.103
868.331
865.566
862.82
860.11
857.457
854.898
852.49
850.328
848.536
847.511
847.777
851.145
11463.3
2956.88
1754.25
1223.3
841.549
593.276
449.014
359.842
304.525
268.598
243.667
225.352
211.282
200.232
191.413
184.401
179.003
175.082
172.561
171.56
171.95
173.4
176.809
182.195
190.379
202.549
219.678
242.154
272.359
317.453
376.597
475.683
589.005
677.446
746.692
809.507
861.305
901.485
936.165
968.404
983.216
982.002
949.72
918.791
883.631
849.946
819.388
791.928
768.242
748.718
732.612
719.644
709.492
701.716
696.1
692.239
690.145
689.319
689.222
690.088
691.615
693.654
696.13
698.94
702.025
705.323
708.793
712.4
716.12
719.932
723.821
727.774
731.78
735.83
739.915
744.028
748.161
752.308
756.462
760.619
764.771
768.916
773.048
777.162
781.256
785.325
789.365
793.375
797.352
801.295
805.202
809.069
812.893
816.671
820.4
824.072
827.679
831.21
834.661
838.024
841.297
844.477
847.56
850.545
853.428
856.207
858.88
861.444
863.899
866.243
868.473
870.587
872.583
874.46
876.216
877.85
879.359
880.745
882.005
883.139
884.146
885.027
885.78
886.405
886.903
887.272
887.512
887.613
887.611
887.477
887.214
886.822
886.303
885.658
884.884
883.988
882.975
881.852
880.621
879.283
877.842
876.298
874.659
872.923
871.093
869.167
867.153
865.052
862.865
860.603
858.261
855.853
853.372
850.831
848.22
845.555
842.832
840.057
837.233
834.364
831.456
828.513
825.538
822.536
819.509
816.46
813.393
810.317
807.24
804.17
801.119
798.1
795.135
792.253
789.504
786.965
784.74
783.094
782.401
783.563
11463.3
3469.93
1796.88
1045.75
657.177
462.513
363.224
307.067
271.268
246.166
227.307
212.56
200.643
190.763
182.566
175.895
170.69
166.945
164.777
164.3
165.277
168.044
173.079
180.803
191.942
207.27
230.654
268.127
327.022
417.954
525.797
614.845
685.125
745.284
791.902
826.905
855.356
875.849
883.875
875.938
851.896
829.327
801.442
775.646
749.707
726.385
705.945
688.433
673.819
661.911
652.372
644.998
639.561
635.797
633.745
632.97
632.964
634.028
635.796
638.195
641.088
644.372
647.972
651.823
655.874
660.084
664.423
668.867
673.396
677.996
682.657
687.367
692.119
696.905
701.718
706.55
711.395
716.245
721.095
725.939
730.771
735.586
740.38
745.147
749.884
754.585
759.246
763.864
768.434
772.955
777.424
781.834
786.184
790.468
794.683
798.825
802.89
806.873
810.765
814.558
818.249
821.836
825.315
828.682
831.934
835.068
838.081
840.969
843.727
846.352
848.845
851.205
853.429
855.518
857.467
859.277
860.946
862.472
863.855
865.095
866.191
867.143
867.949
868.611
869.128
869.499
869.715
869.788
869.74
869.541
869.197
868.711
868.083
867.317
866.412
865.374
864.207
862.917
861.505
859.975
858.328
856.567
854.686
852.689
850.587
848.381
846.075
843.673
841.179
838.598
835.934
833.193
830.376
827.489
824.531
821.51
818.429
815.292
812.102
808.866
805.588
802.274
798.927
795.55
792.148
788.723
785.281
781.829
778.376
774.931
771.504
768.109
764.764
761.495
758.344
755.372
752.653
750.372
748.718
748.243
11463.3
3610.49
1574.25
821.765
521.148
386.616
317.381
277.096
251.091
232.784
218.679
206.766
196.365
187.376
179.771
173.628
169.144
166.477
165.552
166.295
168.981
174.276
182.715
196.605
218.537
250.833
300.896
378.456
468.504
549.007
614.343
669.716
716.092
752.826
782.489
799.441
804.452
795.287
777.044
758.665
737.36
717.359
696.754
677.617
659.611
643.886
630.427
619.17
609.989
602.729
597.218
593.306
590.999
590.046
589.959
590.945
592.747
595.301
598.453
602.106
606.169
610.56
615.218
620.091
625.137
630.322
635.621
641.014
646.482
652.013
657.596
663.221
668.88
674.566
680.273
685.99
691.711
697.428
703.134
708.822
714.487
720.122
725.723
731.284
736.801
742.269
747.681
753.032
758.317
763.535
768.68
773.749
778.735
783.635
788.447
793.166
797.794
802.32
806.733
811.03
815.206
819.258
823.182
826.976
830.636
834.158
837.54
840.777
843.868
846.81
849.601
852.238
854.72
857.045
859.211
861.216
863.058
864.738
866.253
867.604
868.79
869.811
870.667
871.357
871.881
872.238
872.414
872.446
872.321
872.029
871.575
870.961
870.19
869.262
868.182
866.953
865.58
864.068
862.419
860.638
858.727
856.689
854.528
852.248
849.852
847.342
844.723
842
839.175
836.255
833.245
830.151
826.974
823.72
820.392
816.995
813.534
810.013
806.438
802.813
799.143
795.435
791.694
787.921
784.121
780.298
776.46
772.611
768.762
764.922
761.101
757.312
753.571
749.899
746.318
742.871
739.628
736.723
734.241
732.391
11463.3
3421.52
1287.17
665.872
446.458
351.106
300.145
269.115
247.568
231.268
218.3
207.553
198.396
190.574
184.142
179.334
176.491
175.768
177.494
181.644
189.313
201.942
221.008
251.991
298.673
360.603
429.945
493.466
550.814
600.411
642.859
678.448
709.156
728.975
735.321
729.997
716.747
701.496
684.691
668.722
652.8
637.686
622.909
609.225
596.852
586.217
577.301
570.048
564.371
560.175
557.399
556.068
555.741
556.417
558.032
560.497
563.687
567.511
571.869
576.678
581.862
587.357
593.106
599.063
605.19
611.457
617.84
624.319
630.873
637.486
644.145
650.839
657.556
664.289
671.039
677.786
684.524
691.244
697.939
704.6
711.222
717.798
724.322
730.786
737.176
743.49
749.733
755.899
761.984
767.985
773.895
779.709
785.422
791.03
796.527
801.909
807.167
812.296
817.292
822.151
826.867
831.438
835.859
840.129
844.242
848.196
851.986
855.609
859.062
862.343
865.45
868.379
871.129
873.697
876.083
878.284
880.298
882.124
883.763
885.213
886.476
887.55
888.436
889.133
889.641
889.952
890.07
890.024
889.79
889.371
888.771
887.991
887.034
885.904
884.603
883.136
881.509
879.725
877.789
875.705
873.476
871.108
868.603
865.967
863.203
860.315
857.307
854.184
850.951
847.614
844.178
840.65
837.034
833.333
829.553
825.7
821.78
817.798
813.757
809.664
805.524
801.344
797.129
792.881
788.606
784.309
779.997
775.677
771.357
767.049
762.761
758.506
754.298
750.156
746.109
742.193
738.452
734.984
731.814
728.889
11463.3
2980.71
1036.22
565.564
404.39
331.838
292.622
266.993
249.42
236.462
226.04
217.243
209.817
203.87
199.837
198.312
199.58
204.419
212.964
225.664
244.819
272.272
309.574
354.807
403.834
453.134
499.519
541.156
578.395
610.527
638.998
661.427
670.951
671.496
663.745
652.692
639.629
626.748
614.275
602.507
591.055
580.024
569.464
559.797
551.28
544.103
538.276
533.772
530.541
528.685
528
528.211
529.469
531.647
534.666
538.446
542.896
547.937
553.492
559.489
565.866
572.56
579.517
586.693
594.048
601.551
609.183
616.926
624.741
632.612
640.52
648.448
656.376
664.28
672.117
679.936
687.74
695.52
703.264
710.967
718.619
726.216
733.75
741.215
748.609
755.925
763.142
770.251
777.246
784.123
790.88
797.509
804.004
810.362
816.578
822.646
828.563
834.324
839.927
845.365
850.636
855.736
860.661
865.407
869.972
874.351
878.54
882.536
886.335
889.936
893.335
896.53
899.52
902.301
904.873
907.233
909.38
911.314
913.033
914.539
915.832
916.911
917.777
918.431
918.87
919.082
919.098
918.909
918.511
917.907
917.101
916.096
914.894
913.5
911.918
910.151
908.207
906.089
903.803
901.353
898.745
895.982
893.071
890.016
886.821
883.492
880.034
876.451
872.748
868.932
865.01
860.989
856.872
852.666
848.377
844.011
839.576
835.076
830.516
825.9
821.236
816.531
811.788
807.012
802.209
797.386
792.55
787.708
782.87
778.045
773.243
768.474
763.753
759.097
754.53
750.083
745.786
741.717
737.867
733.957
11463.3
2495.85
892.53
523.634
389.789
327.765
293.514
273.087
259.443
249.389
241.511
235.343
231.07
229.329
230.245
235.053
243.842
255.807
271.509
293.053
320.417
352.528
387.698
423.83
459.285
492.94
523.919
551.397
576.52
599.017
611.857
615.488
613.499
607.612
598.759
589.139
579.526
570.429
561.738
553.344
545.112
537.146
529.647
522.911
517.146
512.472
508.923
506.537
505.409
505.203
506.021
507.806
510.527
514.119
518.514
523.637
529.415
535.777
542.655
549.99
557.747
565.847
574.227
582.84
591.641
600.58
609.586
618.621
627.731
636.906
646.124
655.366
664.603
673.822
683.031
692.196
701.315
710.378
719.367
728.277
737.105
745.844
754.49
763.033
771.464
779.766
787.935
795.963
803.845
811.579
819.16
826.582
833.838
840.925
847.837
854.573
861.128
867.498
873.678
879.664
885.452
891.039
896.421
901.595
906.558
911.306
915.835
920.142
924.223
928.076
931.699
935.09
938.246
941.166
943.849
946.291
948.493
950.454
952.174
953.655
954.895
955.898
956.662
957.189
957.47
957.518
957.335
956.921
956.277
955.406
954.312
953
951.472
949.734
947.79
945.645
943.305
940.776
938.063
935.172
932.109
928.879
925.488
921.942
918.246
914.407
910.429
906.319
902.081
897.722
893.25
888.672
883.993
879.222
874.365
869.43
864.424
859.352
854.219
849.03
843.79
838.506
833.185
827.83
822.451
817.054
811.647
806.239
800.837
795.45
790.089
784.764
779.488
774.277
769.152
764.14
759.262
754.581
750.075
745.278
11463.3
2080.16
792.301
492.814
382.311
329.53
301.749
285.434
274.972
267.855
263.054
260.722
260.426
263.224
269.57
279.53
292.524
308.381
327.813
350.487
375.466
401.707
428.213
454.172
478.828
501.562
522.97
543.02
557.387
563.533
564.88
563.747
559.494
553.669
547.104
540.548
534.198
528.07
522.056
516.101
510.239
504.626
499.48
495.031
491.446
488.82
487.351
486.88
487.361
488.846
491.301
494.69
498.983
504.153
510.153
516.874
524.25
532.213
540.69
549.59
558.768
568.259
578.072
588.173
598.516
609.06
619.78
630.652
641.599
652.577
663.552
674.514
685.399
696.183
706.853
717.391
727.782
738.032
748.161
758.176
768.08
777.873
787.55
797.1
806.508
815.758
824.838
833.739
842.458
850.993
859.339
867.489
875.436
883.176
890.706
898.024
905.126
912.009
918.668
925.098
931.296
937.259
942.984
948.469
953.711
958.707
963.453
967.946
972.183
976.163
979.883
983.341
986.537
989.468
992.133
994.531
996.66
998.522
1000.12
1001.45
1002.51
1003.32
1003.86
1004.13
1004.15
1003.91
1003.41
1002.65
1001.65
1000.4
998.912
997.186
995.228
993.043
990.637
988.015
985.184
982.149
978.918
975.496
971.89
968.106
964.151
960.032
955.755
951.326
946.753
942.042
937.197
932.227
927.138
921.936
916.632
911.235
905.752
900.192
894.561
888.864
883.106
877.291
871.426
865.515
859.566
853.586
847.584
841.57
835.55
829.533
823.526
817.537
811.577
805.656
799.786
793.984
788.269
782.662
777.18
771.873
766.725
761.111
11463.3
1947.65
775.285
489.909
385.52
338.539
314.689
301.411
293.604
289.344
287.714
288.01
291.155
297.2
306.09
317.54
331.224
347.171
364.968
383.97
403.532
423.042
441.925
460.033
477.643
494.48
508.121
515.999
519.695
521.106
520.942
518.914
515.693
511.919
507.934
503.93
499.931
495.92
491.889
487.887
484.035
480.507
477.496
475.182
473.829
473.39
473.926
475.585
478.201
481.759
486.237
491.598
497.778
504.648
512.146
520.389
529.353
538.984
549.215
559.992
571.295
583.039
595.151
607.577
620.265
633.152
646.181
659.32
672.458
685.506
698.393
711.048
723.466
735.634
747.545
759.201
770.617
781.825
792.867
803.767
814.538
825.189
835.718
846.108
856.332
866.362
876.184
885.791
895.176
904.339
913.275
921.975
930.431
938.64
946.598
954.304
961.756
968.952
975.888
982.558
988.96
995.091
1000.95
1006.54
1011.85
1016.88
1021.64
1026.11
1030.3
1034.2
1037.81
1041.14
1044.18
1046.92
1049.38
1051.54
1053.41
1054.99
1056.29
1057.29
1058
1058.43
1058.58
1058.45
1058.03
1057.34
1056.37
1055.13
1053.62
1051.85
1049.83
1047.55
1045.03
1042.27
1039.28
1036.07
1032.63
1028.98
1025.12
1021.06
1016.81
1012.37
1007.76
1002.97
998.022
992.917
987.665
982.272
976.744
971.088
965.311
959.418
953.424
947.341
941.175
934.934
928.623
922.249
915.815
909.326
902.787
896.201
889.579
882.931
876.266
869.595
862.924
856.261
849.612
842.986
836.39
829.838
823.341
816.917
810.583
804.356
798.249
792.305
786.524
780.144
11463.3
1889.68
752.772
488.07
393.084
350.755
329.912
318.833
312.992
310.497
310.072
312.259
317.067
324.177
333.278
344.04
356.19
369.453
383.445
397.742
411.927
425.991
440.084
453.588
464.901
472.817
478.276
482.157
484.097
484.868
484.953
484.135
482.773
481.108
479.262
477.298
475.254
473.179
471.164
469.366
468.041
467.27
467.063
467.587
468.963
471.158
474.09
477.598
482.039
487.484
493.932
501.361
509.737
519.06
529.323
540.45
552.397
565.082
578.425
592.356
606.815
621.698
636.911
652.377
668.062
683.831
699.54
715.048
730.28
745.174
759.665
773.698
787.255
800.33
812.925
825.074
836.841
848.316
859.62
870.807
881.888
892.889
903.815
914.626
925.271
935.682
945.86
955.794
965.477
974.902
984.064
992.953
1001.56
1009.88
1017.91
1025.64
1033.09
1040.25
1047.11
1053.67
1059.93
1065.88
1071.54
1076.89
1081.94
1086.69
1091.13
1095.26
1099.09
1102.61
1105.82
1108.72
1111.31
1113.59
1115.57
1117.24
1118.61
1119.65
1120.4
1120.84
1120.97
1120.8
1120.34
1119.57
1118.51
1117.15
1115.51
1113.58
1111.38
1108.91
1106.19
1103.2
1099.96
1096.48
1092.76
1088.8
1084.62
1080.22
1075.61
1070.79
1065.78
1060.58
1055.2
1049.64
1043.92
1038.05
1032.03
1025.86
1019.57
1013.15
1006.62
999.963
993.218
986.39
979.486
972.51
965.468
958.365
951.206
943.995
936.739
929.433
922.097
914.744
907.382
900.02
892.665
885.324
878.002
870.706
863.444
856.232
849.082
842.012
835.036
828.171
821.425
814.831
808.422
801.32
11463.3
1858.1
750.916
494.938
404.613
364.703
345.11
334.793
329.582
327.535
327.359
329.965
334.805
341.386
349.278
358.144
367.769
377.921
388.354
398.937
409.811
420.079
428.841
436.09
442.082
447.212
451.27
454.51
457.038
459.099
460.85
462.381
463.612
464.604
465.426
466.137
466.805
467.494
468.267
469.136
469.955
471.295
473.423
476.601
480.818
486.028
492.259
499.631
508.084
517.653
528.351
540.129
552.94
566.761
581.554
597.285
613.943
631.298
649.206
667.545
686.199
705.04
723.94
742.763
761.336
779.573
797.383
814.647
831.253
847.096
862.125
876.323
889.722
902.356
914.205
925.369
935.98
946.228
956.486
966.812
977.125
987.509
997.981
1008.43
1018.77
1028.93
1038.87
1048.56
1057.98
1067.11
1075.96
1084.5
1092.73
1100.64
1108.22
1115.47
1122.4
1129.01
1135.29
1141.24
1146.87
1152.16
1157.13
1161.78
1166.1
1170.1
1173.78
1177.14
1180.18
1182.89
1185.28
1187.35
1189.1
1190.53
1191.66
1192.48
1192.97
1193.13
1192.99
1192.55
1191.78
1190.7
1189.32
1187.63
1185.65
1183.37
1180.8
1177.94
1174.8
1171.41
1167.75
1163.84
1159.67
1155.26
1150.61
1145.73
1140.62
1135.3
1129.76
1124.02
1118.09
1111.97
1105.68
1099.21
1092.59
1085.81
1078.89
1071.84
1064.67
1057.37
1049.98
1042.51
1034.97
1027.34
1019.65
1011.89
1004.06
996.18
988.249
980.272
972.257
964.195
956.114
948.027
939.94
931.861
923.796
915.749
907.729
899.738
891.787
883.894
876.074
868.342
860.71
853.194
845.8
838.552
831.52
823.738
11463.3
1835.08
750.603
503.353
414.745
375.855
356.978
346.619
341.174
338.941
338.599
340.733
344.78
350.193
356.554
363.611
371.249
379.36
387.636
395.664
403.265
410.522
417.533
424.103
430.311
436.222
441.806
447.097
452.034
456.598
460.701
464.104
467.272
470.352
473.431
476.59
479.92
483.513
487.472
491.926
497.153
503.263
510.515
519.184
529.013
539.926
551.97
565.208
579.596
595.162
612.073
630.065
648.976
668.684
689.06
709.934
731.115
752.559
774.148
795.754
817.243
838.49
859.372
879.779
899.6
918.749
937.149
954.713
971.338
986.852
1001.26
1014.65
1027.16
1038.89
1049.91
1060.25
1069.92
1079.01
1087.73
1096.19
1104.58
1113.33
1122.51
1131.78
1140.97
1150.02
1158.87
1167.44
1175.74
1183.73
1191.43
1198.8
1205.83
1212.51
1218.84
1224.83
1230.47
1235.78
1240.75
1245.38
1249.67
1253.61
1257.22
1260.51
1263.47
1266.12
1268.44
1270.44
1272.13
1273.5
1274.55
1275.29
1275.72
1275.82
1275.65
1275.18
1274.38
1273.26
1271.85
1270.14
1268.12
1265.82
1263.22
1260.34
1257.17
1253.73
1250
1246.01
1241.75
1237.23
1232.46
1227.44
1222.19
1216.7
1210.99
1205.05
1198.9
1192.54
1185.98
1179.22
1172.29
1165.18
1157.89
1150.46
1142.87
1135.13
1127.27
1119.28
1111.17
1102.96
1094.66
1086.31
1077.88
1069.39
1060.82
1052.2
1043.52
1034.78
1026.01
1017.19
1008.36
999.515
990.676
981.84
973.012
964.196
955.398
946.626
937.888
929.186
920.534
911.952
903.456
895.057
886.765
878.595
870.552
862.654
855.008
846.591
11463.3
1822.38
753.166
508.854
421.373
383.455
364.759
354.207
348.578
346.181
345.719
347.551
351.234
356.28
362.241
368.912
376.103
383.647
391.517
399.733
407.891
415.963
424.031
432.065
440.109
448.198
456.346
464.562
472.672
480.709
488.735
496.915
505.259
513.856
522.801
532.187
542.124
552.709
564.043
576.237
589.436
603.629
618.801
634.743
651.553
669.319
688.096
707.947
728.768
750.404
772.61
795.64
819.183
843.03
867.012
890.95
914.69
938.089
961.022
983.351
1004.99
1025.85
1045.87
1064.99
1083.18
1100.41
1116.66
1131.95
1146.28
1159.69
1172.16
1183.62
1194.32
1204.43
1214.05
1223.14
1231.57
1239.39
1246.5
1253.11
1259.66
1266.64
1273.74
1280.72
1287.53
1294.11
1300.47
1306.55
1312.37
1317.91
1323.17
1328.13
1332.77
1337.07
1341.05
1344.71
1348.06
1351.11
1353.86
1356.29
1358.41
1360.22
1361.74
1362.97
1363.92
1364.59
1364.98
1365.07
1364.92
1364.49
1363.76
1362.77
1361.5
1359.96
1358.17
1356.1
1353.76
1351.15
1348.26
1345.12
1341.71
1338.05
1334.13
1329.96
1325.54
1320.88
1315.97
1310.82
1305.43
1299.8
1293.96
1287.89
1281.62
1275.13
1268.43
1261.54
1254.45
1247.17
1239.71
1232.08
1224.28
1216.32
1208.2
1199.94
1191.54
1183.01
1174.36
1165.59
1156.71
1147.73
1138.64
1129.48
1120.24
1110.93
1101.55
1092.11
1082.61
1073.06
1063.48
1053.86
1044.22
1034.59
1024.97
1015.36
1005.76
996.171
986.608
977.077
967.59
958.167
948.824
939.566
930.403
921.344
912.4
903.586
894.907
886.375
878.129
869.133
11463.3
1810.59
754.946
511.946
424.836
388.966
370.801
360.906
356.701
355.247
355.88
359.063
364
370.266
377.82
386.868
396.503
406.688
417.943
430.348
443.291
456.646
470.687
485.429
500.844
516.904
533.575
550.783
568.553
586.896
605.83
625.396
645.498
666.132
687.345
709.195
731.799
755.29
779.563
804.485
829.962
855.825
881.909
908.016
934.131
960.302
986.623
1013.61
1040.73
1067.49
1093.48
1118.42
1142.42
1165.53
1187.67
1208.81
1228.83
1247.72
1265.4
1281.92
1297.23
1311.39
1324.38
1336.24
1346.98
1356.63
1365.28
1373
1379.91
1386.29
1392.32
1398.04
1403.4
1408.34
1412.87
1416.91
1420.37
1423.59
1426.8
1430.38
1434.29
1437.98
1441.11
1443.9
1446.47
1448.87
1451.11
1453.2
1455.11
1456.84
1458.36
1459.66
1460.74
1461.58
1462.2
1462.6
1462.78
1462.75
1462.52
1462.02
1461.31
1460.39
1459.25
1457.92
1456.4
1454.67
1452.75
1450.61
1448.28
1445.74
1443
1440.07
1436.93
1433.59
1430.04
1426.29
1422.33