/*--------------------------------*- C++ -*----------------------------------*\
  =========                 |
  \\      /  F ield         | OpenFOAM: The Open Source CFD Toolbox
   \\    /   O peration     | Website:  https://openfoam.org
    \\  /    A nd           | Version:  8
     \\/     M anipulation  |
\*---------------------------------------------------------------------------*/
FoamFile
{
    version     2.0;
    format      ascii;
    class       volScalarField;
    location    "1500";
    object      p;
}
// * * * * * * * * * * * * * * * * * * * * * * * * * * * * * * * * * * * * * //

dimensions      [0 2 -2 0 0 0 0];

internalField   nonuniform List<scalar> 
12225
(
514.676
55.5276
2.36329
0.281168
-1.89932
-3.37489
-3.81216
-4.02261
-4.23241
-4.36939
-4.41663
-4.42636
-4.4295
-4.45765
-4.51129
-4.57812
-4.72399
-4.94803
-122.179
0.238389
-2.71893
-0.76563
-2.21702
-3.52548
-3.95324
-4.13739
-4.28112
-4.38518
-4.4602
-4.51863
-4.56971
-4.60227
-4.62343
-4.64933
-4.71642
-4.81138
-200.646
-16.1489
-2.34695
-0.358858
-1.90136
-3.24537
-3.7728
-4.02309
-4.19583
-4.32016
-4.41293
-4.48025
-4.52901
-4.55442
-4.56968
-4.58554
-4.61774
-4.60139
-110.617
-10.9746
-2.17766
-0.432571
-1.7883
-3.02939
-3.60192
-3.90914
-4.11846
-4.26433
-4.36679
-4.43757
-4.48642
-4.51516
-4.53268
-4.54074
-4.53991
-4.47143
-61.5733
-8.14638
-3.62313
-1.21058
-2.01582
-2.99896
-3.52988
-3.84969
-4.07225
-4.22699
-4.33471
-4.40946
-4.46094
-4.49219
-4.50763
-4.50518
-4.47911
-4.38903
-45.7313
-8.78582
-5.25934
-2.20093
-2.43057
-3.10175
-3.53725
-3.83425
-4.05029
-4.20417
-4.3133
-4.39012
-4.44267
-4.4737
-4.48538
-4.47475
-4.43473
-4.34018
-35.7952
-9.27708
-6.38114
-3.12537
-2.9226
-3.29071
-3.60465
-3.85559
-4.05105
-4.19629
-4.30235
-4.37822
-4.42992
-4.45975
-4.46876
-4.45423
-4.41027
-4.32317
-27.7787
-8.90786
-6.9746
-3.80364
-3.36268
-3.49955
-3.70164
-3.90117
-4.07057
-4.20289
-4.30272
-4.37554
-4.42553
-4.45444
-4.46284
-4.44858
-4.40759
-4.3328
-21.6907
-8.52083
-7.13531
-4.31152
-3.72998
-3.70717
-3.81748
-3.96587
-4.10621
-4.22253
-4.31365
-4.38178
-4.4293
-4.4573
-4.46606
-4.45411
-4.4191
-4.35804
-16.6134
-8.14151
-7.08898
-4.75641
-4.0843
-3.93554
-3.96044
-4.05392
-4.16033
-4.25658
-4.33609
-4.39775
-4.44203
-4.46925
-4.47946
-4.47198
-4.44603
-4.40147
-12.6397
-7.68172
-6.90701
-5.10272
-4.40793
-4.17152
-4.12314
-4.16273
-4.23296
-4.30636
-4.37199
-4.42576
-4.46629
-4.49313
-4.50614
-4.50529
-4.49098
-4.46474
-9.69986
-7.14964
-6.63012
-5.32756
-4.67979
-4.39832
-4.29568
-4.28798
-4.32318
-4.37287
-4.42343
-4.46848
-4.50516
-4.53223
-4.5494
-4.55698
-4.55604
-4.54869
-7.66692
-6.60559
-6.30689
-5.43254
-4.88424
-4.59847
-4.46487
-4.42174
-4.42705
-4.45485
-4.49086
-4.52747
-4.56079
-4.58898
-4.61148
-4.62866
-4.6417
-4.65255
-6.37185
-6.11394
-5.98663
-5.44128
-5.01689
-4.75873
-4.61731
-4.55367
-4.53768
-4.54828
-4.57237
-4.60222
-4.63347
-4.66389
-4.69264
-4.71985
-4.7464
-4.77371
-5.6236
-5.72329
-5.70994
-5.39179
-5.08689
-4.87399
-4.74278
-4.67324
-4.64625
-4.64646
-4.66311
-4.68921
-4.72048
-4.75449
-4.79011
-4.82711
-4.86589
-4.90718
-5.2443
-5.4611
-5.50903
-5.32848
-5.11596
-4.94891
-4.83663
-4.77165
-4.74297
-4.74011
-4.75478
-4.78105
-4.81498
-4.85411
-4.89706
-4.94323
-4.99249
-5.04501
-5.10307
-5.3452
-5.41787
-5.29987
-5.13585
-4.99673
-4.89907
-4.84117
-4.81606
-4.81586
-4.83369
-4.86428
-4.90386
-4.94989
-5.00077
-5.05553
-5.11368
-5.17498
-5.1408
-5.40101
-5.4751
-5.34895
-5.17512
-5.02938
-4.92911
-4.87189
-4.84996
-4.85479
-4.87898
-4.9168
-4.96416
-5.01823
-5.07713
-5.13963
-5.20499
-5.27278
-5.39309
-5.65545
-5.69114
-5.476
-5.22676
-5.03637
-4.91524
-4.85215
-4.83309
-4.84536
-4.879
-4.92683
-4.98397
-5.04717
-5.11433
-5.1841
-5.25572
-5.32871
-6.00248
-6.13728
-6.04303
-5.6355
-5.24749
-4.9877
-4.84115
-4.77619
-4.76666
-4.79303
-4.84159
-4.90344
-4.97298
-5.04681
-5.12287
-5.19995
-5.27741
-5.35504
-7.2501
-6.88992
-6.49458
-5.76225
-5.18345
-4.8533
-4.69667
-4.6465
-4.66042
-4.71093
-4.78117
-4.86122
-4.94554
-5.03111
-5.11637
-5.20059
-5.2835
-5.3652
-9.64161
-7.96499
-6.98299
-5.77226
-4.97991
-4.61249
-4.48225
-4.474
-4.52884
-4.61416
-4.71194
-4.81311
-4.91324
-5.01057
-5.10451
-5.19512
-5.28264
-5.36764
-13.9828
-9.39147
-7.40357
-5.56992
-4.59512
-4.26454
-4.21538
-4.27999
-4.39212
-4.5196
-4.64772
-4.77028
-4.88541
-4.99299
-5.09404
-5.18956
-5.28043
-5.36765
-20.8904
-10.9544
-7.55459
-5.05764
-4.01624
-3.8362
-3.93031
-4.09443
-4.27252
-4.44334
-4.59991
-4.74123
-4.86838
-4.98344
-5.08904
-5.18745
-5.28005
-5.36812
-29.737
-11.9498
-7.03393
-4.12653
-3.26444
-3.37835
-3.67141
-3.94716
-4.18944
-4.39745
-4.57602
-4.73039
-4.86502
-4.98383
-5.09125
-5.19044
-5.28298
-5.37052
-43.1069
-12.6144
-5.47322
-2.72937
-2.41367
-2.96384
-3.48465
-3.86274
-4.15396
-4.38622
-4.57792
-4.73813
-4.87462
-4.99263
-5.09916
-5.19759
-5.2889
-5.37514
-84.5999
-17.3739
-3.66453
-1.26587
-1.69644
-2.72224
-3.43659
-3.87032
-4.17381
-4.41088
-4.6068
-4.76809
-4.89989
-5.00943
-5.11089
-5.20702
-5.2945
-5.378
-177.886
-26.85
-3.68059
-0.77065
-1.53553
-2.84349
-3.6145
-4.01564
-4.27143
-4.46745
-4.65108
-4.81616
-4.95247
-5.053
-5.14114
-5.22682
-5.30496
-5.38319
-154.791
-9.62772
-3.27283
-1.06873
-1.84354
-3.22131
-3.91411
-4.22542
-4.41787
-4.55936
-4.70226
-4.85437
-5.00521
-5.1218
-5.21556
-5.29893
-5.36697
-5.44068
428.057
66.6051
7.05552
1.59897
-0.916042
-2.85736
-3.65339
-3.99509
-4.31068
-4.57728
-4.70785
-4.75509
-4.80097
-4.89955
-5.01548
-5.12389
-5.23729
-5.33257
-8.52623
-8.51339
-8.50268
-8.54398
-8.63703
-8.74081
-8.82085
-8.86097
-8.86469
-8.84704
-8.81959
-8.79095
-8.7692
-8.76029
-8.76522
-8.77784
-8.78907
-8.79418
-8.79327
-8.79075
-8.79466
-8.82708
-8.91699
-9.08786
-9.34056
-9.6581
-10.029
-10.4427
-10.8837
-11.3358
-11.7839
-12.216
-12.6229
-12.9979
-13.3367
-13.6368
-13.8973
-14.1182
-14.3001
-14.444
-14.5513
-14.6232
-14.6612
-14.6666
-14.6407
-14.5848
-14.5007
-14.3905
-14.2556
-14.0938
-13.9024
-13.6828
-13.4376
-13.1686
-12.8771
-12.564
-12.2306
-11.8777
-11.5064
-11.1178
-10.7128
-10.2928
-9.85871
-9.41179
-8.95318
-8.48409
-8.0057
-7.51923
-7.02586
-6.52677
-6.02314
-5.51609
-5.00676
-4.4962
-3.98548
-3.47559
-2.96748
-2.46208
-1.96024
-1.46276
-0.970415
-0.483893
-0.00384633
0.469135
0.934515
1.39181
1.8406
2.28051
2.71121
3.13246
3.54406
3.94582
4.33756
4.71927
5.09119
5.45332
5.80521
6.14645
6.47705
6.79722
7.10722
7.40725
7.69749
7.97812
8.24934
8.51133
8.76432
9.00851
9.24413
9.47139
9.6905
9.90171
10.1053
10.3014
10.4904
10.6725
10.8479
11.0169
11.1796
11.3364
11.4874
11.6329
11.773
11.9081
12.0382
12.1636
12.2845
12.4011
12.5136
12.622
12.7266
12.8277
12.9257
13.0204
13.1118
13.2001
13.2854
13.3679
13.4476
13.5248
13.5995
13.6718
13.7419
13.8097
13.8755
13.9393
14.0011
14.0611
14.1192
14.1757
14.2304
14.2835
14.335
14.385
14.4335
14.4805
14.5261
14.5702
14.613
14.6544
14.6945
14.7333
14.7707
14.8068
14.8417
14.8753
14.9077
14.9389
14.9691
14.9983
15.0266
15.0543
15.0818
15.1094
15.1381
15.1689
15.2043
15.2459
15.3039
15.3643
-8.58364
-8.61488
-8.68883
-8.78245
-8.88599
-8.9783
-9.03967
-9.06417
-9.04722
-8.98685
-8.89709
-8.80018
-8.71839
-8.6669
-8.64467
-8.64135
-8.65082
-8.67627
-8.71159
-8.73171
-8.75586
-8.8333
-8.99226
-9.23133
-9.53783
-9.90849
-10.3341
-10.7941
-11.2671
-11.735
-12.1853
-12.6086
-12.9985
-13.3512
-13.6649
-13.9393
-14.1748
-14.3725
-14.5334
-14.6588
-14.7498
-14.8076
-14.8331
-14.8272
-14.7908
-14.7245
-14.6287
-14.5034
-14.3492
-14.1693
-13.9672
-13.7433
-13.4966
-13.2274
-12.9361
-12.6237
-12.291
-11.9389
-11.5684
-11.1805
-10.7763
-10.3569
-9.9234
-9.477
-9.01885
-8.55011
-8.07201
-7.58574
-7.09248
-6.59344
-6.08975
-5.58258
-5.07303
-4.56219
-4.05109
-3.54075
-3.03212
-2.52612
-2.02361
-1.5254
-1.03226
-0.544875
-0.0639139
0.410031
0.876415
1.33475
1.78458
2.22553
2.65724
3.07941
3.49177
3.89409
4.28615
4.66783
5.03922
5.40054
5.75196
6.09354
6.42512
6.74658
7.05797
7.35941
7.65106
7.93309
8.20568
8.46902
8.72332
8.96879
9.20567
9.43419
9.65457
9.86704
10.0718
10.2692
10.4594
10.6426
10.8191
10.9892
11.153
11.3108
11.4628
11.6093
11.7504
11.8865
12.0177
12.1442
12.2661
12.3838
12.4973
12.6069
12.7126
12.8144
12.9125
13.0072
13.0988
13.1873
13.2729
13.3556
13.4356
13.5131
13.5881
13.6607
13.7311
13.7993
13.8654
13.9294
13.9915
14.0518
14.1102
14.1669
14.2219
14.2753
14.3271
14.3773
14.426
14.4732
14.519
14.5634
14.6063
14.648
14.6882
14.7271
14.7647
14.801
14.836
14.8698
14.9023
14.9337
14.964
14.9933
15.0217
15.0496
15.0771
15.1049
15.1336
15.1643
15.1991
15.2387
15.2924
15.3422
-8.7107
-8.79254
-8.91058
-9.01651
-9.09951
-9.15346
-9.17419
-9.16047
-9.11096
-9.0279
-8.92033
-8.80479
-8.70476
-8.63992
-8.61097
-8.60598
-8.62483
-8.68139
-8.78488
-8.93182
-9.12191
-9.3622
-9.65578
-9.99459
-10.3664
-10.762
-11.1714
-11.5827
-11.9853
-12.372
-12.7381
-13.0797
-13.3942
-13.6799
-13.9358
-14.1614
-14.3564
-14.521
-14.6554
-14.7599
-14.8349
-14.8807
-14.8978
-14.8866
-14.8476
-14.7812
-14.6878
-14.5672
-14.4197
-14.246
-14.0477
-13.8258
-13.5807
-13.3131
-13.0237
-12.7131
-12.3822
-12.0319
-11.6632
-11.277
-10.8743
-10.4564
-10.0242
-9.57898
-9.12186
-8.65402
-8.17666
-7.69099
-7.19819
-6.69946
-6.19594
-5.6888
-5.17915
-4.66808
-4.15663
-3.64582
-3.13661
-2.62992
-2.12663
-1.62754
-1.13343
-0.645003
-0.162924
0.312206
0.779839
1.23948
1.69069
2.13308
2.56631
2.99009
3.40418
3.80838
4.20255
4.58659
4.96048
5.32422
5.67785
6.02138
6.35478
6.67804
6.99124
7.29449
7.58794
7.87176
8.14611
8.4112
8.66722
8.91439
9.15293
9.38308
9.60505
9.81907
10.0254
10.2242
10.4159
10.6005
10.7784
10.9498
11.1149
11.274
11.4273
11.575
11.7173
11.8544
11.9865
12.1138
12.2366
12.355
12.4692
12.5794
12.6857
12.7882
12.8873
12.9831
13.0757
13.1651
13.2516
13.3352
13.4161
13.4943
13.5701
13.6434
13.7144
13.7832
13.8499
13.9145
13.9772
14.0379
14.0969
14.154
14.2095
14.2633
14.3154
14.366
14.4151
14.4627
14.5088
14.5535
14.5968
14.6387
14.6792
14.7184
14.7562
14.7927
14.828
14.8619
14.8947
14.9262
14.9567
14.9861
15.0147
15.0426
15.0701
15.0978
15.1263
15.1564
15.1899
15.2265
15.2739
15.3075
-8.75042
-8.84792
-8.94925
-9.03583
-9.10034
-9.1401
-9.15262
-9.13527
-9.08802
-9.01587
-8.93002
-8.84725
-8.78576
-8.75848
-8.77032
-8.82333
-8.92143
-9.06827
-9.26447
-9.50506
-9.78118
-10.0856
-10.4123
-10.755
-11.1083
-11.4671
-11.8258
-12.1795
-12.5234
-12.8535
-13.1665
-13.4597
-13.7309
-13.9784
-14.2011
-14.398
-14.5685
-14.7121
-14.8288
-14.9184
-14.981
-15.0166
-15.0253
-15.0073
-14.9626
-14.8916
-14.7945
-14.6716
-14.5235
-14.3506
-14.1538
-13.9334
-13.6899
-13.4239
-13.1362
-12.8273
-12.498
-12.1493
-11.7821
-11.3973
-10.996
-10.5792
-10.148
-9.70369
-9.24727
-8.77998
-8.30302
-7.81758
-7.32485
-6.82603
-6.32227
-5.81474
-5.30456
-4.7928
-4.28055
-3.76879
-3.25852
-2.75065
-2.24607
-1.74559
-1.24999
-0.759995
-0.27626
0.200602
0.670036
1.13154
1.58467
2.02903
2.46428
2.89012
3.30633
3.7127
4.10909
4.49542
4.87163
5.23769
5.59358
5.93927
6.27478
6.60012
6.9154
7.22072
7.51623
7.80207
8.07843
8.34549
8.60347
8.85255
9.09297
9.32495
9.54872
9.7645
9.97253
10.1731
10.3664
10.5526
10.7321
10.905
11.0716
11.2321
11.3867
11.5357
11.6792
11.8176
11.9509
12.0794
12.2034
12.3229
12.4382
12.5494
12.6567
12.7603
12.8604
12.9572
13.0508
13.1412
13.2286
13.313
13.3947
13.4737
13.5502
13.6243
13.696
13.7654
13.8327
13.898
13.9612
14.0225
14.082
14.1396
14.1956
14.2498
14.3024
14.3535
14.403
14.4509
14.4974
14.5425
14.5861
14.6283
14.6691
14.7086
14.7467
14.7835
14.819
14.8532
14.8861
14.9178
14.9484
14.9779
15.0065
15.0344
15.0618
15.0891
15.117
15.1459
15.1772
15.2097
15.2491
15.2677
-8.53884
-8.62379
-8.7239
-8.82101
-8.89839
-8.95115
-8.97826
-8.98053
-8.96241
-8.93219
-8.90193
-8.88563
-8.89609
-8.9429
-9.03229
-9.16739
-9.34834
-9.57058
-9.82567
-10.1056
-10.4047
-10.7189
-11.0439
-11.3745
-11.7066
-12.0362
-12.3601
-12.6752
-12.9786
-13.2679
-13.5412
-13.7967
-14.033
-14.2489
-14.4433
-14.6155
-14.7647
-14.8903
-14.9919
-15.0691
-15.1216
-15.1493
-15.1519
-15.1294
-15.0817
-15.0088
-14.9108
-14.7879
-14.6403
-14.4685
-14.2729
-14.0538
-13.8117
-13.5472
-13.2609
-12.9535
-12.6257
-12.2785
-11.9125
-11.529
-11.1287
-10.7129
-10.2826
-9.83892
-9.38304
-8.91616
-8.43945
-7.95411
-7.46133
-6.96231
-6.45822
-5.9502
-5.43939
-4.92688
-4.41374
-3.90098
-3.38958
-2.88048
-2.37455
-1.87263
-1.37549
-0.883862
-0.398414
0.0802405
0.551541
1.01498
1.47011
1.91653
2.3539
2.78192
3.20034
3.60897
4.00766
4.39629
4.7748
5.14315
5.5013
5.84923
6.18697
6.51454
6.83204
7.13957
7.43727
7.7253
8.00381
8.27301
8.53308
8.78424
9.0267
9.26071
9.48645
9.70418
9.91411
10.1165
10.3116
10.4996
10.6808
10.8553
11.0236
11.1856
11.3418
11.4923
11.6374
11.7771
11.9119
12.0418
12.167
12.2878
12.4043
12.5168
12.6253
12.73
12.8312
12.9291
13.0236
13.1149
13.2032
13.2886
13.3711
13.451
13.5282
13.6031
13.6755
13.7457
13.8137
13.8796
13.9434
14.0054
14.0654
14.1236
14.1801
14.2349
14.288
14.3395
14.3895
14.4379
14.4848
14.5303
14.5743
14.6168
14.658
14.6978
14.7362
14.7733
14.809
14.8434
14.8766
14.9084
14.9391
14.9687
14.9973
15.025
15.0521
15.0789
15.1058
15.1331
15.1617
15.1895
15.2211
15.2272
-8.11896
-8.20736
-8.32827
-8.45096
-8.55619
-8.6366
-8.69489
-8.7369
-8.77027
-8.80477
-8.85136
-8.92034
-9.01978
-9.15449
-9.32672
-9.53547
-9.77609
-10.043
-10.3308
-10.6339
-10.9468
-11.2647
-11.5837
-11.9002
-12.2115
-12.5154
-12.81
-13.0938
-13.3653
-13.6231
-13.866
-14.093
-14.3029
-14.4948
-14.6678
-14.821
-14.9536
-15.065
-15.1546
-15.2218
-15.2661
-15.2872
-15.2846
-15.2582
-15.2077
-15.133
-15.0341
-14.9109
-14.7636
-14.5925
-14.3978
-14.1798
-13.939
-13.6759
-13.391
-13.085
-12.7587
-12.4127
-12.0481
-11.6658
-11.2667
-10.8519
-10.4225
-9.97952
-9.52424
-9.0578
-8.5814
-8.09621
-7.60343
-7.10425
-6.59985
-6.09139
-5.57999
-5.06675
-4.55275
-4.03901
-3.5265
-3.01618
-2.50892
-2.00557
-1.50691
-1.01366
-0.526507
-0.0460658
0.427098
0.892474
1.34961
1.79809
2.23759
2.66778
3.08842
3.49932
3.90029
4.29124
4.67206
5.04271
5.40315
5.75336
6.09338
6.42324
6.74302
7.05283
7.35279
7.64307
7.92383
8.19524
8.45751
8.71084
8.95543
9.19151
9.41931
9.63905
9.85096
10.0553
10.2523
10.4422
10.6252
10.8015
10.9715
11.1353
11.2932
11.4453
11.5919
11.7332
11.8695
12.0008
12.1275
12.2497
12.3675
12.4812
12.591
12.697
12.7993
12.8982
12.9938
13.0862
13.1755
13.2618
13.3453
13.4261
13.5042
13.5799
13.6532
13.7241
13.7929
13.8595
13.9241
13.9867
14.0474
14.1062
14.1633
14.2187
14.2723
14.3244
14.3748
14.4237
14.4711
14.517
14.5615
14.6044
14.646
14.6862
14.7249
14.7623
14.7983
14.833
14.8663
14.8983
14.9291
14.9587
14.9872
15.0147
15.0413
15.0674
15.0931
15.1184
15.1439
15.1669
15.1912
15.1866
-7.65372
-7.7524
-7.89444
-8.04321
-8.18112
-8.29971
-8.40253
-8.49892
-8.59825
-8.70948
-8.84021
-8.99537
-9.1777
-9.38767
-9.62358
-9.88332
-10.1639
-10.4608
-10.7685
-11.0821
-11.3973
-11.7105
-12.0191
-12.321
-12.6146
-12.8986
-13.172
-13.4339
-13.6833
-13.9195
-14.1415
-14.3487
-14.5401
-14.7148
-14.8721
-15.0112
-15.1314
-15.2318
-15.3118
-15.3708
-15.4082
-15.4235
-15.4163
-15.3862
-15.3328
-15.256
-15.1557
-15.0316
-14.884
-14.7129
-14.5185
-14.3011
-14.0611
-13.7988
-13.515
-13.2101
-12.8849
-12.5402
-12.1768
-11.7957
-11.3977
-10.984
-10.5556
-10.1136
-9.65917
-9.19348
-8.71769
-8.233
-7.74061
-7.24169
-6.73741
-6.22894
-5.71739
-5.20388
-4.68946
-4.17517
-3.662
-3.15087
-2.64269
-2.13829
-1.63846
-1.14394
-0.65541
-0.173486
0.301257
0.768305
1.2272
1.67752
2.11892
2.5511
2.97379
3.38677
3.78989
4.183
4.56601
4.93887
5.30152
5.65396
5.9962
6.3283
6.65034
6.9624
7.26462
7.55714
7.84012
8.11375
8.37821
8.63371
8.88046
9.11867
9.34856
9.57037
9.78433
9.99067
10.1896
10.3815
10.5664
10.7446
10.9164
11.082
11.2415
11.3954
11.5436
11.6866
11.8244
11.9573
12.0854
12.209
12.3283
12.4433
12.5544
12.6617
12.7653
12.8654
12.9621
13.0556
13.1459
13.2333
13.3178
13.3995
13.4786
13.5552
13.6293
13.7012
13.7707
13.8381
13.9035
13.9668
14.0282
14.0877
14.1455
14.2014
14.2557
14.3083
14.3593
14.4088
14.4567
14.5031
14.548
14.5914
14.6334
14.6739
14.713
14.7507
14.787
14.822
14.8555
14.8877
14.9185
14.9481
14.9764
15.0036
15.0297
15.0548
15.0791
15.1022
15.1244
15.1425
15.1603
15.1464
-7.29762
-7.39113
-7.54315
-7.70885
-7.87564
-8.03654
-8.19103
-8.347
-8.51271
-8.69396
-8.89481
-9.11648
-9.35755
-9.61716
-9.89473
-10.188
-10.4931
-10.8058
-11.1218
-11.4375
-11.7499
-12.0569
-12.3566
-12.6475
-12.9288
-13.1994
-13.4587
-13.7062
-13.9411
-14.1629
-14.3709
-14.5646
-14.7432
-14.906
-15.0522
-15.1811
-15.292
-15.3842
-15.4569
-15.5095
-15.5413
-15.5519
-15.5406
-15.5071
-15.451
-15.372
-15.2698
-15.1445
-14.9959
-14.8241
-14.6293
-14.4117
-14.1717
-13.9096
-13.6261
-13.3216
-12.9969
-12.6528
-12.2901
-11.9097
-11.5125
-11.0996
-10.672
-10.2308
-9.77718
-9.31228
-8.83725
-8.35329
-7.86157
-7.36327
-6.85955
-6.35156
-5.84042
-5.32721
-4.81301
-4.29883
-3.78566
-3.27443
-2.76602
-2.26129
-1.761
-1.26591
-0.776676
-0.29394
0.181732
0.649819
1.10986
1.56144
2.0042
2.43782
2.86205
3.27665
3.68144
4.0763
4.46111
4.8358
5.20033
5.55469
5.89889
6.23298
6.55703
6.87114
7.17542
7.47001
7.75509
8.03081
8.29736
8.55494
8.80376
9.04404
9.27598
9.49982
9.71579
9.92411
10.125
10.3188
10.5056
10.6857
10.8593
11.0267
11.188
11.3435
11.4935
11.6381
11.7775
11.9119
12.0416
12.1667
12.2874
12.4038
12.5163
12.6249
12.7297
12.8311
12.929
13.0236
13.1151
13.2035
13.2891
13.3718
13.4519
13.5294
13.6045
13.6772
13.7476
13.8159
13.882
13.9461
14.0082
14.0685
14.1269
14.1835
14.2384
14.2917
14.3433
14.3933
14.4417
14.4886
14.534
14.5779
14.6203
14.6613
14.7008
14.7388
14.7754
14.8106
14.8444
14.8767
14.9076
14.9371
14.9652
14.992
15.0174
15.0415
15.0642
15.085
15.1038
15.1172
15.1289
15.107
-7.10684
-7.19295
-7.34704
-7.51938
-7.70273
-7.89497
-8.09266
-8.2978
-8.51496
-8.7466
-8.99302
-9.25417
-9.52999
-9.82012
-10.1227
-10.4343
-10.7516
-11.0709
-11.3894
-11.7044
-12.0137
-12.3157
-12.6091
-12.8927
-13.1659
-13.428
-13.6784
-13.9168
-14.1425
-14.3553
-14.5544
-14.7394
-14.9096
-15.0645
-15.2033
-15.3253
-15.4298
-15.516
-15.5834
-15.6312
-15.6588
-15.6656
-15.651
-15.6145
-15.5559
-15.4747
-15.3707
-15.2437
-15.0938
-14.921
-14.7252
-14.5069
-14.2663
-14.0038
-13.72
-13.4154
-13.0907
-12.7466
-12.3841
-12.0039
-11.607
-11.1945
-10.7674
-10.3268
-9.87381
-9.40957
-8.93524
-8.45201
-7.96103
-7.46348
-6.9605
-6.45325
-5.94283
-5.43031
-4.91676
-4.40318
-3.89054
-3.37977
-2.87176
-2.36733
-1.86726
-1.37228
-0.88306
-0.400232
0.0756375
0.544033
1.00449
1.45659
1.89997
2.33432
2.75937
3.1749
3.58072
3.97669
4.36269
4.73865
5.10453
5.4603
5.80598
6.14161
6.46725
6.783
7.08897
7.3853
7.67214
7.94965
8.21802
8.47743
8.7281
8.97022
9.20402
9.42971
9.64753
9.85769
10.0604
10.256
10.4446
10.6265
10.8018
10.9709
11.134
11.2912
11.4428
11.5889
11.7299
11.8659
11.9971
12.1236
12.2458
12.3636
12.4774
12.5873
12.6935
12.7961
12.8952
12.991
13.0836
13.1731
13.2597
13.3435
13.4246
13.5031
13.5791
13.6527
13.724
13.7931
13.8601
13.925
13.9879
14.0488
14.108
14.1653
14.2208
14.2747
14.3269
14.3775
14.4265
14.4739
14.5198
14.5642
14.6071
14.6485
14.6884
14.7268
14.7637
14.7992
14.8331
14.8656
14.8965
14.9259
14.9538
14.9801
15.0048
15.0277
15.0487
15.0671
15.0826
15.0915
15.0977
15.0687
-7.0785
-7.16531
-7.31299
-7.48176
-7.66846
-7.87297
-8.09213
-8.32395
-8.56867
-8.82692
-9.0982
-9.38166
-9.67706
-9.98325
-10.2975
-10.6169
-10.9385
-11.2596
-11.5778
-11.8909
-12.1974
-12.4958
-12.785
-13.0641
-13.3326
-13.5898
-13.8353
-14.0686
-14.2893
-14.497
-14.6911
-14.8712
-15.0366
-15.1868
-15.3211
-15.4388
-15.5392
-15.6217
-15.6855
-15.7299
-15.7544
-15.7583
-15.741
-15.7022
-15.6413
-15.5581
-15.4523
-15.3237
-15.1723
-14.9981
-14.8012
-14.5819
-14.3404
-14.0772
-13.7927
-13.4876
-13.1626
-12.8183
-12.4557
-12.0755
-11.6788
-11.2666
-10.8398
-10.3997
-9.94727
-9.48369
-9.01012
-8.5277
-8.03761
-7.54099
-7.03899
-6.53274
-6.02333
-5.51183
-4.99929
-4.48671
-3.97504
-3.46521
-2.95807
-2.45447
-1.95515
-1.46086
-0.972255
-0.489951
-0.0145085
0.453559
0.913791
1.36578
1.80916
2.24362
2.66889
3.08473
3.49097
3.88745
4.27406
4.65072
5.01737
5.37401
5.72065
6.0573
6.38406
6.70099
7.0082
7.30584
7.59404
7.87296
8.14278
8.40368
8.65587
8.89954
9.13491
9.3622
9.58161
9.79339
9.99775
10.1949
10.3851
10.5686
10.7456
10.9162
11.0809
11.2396
11.3927
11.5404
11.6829
11.8203
11.9529
12.0809
12.2044
12.3236
12.4388
12.5499
12.6573
12.7611
12.8614
12.9584
13.0521
13.1427
13.2304
13.3152
13.3973
13.4768
13.5537
13.6282
13.7004
13.7703
13.8381
13.9038
13.9674
14.0292
14.089
14.147
14.2032
14.2577
14.3106
14.3618
14.4113
14.4593
14.5057
14.5506
14.5939
14.6358
14.6761
14.7149
14.7521
14.7879
14.822
14.8546
14.8855
14.9148
14.9424
14.9682
14.992
15.0137
15.033
15.049
15.0612
15.0659
15.0672
15.0321
-7.189
-7.26736
-7.39831
-7.55419
-7.73281
-7.93387
-8.15465
-8.3926
-8.64605
-8.91368
-9.19386
-9.48544
-9.7875
-10.0981
-10.4147
-10.7347
-11.0558
-11.3755
-11.6917
-12.0026
-12.3067
-12.6028
-12.8897
-13.1667
-13.4331
-13.6883
-13.9319
-14.1633
-14.3821
-14.5879
-14.7801
-14.9581
-15.1215
-15.2696
-15.4017
-15.5173
-15.6155
-15.6958
-15.7574
-15.7997
-15.822
-15.8239
-15.8046
-15.7639
-15.7011
-15.6162
-15.5087
-15.3785
-15.2256
-15.0501
-14.852
-14.6315
-14.3891
-14.125
-13.8399
-13.5342
-13.2088
-12.8643
-12.5015
-12.1215
-11.725
-11.3131
-10.8869
-10.4475
-9.99584
-9.53318
-9.06064
-8.57936
-8.0905
-7.59519
-7.09457
-6.58974
-6.0818
-5.57181
-5.06078
-4.54972
-4.03955
-3.53119
-3.02548
-2.52325
-2.02526
-1.5322
-1.04474
-0.563503
-0.0890307
0.378165
0.837629
1.28895
1.73178
2.16579
2.59072
3.00633
3.41245
3.80892
4.19562
4.57247
4.93942
5.29646
5.64358
5.98082
6.30825
6.62593
6.93399
7.23254
7.52172
7.8017
8.07262
8.33469
8.58809
8.83301
9.06967
9.29828
9.51904
9.73219
9.93794
10.1365
10.3281
10.513
10.6914
10.8635
11.0296
11.1897
11.3442
11.4933
11.6372
11.776
11.9099
12.0392
12.164
12.2845
12.4009
12.5133
12.6219
12.7268
12.8282
12.9263
13.0211
13.1128
13.2015
13.2873
13.3703
13.4508
13.5286
13.604
13.677
13.7478
13.8164
13.8829
13.9473
14.0097
14.0703
14.129
14.1859
14.241
14.2945
14.3463
14.3964
14.4449
14.4919
14.5373
14.5811
14.6234
14.6641
14.7033
14.7409
14.7768
14.8112
14.8439
14.8748
14.904
14.9312
14.9565
14.9794
14.9999
15.0174
15.031
15.0401
15.0408
15.0376
14.9973
-7.36527
-7.42985
-7.54076
-7.67919
-7.84299
-8.0317
-8.24297
-8.47412
-8.72272
-8.98642
-9.263
-9.5513
-9.85009
-10.1572
-10.4701
-10.7865
-11.104
-11.4205
-11.734
-12.0428
-12.3454
-12.6404
-12.9268
-13.2036
-13.4702
-13.7258
-13.9699
-14.202
-14.4214
-14.6276
-14.8202
-14.9985
-15.1619
-15.3098
-15.4416
-15.5566
-15.6541
-15.7334
-15.794
-15.8351
-15.8561
-15.8565
-15.8358
-15.7935
-15.7293
-15.6428
-15.5338
-15.4023
-15.2481
-15.0713
-14.872
-14.6506
-14.4073
-14.1425
-13.8568
-13.5509
-13.2252
-12.8808
-12.5182
-12.1386
-11.7427
-11.3316
-10.9064
-10.4681
-10.0177
-9.55652
-9.08556
-8.60599
-8.11894
-7.62555
-7.12691
-6.62413
-6.11828
-5.6104
-5.1015
-4.59256
-4.08451
-3.57824
-3.07458
-2.57434
-2.07826
-1.58706
-1.10137
-0.621793
-0.148889
0.316848
0.774967
1.22506
1.66678
2.09981
2.52388
2.93876
3.34426
3.74023
4.12655
4.50315
4.86996
5.22697
5.57417
5.91161
6.23933
6.55741
6.86596
7.16508
7.45493
7.73564
8.00737
8.27032
8.52465
8.77057
9.00827
9.23796
9.45986
9.67417
9.88111
10.0809
10.2738
10.4599
10.6396
10.8129
10.9802
11.1417
11.2975
11.4478
11.593
11.733
11.8682
11.9987
12.1247
12.2464
12.364
12.4775
12.5873
12.6933
12.7958
12.8949
12.9908
13.0835
13.1732
13.26
13.344
13.4253
13.504
13.5803
13.6542
13.7258
13.7951
13.8624
13.9276
13.9908
14.052
14.1114
14.169
14.2247
14.2788
14.3312
14.3819
14.431
14.4785
14.5244
14.5687
14.6114
14.6526
14.6921
14.73
14.7663
14.8008
14.8336
14.8646
14.8936
14.9205
14.9451
14.9672
14.9864
15.0022
15.0135
15.0196
15.0167
15.0094
14.9646
-7.53907
-7.59056
-7.68313
-7.8037
-7.95031
-8.12242
-8.31797
-8.5346
-8.76983
-9.02113
-9.28646
-9.5647
-9.85447
-10.1535
-10.4595
-10.7699
-11.0826
-11.3954
-11.7063
-12.0135
-12.3154
-12.6107
-12.8982
-13.1767
-13.4454
-13.7034
-13.9501
-14.1847
-14.4066
-14.6153
-14.81
-14.9902
-15.1552
-15.3044
-15.4371
-15.5527
-15.6505
-15.7298
-15.7901
-15.8306
-15.8509
-15.8504
-15.8287
-15.7853
-15.7199
-15.6322
-15.522
-15.3893
-15.2341
-15.0563
-14.8562
-14.6341
-14.3903
-14.1252
-13.8395
-13.5336
-13.2083
-12.8644
-12.5026
-12.124
-11.7293
-11.3197
-10.8961
-10.4595
-10.0112
-9.55218
-9.08355
-8.60644
-8.12197
-7.63125
-7.13538
-6.63542
-6.13245
-5.62747
-5.12148
-4.61543
-4.11025
-3.60682
-3.10595
-2.60842
-2.11497
-1.6263
-1.14304
-0.665793
-0.195089
0.268575
0.724754
1.17305
1.6131
2.04461
2.46729
2.88093
3.28534
3.68035
4.06586
4.44177
4.80804
5.16462
5.51154
5.8488
6.17647
6.49462
6.80334
7.10275
7.39296
7.67414
7.94643
8.21
8.46504
8.71173
8.95026
9.18084
9.40367
9.61896
9.82693
10.0278
10.2217
10.409
10.5898
10.7643
10.9328
11.0954
11.2524
11.4039
11.5502
11.6914
11.8278
11.9594
12.0866
12.2094
12.3281
12.4427
12.5536
12.6607
12.7642
12.8644
12.9612
13.0549
13.1455
13.2333
13.3182
13.4004
13.48
13.5571
13.6318
13.7042
13.7744
13.8424
13.9083
13.9722
14.0342
14.0943
14.1525
14.2089
14.2636
14.3166
14.3679
14.4175
14.4656
14.512
14.5568
14.6
14.6415
14.6814
14.7197
14.7562
14.791
14.8239
14.8549
14.8837
14.9103
14.9344
14.9556
14.9735
14.9876
14.9967
15
14.9938
14.9828
14.9343
-7.66587
-7.70803
-7.78521
-7.88915
-8.01836
-8.17239
-8.34952
-8.54777
-8.76513
-8.99942
-9.24923
-9.51386
-9.79185
-10.0809
-10.3787
-10.6826
-10.9905
-11.3
-11.6091
-11.9158
-12.2186
-12.5157
-12.8058
-13.0876
-13.3601
-13.6223
-13.8731
-14.1119
-14.3378
-14.5502
-14.7483
-14.9316
-15.0992
-15.2505
-15.385
-15.5018
-15.6005
-15.6804
-15.7408
-15.7812
-15.8012
-15.8001
-15.7777
-15.7335
-15.6672
-15.5786
-15.4676
-15.3341
-15.1782
-14.9999
-14.7995
-14.5772
-14.3335
-14.0687
-13.7835
-13.4784
-13.1542
-12.8116
-12.4514
-12.0746
-11.6821
-11.2748
-10.8537
-10.42
-9.97464
-9.51875
-9.05342
-8.57975
-8.09884
-7.61177
-7.11962
-6.62345
-6.12428
-5.62313
-5.12095
-4.61869
-4.11724
-3.61747
-3.1202
-2.62619
-2.13614
-1.65075
-1.17064
-0.696401
-0.228563
0.232387
0.68601
1.13191
1.56973
1.99917
2.41996
2.83186
3.23469
3.6283
4.01256
4.38738
4.7527
5.1085
5.45477
5.79154
6.11884
6.43675
6.74536
7.04477
7.33511
7.61651
7.88912
8.1531
8.40864
8.6559
8.89509
9.12638
9.34999
9.56611
9.77495
9.97673
10.1716
10.3599
10.5417
10.7173
10.8868
11.0505
11.2086
11.3612
11.5086
11.6509
11.7884
11.9211
12.0494
12.1733
12.293
12.4088
12.5206
12.6288
12.7333
12.8344
12.9323
13.0269
13.1185
13.2071
13.2929
13.376
13.4565
13.5345
13.61
13.6832
13.7541
13.8229
13.8895
13.9542
14.0168
14.0776
14.1364
14.1935
14.2488
14.3024
14.3543
14.4045
14.4531
14.5
14.5453
14.589
14.631
14.6713
14.7099
14.7468
14.7818
14.8148
14.8457
14.8745
14.9007
14.9242
14.9446
14.9614
14.9738
14.9809
14.9816
14.9724
14.9581
14.9064
-7.72138
-7.75961
-7.82519
-7.91417
-8.02636
-8.16173
-8.31924
-8.49757
-8.69514
-8.91044
-9.14293
-9.39255
-9.65793
-9.93671
-10.2263
-10.5242
-10.828
-11.1352
-11.4438
-11.7515
-12.0564
-12.3568
-12.6509
-12.9375
-13.215
-13.4824
-13.7386
-13.9826
-14.2135
-14.4304
-14.6327
-14.8195
-14.9903
-15.1442
-15.2808
-15.3993
-15.4991
-15.5797
-15.6406
-15.6812
-15.701
-15.6997
-15.6768
-15.6321
-15.5653
-15.4763
-15.3649
-15.2312
-15.0752
-14.8971
-14.6971
-14.4754
-14.2326
-13.969
-13.6853
-13.382
-13.0599
-12.7197
-12.3622
-11.9884
-11.5991
-11.1953
-10.7779
-10.3482
-9.90695
-9.45538
-8.99452
-8.52544
-8.04922
-7.56693
-7.07962
-6.5883
-6.094
-5.5977
-5.10034
-4.60284
-4.10607
-3.61088
-3.11807
-2.62841
-2.14259
-1.66126
-1.18506
-0.714548
-0.250264
0.207316
0.657756
1.10066
1.53568
1.96251
2.38088
2.79056
3.19136
3.58312
3.96571
4.33905
4.70307
5.05773
5.40302
5.73897
6.06562
6.38302
6.69126
6.99043
7.28065
7.56206
7.83479
8.099
8.35485
8.60253
8.8422
9.07407
9.29832
9.51514
9.72474
9.92732
10.1231
10.3122
10.495
10.6715
10.842
11.0067
11.1658
11.3195
11.4679
11.6113
11.7498
11.8836
12.013
12.1379
12.2587
12.3754
12.4883
12.5974
12.703
12.8051
12.9039
12.9994
13.0919
13.1815
13.2682
13.3521
13.4335
13.5123
13.5886
13.6626
13.7343
13.8038
13.8712
13.9365
13.9999
14.0613
14.1208
14.1786
14.2345
14.2887
14.3412
14.392
14.4411
14.4886
14.5344
14.5785
14.621
14.6618
14.7007
14.7379
14.7731
14.8063
14.8373
14.8659
14.8919
14.9149
14.9345
14.9501
14.9611
14.9662
14.9646
14.9526
14.9353
14.881
-7.70707
-7.74175
-7.79856
-7.87369
-7.96868
-8.08435
-8.22072
-8.37742
-8.55367
-8.74878
-8.96318
-9.19736
-9.45014
-9.71904
-10.0014
-10.2944
-10.5955
-10.9021
-11.2118
-11.522
-11.8307
-12.1357
-12.4352
-12.7275
-13.0111
-13.2845
-13.5466
-13.7962
-14.0323
-14.254
-14.4606
-14.6511
-14.825
-14.9815
-15.1201
-15.2402
-15.3412
-15.4226
-15.484
-15.5248
-15.5448
-15.5434
-15.5205
-15.4758
-15.4091
-15.3203
-15.2093
-15.0761
-14.9209
-14.7438
-14.5451
-14.3252
-14.0844
-13.8231
-13.5421
-13.2419
-12.9231
-12.5866
-12.2332
-11.8637
-11.479
-11.0801
-10.6679
-10.2434
-9.80771
-9.3618
-8.90672
-8.44354
-7.9733
-7.49703
-7.01576
-6.53048
-6.0422
-5.55185
-5.06038
-4.56867
-4.07758
-3.58794
-3.10052
-2.61607
-2.13531
-1.65887
-1.18734
-0.721291
-0.261248
0.192307
0.638941
1.07826
1.50992
1.93361
2.34907
2.75605
3.15437
3.54386
3.92439
4.29587
4.65823
5.01143
5.35545
5.69031
6.01603
6.33267
6.6403
6.93902
7.22892
7.51014
7.78282
8.04708
8.3031
8.55105
8.79108
9.0234
9.24817
9.46559
9.67586
9.87916
10.0757
10.2657
10.4493
10.6267
10.7981
10.9638
11.1239
11.2785
11.4279
11.5723
11.7119
11.8467
11.9771
12.103
12.2248
12.3426
12.4564
12.5665
12.6731
12.7761
12.8758
12.9723
13.0658
13.1562
13.2438
13.3286
13.4108
13.4904
13.5675
13.6423
13.7148
13.785
13.8532
13.9192
13.9833
14.0454
14.1056
14.164
14.2206
14.2754
14.3285
14.3799
14.4296
14.4776
14.5239
14.5686
14.6115
14.6527
14.6921
14.7296
14.7651
14.7984
14.8295
14.858
14.8838
14.9063
14.9252
14.9399
14.9494
14.9528
14.949
14.9347
14.9147
14.8582
-7.64345
-7.66918
-7.71531
-7.77392
-7.84865
-7.9415
-8.05369
-8.18611
-8.33899
-8.51261
-8.70835
-8.92725
-9.16813
-9.42831
-9.70481
-9.99465
-10.2949
-10.6025
-10.9148
-11.229
-11.5427
-11.8534
-12.159
-12.4576
-12.7475
-13.027
-13.295
-13.55
-13.7911
-14.0172
-14.2276
-14.4215
-14.5982
-14.757
-14.8974
-15.0189
-15.121
-15.2033
-15.2654
-15.3068
-15.3272