/*--------------------------------*- C++ -*----------------------------------*\
  =========                 |
  \\      /  F ield         | OpenFOAM: The Open Source CFD Toolbox
   \\    /   O peration     | Website:  https://openfoam.org
    \\  /    A nd           | Version:  8
     \\/     M anipulation  |
\*---------------------------------------------------------------------------*/
FoamFile
{
    version     2.0;
    format      ascii;
    class       volScalarField;
    location    "3400";
    object      nut;
}
// * * * * * * * * * * * * * * * * * * * * * * * * * * * * * * * * * * * * * //

dimensions      [0 2 -1 0 0 0 0];

internalField   nonuniform List<scalar> 
12225
(
0.0122671
0.00158819
0.000666129
0.000410105
0.000294025
0.00022806
0.000183261
0.000170805
0.000132697
0.000106844
9.46734e-05
8.80084e-05
7.89854e-05
7.22328e-05
6.77315e-05
6.45065e-05
6.12101e-05
6.46328e-05
0.0323823
0.00744532
0.00330638
0.00204329
0.00146801
0.0011445
0.000936337
0.000799975
0.00067951
0.000577234
0.000506286
0.000452432
0.000410539
0.000378806
0.000350181
0.000327766
0.000311171
0.000292815
0.0490123
0.01515
0.00728196
0.00457854
0.00330639
0.00258054
0.00211233
0.00178913
0.00154181
0.00134762
0.00119772
0.0010787
0.000982055
0.00090248
0.000835977
0.000780907
0.000735544
0.000687166
0.063054
0.0237783
0.0122894
0.00788814
0.00573397
0.00448498
0.00367412
0.00310732
0.00268471
0.00235805
0.00210111
0.00189458
0.0017253
0.0015845
0.00146613
0.00136604
0.00128146
0.00119789
0.074932
0.0328517
0.0181452
0.0119262
0.00874548
0.00686412
0.0056308
0.00476254
0.00411748
0.00362029
0.00322731
0.00290992
0.00264899
0.00243143
0.00224799
0.00209187
0.00195825
0.00183626
0.0849536
0.0420208
0.0246655
0.0166359
0.0123325
0.00972587
0.00799539
0.00676784
0.00585345
0.00514769
0.00458844
0.00413587
0.00376334
0.00345239
0.00318982
0.00296595
0.00277359
0.00260471
0.0933822
0.0510219
0.0316642
0.0219415
0.016474
0.0130717
0.0107778
0.00913551
0.0079057
0.0069534
0.00619689
0.00558366
0.00507837
0.00465632
0.00429975
0.0039956
0.00373414
0.00350818
0.0993794
0.0583363
0.0378386
0.0268568
0.0204171
0.0163053
0.0134891
0.011453
0.00991891
0.00872628
0.00777635
0.00700497
0.00636866
0.00583684
0.00538739
0.00500397
0.00467451
0.00439126
0.104023
0.0645454
0.0433804
0.0314239
0.0241571
0.0194092
0.0161097
0.0137018
0.0118766
0.0104521
0.00931443
0.00838904
0.00762485
0.00698574
0.00644544
0.00598449
0.00558857
0.00524876
0.108368
0.0708939
0.0493756
0.0365496
0.0284517
0.0230231
0.0191863
0.0163547
0.0141926
0.0124968
0.011138
0.0100303
0.00911433
0.00834759
0.00769909
0.00714578
0.00667067
0.00626297
0.112368
0.0772557
0.0557282
0.0421918
0.0332976
0.0271652
0.0227467
0.0194432
0.0168984
0.0148903
0.0132749
0.0119544
0.0108605
0.00994378
0.00916796
0.00850585
0.00793735
0.00744914
0.115994
0.0834975
0.0623053
0.0482611
0.0386474
0.0318167
0.026789
0.0229739
0.0200046
0.0176452
0.0157378
0.0141736
0.0128749
0.011785
0.0108618
0.0100736
0.0093967
0.00881463
0.119234
0.0894856
0.0689377
0.0546109
0.0443919
0.0369007
0.0312597
0.0269088
0.0234836
0.02074
0.0185096
0.0166735
0.0151449
0.01386
0.0127704
0.0118396
0.0110397
0.0103508
0.122086
0.095084
0.075415
0.0610223
0.0503361
0.0422534
0.0360231
0.0311353
0.0272402
0.024093
0.021519
0.0193908
0.017614
0.0161174
0.0148466
0.01376
0.0128257
0.0120196
0.124546
0.100135
0.0814619
0.0671725
0.056158
0.047577
0.0408126
0.0354174
0.031066
0.0275196
0.0246012
0.0221777
0.0201481
0.0184349
0.0169782
0.0157314
0.0146583
0.0137311
0.126578
0.104396
0.0866605
0.0725515
0.0613228
0.0523526
0.0451453
0.0393148
0.0345631
0.0306611
0.0274325
0.0247409
0.0224806
0.020569
0.0189413
0.0175468
0.0163454
0.0153061
0.128011
0.107322
0.0902141
0.0762353
0.0648743
0.0556509
0.0481493
0.0420254
0.0370012
0.0328553
0.0294126
0.0265352
0.0241143
0.0220643
0.0203172
0.0188191
0.0175275
0.0164083
0.128006
0.107313
0.0902048
0.0762269
0.0648674
0.0556454
0.048145
0.0420222
0.0369988
0.0328537
0.0294117
0.0265349
0.0241147
0.0220652
0.0203185
0.0188206
0.0175287
0.0164083
0.126509
0.104255
0.0864922
0.0723807
0.0611613
0.052205
0.0450128
0.0391967
0.0344585
0.0305686
0.0273506
0.0246684
0.0224163
0.0205118
0.0188903
0.0175006
0.0163024
0.0152631
0.124267
0.0995604
0.0807712
0.0664676
0.0554886
0.0469631
0.0402594
0.0349228
0.0306248
0.0271258
0.0242488
0.0218611
0.0198626
0.0181762
0.0167426
0.0155152
0.0144575
0.0135405
0.12136
0.0936399
0.0737261
0.0593348
0.0487592
0.0408249
0.0347467
0.0300003
0.0262308
0.0231928
0.0207127
0.018665
0.0169572
0.0155198
0.0142999
0.0132567
0.0123583
0.0115798
0.117686
0.0865903
0.0656967
0.0514791
0.0415374
0.0343608
0.0290184
0.0249322
0.0217348
0.0191848
0.0171184
0.0154211
0.0140106
0.0128263
0.0118229
0.0109657
0.010228
0.00958895
0.11305
0.0784122
0.056921
0.0432687
0.0342296
0.0279652
0.0234365
0.0200435
0.0174263
0.0153597
0.0136966
0.0123369
0.0112106
0.0102671
0.00946866
0.0087872
0.00820102
0.00769347
0.107169
0.0691009
0.0476372
0.035029
0.0271566
0.021922
0.0182437
0.0155401
0.0134817
0.0118706
0.0105816
0.00953197
0.00866487
0.00793966
0.00732668
0.0068038
0.00635413
0.00596495
0.0996761
0.0587036
0.0381279
0.0270699
0.0205782
0.0164329
0.0135949
0.0115438
0.00999922
0.00879908
0.0078434
0.00706756
0.00642789
0.00589361
0.00544222
0.00505742
0.00472639
0.00444012
0.0901097
0.0473665
0.0287363
0.0196847
0.0146976
0.0116312
0.00957853
0.00811528
0.00702331
0.00617994
0.00551056
0.00496794
0.00452108
0.00414827
0.00383301
0.00356478
0.00333348
0.00313389
0.0779076
0.0353826
0.0198606
0.0131383
0.00966107
0.00759298
0.00623352
0.00527429
0.00456399
0.00401883
0.00358695
0.00323613
0.00294703
0.00270632
0.0025014
0.00232866
0.002178
0.00204891
0.06238
0.0232554
0.0119461
0.00765493
0.00556337
0.00435256
0.00356724
0.00301639
0.00261307
0.00230794
0.00206654
0.00186724
0.00170186
0.00156512
0.00144528
0.00134732
0.00125904
0.00118357
0.0426105
0.0117794
0.0054693
0.00341385
0.00246071
0.00192005
0.00157275
0.00132885
0.00115942
0.00103848
0.000943992
0.000857726
0.000784225
0.00072244
0.000665074
0.000614653
0.000576638
0.000532257
0.0168348
0.00255985
0.00110002
0.000683428
0.000493724
0.000386804
0.000318219
0.00026631
0.0002726
0.000321989
0.000354562
0.000337109
0.000302763
0.000262792
0.000239283
0.00020374
0.000209019
0.000147028
3.99331e-09
5.91177e-07
2.00093e-06
6.28951e-06
1.08028e-05
1.3532e-05
1.32571e-05
1.17919e-05
9.06389e-06
5.94789e-06
3.52393e-06
2.02494e-06
1.40991e-06
1.50291e-06
2.06708e-06
2.56598e-06
2.45442e-06
2.06912e-06
2.54302e-06
8.67718e-06
9.0255e-06
5.5548e-06
6.75316e-06
2.65178e-05
5.67548e-05
7.44286e-05
9.09817e-05
0.00010483
0.00011705
0.000127211
0.000136114
0.000143761
0.000150452
0.000156278
0.00016136
0.000165846
0.000169821
0.000173371
0.000176554
0.000179412
0.000181977
0.000184271
0.000186311
0.000188114
0.000189694
0.000191065
0.000192237
0.000193217
0.000194006
0.000194478
0.000194976
0.000195085
0.000195147
0.000195022
0.000194723
0.000194277
0.000193678
0.000192931
0.000192037
0.000190999
0.000189818
0.000188496
0.000187036
0.00018544
0.000183712
0.000181852
0.000179861
0.000177743
0.000175499
0.000173133
0.000170645
0.000168037
0.000165312
0.00016247
0.000159512
0.000156441
0.000153256
0.000149959
0.00014655
0.000143028
0.000139391
0.000135636
0.000131759
0.000127751
0.000123606
0.000119311
0.000114856
0.000110223
0.000105393
0.000100341
9.50411e-05
8.94659e-05
8.36095e-05
7.75384e-05
7.1528e-05
6.62469e-05
6.24894e-05
6.01486e-05
5.83963e-05
5.67905e-05
5.52142e-05
5.36458e-05
5.20836e-05
5.05292e-05
4.89845e-05
4.74515e-05
4.5933e-05
4.4435e-05
4.29858e-05
4.17491e-05
4.0545e-05
3.93552e-05
3.81826e-05
3.7028e-05
3.58921e-05
3.47759e-05
3.36799e-05
3.26051e-05
3.15519e-05
3.05209e-05
2.95123e-05
2.85268e-05
2.75648e-05
2.66268e-05
2.57128e-05
2.48228e-05
2.39579e-05
2.31459e-05
2.24116e-05
2.1696e-05
2.09953e-05
2.0318e-05
1.96686e-05
1.90336e-05
1.84126e-05
1.78087e-05
1.72228e-05
1.66551e-05
1.61055e-05
1.55735e-05
1.50588e-05
1.45609e-05
1.40794e-05
1.36138e-05
1.31638e-05
1.2729e-05
1.23089e-05
1.19032e-05
1.15115e-05
1.11334e-05
1.07685e-05
1.04166e-05
1.00772e-05
9.75002e-06
9.43479e-06
9.13119e-06
8.83895e-06
8.55782e-06
8.28757e-06
8.02799e-06
7.77889e-06
7.5401e-06
7.31143e-06
7.0927e-06
6.88372e-06
6.68423e-06
6.4939e-06
6.3123e-06
6.13891e-06
5.97295e-06
5.81363e-06
5.65936e-06
5.50972e-06
5.35973e-06
5.21398e-06
5.04794e-06
4.89395e-06
4.64758e-06
4.48941e-06
3.59434e-06
1.68171e-07
6.14236e-06
6.38828e-05
0.000139687
0.000183242
0.000207007
0.00021638
0.000214887
0.000206541
0.000189837
0.000169044
0.000148909
0.000138495
0.00014371
0.00015768
0.000166603
0.000169022
0.000170207
0.000175611
0.000185314
0.00020007
0.000217509
0.000234343
0.000250844
0.000262145
0.000272048
0.000280864
0.00029371
0.000312806
0.000326752
0.000339495
0.00035042
0.000360349
0.000369447
0.000377348
0.000384561
0.000391275
0.000397717
0.000404017
0.00041024
0.000416383
0.000422401
0.000428243
0.000433868
0.000439247
0.000444364
0.000449204
0.000453755
0.000458017
0.000461991
0.000465716
0.000469158
0.000472356
0.000475297
0.000477989
0.00048043
0.000482624
0.000484569
0.000486267
0.000487717
0.000488922
0.00048988
0.000490596
0.000491073
0.000491321
0.000491346
0.000491142
0.000490705
0.000490052
0.000489185
0.000488113
0.00048684
0.000485373
0.00048372
0.000481887
0.000479881
0.00047771
0.000475382
0.000472905
0.000470286
0.000467533
0.000464655
0.00046166
0.000458554
0.000455347
0.000452046
0.00044866
0.000445195
0.000441661
0.000438065
0.000434413
0.000430711
0.000426959
0.000423149
0.000419262
0.000415272
0.000411163
0.000406962
0.000402721
0.000398464
0.000394199
0.00038993
0.00038566
0.000381392
0.000377131
0.000372878
0.000368639
0.000364413
0.000360203
0.000356004
0.000351828
0.00034768
0.000343561
0.000339473
0.000335418
0.000331397
0.000327413
0.000323466
0.000319559
0.000315691
0.000311864
0.000308079
0.000304336
0.000300638
0.000296985
0.000293377
0.000289813
0.000286292
0.000282812
0.000279378
0.000275987
0.000272647
0.00026936
0.00026611
0.000262896
0.000259723
0.000256593
0.000253509
0.00025047
0.000247476
0.000244526
0.00024162
0.000238756
0.000235935
0.000233155
0.000230417
0.00022772
0.000225063
0.000222445
0.000219867
0.000217328
0.000214828
0.000212366
0.000209943
0.000207559
0.000205214
0.000202908
0.000200641
0.000198416
0.000196232
0.000194092
0.000191996
0.000189946
0.000187945
0.000185994
0.000184094
0.000182247
0.000180453
0.000178712
0.000177021
0.000175375
0.000173776
0.000172198
0.000170683
0.000169073
0.00016775
0.000165618
0.000164902
0.000162096
0.000160722
7.68611e-07
4.4542e-05
0.00016429
0.000246525
0.000299859
0.000330181
0.000341218
0.000338349
0.000325516
0.000306242
0.000286466
0.000273744
0.000271484
0.000278165
0.000288523
0.000299353
0.000312117
0.000329072
0.000350673
0.000375836
0.000403226
0.000431582
0.000469799
0.000516186
0.000561841
0.000605998
0.000649101
0.000692775
0.000732114
0.000763405
0.000788413
0.000808238
0.000823953
0.000836422
0.000846427
0.000854744
0.000862073
0.00086906
0.000876241
0.000883972
0.000892361
0.000901284
0.000910502
0.000919779
0.000928937
0.000937856
0.000946461
0.000954703
0.000962545
0.00096996
0.000976926
0.000983412
0.000989417
0.000994932
0.000999957
0.00100449
0.00100853
0.00101208
0.00101513
0.0010177
0.00101977
0.00102134
0.00102243
0.00102297
0.00102313
0.00102284
0.00102205
0.00102081
0.00101912
0.001017
0.00101446
0.00101152
0.00100818
0.00100447
0.00100038
0.000995952
0.000991185
0.000986097
0.000980702
0.000975017
0.000969057
0.000962836
0.00095637
0.000949674
0.000942763
0.000935652
0.000928355
0.000920887
0.000913262
0.000905492
0.000897589
0.000889566
0.00088143
0.000873191
0.000864856
0.000856435
0.000847942
0.00083939
0.000830798
0.000822177
0.00081354
0.000804895
0.000796249
0.000787611
0.000778987
0.000770385
0.000761811
0.000753271
0.00074477
0.000736315
0.000727911
0.000719563
0.000711275
0.000703052
0.000694898
0.000686816
0.000678808
0.000670878
0.000663029
0.000655263
0.000647581
0.000639985
0.000632479
0.000625062
0.000617738
0.000610505
0.000603365
0.000596317
0.000589363
0.000582504
0.000575739
0.000569069
0.000562493
0.000556004
0.000549601
0.000543287
0.000537065
0.000530933
0.000524894
0.000518945
0.000513086
0.000507317
0.000501636
0.000496041
0.000490533
0.000485109
0.000479769
0.000474512
0.000469335
0.000464239
0.000459222
0.000454283
0.000449421
0.000444635
0.000439923
0.000435285
0.000430719
0.000426225
0.000421801
0.000417445
0.000413157
0.000408935
0.000404777
0.00040068
0.000396643
0.000392661
0.000388731
0.000384848
0.000381005
0.000377192
0.000373399
0.000369611
0.000365802
0.000361955
0.000357996
0.000353955
0.000349473
0.00034508
0.000338589
0.000327131
5.07094e-07
8.1291e-05
0.000212974
0.000309208
0.000372992
0.000410403
0.000425977
0.000426366
0.000416354
0.00040295
0.000394794
0.000393958
0.000403186
0.000420399
0.000443155
0.000470911
0.000504265
0.000543577
0.000588035
0.000650276
0.000724142
0.000803935
0.000888197
0.000958858
0.00102129
0.00107741
0.00112783
0.00117273
0.001212
0.00124588
0.00127512
0.00130046
0.00132258
0.00134212
0.00135965
0.00137568
0.0013906
0.00140477
0.00141843
0.00143178
0.00144495
0.001458
0.00147096
0.00148382
0.00149651
0.00150897
0.0015211
0.00153281
0.001544
0.0015546
0.00156455
0.00157383
0.0015824
0.00159026
0.0015974
0.00160381
0.00160948
0.00161442
0.00161862
0.00162208
0.0016248
0.00162678
0.00162794
0.00162838
0.00162825
0.00162734
0.00162571
0.00162339
0.00162039
0.00161674
0.00161244
0.00160752
0.001602
0.0015959
0.00158924
0.00158204
0.00157434
0.00156614
0.00155747
0.00154837
0.00153883
0.00152891
0.0015186
0.00150795
0.00149696
0.00148567
0.0014741
0.00146226
0.00145018
0.00143788
0.00142538
0.0014127
0.00139985
0.00138685
0.00137372
0.00136046
0.00134711
0.00133368
0.00132019
0.00130666
0.0012931
0.00127952
0.00126595
0.00125239
0.00123885
0.00122535
0.00121189
0.00119849
0.00118515
0.00117188
0.00115869
0.00114559
0.00113258
0.00111968
0.00110688
0.00109419
0.00108162
0.00106917
0.00105684
0.00104464
0.00103258
0.00102065
0.00100885
0.000997199
0.000985686
0.000974315
0.000963089
0.000952006
0.000941069
0.000930278
0.000919634
0.000909136
0.000898781
0.000888565
0.000878488
0.00086855
0.000858753
0.000849097
0.000839582
0.000830208
0.000820972
0.000811874
0.000802912
0.000794085
0.00078539
0.000776827
0.000768393
0.000760086
0.000751905
0.000743848
0.000735913
0.000728099
0.000720403
0.000712824
0.00070536
0.000698009
0.000690769
0.000683638
0.000676614
0.000669695
0.000662879
0.000656162
0.000649543
0.000643017
0.00063658
0.000630227
0.000623953
0.00061775
0.000611608
0.000605515
0.000599454
0.000593404
0.000587337
0.000581213
0.00057497
0.000568551
0.000561774
0.000554582
0.000546339
0.000530149
1.49351e-06
0.000102061
0.000235128
0.000355065
0.000433981
0.000481488
0.000505125
0.000513594
0.000515168
0.000516157
0.000523037
0.000539201
0.00056526
0.000600248
0.000643377
0.000694664
0.000754751
0.000838174
0.000933849
0.00103007
0.00111908
0.00120347
0.00128282
0.00135552
0.00142228
0.00148369
0.00154015
0.00159201
0.00163961
0.00168337
0.0017238
0.00176137
0.00179651
0.00182959
0.00186092
0.00189076
0.00191931
0.0019467
0.00197302
0.00199835
0.00202271
0.00204612
0.00206857
0.00209003
0.0021105
0.00212993
0.0021483
0.00216558
0.00218174
0.00219676
0.00221063
0.00222336
0.00223495
0.00224542
0.00225479
0.00226308
0.00227029
0.00227646
0.00228158
0.00228569
0.00228878
0.00229083
0.00229175
0.00229184
0.00229096
0.00228908
0.00228625
0.00228248
0.00227779
0.00227221
0.00226576
0.00225847
0.00225038
0.0022415
0.00223186
0.00222151
0.00221047
0.00219876
0.00218643
0.0021735
0.00216
0.00214597
0.00213144
0.00211643
0.00210097
0.00208511
0.00206886
0.00205226
0.00203534
0.00201813
0.00200064
0.00198292
0.00196497
0.00194684
0.00192853
0.00191007
0.00189149
0.00187281
0.00185405
0.00183524
0.00181639
0.00179753
0.00177868
0.00175984
0.00174104
0.00172228
0.0017036
0.00168498
0.00166646
0.00164804
0.00162973
0.00161154
0.00159348
0.00157556
0.00155779
0.00154017
0.00152271
0.00150541
0.00148829
0.00147135
0.00145459
0.00143801
0.00142162
0.00140542
0.00138941
0.0013736
0.00135799
0.00134257
0.00132735
0.00131233
0.00129751
0.0012829
0.00126847
0.00125424
0.0012402
0.00122636
0.0012127
0.00119924
0.00118597
0.0011729
0.00116001
0.00114731
0.00113479
0.00112246
0.0011103
0.00109833
0.00108653
0.00107491
0.00106345
0.00105217
0.00104105
0.00103009
0.0010193
0.00100866
0.000998179
0.000987851
0.000977673
0.000967642
0.000957756
0.000948012
0.000938406
0.000928935
0.000919595
0.000910382
0.00090129
0.000892313
0.000883444
0.000874674
0.00086599
0.000857378
0.00084882
0.000840289
0.000831752
0.000823166
0.000814463
0.000805572
0.000796329
0.000786585
0.000776616
0.000756796
2.27182e-06
0.000118205
0.000256374
0.000390159
0.000487247
0.000549165
0.000587029
0.000610493
0.000628252
0.000647579
0.000673724
0.000709339
0.000755158
0.000811456
0.000878636
0.000969142
0.00107428
0.001176
0.00127522
0.00137072
0.00146142
0.00154742
0.00162866
0.00170512
0.00177708
0.0018449
0.00190891
0.00196946
0.00202688
0.00208148
0.00213361
0.00218354
0.00223152
0.00227776
0.00232243
0.00236565
0.00240749
0.00244803
0.00248729
0.00252528
0.00256199
0.00259741
0.0026315
0.00266423
0.00269557
0.00272548
0.00275391
0.00278082
0.00280617
0.00282994
0.0028521
0.00287262
0.00289149
0.00290869
0.00292423
0.0029381
0.00295029
0.00296084
0.00296973
0.00297699
0.00298265
0.00298673
0.00298916
0.00299005
0.00298959
0.00298762
0.00298428
0.00297957
0.00297357
0.00296632
0.00295787
0.00294828
0.00293759
0.00292586
0.00291314
0.00289948
0.00288491
0.0028695
0.00285327
0.00283628
0.00281857
0.00280017
0.00278114
0.00276151
0.00274132
0.00272061
0.00269942
0.00267779
0.00265575
0.00263335
0.00261062
0.00258759
0.0025643
0.00254076
0.00251703
0.00249312
0.00246906
0.00244489
0.00242063
0.0023963
0.00237194
0.00234757
0.0023232
0.00229887
0.00227458
0.00225036
0.00222623
0.0022022
0.00217828
0.0021545
0.00213086
0.00210738
0.00208406
0.00206093
0.00203798
0.00201524
0.00199269
0.00197036
0.00194825
0.00192637
0.00190472
0.0018833
0.00186212
0.00184119
0.0018205
0.00180006
0.00177987
0.00175993
0.00174024
0.00172081
0.00170163
0.0016827
0.00166402
0.00164559
0.0016274
0.00160946
0.00159176
0.00157431
0.00155709
0.00154012
0.00152339
0.0015069
0.00149064
0.00147461
0.0014588
0.00144323
0.00142787
0.00141274
0.00139782
0.00138311
0.00136861
0.00135431
0.00134022
0.00132633
0.00131263
0.00129913
0.00128581
0.00127268
0.00125973
0.00124696
0.00123436
0.00122194
0.00120967
0.00119757
0.00118563
0.00117383
0.00116216
0.00115063
0.00113921
0.00112789
0.00111665
0.00110546
0.00109429
0.00108308
0.00107178
0.0010603
0.00104849
0.00103627
0.00102409
0.00100161
2.80571e-06
0.000126824
0.000269285
0.000407735
0.000526509
0.000608045
0.00066425
0.00070626
0.000743319
0.000782693
0.000829438
0.000886504
0.000955515
0.00104785
0.00115485
0.00126146
0.00136757
0.00147093
0.00157101
0.00166736
0.00175976
0.00184819
0.00193276
0.00201361
0.002091
0.0021652
0.00223648
0.00230511
0.00237134
0.00243542
0.00249754
0.0025579
0.00261663
0.00267386
0.00272967
0.00278411
0.00283723
0.00288903
0.00293951
0.00298865
0.00303642
0.00308278
0.00312769
0.0031711
0.00321295
0.0032532
0.0032918
0.00332868
0.00336381
0.00339712
0.00342859
0.00345817
0.00348583
0.00351153
0.00353525
0.00355697
0.00357668
0.00359437
0.00361002
0.00362364
0.00363524
0.00364482
0.0036524
0.00365802
0.00366167
0.00366329
0.0036632
0.00366121
0.00365744
0.00365192
0.00364471
0.00363587
0.00362545
0.00361352
0.00360014
0.00358537
0.00356928
0.00355193
0.0035334
0.00351375
0.00349305
0.00347136
0.00344875
0.00342529
0.00340104
0.00337606
0.00335042
0.00332416
0.00329736
0.00327005
0.0032423
0.00321414
0.00318563
0.00315682
0.00312773
0.00309842
0.00306892
0.00303927
0.0030095
0.00297965
0.00294975
0.00291983
0.00288992
0.00286003
0.00283021
0.00280046
0.00277082
0.0027413
0.00271192
0.0026827
0.00265365
0.0026248
0.00259615
0.00256771
0.0025395
0.00251153
0.00248381
0.00245635
0.00242916
0.00240223
0.00237559
0.00234923
0.00232316
0.00229738
0.0022719
0.00224672
0.00222184
0.00219726
0.00217299
0.00214902
0.00212535
0.00210199
0.00207893
0.00205617
0.00203371
0.00201154
0.00198966
0.00196808
0.00194679
0.00192579
0.00190508
0.00188465
0.0018645
0.00184463
0.00182504
0.00180571
0.00178665
0.00176785
0.00174931
0.00173103
0.001713
0.00169521
0.00167767
0.00166036
0.00164329
0.00162646
0.00160985
0.00159346
0.00157729
0.00156134
0.0015456
0.00153006
0.00151472
0.00149958
0.00148462
0.00146985
0.00145525
0.0014408
0.0014265
0.00141233
0.00139827
0.00138428
0.00137034
0.00135639
0.00134236
0.00132819
0.00131371
0.00129896
0.00128395
0.0012597
2.94261e-06
0.000128738
0.000270674
0.000407314
0.000538117
0.000641786
0.00071905
0.000780504
0.00083631
0.000894169
0.00096178
0.00105375
0.00116339
0.00128512
0.0014007
0.00151197
0.00161981
0.00172438
0.00182564
0.00192351
0.002018
0.00210921
0.00219726
0.00228236
0.00236471
0.00244454
0.00252208
0.00259754
0.0026711
0.00274294
0.0028132
0.002882
0.00294943
0.00301556
0.00308042
0.00314404
0.00320641
0.00326752
0.00332735
0.00338584
0.00344296
0.00349866
0.00355286
0.00360551
0.00365654
0.00370589
0.0037535
0.00379929
0.00384321
0.0038852
0.00392521
0.00396317
0.00399906
0.00403282
0.00406441
0.00409381
0.00412098
0.00414592
0.00416859
0.00418899
0.00420711
0.00422297
0.00423655
0.00424788
0.00425696
0.00426383
0.00426855
0.00427101
0.00427144
0.00426979
0.00426612
0.00426048
0.00425291
0.00424348
0.00423225
0.00421928
0.00420463
0.00418837
0.00417057
0.00415131
0.00413064
0.00410865
0.0040854
0.00406097
0.00403543
0.00400885
0.0039813
0.00395286
0.00392359
0.00389356
0.00386283
0.00383146
0.00379953
0.00376708
0.00373418
0.00370089
0.00366724
0.0036333
0.00359912
0.00356475
0.00353022
0.00349558
0.00346088
0.00342614
0.0033914
0.0033567
0.00332207
0.00328753
0.00325311
0.00321884
0.00318474
0.00315082
0.00311712
0.00308364
0.0030504
0.00301742
0.00298471
0.00295228
0.00292014
0.00288831
0.00285679
0.00282558
0.00279471
0.00276416
0.00273395
0.00270408
0.00267455
0.00264536
0.00261653
0.00258804
0.0025599
0.0025321
0.00250466
0.00247755
0.00245079
0.00242438
0.0023983
0.00237255
0.00234715
0.00232208
0.00229734
0.00227293
0.00224884
0.00222507
0.00220162
0.00217848
0.00215565
0.00213313
0.0021109
0.00208898
0.00206734
0.00204599
0.00202492
0.00200414
0.00198362
0.00196338
0.0019434
0.00192368
0.00190422
0.00188501
0.00186605
0.00184733
0.00182884
0.00181058
0.00179255
0.00177473
0.00175711
0.00173968
0.00172243
0.00170535
0.00168839
0.00167154
0.00165476
0.001638
0.00162119
0.00160426
0.00158706
0.00156966
0.00155172
0.00152558
2.75954e-06
0.000125271
0.000264047
0.000395774
0.000520547
0.00063308
0.000727067
0.000808274
0.000891344
0.000986696
0.00109595
0.00122065
0.00135706
0.00148458
0.00160489
0.00171991
0.00183063
0.0019374
0.00204055
0.00214043
0.00223725
0.00233122
0.00242254
0.0025114
0.00259802
0.0026826
0.00276532
0.00284637
0.00292589
0.00300402
0.00308086
0.00315649
0.00323096
0.00330432
0.00337656
0.0034477
0.0035177
0.00358652
0.00365413
0.00372045
0.00378544
0.00384901
0.0039111
0.00397162
0.0040305
0.00408766
0.00414302
0.00419651
0.00424806
0.00429759
0.00434505
0.00439037
0.00443349
0.00447436
0.00451294
0.00454918
0.00458306
0.00461454
0.00464361
0.00467023
0.00469441
0.00471614
0.00473541
0.00475225
0.00476665
0.00477864
0.00478824
0.00479548
0.00480041
0.00480297
0.00480336
0.00480155
0.00479758
0.00479152
0.00478341
0.00477333
0.00476133
0.00474747
0.00473183
0.00471447
0.00469546
0.00467488
0.00465278
0.00462926
0.00460437
0.0045782
0.00455081
0.00452228
0.00449269
0.00446209
0.00443056
0.00439818
0.004365
0.00433109
0.00429652
0.00426135
0.00422564
0.00418945
0.00415284
0.00411587
0.00407858
0.00404103
0.00400327
0.00396535
0.00392731
0.00388919
0.00385102
0.00381286
0.00377473
0.00373666
0.00369869
0.00366085
0.00362316
0.00358564
0.00354832
0.00351123
0.00347437
0.00343777
0.00340145
0.00336541
0.00332968
0.00329426
0.00325916
0.0032244
0.00318998
0.00315591
0.00312219
0.00308883
0.00305584
0.00302321
0.00299095
0.00295907
0.00292755
0.00289641
0.00286563
0.00283523
0.0028052
0.00277553
0.00274624
0.0027173
0.00268873
0.00266053
0.00263267
0.00260518
0.00257803
0.00255123
0.00252478
0.00249866
0.00247288
0.00244743
0.0024223
0.0023975
0.00237302
0.00234884
0.00232498
0.00230142
0.00227816
0.0022552
0.00223252
0.00221013
0.00218802
0.00216619
0.00214462
0.00212332
0.00210227
0.00208146
0.00206089
0.00204055
0.0020204
0.00200045
0.00198066
0.001961
0.00194143
0.00192191
0.00190235
0.0018827
0.00186281
0.00184275
0.001822
0.00179367
2.34447e-06
0.000117991
0.000252851
0.000380978
0.000503951
0.000620488
0.000731383
0.0008405
0.000955436
0.00108134
0.00121947
0.00136926
0.00151157
0.00164356
0.00176782
0.00188626
0.00199998
0.00210963
0.00221559
0.00231807
0.00241748
0.00251419
0.00260849
0.00270065
0.00279089
0.00287941
0.0029664
0.00305202
0.00313639
0.00321963
0.00330182
0.00338302
0.00346326
0.00354256
0.0036209
0.00369827
0.00377462
0.00384989
0.00392404
0.00399697
0.00406861
0.00413888
0.00420769
0.00427494
0.00434055
0.00440443
0.00446648
0.00452663
0.00458478
0.00464086
0.00469479
0.00474651
0.00479595
0.00484304
0.00488775
0.00493002
0.00496981
0.00500708
0.00504181
0.00507398
0.00510358
0.00513059
0.00515501
0.00517684
0.00519611
0.00521281
0.00522698
0.00523863
0.0052478
0.00525452
0.00525884
0.00526078
0.00526044
0.00525783
0.00525301
0.00524604
0.00523699
0.00522591
0.00521287
0.00519793
0.00518117
0.00516265
0.00514244
0.00512062
0.00509726
0.00507243
0.00504621
0.00501866
0.00498987
0.00495989
0.0049288
0.00489668
0.00486358
0.00482958
0.00479475
0.00475915
0.00472284
0.00468588
0.00464835
0.00461029
0.00457177
0.00453284
0.00449355
0.00445397
0.00441413
0.00437408
0.00433387
0.00429354
0.00425314
0.00421269
0.00417224
0.00413182
0.00409147
0.00405121
0.00401107
0.00397109
0.00393128
0.00389166
0.00385227
0.00381311
0.00377421
0.00373558
0.00369724
0.0036592
0.00362148
0.00358408
0.00354702
0.00351029
0.00347392
0.00343791
0.00340226
0.00336697
0.00333206
0.00329752
0.00326335
0.00322956
0.00319614
0.0031631
0.00313044
0.00309815
0.00306625
0.00303471
0.00300356
0.00297277
0.00294235
0.00291229
0.0028826
0.00285327
0.0028243
0.00279568
0.0027674
0.00273948
0.00271189
0.00268464
0.00265772
0.00263114
0.00260488
0.00257893
0.00255331
0.00252799
0.00250298
0.00247828
0.00245386
0.00242974
0.0024059
0.00238233
0.00235902
0.00233595
0.00231312
0.0022905
0.00226807
0.00224579
0.00222362
0.00220151
0.0021794
0.0021572
0.0021348
0.00211222
0.00208892
0.00205826
1.92697e-06
0.00011031
0.000242566
0.000369912
0.000495654
0.000620088
0.000745019
0.000874516
0.00101189
0.00115923
0.00131666
0.00147847
0.00162628
0.00176273
0.00189083
0.0020126
0.00212929
0.00224173
0.00235047
0.00245588
0.00255827
0.00265782
0.002755
0.00285013
0.00294352
0.00303539
0.00312595
0.00321535
0.00330373
0.0033912
0.00347781
0.00356362
0.00364865
0.0037329
0.00381634
0.00389895
0.00398065
0.00406139
0.00414108
0.00421965
0.00429698
0.00437299
0.00444758
0.00452063
0.00459206
0.00466175
0.0047296
0.00479553
0.00485943
0.00492122
0.00498081
0.00503813
0.00509311
0.00514568
0.00519578
0.00524336
0.00528838
0.00533079
0.00537057
0.00540768
0.00544212
0.00547386
0.00550292
0.00552928
0.00555295
0.00557395
0.0055923
0.00560802
0.00562114
0.0056317
0.00563973
0.00564527
0.00564838
0.0056491
0.0056475
0.00564362
0.00563753
0.00562928
0.00561894
0.00560657
0.00559225
0.00557603
0.005558
0.00553822
0.00551676
0.0054937
0.00546911
0.00544306
0.00541562
0.00538687
0.00535687
0.0053257
0.00529342
0.0052601
0.00522582
0.00519062
0.00515459
0.00511778
0.00508026
0.00504209
0.00500333
0.00496404
0.00492427
0.00488407
0.0048435
0.00480261
0.00476145
0.00472005
0.00467848
0.00463676
0.00459494
0.00455305
0.00451114
0.00446923
0.00442737
0.00438557
0.00434387
0.00430229
0.00426087
0.00421962
0.00417856
0.00413772
0.00409711
0.00405676
0.00401667
0.00397686
0.00393735
0.00389815
0.00385926
0.0038207
0.00378248
0.0037446
0.00370706
0.00366988
0.00363306
0.0035966
0.0035605
0.00352477
0.00348941
0.00345442
0.00341981
0.00338556
0.00335169
0.00331819
0.00328506
0.0032523
0.00321991
0.00318789
0.00315622
0.00312492
0.00309397
0.00306339
0.00303315
0.00300326
0.00297372
0.00294452
0.00291566
0.00288713
0.00285894
0.00283107
0.00280353
0.0027763
0.00274939
0.00272278
0.00269648
0.00267046
0.00264473
0.00261926
0.00259404
0.00256906
0.00254427
0.00251967
0.00249519
0.00247078
0.0024464
0.00242194
0.00239732
0.00237252
0.00234701
0.0023142
1.54353e-06
0.000102169
0.000232075
0.000359058
0.000487726
0.000618997
0.000755533
0.00089925
0.00105188
0.00121395
0.00138597
0.00155195
0.00170374
0.00184406
0.00197567
0.00210055
0.00222004
0.0023351
0.00244636
0.00255435
0.00265942
0.0027619
0.00286204
0.00296004
0.00305633
0.00315118
0.00324485
0.00333751
0.00342932
0.00352036
0.00361073
0.00370046
0.00378956
0.00387802
0.00396581
0.00405289
0.00413918
0.00422461
0.00430907
0.00439248
0.00447473
0.0045557
0.00463529
0.00471338
0.00478985
0.00486459
0.0049375
0.00500847
0.0050774
0.00514419
0.00520875
0.00527099
0.00533085
0.00538824
0.00544311
0.0054954
0.00554505
0.00559204
0.00563631
0.00567785
0.00571664
0.00575265
0.00578589
0.00581636
0.00584405
0.00586898
0.00589118
0.00591066
0.00592745
0.00594158
0.00595309
0.00596203
0.00596844
0.00597236
0.00597385
0.00597298
0.00596981
0.00596438
0.00595676
0.005947
0.00593519
0.00592139
0.00590567
0.0058881
0.00586874
0.00584768
0.00582499
0.00580073
0.00577498
0.00574781
0.00571929
0.00568949
0.00565847
0.00562631
0.00559307
0.00555882
0.00552363
0.00548755
0.00545066
0.00541301
0.00537467
0.00533569
0.00529613
0.00525605
0.00521549
0.00517451
0.00513316
0.00509149
0.00504954
0.00500736
0.00496498
0.00492245
0.00487981
0.00483709
0.00479433
0.00475157
0.00470882
0.00466613
0.00462351
0.004581
0.00453862
0.0044964
0.00445435
0.00441249
0.00437085
0.00432944
0.00428828
0.00424737
0.00420674
0.0041664
0.00412635
0.00408661