/*--------------------------------*- C++ -*----------------------------------*\
  =========                 |
  \\      /  F ield         | OpenFOAM: The Open Source CFD Toolbox
   \\    /   O peration     | Website:  https://openfoam.org
    \\  /    A nd           | Version:  8
     \\/     M anipulation  |
\*---------------------------------------------------------------------------*/
FoamFile
{
    version     2.0;
    format      ascii;
    class       volVectorField;
    location    "3400";
    object      U;
}
// * * * * * * * * * * * * * * * * * * * * * * * * * * * * * * * * * * * * * //

dimensions      [0 1 -1 0 0 0 0];

internalField   nonuniform List<vector> 
12225
(
(9.2745 -4.73371 0)
(13.1094 -1.71343 0)
(12.4778 -0.395197 0)
(11.2771 -0.0422039 0)
(10.6314 0.0141387 0)
(10.2979 -9.3592e-05 0)
(10.0776 -0.0165228 0)
(9.91227 -0.00288769 0)
(9.77909 0.0348752 0)
(9.6623 0.0428937 0)
(9.55573 0.0248846 0)
(9.45765 0.00214407 0)
(9.36673 -0.0227891 0)
(9.28209 -0.0302219 0)
(9.20229 -0.0217843 0)
(9.13249 -0.0212217 0)
(9.07008 -0.0210332 0)
(9.08949 -0.0276791 0)
(10.2592 0.0928019 0)
(10.7814 0.199339 0)
(10.9594 0.245656 0)
(10.7469 0.229144 0)
(10.5875 0.172969 0)
(10.4527 0.115535 0)
(10.33 0.0823323 0)
(10.2327 0.0647311 0)
(10.155 0.052478 0)
(10.0894 0.0472356 0)
(10.0323 0.0469952 0)
(9.98212 0.0489935 0)
(9.93784 0.0518017 0)
(9.89832 0.0519479 0)
(9.86149 0.0483324 0)
(9.82884 0.0438545 0)
(9.79426 0.0300974 0)
(9.76821 0.0103207 0)
(9.87768 -0.24504 0)
(9.74285 0.00579128 0)
(10.1971 0.125744 0)
(10.3245 0.179365 0)
(10.3564 0.161549 0)
(10.3311 0.120078 0)
(10.2777 0.0904953 0)
(10.2252 0.0746673 0)
(10.1812 0.0658772 0)
(10.1438 0.0600316 0)
(10.1103 0.056212 0)
(10.0799 0.0536556 0)
(10.052 0.0511423 0)
(10.026 0.0487698 0)
(10.0023 0.0460855 0)
(9.98116 0.0417829 0)
(9.95912 0.0316942 0)
(9.93455 0.013622 0)
(9.83416 -0.443933 0)
(9.57654 -0.163146 0)
(9.91603 0.0336711 0)
(10.0933 0.134225 0)
(10.1892 0.145474 0)
(10.2168 0.12074 0)
(10.205 0.0978967 0)
(10.1824 0.0839115 0)
(10.1599 0.0756323 0)
(10.1389 0.0697158 0)
(10.119 0.065139 0)
(10.1001 0.0616433 0)
(10.0821 0.0586206 0)
(10.0648 0.0562389 0)
(10.0483 0.0538675 0)
(10.0325 0.050163 0)
(10.0148 0.0424453 0)
(9.99176 0.0306557 0)
(9.87825 -0.387476 0)
(9.61653 -0.196147 0)
(9.81623 -0.0186696 0)
(9.96136 0.0916138 0)
(10.0698 0.122198 0)
(10.1218 0.113629 0)
(10.1354 0.0992661 0)
(10.1332 0.0884235 0)
(10.1257 0.0809517 0)
(10.1161 0.0754008 0)
(10.1056 0.0711296 0)
(10.0946 0.0678887 0)
(10.0833 0.0652629 0)
(10.0718 0.0631678 0)
(10.0601 0.0610594 0)
(10.0477 0.0581268 0)
(10.0328 0.0531091 0)
(10.0124 0.0469427 0)
(9.91439 -0.28804 0)
(9.68304 -0.185176 0)
(9.78717 -0.0532068 0)
(9.88917 0.0510003 0)
(9.98796 0.0936813 0)
(10.0476 0.0992056 0)
(10.0751 0.0938765 0)
(10.0861 0.087521 0)
(10.0892 0.0821243 0)
(10.0879 0.0777694 0)
(10.0842 0.074357 0)
(10.0789 0.071768 0)
(10.0726 0.0697517 0)
(10.0653 0.0681847 0)
(10.0571 0.0667421 0)
(10.0476 0.0650647 0)
(10.0354 0.0628112 0)
(10.0185 0.0612071 0)
(9.93763 -0.214041 0)
(9.74856 -0.167535 0)
(9.79244 -0.0752146 0)
(9.85608 0.0162217 0)
(9.93595 0.0644235 0)
(9.99281 0.0805972 0)
(10.0261 0.0835638 0)
(10.0447 0.0822467 0)
(10.0546 0.0797836 0)
(10.0593 0.0772929 0)
(10.0606 0.0751827 0)
(10.0596 0.0735677 0)
(10.057 0.0724001 0)
(10.053 0.0716489 0)
(10.0477 0.071208 0)
(10.0407 0.0710378 0)
(10.0312 0.0713056 0)
(10.0182 0.0731859 0)
(9.95263 -0.167334 0)
(9.79947 -0.149676 0)
(9.81177 -0.0846405 0)
(9.84959 -0.00620906 0)
(9.9114 0.0419336 0)
(9.96107 0.0638993 0)
(9.99432 0.0725528 0)
(10.0156 0.0752898 0)
(10.0288 0.0755345 0)
(10.0367 0.0749094 0)
(10.041 0.0741552 0)
(10.0427 0.073591 0)
(10.0425 0.0733347 0)
(10.0408 0.0734629 0)
(10.0375 0.0740235 0)
(10.0325 0.0751582 0)
(10.0254 0.0772313 0)
(10.0157 0.0812362 0)
(9.96406 -0.132089 0)
(9.84003 -0.131988 0)
(9.83337 -0.0876891 0)
(9.85306 -0.0213314 0)
(9.89927 0.0244174 0)
(9.94102 0.0495154 0)
(9.97207 0.0621264 0)
(9.99385 0.0680807 0)
(10.0086 0.0707009 0)
(10.0184 0.0718008 0)
(10.0246 0.0723254 0)
(10.0282 0.0727632 0)
(10.0298 0.0733724 0)
(10.0297 0.0743337 0)
(10.028 0.0758049 0)
(10.0248 0.0780293 0)
(10.0197 0.0814365 0)
(10.0129 0.0868377 0)
(9.97418 -0.100205 0)
(9.87757 -0.112389 0)
(9.85857 -0.0853654 0)
(9.86387 -0.0323315 0)
(9.89487 0.0089308 0)
(9.92742 0.0352265 0)
(9.95439 0.0507203 0)
(9.97502 0.0595011 0)
(9.99014 0.0644494 0)
(10.0009 0.0673659 0)
(10.0085 0.0693063 0)
(10.0135 0.0708879 0)
(10.0166 0.0724887 0)
(10.018 0.074384 0)
(10.0179 0.0768196 0)
(10.0164 0.0800974 0)
(10.0136 0.0846425 0)
(10.0095 0.0910712 0)
(9.98253 -0.072709 0)
(9.91035 -0.0921958 0)
(9.88507 -0.0782433 0)
(9.88001 -0.0386061 0)
(9.89746 -0.00337192 0)
(9.92043 0.0221716 0)
(9.94196 0.0391878 0)
(9.95999 0.0500855 0)
(9.97425 0.0570618 0)
(9.98518 0.061712 0)
(9.99339 0.065088 0)
(9.99941 0.0678738 0)
(10.0037 0.0705289 0)
(10.0064 0.0733995 0)
(10.0078 0.0767874 0)
(10.0081 0.0810124 0)
(10.0073 0.0864479 0)
(10.0058 0.0935298 0)
(9.98894 -0.0502565 0)
(9.93733 -0.0723776 0)
(9.91073 -0.0674471 0)
(9.89917 -0.0399812 0)
(9.90566 -0.0116476 0)
(9.91955 0.0114551 0)
(9.93496 0.0285344 0)
(9.94934 0.0405851 0)
(9.96169 0.0490304 0)
(9.97188 0.0551189 0)
(9.98009 0.0597885 0)
(9.98659 0.0637135 0)
(9.99163 0.0673839 0)
(9.99544 0.0711792 0)
(9.9982 0.0754204 0)
(10.0001 0.0804101 0)
(10.0013 0.0864483 0)
(10.0021 0.0938183 0)
(9.99348 -0.0329084 0)
(9.9582 -0.0538105 0)
(9.93368 -0.0542824 0)
(9.91898 -0.0367856 0)
(9.91755 -0.0154511 0)
(9.92366 0.00399798 0)
(9.93301 0.0197795 0)
(9.94318 0.0318816 0)
(9.9529 0.0410168 0)
(9.96163 0.048028 0)
(9.96922 0.0536563 0)
(9.9757 0.0584942 0)
(9.98118 0.0630048 0)
(9.98578 0.0675558 0)
(9.98965 0.0724507 0)
(9.99295 0.0779497 0)
(9.99587 0.0842745 0)
(9.9987 0.0915963 0)
(9.99643 -0.0202023 0)
(9.97327 -0.0372092 0)
(9.95261 -0.0400443 0)
(9.93731 -0.0298089 0)
(9.9309 -0.0148211 0)
(9.93102 0.000369707 0)
(9.93504 0.0137783 0)
(9.94104 0.0248478 0)
(9.94782 0.033765 0)
(9.95465 0.0409985 0)
(9.96117 0.0470585 0)
(9.96724 0.0524051 0)
(9.97281 0.0574234 0)
(9.97791 0.0624286 0)
(9.98262 0.0676747 0)
(9.98705 0.0733637 0)
(9.99136 0.0796465 0)
(9.99574 0.0866163 0)
(9.99816 -0.0112874 0)
(9.9833 -0.0229299 0)
(9.96682 -0.0257615 0)
(9.95243 -0.0200749 0)
(9.94344 -0.0102393 0)
(9.93952 0.000678138 0)
(9.9394 0.0110339 0)
(9.94183 0.0201488 0)
(9.94582 0.027931 0)
(9.95069 0.0345788 0)
(9.95597 0.0403938 0)
(9.96139 0.0456858 0)
(9.96681 0.0507328 0)
(9.97216 0.0557668 0)
(9.97744 0.0609717 0)
(9.98271 0.0664842 0)
(9.98804 0.0723935 0)
(9.99354 0.0787401 0)
(9.99906 -0.00508058 0)
(9.98922 -0.0107801 0)
(9.97612 -0.0119156 0)
(9.96309 -0.00848095 0)
(9.9531 -0.00243225 0)
(9.94686 0.00458173 0)
(9.94399 0.0115613 0)
(9.94384 0.0180253 0)
(9.9457 0.0238444 0)
(9.94896 0.0290872 0)
(9.95317 0.0339091 0)
(9.958 0.0384869 0)
(9.96321 0.0429851 0)
(9.96869 0.0475412 0)
(9.97436 0.0522592 0)
(9.9802 0.057209 0)
(9.98624 0.0624257 0)
(9.9925 0.0679119 0)
(9.99942 -0.000366967 0)
(9.99181 0.000152404 0)
(9.98042 0.00183352 0)
(9.96821 0.00459545 0)
(9.9579 0.00792244 0)
(9.95061 0.0114045 0)
(9.94642 0.0148203 0)
(9.94498 0.0180928 0)
(9.94577 0.0212389 0)
(9.94825 0.0243247 0)
(9.95198 0.0274313 0)
(9.95661 0.030636 0)
(9.96187 0.0340009 0)
(9.96758 0.0375702 0)
(9.97362 0.0413674 0)
(9.97994 0.0453975 0)
(9.98649 0.0496461 0)
(9.99326 0.0540835 0)
(9.99935 0.00408504 0)
(9.9911 0.0111738 0)
(9.97897 0.0161345 0)
(9.96616 0.0187383 0)
(9.95552 0.019615 0)
(9.94819 0.0195492 0)
(9.94419 0.0191629 0)
(9.94312 0.0188662 0)
(9.94438 0.0188997 0)
(9.94741 0.0193806 0)
(9.95174 0.0203497 0)
(9.95699 0.0218015 0)
(9.96287 0.0237054 0)
(9.9692 0.0260164 0)
(9.97584 0.0286829 0)
(9.9827 0.0316482 0)
(9.98974 0.0348545 0)
(9.99693 0.038241 0)
(9.99882 0.00972996 0)
(9.98675 0.0240494 0)
(9.97122 0.0318477 0)
(9.95641 0.0332954 0)
(9.94558 0.0307062 0)
(9.93942 0.0263526 0)
(9.93734 0.0217503 0)
(9.93845 0.0177419 0)
(9.94187 0.014698 0)
(9.94687 0.0127143 0)
(9.95292 0.0117352 0)
(9.95963 0.0116417 0)
(9.96674 0.0122946 0)
(9.97409 0.013558 0)
(9.98156 0.0153067 0)
(9.98909 0.0174308 0)
(9.99666 0.0198336 0)
(10.0042 0.0224317 0)
(9.99757 0.0182101 0)
(9.97773 0.0404558 0)
(9.95664 0.0495785 0)
(9.93945 0.0474802 0)
(9.92961 0.0394256 0)
(9.92659 0.0296491 0)
(9.92849 0.0204924 0)
(9.93357 0.0129688 0)
(9.94055 0.00735083 0)
(9.94856 0.00352015 0)
(9.95705 0.00122601 0)
(9.96568 0.000178216 0)
(9.97429 0.000113788 0)
(9.98277 0.000798533 0)
(9.9911 0.0020456 0)
(9.99926 0.00370253 0)
(10.0073 0.00564647 0)
(10.0151 0.00778118 0)
(9.99502 0.0318146 0)
(9.96177 0.0621342 0)
(9.93372 0.0695523 0)
(9.91534 0.0601163 0)
(9.90932 0.0439524 0)
(9.91249 0.0276616 0)
(9.92084 0.0139949 0)
(9.93162 0.00364006 0)
(9.94323 -0.00364153 0)
(9.9548 -0.00837308 0)
(9.96595 -0.0111291 0)
(9.97653 -0.0123909 0)
(9.98652 -0.0125658 0)
(9.99596 -0.0119532 0)
(10.0049 -0.0107898 0)
(10.0135 -0.00924998 0)
(10.0217 -0.00746097 0)
(10.0296 -0.00552358 0)
(9.99018 0.0534619 0)
(9.93561 0.0901523 0)
(9.90098 0.0906285 0)
(9.88515 0.0687578 0)
(9.8878 0.0418198 0)
(9.90121 0.0186592 0)
(9.91856 0.0014173 0)
(9.93627 -0.010397 0)
(9.95285 -0.0179421 0)
(9.96786 -0.0223941 0)
(9.9813 -0.0246492 0)
(9.99333 -0.0253891 0)
(10.0042 -0.0250924 0)
(10.0141 -0.0241147 0)
(10.0232 -0.0226987 0)
(10.0318 -0.0210062 0)
(10.0399 -0.0191571 0)
(10.0476 -0.0172291 0)
(9.9819 0.0862472 0)
(9.89548 0.124258 0)
(9.85817 0.109884 0)
(9.85209 0.0697745 0)
(9.87033 0.0303385 0)
(9.89842 0.00144885 0)
(9.92658 -0.0172053 0)
(9.95135 -0.0283227 0)
(9.9722 -0.0344229 0)
(9.9896 -0.0373329 0)
(10.0043 -0.0382094 0)
(10.0168 -0.0378021 0)
(10.0276 -0.0366175 0)
(10.0372 -0.0349789 0)
(10.0459 -0.0330973 0)
(10.0539 -0.0311043 0)
(10.0613 -0.0290757 0)
(10.0684 -0.0270702 0)
(9.96925 0.13399 0)
(9.83823 0.163089 0)
(9.80793 0.122591 0)
(9.82311 0.0588004 0)
(9.86512 0.00730851 0)
(9.91138 -0.0240268 0)
(9.95035 -0.0405921 0)
(9.98048 -0.0483744 0)
(10.0034 -0.0512406 0)
(10.0212 -0.0515438 0)
(10.0354 -0.0504228 0)
(10.0469 -0.048518 0)
(10.0565 -0.0462624 0)
(10.0649 -0.0438575 0)
(10.0722 -0.0414557 0)
(10.079 -0.0391306 0)
(10.0852 -0.0369 0)
(10.0911 -0.0348147 0)
(9.94951 0.207141 0)
(9.76128 0.207022 0)
(9.75726 0.123478 0)
(9.81042 0.0320114 0)
(9.88381 -0.0278607 0)
(9.94874 -0.0559952 0)
(9.99526 -0.0660744 0)
(10.0266 -0.0678055 0)
(10.048 -0.0659799 0)
(10.063 -0.0632014 0)
(10.0743 -0.0598975 0)
(10.083 -0.0565025 0)
(10.09 -0.0531671 0)
(10.0959 -0.050122 0)
(10.101 -0.0473345 0)
(10.1056 -0.0447722 0)
(10.11 -0.0424058 0)
(10.1141 -0.0402854 0)
(9.91094 0.322718 0)
(9.65923 0.254545 0)
(9.71887 0.107407 0)
(9.83329 -0.0119227 0)
(9.94173 -0.0726522 0)
(10.0199 -0.0901628 0)
(10.0662 -0.0893239 0)
(10.0917 -0.0831428 0)
(10.1058 -0.0760476 0)
(10.1141 -0.0696288 0)
(10.1198 -0.064517 0)
(10.1236 -0.0600982 0)
(10.1262 -0.0564356 0)
(10.1281 -0.05319 0)
(10.1298 -0.0503204 0)
(10.1313 -0.0478911 0)
(10.1328 -0.0454412 0)
(10.1344 -0.0434237 0)
(9.84404 0.43511 0)
(9.53798 0.261026 0)
(9.7269 0.0591352 0)
(9.92367 -0.073115 0)
(10.0584 -0.121552 0)
(10.1344 -0.120192 0)
(10.1664 -0.105281 0)
(10.1758 -0.0906218 0)
(10.1759 -0.0784926 0)
(10.1725 -0.0703901 0)
(10.1686 -0.0644725 0)
(10.1646 -0.0597922 0)
(10.1606 -0.0557671 0)
(10.1569 -0.0524047 0)
(10.1534 -0.0498049 0)
(10.1505 -0.0476935 0)
(10.148 -0.0454402 0)
(10.1457 -0.0439069 0)
(9.83598 0.319666 0)
(9.55021 0.0912513 0)
(9.91739 -0.0687252 0)
(10.1507 -0.160112 0)
(10.2634 -0.172135 0)
(10.3032 -0.142727 0)
(10.2978 -0.112096 0)
(10.276 -0.0899593 0)
(10.2516 -0.0753986 0)
(10.2302 -0.0674647 0)
(10.2132 -0.0619845 0)
(10.1983 -0.0574514 0)
(10.1845 -0.0529593 0)
(10.1712 -0.0484 0)
(10.1596 -0.0452 0)
(10.1498 -0.0430755 0)
(10.1405 -0.0401007 0)
(10.1325 -0.0396588 0)
(10.2049 -0.0633775 0)
(10.4095 -0.191706 0)
(10.7164 -0.282558 0)
(10.6879 -0.282287 0)
(10.6191 -0.230103 0)
(10.5417 -0.163668 0)
(10.4545 -0.117045 0)
(10.3763 -0.0925049 0)
(10.3137 -0.0798735 0)
(10.2653 -0.067882 0)
(10.2263 -0.0588471 0)
(10.1915 -0.0542553 0)
(10.1608 -0.053185 0)
(10.1314 -0.0534236 0)
(10.1068 -0.0511506 0)
(10.0845 -0.0471058 0)
(10.0622 -0.0469013 0)
(10.0467 -0.0434271 0)
(9.41631 4.45107 0)
(12.7294 2.07612 0)
(12.5649 0.621213 0)
(11.569 0.127657 0)
(10.9309 0.00343467 0)
(10.5866 -0.0020679 0)
(10.3637 0.0123093 0)
(10.2022 0.0302346 0)
(10.0795 0.0411755 0)
(9.97734 0.0358962 0)
(9.88467 0.0247626 0)
(9.79938 0.0218548 0)
(9.72154 0.0228772 0)
(9.65846 0.0255483 0)
(9.601 0.016273 0)
(9.54539 -0.00017306 0)
(9.49931 0.00378068 0)
(9.4493 -0.00713613 0)
(-0.027523 0.0934475 0)
(0.137021 -0.183511 0)
(0.324992 -0.305902 0)
(0.525484 -0.315121 0)
(0.702964 -0.272074 0)
(0.833514 -0.21108 0)
(0.909832 -0.146339 -8.60182e-20)
(0.940412 -0.0824921 8.66427e-20)
(0.919536 -0.0201677 0)
(0.858848 0.0345435 9.18634e-20)
(0.771687 0.0739662 0)
(0.672422 0.0920099 0)
(0.578496 0.0877266 0)
(0.505693 0.0666641 -1.43204e-19)
(0.455739 0.0377101 0)
(0.412394 0.00997351 0)
(0.352858 -0.00897302 1.87935e-19)
(0.262697 -0.00867718 0)
(0.13515 0.0293132 0)
(-0.0448414 0.112958 0)
(-0.30056 0.186498 -1.64803e-19)
(-0.594266 0.235265 0)
(-0.915695 0.266823 -7.62349e-20)
(-1.25195 0.296045 0)
(-1.59138 0.323662 0)
(-1.93113 0.336468 -4.13212e-20)
(-2.26355 0.335619 0)
(-2.58067 0.326495 3.45398e-20)
(-2.87945 0.310357 0)
(-3.15646 0.289556 -3.1341e-20)
(-3.41081 0.266419 0)
(-3.64211 0.242539 0)
(-3.85109 0.218948 0)
(-4.03883 0.196354 0)
(-4.20678 0.175133 0)
(-4.3565 0.15549 2.82295e-20)
(-4.48956 0.137462 0)
(-4.60748 0.120978 -5.55706e-20)
(-4.71161 0.105909 0)
(-4.80317 0.0920967 5.4772e-20)
(-4.88324 0.079379 0)
(-4.95269 0.0676039 0)
(-5.01229 0.0566433 -5.355e-20)
(-5.06266 0.0464006 0)
(-5.10429 0.0368164 -5.26583e-20)
(-5.13762 0.0278738 5.21805e-20)
(-5.16302 0.0196169 0)
(-5.18088 0.0121936 5.11536e-20)
(-5.19149 0.00585191 5.06012e-20)
(-5.19502 0.000802086 0)
(-5.1927 -0.00315163 0)
(-5.18578 -0.00645014 0)
(-5.17439 -0.0093728 0)
(-5.15887 -0.0120837 0)
(-5.13937 -0.0146525 -4.61815e-20)
(-5.11602 -0.0170928 0)
(-5.08895 -0.019416 4.43163e-20)
(-5.05825 -0.021631 0)
(-5.02404 -0.02374 0)
(-4.9864 -0.025745 -4.1138e-20)
(-4.94544 -0.0276463 0)
(-4.90128 -0.0294439 3.87623e-20)
(-4.85402 -0.0311376 0)
(-4.80377 -0.0327274 0)
(-4.75065 -0.0342134 0)
(-4.69479 -0.0355952 -3.33824e-20)
(-4.63629 -0.0368734 0)
(-4.5753 -0.0380489 0)
(-4.51193 -0.0391223 -2.87847e-20)
(-4.44632 -0.0400942 0)
(-4.3786 -0.040966 -2.54431e-20)
(-4.30889 -0.041739 0)
(-4.23734 -0.0424147 0)
(-4.16406 -0.0429947 0)
(-4.0892 -0.0434808 1.8065e-20)
(-4.01288 -0.0438751 0)
(-3.93523 -0.0441799 0)
(-3.85638 -0.0443977 1.18825e-20)
(-3.77646 -0.0445314 9.68855e-21)
(-3.69557 -0.0445841 0)
(-3.61386 -0.0445593 5.0865e-21)
(-3.53142 -0.0444608 0)
(-3.44837 -0.0442926 3.56437e-22)
(-3.36482 -0.0440595 0)
(-3.28087 -0.0437675 -1.01342e-20)
(-3.19662 -0.0434253 0)
(-3.11215 -0.0430453 2.1378e-20)
(-3.02755 -0.0426465 0)
(-2.94288 -0.0422573 0)
(-2.85821 -0.0419205 0)
(-2.77357 -0.0416982 -4.6573e-20)
(-2.68898 -0.0416732 0)
(-2.60446 -0.0419354 6.08499e-20)
(-2.51997 -0.0425409 0)
(-2.43547 -0.043431 -7.65217e-20)
(-2.35121 -0.0443335 -8.49015e-20)
(-2.26744 -0.0447877 -9.36109e-20)
(-2.18442 -0.0445791 0)
(-2.1023 -0.043974 0)
(-2.02111 -0.0432756 0)
(-1.94087 -0.0425706 0)
(-1.86158 -0.0418704 0)
(-1.78326 -0.041176 0)
(-1.70594 -0.040489 0)
(-1.62965 -0.0398134 0)
(-1.55441 -0.0391548 1.92738e-19)
(-1.48023 -0.0385203 2.07061e-19)
(-1.40712 -0.0379153 0)
(-1.33511 -0.0373289 0)
(-1.26422 -0.0367036 0)
(-1.19449 -0.0360459 2.74342e-19)
(-1.12591 -0.035412 0)
(-1.05849 -0.0347965 0)
(-0.992242 -0.034201 0)
(-0.927156 -0.0336271 0)
(-0.863235 -0.0330768 -3.91011e-19)
(-0.800479 -0.0325526 0)
(-0.738883 -0.0320577 0)
(-0.67844 -0.0315957 4.89219e-19)
(-0.619144 -0.0311679 -5.28931e-19)
(-0.560988 -0.030778 0)
(-0.503964 -0.0304364 -6.22575e-19)
(-0.448059 -0.0301669 0)
(-0.393255 -0.0300142 7.41603e-19)
(-0.33953 -0.029989 0)
(-0.286869 -0.0300528 0)
(-0.235259 -0.0301926 0)
(-0.18467 -0.0304195 0)
(-0.135076 -0.030749 0)
(-0.0865234 -0.0312 -2.84776e-18)
(-0.039223 -0.0316537 -3.2788e-18)
(0.00687966 -0.0313502 0)
(0.052295 -0.0298486 0)
(0.0970314 -0.0279977 0)
(0.140948 -0.0262797 2.68407e-18)
(0.183952 -0.024747 0)
(0.226024 -0.0233735 0)
(0.267186 -0.022136 0)
(0.30747 -0.0210143 2.03962e-18)
(0.346907 -0.0199916 -1.93339e-18)
(0.385526 -0.0190533 0)
(0.423351 -0.0181883 0)
(0.46041 -0.0173872 -1.68673e-18)
(0.496725 -0.0166425 -1.62209e-18)
(0.532322 -0.0159479 0)
(0.567221 -0.0152986 0)
(0.601447 -0.01469 1.46387e-18)
(0.635023 -0.0141186 -1.42039e-18)
(0.667969 -0.0135813 0)
(0.700309 -0.0130755 0)
(0.732065 -0.012599 -1.31013e-18)
(0.763259 -0.0121496 0)
(0.793915 -0.0117257 0)
(0.824056 -0.0113256 -1.22262e-18)
(0.853704 -0.010948 0)
(0.882884 -0.0105916 -1.17354e-18)
(0.911618 -0.0102553 0)
(0.939931 -0.00993793 0)
(0.967844 -0.00963845 0)
(0.995381 -0.00935579 1.09155e-18)
(1.02256 -0.00908884 0)
(1.04941 -0.00883633 0)
(1.07594 -0.00859682 0)
(1.10217 -0.00836848 0)
(1.1281 -0.00814909 0)
(1.15375 -0.00793569 0)
(1.1791 -0.00772446 9.82744e-19)
(1.20413 -0.00751021 9.69823e-19)
(1.2288 -0.00728596 0)
(1.25305 -0.00704217 0)
(1.27676 -0.00676533 0)
(1.29977 -0.00643683 -9.24478e-19)
(1.32185 -0.00602696 0)
(1.34258 -0.00549698 1.81385e-18)
(1.36152 -0.00475987 -1.80048e-18)
(1.37726 -0.00372418 -1.79175e-18)
(1.38985 -0.00195269 1.79005e-18)
(1.39027 0.00132914 -1.79543e-18)
(1.38757 0.00807685 1.80875e-18)
(1.3083 0.0198905 0)
(0.0963212 -0.268983 0)
(0.334082 -0.681288 0)
(0.514193 -0.706541 1.57358e-19)
(0.611835 -0.571361 0)
(0.662832 -0.408907 -1.11138e-19)
(0.683272 -0.253829 -1.08104e-19)
(0.677246 -0.112174 -5.62549e-20)
(0.646872 0.0155885 -5.61999e-20)
(0.603894 0.12541 0)
(0.544698 0.211933 -6.08084e-20)
(0.467885 0.267411 0)
(0.373398 0.283211 0)
(0.257592 0.256441 1.70494e-19)
(0.110256 0.21144 9.82865e-20)
(-0.0747773 0.206289 -1.84466e-19)
(-0.301054 0.271843 -1.43798e-19)
(-0.579041 0.383422 -5.71896e-20)
(-0.90498 0.513261 0)
(-1.25857 0.642626 0)
(-1.61668 0.756454 0)
(-1.9723 0.842009 -2.85752e-20)
(-2.3179 0.895575 0)
(-2.6478 0.919057 6.90633e-20)
(-2.95452 0.915475 0)
(-3.23403 0.889036 0)
(-3.48467 0.844868 1.98197e-20)
(-3.70504 0.7883 0)
(-3.89599 0.724864 -1.9762e-20)
(-4.05938 0.65879 -4.17983e-20)
(-4.19877 0.592788 2.01689e-20)
(-4.31706 0.528962 0)
(-4.41716 0.469094 0)
(-4.50177 0.414015 0)
(-4.57331 0.364076 -4.42599e-20)
(-4.63382 0.319237 -4.47663e-20)
(-4.685 0.279227 -2.21904e-20)
(-4.72823 0.243636 0)
(-4.76462 0.211981 4.53085e-20)
(-4.79506 0.183763 0)
(-4.82027 0.158503 -4.58802e-20)
(-4.84083 0.13576 0)
(-4.85724 0.115139 0)
(-4.86991 0.096299 4.60907e-20)
(-4.87923 0.0789503 0)
(-4.88554 0.0628521 1.38173e-19)
(-4.88913 0.0478099 -4.56111e-20)
(-4.8903 0.0336885 0)
(-4.88929 0.0204573 -4.4942e-20)
(-4.88636 0.00823274 -4.44853e-20)
(-4.88177 -0.00282326 0)
(-4.87462 -0.0127665 0)
(-4.8638 -0.0218929 0)
(-4.84929 -0.0304456 0)
(-4.831 -0.0385391 0)
(-4.80895 -0.0462431 4.02191e-20)
(-4.78321 -0.0535945 7.91686e-20)
(-4.75385 -0.0606143 -3.84417e-20)
(-4.72096 -0.067314 0)
(-4.68463 -0.0736993 7.349e-20)
(-4.64494 -0.0797728 -3.59686e-20)
(-4.60199 -0.0855351 0)
(-4.5559 -0.0909861 -3.32684e-20)
(-4.50676 -0.0961256 0)
(-4.45468 -0.100955 0)
(-4.39977 -0.105476 -5.98947e-20)
(-4.34216 -0.109689 2.83866e-20)
(-4.28196 -0.113594 -5.47027e-20)
(-4.21929 -0.117193 5.19837e-20)
(-4.15427 -0.120491 2.42946e-20)
(-4.08704 -0.123492 0)
(-4.01772 -0.126202 2.13614e-20)
(-3.94643 -0.128625 0)
(-3.87331 -0.130769 0)
(-3.79848 -0.13264 0)
(-3.72208 -0.134248 1.56345e-20)
(-3.64422 -0.135601 0)
(-3.56504 -0.136707 2.37653e-20)
(-3.48465 -0.137578 -2.99716e-20)
(-3.40318 -0.138222 -7.94066e-21)
(-3.32075 -0.138652 0)
(-3.23746 -0.138878 -4.13969e-21)
(-3.15345 -0.138911 0)
(-3.06881 -0.138763 -2.87849e-22)
(-2.98365 -0.138447 0)
(-2.89807 -0.137974 8.11885e-21)
(-2.81217 -0.137356 -2.35806e-20)
(-2.72604 -0.136606 -1.6973e-20)
(-2.63978 -0.135733 0)
(-2.55348 -0.134745 0)
(-2.46722 -0.133649 0)
(-2.3811 -0.132443 3.61932e-20)
(-2.29525 -0.131119 0)
(-2.20978 -0.129648 -4.66658e-20)
(-2.12485 -0.127976 0)
(-2.04061 -0.12605 1.71914e-19)
(-1.95711 -0.123894 6.3644e-20)
(-1.87439 -0.121611 6.96761e-20)
(-1.79237 -0.119306 0)
(-1.71103 -0.117037 0)
(-1.63044 -0.114803 0)
(-1.55064 -0.112581 0)
(-1.47171 -0.110357 0)
(-1.39368 -0.108126 2.19528e-19)
(-1.31657 -0.105889 2.35022e-19)
(-1.24043 -0.103649 0)
(-1.16527 -0.10141 -1.34782e-19)
(-1.09113 -0.0991746 -1.43563e-19)
(-1.01802 -0.0969436 0)
(-0.945979 -0.0947195 -3.23086e-19)
(-0.875015 -0.0925066 0)
(-0.805122 -0.0903185 1.81351e-19)
(-0.736311 -0.0881611 0)
(-0.668592 -0.0860345 0)
(-0.601969 -0.0839411 -4.34516e-19)
(-0.536445 -0.0818823 0)
(-0.472021 -0.0798598 2.44869e-19)
(-0.408697 -0.0778765 0)
(-0.346471 -0.0759382 0)
(-0.285338 -0.0740537 2.89814e-19)
(-0.225289 -0.0722209 3.09122e-19)
(-0.166316 -0.0704345 0)
(-0.108415 -0.0686974 -3.46423e-19)
(-0.05159 -0.0670099 0)
(0.00416154 -0.0653633 3.8266e-19)
(0.0588812 -0.0637508 7.66157e-19)
(0.112602 -0.0621836 0)
(0.165326 -0.0606766 0)
(0.217052 -0.0592341 0)
(0.267795 -0.057854 0)
(0.317588 -0.0565383 7.09215e-19)
(0.366501 -0.055276 2.09638e-18)
(0.414621 -0.0538959 0)
(0.46186 -0.0522487 0)
(0.508077 -0.0504736 0)
(0.553343 -0.0487262 -6.65612e-19)
(0.597739 -0.0470582 0)
(0.641292 -0.0454776 0)
(0.684021 -0.0439821 1.28791e-18)
(0.725947 -0.0425651 6.36936e-19)
(0.76709 -0.0412194 6.32412e-19)
(0.807472 -0.0399381 0)
(0.847115 -0.0387158 0)
(0.88604 -0.0375481 6.1587e-19)
(0.924269 -0.0364313 -6.09634e-19)
(0.961823 -0.0353624 0)
(0.998724 -0.0343389 0)
(1.03499 -0.0333587 -5.96776e-19)
(1.07065 -0.03242 1.77635e-18)
(1.10572 -0.0315211 0)
(1.14022 -0.0306608 0)
(1.17418 -0.0298377 5.80307e-19)
(1.20761 -0.0290506 0)
(1.24054 -0.0282986 1.1449e-18)
(1.27299 -0.0275805 -5.68519e-19)
(1.30498 -0.0268953 0)
(1.33653 -0.0262422 5.62405e-19)
(1.36767 -0.0256199 1.11752e-18)
(1.39841 -0.0250276 0)
(1.42879 -0.0244638 0)
(1.45881 -0.0239272 -5.49568e-19)
(1.48851 -0.0234159 0)
(1.51789 -0.0229277 1.08642e-18)
(1.54697 -0.0224597 0)
(1.57577 -0.022008 0)
(1.60429 -0.0215677 0)
(1.63254 -0.0211322 0)
(1.66051 -0.0206924 -5.28991e-19)
(1.68817 -0.0202363 -5.26223e-19)
(1.7155 -0.0197475 0)
(1.74243 -0.0192033 0)
(1.76887 -0.0185722 0)
(1.79468 -0.0178085 5.1613e-19)
(1.81966 -0.0168451 0)
(1.84348 -0.015579 -1.02485e-18)
(1.86572 -0.0138332 1.02259e-18)
(1.88545 -0.0113231 1.0222e-18)
(1.90225 -0.00730796 1.0233e-18)
(1.91246 -0.000517101 1.02846e-18)
(1.92476 0.0124267 1.02035e-18)
(1.9052 0.0361885 0)
(0.116446 -0.859735 0)
(0.269026 -1.05686 0)
(0.31612 -0.826033 -1.26329e-19)
(0.315427 -0.584252 -1.08169e-19)
(0.297996 -0.37378 1.00489e-19)
(0.266787 -0.188646 1.0067e-19)
(0.220604 -0.0231813 -6.45036e-22)
(0.158707 0.124566 0)
(0.0809682 0.255112 0)
(-0.0138476 0.366033 0)
(-0.129298 0.451745 0)
(-0.273449 0.512807 0)
(-0.459217 0.566634 -2.67333e-19)
(-0.697088 0.641374 0)
(-0.983323 0.753937 6.62757e-20)
(-1.30207 0.895909 5.71748e-20)
(-1.63536 1.04402 0)
(-1.9663 1.17803 0)
(-2.27964 1.28541 0)
(-2.56353 1.35912 0)
(-2.81264 1.39486 3.49038e-20)
(-3.02658 1.39241 0)
(-3.20672 1.35644 -3.23466e-20)
(-3.35591 1.2942 0)
(-3.47862 1.21299 0)
(-3.57944 1.11922 0)
(-3.66319 1.01897 -6.85885e-20)
(-3.73423 0.917579 0)
(-3.7961 0.819172 3.31179e-20)
(-3.85156 0.726547 -7.07023e-20)
(-3.90254 0.641218 0)
(-3.95033 0.563922 0)
(-3.99569 0.494709 0)
(-4.03899 0.433195 3.65651e-20)
(-4.08032 0.37873 3.71525e-20)
(-4.11966 0.330542 0)
(-4.15686 0.287835 0)
(-4.19175 0.249848 -7.78021e-20)
(-4.22414 0.215887 -7.8195e-20)
(-4.25388 0.185341 7.8428e-20)
(-4.28083 0.157692 0)
(-4.30486 0.132511 0)
(-4.32589 0.10945 0)
(-4.34385 0.0882237 0)
(-4.35867 0.0685993 -7.70116e-20)
(-4.3703 0.0503767 -7.69135e-20)
(-4.37866 0.0333718 7.62706e-20)
(-4.38363 0.0173835 0)
(-4.38502 0.00215557 0)
(-4.38269 -0.0125985 0)
(-4.37657 -0.0270117 0)
(-4.36672 -0.0409974 -7.11068e-20)
(-4.3532 -0.0544638 0)
(-4.33604 -0.0673995 0)
(-4.31529 -0.0798089 -6.69949e-20)
(-4.29099 -0.0917007 -6.49692e-20)
(-4.26321 -0.103082 0)
(-4.23202 -0.113958 1.2457e-19)
(-4.1975 -0.124329 -6.0031e-20)
(-4.15974 -0.134196 5.82543e-20)
(-4.11882 -0.143558 0)
(-4.07484 -0.152411 0)
(-4.02789 -0.160754 0)
(-3.97809 -0.168587 0)
(-3.92553 -0.175912 4.84222e-20)
(-3.87034 -0.182731 9.37751e-20)
(-3.81262 -0.189042 4.40565e-20)
(-3.75249 -0.19485 -4.17843e-20)
(-3.69008 -0.20016 0)
(-3.6255 -0.20498 7.54226e-20)
(-3.55888 -0.209316 7.05392e-20)
(-3.49033 -0.213178 6.55394e-20)
(-3.42 -0.216577 -6.04238e-20)
(-3.348 -0.219523 0)
(-3.27445 -0.22203 -7.4093e-20)
(-3.19948 -0.22411 0)
(-3.12321 -0.225779 2.00929e-20)
(-3.04577 -0.227052 1.58695e-20)
(-2.96728 -0.227944 0)
(-2.88784 -0.228473 0)
(-2.80759 -0.228656 1.53547e-20)
(-2.72662 -0.22851 0)
(-2.64505 -0.228055 2.91942e-21)
(-2.56299 -0.227308 0)
(-2.48054 -0.226288 1.00044e-20)
(-2.39781 -0.225016 3.47375e-20)
(-2.31488 -0.22351 0)
(-2.23187 -0.221789 0)
(-2.14886 -0.219873 0)
(-2.06594 -0.217779 4.45913e-20)
(-1.98323 -0.215521 0)
(-1.90081 -0.213111 5.94137e-20)
(-1.81877 -0.210551 0)
(-1.73722 -0.207826 0)
(-1.65622 -0.204909 -1.67076e-19)
(-1.57581 -0.201786 0)
(-1.49599 -0.198469 -9.93258e-20)
(-1.41679 -0.195003 0)
(-1.33823 -0.191444 -1.16606e-19)
(-1.26036 -0.187832 0)
(-1.18325 -0.184184 0)
(-1.10695 -0.180508 0)
(-1.03149 -0.17681 -4.62742e-19)
(-0.956922 -0.173096 -1.65061e-19)
(-0.883265 -0.169373 0)
(-0.81055 -0.165649 0)
(-0.738801 -0.161928 0)
(-0.66804 -0.158217 0)
(-0.598284 -0.154519 2.1886e-19)
(-0.529546 -0.15084 -4.58511e-19)
(-0.46183 -0.147189 -2.42695e-19)
(-0.39515 -0.143576 5.07706e-19)
(-0.329515 -0.140004 5.33505e-19)
(-0.26493 -0.136482 2.81403e-19)
(-0.201399 -0.13301 0)
(-0.138921 -0.129589 6.16278e-19)
(-0.0774986 -0.126222 0)
(-0.0171331 -0.122912 -6.73587e-19)
(0.0421818 -0.119661 -3.45162e-19)
(0.10046 -0.11647 0)
(0.157707 -0.113341 6.93129e-19)
(0.213928 -0.110278 3.48833e-19)
(0.269135 -0.10728 0)
(0.323338 -0.104339 3.48727e-19)
(0.376544 -0.101442 -1.05282e-18)
(0.428763 -0.0986002 0)
(0.480008 -0.0958229 0)
(0.530296 -0.093113 0)
(0.579645 -0.0904713 0)
(0.628077 -0.0879024 -7.07752e-19)
(0.675626 -0.0854132 -7.10244e-19)
(0.722316 -0.0830189 0)
(0.768113 -0.0807065 0)
(0.813001 -0.0784369 0)
(0.857034 -0.0762092 0)
(0.900254 -0.0740394 0)
(0.942677 -0.0719362 0)
(0.984317 -0.0699021 -7.14018e-19)
(1.02519 -0.067937 -1.08865e-21)
(1.06531 -0.0660393 0)
(1.10471 -0.0642069 0)
(1.14339 -0.0624379 -7.1385e-19)
(1.18139 -0.0607303 0)
(1.21871 -0.0590826 7.14896e-19)
(1.25539 -0.0574933 7.14035e-19)
(1.29144 -0.055961 0)
(1.32688 -0.0544845 0)
(1.36173 -0.0530628 -7.14565e-19)
(1.39602 -0.0516948 -1.42733e-18)
(1.42976 -0.0503797 0)
(1.46298 -0.0491163 0)
(1.4957 -0.0479038 0)
(1.52793 -0.0467413 -7.13253e-19)
(1.5597 -0.0456279 7.1287e-19)
(1.59103 -0.0445624 0)
(1.62195 -0.0435438 1.42286e-18)
(1.65247 -0.0425711 7.10409e-19)
(1.68261 -0.0416427 -1.4208e-18)
(1.7124 -0.0407571 0)
(1.74185 -0.0399122 0)
(1.77099 -0.0391054 -1.41699e-18)
(1.79984 -0.0383335 -7.08204e-19)
(1.8284 -0.037592 0)
(1.85669 -0.0368753 0)
(1.88473 -0.0361758 0)
(1.91252 -0.0354833 0)
(1.94004 -0.0347843 -1.40685e-18)
(1.9673 -0.0340605 0)
(1.99425 -0.0332869 0)
(2.02086 -0.0324293 0)
(2.04704 -0.0314397 0)
(2.07268 -0.0302499 0)
(2.09761 -0.028759 0)
(2.12157 -0.0268156 -1.39751e-18)
(2.14422 -0.0241682 0)
(2.16489 -0.0204114 0)
(2.18335 -0.0147529 -2.81625e-18)
(2.19679 -0.00587537 1.41814e-18)
(2.21148 0.00887879 -1.41626e-18)
(2.20639 0.0362576 1.41171e-18)
(0.0333245 -1.1661 0)
(0.0696871 -1.02979 3.59932e-19)
(0.0339337 -0.746819 0)
(-0.0105244 -0.506334 1.10879e-19)
(-0.0658612 -0.283607 0)
(-0.133729 -0.0740112 0)
(-0.216977 0.122849 -8.28075e-20)
(-0.31798 0.306237 0)
(-0.438863 0.475711 0)
(-0.582232 0.631829 0)
(-0.751941 0.777128 0)
(-0.953203 0.917709 0)
(-1.18865 1.06168 2.04192e-19)
(-1.45268 1.21246 9.24338e-20)
(-1.73083 1.36379 -8.3686e-20)
(-2.00474 1.50231 0)
(-2.25866 1.6142 0)
(-2.48254 1.69013 0)
(-2.67161 1.72636 0)
(-2.82443 1.72418 0)
(-2.94358 1.68742 6.01621e-20)
(-3.03461 1.62133 5.88456e-20)
(-3.1036 1.53277 -5.79928e-20)
(-3.1569 1.42939 5.76914e-20)
(-3.19989 1.31789 0)
(-3.23692 1.20368 0)
(-3.27145 1.09112 5.58447e-20)
(-3.30584 0.983489 0)
(-3.34136 0.88291 0)
(-3.37852 0.790426 5.86992e-20)
(-3.41733 0.706276 6.15173e-20)
(-3.45744 0.630234 6.22289e-20)
(-3.49833 0.56177 0)
(-3.53937 0.500188 0)
(-3.57995 0.444726 -6.40391e-20)
(-3.61952 0.39463 0)
(-3.65757 0.349187 0)
(-3.69369 0.307755 6.43121e-20)
(-3.72754 0.269768 -6.60322e-20)
(-3.75885 0.234739 6.60427e-20)
(-3.78737 0.202252 0)
(-3.81294 0.171958 0)
(-3.83539 0.143559 1.30018e-19)
(-3.8546 0.116805 0)
(-3.87047 0.0914847 1.2863e-19)
(-3.88289 0.0674213 1.91042e-19)
(-3.89179 0.044471 -1.894e-19)
(-3.89711 0.0225134 1.25332e-19)
(-3.89879 0.00143156 0)
(-3.89685 -0.0188905 0)
(-3.89131 -0.038531 1.19876e-19)
(-3.88223 -0.0575087 5.84069e-20)
(-3.86965 -0.0758196 0)
(-3.85359 -0.0934627 0)
(-3.8341 -0.110437 5.49006e-20)
(-3.81122 -0.126743 1.08252e-19)
(-3.78502 -0.142377 0)
(-3.75554 -0.157339 -1.01798e-19)
(-3.72287 -0.171623 9.9969e-20)
(-3.68708 -0.185225 -9.69969e-20)
(-3.64825 -0.19814 0)
(-3.60646 -0.210363 0)
(-3.56182 -0.221889 0)
(-3.51442 -0.232715 0)
(-3.46436 -0.242845 0)
(-3.41175 -0.25228 -7.59228e-20)
(-3.35669 -0.261018 0)
(-3.29931 -0.269065 0)
(-3.23971 -0.276427 0)
(-3.17801 -0.283114 -1.2262e-19)
(-3.11433 -0.289136 -5.67021e-20)
(-3.04879 -0.294504 -5.26006e-20)
(-2.98152 -0.299233 9.80356e-20)
(-2.91262 -0.303339 -4.536e-20)
(-2.84222 -0.306839 3.98077e-20)
(-2.77045 -0.30975 0)
(-2.69742 -0.312093 -3.08843e-20)
(-2.62324 -0.313888 0)
(-2.54804 -0.315158 0)
(-2.47193 -0.315924 0)
(-2.39502 -0.31621 -2.54795e-20)
(-2.31742 -0.31604 8.47955e-21)
(-2.23925 -0.315438 4.76184e-21)
(-2.16059 -0.314429 -2.99446e-21)
(-2.08156 -0.313036 -2.10269e-20)