/*--------------------------------*- C++ -*----------------------------------*\
  =========                 |
  \\      /  F ield         | OpenFOAM: The Open Source CFD Toolbox
   \\    /   O peration     | Website:  https://openfoam.org
    \\  /    A nd           | Version:  8
     \\/     M anipulation  |
\*---------------------------------------------------------------------------*/
FoamFile
{
    version     2.0;
    format      ascii;
    class       volVectorField;
    location    "3400";
    object      wallShearStress;
}
// * * * * * * * * * * * * * * * * * * * * * * * * * * * * * * * * * * * * * //

dimensions      [0 2 -2 0 0 0 0];

internalField   uniform (0 0 0);

boundaryField
{
    inlet
    {
        type            calculated;
        value           uniform (0 0 0);
    }
    outlet
    {
        type            calculated;
        value           uniform (0 0 0);
    }
    upperWall
    {
        type            calculated;
        value           nonuniform List<vector> 
223
(
(-0.582193 -0.392359 0)
(-0.977814 -0.219377 0)
(-0.939335 -0.0567746 0)
(-0.81071 -0.00585779 0)
(-0.734594 0.00331369 0)
(-0.695452 0.00231581 0)
(-0.670934 0.000424182 0)
(-0.653508 -0.00144937 0)
(-0.64053 -0.00256153 0)
(-0.629829 -0.00218877 0)
(-0.620048 -0.00128402 0)
(-0.611037 -0.00107019 0)
(-0.602895 -0.00122423 0)
(-0.596438 -0.00151054 0)
(-0.59066 -0.000757093 0)
(-0.584845 0.000551971 0)
(-0.580095 0.000221296 0)
(-0.575244 0.00115283 0)
(-0.570803 0.00284954 0)
(-0.567383 0.00237579 4.24585e-22)
(-0.564635 0.00210224 0)
(-0.5619 0.00281375 0)
(-0.558714 0.00296158 0)
(-0.555851 0.00334696 4.49849e-22)
(-0.552831 0.00378136 0)
(-0.54989 0.00367162 0)
(-0.547146 0.00323696 0)
(-0.544373 0.00328462 -9.37899e-22)
(-0.541458 0.00313256 9.47435e-22)
(-0.538634 0.00267992 9.56435e-22)
(-0.535956 0.00228986 0)
(-0.533298 0.00201333 -9.76725e-22)
(-0.530642 0.00178562 0)
(-0.528 0.00159143 9.9975e-22)
(-0.525359 0.00143699 1.01199e-21)
(-0.522707 0.00132639 -1.02479e-21)
(-0.520035 0.0012394 0)
(-0.517346 0.00117167 0)
(-0.514636 0.0011201 0)
(-0.511903 0.00108147 0)
(-0.509144 0.00105307 -1.0905e-21)
(-0.506354 0.0010328 0)
(-0.503534 0.00101922 0)
(-0.500679 0.00101122 1.13079e-21)
(-0.497786 0.00100794 0)
(-0.494853 0.00100862 1.15732e-21)
(-0.491874 0.00101261 -1.17032e-21)
(-0.488848 0.00101932 1.18308e-21)
(-0.485771 0.00102829 0)
(-0.48264 0.00103843 0)
(-0.479455 0.0010491 0)
(-0.476216 0.00105914 1.23064e-21)
(-0.47293 0.00106733 -1.24132e-21)
(-0.469608 0.001074 0)
(-0.466265 0.00108023 0)
(-0.462916 0.00108656 0)
(-0.459571 0.0010921 0)
(-0.456237 0.00109561 0)
(-0.452913 0.00109647 0)
(-0.449595 0.00109476 0)
(-0.446274 0.00109102 0)
(-0.442943 0.00108634 1.29198e-21)
(-0.439588 0.00108199 -1.29178e-21)
(-0.436198 0.00107867 0)
(-0.432764 0.00107709 0)
(-0.429274 0.00107748 0)
(-0.425719 0.00107991 -1.27844e-21)
(-0.422091 0.00108422 0)
(-0.418383 0.00109012 0)
(-0.414589 0.00109737 0)
(-0.410706 0.00110548 0)
(-0.406729 0.00111399 0)
(-0.402657 0.00112242 -2.43452e-21)
(-0.398488 0.00113029 0)
(-0.394224 0.00113696 0)
(-0.389868 0.00114191 0)
(-0.385427 0.00114503 0)
(-0.380907 0.00114622 0)
(-0.376322 0.00114521 0)
(-0.371682 0.00114183 0)
(-0.367001 0.00113584 2.09542e-21)
(-0.362287 0.00112695 0)
(-0.35755 0.00111534 0)
(-0.352793 0.0011014 0)
(-0.34802 0.00108555 -1.83974e-21)
(-0.34323 0.00106837 0)
(-0.33842 0.0010505 -1.69029e-21)
(-0.333588 0.00103258 0)
(-0.328729 0.00101551 0)
(-0.323834 0.00100001 0)
(-0.319023 0.000992139 -1.35106e-21)
(-0.316383 0.00100128 0)
(-0.313658 0.00101516 1.18055e-21)
(-0.310853 0.00102983 1.08985e-21)
(-0.307972 0.00104298 0)
(-0.305028 0.0010539 8.96136e-22)
(-0.30203 0.00106258 0)
(-0.298993 0.00107022 0)
(-0.295932 0.00107655 0)
(-0.292858 0.00108607 -4.54657e-22)
(-0.289791 0.00109138 0)
(-0.286735 0.00110427 -2.05249e-22)
(-0.283713 0.0011062 7.32229e-23)
(-0.280722 0.00111202 0)
(-0.27779 0.00111585 0)
(-0.274909 0.00110674 0)
(-0.272097 0.00111526 0)
(-0.269353 0.00109896 0)
(-0.266657 0.000984726 0)
(-0.264141 0.000920347 0)
(-0.261678 0.00128722 1.14494e-21)
(-0.25947 0.00139097 0)
(-0.257156 0.000874327 0)
(-0.254802 0.000594429 0)
(-0.252565 0.000575669 0)
(-0.250466 0.000536088 0)
(-0.248525 0.00064878 0)
(-0.246507 0.000844058 0)
(-0.244503 0.00101633 0)
(-0.242646 0.000896476 0)
(-0.240511 0.00112366 0)
(-0.238849 0.00154915 0)
(-0.237164 0.00105212 0)
(-0.235452 0.000369028 7.16697e-21)
(-0.233574 0.000189735 0)
(-0.231965 0.000259883 0)
(-0.23018 0.000419597 0)
(-0.228542 0.000525295 -8.83099e-21)
(-0.227304 0.000500945 0)
(-0.225606 0.000498976 0)
(-0.224284 0.000504675 -1.00324e-20)
(-0.222981 0.000480772 0)
(-0.221629 0.000452002 1.088e-20)
(-0.220268 0.000536019 0)
(-0.218876 0.000531673 0)
(-0.217828 0.000492782 0)
(-0.216444 0.000578496 -1.25811e-20)
(-0.214918 0.000449985 0)
(-0.213965 0.00036408 1.33932e-20)
(-0.212844 0.000467397 0)
(-0.21199 0.000634988 0)
(-0.210878 0.000607222 0)
(-0.209793 0.000846934 0)
(-0.208891 0.00111155 0)
(-0.207773 0.000988623 0)
(-0.206964 0.000383324 0)
(-0.205857 -0.000179473 0)
(-0.204853 2.81839e-05 0)
(-0.204022 0.000156655 0)
(-0.20331 0.000187259 0)
(-0.202766 0.00029432 1.84743e-20)
(-0.201971 0.000223821 -1.89452e-20)
(-0.201717 0.000180859 0)
(-0.200868 0.000357167 0)
(-0.20007 0.000270174 0)
(-0.199873 0.000192254 0)
(-0.199101 0.000356288 -2.0958e-20)
(-0.198297 0.00026704 2.14031e-20)
(-0.198189 0.00018171 -2.16514e-20)
(-0.197368 0.00032569 0)
(-0.196715 0.00034584 -2.26205e-20)
(-0.196344 0.000190798 -4.59446e-20)
(-0.196332 0.000197971 0)
(-0.195587 0.000350879 -4.76395e-20)
(-0.194888 0.00032611 4.85405e-20)
(-0.194399 0.000191741 0)
(-0.194473 0.000288853 0)
(-0.193741 0.000409696 0)
(-0.193451 0.000419678 0)
(-0.192814 0.000732311 0)
(-0.192504 0.000731777 -5.32903e-20)
(-0.19234 0.000571769 0)
(-0.192094 0.00060318 -5.49733e-20)
(-0.192037 0.000454298 0)
(-0.1922 0.000383444 0)
(-0.191474 0.000369638 0)
(-0.190706 0.000210008 0)
(-0.190203 0.000214933 0)
(-0.189967 0.000384595 6.02785e-20)
(-0.188962 0.00030504 0)
(-0.188508 0.000126799 0)
(-0.188019 0.000273756 -6.35818e-20)
(-0.186891 0.000400742 0)
(-0.186259 0.000282257 0)
(-0.18541 -6.22238e-05 0)
(-0.18361 -0.000211503 6.93128e-20)
(-0.181963 0.000116185 0)
(-0.180598 0.000480323 0)
(-0.179346 0.000678684 0)
(-0.17819 0.000629906 0)
(-0.176432 0.000644816 -7.66204e-20)
(-0.173842 0.000709565 0)
(-0.170833 0.000735957 0)
(-0.16744 0.000834129 0)
(-0.162761 0.00105676 8.79232e-20)
(-0.156127 0.00128497 0)
(-0.149471 0.00220908 0)
(-0.123995 0.00223007 -1.08003e-19)
(-0.141664 0.00668045 6.01853e-36)
(-0.169709 0.0132121 1.25388e-17)
(-0.186958 0.0170599 2.3587e-17)
(-0.193471 0.0188513 2.2709e-17)
(-0.196904 0.0196732 2.19997e-17)
(-0.20101 0.0203109 2.11647e-17)
(-0.205476 0.0210117 -2.02556e-17)
(-0.209701 0.021522 -1.95315e-17)
(-0.213879 0.0218715 -1.20371e-35)
(-0.218102 0.022017 -3.66648e-17)
(-0.220234 0.0221811 -1.80779e-17)
(-0.224698 0.0227217 6.92131e-34)
(-0.227504 0.0229049 0)
(-0.231078 0.0233619 -3.22686e-17)
(-0.235462 0.023948 -3.06546e-17)
(-0.242442 0.0247961 -2.84631e-17)
(-0.249621 0.0254555 0)
(-0.25693 0.0260695 4.94001e-17)
(-0.263932 0.0266558 2.26556e-17)
(-0.271713 0.0273459 0)
(-0.281078 0.028171 -3.51287e-17)
(-0.290383 0.0289008 -1.52852e-20)
(-0.300203 0.0295016 -3.00927e-36)
(-0.305078 0.0304938 1.34162e-17)
(-0.332323 0.0321448 -7.6442e-18)
)
;
    }
    lowerWall
    {
        type            calculated;
        value           nonuniform List<vector> 
250
(
(-0.653909 0.466638 0)
(-1.14095 0.204678 0)
(-1.03492 0.0379586 0)
(-0.869573 -0.000935999 0)
(-0.786941 -0.00419164 0)
(-0.746063 -0.00160785 0)
(-0.719878 0.000416133 0)
(-0.700645 -0.00065185 0)
(-0.685088 -0.00405603 0)
(-0.671317 -0.00471236 0)
(-0.658931 -0.00298841 0)
(-0.647718 -0.000864482 0)
(-0.637514 0.00142579 0)
(-0.628187 0.00210352 0)
(-0.619317 0.00136751 0)
(-0.611516 0.00135678 0)
(-0.604573 0.00169487 0)
(-0.605056 0.00194145 0)
(-0.00423429 -0.0228294 0)
(-0.00275792 -0.0176441 0)
(-0.000679586 -0.0144931 0)
(0.00193836 -0.0138025 9.02342e-20)
(0.00525608 -0.0152185 -7.8635e-20)
(0.008954 -0.0208327 6.28337e-20)
(0.0127396 -0.0200916 -4.84598e-20)
(0.02564 -0.0633065 0)
(-0.0840197 -0.144727 0)
(0.000872739 -0.00384093 0)
(-0.00766559 0.00954673 0)
(-0.00851639 0.0328222 0)
(-0.00254962 0.0448562 0)
(0.00295322 0.0442622 1.8222e-20)
(0.00618268 0.0360637 -1.89655e-20)
(0.00818728 0.0241613 0)
(0.00946072 0.0101604 -5.42285e-20)
(0.00943185 -0.00404308 6.11413e-20)
(0.0079334 -0.0174236 0)
(0.00614127 -0.0291964 0)
(0.00438175 -0.038564 0)
(0.00268705 -0.0451413 0)
(0.00098603 -0.0488798 0)
(-0.000886946 -0.0495148 0)
(-0.0028191 -0.0463974 0)
(-0.00439771 -0.0399085 0)
(-0.00491332 -0.0307476 0)
(0.00132865 -0.00151238 0)
(0.00133809 0.00652741 0)
(-0.00450935 0.00961884 0)
(-0.00959744 0.00975665 0)
(-0.0133835 0.0082996 0)
(-0.0158897 0.00623522 0)
(-0.0172646 0.00409757 1.49571e-21)
(-0.0177833 0.00200599 -1.52732e-21)
(-0.0173317 -7.19451e-06 0)
(-0.016054 -0.00168647 -1.65307e-21)
(-0.0141885 -0.00283776 0)
(-0.0120503 -0.0032966 0)
(-0.0100506 -0.00303595 -0)
(-0.00855294 -0.00228029 2.5703e-21)
(-0.00761626 -0.00142304 0)
(-0.00693796 -0.000815849 0)
(-0.0061204 -0.000623451 -3.37827e-21)
(-0.00499276 -0.00100056 0)
(-0.00340827 -0.00238619 0)
(-0.000488225 -0.0050579 0)
(0.00436131 -0.0074039 3.03289e-21)
(0.00994637 -0.00889535 0)
(0.0158475 -0.00985015 1.46908e-21)
(0.021893 -0.0106172 0)
(0.0280988 -0.0112692 -0)
(0.0344094 -0.0115145 8.4468e-22)
(0.0405418 -0.0113547 0)
(0.0491507 -0.0116036 -7.54042e-22)
(0.058941 -0.0117555 -0)
(0.0686353 -0.0115829 7.70705e-22)
(0.0780444 -0.0111691 0)
(0.0870175 -0.0105843 0)
(0.0954621 -0.00989024 0)
(0.10332 -0.00913669 -0)
(0.110567 -0.00836081 0)
(0.1172 -0.00758963 -8.11162e-22)
(0.123233 -0.00684051 -0)
(0.128689 -0.00612282 1.6331e-21)
(0.133595 -0.00544047 0)
(0.137977 -0.00479423 -1.63498e-21)
(0.141862 -0.00418214 -0)
(0.145275 -0.00360146 -0)
(0.148236 -0.00304961 1.62107e-21)
(0.150762 -0.00252412 0)
(0.152867 -0.00202412 1.60086e-21)
(0.154565 -0.00155037 -1.58754e-21)
(0.155867 -0.00110625 -0)
(0.156786 -0.000698801 -1.55493e-21)
(0.157332 -0.000337854 -1.53589e-21)
(0.157518 -3.9817e-05 -0)
(0.157412 0.000194812 0)
(0.157081 0.000391611 0)
(0.156526 0.000568261 0)
(0.155765 0.000731106 -0)
(0.154804 0.000884308 1.37582e-21)
(0.153652 0.00102844 0)
(0.152316 0.00116413 -1.30704e-21)
(0.150803 0.00129173 -0)
(0.14912 0.00141134 -0)
(0.147275 0.00152304 1.19058e-21)
(0.145275 0.00162658 0)
(0.143129 0.00172204 -1.10488e-21)
(0.140845 0.00180948 -0)
(0.138432 0.00188884 0)
(0.135898 0.00196007 -0)
(0.133252 0.00202337 9.1684e-22)
(0.130503 0.00207874 0)
(0.127661 0.0021263 -0)
(0.124735 0.00216627 7.63788e-22)
(0.121733 0.00219871 0)
(0.118666 0.00222398 6.57247e-22)
(0.115542 0.00224219 0)
(0.112371 0.00225364 0)
(0.10916 0.00225861 0)
(0.105919 0.00225731 -4.36152e-22)
(0.102656 0.00225014 -0)
(0.0993796 0.00223736 0)
(0.0960967 0.00221927 -2.65542e-22)
(0.0928154 0.00219634 -2.0809e-22)
(0.0895422 0.00216879 -0)
(0.0862847 0.00213702 -9.2618e-23)
(0.0830486 0.0021015 -0)
(0.07984 0.00206246 4.66842e-23)
(0.0766647 0.00202035 -0)
(0.0735276 0.00197558 2.79112e-22)
(0.0704336 0.00192867 0)
(0.0673867 0.00188017 -5.11805e-22)
(0.0643909 0.00183084 -0)
(0.0614492 0.00178162 0)
(0.0585644 0.00173385 -0)
(0.0557385 0.00168929 9.78595e-22)
(0.0529724 0.00165001 0)
(0.0502671 0.00161819 -1.21404e-21)
(0.0476208 0.00159493 0)
(0.045783 0.00160363 1.47584e-21)
(0.0442404 0.00162116 1.63437e-21)
(0.0427014 0.00162602 1.7993e-21)
(0.041174 0.00161312 0)
(0.0396636 0.00158982 0)
(0.0381697 0.00156412 0)
(0.0366915 0.00153828 0)
(0.0352285 0.0015126 0)
(0.0337813 0.001487 0)
(0.0323502 0.00146151 0)
(0.0309361 0.00143626 0)
(0.0295391 0.00141145 -3.6923e-21)
(0.0281597 0.00138728 -3.96798e-21)
(0.0267979 0.00136384 0)
(0.025454 0.00134084 0)
(0.0241286 0.00131677 0)
(0.0228228 0.0012919 -5.26812e-21)
(0.0215365 0.00126772 0)
(0.0202698 0.00124404 0)
(0.0190228 0.00122097 0)
(0.0177954 0.00119855 0)
(0.0165877 0.00117682 7.53716e-21)
(0.0153998 0.00115587 0)
(0.0142316 0.00113579 0)
(0.0130831 0.00111668 -9.4564e-21)
(0.011954 0.00109857 1.02341e-20)
(0.0108444 0.00108156 0)
(0.00975426 0.00106595 1.2071e-20)
(0.00868343 0.00105236 0)
(0.00763158 0.00104199 -1.44101e-20)
(0.00659801 0.00103511 0)
(0.00558238 0.00103071 0)
(0.00458467 0.00102849 0)
(0.00360443 0.00102878 0)
(0.00264122 0.00103181 0)
(0.00169551 0.00103754 5.57278e-20)
(0.00076879 0.00104311 6.4243e-20)
(-0.000140984 0.00103031 0)
(-0.00103823 0.0009874 0)
(-0.00191997 0.000934995 0)
(-0.00278622 0.000885498 -5.28779e-20)
(-0.00363683 0.00084058 0)
(-0.00447165 0.000799831 0)
(-0.00529104 0.000762766 0)
(-0.00609558 0.000728883 -4.0411e-20)
(-0.00688582 0.000697738 3.83618e-20)
(-0.00766229 0.000668936 0)
(-0.0084254 0.000642187 0)
(-0.00917567 0.000617241 3.36158e-20)
(-0.0099135 0.000593897 3.2376e-20)
(-0.0106394 0.000571987 0)
(-0.0113536 0.000551383 0)
(-0.0120568 0.00053197 -2.93518e-20)
(-0.0127492 0.000513646 2.85242e-20)
(-0.0134314 0.000496331 0)
(-0.0141036 0.00047996 0)
(-0.0147664 0.000464472 2.64349e-20)
(-0.0154202 0.000449811 0)
(-0.0160655 0.000435937 0)
(-0.0167026 0.0004228 2.47896e-20)
(-0.0173321 0.000410369 0)
(-0.0179544 0.000398608 2.38737e-20)
(-0.0185699 0.000387489 0)
(-0.0191792 0.000376976 0)
(-0.0197827 0.000367041 0)
(-0.0203808 0.000357647 -2.23581e-20)
(-0.020974 0.000348775 0)
(-0.0215629 0.000340371 0)
(-0.0221475 0.00033238 0)
(-0.0227284 0.000324737 0)
(-0.0233056 0.00031738 0)
(-0.0238794 0.000310192 0)
(-0.0244495 0.000302999 -2.0385e-20)
(-0.0250155 0.000295624 -2.01547e-20)
(-0.0255766 0.000287805 0)
(-0.0261314 0.000279142 0)
(-0.0266776 0.000269095 0)
(-0.0272118 0.000256964 1.93601e-20)
(-0.0277291 0.000241492 0)
(-0.0282209 0.000221255 -3.81341e-20)
(-0.0286778 0.000192206 3.79279e-20)
(-0.0290708 0.000152584 3.78188e-20)
(-0.029402 7.78506e-05 -3.78574e-20)
(-0.0294837 -3.94409e-05 3.80446e-20)
(-0.0295082 -0.000356606 -3.83967e-20)
(-0.0279736 -0.000616916 0)
(-0.0293464 -0.000516251 -2.43313e-18)
(-0.0327699 -0.00134246 -2.26972e-18)
(-0.0364134 -0.00203344 3.00927e-36)
(-0.0395343 -0.0025761 -4.06078e-18)
(-0.0424843 -0.00301862 -7.75764e-18)
(-0.0455567 -0.00342187 -3.71951e-18)
(-0.0487812 -0.00381784 3.56813e-18)
(-0.0521118 -0.00430694 0)
(-0.0556018 -0.00472359 3.00927e-36)
(-0.0593109 -0.00502871 3.15103e-18)
(-0.063238 -0.00544345 3.02964e-18)
(-0.0674405 -0.00584833 0)
(-0.0719266 -0.00622885 0)
(-0.0767373 -0.00668714 0)
(-0.0819245 -0.00719681 -7.97926e-35)
(-0.0875407 -0.0077469 5.61886e-35)
(-0.0936579 -0.00835063 1.38426e-34)
(-0.100328 -0.009015 -4.15843e-18)
(-0.107691 -0.00973573 -3.81242e-18)
(-0.116752 -0.0106279 6.01853e-36)
(-0.127569 -0.0116306 6.13703e-18)
(-0.138424 -0.0127368 1.03498e-17)
(-0.15365 -0.0139296 1.20371e-35)
(-0.16285 -0.015296 -5.09826e-18)
(-0.191964 -0.0169834 -3.00927e-36)
)
;
    }
    frontAndBack
    {
        type            empty;
    }
}


// ************************************************************************* //
