/*--------------------------------*- C++ -*----------------------------------*\
  =========                 |
  \\      /  F ield         | OpenFOAM: The Open Source CFD Toolbox
   \\    /   O peration     | Website:  https://openfoam.org
    \\  /    A nd           | Version:  8
     \\/     M anipulation  |
\*---------------------------------------------------------------------------*/
FoamFile
{
    version     2.0;
    format      ascii;
    class       volVectorField;
    location    "4100";
    object      wallShearStress;
}
// * * * * * * * * * * * * * * * * * * * * * * * * * * * * * * * * * * * * * //

dimensions      [0 2 -2 0 0 0 0];

internalField   uniform (0 0 0);

boundaryField
{
    inlet
    {
        type            calculated;
        value           uniform (0 0 0);
    }
    outlet
    {
        type            calculated;
        value           uniform (0 0 0);
    }
    upperWall
    {
        type            calculated;
        value           nonuniform List<vector> 
223
(
(-0.582193 -0.392359 0)
(-0.977814 -0.219377 0)
(-0.939336 -0.0567747 0)
(-0.81071 -0.00585779 0)
(-0.734594 0.00331372 0)
(-0.695452 0.00231545 0)
(-0.670941 0.000424224 0)
(-0.653507 -0.00144879 0)
(-0.640532 -0.0025625 0)
(-0.629821 -0.00218351 0)
(-0.620058 -0.00130529 0)
(-0.610993 -0.00107838 0)
(-0.603033 -0.00138849 0)
(-0.596184 -0.00127384 0)
(-0.590434 -0.0010605 0)
(-0.585075 -0.000334575 0)
(-0.579787 0.00168715 0)
(-0.575194 0.00141472 0)
(-0.571309 0.00162532 0)
(-0.567715 0.00312828 4.27743e-22)
(-0.564341 0.00251105 0)
(-0.561641 0.00175047 0)
(-0.558902 0.00303621 0)
(-0.555755 0.00321356 4.48343e-22)
(-0.552843 0.00331364 0)
(-0.54995 0.00393377 0)
(-0.546937 0.00376721 0)
(-0.544106 0.00348254 -9.38156e-22)
(-0.541328 0.00298073 9.46064e-22)
(-0.538633 0.00256637 9.5651e-22)
(-0.535952 0.00245936 0)
(-0.533231 0.00218855 -9.785e-22)
(-0.530575 0.00194055 0)
(-0.527935 0.00174261 1.0015e-21)
(-0.525292 0.0015738 1.01358e-21)
(-0.52264 0.00144505 -1.02614e-21)
(-0.519969 0.00134116 0)
(-0.517283 0.00125825 0)
(-0.514578 0.00119383 0)
(-0.51185 0.00114453 0)
(-0.509095 0.00110721 -1.09095e-21)
(-0.50631 0.0010793 0)
(-0.503494 0.00105922 0)
(-0.500642 0.00104581 1.13114e-21)
(-0.497753 0.00103784 0)
(-0.494822 0.00103444 1.15763e-21)
(-0.491846 0.00103492 -1.17063e-21)
(-0.488823 0.00103847 1.18338e-21)
(-0.485748 0.00104485 0)
(-0.482619 0.00105281 0)
(-0.479435 0.00106141 0)
(-0.476199 0.00106959 1.23088e-21)
(-0.472914 0.00107627 -1.24155e-21)
(-0.469593 0.00108162 0)
(-0.466252 0.00108662 0)
(-0.462904 0.00109182 0)
(-0.459561 0.00109644 0)
(-0.456227 0.00109916 0)
(-0.452904 0.00109921 0)
(-0.449586 0.00109684 0)
(-0.446267 0.00109263 0)
(-0.442935 0.00108745 1.29204e-21)
(-0.439581 0.00108262 -1.29181e-21)
(-0.436193 0.00107901 0)
(-0.432759 0.00107714 0)
(-0.429269 0.00107732 0)
(-0.425715 0.00107958 -1.27844e-21)
(-0.422087 0.00108376 0)
(-0.418379 0.00108956 0)
(-0.414587 0.00109675 0)
(-0.410703 0.00110483 0)
(-0.406727 0.00111332 0)
(-0.402655 0.00112179 -2.43454e-21)
(-0.398486 0.00112963 0)
(-0.394223 0.00113627 0)
(-0.389868 0.00114135 0)
(-0.385426 0.00114451 0)
(-0.380907 0.00114568 0)
(-0.376322 0.00114475 0)
(-0.371682 0.00114137 0)
(-0.367001 0.00113538 2.09552e-21)
(-0.362288 0.00112657 0)
(-0.357551 0.00111503 0)
(-0.352795 0.00110112 0)
(-0.348022 0.00108526 -1.83988e-21)
(-0.343232 0.00106811 0)
(-0.338423 0.0010503 -1.69046e-21)
(-0.333591 0.00103239 0)
(-0.328732 0.00101526 0)
(-0.323838 0.000999781 0)
(-0.319025 0.000991989 -1.35128e-21)
(-0.316385 0.00100111 0)
(-0.313661 0.00101499 1.18082e-21)
(-0.310856 0.00102968 1.09013e-21)
(-0.307976 0.00104283 0)
(-0.305031 0.00105376 8.96455e-22)
(-0.302034 0.00106243 0)
(-0.298997 0.00107014 0)
(-0.295936 0.00107629 0)
(-0.292863 0.00108612 -4.55064e-22)
(-0.289795 0.00109064 0)
(-0.286741 0.0011033 -2.05697e-22)
(-0.283717 0.00110719 7.37096e-23)
(-0.280728 0.00111082 0)
(-0.277793 0.0011161 0)
(-0.27492 0.00109923 0)
(-0.272108 0.00112511 0)
(-0.269389 0.00112272 0)
(-0.266705 0.00111357 0)
(-0.26421 0.00106062 0)
(-0.261707 0.00136264 1.14381e-21)
(-0.259473 0.00159816 0)
(-0.257298 0.00112127 0)
(-0.255241 0.000857143 0)
(-0.253071 0.00124229 0)
(-0.251089 0.00132753 0)
(-0.249126 0.000650562 0)
(-0.246966 0.000184493 0)
(-0.244826 0.000269994 0)
(-0.24278 0.000414405 0)
(-0.240823 0.000368184 0)
(-0.238845 0.00036053 0)
(-0.236976 0.000520719 0)
(-0.235079 0.000628647 7.20913e-21)
(-0.233597 0.000604967 0)
(-0.23207 0.000567005 0)
(-0.230386 0.000567924 0)
(-0.22895 0.000618935 -8.78215e-21)
(-0.227357 0.000702088 0)
(-0.22574 0.000797043 0)
(-0.224291 0.000731545 -1.00444e-20)
(-0.22297 0.000656481 0)
(-0.221486 0.000957876 1.08561e-20)
(-0.220362 0.00130996 0)
(-0.219082 0.00125388 0)
(-0.218114 0.00101994 0)
(-0.216852 0.000986221 -1.25065e-20)
(-0.215854 0.000302829 0)
(-0.214361 -0.000368329 1.34908e-20)
(-0.213042 -4.31282e-05 0)
(-0.21192 0.000238492 0)
(-0.210824 0.000277274 0)
(-0.209922 0.000696162 0)
(-0.208874 0.000935519 0)
(-0.208295 0.000562747 0)
(-0.207266 0.000662682 0)
(-0.206743 0.000824193 0)
(-0.206272 0.000623868 0)
(-0.205818 0.000517755 0)
(-0.204861 0.000460414 0)
(-0.203845 0.000474804 1.84065e-20)
(-0.203281 0.000411318 -1.87384e-20)
(-0.20247 0.000146566 0)
(-0.201737 -3.91356e-05 0)
(-0.200937 0.000239941 0)
(-0.200518 0.000391119 0)
(-0.200213 0.000263458 -2.07561e-20)
(-0.199729 0.000174579 2.12062e-20)
(-0.199188 7.39985e-05 -2.16386e-20)
(-0.198319 0.000128804 0)
(-0.197668 0.000401556 -2.25069e-20)
(-0.197302 0.000469926 -4.56334e-20)
(-0.197132 0.000174667 0)
(-0.196729 1.24364e-05 -4.73641e-20)
(-0.195867 0.000256557 4.84487e-20)
(-0.19562 0.000478317 0)
(-0.195264 0.000415372 0)
(-0.194797 -0.000155432 0)
(-0.193743 -0.000582022 0)
(-0.192903 -0.000311487 0)
(-0.19277 -9.21632e-05 -5.3399e-20)
(-0.192009 8.24556e-05 0)
(-0.191438 3.56056e-05 -5.53734e-20)
(-0.191526 6.06433e-05 0)
(-0.190764 0.000168592 0)
(-0.190559 0.000261315 0)
(-0.189718 0.000302384 0)
(-0.189472 0.000436765 0)
(-0.188863 0.000637174 6.06579e-20)
(-0.188337 0.000726937 0)
(-0.188185 0.000688539 0)
(-0.187381 0.000523866 -6.37672e-20)
(-0.187072 0.000404845 0)
(-0.185964 0.000393755 0)
(-0.185296 0.000455935 0)
(-0.184236 0.000290099 6.8608e-20)
(-0.183393 0.000373794 0)
(-0.18185 0.000470518 0)
(-0.180471 0.000356418 0)
(-0.178836 0.00045472 0)
(-0.176256 0.000583318 -7.70721e-20)
(-0.174204 0.000573398 0)
(-0.171471 0.000591418 0)
(-0.167838 0.000822469 0)
(-0.162878 0.00106397 8.79348e-20)
(-0.155961 0.00129463 0)
(-0.149046 0.00217785 0)
(-0.124201 0.00218386 -1.07528e-19)
(-0.141748 0.00666182 6.01853e-36)
(-0.169727 0.0131903 1.25342e-17)
(-0.18697 0.0170612 2.35764e-17)
(-0.193376 0.0188333 2.27401e-17)
(-0.197045 0.0196725 2.19458e-17)
(-0.200935 0.020303 2.12025e-17)
(-0.205464 0.0210033 -2.02534e-17)
(-0.209683 0.0215187 -1.95288e-17)
(-0.213851 0.0218682 6.01853e-36)
(-0.21807 0.0220129 -3.66637e-17)
(-0.220205 0.0221774 -1.80777e-17)
(-0.224676 0.022718 8.30557e-34)
(-0.227505 0.0229027 -2.40741e-35)
(-0.23105 0.0233629 -3.228e-17)
(-0.235336 0.023935 -3.06863e-17)
(-0.242334 0.0247786 -2.84663e-17)
(-0.249512 0.025444 -2.40741e-35)
(-0.256853 0.0260672 4.94052e-17)
(-0.263903 0.0266467 2.26468e-17)
(-0.272745 0.0274455 1.20371e-35)
(-0.28265 0.0283564 -3.48629e-17)
(-0.291208 0.0289987 -1.58069e-20)
(-0.300874 0.0295771 0)
(-0.30443 0.030416 1.34855e-17)
(-0.332556 0.032149 -7.62915e-18)
)
;
    }
    lowerWall
    {
        type            calculated;
        value           nonuniform List<vector> 
250
(
(-0.653909 0.466638 0)
(-1.14095 0.204678 0)
(-1.03492 0.0379587 0)
(-0.869573 -0.000935979 0)
(-0.786941 -0.00419161 0)
(-0.746063 -0.00160781 0)
(-0.719878 0.00041619 0)
(-0.700645 -0.000651785 0)
(-0.685088 -0.00405593 0)
(-0.671318 -0.00471221 0)
(-0.658932 -0.00298823 0)
(-0.64772 -0.000864259 0)
(-0.637516 0.00142603 0)
(-0.628189 0.00210385 0)
(-0.61932 0.00136789 0)
(-0.611521 0.00135745 0)
(-0.60458 0.00169578 0)
(-0.605068 0.00194286 0)
(-0.00426033 -0.0228578 0)
(-0.00275876 -0.0176426 0)
(-0.000676795 -0.0144935 0)
(0.00194475 -0.0137781 9.02259e-20)
(0.00526921 -0.0151987 -7.86183e-20)
(0.00896213 -0.0208217 6.2849e-20)
(0.0127408 -0.0200878 -4.84737e-20)
(0.0256271 -0.0633165 0)
(-0.0840678 -0.144715 0)
(0.000872508 -0.0038403 0)
(-0.00766507 0.00954621 0)
(-0.00851602 0.0328207 0)
(-0.00254951 0.0448546 0)
(0.00295323 0.0442611 1.82228e-20)
(0.00618255 0.0360629 -1.89662e-20)
(0.00818698 0.0241612 0)
(0.00946027 0.010161 -5.42296e-20)
(0.00943145 -0.00404185 6.11451e-20)
(0.00793316 -0.0174217 0)
(0.00614115 -0.0291941 0)
(0.00438167 -0.0385617 0)
(0.00268717 -0.0451386 0)
(0.000986041 -0.0488786 0)
(-0.000885097 -0.0495137 0)
(-0.00282046 -0.0464076 0)
(-0.00437894 -0.0399021 0)
(-0.00492608 -0.0308266 0)
(0.00132856 -0.00151201 0)
(0.00133785 0.00652689 0)
(-0.00450907 0.00961821 0)
(-0.00959689 0.00975617 0)
(-0.0133828 0.00829928 0)
(-0.015889 0.00623503 0)
(-0.017264 0.00409748 1.49579e-21)
(-0.0177826 0.00200598 -1.52739e-21)
(-0.0173311 -7.13173e-06 0)
(-0.0160535 -0.00168637 -1.65314e-21)
(-0.014188 -0.00283765 0)
(-0.01205 -0.0032965 0)
(-0.0100503 -0.00303588 -0)
(-0.00855273 -0.00228023 2.57043e-21)
(-0.00761614 -0.00142297 0)
(-0.00693794 -0.000815763 0)
(-0.0061205 -0.000623349 -3.37832e-21)
(-0.00499294 -0.00100037 0)
(-0.00340863 -0.00238581 0)
(-0.000488817 -0.00505741 0)
(0.00436044 -0.00740349 3.03326e-21)
(0.00994532 -0.00889506 0)
(0.0158463 -0.00984993 1.4692e-21)
(0.0218917 -0.0106169 0)
(0.0280975 -0.0112689 -0)
(0.0344079 -0.0115143 8.44723e-22)
(0.0405404 -0.0113546 0)
(0.0491479 -0.0116032 -7.54054e-22)
(0.058938 -0.0117553 -0)
(0.0686323 -0.0115827 7.70715e-22)
(0.0780412 -0.0111689 0)
(0.0870142 -0.0105841 0)
(0.0954585 -0.0098901 0)
(0.103316 -0.00913663 -0)
(0.110563 -0.00836081 0)
(0.117196 -0.00758964 -8.11169e-22)
(0.123229 -0.0068404 -0)
(0.128685 -0.00612274 1.63311e-21)
(0.133591 -0.00544049 0)
(0.137973 -0.00479419 -1.63499e-21)
(0.141859 -0.00418212 -0)
(0.145271 -0.00360144 -0)
(0.148232 -0.0030496 1.62108e-21)
(0.150758 -0.00252412 0)
(0.152863 -0.00202413 1.60086e-21)
(0.154561 -0.00155039 -1.58755e-21)
(0.155863 -0.00110628 -0)
(0.156782 -0.000698838 -1.55493e-21)
(0.157328 -0.000337889 -1.5359e-21)
(0.157514 -3.98507e-05 -0)
(0.157408 0.000194776 0)
(0.157077 0.000391496 0)
(0.156523 0.000568209 0)
(0.155761 0.000731116 -0)
(0.154801 0.000884175 1.37583e-21)
(0.153649 0.0010283 0)
(0.152312 0.00116398 -1.30705e-21)
(0.150799 0.00129163 -0)
(0.149116 0.00141129 -0)
(0.147271 0.00152285 1.1906e-21)
(0.145272 0.00162638 0)
(0.143126 0.00172188 -1.1049e-21)
(0.140842 0.00180924 -0)
(0.138429 0.00188858 0)
(0.135895 0.00195985 -0)
(0.13325 0.00202305 9.16876e-22)
(0.130501 0.00207839 0)
(0.127659 0.00212592 -0)
(0.124733 0.00216578 7.63834e-22)
(0.121732 0.00219825 0)
(0.118665 0.00222347 6.57302e-22)
(0.115542 0.00224164 0)
(0.11237 0.00225306 0)
(0.10916 0.00225801 0)
(0.105919 0.00225672 -4.36223e-22)
(0.102657 0.00224958 -0)
(0.0993801 0.00223688 0)
(0.0960976 0.00221895 -2.65622e-22)
(0.0928164 0.00219628 -2.08173e-22)
(0.0895435 0.00216913 -0)
(0.0862858 0.00213776 -9.26999e-23)
(0.0830498 0.00210249 -0)
(0.079841 0.00206344 4.65241e-23)
(0.0766655 0.00202081 -0)
(0.0735284 0.00197516 2.78916e-22)
(0.070435 0.00192759 0)
(0.0673888 0.00187935 -5.11612e-22)
(0.0643934 0.00183112 -0)
(0.0614512 0.00178273 0)
(0.0585658 0.00173437 -0)
(0.05574 0.00168863 9.78337e-22)
(0.0529748 0.00164946 0)
(0.0502694 0.00161841 -1.21384e-21)
(0.047623 0.00159494 0)
(0.0457845 0.00160334 1.47557e-21)
(0.0442422 0.00162106 1.63409e-21)
(0.0427031 0.00162597 1.799e-21)
(0.0411755 0.00161306 0)
(0.0396653 0.00158971 0)
(0.0381716 0.00156407 0)
(0.0366932 0.00153827 0)
(0.0352302 0.00151252 0)
(0.0337832 0.0014869 0)
(0.0323523 0.00146144 0)
(0.0309381 0.00143625 0)
(0.029541 0.0014114 -3.69179e-21)
(0.0281618 0.00138721 -3.96743e-21)
(0.0268 0.0013638 0)
(0.0254561 0.00134079 0)
(0.0241307 0.00131673 0)
(0.0228249 0.00129185 -5.26737e-21)
(0.0215386 0.00126765 0)
(0.0202721 0.00124398 0)
(0.019025 0.00122092 0)
(0.0177977 0.00119849 0)
(0.0165901 0.00117676 7.53599e-21)
(0.0154022 0.0011558 0)
(0.0142341 0.00113572 0)
(0.0130855 0.0011166 -9.45478e-21)
(0.0119565 0.00109848 1.02323e-20)
(0.0108469 0.00108147 0)
(0.00975681 0.00106584 1.20686e-20)
(0.00868603 0.00105225 0)
(0.00763419 0.00104186 -1.44068e-20)
(0.00660067 0.00103497 0)
(0.00558508 0.00103055 0)
(0.00458742 0.00102833 0)
(0.00360722 0.00102861 0)
(0.00264407 0.00103163 0)
(0.00169838 0.00103734 5.57071e-20)
(0.000771688 0.00104291 6.42158e-20)
(-0.000138046 0.0010302 0)
(-0.00103524 0.000987377 0)
(-0.00191697 0.000934981 0)
(-0.00278319 0.000885481 -5.28936e-20)
(-0.00363378 0.000840554 0)
(-0.00446859 0.000799802 0)
(-0.00528798 0.000762734 0)
(-0.00609253 0.00072885 -4.04195e-20)
(-0.00688279 0.000697698 3.83693e-20)
(-0.00765925 0.000668901 0)
(-0.0084224 0.000642154 0)
(-0.00917269 0.000617207 3.36213e-20)
(-0.00991055 0.000593863 3.23809e-20)
(-0.0106364 0.000571961 0)
(-0.0113508 0.000551359 0)
(-0.0120539 0.000531947 -2.93556e-20)
(-0.0127464 0.000513627 2.85276e-20)
(-0.0134286 0.00049632 0)
(-0.0141009 0.000479954 0)
(-0.0147637 0.000464471 2.64377e-20)
(-0.0154176 0.000449815 0)
(-0.0160629 0.000435946 0)
(-0.0167001 0.000422818 2.4792e-20)
(-0.0173297 0.000410392 0)
(-0.017952 0.000398635 2.38759e-20)
(-0.0185676 0.00038752 0)
(-0.019177 0.000377011 0)
(-0.0197805 0.000367078 0)
(-0.0203788 0.000357683 -2.23597e-20)
(-0.020972 0.000348823 0)
(-0.021561 0.000340419 0)
(-0.0221457 0.000332411 0)
(-0.0227266 0.000324786 0)
(-0.0233039 0.00031743 0)
(-0.0238778 0.000310224 0)
(-0.0244479 0.000303031 -2.0386e-20)
(-0.0250139 0.000295655 -2.01556e-20)
(-0.0255749 0.000287836 0)
(-0.0261298 0.000279191 0)
(-0.0266761 0.000269143 0)
(-0.0272103 0.000256995 1.93607e-20)
(-0.0277277 0.000241539 0)
(-0.0282197 0.000221302 -3.81352e-20)
(-0.0286766 0.000192253 3.7929e-20)
(-0.0290697 0.000152631 3.78199e-20)
(-0.029401 7.78844e-05 -3.78585e-20)
(-0.0294827 -3.9386e-05 3.80454e-20)
(-0.0295074 -0.000356546 -3.83976e-20)
(-0.0279728 -0.000616879 0)
(-0.0293455 -0.000516205 -2.43317e-18)
(-0.0327693 -0.00134241 -2.26974e-18)
(-0.0364128 -0.00203336 -3.00927e-36)
(-0.0395339 -0.00257607 -4.06082e-18)
(-0.0424833 -0.00301892 -7.75771e-18)
(-0.0455568 -0.0034204 -3.71944e-18)
(-0.0487828 -0.00381925 3.56822e-18)
(-0.0521126 -0.00432475 1.80556e-35)
(-0.0556018 -0.00473861 6.01853e-36)
(-0.0593136 -0.00502469 3.14984e-18)
(-0.0632486 -0.00542755 3.02881e-18)
(-0.0674272 -0.00585273 6.01853e-36)
(-0.0719211 -0.00626169 0)
(-0.0767411 -0.00670966 0)
(-0.0819344 -0.00720107 9.78011e-36)
(-0.0875527 -0.00774151 -5.97621e-35)
(-0.0936687 -0.00834188 9.0278e-35)
(-0.100337 -0.00900563 -4.15791e-18)
(-0.107699 -0.00972695 -3.81218e-18)
(-0.116761 -0.0106209 1.20371e-35)
(-0.127576 -0.011625 6.13674e-18)
(-0.138429 -0.0127324 1.03492e-17)
(-0.153654 -0.0139261 6.01853e-36)
(-0.162852 -0.0152934 -5.09799e-18)
(-0.191966 -0.0169814 -2.10649e-35)
)
;
    }
    frontAndBack
    {
        type            empty;
    }
}


// ************************************************************************* //
