/*--------------------------------*- C++ -*----------------------------------*\
  =========                 |
  \\      /  F ield         | OpenFOAM: The Open Source CFD Toolbox
   \\    /   O peration     | Website:  https://openfoam.org
    \\  /    A nd           | Version:  8
     \\/     M anipulation  |
\*---------------------------------------------------------------------------*/
FoamFile
{
    version     2.0;
    format      ascii;
    class       volScalarField;
    location    "3600";
    object      nuTilda;
}
// * * * * * * * * * * * * * * * * * * * * * * * * * * * * * * * * * * * * * //

dimensions      [0 2 -1 0 0 0 0];

internalField   nonuniform List<scalar> 
12225
(
0.0122671
0.00158833
0.000666932
0.000412201
0.000298001
0.000234418
0.000192049
0.000186517
0.000141364
0.000110263
9.73199e-05
9.07189e-05
8.20027e-05
7.63417e-05
7.17067e-05
7.0172e-05
6.81328e-05
7.40039e-05
0.0323823
0.00744533
0.00330642
0.00204338
0.00146818
0.00114477
0.000936743
0.000800566
0.000680242
0.000578059
0.000507246
0.00045356
0.000411866
0.000380371
0.00035202
0.000329993
0.000313754
0.000295881
0.0490123
0.01515
0.00728196
0.00457856
0.00330642
0.00258059
0.00211241
0.00178924
0.00154196
0.00134781
0.00119795
0.00107898
0.000982388
0.000902873
0.000836437
0.000781445
0.000736159
0.000687885
0.063054
0.0237783
0.0122894
0.00788815
0.00573398
0.004485
0.00367415
0.00310736
0.00268476
0.00235811
0.00210119
0.00189468
0.00172542
0.00158464
0.0014663
0.00136623
0.00128167
0.00119814
0.074932
0.0328517
0.0181452
0.0119262
0.00874549
0.00686413
0.00563081
0.00476256
0.0041175
0.00362032
0.00322735
0.00290996
0.00264904
0.00243149
0.00224806
0.00209196
0.00195835
0.00183637
0.0849536
0.0420208
0.0246655
0.0166359
0.0123325
0.00972587
0.0079954
0.00676785
0.00585346
0.00514771
0.00458846
0.00413589
0.00376337
0.00345242
0.00318986
0.002966
0.00277365
0.00260477
0.0933822
0.0510219
0.0316642
0.0219415
0.016474
0.0130717
0.0107779
0.00913552
0.00790571
0.00695341
0.00619691
0.00558368
0.00507838
0.00465634
0.00429978
0.00399563
0.00373417
0.00350821
0.0993794
0.0583363
0.0378386
0.0268568
0.0204171
0.0163053
0.0134892
0.011453
0.00991891
0.00872629
0.00777635
0.00700498
0.00636867
0.00583686
0.00538741
0.00500399
0.00467453
0.00439128
0.104023
0.0645454
0.0433804
0.0314239
0.0241571
0.0194092
0.0161097
0.0137018
0.0118766
0.0104521
0.00931443
0.00838904
0.00762486
0.00698575
0.00644545
0.0059845
0.00558859
0.00524878
0.108368
0.0708939
0.0493756
0.0365496
0.0284517
0.0230231
0.0191863
0.0163547
0.0141926
0.0124968
0.011138
0.0100304
0.00911434
0.0083476
0.0076991
0.00714579
0.00667069
0.00626298
0.112368
0.0772557
0.0557282
0.0421918
0.0332976
0.0271652
0.0227467
0.0194432
0.0168984
0.0148903
0.0132749
0.0119544
0.0108605
0.00994379
0.00916797
0.00850586
0.00793736
0.00744915
0.115994
0.0834975
0.0623053
0.0482611
0.0386474
0.0318167
0.026789
0.0229739
0.0200046
0.0176452
0.0157378
0.0141736
0.0128749
0.011785
0.0108618
0.0100736
0.00939671
0.00881464
0.119234
0.0894856
0.0689377
0.0546109
0.0443919
0.0369007
0.0312597
0.0269088
0.0234836
0.02074
0.0185096
0.0166735
0.0151449
0.01386
0.0127704
0.0118396
0.0110397
0.0103508
0.122086
0.095084
0.075415
0.0610223
0.0503361
0.0422534
0.0360231
0.0311353
0.0272402
0.024093
0.021519
0.0193909
0.017614
0.0161174
0.0148466
0.01376
0.0128257
0.0120196
0.124546
0.100135
0.0814619
0.0671725
0.056158
0.047577
0.0408126
0.0354174
0.031066
0.0275196
0.0246012
0.0221777
0.0201481
0.0184349
0.0169782
0.0157314
0.0146583
0.0137311
0.126578
0.104396
0.0866605
0.0725515
0.0613228
0.0523526
0.0451453
0.0393148
0.0345631
0.0306611
0.0274325
0.0247409
0.0224806
0.020569
0.0189413
0.0175468
0.0163454
0.0153061
0.128011
0.107322
0.0902141
0.0762353
0.0648743
0.0556509
0.0481493
0.0420254
0.0370012
0.0328553
0.0294126
0.0265352
0.0241143
0.0220643
0.0203172
0.0188191
0.0175275
0.0164083
0.128006
0.107313
0.0902048
0.0762269
0.0648674
0.0556454
0.048145
0.0420222
0.0369988
0.0328537
0.0294117
0.0265349
0.0241147
0.0220652
0.0203185
0.0188206
0.0175287
0.0164083
0.126509
0.104255
0.0864922
0.0723807
0.0611613
0.052205
0.0450128
0.0391967
0.0344585
0.0305686
0.0273506
0.0246684
0.0224163
0.0205118
0.0188903
0.0175006
0.0163024
0.0152631
0.124267
0.0995604
0.0807712
0.0664676
0.0554886
0.0469631
0.0402594
0.0349228
0.0306248
0.0271258
0.0242488
0.0218611
0.0198626
0.0181762
0.0167426
0.0155152
0.0144575
0.0135405
0.12136
0.0936399
0.0737261
0.0593348
0.0487592
0.0408249
0.0347467
0.0300003
0.0262308
0.0231928
0.0207127
0.018665
0.0169572
0.0155198
0.0142999
0.0132567
0.0123583
0.0115798
0.117686
0.0865903
0.0656967
0.0514791
0.0415374
0.0343608
0.0290184
0.0249322
0.0217348
0.0191848
0.0171184
0.0154211
0.0140106
0.0128263
0.0118229
0.0109657
0.010228
0.00958895
0.11305
0.0784122
0.056921
0.0432687
0.0342296
0.0279652
0.0234365
0.0200435
0.0174263
0.0153597
0.0136966
0.0123369
0.0112106
0.0102671
0.00946866
0.00878719
0.00820102
0.00769347
0.107169
0.0691009
0.0476372
0.035029
0.0271566
0.021922
0.0182437
0.0155401
0.0134817
0.0118706
0.0105816
0.00953198
0.00866488
0.00793965
0.00732671
0.00680378
0.00635413
0.00596494
0.0996761
0.0587036
0.0381279
0.0270699
0.0205782
0.016433
0.0135949
0.0115438
0.00999923
0.00879909
0.00784342
0.00706756
0.00642794
0.00589354
0.00544235
0.00505736
0.00472643
0.00444006
0.0901097
0.0473665
0.0287363
0.0196847
0.0146976
0.0116312
0.00957853
0.00811529
0.00702333
0.00617995
0.0055106
0.00496792
0.00452125
0.00414797
0.00383352
0.00356461
0.00333369
0.0031336
0.0779076
0.0353826
0.0198606
0.0131383
0.00966107
0.00759298
0.00623353
0.00527431
0.00456402
0.00401884
0.00358704
0.00323602
0.00294756
0.00270531
0.00250302
0.00232828
0.00217893
0.00204801
0.06238
0.0232554
0.0119461
0.00765494
0.00556339
0.00435258
0.00356727
0.00301643
0.00261313
0.00230799
0.00206674
0.001867
0.00170321
0.00156265
0.00144904
0.0013469
0.00126223
0.00118197
0.0426105
0.0117794
0.00546931
0.00341388
0.00246077
0.00192015
0.0015729
0.00132905
0.00115971
0.00103885
0.000944563
0.000858184
0.000786142
0.000721544
0.000666997
0.000615787
0.000585858
0.000535742
0.0168348
0.0025599
0.00110031
0.000684192
0.000495179
0.000389152
0.00032166
0.000270752
0.000280902
0.000338979
0.000384484
0.000374018
0.000343707
0.000315239
0.000283565
0.000259597
0.000318465
0.000270102
3.7813e-06
1.43225e-05
2.60297e-05
3.85382e-05
4.60114e-05
4.96624e-05
5.01552e-05
4.78128e-05
4.46224e-05
3.95537e-05
3.42193e-05
2.94482e-05
2.67709e-05
2.74486e-05
2.96323e-05
3.14815e-05
3.13384e-05
2.8514e-05
2.3871e-05
2.02112e-05
2.0825e-05
2.64249e-05
3.93442e-05
6.39109e-05
8.72026e-05
0.000100615
0.000113337
0.000124345
0.00013433
0.000142833
0.000150425
0.000157043
0.000162905
0.000168059
0.000172591
0.000176618
0.000180205
0.000183423
0.00018632
0.000188931
0.000191281
0.000193387
0.000195264
0.000196927
0.000198387
0.000199655
0.00020074
0.000201649
0.000202381
0.000202805
0.000203296
0.000203379
0.000203438
0.000203322
0.000203045
0.000202631
0.000202075
0.000201383
0.000200554
0.000199593
0.000198501
0.000197279
0.000195932
0.000194462
0.000192873
0.000191165
0.000189342
0.000187405
0.00018536
0.000183208
0.000180952
0.000178595
0.000176139
0.000173589
0.000170945
0.00016821
0.000165387
0.000162478
0.000159486
0.00015641
0.000153253
0.000150013
0.000146691
0.000143284
0.000139789
0.000136201
0.000132513
0.000128716
0.000124798
0.000120743
0.000116535
0.000112161
0.00010762
0.000102965
9.84006e-05
9.44184e-05
9.15951e-05
8.98386e-05
8.85242e-05
8.73194e-05
8.61361e-05
8.49573e-05
8.37814e-05
8.2609e-05
8.1441e-05
8.02784e-05
7.91225e-05
7.79774e-05
7.68644e-05
7.59097e-05
7.49758e-05
7.40479e-05
7.3128e-05
7.22163e-05
7.13133e-05
7.04193e-05
6.95346e-05
6.86596e-05
6.77946e-05
6.69397e-05
6.60951e-05
6.52611e-05
6.4438e-05
6.36262e-05
6.28257e-05
6.20363e-05
6.12592e-05
6.05197e-05
5.98425e-05
5.91739e-05
5.85106e-05
5.78606e-05
5.72287e-05
5.6602e-05
5.59801e-05
5.53663e-05
5.47615e-05
5.41664e-05
5.3581e-05
5.30051e-05
5.24387e-05
5.18817e-05
5.13338e-05
5.07949e-05
5.0265e-05
4.97439e-05
4.92315e-05
4.87277e-05
4.82324e-05
4.77455e-05
4.7267e-05
4.67969e-05
4.6335e-05
4.58813e-05
4.5436e-05
4.49989e-05
4.45701e-05
4.41498e-05
4.3738e-05
4.3335e-05
4.29409e-05
4.25559e-05
4.21803e-05
4.18143e-05
4.14582e-05
4.11119e-05
4.07756e-05
4.04491e-05
4.01317e-05
3.98229e-05
3.95206e-05
3.9225e-05
3.89273e-05
3.86406e-05
3.83117e-05
3.80561e-05
3.75483e-05
3.73535e-05
3.63028e-05
3.49085e-05
5.89807e-06
4.05889e-05
9.24663e-05
0.000153707
0.000192552
0.000214555
0.000223347
0.000221919
0.000214075
0.000198517
0.000179501
0.000161547
0.00015248
0.000157007
0.00016932
0.000177334
0.000179531
0.000180675
0.000185631
0.00019434
0.000208078
0.000224513
0.000240377
0.000256186
0.000267066
0.000276645
0.000285195
0.000297693
0.000316341
0.000330004
0.000342517
0.000353262
0.000363042
0.000372013
0.00037981
0.000386934
0.00039357
0.00039994
0.000406172
0.000412332
0.000418414
0.000424376
0.000430166
0.000435741
0.000441076
0.000446152
0.000450954
0.00045547
0.000459701
0.000463646
0.000467345
0.000470764
0.00047394
0.000476862
0.000479536
0.000481962
0.000484141
0.000486075
0.000487762
0.000489204
0.000490401
0.000491354
0.000492065
0.000492539
0.000492786
0.00049281
0.000492607
0.000492173
0.000491524
0.000490663
0.000489597
0.000488332
0.000486875
0.000485232
0.000483411
0.000481419
0.000479263
0.000476951
0.00047449
0.000471889
0.000469155
0.000466297
0.000463321
0.000460237
0.000457052
0.000453776
0.000450414
0.000446977
0.000443471
0.000439904
0.000436283
0.000432613
0.000428894
0.000425118
0.000421267
0.000417315
0.000413246
0.000409088
0.000404891
0.00040068
0.000396462
0.000392242
0.000388021
0.000383806
0.000379598
0.000375401
0.000371217
0.00036705
0.0003629
0.000358763
0.000354651
0.000350568
0.000346516
0.000342497
0.000338513
0.000334565
0.000330655
0.000326785
0.000322955
0.000319167
0.000315422
0.000311721
0.000308064
0.000304453
0.00030089
0.000297372
0.000293901
0.000290475
0.000287093
0.000283758
0.000280468
0.000277231
0.000274049
0.000270905
0.0002678
0.000264737
0.000261721
0.000258752
0.000255829
0.000252954
0.000250124
0.000247339
0.0002446
0.000241904
0.000239253
0.000236644
0.000234078
0.000231554
0.000229072
0.00022663
0.00022423
0.00022187
0.00021955
0.000217271
0.000215032
0.000212833
0.000210675
0.000208558
0.000206482
0.00020445
0.000202461
0.000200518
0.000198621
0.000196772
0.000194974
0.000193226
0.000191529
0.000189885
0.000188291
0.000186747
0.000185246
0.000183792
0.000182356
0.000180993
0.000179509
0.000178385
0.00017629
0.000175966
0.000172987
0.000172125
1.28768e-05
7.4067e-05
0.000174305
0.000251873
0.000303654
0.00033336
0.00034421
0.000341392
0.000328794
0.000309924
0.000290643
0.000278291
0.000276101
0.000282577
0.000292641
0.000303194
0.000315664
0.00033228
0.000353514
0.000378315
0.000405389
0.000433478
0.000471402
0.000517517
0.000562965
0.000606965
0.000649944
0.000693515
0.000732776
0.000764013
0.000788983
0.00080878
0.000824474
0.000836927
0.000846919
0.000855226
0.000862547
0.000869526
0.000876699
0.000884423
0.000892803
0.000901718
0.000910927
0.000920195
0.000929345
0.000938256
0.000946853
0.000955087
0.000962923
0.000970333
0.000977293
0.000983774
0.000989774
0.000995285
0.00100031
0.00100484
0.00100887
0.00101242
0.00101547
0.00101803
0.0010201
0.00102168
0.00102276
0.0010233
0.00102346
0.00102317
0.00102238
0.00102114
0.00101945
0.00101734
0.0010148
0.00101186
0.00100852
0.00100481
0.00100073
0.000996306
0.000991542
0.000986458
0.000981068
0.000975388
0.000969432
0.000963216
0.000956755
0.000950065
0.00094316
0.000936055
0.000928765
0.000921304
0.000913686
0.000905923
0.000898029
0.000890014
0.000881887
0.000873657
0.000865331
0.00085692
0.000848437
0.000839896
0.000831314
0.000822705
0.000814079
0.000805445
0.000796812
0.000788186
0.000779576
0.000770987
0.000762427
0.000753901
0.000745415
0.000736975
0.000728586
0.000720254
0.000711982
0.000703776
0.000695639
0.000687575
0.000679585
0.000671674
0.000663844
0.000656097
0.000648435
0.000640861
0.000633375
0.00062598
0.000618677
0.000611467
0.00060435
0.000597326
0.000590396
0.000583561
0.000576821
0.000570177
0.000563626
0.000557163
0.000550787
0.000544501
0.000538306
0.000532203
0.000526192
0.000520273
0.000514444
0.000508705
0.000503054
0.000497491
0.000492014
0.000486622
0.000481315
0.00047609
0.000470948
0.000465886
0.000460904
0.000456
0.000451174
0.000446424
0.00044175
0.000437149
0.000432622
0.000428167
0.000423782
0.000419467
0.000415219
0.000411038
0.000406922
0.000402868
0.000398875
0.000394937
0.000391052
0.000387215
0.000383418
0.000379654
0.000375909
0.000372171
0.000368415
0.000364622
0.00036072
0.000356742
0.000352323
0.000348021
0.000341563
0.000330411
2.17717e-05
0.000106434
0.000220239
0.000312835
0.000375512
0.000412494
0.000427921
0.000428308
0.000418389
0.000405119
0.000397052
0.000396224
0.000405351
0.000422393
0.000444952
0.000472505
0.000505657
0.000544776
0.00058906
0.000651116
0.000724819
0.000804484
0.000888646
0.000959242
0.00102163
0.00107771
0.0011281
0.00117298
0.00121223
0.0012461
0.00127534
0.00130066
0.00132277
0.00134231
0.00135984
0.00137586
0.00139078
0.00140494
0.0014186
0.00143195
0.00144511
0.00145816
0.00147112
0.00148397
0.00149666
0.00150912
0.00152125
0.00153295
0.00154414
0.00155473
0.00156469
0.00157396
0.00158253
0.00159039
0.00159753
0.00160393
0.00160961
0.00161454
0.00161874
0.0016222
0.00162493
0.0016269
0.00162806
0.0016285
0.00162837
0.00162746
0.00162583
0.00162351
0.00162052
0.00161686
0.00161256
0.00160764
0.00160212
0.00159603
0.00158937
0.00158218
0.00157447
0.00156628
0.00155761
0.00154851
0.00153898
0.00152905
0.00151875
0.0015081
0.00149711
0.00148583
0.00147425
0.00146242
0.00145035
0.00143805
0.00142555
0.00141287
0.00140003
0.00138703
0.0013739
0.00136066
0.00134731
0.00133388
0.0013204
0.00130687
0.00129331
0.00127974
0.00126618
0.00125262
0.00123909
0.00122559
0.00121214
0.00119874
0.00118541
0.00117214
0.00115896
0.00114587
0.00113287
0.00111997
0.00110717
0.00109449
0.00108193
0.00106949
0.00105717
0.00104498
0.00103292
0.001021
0.00100921
0.000997569
0.000986065
0.000974704
0.000963486
0.000952413
0.000941486
0.000930705
0.000920071
0.000909583
0.000899238
0.000889033
0.000878966
0.000869039
0.000859253
0.000849607
0.000840103
0.000830739
0.000821515
0.000812428
0.000803477
0.000794661
0.000785978
0.000777427
0.000769004
0.00076071
0.000752541
0.000744497
0.000736575
0.000728774
0.000721091
0.000713526
0.000706075
0.000698738
0.000691512
0.000684396
0.000677387
0.000670484
0.000663683
0.000656983
0.00065038
0.00064387
0.000637451
0.000631116
0.00062486
0.000618675
0.000612551
0.000606477
0.000600436
0.000594407
0.00058836
0.000582258
0.000576038
0.000569643
0.000562892
0.000555731
0.000547511
0.000531413
2.69712e-05
0.000122012
0.000241114
0.000357834
0.000435853
0.000483015
0.000506514
0.000514938
0.000516505
0.000517488
0.000524334
0.000540421
0.00056637
0.000601233
0.000644234
0.000695398
0.000755373
0.000838676
0.000934253
0.0010304
0.00111935
0.00120371
0.00128303
0.0013557
0.00142245
0.00148384
0.0015403
0.00159214
0.00163973
0.00168349
0.00172392
0.00176148
0.00179661
0.00182968
0.00186101
0.00189085
0.0019194
0.00194678
0.0019731
0.00199843
0.00202279
0.00204619
0.00206864
0.0020901
0.00211056
0.00212999
0.00214836
0.00216564
0.00218179
0.00219681
0.00221069
0.00222341
0.002235
0.00224548
0.00225484
0.00226313
0.00227034
0.00227651
0.00228163
0.00228574
0.00228883
0.00229088
0.0022918
0.00229189
0.00229101
0.00228913
0.0022863
0.00228253
0.00227784
0.00227226
0.00226582
0.00225853
0.00225043
0.00224155
0.00223192
0.00222157
0.00221053
0.00219883
0.00218649
0.00217357
0.00216007
0.00214604
0.00213151
0.0021165
0.00210105
0.00208518
0.00206894
0.00205234
0.00203542
0.00201821
0.00200073
0.00198301
0.00196506
0.00194693
0.00192862
0.00191017
0.00189159
0.00187291
0.00185416
0.00183535
0.00181651
0.00179765
0.00177879
0.00175996
0.00174116
0.00172241
0.00170373
0.00168512
0.0016666
0.00164818
0.00162987
0.00161168
0.00159363
0.00157571
0.00155794
0.00154033
0.00152287
0.00150559
0.00148847
0.00147153
0.00145477
0.0014382
0.00142181
0.00140562
0.00138962
0.00137381
0.0013582
0.00134279
0.00132757
0.00131256
0.00129775
0.00128313
0.00126872
0.00125449
0.00124046
0.00122662
0.00121297
0.00119951
0.00118625
0.00117317
0.00116029
0.00114759
0.00113508
0.00112275
0.00111061
0.00109864
0.00108684
0.00107522
0.00106377
0.00105249
0.00104138
0.00103043
0.00101964
0.00100901
0.000998534
0.000988212
0.00097804
0.000968016
0.000958137
0.0009484
0.000938801
0.000929338
0.000920006
0.000910801
0.000901717
0.000892749
0.000883889
0.000875127
0.000866453
0.000857851
0.000849302
0.000840782
0.000832256
0.000823681
0.00081499
0.000806111
0.00079688
0.000787151
0.000777195
0.00075741
3.07979e-05
0.000135318
0.000261503
0.000392464
0.000488736
0.00055034
0.000588058
0.000611445
0.000629151
0.000648424
0.000674505
0.000710042
0.000755778
0.000811991
0.000879091
0.000969514
0.00107458
0.00117625
0.00127543
0.0013709
0.00146158
0.00154756
0.00162879
0.00170523
0.00177718
0.00184499
0.001909
0.00196955
0.00202695
0.00208156
0.00213368
0.0021836
0.00223158
0.00227782
0.00232249
0.0023657
0.00240755
0.00244808
0.00248734
0.00252532
0.00256203
0.00259745
0.00263154
0.00266427
0.00269561
0.00272551
0.00275394
0.00278085
0.0028062
0.00282997
0.00285213
0.00287264
0.00289151
0.00290872
0.00292425
0.00293812
0.00295032
0.00296086
0.00296975
0.00297701
0.00298267
0.00298675
0.00298917
0.00299007
0.00298961
0.00298764
0.0029843
0.00297959
0.00297359
0.00296634
0.00295789
0.0029483
0.00293761
0.00292589
0.00291317
0.0028995
0.00288494
0.00286953
0.0028533
0.00283631
0.0028186
0.00280021
0.00278118
0.00276155
0.00274136
0.00272065
0.00269946
0.00267783
0.0026558
0.0026334
0.00261067
0.00258764
0.00256435
0.00254082
0.00251709
0.00249318
0.00246913
0.00244495
0.00242069
0.00239637
0.00237201
0.00234764
0.00232328
0.00229894
0.00227466
0.00225044
0.00222631
0.00220228
0.00217837
0.00215459
0.00213095
0.00210747
0.00208416
0.00206103
0.00203809
0.00201534
0.0019928
0.00197048
0.00194837
0.00192649
0.00190484
0.00188342
0.00186225
0.00184132
0.00182063
0.00180019
0.00178001
0.00176007
0.00174039
0.00172096
0.00170178
0.00168285
0.00166418
0.00164575
0.00162756
0.00160962
0.00159193
0.00157448
0.00155727
0.0015403
0.00152357
0.00150708
0.00149082
0.00147479
0.00145899
0.00144341
0.00142806
0.00141292
0.001398
0.0013833
0.0013688
0.00135451
0.00134042
0.00132653
0.00131283
0.00129933
0.00128601
0.00127289
0.00125994
0.00124717
0.00123458
0.00122216
0.0012099
0.00119781
0.00118586
0.00117407
0.00116241
0.00115088
0.00113947
0.00112816
0.00111692
0.00110574
0.00109457
0.00108337
0.00107207
0.0010606
0.0010488
0.00103659
0.00102442
0.00100195
3.2348e-05
0.000142501
0.000273967
0.000409848
0.000527784
0.000609002
0.000665052
0.000706969
0.000743959
0.000783269
0.00082995
0.00088695
0.000955897
0.00104816
0.00115511
0.00126167
0.00136775
0.00147109
0.00157114
0.00166748
0.00175986
0.00184829
0.00193284
0.00201369
0.00209108
0.00216527
0.00223654
0.00230517
0.0023714
0.00243547
0.00249759
0.00255794
0.00261668
0.0026739
0.00272971
0.00278415
0.00283727
0.00288906
0.00293954
0.00298868
0.00303644
0.0030828
0.00312771
0.00317112
0.00321298
0.00325323
0.00329182
0.0033287
0.00336382
0.00339714
0.00342861
0.00345818
0.00348584
0.00351154
0.00353526
0.00355698
0.00357669
0.00359438
0.00361003
0.00362365
0.00363525
0.00364483
0.00365241
0.00365802
0.00366168
0.00366329
0.00366321
0.00366122
0.00365744
0.00365193
0.00364472
0.00363588
0.00362546
0.00361353
0.00360015
0.00358538
0.00356929
0.00355195
0.00353342
0.00351377
0.00349307
0.00347138
0.00344878
0.00342532
0.00340107
0.00337609
0.00335045
0.00332419
0.00329739
0.00327008
0.00324233
0.00321418
0.00318567
0.00315686
0.00312778
0.00309847
0.00306897
0.00303932
0.00300955
0.0029797
0.00294981
0.00291988
0.00288997
0.00286009
0.00283027
0.00280053
0.00277088
0.00274137
0.00271199
0.00268277
0.00265373
0.00262487
0.00259622
0.00256779
0.00253958
0.00251161
0.0024839
0.00245644
0.00242924
0.00240232
0.00237568
0.00234932
0.00232326
0.00229748
0.002272
0.00224682
0.00222194
0.00219737
0.0021731
0.00214913
0.00212547
0.00210211
0.00207905
0.00205629
0.00203383
0.00201166
0.00198979
0.00196821
0.00194692
0.00192592
0.00190521
0.00188478
0.00186463
0.00184476
0.00182516
0.00180583
0.00178677
0.00176797
0.00174943
0.00173115
0.00171312
0.00169533
0.00167779
0.00166048
0.00164342
0.00162658
0.00160997
0.00159358
0.00157742
0.00156147
0.00154573
0.00153019
0.00151486
0.00149972
0.00148476
0.00146999
0.00145539
0.00144095
0.00142666
0.00141249
0.00139843
0.00138445
0.00137051
0.00135656
0.00134254
0.00132838
0.00131391
0.00129915
0.00128415
0.00125991
3.27957e-05
0.000144125
0.000275311
0.000409431
0.000539335
0.000642642
0.000719732
0.000781081
0.000836811
0.000894607
0.000962156
0.00105406
0.00116364
0.00128532
0.00140087
0.00151212
0.00161993
0.00172449
0.00182573
0.00192359
0.00201808
0.00210928
0.00219733
0.00228242
0.00236476
0.00244459
0.00252213
0.00259758
0.00267114
0.00274298
0.00281324
0.00288204
0.00294947
0.00301559
0.00308045
0.00314406
0.00320644
0.00326755
0.00332737
0.00338587
0.00344299
0.00349868
0.00355288
0.00360553
0.00365656
0.00370591
0.00375351
0.0037993
0.00384322
0.00388521
0.00392522
0.00396318
0.00399907
0.00403282
0.00406442
0.00409381
0.00412099
0.00414592
0.00416859
0.00418899
0.00420712
0.00422297
0.00423655
0.00424788
0.00425697
0.00426384
0.00426856
0.00427101
0.00427144
0.0042698
0.00426613
0.00426049
0.00425292
0.00424349
0.00423226
0.00421929
0.00420464
0.00418838
0.00417059
0.00415132
0.00413066
0.00410866
0.00408542
0.00406099
0.00403545
0.00400887
0.00398133
0.00395288
0.00392361
0.00389358
0.00386285
0.00383149
0.00379956
0.00376712
0.00373422
0.00370092
0.00366728
0.00363334
0.00359917
0.00356479
0.00353026
0.00349563
0.00346092
0.00342619
0.00339145
0.00335676
0.00332212
0.00328759
0.00325317
0.0032189
0.0031848
0.00315088
0.00311718
0.0030837
0.00305047
0.00301749
0.00298478
0.00295235
0.00292022
0.00288839
0.00285687
0.00282567
0.00279479
0.00276425
0.00273404
0.00270417
0.00267464
0.00264546
0.00261662
0.00258813
0.00255999
0.0025322
0.00250476
0.00247765
0.00245089
0.00242448
0.0023984
0.00237265
0.00234725
0.00232218
0.00229743
0.00227302
0.00224893
0.00222516
0.00220171
0.00217857
0.00215574
0.00213321
0.00211099
0.00208906
0.00206742
0.00204607
0.002025
0.00200421
0.0019837
0.00196346
0.00194348
0.00192376
0.0019043
0.00188509
0.00186613
0.00184741
0.00182892
0.00181067
0.00179263
0.00177481
0.0017572
0.00173978
0.00172253
0.00170544
0.00168849
0.00167165
0.00165487
0.00163811
0.00162131
0.00160438
0.00158718
0.00156978
0.00155185
0.00152572
3.22375e-05
0.000141196
0.000268903
0.000398014
0.000521849
0.000633959
0.000727732
0.000808811
0.000891783
0.000987051
0.00109623
0.00122088
0.00135724
0.00148473
0.00160501
0.00172002
0.00183072
0.00193748
0.00204062
0.00214049
0.00223731
0.00233128
0.00242259
0.00251145
0.00259806
0.00268264
0.00276536
0.00284641
0.00292593
0.00300405
0.00308089
0.00315652
0.00323099
0.00330434
0.00337659
0.00344772
0.00351772
0.00358654
0.00365415
0.00372047
0.00378546
0.00384903
0.00391111
0.00397163
0.00403051
0.00408767
0.00414303
0.00419653
0.00424807
0.00429761
0.00434506
0.00439038
0.00443349
0.00447437
0.00451295
0.00454919
0.00458307
0.00461455
0.00464361
0.00467024
0.00469442
0.00471614
0.00473542
0.00475225
0.00476665
0.00477864
0.00478825
0.00479548
0.00480041
0.00480298
0.00480337
0.00480155
0.00479759
0.00479153
0.00478342
0.00477334
0.00476134
0.00474749
0.00473185
0.00471449
0.00469548
0.00467489
0.0046528
0.00462928
0.00460439
0.00457822
0.00455083
0.00452231
0.00449271
0.00446212
0.00443059
0.00439821
0.00436503
0.00433112
0.00429656
0.00426139
0.00422568
0.00418949
0.00415288
0.00411591
0.00407862
0.00404108
0.00400332
0.0039654
0.00392736
0.00388923
0.00385107
0.00381291
0.00377478
0.00373672
0.00369875
0.0036609
0.00362321
0.0035857
0.00354838
0.00351129
0.00347444
0.00343784
0.00340152
0.00336548
0.00332975
0.00329433
0.00325924
0.00322448
0.00319006
0.00315599
0.00312227
0.00308891
0.00305592
0.00302329
0.00299104
0.00295915
0.00292764
0.00289649
0.00286572
0.00283532
0.00280528
0.00277562
0.00274632
0.00271738
0.00268881
0.0026606
0.00263275
0.00260525
0.0025781
0.0025513
0.00252484
0.00249872
0.00247294
0.00244749
0.00242236
0.00239756
0.00237307
0.00234889
0.00232503
0.00230147
0.00227821
0.00225524
0.00223257
0.00221018
0.00218807
0.00216624
0.00214467
0.00212337
0.00210232
0.00208152
0.00206095
0.00204061
0.00202047
0.00200052
0.00198073
0.00196107
0.00194151
0.00192198
0.00190243
0.00188278
0.0018629
0.00184284
0.00182209
0.00179377
3.08681e-05
0.00013511
0.000258109
0.000383391
0.000505341
0.000621404
0.00073204
0.000840995
0.000955815
0.00108164
0.0012197
0.00136943
0.00151171
0.00164368
0.00176792
0.00188634
0.00200005
0.00210969
0.00221565
0.00231813
0.00241753
0.00251423
0.00260853
0.00270069
0.00279093
0.00287945
0.00296644
0.00305205
0.00313643
0.00321966
0.00330185
0.00338305
0.00346329
0.00354258
0.00362093
0.00369829
0.00377464
0.00384992
0.00392406
0.00399699
0.00406863
0.0041389
0.00420771
0.00427496
0.00434057
0.00440445
0.0044665
0.00452664
0.00458479
0.00464087
0.0046948
0.00474652
0.00479596
0.00484305
0.00488776
0.00493003
0.00496981
0.00500709
0.00504182
0.00507399
0.00510359
0.0051306
0.00515502
0.00517685
0.00519612
0.00521282
0.00522699
0.00523864
0.00524781
0.00525453
0.00525885
0.00526079
0.00526045
0.00525784
0.00525302
0.00524606
0.00523701
0.00522593
0.00521289
0.00519795
0.00518119
0.00516267
0.00514246
0.00512065
0.00509729
0.00507246
0.00504624
0.00501869
0.00498989
0.00495992
0.00492883
0.00489671
0.00486362
0.00482962
0.00479479
0.00475918
0.00472287
0.00468592
0.00464839
0.00461033
0.00457181
0.00453288
0.0044936
0.00445401
0.00441417
0.00437413
0.00433392
0.00429359
0.00425319
0.00421274
0.00417229
0.00413188
0.00409152
0.00405127
0.00401113
0.00397115
0.00393134
0.00389172
0.00385233
0.00381317
0.00377427
0.00373565
0.00369731
0.00365927
0.00362155
0.00358415
0.00354709
0.00351037
0.003474
0.00343799
0.00340233
0.00336705
0.00333214
0.00329759
0.00326342
0.00322963
0.00319621
0.00316317
0.00313051
0.00309822
0.00306631
0.00303478
0.00300362
0.00297282
0.0029424
0.00291235
0.00288265
0.00285332
0.00282434
0.00279572
0.00276744
0.00273951
0.00271193
0.00268467
0.00265776
0.00263117
0.00260491
0.00257896
0.00255334
0.00252802
0.00250301
0.00247831
0.0024539
0.00242977
0.00240593
0.00238236
0.00235905
0.00233599
0.00231317
0.00229055
0.00226812
0.00224584
0.00222367
0.00220157
0.00217946
0.00215726
0.00213486
0.00211229
0.00208899
0.00205833
2.93174e-05
0.000128791
0.000248237
0.000372468
0.000497091
0.000621006
0.000745652
0.000874971
0.00101223
0.00115948
0.00131685
0.00147861
0.00162639
0.00176283
0.00189092
0.00201267
0.00212936
0.00224179
0.00235052
0.00245593
0.00255831
0.00265787
0.00275504
0.00285017
0.00294355
0.00303542
0.00312598
0.00321538
0.00330377
0.00339123
0.00347784
0.00356365
0.00364868
0.00373292
0.00381637
0.00389897
0.00398067
0.00406141
0.00414111
0.00421967
0.004297
0.00437301
0.0044476
0.00452065
0.00459208
0.00466176
0.00472962
0.00479554
0.00485944
0.00492123
0.00498083
0.00503815
0.00509312
0.00514569
0.00519579
0.00524337
0.00528839
0.0053308
0.00537058
0.00540769
0.00544213
0.00547388
0.00550293
0.00552929
0.00555296
0.00557396
0.00559231
0.00560804
0.00562116
0.00563171
0.00563974
0.00564529
0.0056484
0.00564912
0.00564752
0.00564364
0.00563755
0.0056293
0.00561896
0.0056066
0.00559227
0.00557606
0.00555803
0.00553825
0.00551679
0.00549373
0.00546914
0.00544309
0.00541566
0.0053869
0.00535691
0.00532574
0.00529346
0.00526014
0.00522585
0.00519066
0.00515463
0.00511782
0.00508031
0.00504214
0.00500338
0.00496408
0.00492431
0.00488412
0.00484355
0.00480266
0.0047615
0.0047201
0.00467853
0.00463681
0.00459499
0.00455311
0.00451119
0.00446929
0.00442742
0.00438562
0.00434392
0.00430235
0.00426093
0.00421968
0.00417862
0.00413778
0.00409718
0.00405682
0.00401674
0.00397693
0.00393742
0.00389822
0.00385933
0.00382077
0.00378255
0.00374466
0.00370713
0.00366995
0.00363312
0.00359666
0.00356056
0.00352483
0.00348947
0.00345448
0.00341986
0.00338562
0.00335174
0.00331824
0.00328511
0.00325235
0.00321995
0.00318792
0.00315625
0.00312495
0.003094
0.00306341
0.00303317
0.00300328
0.00297374
0.00294454
0.00291568
0.00288715
0.00285896
0.00283109
0.00280355
0.00277632
0.00274941
0.00272281
0.0026965
0.00267049
0.00264475
0.00261929
0.00259407
0.00256909
0.00254431
0.0025197
0.00249523
0.00247083
0.00244644
0.00242199
0.00239737
0.00237257
0.00234707
0.00231426
2.76227e-05
0.000122192
0.000238215
0.000361766
0.000489209
0.000619918
0.000756147
0.000899679
0.00105219
0.00121417
0.00138614
0.00155208
0.00170385
0.00184414
0.00197574
0.00210061
0.0022201
0.00233515
0.00244641
0.00255439
0.00265946
0.00276194
0.00286208
0.00296008
0.00305636
0.00315122
0.00324488
0.00333755
0.00342935
0.0035204
0.00361076
0.00370049
0.00378958
0.00387805
0.00396584
0.00405292
0.00413921
0.00422463
0.0043091
0.00439251
0.00447475
0.00455573
0.00463531
0.0047134
0.00478987
0.00486461
0.00493752
0.00500849
0.00507742
0.00514421
0.00520876
0.00527101
0.00533086
0.00538826
0.00544313
0.00549541
0.00554507
0.00559205
0.00563633
0.00567787
0.00571666
0.00575267
0.00578591
0.00581637
0.00584407
0.005869
0.0058912
0.00591068
0.00592747
0.0059416
0.00595312
0.00596205
0.00596846
0.00597238
0.00597387
0.00597301
0.00596984
0.00596441
0.00595679
0.00594704
0.00593523
0.00592143
0.0059057
0.00588813
0.00586878
0.00584772
0.00582502
0.00580077
0.00577502
0.00574785
0.00571933
0.00568953
0.00565851
0.00562635
0.00559311
0.00555887
0.00552367
0.0054876
0.0054507
0.00541306
0.00537471
0.00533574
0.00529618
0.00525609
0.00521554
0.00517456
0.00513321
0.00509154
0.00504959
0.00500741
0.00496503
0.0049225
0.00487986
0.00483715
0.00479439
0.00475162
0.00470887
0.00466618
0.00462357
0.00458106
0.00453868
0.00449646
0.00445441
0.00441255
0.00437091
0.0043295