/*--------------------------------*- C++ -*----------------------------------*\
  =========                 |
  \\      /  F ield         | OpenFOAM: The Open Source CFD Toolbox
   \\    /   O peration     | Website:  https://openfoam.org
    \\  /    A nd           | Version:  8
     \\/     M anipulation  |
\*---------------------------------------------------------------------------*/
FoamFile
{
    version     2.0;
    format      ascii;
    class       volScalarField;
    location    "1000";
    object      nut;
}
// * * * * * * * * * * * * * * * * * * * * * * * * * * * * * * * * * * * * * //

dimensions      [0 2 -1 0 0 0 0];

internalField   nonuniform List<scalar> 
12225
(
1.86314e-05
1.91784e-05
1.9075e-05
2.78168e-05
2.97675e-05
3.74918e-05
2.978e-05
2.2003e-05
2.2447e-05
1.93744e-05
2.17413e-05
1.83579e-05
1.78669e-05
1.62098e-05
3.14128e-05
2.52523e-05
2.79868e-05
2.35197e-05
0.00018462
7.53309e-05
5.58792e-05
5.6182e-05
6.16838e-05
6.67018e-05
5.45517e-05
5.1619e-05
4.40269e-05
4.78801e-05
3.60306e-05
3.57733e-05
3.94252e-05
4.0826e-05
4.88621e-05
5.03193e-05
5.3887e-05
5.44622e-05
0.000635411
0.00033481
0.000237609
0.00016591
0.00014644
0.000125757
0.00010714
9.57068e-05
8.88363e-05
8.36146e-05
7.81281e-05
7.48115e-05
7.10971e-05
6.99453e-05
6.90018e-05
6.82732e-05
6.88224e-05
6.8124e-05
0.000953281
0.000721458
0.000575636
0.000436691
0.000376897
0.000328533
0.000294812
0.00026784
0.000251529
0.000235359
0.000221764
0.000209403
0.000199147
0.000189642
0.000183519
0.0001758
0.000171825
0.000165072
0.00112549
0.00100754
0.000897592
0.000756286
0.000682038
0.000623262
0.000581176
0.000543628
0.000518335
0.0004909
0.000469814
0.00044572
0.000428673
0.000408306
0.000395852
0.000378664
0.000369433
0.000354468
0.00121066
0.00116265
0.00110951
0.00101622
0.000953061
0.000902165
0.000865368
0.000829882
0.000804132
0.00077412
0.000750591
0.000721497
0.000700171
0.000673289
0.000655707
0.000631583
0.000618069
0.000596608
0.00124134
0.00122537
0.00120745
0.00116224
0.00112623
0.00109455
0.00107061
0.0010463
0.00102764
0.0010045
0.000985313
0.000960589
0.000940893
0.000915847
0.000897654
0.000873764
0.000858549
0.000836471
0.00124826
0.00124179
0.0012345
0.00121691
0.00119716
0.00117942
0.00116405
0.00115023
0.00113865
0.0011238
0.00111106
0.00109392
0.00107924
0.00106024
0.00104542
0.00102612
0.00101287
0.000994127
0.00124895
0.00124657
0.0012444
0.0012367
0.0012276
0.00121874
0.00121017
0.00120173
0.00119467
0.00118631
0.00117924
0.0011695
0.00116014
0.00114773
0.00113744
0.00112381
0.00111395
0.00109985
0.00124892
0.00124755
0.00124627
0.00124351
0.00124015
0.00123635
0.00123259
0.00122852
0.00122537
0.00121972
0.0012162
0.00121102
0.00120603
0.0012002
0.00119432
0.00118657
0.00118029
0.00117167
0.00124894
0.00124763
0.00124653
0.00124507
0.0012436
0.00124189
0.00124029
0.00123846
0.00123681
0.00123489
0.00123295
0.00123056
0.00122819
0.00122525
0.00122238
0.00121861
0.00121557
0.00121129
0.00124894
0.00124765
0.00124651
0.00124531
0.00124422
0.00124307
0.00124204
0.00124094
0.00123993
0.00123885
0.00123783
0.00123662
0.00123548
0.00123408
0.00123277
0.00123109
0.00122962
0.0012277
0.00124893
0.00124766
0.00124648
0.00124533
0.00124427
0.00124322
0.00124226
0.0012413
0.00124042
0.00123954
0.00123872
0.00123787
0.00123707
0.00123622
0.00123542
0.00123454
0.00123372
0.00123279
0.00124892
0.00124766
0.00124647
0.00124532
0.00124425
0.00124321
0.00124224
0.0012413
0.00124042
0.00123957
0.00123876
0.00123798
0.00123723
0.00123651
0.00123581
0.00123513
0.00123448
0.00123383
0.00124892
0.00124766
0.00124646
0.00124531
0.00124423
0.00124319
0.00124221
0.00124127
0.00124038
0.00123953
0.00123871
0.00123793
0.00123719
0.00123647
0.00123579
0.00123514
0.00123451
0.00123391
0.00124892
0.00124766
0.00124645
0.00124531
0.00124422
0.00124318
0.00124219
0.00124125
0.00124035
0.00123949
0.00123867
0.00123789
0.00123714
0.00123642
0.00123574
0.00123508
0.00123445
0.00123385
0.00124892
0.00124765
0.00124645
0.0012453
0.00124421
0.00124317
0.00124218
0.00124123
0.00124033
0.00123947
0.00123865
0.00123786
0.00123711
0.00123639
0.0012357
0.00123504
0.00123441
0.00123381
0.00124892
0.00124765
0.00124645
0.0012453
0.00124421
0.00124317
0.00124218
0.00124123
0.00124033
0.00123946
0.00123864
0.00123785
0.0012371
0.00123637
0.00123569
0.00123503
0.0012344
0.00123379
0.00124892
0.00124765
0.00124645
0.0012453
0.00124421
0.00124317
0.00124218
0.00124123
0.00124033
0.00123947
0.00123864
0.00123785
0.0012371
0.00123638
0.00123569
0.00123503
0.00123439
0.00123379
0.00124892
0.00124766
0.00124645
0.00124531
0.00124421
0.00124318
0.00124219
0.00124124
0.00124034
0.00123948
0.00123864
0.00123785
0.00123708
0.00123635
0.00123565
0.00123497
0.00123431
0.00123369
0.00124893
0.00124767
0.00124645
0.00124531
0.00124421
0.00124319
0.00124219
0.00124124
0.0012403
0.0012394
0.00123849
0.00123763
0.00123675
0.00123591
0.00123508
0.00123427
0.00123347
0.00123272
0.00124901
0.00124766
0.00124636
0.00124523
0.00124414
0.00124308
0.00124197
0.00124086
0.00123961
0.00123832
0.0012369
0.00123549
0.00123398
0.00123248
0.00123096
0.00122942
0.00122796
0.00122652
0.00124972
0.00124718
0.0012453
0.00124419
0.00124304
0.00124133
0.00123932
0.00123688
0.00123382
0.00123044
0.00122663
0.00122282
0.00121874
0.0012148
0.00121075
0.00120682
0.00120321
0.00119927
0.00125283
0.00124114
0.00123553
0.00123472
0.00123316
0.00122669
0.00122082
0.00121298
0.00120331
0.0011932
0.0011822
0.00117208
0.00116136
0.00115193
0.00114196
0.00113362
0.00112472
0.00111788
0.00126823
0.0011863
0.00116605
0.00117421
0.00117418
0.00116393
0.0011451
0.00112332
0.00109843
0.00107573
0.00105242
0.00103281
0.00101258
0.000996214
0.000979011
0.000965808
0.000951688
0.000941592
0.00119051
0.000993721
0.000956798
0.000947492
0.000981239
0.000970461
0.000937933
0.000900986
0.000861267
0.000828396
0.000796335
0.000771594
0.000746587
0.000727977
0.000708325
0.000694526
0.000679523
0.000669599
0.000991265
0.000590231
0.000649754
0.000518768
0.000597558
0.000604469
0.000579144
0.000546783
0.000512385
0.000485587
0.000460406
0.000442234
0.000424148
0.000411679
0.000398292
0.000389807
0.000380139
0.000374375
0.000582255
0.000228842
0.000251202
0.000200014
0.000222841
0.00023563
0.000229943
0.00021829
0.000205637
0.000195649
0.000187034
0.000180873
0.000175287
0.000171575
0.000167724
0.00016566
0.000162954
0.000161992
0.00020761
7.4756e-05
7.43341e-05
6.73541e-05
7.24853e-05
7.37697e-05
7.30902e-05
7.22501e-05
7.1723e-05
7.16471e-05
7.23514e-05
7.33097e-05
7.46212e-05
7.59156e-05
7.74935e-05
7.88354e-05
7.94962e-05
7.95141e-05
1.37963e-05
1.73835e-05
2.02138e-05
2.18888e-05
2.29087e-05
2.32108e-05
2.33511e-05
2.32924e-05
2.30717e-05
2.27948e-05
2.25003e-05
2.22105e-05
2.19367e-05
2.16852e-05
2.14572e-05
2.12537e-05
2.10742e-05
2.09183e-05
1.73292e-12
1.95864e-10
9.96421e-10
3.91337e-09
1.30177e-08
3.91324e-08
1.02209e-07
2.02952e-07
3.2815e-07
4.59986e-07
5.77929e-07
6.69785e-07
7.30795e-07
7.55121e-07
7.45958e-07
7.17246e-07
6.61345e-07
5.69169e-07
4.85435e-07
4.13707e-07
3.4561e-07
2.79591e-07
2.15457e-07
1.56011e-07
1.02569e-07
6.06337e-08
3.24238e-08
1.63554e-08
8.3079e-09
4.52614e-09
2.74822e-09
2.07399e-09
2.26383e-09
4.7161e-09
9.94402e-09
5.74611e-08
1.31109e-07
2.96222e-07
4.51829e-07
4.95091e-07
4.57958e-07
3.67678e-07
3.056e-07
2.96551e-07
3.22749e-07
4.23226e-07
5.50815e-07
1.07384e-06
2.39697e-06
7.4455e-06
2.04358e-05
3.68781e-05
5.02705e-05
5.40711e-05
4.71399e-05
4.05455e-05
3.29263e-05
3.11253e-05
3.10658e-05
3.40238e-05
3.30342e-05
3.19297e-05
3.20486e-05
3.37813e-05
3.40143e-05
3.48035e-05
3.5331e-05
3.59663e-05
3.6522e-05
3.71117e-05
3.76655e-05
3.82284e-05
3.87764e-05
3.93219e-05
3.98629e-05
4.03972e-05
4.0931e-05
4.14577e-05
4.1985e-05
4.25061e-05
4.30278e-05
4.35446e-05
4.40615e-05
4.45748e-05
4.50875e-05
4.55976e-05
4.61065e-05
4.66135e-05
4.71187e-05
4.76219e-05
4.8123e-05
4.86216e-05
4.91175e-05
4.96097e-05
5.00979e-05
5.05822e-05
5.10628e-05
5.1542e-05
5.20227e-05
5.25115e-05
5.30111e-05
5.3508e-05
5.40106e-05
5.45182e-05
5.50315e-05
5.55517e-05
5.60784e-05
5.66132e-05
5.71556e-05
5.77074e-05
5.82682e-05
5.88398e-05
5.94218e-05
6.00163e-05
6.06231e-05
6.12442e-05
6.18796e-05
6.25315e-05
6.32e-05
6.38875e-05
6.45944e-05
6.5323e-05
6.60744e-05
6.68508e-05
6.76538e-05
6.84858e-05
6.9348e-05
7.02545e-05
7.12021e-05
7.2145e-05
7.31752e-05
7.42116e-05
7.53317e-05
7.65103e-05
7.77474e-05
7.90364e-05
7.89939e-05
7.87328e-05
7.8457e-05
7.817e-05
7.78716e-05
7.75626e-05
7.72434e-05
7.69143e-05
7.65766e-05
7.62273e-05
7.58795e-05
7.55073e-05
7.5147e-05
7.47573e-05
7.43849e-05
7.39787e-05
7.35924e-05
7.31812e-05
7.27701e-05
7.23628e-05
7.19395e-05
7.15232e-05
7.11e-05
7.06775e-05
7.02537e-05
6.98297e-05
6.94056e-05
6.89818e-05
6.85588e-05
6.81374e-05
6.77183e-05
6.73022e-05
6.68898e-05
6.64815e-05
6.60773e-05
6.56769e-05
6.52789e-05
6.48805e-05
6.44776e-05
6.40636e-05
6.36272e-05
6.3136e-05
6.2536e-05
6.087e-05
7.48999e-12
1.22352e-09
1.63939e-08
8.64295e-08
3.82575e-07
1.21182e-06
2.81962e-06
5.14934e-06
8.00649e-06
1.12132e-05
1.44714e-05
1.74739e-05
2.00282e-05
2.1955e-05
2.31082e-05
2.34525e-05
2.31466e-05
2.2323e-05
2.00606e-05
1.69103e-05
1.30772e-05
9.65697e-06
6.82412e-06
4.63486e-06
2.93275e-06
1.82133e-06
1.11808e-06
6.99642e-07
4.38677e-07
2.9251e-07
2.12317e-07
1.8837e-07
1.70979e-07
3.23177e-07
4.92763e-07
3.31977e-06
7.57751e-06
1.55276e-05
2.16479e-05
2.38575e-05
2.25143e-05
2.03403e-05
1.74494e-05
1.6382e-05
1.70753e-05
1.70847e-05
1.96725e-05
2.64109e-05
3.76719e-05
4.8387e-05
6.03529e-05
7.11039e-05
8.1823e-05
9.09434e-05
9.92833e-05
0.000109047
0.000119864
0.000133395
0.000146071
0.000163723
0.000175885
0.000188678
0.000202979
0.000215809
0.00022868
0.000240424
0.000251962
0.000262979
0.000273667
0.000283935
0.000293944
0.000303628
0.000313093
0.000322318
0.000331357
0.000340214
0.000348914
0.000357465
0.000365883
0.000374173
0.000382348
0.000390407
0.000398363
0.000406212
0.000413967
0.000421622
0.000429187
0.000436657
0.00044404
0.00045133
0.000458533
0.000465637
0.000472636
0.000479514
0.000486249
0.000492805
0.00049913
0.000505153
0.000510763
0.000515826
0.000520365
0.000524955
0.00052934
0.000533641
0.0005378
0.000541841
0.000545748
0.000549525
0.000553165
0.000556669
0.000560031
0.00056325
0.000566324
0.000569249
0.000572023
0.000574645
0.000577112
0.000579423
0.000581574
0.000583564
0.000585392
0.000587055
0.000588551
0.000589879
0.000591037
0.000592023
0.000592836
0.000593481
0.000593978
0.000594269
0.000594456
0.000594333
0.000594119
0.000593836
0.000593487
0.000593144
0.000592956
0.00059264
0.000592178
0.000591578
0.000590844
0.000589979
0.000588984
0.000587854
0.00058658
0.000585378
0.000583724
0.000582423
0.00058049
0.000578997
0.000576833
0.00057516
0.000572898
0.000570628
0.00056856
0.00056602
0.000563655
0.00056109
0.000558506
0.000555849
0.000553139
0.000550375
0.000547561
0.000544697
0.000541787
0.000538835
0.000535847
0.000532831
0.00052979
0.000526728
0.000523642
0.000520538
0.000517385
0.000514153
0.000510793
0.00050723
0.000503324
0.00049875
0.000492765
0.000475998
1.82816e-11
3.09005e-09
5.81671e-08
3.37693e-07
1.24763e-06
3.01879e-06
6.41939e-06
1.1132e-05
1.69204e-05
2.34966e-05
3.04514e-05
3.74084e-05
4.36808e-05
4.89031e-05
5.28768e-05
5.54823e-05
5.69188e-05
5.72192e-05
5.57924e-05
5.28841e-05
4.82235e-05
4.22481e-05
3.49527e-05
2.75614e-05
2.08145e-05
1.49587e-05
1.02398e-05
6.88058e-06
4.43889e-06
2.98515e-06
2.11351e-06
1.72509e-06
1.46461e-06
2.42541e-06
4.5051e-06
1.74906e-05
3.69143e-05
5.5449e-05
6.51542e-05
6.36727e-05
5.06508e-05
4.09313e-05
3.97741e-05
4.6317e-05
5.34557e-05
6.26366e-05
7.60448e-05
8.91552e-05
0.000102252
0.000119956
0.000139564
0.000162135
0.000187023
0.00021445
0.000244604
0.000275275
0.000307276
0.000339007
0.000369191
0.000401015
0.000429744
0.000456353
0.000484804
0.000509795
0.000534601
0.000558095
0.000580579
0.000602279
0.000623261
0.000643596
0.000663407
0.000682715
0.000701614
0.000720126
0.000738302
0.000756164
0.000773742
0.000791053
0.000808113
0.000824934
0.000841525
0.000857895
0.000874049
0.000889991
0.000905725
0.00092125
0.000936568
0.000951675
0.000966568
0.00098124
0.000995681
0.00100987
0.0010238
0.00103742
0.00105072
0.00106365
0.00107616
0.00108821
0.00109977
0.00111087
0.00112167
0.00113228
0.0011426
0.00115267
0.00116246
0.00117197
0.0011812
0.00119014
0.00119879
0.00120713
0.00121516
0.00122289
0.00123029
0.00123737
0.00124413
0.00125055
0.00125664
0.00126239
0.00126779
0.00127285
0.00127756
0.00128192
0.00128593
0.00128957
0.00129286
0.00129578
0.00129834
0.00130055
0.00130241
0.00130389
0.00130506
0.00130578
0.0013062
0.00130641
0.00130647
0.00130627
0.00130589
0.00130521
0.0013042
0.00130289
0.00130128
0.00129938
0.00129719
0.00129473
0.00129196
0.00128916
0.00128571
0.00128252
0.00127852
0.00127489
0.00127038
0.00126628
0.00126148
0.00125651
0.00125165
0.0012462
0.00124083
0.00123517
0.00122941
0.00122351
0.00121749
0.00121135
0.00120511
0.00119876
0.00119232
0.00118579
0.00117919
0.00117253
0.00116584
0.0011591
0.00115232
0.0011455
0.00113859
0.00113152
0.00112421
0.00111647
0.00110799
0.00109798
0.00108459
0.0010541
7.36005e-11
1.24623e-08
1.96439e-07
8.13099e-07
2.61796e-06
7.12398e-06
1.40877e-05
2.34184e-05
3.44172e-05
4.59763e-05
5.71636e-05
6.73813e-05
7.61344e-05
8.28142e-05
8.78408e-05
9.10347e-05
9.23276e-05
9.20802e-05
9.04305e-05
8.72672e-05
8.26404e-05
7.70137e-05
6.95569e-05
6.06284e-05
5.07394e-05
4.07606e-05
3.15696e-05
2.38629e-05
1.79154e-05
1.3203e-05
1.02791e-05
7.80693e-06
8.55237e-06
1.30914e-05
2.81579e-05
5.23879e-05
7.1395e-05
7.96245e-05
7.6792e-05
7.37026e-05
7.36434e-05
7.7255e-05
8.50095e-05
9.62114e-05
0.000112203
0.000124041
0.000143951
0.000167968
0.000195141
0.000228704
0.000265253
0.000306113
0.000349347
0.000394602
0.000440674
0.000486867
0.000532626
0.000577074
0.000619912
0.000662105
0.000701856
0.000739651
0.000777353
0.000812601
0.0008467
0.000879573
0.000911358
0.000942221
0.000972253
0.00100155
0.00103021
0.00105829
0.00108585
0.00111294
0.00113958
0.00116582
0.00119167
0.00121715
0.00124228
0.00126706
0.0012915
0.00131561
0.0013394
0.00136285
0.00138597
0.00140877
0.00143123
0.00145335
0.00147513
0.00149654
0.00151759
0.00153824
0.00155849
0.0015783
0.00159766
0.00161653
0.00163492
0.0016528
0.00167019
0.00168715
0.00170372
0.00171993
0.00173573
0.00175113
0.00176612
0.00178068
0.00179481
0.00180849
0.00182173
0.00183451
0.00184682
0.00185866
0.00187003
0.00188091
0.00189131
0.00190121
0.00191061
0.0019195
0.00192789
0.00193577
0.00194314
0.00194998
0.00195631
0.00196212
0.0019674
0.00197216
0.0019764
0.00198012
0.00198333
0.00198599
0.00198818
0.00198978
0.00199089
0.00199173
0.00199218
0.00199218
0.00199177
0.0019909
0.00198957
0.00198779
0.00198558
0.00198293
0.00197987
0.0019764
0.00197251
0.00196838
0.00196364
0.00195882
0.00195333
0.00194781
0.00194159
0.00193538
0.00192858
0.00192146
0.00191421
0.00190646
0.00189857
0.00189038
0.00188198
0.00187337
0.00186458
0.00185561
0.00184649
0.0018372
0.00182777
0.00181821
0.00180855
0.0017988
0.00178899
0.00177912
0.0017692
0.0017592
0.0017491
0.0017388
0.00172817
0.001717
0.00170489
0.0016907
0.00167197
0.00163585
2.51133e-10
3.73075e-08
4.31656e-07
2.04779e-06
7.02375e-06
1.68145e-05
3.10422e-05
4.79334e-05
6.55136e-05
8.2016e-05
9.62355e-05
0.000107285
0.000115403
0.000120942
0.000124031
0.000125284
0.00012492
0.000123167
0.000120207
0.000116055
0.000110685
0.000104642
9.72059e-05
8.84468e-05
7.83067e-05
6.70884e-05
5.56479e-05
4.5248e-05
3.66456e-05
2.89135e-05
2.30302e-05
2.19926e-05
2.79316e-05
4.65577e-05
7.10912e-05
8.66769e-05
9.42002e-05
9.74089e-05
9.99978e-05
0.000104991
0.000113941
0.000127813
0.000141974
0.000155264
0.000177607
0.000207314
0.000240498
0.000280557
0.000324869
0.000374243
0.000426079
0.000480735
0.000536435
0.000592739
0.000648736
0.00070404
0.000758136
0.000810747
0.000861565
0.000911086
0.00095865
0.00100473
0.00104953
0.00109254
0.0011343
0.00117486
0.00121434
0.00125286
0.00129051
0.00132739
0.00136357
0.00139911
0.00143405
0.00146844
0.0015023
0.00153567
0.00156855
0.00160096
0.0016329
0.0016644
0.00169544
0.00172603
0.00175618
0.00178588
0.00181513
0.00184393
0.00187228
0.00190016
0.00192757
0.00195449
0.00198093
0.00200686
0.00203227
0.00205715
0.00208149
0.00210527
0.00212851
0.0021512
0.00217337
0.00219502
0.00221618
0.00223684
0.00225697
0.00227657
0.00229564
0.00231415
0.0023321
0.00234948
0.00236628
0.0023825
0.00239812
0.00241315
0.00242757
0.00244138
0.00245457
0.00246714
0.00247909
0.00249041
0.0025011
0.00251116
0.00252059
0.00252937
0.00253752
0.00254503
0.0025519
0.00255814
0.00256373
0.0025687
0.00257305
0.00257671
0.0025798
0.00258218
0.00258396
0.00258541
0.00258626
0.00258655
0.00258628
0.00258545
0.00258406
0.00258212
0.00257965
0.00257666
0.00257315
0.00256913
0.00256462
0.0025597
0.00255422
0.0025484
0.002542
0.0025353
0.00252802
0.00252046
0.00251238
0.00250388
0.00249507
0.00248581
0.00247625
0.00246636
0.00245618
0.00244574
0.00243506
0.00242415
0.00241302
0.00240169
0.00239017
0.00237848
0.00236664
0.00235468
0.00234261
0.00233045
0.00231822
0.00230589
0.00229344
0.00228078
0.00226779
0.00225423
0.00223972
0.00222311
0.00220151
0.00216526
8.05167e-10
9.14023e-08
1.09271e-06
5.50935e-06
1.78301e-05
3.74234e-05
6.07881e-05
8.46546e-05
0.000105611
0.000122187
0.000134431
0.000143231
0.000148496
0.000151198
0.000151942
0.000151162
0.000149114
0.000145977
0.000141878
0.000136768
0.000130765
0.000124157
0.000116383
0.000107549
9.49627e-05
7.93136e-05
6.41913e-05
5.00884e-05
3.87963e-05
3.42235e-05
3.59396e-05
4.89958e-05
7.156e-05
9.31628e-05
0.000108038
0.000116975
0.00012271
0.000129083
0.0001396
0.000156305
0.000168021
0.000182016
0.000206281
0.0002361
0.000272802
0.000316496
0.000364999
0.000419031
0.000476075
0.000536142
0.000597653
0.000660343
0.000723156
0.000785706
0.000847479
0.000908244
0.000967404
0.00102515
0.00108167
0.00113667
0.00118995
0.00124173
0.00129215
0.00134113
0.00138888
0.0014355
0.00148107
0.0015257
0.00156945
0.00161241
0.00165464
0.00169617
0.00173705
0.00177731
0.00181696
0.00185603
0.00189453
0.00193245
0.0019698
0.0020066
0.00204283
0.0020785
0.00211361
0.00214816
0.00218215
0.00221557
0.00224842
0.0022807
0.0023124
0.00234352
0.00237404
0.00240396
0.00243328
0.00246198
0.00249007
0.00251753
0.00254438
0.00257063
0.00259627
0.00262131
0.00264574
0.00266956
0.00269275
0.00271532
0.00273724
0.00275851
0.00277912
0.00279906
0.00281833
0.00283691
0.0028548
0.00287199
0.0028885
0.0029043
0.0029194
0.00293379
0.00294747
0.00296045
0.00297272
0.00298427
0.00299512
0.00300525
0.00301467
0.00302339
0.00303139
0.00303869
0.00304529
0.00305124
0.0030564
0.00306088
0.0030647
0.00306774
0.00307015
0.00307212
0.0030734
0.00307404
0.00307405
0.00307343
0.0030722
0.00307037
0.00306794
0.00306494
0.00306137
0.00305723
0.00305255
0.00304737
0.00304163
0.00303542
0.00302866
0.00302146
0.00301372
0.00300554
0.00299686
0.00298771
0.00297814
0.00296813
0.00295773
0.00294696
0.00293585
0.00292443
0.00291272
0.00290073
0.00288848
0.00287598
0.00286325
0.00285031
0.00283718
0.0028239
0.00281048
0.00279695
0.00278332
0.00276958
0.0027557
0.00274163
0.00272725
0.00271236
0.00269659
0.00267898
0.0026568
0.00262273
2.60465e-09
2.34762e-07
2.89471e-06
1.50237e-05
3.8846e-05
6.86405e-05
9.67116e-05
0.000119494
0.000136899
0.000149946
0.000159117
0.000164734
0.000167662
0.000168573
0.000167943
0.000166091
0.000163216
0.000159416
0.000154621
0.000148756
0.000142075
0.000134315
0.00012524
0.000107683
9.21822e-05
7.85788e-05
6.66272e-05
5.85384e-05
5.83752e-05
6.78648e-05
8.21995e-05
0.000107439
0.000124178
0.000136806
0.000146016
0.000154184
0.000165364
0.000182533
0.000191613
0.000205523
0.000228732
0.000257627
0.000294585
0.000337946
0.000388146
0.000443819
0.00050328
0.000566029
0.00063062
0.000696739
0.000763488
0.000830469
0.000897112
0.000963144
0.001028
0.00109167
0.00115459
0.00121602
0.00127606
0.0013347
0.0013919
0.00144773
0.00150229
0.0015556
0.00160778
0.00165888
0.001709
0.0017582
0.00180655
0.00185409
0.00190089
0.00194696
0.00199234
0.00203704
0.00208107
0.00212444
0.00216715
0.0022092
0.00225059
0.00229132
0.00233138
0.00237078
0.00240951
0.00244758
0.00248498
0.00252172
0.00255779
0.0025932
0.00262793
0.002662
0.0026954
0.00272813
0.00276017
0.00279154
0.00282222
0.00285221
0.00288151
0.0029101
0.002938
0.00296521
0.00299173
0.00301756
0.00304268
0.0030671
0.0030908
0.00311378
0.00313603
0.00315754
0.00317833
0.00319839
0.00321771
0.00323628
0.0032541
0.00327117
0.00328748
0.00330304
0.00331784
0.00333188
0.00334517
0.00335771
0.00336949
0.00338053
0.00339081
0.00340035
0.00340914
0.00341719
0.00342455
0.00343118
0.00343697
0.00344208
0.00344648
0.00345005
0.00345303
0.00345543
0.00345712
0.00345813
0.00345847
0.00345815
0.00345719
0.0034556
0.00345338
0.00345057
0.00344717
0.00344324
0.00343875
0.00343372
0.00342813
0.00342202
0.00341536
0.0034082
0.0034005
0.0033923
0.00338359
0.00337438
0.00336471
0.00335457
0.00334401
0.00333304
0.0033217
0.00331001
0.00329798
0.00328564
0.00327301
0.00326008
0.00324688
0.00323344
0.00321977
0.00320591
0.00319189
0.00317773
0.00316344
0.00314902
0.00313447
0.00311973
0.00310474
0.00308933
0.00307323
0.00305566
0.00303449
0.00300368
7.89548e-09
6.23801e-07
7.83188e-06
3.20316e-05
6.68043e-05
0.000101535
0.000130272
0.000151328
0.000165628
0.000174278
0.000178697
0.000180516
0.000180589
0.000179298
0.000176972
0.000173776
0.000169673
0.000164574
0.000158596
0.00015188
0.000144231
0.000135253
0.000116672
9.98944e-05
8.61519e-05
7.73518e-05
7.58082e-05
8.04968e-05
9.19829e-05
0.000113642
0.000138691
0.000161294
0.000174477
0.000184285
0.000195831
0.000205517
0.000212835
0.000226034
0.000246674
0.000273572
0.000308417
0.000349812
0.000398422
0.000452889
0.000512527
0.00057573
0.000641342
0.000708765
0.000777222
0.000846331
0.000915565
0.000984588
0.00105286
0.00112018
0.00118704
0.0012528
0.00131742
0.00138079
0.00144291
0.00150378
0.00156339
0.00162178
0.00167902
0.00173515
0.00179024
0.00184433
0.0018975
0.0019498
0.00200128
0.00205197
0.00210192
0.00215114
0.00219964
0.00224744
0.00229453
0.0023409
0.00238654
0.00243146
0.00247563
0.00251906
0.00256174
0.00260366
0.00264484
0.00268526
0.00272493
0.00276385
0.00280202
0.00283946
0.00287616
0.00291214
0.00294738
0.0029819
0.00301568
0.00304874
0.00308106
0.00311264
0.00314347
0.00317354
0.00320287
0.00323148
0.00325935
0.00328648
0.00331287
0.00333851
0.00336339
0.0033875
0.00341085
0.00343343
0.00345523
0.00347624
0.00349648
0.00351593
0.00353459
0.00355247
0.00356957
0.00358588
0.00360142
0.00361618
0.00363016
0.00364338
0.00365583
0.00366751
0.00367843
0.0036886
0.00369802
0.00370668
0.00371468
0.00372187
0.00372827
0.00373397
0.00373895
0.00374309
0.00374667
0.00374959
0.0037518
0.00375332
0.00375416
0.00375434
0.00375387
0.00375275
0.00375101
0.00374866
0.00374572
0.00374217
0.00373805
0.00373337
0.00372812
0.00372232
0.00371598
0.00370911
0.0037017
0.00369376
0.0036853
0.00367632
0.00366686
0.00365691
0.00364652
0.00363571
0.00362449
0.00361289
0.00360093
0.00358863
0.00357599
0.00356303
0.00354977
0.00353623
0.00352244
0.00350842
0.0034942
0.00347982
0.00346528
0.0034506
0.00343578
0.0034208
0.00340566
0.00339031
0.00337447
0.00335754
0.00333784
0.0033109
2.06483e-08
1.55648e-06
1.73603e-05
5.36939e-05
9.52087e-05
0.000130135
0.000156172
0.000173552
0.000184345
0.000189874
0.000191559
0.000190522
0.00018772
0.000183874
0.000179374
0.00017433
0.000168644
0.00016238
0.00015542
0.000147944
0.000139712
0.00012766
0.000116207
0.000109719
0.000104545
0.00010128
0.000107349
0.000123227
0.000143326
0.000164612
0.000184359
0.000200594
0.000212074
0.000220911
0.000230322
0.000242826
0.000261179
0.000285439
0.000317057
0.000355377
0.000400633
0.000451925
0.000508937
0.000570408
0.000635269
0.000702323
0.000770818
0.000840271
0.000910214
0.000980316
0.00105024
0.00111934
0.00118804
0.00125617
0.00132337
0.00138954
0.00145464
0.00151863
0.00158148
0.0016432
0.00170381
0.00176333
0.00182181
0.0018793
0.00193583
0.00199147
0.00204625
0.00210021
0.00215341
0.00220589
0.00225765
0.00230872
0.00235911
0.00240881
0.00245776
0.00250599
0.00255346
0.00260016
0.00264607
0.00269117
0.00273545
0.00277891
0.00282155
0.00286338
0.00290442
0.00294471
0.00298418
0.00302284
0.0030607
0.00309777
0.00313406
0.00316956
0.0032043
0.00323825
0.00327144
0.00330386
0.00333552
0.00336643
0.00339658
0.00342597
0.0034546
0.00348246
0.00350954
0.00353585
0.00356138
0.00358612
0.00361006
0.00363322
0.00365557
0.00367713
0.00369788
0.00371784
0.00373699
0.00375536
0.00377292
0.0037897
0.0038057
0.00382092
0.00383536
0.00384904
0.00386196
0.00387412
0.00388552
0.00389618
0.00390609
0.00391529
0.00392382
0.0039315
0.00393848
0.00394475
0.00395029
0.00395503
0.00395922
0.00396271
0.00396551
0.00396763
0.00396908
0.00396987
0.00397002
0.00396954
0.00396844
0.00396674
0.00396445
0.00396157
0.00395811
0.0039541
0.00394953
0.00394442
0.00393877
0.00393258
0.00392585
0.0039186
0.00391081
0.00390251
0.00389372
0.00388443
0.0038747
0.00386452
0.00385392
0.00384293
0.00383155
0.00381981
0.0038077
0.00379524
0.00378246
0.00376936
0.00375598
0.00374234
0.00372848
0.00371441
0.00370017
0.00368576
0.00367119
0.00365648
0.0036416
0.0036265
0.00361106
0.00359481
0.00357643
0.00355292
4.61032e-08
3.60059e-06
3.11683e-05
7.81528e-05
0.000123239
0.000157173
0.000179375
0.000193248
0.000199782
0.000200857
0.00019839
0.000193777
0.000187962
0.00018153
0.000174697
0.00016742
0.000159872
0.000151654
0.000143485
0.00013498
0.000126437
0.000118907
0.000114299
0.000114933
0.000121969
0.000134681
0.000150949
0.000168931
0.000187151
0.000204154
0.000218247
0.000229659
0.000241816
0.000255292
0.000272459
0.000294304
0.000322589
0.000357251
0.000398438
0.000445568
0.000498317
0.000555954
0.00061778
0.000682712
0.00074979
0.000818201
0.000887427
0.000957105
0.00102692
0.00109633
0.00116522
0.00123407
0.00130207
0.00136928
0.00143557
0.00150088
0.00156518
0.00162844
0.00169065
0.00175184
0.001812
0.00187118
0.00192945
0.00198683
0.00204338
0.00209915
0.00215415
0.0022084
0.00226199
0.00231495
0.00236731
0.00241907
0.00247025
0.00252087
0.00257104
0.00262052
0.00266923
0.0027171
0.00276411
0.00281025
0.00285549
0.00289982
0.00294325
0.00298577
0.00302739
0.00306809
0.00310794
0.00314698
0.0031852
0.00322264
0.0032593
0.00329519
0.00333031
0.00336467
0.00339827
0.00343111
0.00346321
0.00349455
0.00352513
0.00355494
0.00358398
0.00361224
0.00363972
0.00366641
0.00369231
0.00371742
0.00374173
0.00376524
0.00378795
0.00380985
0.00383095
0.00385125
0.00387075
0.00388946
0.00390737
0.0039245
0.00394085
0.00395644
0.00397127
0.00398534
0.00399866
0.00401125
0.00402309
0.00403421
0.00404461
0.00405434
0.00406335
0.0040716
0.00407916
0.00408603
0.00409218
0.00409761
0.00410245
0.0041066
0.00411008
0.00411289
0.00411506
0.00411659
0.00411749
0.00411778
0.00411747
0.00411657
0.00411509
0.00411305
0.00411044
0.00410729
0.00410361
0.00409938
0.00409463
0.00408935
0.00408355
0.00407721
0.00407036
0.00406299
0.00405512
0.00404677
0.00403796
0.00402871
0.00401903
0.00400895
0.00399846
0.00398758
0.00397632
0.00396469
0.0039527
0.00394038
0.00392775
0.00391482
0.00390164
0.00388823
0.0038746
0.00386079
0.0038468
0.00383266
0.00381839
0.00380395
0.00378928
0.00377404
0.00375717
0.0037373
8.75718e-08
7.3583e-06
4.59675e-05
9.90216e-05
0.000145467
0.000178268
0.000198599
0.000208175
0.000210207
0.000207291
0.000201334
0.000193657
0.000185086
0.000175982
0.000167091
0.000158238
0.000150231
0.000143149
0.000137811
0.00013385
0.000132259
0.000133973
0.000139456
0.000148752
0.000161212
0.000175894
0.00019164
0.000207454
0.000221987
0.000234663
0.000248171
0.000263483
0.00028061
0.000301055
0.000326528
0.000357578
0.000394583
0.000437212
0.000485151
0.000537891
0.000594974
0.000655757
0.000719504
0.000785349
0.000852542
0.000920508
0.000988851
0.00105726
0.00112513
0.00119291
0.00126023
0.00132691
0.00139276
0.0014577
0.00152167
0.00158467
0.00164669
0.00170774
0.00176783
0.00182697
0.00188514
0.00194243
0.00199895
0.00205474
0.00210988
0.00216447
0.00221868
0.00227263
0.00232607
0.00237898
0.00243135
0.0024832
0.00253452
0.00258529
0.00263539
0.00268486
0.00273361
0.00278157
0.00282873
0.00287504
0.00292046
0.00296497
0.00300856
0.00305125
0.00309304
0.00313399
0.00317409
0.00321337
0.00325184
0.00328952
0.00332642
0.00336255
0.00339793
0.00343255
0.00346642
0.00349954
0.00353192
0.00356354
0.00359441
0.00362452
0.00365387
0.00368244
0.00371024
0.00373726
0.00376349
0.00378893
0.00381358
0.00383743
0.00386049
0.00388274
0.00390419
0.00392485
0.00394472
0.00396379
0.00398208
0.0039996
0.00401635
0.00403235
0.0040476
0.00406211
0.0040759
0.00408897
0.00410133
0.00411297
0.00412394
0.00413424
0.00414382
0.00415272
0.00416094
0.0041685
0.00417536
0.00418157
0.00418716
0.00419207
0.00419633
0.00419996
0.00420296
0.00420534
0.00420712
0.00420831
0.00420891
0.00420895
0.00420843
0.00420736
0.00420575
0.00420361
0.00420096
0.00419779
0.0041941
0.0041899
0.00418519
0.00417995
0.0041742
0.00416794
0.00416119
0.00415396
0.00414628
0.00413815
0.0041296
0.00412063
0.00411126
0.00410147
0.00409128
0.0040807
0.00406975
0.00405843
0.00404678
0.00403481
0.00402255
0.00401003
0.00399726
0.00398427
0.00397109
0.00395775
0.00394427
0.00393066
0.00391691
0.00390276
0.0038873
0.00387058
1.39431e-07
1.25374e-05
6.25676e-05
0.000121587
0.000167743
0.000198308
0.000214544
0.000220122
0.000218562
0.000212574
0.000204158
0.000194366
0.000184666
0.000175333
0.000167338
0.000160461
0.000155451
0.000152695
0.000152062
0.0001538
0.000158167
0.00016518
0.000174617
0.00018608
0.000199024
0.000212805
0.000226379
0.000239158
0.000252818
0.000268898
0.000286826
0.000306528
0.000330092
0.000358146
0.000391268
0.000429467
0.000472564
0.000520164
0.000571894
0.000627333
0.000686033
0.000747428
0.000810864
0.000875661
0.000941229
0.00100713
0.00107274
0.00113808
0.00120317
0.00126762
0.00133136
0.00139427
0.00145624
0.00151715
0.00157694
0.00163578
0.0016937
0.00175076
0.00180706
0.00186275
0.00191821
0.0019732
0.00202755
0.00208128
0.00213444
0.00218706
0.00223915
0.00229071