/*--------------------------------*- C++ -*----------------------------------*\
  =========                 |
  \\      /  F ield         | OpenFOAM: The Open Source CFD Toolbox
   \\    /   O peration     | Website:  https://openfoam.org
    \\  /    A nd           | Version:  8
     \\/     M anipulation  |
\*---------------------------------------------------------------------------*/
FoamFile
{
    version     2.0;
    format      ascii;
    class       volScalarField;
    location    "1000";
    object      omega;
}
// * * * * * * * * * * * * * * * * * * * * * * * * * * * * * * * * * * * * * //

dimensions      [0 0 -1 0 0 0 0];

internalField   nonuniform List<scalar> 
12225
(
32582.3
38331.3
38471.8
32582.3
32582.3
32582.3
43462.1
45636.6
50433.4
53008.6
49959
45670.3
48112.1
43712.3
32582.3
38315.8
32582.3
43762.5
3499.37
8989.19
11978.4
12687.7
12582.8
12539.8
14658.6
15759.8
18128.2
17270.7
22823.7
22459.1
20490
19618.2
17402.1
17660.5
17112.8
17219.4
878.226
1676.8
2361.54
3282.59
3684.96
4209.69
4828.83
5285.97
5621.57
5874.94
6215.49
6389.25
6627.37
6726.16
6802.23
6941.36
6978.7
7096.63
576.037
760.915
945.396
1224.93
1400.96
1585.27
1746.61
1896.66
2000.33
2110.78
2212.63
2313.15
2399.15
2488.14
2542.15
2625.47
2662.36
2746.39
486.771
542.54
603.807
708.502
778.041
843.713
898.271
952.615
992.494
1039.54
1077.51
1125.14
1159.11
1204.43
1230.82
1273.87
1294.54
1336.42
452.695
469.247
488.339
528.77
559.567
587.023
608.425
630.647
647.358
668.439
685.287
708.074
724.727
748.052
762.755
785.952
797.773
820.429
441.604
444.935
448.806
463.158
474.958
485.816
494.082
502.961
509.649
518.783
526.272
536.929
545.251
556.975
565.159
577.28
584.409
596.449
439.204
438.944
438.981
442.659
447.384
451.643
455.327
458.578
461.138
465.096
468.318
473.44
477.663
483.894
488.473
495.281
499.511
506.545
438.979
437.218
435.479
435.702
436.548
437.434
438.39
439.411
440.053
441.227
442.001
443.785
445.492
448.398
450.591
454.154
456.365
460.338
439
436.847
434.795
433.348
432.225
431.36
430.605
430.054
429.281
429.451
428.941
429.052
429.151
429.572
430.072
431.269
432.02
433.639
438.995
436.804
434.678
432.796
431.037
429.469
427.977
426.658
425.377
424.262
423.235
422.421
421.655
421.132
420.64
420.493
420.159
420.274
438.997
436.788
434.668
432.692
430.803
429.043
427.353
425.785
424.279
422.887
421.555
420.355
419.205
418.196
417.223
416.424
415.612
414.991
438.999
436.779
434.664
432.667
430.762
428.961
427.242
425.617
424.063
422.597
421.193
419.875
418.612
417.434
416.304
415.262
414.256
413.339
439.001
436.775
434.661
432.656
430.749
428.94
427.216
425.58
424.019
422.537
421.121
419.777
418.491
417.273
416.106
415.002
413.943
412.943
439.001
436.773
434.659
432.65
430.742
428.928
427.203
425.562
424
422.512
421.094
419.743
418.454
417.226
416.053
414.935
413.867
412.849
439.001
436.773
434.656
432.647
430.736
428.921
427.194
425.551
423.986
422.496
421.076
419.722
418.432
417.2
416.026
414.904
413.834
412.811
439.001
436.772
434.655
432.644
430.733
428.916
427.188
425.544
423.977
422.486
421.064
419.709
418.417
417.184
416.008
414.885
413.814
412.79
439.001
436.771
434.654
432.643
430.732
428.914
427.187
425.54
423.975
422.481
421.061
419.703
418.412
417.177
416.001
414.877
413.806
412.78
439.001
436.771
434.654
432.644
430.733
428.916
427.187
425.543
423.976
422.485
421.062
419.708
418.414
417.182
416.004
414.882
413.809
412.786
439.001
436.771
434.657
432.645
430.737
428.919
427.193
425.548
423.984
422.493
421.075
419.721
418.434
417.204
416.033
414.914
413.849
412.829
439
436.771
434.662
432.65
430.745
428.927
427.206
425.564
424.014
422.536
421.142
419.812
418.557
417.36
416.227
415.149
414.123
413.14
438.971
436.777
434.698
432.687
430.784
428.979
427.295
425.707
424.26
422.901
421.668
420.506
419.443
418.444
417.514
416.657
415.821
415.051
438.736
436.952
435.069
433.047
431.162
429.58
428.194
427.034
426.165
425.473
425.001
424.596
424.343
424.114
423.979
423.878
423.718
423.757
437.694
439.045
438.433
436.28
434.521
434.578
434.477
435.138
436.517
438.141
440.178
442.005
444.137
445.904
447.961
449.524
451.379
452.563
432.52
459.06
464.112
458.28
455.85
457.421
462.416
468.78
476.721
484.128
492.149
498.896
506.207
512.02
518.466
523.219
528.628
532.186
460.935
546.659
563.691
565.994
543.721
546.712
562.152
581.301
603.818
623.493
644.064
660.435
677.955
691.129
705.822
715.979
727.711
735.046
553.677
913.499
820.678
1024.6
886.167
871.631
903.055
948.131
1001.99
1047.43
1094.17
1129.33
1166.73
1192.77
1222.6
1240.8
1263.59
1276.05
931.255
2308.58
2106.49
2587.12
2339.15
2221.15
2262.42
2356.8
2470.04
2563.58
2652.06
2714.2
2775.98
2814.75
2860.93
2882.13
2919.64
2930.94
2617.94
7022.84
7319.57
8455.78
8186.85
8240.41
8411.81
8581.43
8696.44
8760.81
8778.36
8771.83
8758.52
8743.34
8725.75
8725.75
8729.18
8722.62
16112.1
21703.6
23751.1
24716.3
25183.3
25231.6
25161.6
25005.4
24759.1
24496.8
24236.3
23987.8
23756
23543.7
23350.3
23176.5
23020.5
22882.2
11463.3
2494.65
2496.87
2499.12
2501.38
2503.67
2505.98
2508.3
2510.65
2513.02
2515.42
2517.83
2520.27
2522.73
2525.21
2527.72
2530.25
2532.8
2535.37
2537.97
2540.6
2543.25
2545.92
2548.62
2551.34
2554.09
2556.87
2559.67
2562.5
2565.35
2568.23
2571.14
2574.08
2577.04
2580.04
2583.06
2586.11
2589.19
2592.3
2595.43
2598.6
2601.8
2605.03
2608.29
2611.59
2614.91
2618.27
2621.66
2625.08
2628.54
2632.03
2635.55
2639.11
2642.71
2646.33
2650
3165.91
3342.05
3215.43
3234.77
3333.87
3474.76
3290.09
3459.71
3535.29
3624.9
3704.36
3784.89
3859.24
3933.38
4003.87
4073.17
4140.33
4205.94
4270.15
4332.8
4394.35
4454.48
4513.62
4571.48
4628.37
4684.12
4738.9
4792.62
4845.34
4897.05
4947.73
4997.41
5046.02
5093.58
5140.04
5185.36
5229.48
5272.37
5313.97
5354.24
5393.17
5430.81
5467.31
5503.02
5538.11
5571.97
5604.9
5636.83
5667.76
5697.7
5726.6
5754.5
5781.34
5807.16
5831.9
5855.6
5878.21
5899.77
5920.22
5939.62
5957.92
5975.15
5991.28
6006.34
6020.31
6033.21
6045.05
6055.82
6065.57
6074.3
6082.13
6089.28
6094.28
6100.04
6102.18
6105.41
6107.23
6108.9
6109.55
6109.22
6107.09
6104.26
6100.37
6095.71
6090.23
6083.98
6077
6069.3
6060.96
6052.13
6042.37
6032.45
6021.43
6010.45
5998.3
5986.36
5973.12
5960.06
5946.42
5932.3
5918.2
5903.68
5889.15
5874.49
5859.8
5845.11
5830.43
5815.81
5801.29
5786.92
5772.77
5758.9
5745.39
5732.26
5719.52
5707.16
5695.03
5682.92
5670.43
5657.02
5641.64
5621.39
5591.38
5465.61
11463.3
1993.43
1000.11
815.877
699.31
628.823
636.875
634.649
621.255
599.753
575.114
551.451
529.318
510.959
498.122
489.204
487.696
489.591
514.408
560.888
643.943
744.633
854.429
963.968
1062.5
1139.25
1184.57
1178.59
1149.71
1065.95
949.417
801.596
669.71
580.584
509.89
470.063
462.572
469.654
490.324
521.402
551.29
588.703
681.943
807.37
1000.3
1319.18
1641.6
1864.85
2008.64
2078.09
2097.73
2085.47
2035.03
1983.27
1939.53
1907.71
1887.1
1834.24
1811.2
1745.1
1733.99
1722.97
1702.64
1697.29
1688.31
1687.85
1687.21
1689.2
1692.02
1696.5
1701.51
1707.52
1713.96
1720.93
1728.2
1735.73
1743.45
1751.29
1759.21
1767.15
1775.09
1783.01
1790.85
1798.62
1806.27
1813.79
1821.16
1828.36
1835.36
1842.16
1848.72
1855.08
1861.2
1867.13
1872.9
1878.6
1884.37
1890.41
1897.06
1904.73
1913.4
1921.31
1929.25
1936.85
1944.27
1951.44
1958.38
1965.09
1971.56
1977.8
1983.81
1989.58
1995.12
2000.42
2005.49
2010.33
2014.93
2019.31
2023.46
2027.38
2031.08
2034.56
2037.82
2040.87
2043.72
2046.37
2048.83
2051.1
2053.09
2055.01
2056.56
2058.16
2059.53
2060.77
2061.61
2061.87
2061.36
2060.57
2059.58
2058.41
2057.06
2055.55
2053.87
2052.07
2050.2
2047.55
2045.86
2042.48
2040.7
2036.96
2034.96
2030.85
2028.24
2025.21
2021.12
2018.2
2014.35
2010.87
2007.18
2003.48
1999.75
1995.99
1992.21
1988.43
1984.66
1980.9
1977.18
1973.5
1969.89
1966.35
1962.9
1959.52
1956.26
1953.17
1950.3
1947.75
1945.56
1944.36
1943.29
1952.06
11463.3
2012.95
817.099
647.367
688.673
691.351
663.757
607.747
547.651
490.827
440.781
397.75
364.016
337.64
317.332
301.776
290.824
282.701
279.911
282.158
292.052
309.997
341.663
385.15
439.656
499.847
560.984
608.045
639.748
636.387
620.936
575.485
515.976
449.284
399.131
391.173
401.484
424.604
461.748
532.727
643.026
798.462
1002.04
1185.59
1335
1467.62
1558.37
1587
1582.97
1534.07
1478.49
1415.3
1355.13
1302.9
1260.01
1223.96
1193.85
1169.99
1155.95
1138.71
1130.33
1127.31
1119.38
1118.17
1116.38
1116.34
1117.39
1119.16
1121.51
1124.39
1127.6
1131.16
1134.92
1138.88
1142.98
1147.18
1151.47
1155.8
1160.16
1164.54
1168.92
1173.28
1177.62
1181.91
1186.16
1190.36
1194.49
1198.56
1202.56
1206.5
1210.36
1214.18
1217.95
1221.71
1225.48
1229.29
1233.19
1237.21
1241.39
1245.71
1249.98
1254.04
1258.04
1261.88
1265.6
1269.19
1272.65
1275.98
1279.19
1282.25
1285.19
1287.99
1290.67
1293.21
1295.61
1297.89
1300.03
1302.04
1303.92
1305.66
1307.28
1308.77
1310.13
1311.36
1312.47
1313.45
1314.31
1315.05
1315.66
1316.17
1316.53
1316.81
1316.96
1316.97
1316.78
1316.35
1315.71
1314.95
1314.08
1313.11
1312.03
1310.85
1309.57
1308.19
1306.76
1304.99
1303.52
1301.47
1299.87
1297.61
1295.87
1293.46
1291.42
1289.26
1286.73
1284.52
1282.01
1279.56
1277.04
1274.48
1271.88
1269.26
1266.62
1263.96
1261.29
1258.61
1255.93
1253.26
1250.6
1247.97
1245.38
1242.85
1240.4
1238.08
1235.97
1234.19
1232.92
1232.88
1234.45
1245.21
11463.3
2038.71
1019.36
991.789
915.228
784.965
666.569
558.339
472.828
408.983
360.863
323.318
294.124
271.737
254.623
241.627
231.892
224.868
220.22
218.344
219.321
222.337
230.468
244.509
265.812
294.257
328.383
363.356
394.565
417.916
424.472
418.096
398.025
401.231
443.041
532.132
597.951
656.905
729.871
833.84
971.653
1092.94
1172.6
1239.88
1292.88
1312.86
1276.61
1227.34
1182.05
1127.21
1081.26
1038.48
1003.35
974.373
951.601
933.347
919.272
909.03
902.087
896.096
892.964
891.729
889.929
890.14
890.913
892.3
894.191
896.448
899.015
901.833
904.844
908.019
911.318
914.72
918.2
921.742
925.329
928.948
932.588
936.237
939.887
943.53
947.158
950.767
954.35
957.903
961.424
964.911
968.364
971.784
975.173
978.539
981.888
985.227
988.564
991.907
995.259
998.617
1001.97
1005.28
1008.49
1011.61
1014.63
1017.55
1020.37
1023.09
1025.7
1028.21
1030.62
1032.91
1035.11
1037.19
1039.17
1041.03
1042.79
1044.44
1045.97
1047.4
1048.71
1049.91
1051
1051.98
1052.85
1053.6
1054.25
1054.78
1055.21
1055.52
1055.73
1055.84
1055.82
1055.71
1055.48
1055.13
1054.64
1054
1053.23
1052.36
1051.4
1050.35
1049.2
1047.96
1046.64
1045.22
1043.73
1042.09
1040.47
1038.64
1036.88
1034.88
1032.98
1030.85
1028.77
1026.64
1024.35
1022.11
1019.76
1017.39
1014.97
1012.51
1010.01
1007.49
1004.94
1002.38
999.79
997.193
994.587
991.979
989.371
986.777
984.213
981.693
979.244
976.908
974.749
972.883
971.469
971.086
972.208
978.898
11463.3
2316.56
1487.41
1201.39
953.378
736.564
568.616
455.938
379.039
325.384
287.229
260.051
240.374
225.538
214.004
204.999
198.137
193.128
189.771
188.143
188.377
189.693
193.532
200.292
211.077
226.91
247.892
271.678
295.407
313.79
331.114
359.634
429.891
533.802
622.5
692.308
764.533
843.523
918.013
982.567
1038.59
1086.7
1116.06
1123.37
1090.84
1042.35
1004.32
961.387
924.477
889.897
862.062
838.019
818.916
803.648
791.939
783.006
776.582
772.207
769.648
768.053
767.731
768.143
769.028
770.7
772.75
775.151
777.83
780.727
783.807
787.032
790.377
793.821
797.344
800.932
804.572
808.251
811.96
815.689
819.431
823.177
826.922
830.659
834.383
838.09
841.775
845.436
849.069
852.672
856.247
859.79
863.305
866.791
870.251
873.683
877.087
880.461
883.798
887.087
890.315
893.47
896.537
899.513
902.399
905.19
907.886
910.484
912.982
915.38
917.675
919.868
921.955
923.937
925.81
927.575
929.23
930.774
932.206
933.525
934.73
935.822
936.799
937.662
938.409
939.041
939.557
939.958
940.242
940.41
940.459
940.415
940.243
939.957
939.551
939.026
938.374
937.596
936.704
935.709
934.615
933.423
932.136
930.754
929.28
927.719
926.072
924.315
922.507
920.576
918.61
916.522
914.412
912.188
909.929
907.614
905.211
902.78
900.281
897.74
895.153
892.525
889.862
887.168
884.448
881.706
878.945
876.168
873.379
870.586
867.801
865.03
862.284
859.577
856.934
854.39
852.001
849.862
848.098
847.109
847.402
850.811
11463.3
2953.56
1752.83
1223.3
842.303
593.973
449.582
359.778
303.762
267.431
242.441
224.287
210.499
199.777
191.224
184.392
179.086
175.212
172.696
171.672
172.041
173.483
176.813
182.089
190.108
202.057
218.917
241.13
270.956
315.523
373.461
470.05
581.225
669.681
739.375
803.486
857.075
898.364
933.447
966.796
983.416
984.773
953.917
922.146
888.376
853.61
823.667
795.114
771.534
751.111
734.616
721.037
710.47
702.4
696.544
692.494
690.235
689.23
689.072
689.743
691.205
693.216
695.631
698.452
701.542
704.857
708.352
711.992
715.752
719.61
723.55
727.558
731.621
735.73
739.875
744.046
748.236
752.437
756.643
760.846
765.042
769.225
773.391
777.534
781.652
785.74
789.795
793.816
797.8
801.747
805.653
809.518
813.341
817.119
820.847
824.521
828.133
831.672
835.134
838.511
841.797
844.99
848.087
851.085
853.981
856.774
859.46
862.038
864.506
866.865
869.11
871.239
873.252
875.145
876.918
878.569
880.097
881.5
882.777
883.929
884.953
885.85
886.618
887.257
887.766
888.145
888.393
888.498
888.501
888.373
888.11
887.718
887.197
886.547
885.766
884.857
883.828
882.685
881.431
880.07
878.602
877.029
875.355
873.586
871.721
869.754
867.705
865.555
863.331
861.014
858.633
856.168
853.639
851.047
848.381
845.663
842.885
840.056
837.179
834.26
831.302
828.312
825.295
822.253
819.19
816.111
813.019
809.921
806.828
803.748
800.691
797.672
794.711
791.839
789.105
786.585
784.382
782.764
782.1
783.29
11463.3
3468.76
1796.18
1046.38
657.632
462.896
363.727
307.679
271.728
246.316
227.181
212.252
200.29
190.454
182.334
175.75
170.619
166.937
164.815
164.376
165.37
168.149
173.143
180.794
191.81
207.046
230.385
267.781
326.015
415.43
521.196
609.397
679.491
740.156
787.93
823.869
852.679
874.487
883.322
878.283
854.595
831.702
804.243
778.324
752.693
728.974
708.497
690.51
675.686
663.325
653.472
645.763
640.073
636.119
633.865
632.945
632.856
633.78
635.468
637.784
640.633
643.896
647.48
651.337
655.401
659.633
663.999
668.477
673.045
677.689
682.397
687.157
691.96
696.796
701.659
706.539
711.428
716.32
721.206
726.082
730.941
735.778
740.589
745.368
750.112
754.818
759.479
764.095
768.662
773.176
777.638
782.042
786.387
790.668
794.882
799.025
803.092
807.079
810.98
814.785
818.49
822.091
825.584
828.967
832.237
835.389
838.421
841.33
844.112
846.762
849.28
851.666
853.919
856.036
858.016
859.857
861.557
863.115
864.531
865.803
866.93
867.913
868.749
869.439
869.982
870.377
870.615
870.702
870.672
870.487
870.154
869.676
869.054
868.29
867.384
866.34
865.164
863.86
862.432
860.883
859.216
857.432
855.532
853.508
851.375
849.133
846.793
844.351
841.817
839.19
836.482
833.691
830.824
827.885
824.872
821.796
818.657
815.463
812.217
808.925
805.593
802.226
798.83
795.408
791.964
788.502
785.028
781.549
778.073
774.611
771.172
767.771
764.426
761.161
758.019
755.061
752.36
750.102
748.474
748.024
11463.3
3609.36
1574.1
821.745
520.981
386.544
317.119
276.811
250.834
232.544
218.382
206.456
196.048
187.083
179.52
173.433
169
166.4
165.555
166.376
169.127
174.454
182.886
196.722
218.58
250.876
301.161
377.894
466.251
545.324
610.064
665.389
712.234
749.573
779.667
797.99
803.981
796.251
778.617
760.454
739.167
719.156
698.728
679.595
661.601
645.665
632.05
620.52
611.117
603.588
597.85
593.73
591.22
590.123
589.937
590.787
592.498
594.966
598.055
601.658
605.689
610.065
614.717
619.595
624.653
629.858
635.183
640.606
646.109
651.679
657.304
662.972
668.675
674.404
680.151
685.905
691.659
697.404
703.132
708.838
714.514
720.156
725.759
731.317
736.826
742.284
747.683
753.019
758.29
763.494
768.625
773.681
778.659
783.554
788.363
793.082
797.709
802.243
806.669
810.98
815.173
819.243
823.188
827.004
830.688
834.236
837.644
840.911
844.032
847.007
849.834
852.51
855.032
857.4
859.61
861.661
863.551
865.278
866.842
868.242
869.477
870.546
871.448
872.182
872.748
873.145
873.357
873.415
873.321
873.054
872.621
872.025
871.268
870.35
869.276
868.049
866.673
865.153
863.495
861.701
859.773
857.717
855.533
853.228
850.804
848.263
845.612
842.851
839.988
837.025
833.971
830.827
827.6
824.293
820.908
817.453
813.932
810.351
806.714
803.028
799.299
795.533
791.735
787.91
784.062
780.195
776.317
772.435
768.557
764.692
760.853
757.052
753.304
749.632
746.059
742.621
739.392
736.506
734.045
732.218
11463.3
3420.93
1286.66
665.656
447.129
351.625
300.069
268.806
247.216
230.871
217.855
207.068
197.907
190.111
183.721
178.971
176.209
175.583
177.43
181.787
189.671
202.497
221.705
252.557
298.882
360.348
428.822
491.337
547.732
596.841
639.33
675.157
706.083
726.982
734.189
730.217
717.323
702.588
685.917
669.989
654.102
639.058
624.37
610.678
598.239
587.458
578.389
570.95
565.098
560.722
557.746
556.26
555.832
556.372
557.885
560.255
563.367
567.125
571.431
576.2
581.358
586.837
592.579
598.538
604.674
610.956
617.36
623.864
630.447
637.092
643.786
650.516
657.27
664.037
670.816
677.59
684.347
691.081
697.783
704.446
711.064
717.63
724.14
730.586
736.959
743.247
749.462
755.599
761.658
767.631
773.519
779.313
785.012
790.609
796.101
801.483
806.748
811.888
816.898
821.775
826.511
831.106
835.553
839.851
843.996
847.983
851.809
855.471
858.967
862.293
865.448
868.429
871.235
873.863
876.31
878.574
880.654
882.547
884.254
885.774
887.104
888.245
889.196
889.956
890.524
890.895
891.059
891.059
890.869
890.488
889.92
889.169
888.236
887.125
885.838
884.38
882.757
880.973
879.034
876.942
874.703
872.32
869.797
867.14
864.351
861.436
858.397
855.241
851.97
848.591
845.11
841.533
837.864
834.107
830.268
826.353
822.368
818.319
814.212
810.051
805.845
801.599
797.32
793.012
788.68
784.331
779.971
775.609
771.253
766.913
762.6
758.326
754.105
749.957
745.909
741.998
738.267
734.814
731.664
728.758
11463.3
2980.09
1037.19
565.293
403.481
330.919
291.96
266.388
248.759
235.75
225.295
216.482
209.054
203.122
199.096
197.584
198.865
203.794
212.42
225.31
244.626
272.213
309.418
354.28
402.78
451.538
497.355
538.477
575.391
607.412
635.905
659.176
669.635
670.798
663.745
653.224
640.335
627.602
615.168
603.445
592.056
581.09
570.564
560.867
552.274
544.983
539.03
534.388
531.019
529.007
528.219
528.292
529.443
531.518
534.449
538.148
542.53
547.514
553.021
558.982
565.332
572.008
578.956
586.129
593.488
601.002
608.649
616.41
624.248
632.143
640.078
648.033
655.989
663.919
671.783
679.615
687.424
695.201
702.935
710.618
718.246
725.81
733.307
740.731
748.077
755.346
762.517
769.582
776.537
783.38
790.106
796.71
803.188
809.535
815.747
821.819
827.744
833.519
839.14
844.601
849.898
855.028
859.986
864.769
869.373
873.795
878.031
882.077
885.932
889.591
893.054
896.317
899.379
902.238
904.891
907.336
909.57
911.593
913.403
915
916.384
917.552
918.505
919.242
919.763
920.054
920.133
920.008
919.669
919.118
918.358
917.394
916.227
914.862
913.302
911.553
909.62
907.51
905.227
902.776
900.162
897.39
894.465
891.393
888.177
884.823
881.336
877.721
873.982
870.125
866.158
862.086
857.915
853.65
849.298
844.866
840.361
835.788
831.155
826.465
821.727
816.948
812.133
807.289
802.421
797.537
792.645
787.752
782.869
778.004
773.169
768.375
763.635
758.967
754.394
749.947
745.657
741.599
737.765
733.873
11463.3
2494.68
891.421
523.471
389.556
327.372
292.895
272.317
258.567
248.436
240.495
234.281
229.955
228.183
229.057
233.786
242.542
254.571
270.249
291.751
319.12
351.243
386.34
422.224
457.362
490.72
521.487
548.831
573.88
596.589
610.21
614.389
613.041
607.589
599.067
589.63
580.083
571.042
562.395
554.057
545.885
537.962
530.469
523.699
517.868
513.108
509.464
506.949
505.708
505.417
506.123
507.802
510.428
513.932
518.247
523.3
529.015
535.323
542.157
549.457
557.186
565.267
573.635
582.243
591.046
599.994
609.017
618.067
627.195
636.389
645.627
654.887
664.141
673.371
682.58
691.738
700.837
709.871
718.822
727.685
736.458
745.136
753.717
762.192
770.554
778.789
786.892
794.858
802.687
810.373
817.915
825.306
832.542
839.616
846.525
853.266
859.833
866.221
872.426
878.441
884.263
889.888
895.312
900.532
905.546
910.348
914.936
919.306
923.456
927.383
931.085
934.561
937.809
940.827
943.612
946.162
948.475
950.55
952.387
953.985
955.342
956.459
957.335
957.969
958.357
958.498
958.404
958.073
957.506
956.704
955.672
954.413
952.932
951.233
949.321
947.202
944.882
942.368
939.665
936.779
933.716
930.482
927.082
923.523
919.81
915.948
911.944
907.804
903.531
899.132
894.614
889.985
885.25
880.418
875.495
870.489
865.408
860.259
855.046
849.776
844.455
839.09
833.689
828.258
822.804
817.337
811.866
806.398
800.942
795.509
790.108
784.75
779.449
774.22
769.084
764.067
759.191
754.518
750.026
745.244
11463.3
2077.24
787.182
490.081
381.124
328.64
300.837
284.422
273.856
266.653
261.747
259.334
259.006
261.784
268.076
277.998
290.977
306.783
326.185
348.831
373.769
399.943
426.35
452.161
476.688
499.332
520.684
540.819
555.597
562.285
563.961
563.337
559.415
553.798
547.363
540.877
534.57
528.491
522.529
516.629
510.813
505.224
500.076
495.595
491.958
489.264
487.705
487.164
487.551
488.951
491.317
494.619
498.828
503.921
509.85
516.507
523.825
531.738
540.173
549.039
558.194
567.668
577.471
587.569
597.917
608.472
619.206
630.094
641.06
652.056
663.048
674.018
684.908
695.686
706.337
716.842
727.187
737.373
747.423
757.347
767.152
776.84
786.41
795.851
805.153
814.3
823.285
832.102
840.748
849.223
857.52
865.634
873.557
881.286
888.816
896.145
903.266
910.177
916.87
923.341
929.584
935.596
941.375
946.919
952.223
957.287
962.105
966.675
970.995
975.064
978.881
982.443
985.75
988.799
991.589
994.119
996.387
998.391
1000.13
1001.61
1002.82
1003.76
1004.44
1004.85
1005
1004.87
1004.49
1003.84
1002.93
1001.77
1000.36
998.701
996.801
994.666
992.302
989.716
986.913
983.901
980.687
977.276
973.676
969.893
965.935
961.806
957.516
953.069
948.472
943.732
938.854
933.845
928.711
923.458
918.097
912.637
907.085
901.451
895.741
889.962
884.119
878.217
872.264
866.265
860.23
854.165
848.081
841.988
835.895
829.81
823.741
817.699
811.692
805.731
799.83
794.004
788.272
782.656
777.172
771.87
766.733
761.132
11463.3
1957.62
775.982
489.417
384.895
337.679
313.637
300.2
292.26
287.886
286.2
286.453
289.545
295.545
304.394
315.813
329.471
345.389
363.154
382.124
401.655
421.125
439.979
458.047
475.615
492.512
506.354
514.694
518.799
520.408
520.485
518.717
515.648
511.969
508.047
504.09
500.137
496.176
492.195
488.239
484.421
480.909
477.894
475.558
474.159
473.679
474.148
475.748
478.298
481.786
486.192
491.48
497.59
504.395
511.825
520.003
528.91
538.491
548.682
559.428
570.71
582.445
594.56
606.999
619.711
632.628
645.693
658.866
672.042
685.124
698.039
710.713
723.131
735.278
747.145
758.73
770.047
781.129
792.019
802.758
813.359
823.836
834.19
844.407
854.46
864.337
874.024
883.513
892.802
901.887
910.763
919.422
927.854
936.056
944.022
951.75
959.236
966.476
973.463
980.191
986.655
992.853
998.783
1004.44
1009.84
1014.95
1019.79
1024.36
1028.64
1032.65
1036.38
1039.83
1043
1045.88
1048.48
1050.8
1052.84
1054.59
1056.06
1057.24
1058.13
1058.73
1059.05
1059.07
1058.82
1058.27
1057.43
1056.32
1054.93
1053.27
1051.34
1049.14
1046.7
1044
1041.06
1037.89
1034.49
1030.87
1027.03
1022.99
1018.75
1014.32
1009.71
1004.92
999.959
994.84
989.567
984.147
978.588
972.895
967.076
961.132
955.081
948.933
942.697
936.38
929.988
923.528
917.005
910.424
903.793
897.114
890.399
883.659
876.905
870.147
863.395
856.657
849.94
843.252
836.604
830.005
823.472
817.018
810.662
804.422
798.311
792.368
786.596
780.226
11463.3
1874.04
750.637
487.281
392.271
349.728
328.705
317.467
311.469
308.876
308.416
310.572
315.338
322.417
331.496
342.241
354.38
367.634
381.624
395.927
410.127
424.188
438.269
451.85
463.35
471.494
477.228
481.305
483.484
484.398
484.578
483.904
482.62
481.013
479.215
477.298
475.3
473.272
471.3
469.538
468.233
467.488
467.291
467.816
469.177
471.352
474.257
477.718
482.104
487.486
493.869
501.229
509.534
518.785
528.978
540.04
551.929
564.566
577.873
591.783
606.237
621.135
636.383
651.903
667.659
683.513
699.319
714.931
730.263
745.245
759.803
773.877
787.438
800.479
813.002
825.024
836.611
847.856
858.88
869.786
880.583
891.298
901.943
912.482
922.845
933.027
943.011
952.782
962.331
971.653
980.738
989.578
998.161
1006.48
1014.53
1022.31
1029.81
1037.04
1043.98
1050.63
1056.97
1063.02
1068.77
1074.22
1079.37
1084.22
1088.77
1093.01
1096.95
1100.59
1103.93
1106.97
1109.71
1112.16
1114.31
1116.17
1117.72
1118.97
1119.91
1120.56
1120.89
1120.92
1120.66
1120.08
1119.2
1118.02
1116.54
1114.76
1112.7
1110.35
1107.73
1104.84
1101.69
1098.28
1094.62
1090.72
1086.59
1082.22
1077.64
1072.85
1067.85
1062.66
1057.29
1051.73
1046.01
1040.12
1034.08
1027.9
1021.57
1015.12
1008.54
1001.84
995.04
988.148
981.173
974.121
966.997
959.807
952.556
945.251
937.898
930.497
923.063
915.612
908.154
900.7
893.258
885.836
878.44
871.078
863.757
856.494
849.302
842.197
835.196
828.314
821.56
814.966
808.563
801.471
11463.3
1858.31
750.914
494.581
403.853
363.615
343.796
333.321
327.981
325.86
325.664
328.256
333.073
339.648
347.545
356.422
366.067
376.247
386.72
397.313
408.181
418.537
427.444
434.845
440.981
446.267
450.473
453.83
456.467
458.605
460.414
461.999
463.279
464.317
465.181
465.937
466.648
467.383
468.203
469.123
470.006
471.385
473.545
476.755
480.979
486.187
492.403
499.751
508.17
517.694
528.336
540.051
552.791
566.534
581.247
596.895
613.484
630.786
648.658
666.989
685.664
704.561
723.552
742.502
761.235
779.658
797.678
815.167
832.003
848.073
863.267
877.566
890.997
903.599
915.391
926.358
936.681
946.55
956.274
966.145
976.006
985.923
995.96
1006.01
1016
1025.84
1035.5
1044.93
1054.14
1063.11
1071.83
1080.29
1088.48
1096.38
1103.98
1111.29
1118.31
1125.02
1131.42
1137.51
1143.26
1148.69
1153.79
1158.57
1163.02
1167.15
1170.96
1174.45
1177.61
1180.46
1182.99
1185.21
1187.13
1188.74
1190.05
1191.07
1191.77
1192.16
1192.22
1192.01
1191.47
1190.61
1189.46
1187.99
1186.21
1184.13
1181.75
1179.07
1176.1
1172.83
1169.3
1165.5
1161.43
1157.11
1152.54
1147.72
1142.67
1137.39
1131.89
1126.18
1120.27
1114.17
1107.88
1101.42
1094.79
1088
1081.07
1074
1066.79
1059.47
1052.03
1044.52
1036.91
1029.23
1021.47
1013.63
1005.72
997.756
989.733
981.661
973.548
965.39
957.207
949.018
940.832
932.657
924.501
916.369
908.271
900.211
892.197
884.248
876.382
868.612
860.952
853.417
846.012
838.762
831.736
823.962
11463.3
1834.99
750.605
502.978
413.968
374.732
355.637
345.147
339.614
337.327
336.974
339.115
343.164
348.59
354.974
362.065
369.749
377.906
386.268
394.368
402.074
409.413
416.51
423.158
429.44
435.418
441.061
446.4
451.382
455.986
460.132
463.595
466.792
469.894
472.992
476.171
479.523
483.142
487.131
491.624
496.892
503.063
510.397
519.165
529.058
540.035
552.135
565.418
579.833
595.4
612.278
630.223
649.066
668.688
688.965
709.738
730.818
752.176
773.708
795.297
816.819
838.152
859.178
879.782
899.849
919.282
937.992
955.886
972.859
988.794
1003.46
1017
1029.54
1041.2
1052.07
1062.18
1071.56
1080.28
1088.52
1096.49
1104.3
1112.34
1120.92
1129.65
1138.39
1146.99
1155.41
1163.59
1171.55
1179.27
1186.75
1193.97
1200.91
1207.55
1213.9
1219.96
1225.71
1231.16
1236.3
1241.1
1245.57
1249.69
1253.47
1256.93
1260.05
1262.86
1265.33
1267.48
1269.3
1270.82
1272.01
1272.9
1273.49
1273.78
1273.77
1273.5
1272.91
1272.01
1270.82
1269.34
1267.57
1265.5
1263.14
1260.49
1257.55
1254.32
1250.81
1247.01
1242.92
1238.57
1233.94
1229.05
1223.92
1218.53
1212.9
1207.04
1200.95
1194.64
1188.12
1181.4
1174.49
1167.4
1160.13
1152.7
1145.11
1137.37
1129.5
1121.49
1113.37
1105.13
1096.79
1088.38
1079.91
1071.36
1062.73
1054.03
1045.27
1036.46
1027.59
1018.69
1009.75
1000.81
991.867
982.929
974
965.088
956.199
947.341
938.523
929.751
921.033
912.394
903.85
895.411
887.09
878.899
870.846
862.944
855.302
846.891
11463.3
1820.59
752.417
508.407
420.631
382.391
363.519
352.873
347.196
344.766
344.304
346.16
349.852
354.917
360.918
367.638
374.887
382.497
390.412
398.704
406.928
415.054
423.175
431.248
439.326
447.436
455.593
463.805
471.906
479.922
487.917
496.05
504.342
512.883
521.768
531.102
540.996
551.562
562.903
575.138
588.416
602.735
618.075
634.204
651.237
669.242
688.262
708.346
729.367
751.155
773.455
796.518
820.028
843.785
867.625
891.394
914.946
938.173
960.963
983.204
1004.82
1025.74
1045.9
1065.25
1083.74
1101.32
1117.96
1133.65
1148.36
1162.11
1174.91
1186.6
1197.41
1207.49
1216.94
1225.85
1234.03
1241.54
1248.35
1254.48
1260.37
1266.67
1273.07
1279.37
1285.52
1291.48
1297.23
1302.79
1308.15
1313.32
1318.29
1323.03
1327.54
1331.79
1335.79
1339.53
1343.01
1346.24
1349.18
1351.84
1354.16
1356.18
1357.89
1359.31
1360.44
1361.28
1361.83
1362.08
1362.04
1361.76
1361.16
1360.3
1359.18
1357.8
1356.17
1354.29
1352.14
1349.73
1347.06
1344.14
1340.97
1337.54
1333.85
1329.91
1325.72
1321.27
1316.56
1311.61
1306.4
1300.94
1295.24
1289.31
1283.16
1276.77
1270.17
1263.36
1256.34
1249.12
1241.71
1234.12
1226.36
1218.42
1210.33
1202.08
1193.7
1185.17
1176.52
1167.74
1158.85
1149.85
1140.74
1131.54
1122.26
1112.9
1103.46
1093.96
1084.39
1074.77
1065.11
1055.4
1045.67
1035.94
1026.23
1016.52
1006.82
997.14
987.489
977.875
968.311
958.813
949.404
940.09
930.879
921.782
912.808
903.973
895.282
886.745
878.503
869.512
11463.3
1806.34
753.38
511.154
424.232
388.097
369.878
359.963
355.736
354.298
354.955
358.159
363.112
369.4
377.029
386.179
395.857
406.103
417.414
429.863
442.789
456.133
470.158
484.857
500.216
516.188
532.748
549.811
567.41
585.549
604.25
623.555
643.382
663.742
684.68
706.287
728.684
752.057
776.298
801.313
826.992
853.183
879.709
906.345
933.085
959.924
986.938
1014.61
1042.33
1069.56
1095.91
1121.04
1145.08
1168.08
1189.99
1210.82
1230.49
1249
1266.35
1282.58
1297.71
1311.79
1324.83
1336.88
1347.95
1358.01
1367.12
1375.33
1382.7
1389.34
1395.64
1401.62
1407.23
1412.32
1416.88
1420.88
1424.12
1426.97
1429.7
1432.65
1435.89
1438.93
1441.29
1443.28
1445.05
1446.68
1448.21
1449.67
1451.04
1452.32
1453.5
1454.56
1455.49
1456.29
1456.94
1457.44
1457.78
1457.96
1457.95
1457.73
1457.22
1456.51
1455.58
1454.45
1453.1
1451.54
1449.76
1447.77
1445.55
1443.14
1440.51
1437.7
1434.69
1431.48
1428.09
1424.5
1420.71
1416.72
1412.54