/*--------------------------------*- C++ -*----------------------------------*\
  =========                 |
  \\      /  F ield         | OpenFOAM: The Open Source CFD Toolbox
   \\    /   O peration     | Website:  https://openfoam.org
    \\  /    A nd           | Version:  8
     \\/     M anipulation  |
\*---------------------------------------------------------------------------*/
FoamFile
{
    version     2.0;
    format      ascii;
    class       surfaceScalarField;
    location    "1000";
    object      phi;
}
// * * * * * * * * * * * * * * * * * * * * * * * * * * * * * * * * * * * * * //

dimensions      [0 3 -1 0 0 0 0];

internalField   nonuniform List<scalar> 
24170
(
3.00221e-06
1.31775e-07
2.86555e-06
1.36784e-07
2.7419e-06
1.23755e-07
2.63182e-06
1.1021e-07
2.53347e-06
9.86366e-08
2.44749e-06
8.63959e-08
2.37497e-06
7.28858e-08
2.31355e-06
6.13881e-08
2.26107e-06
5.24578e-08
2.21775e-06
4.32728e-08
2.18329e-06
3.44888e-08
2.15397e-06
2.93683e-08
2.12929e-06
2.46559e-08
2.11114e-06
1.81064e-08
2.09806e-06
1.30111e-08
2.08939e-06
8.60522e-09
2.0848e-06
4.49262e-09
-2.17945e-09
2.0869e-06
3.51316e-06
7.51276e-08
3.54312e-06
1.07217e-07
3.55564e-06
1.11594e-07
3.55341e-06
1.12793e-07
3.5416e-06
1.10844e-07
3.5213e-06
1.07061e-07
3.49324e-06
1.01059e-07
3.46097e-06
9.34331e-08
3.42711e-06
8.60312e-08
3.39388e-06
7.62564e-08
3.36257e-06
6.56492e-08
3.33405e-06
5.77993e-08
3.30832e-06
5.03257e-08
3.2846e-06
4.18045e-08
3.26206e-06
3.55423e-08
3.24082e-06
2.98275e-08
3.22065e-06
2.46198e-08
1.91065e-08
3.19935e-06
3.8327e-06
5.46626e-08
3.84928e-06
9.05554e-08
3.86398e-06
9.68267e-08
3.87672e-06
1.0007e-07
3.88626e-06
1.01437e-07
3.89291e-06
1.0063e-07
3.89667e-06
9.74116e-08
3.89759e-06
9.24952e-08
3.89679e-06
8.68172e-08
3.894e-06
7.90518e-08
3.88912e-06
7.05856e-08
3.88361e-06
6.33623e-08
3.87762e-06
5.63191e-08
3.87037e-06
4.90357e-08
3.86265e-06
4.32297e-08
3.85447e-06
3.796e-08
3.84608e-06
3.29499e-08
2.74547e-08
3.83771e-06
4.21692e-06
4.23222e-08
4.22837e-06
7.93186e-08
4.23804e-06
8.73511e-08
4.24693e-06
9.13928e-08
4.25487e-06
9.37216e-08
4.262e-06
9.36411e-08
4.26832e-06
9.10591e-08
4.27371e-06
8.69256e-08
4.27847e-06
8.18407e-08
4.2821e-06
7.52533e-08
4.28443e-06
6.81501e-08
4.2861e-06
6.16185e-08
4.28714e-06
5.52131e-08
4.28722e-06
4.89141e-08
4.2869e-06
4.35197e-08
4.28624e-06
3.85814e-08
4.2853e-06
3.385e-08
2.89471e-08
4.2838e-06
4.64627e-06
3.33803e-08
4.65682e-06
6.86369e-08
4.6652e-06
7.88802e-08
4.67267e-06
8.38838e-08
4.67968e-06
8.67569e-08
4.68629e-06
8.70747e-08
4.69242e-06
8.49406e-08
4.69805e-06
8.12829e-08
4.70328e-06
7.66118e-08
4.70776e-06
7.08222e-08
4.71137e-06
6.45935e-08
4.71445e-06
5.85806e-08
4.717e-06
5.26757e-08
4.71889e-06
4.70068e-08
4.72045e-06
4.19393e-08
4.72174e-06
3.72573e-08
4.72277e-06
3.27844e-08
2.84307e-08
4.7233e-06
5.12134e-06
2.66621e-08
5.13144e-06
5.87401e-08
5.13957e-06
7.0932e-08
5.14679e-06
7.68408e-08
5.15367e-06
8.00135e-08
5.1602e-06
8.0586e-08
5.16631e-06
7.87853e-08
5.17199e-06
7.54782e-08
5.1773e-06
7.11863e-08
5.18201e-06
6.60263e-08
5.18604e-06
6.0489e-08
5.18956e-06
5.49908e-08
5.19259e-06
4.95912e-08
5.19511e-06
4.44365e-08
5.19731e-06
3.9705e-08
5.19925e-06
3.52925e-08
5.2009e-06
3.11158e-08
2.7152e-08
5.20217e-06
5.6462e-06
2.1476e-08
5.65555e-06
4.9274e-08
5.66365e-06
6.27375e-08
5.671e-06
6.94667e-08
5.67804e-06
7.29642e-08
5.68474e-06
7.38769e-08
5.69102e-06
7.24944e-08
5.69687e-06
6.96124e-08
5.70233e-06
6.57592e-08
5.70724e-06
6.11659e-08
5.71156e-06
5.62096e-08
5.71538e-06
5.11943e-08
5.71872e-06
4.62539e-08
5.72162e-06
4.15286e-08
5.72418e-06
3.71225e-08
5.72646e-06
3.2995e-08
5.72845e-06
2.91089e-08
2.54832e-08
5.73013e-06
4.4092e-06
1.83952e-08
4.4153e-06
4.3345e-08
4.42115e-06
5.70295e-08
4.42659e-06
6.41623e-08
4.4318e-06
6.78312e-08
4.43678e-06
6.89251e-08
4.44144e-06
6.78083e-08
4.44578e-06
6.52432e-08
4.44979e-06
6.17224e-08
4.45343e-06
5.7513e-08
4.45668e-06
5.29372e-08
4.45959e-06
4.82644e-08
4.46217e-06
4.36467e-08
4.46446e-06
3.9218e-08
4.4665e-06
3.50564e-08
4.46832e-06
3.1153e-08
4.46992e-06
2.74944e-08
2.4103e-08
4.47131e-06
5.14267e-06
1.56087e-08
5.14867e-06
3.72479e-08
5.15484e-06
5.08189e-08
5.16077e-06
5.82092e-08
5.16654e-06
6.20518e-08
5.17208e-06
6.33614e-08
5.1773e-06
6.25691e-08
5.18218e-06
6.0366e-08
5.18672e-06
5.72196e-08
5.19085e-06
5.34105e-08
5.19457e-06
4.92341e-08
5.19791e-06
4.49303e-08
5.20089e-06
4.06603e-08
5.20355e-06
3.65434e-08
5.20593e-06
3.26601e-08
5.20806e-06
2.90083e-08
5.20994e-06
2.55988e-08
2.24486e-08
5.2116e-06
5.99832e-06
1.30558e-08
6.00409e-06
3.15514e-08
6.01045e-06
4.453e-08
6.01681e-06
5.19114e-08
6.02311e-06
5.5787e-08
6.02922e-06
5.72595e-08
6.03503e-06
5.67706e-08
6.0405e-06
5.49169e-08
6.0456e-06
5.2152e-08
6.05028e-06
4.87562e-08
6.05452e-06
4.50042e-08
6.05835e-06
4.11045e-08
6.06178e-06
3.72124e-08
6.06487e-06
3.34582e-08
6.06763e-06
2.98801e-08
6.07011e-06
2.65215e-08
6.07232e-06
2.33826e-08
2.04908e-08
6.07429e-06
6.99656e-06
1.07915e-08
7.00196e-06
2.61227e-08
7.00841e-06
3.8075e-08
7.01511e-06
4.52162e-08
7.02188e-06
4.90131e-08
7.02854e-06
5.0593e-08
7.03495e-06
5.03681e-08
7.04102e-06
4.88731e-08
7.0467e-06
4.64876e-08
7.05195e-06
4.35275e-08
7.05674e-06
4.02125e-08
7.06109e-06
3.67452e-08
7.06504e-06
3.32823e-08
7.06859e-06
2.99021e-08
7.07179e-06
2.66821e-08
7.07466e-06
2.36388e-08
7.07725e-06
2.08076e-08
1.81793e-08
7.07956e-06
8.16107e-06
8.7094e-09
8.16608e-06
2.11182e-08
8.17252e-06
3.16415e-08
8.17948e-06
3.82625e-08
8.18665e-06
4.18414e-08
8.19382e-06
4.34228e-08
8.2008e-06
4.34342e-08
8.20745e-06
4.22339e-08
8.21372e-06
4.02561e-08
8.21955e-06
3.77114e-08
8.22491e-06
3.48622e-08
8.22982e-06
3.18513e-08
8.23429e-06
2.88249e-08
8.23835e-06
2.58576e-08
8.24202e-06
2.30187e-08
8.24533e-06
2.03251e-08
8.24833e-06
1.78165e-08
1.54921e-08
8.25104e-06
9.5196e-06
6.85307e-09
9.52422e-06
1.64996e-08
9.53057e-06
2.52988e-08
9.53771e-06
3.11268e-08
9.54522e-06
3.43277e-08
9.55285e-06
3.58385e-08
9.56034e-06
3.59513e-08
9.56758e-06
3.50663e-08
9.57442e-06
3.34269e-08
9.58084e-06
3.13369e-08
9.58678e-06
2.89316e-08
9.59227e-06
2.64005e-08
9.59729e-06
2.38182e-08
9.60189e-06
2.12962e-08
9.60605e-06
1.88434e-08
9.60985e-06
1.65415e-08
9.61328e-06
1.43708e-08
1.2375e-08
9.61641e-06
1.11044e-05
5.13558e-09
1.11087e-05
1.21871e-08
1.11149e-05
1.90662e-08
1.11222e-05
2.38396e-08
1.113e-05
2.65391e-08
1.11381e-05
2.78185e-08
1.11461e-05
2.80013e-08
1.11538e-05
2.73184e-08
1.11613e-05
2.60399e-08
1.11683e-05
2.4347e-08
1.11749e-05
2.24117e-08
1.11809e-05
2.034e-08
1.11865e-05
1.82359e-08
1.11917e-05
1.61454e-08
1.11964e-05
1.41379e-08
1.12007e-05
1.22222e-08
1.12047e-05
1.04455e-08
8.78153e-09
1.12082e-05
1.29532e-05
3.53727e-09
1.29573e-05
8.08625e-09
1.29634e-05
1.29015e-08
1.29708e-05
1.64448e-08
1.29789e-05
1.84354e-08
1.29874e-05
1.93995e-08
1.29959e-05
1.95225e-08
1.30042e-05
1.90012e-08
1.30123e-05
1.80176e-08
1.30199e-05
1.67172e-08
1.30271e-05
1.52254e-08
1.30338e-05
1.3626e-08
1.30401e-05
1.19953e-08
1.30459e-05
1.03782e-08
1.30512e-05
8.81884e-09
1.30561e-05
7.3384e-09
1.30605e-05
5.96016e-09
4.67967e-09
1.30646e-05
1.511e-05
1.99159e-09
1.5114e-05
4.05385e-09
1.51201e-05
6.75058e-09
1.51277e-05
8.83524e-09
1.51362e-05
9.98225e-09
1.51451e-05
1.04866e-08
1.51542e-05
1.04594e-08
1.51632e-05
1.00285e-08
1.51719e-05
9.29637e-09
1.51803e-05
8.36327e-09
1.51882e-05
7.30354e-09
1.51956e-05
6.17904e-09
1.52026e-05
5.03501e-09
1.5209e-05
3.9072e-09
1.5215e-05
2.82227e-09
1.52206e-05
1.79869e-09
1.52256e-05
8.49876e-10
-2.34564e-11
1.52304e-05
1.7626e-05
4.13602e-10
1.76301e-05
-5.5044e-11
1.76365e-05
3.75733e-10
1.76446e-05
8.24855e-10
1.76536e-05
9.71671e-10
1.76632e-05
8.84186e-10
1.76731e-05
6.47596e-10
1.76828e-05
2.32488e-10
1.76924e-05
-2.62624e-10
1.77016e-05
-8.57621e-10
1.77104e-05
-1.47373e-09
1.77187e-05
-2.12642e-09
1.77265e-05
-2.75877e-09
1.77338e-05
-3.38434e-09
1.77405e-05
-3.96401e-09
1.77469e-05
-4.50984e-09
1.77527e-05
-4.99666e-09
-5.43913e-09
1.77581e-05
1.78277e-05
-1.11898e-09
1.78318e-05
-4.00537e-09
1.7838e-05
-5.79383e-09
1.78458e-05
-6.90764e-09
1.78546e-05
-7.80488e-09
1.7864e-05
-8.41725e-09
1.78735e-05
-8.93364e-09
1.78831e-05
-9.28965e-09
1.78924e-05
-9.62281e-09
1.79015e-05
-9.85704e-09
1.791e-05
-1.00985e-08
1.79182e-05
-1.02711e-08
1.79259e-05
-1.04533e-08
1.79331e-05
-1.05775e-08
1.79398e-05
-1.07035e-08
1.79461e-05
-1.07753e-08
1.79519e-05
-1.08415e-08
-1.08577e-08
1.79574e-05
1.58828e-05
-2.57031e-09
1.58866e-05
-7.76452e-09
1.58925e-05
-1.15171e-08
1.58996e-05
-1.40361e-08
1.59076e-05
-1.57308e-08
1.59161e-05
-1.68421e-08
1.59247e-05
-1.74818e-08
1.59332e-05
-1.78323e-08
1.59415e-05
-1.79129e-08
1.59495e-05
-1.78792e-08
1.59572e-05
-1.77116e-08
1.59644e-05
-1.75108e-08
1.59712e-05
-1.72395e-08
1.59775e-05
-1.69686e-08
1.59835e-05
-1.66571e-08
1.59891e-05
-1.63559e-08
1.59943e-05
-1.60249e-08
-1.57062e-08
1.59991e-05
1.41502e-05
-4.05788e-09
1.41541e-05
-1.16306e-08
1.41599e-05
-1.72499e-08
1.41668e-05
-2.09322e-08
1.41744e-05
-2.32872e-08
1.41823e-05
-2.47005e-08
1.41903e-05
-2.54299e-08
1.41982e-05
-2.5637e-08
1.42058e-05
-2.55062e-08
1.4213e-05
-2.51246e-08
1.42199e-05
-2.46111e-08
1.42264e-05
-2.39992e-08
1.42325e-05
-2.33511e-08
1.42382e-05
-2.2674e-08
1.42436e-05
-2.20035e-08
1.42486e-05
-2.13312e-08
1.42532e-05
-2.06801e-08
-2.0033e-08
1.42575e-05
1.26067e-05
-5.68377e-09
1.26109e-05
-1.5833e-08
1.26169e-05
-2.32202e-08
1.26239e-05
-2.78088e-08
1.26313e-05
-3.0655e-08
1.26389e-05
-3.22577e-08
1.26464e-05
-3.2956e-08
1.26538e-05
-3.29575e-08
1.26608e-05
-3.25101e-08
1.26675e-05
-3.17892e-08
1.26738e-05
-3.08979e-08
1.26798e-05
-2.99037e-08
1.26853e-05
-2.88723e-08
1.26904e-05
-2.7826e-08
1.26952e-05
-2.68079e-08
1.26997e-05
-2.58084e-08
1.27039e-05
-2.48556e-08
-2.39277e-08
1.27078e-05
1.12317e-05
-7.5474e-09
1.12365e-05
-2.06047e-08
1.12429e-05
-2.95849e-08
1.12499e-05
-3.48605e-08
1.12573e-05
-3.79479e-08
1.12647e-05
-3.96206e-08
1.12719e-05
-4.0135e-08
1.12789e-05
-3.98668e-08
1.12855e-05
-3.90832e-08
1.12917e-05
-3.79677e-08
1.12975e-05
-3.6676e-08
1.13029e-05
-3.52911e-08
1.1308e-05
-3.3878e-08
1.13126e-05
-3.24896e-08
1.1317e-05
-3.11317e-08
1.1321e-05
-2.98432e-08
1.13248e-05
-2.8599e-08
-2.74322e-08
1.13283e-05
1.00068e-05
-9.78637e-09
1.00125e-05
-2.61744e-08
1.00193e-05
-3.64148e-08
1.00265e-05
-4.19706e-08
1.00338e-05
-4.52309e-08
1.00411e-05
-4.68256e-08
1.00481e-05
-4.71204e-08
1.00547e-05
-4.64604e-08
1.00609e-05
-4.52395e-08
1.00667e-05
-4.37237e-08
1.00721e-05
-4.20117e-08
1.0077e-05
-4.02344e-08
1.00816e-05
-3.84444e-08
1.00859e-05
-3.67049e-08
1.00898e-05
-3.50413e-08
1.00934e-05
-3.34606e-08
1.00968e-05
-3.1978e-08
-3.05628e-08
1.01e-05
8.91583e-06
-1.24759e-08
8.92261e-06
-3.29464e-08
8.92994e-06
-4.37255e-08
8.93722e-06
-4.92849e-08
8.94451e-06
-5.2479e-08
8.95161e-06
-5.39108e-08
8.95837e-06
-5.38065e-08
8.96467e-06
-5.27349e-08
8.97051e-06
-5.10928e-08
8.97593e-06
-4.91111e-08
8.98091e-06
-4.69773e-08
8.98549e-06
-4.47828e-08
8.98969e-06
-4.26277e-08
8.99356e-06
-4.05514e-08
8.99712e-06
-3.85847e-08
9.00041e-06
-3.67439e-08
9.00348e-06
-3.50223e-08
-3.34099e-08
9.00632e-06
7.94411e-06
-1.59352e-08
7.95236e-06
-4.11692e-08
7.96001e-06
-5.13763e-08
7.96735e-06
-5.65909e-08
7.97462e-06
-5.97596e-08
7.98165e-06
-6.09182e-08
7.98821e-06
-6.03931e-08
7.99428e-06
-5.8813e-08
7.99987e-06
-5.66665e-08
8.00499e-06
-5.42355e-08
8.00969e-06
-5.16574e-08
8.01397e-06
-4.90603e-08
8.01787e-06
-4.65282e-08
8.02144e-06
-4.41122e-08
8.02471e-06
-4.18507e-08
8.02772e-06
-3.97441e-08
8.0305e-06
-3.78003e-08
-3.5982e-08
8.03309e-06
7.07903e-06
-2.06177e-08
7.08861e-06
-5.07876e-08
7.09659e-06
-5.93686e-08
7.10417e-06
-6.41976e-08
7.11171e-06
-6.73049e-08
7.11888e-06
-6.8106e-08
7.12551e-06
-6.70222e-08
7.13158e-06
-6.48966e-08
7.13711e-06
-6.2222e-08
7.14215e-06
-5.92848e-08
7.14672e-06
-5.62316e-08
7.15084e-06
-5.31869e-08
7.15455e-06
-5.02388e-08
7.15789e-06
-4.7454e-08
7.1609e-06
-4.48559e-08
7.16362e-06
-4.24675e-08
7.1661e-06
-4.02743e-08
-3.82517e-08
7.16838e-06
6.30958e-06
-2.76841e-08
6.31975e-06
-6.10049e-08
6.32894e-06
-6.86243e-08
6.338e-06
-7.3268e-08
6.3468e-06
-7.61321e-08
6.35491e-06
-7.62386e-08
6.36223e-06
-7.43685e-08
6.36879e-06
-7.14792e-08
6.37463e-06
-6.8102e-08
6.37982e-06
-6.4485e-08
6.38437e-06
-6.07893e-08
6.38831e-06
-5.71331e-08
6.39169e-06
-5.3631e-08
6.39457e-06
-5.03287e-08
6.39698e-06
-4.72818e-08
6.39901e-06
-4.44911e-08
6.40069e-06
-4.19497e-08
-3.96233e-08
6.40208e-06
5.6277e-06
-4.04869e-08
5.64058e-06
-7.39655e-08
5.65501e-06
-8.31552e-08
5.66915e-06
-8.74442e-08
5.68165e-06
-8.86679e-08
5.69223e-06
-8.6832e-08
5.701e-06
-8.31615e-08
5.7081e-06
-7.86237e-08
5.71364e-06
-7.36925e-08
5.71776e-06
-6.86232e-08
5.72057e-06
-6.35935e-08
5.72218e-06
-5.87532e-08
5.72274e-06
-5.41901e-08
5.72238e-06
-4.99709e-08
5.72125e-06
-4.6142e-08
5.7195e-06
-4.27311e-08
5.71727e-06
-3.97124e-08
-3.72024e-08
5.71486e-06
5.05586e-06
-9.40471e-08
5.09196e-06
-1.10163e-07
5.1158e-06
-1.07106e-07
5.12926e-06
-1.00961e-07
5.13492e-06
-9.43601e-08
5.13465e-06
-8.65765e-08
5.12967e-06
-7.82169e-08
5.12093e-06
-6.99342e-08
5.10923e-06
-6.20473e-08
5.09528e-06
-5.46894e-08
5.07969e-06
-4.80071e-08
5.063e-06
-4.20603e-08
5.04564e-06
-3.68265e-08
5.02794e-06
-3.22686e-08
5.01018e-06
-2.83677e-08
4.99265e-06
-2.51893e-08
4.97568e-06
-2.27365e-08
-2.12669e-08
4.95975e-06
4.3625e-06
4.25232e-06
4.14521e-06
4.04425e-06
3.94989e-06
3.86331e-06
3.78508e-06
3.71514e-06
3.65309e-06
3.5984e-06
3.55039e-06
3.50833e-06
3.47151e-06
3.43924e-06
3.41088e-06
3.38569e-06
3.36295e-06
3.34169e-06
-8.39109e-09
8.40059e-09
-2.26367e-08
1.4244e-08
-3.82343e-08
1.56152e-08
-5.17411e-08
1.34936e-08
-5.78577e-08
6.14188e-09
-5.04772e-08
-7.4042e-09
-2.72782e-08
-2.3164e-08
9.25829e-09
-3.65555e-08
5.50272e-08
-4.57267e-08
1.05028e-07
-5.00099e-08
1.54803e-07
-4.97268e-08
2.01087e-07
-4.6284e-08
2.41913e-07
-4.07727e-08
2.75917e-07
-3.40016e-08
3.0248e-07
-2.65049e-08
3.21083e-07
-1.85976e-08
3.31556e-07
-1.04162e-08
3.3349e-07
-1.92231e-09
3.26762e-07
6.7797e-09
3.11481e-07
1.53084e-08
2.88292e-07
2.32391e-08
2.58166e-07
3.01824e-08
2.22489e-07
3.57313e-08
1.83142e-07
3.94314e-08
1.42369e-07
4.0833e-08
1.02856e-07
3.96188e-08
6.71727e-08
3.57477e-08
3.76291e-08
2.96588e-08
1.53643e-08
2.23191e-08
5.7009e-10
1.4916e-08
-7.67887e-09
8.2602e-09
-9.64823e-09
2.10783e-09
-5.42472e-09
-4.25911e-09
6.4498e-09
-1.17034e-08
2.69738e-08
-2.05912e-08
5.64717e-08
-2.93592e-08
9.07411e-08
-3.43312e-08
1.23988e-07
-3.31896e-08
1.50465e-07
-2.65133e-08
1.66921e-07
-1.64585e-08
1.73336e-07
-6.44005e-09
1.72554e-07
7.45786e-10
1.68145e-07
4.38037e-09
1.63819e-07
4.27446e-09
1.62347e-07
1.44578e-09
1.5815e-07
4.13843e-09
1.41086e-07
1.70952e-08
1.02548e-07
3.84305e-08
3.67235e-08
6.59049e-08
-5.46058e-08
9.11853e-08
-1.65888e-07
1.11328e-07
-2.93436e-07
1.27488e-07
-4.33473e-07
1.40094e-07
-5.82618e-07
1.4912e-07
-7.35143e-07
1.52578e-07
-8.85194e-07
1.50018e-07
-1.03057e-06
1.45424e-07
-1.17006e-06
1.39472e-07
-1.30094e-06
1.30937e-07
-1.42227e-06
1.21313e-07
-1.53389e-06
1.11667e-07
-1.63642e-06
1.02538e-07
-1.73005e-06
9.36694e-08
-1.81551e-06
8.54706e-08
-1.89398e-06
7.85063e-08
-1.96615e-06
7.2187e-08
-2.03273e-06
6.66008e-08
-2.09438e-06
6.16886e-08
-2.15176e-06
5.73777e-08
-2.2053e-06
5.35843e-08
-2.25553e-06
5.02265e-08
-2.30272e-06
4.7236e-08
-2.34727e-06
4.45411e-08
-2.38932e-06
4.21025e-08
-2.4292e-06
3.98553e-08
-2.46693e-06
3.77841e-08
-2.50279e-06
3.58356e-08
-2.53677e-06
3.40091e-08
-2.56906e-06
3.22605e-08
-2.59964e-06
3.05977e-08
-2.62866e-06
2.89843e-08
-2.65609e-06
2.74312e-08
-2.68204e-06
2.59089e-08
-2.70648e-06
2.44274e-08
-2.72949e-06
2.29633e-08
-2.75103e-06
2.15245e-08
-2.77116e-06
2.00953e-08
-2.78986e-06
1.86787e-08
-2.80716e-06
1.72586e-08
-2.82301e-06
1.5844e-08
-2.83742e-06
1.4408e-08
-2.85035e-06
1.29558e-08
-2.86181e-06
1.14738e-08
-2.87176e-06
9.95318e-09
-2.88015e-06
8.3861e-09
-2.88694e-06
6.75903e-09
-2.89204e-06
5.06487e-09
-2.89537e-06
3.28825e-09
-2.89688e-06
1.46315e-09
-2.89662e-06
-3.05191e-10
-2.8948e-06
-1.85077e-09
-2.8916e-06
-3.22994e-09
-2.88706e-06
-4.5721e-09
-2.88118e-06
-5.90718e-09
-2.87395e-06
-7.24018e-09
-2.86539e-06
-8.58011e-09
-2.85549e-06
-9.91923e-09
-2.84424e-06
-1.12648e-08
-2.83164e-06
-1.2607e-08
-2.81769e-06
-1.39534e-08
-2.8024e-06
-1.52934e-08
-2.78577e-06
-1.66345e-08
-2.7678e-06
-1.7966e-08
-2.7485e-06
-1.92956e-08
-2.72788e-06
-2.06123e-08
-2.70595e-06
-2.19239e-08
-2.68271e-06
-2.322e-08
-2.65819e-06
-2.45075e-08
-2.63238e-06
-2.57774e-08
-2.60532e-06
-2.7035e-08
-2.57702e-06
-2.82726e-08
-2.54749e-06
-2.9494e-08
-2.51676e-06
-3.06934e-08
-2.48485e-06
-3.18726e-08
-2.45178e-06
-3.30281e-08
-2.41758e-06
-3.41594e-08
-2.38227e-06
-3.5265e-08
-2.34589e-06
-3.6339e-08
-2.30846e-06
-3.73884e-08
-2.27002e-06
-3.84033e-08
-2.23061e-06
-3.93866e-08
-2.19026e-06
-4.03292e-08
-2.14902e-06
-4.12133e-08
-2.10696e-06
-4.20342e-08
-2.06415e-06
-4.27869e-08
-2.02067e-06
-4.3448e-08
-1.97646e-06
-4.41962e-08
-1.93144e-06
-4.50095e-08
-1.88572e-06
-4.57219e-08
-1.83932e-06
-4.63785e-08
-1.79231e-06
-4.69938e-08
-1.74472e-06
-4.75706e-08
-1.69659e-06
-4.81161e-08
-1.64796e-06
-4.86275e-08
-1.59885e-06
-4.911e-08
-1.5493e-06
-4.95574e-08
-1.49933e-06
-4.99834e-08
-1.44897e-06
-5.03739e-08
-1.39824e-06
-5.07425e-08
-1.34717e-06
-5.10771e-08
-1.29579e-06
-5.13877e-08
-1.24413e-06
-5.16599e-08
-1.19224e-06
-5.19026e-08
-1.14013e-06
-5.2117e-08
-1.08784e-06
-5.22932e-08
-1.0354e-06
-5.24507e-08
-9.82825e-07
-5.25856e-08
-9.30137e-07
-5.27024e-08
-8.77345e-07
-5.28106e-08
-8.24456e-07
-5.29095e-08
-7.71475e-07
-5.30043e-08
-7.18408e-07
-5.30928e-08
-6.6526e-07
-5.3175e-08
-6.1204e-07
-5.32481e-08
-5.58755e-07
-5.33146e-08
-5.05409e-07
-5.33757e-08
-4.52002e-07
-5.34375e-08
-3.98531e-07
-5.35018e-08
-3.44991e-07
-5.35729e-08
-2.91377e-07
-5.36468e-08
-2.37698e-07
-5.37144e-08
-1.83974e-07
-5.37578e-08
-1.30263e-07
-5.37466e-08
-7.66777e-08
-5.36184e-08
-2.34773e-08
-5.32339e-08
2.89178e-08
-5.24253e-08
7.98857e-08
-5.09964e-08
1.27532e-07
-4.76696e-08
1.70776e-07
-4.3263e-08
-1.69954e-08
1.87754e-07
-3.4694e-09
1.18878e-08
-9.58553e-09
2.03588e-08
-1.23815e-08
1.84547e-08
-4.80212e-09
5.9009e-09
1.84071e-08
-1.70226e-08
5.63952e-08
-4.54034e-08
1.04784e-07
-7.15244e-08
1.57857e-07
-8.96327e-08
2.10437e-07
-9.82834e-08
2.59117e-07
-9.86876e-08
3.02426e-07
-9.30097e-08
3.39605e-07
-8.34587e-08
3.70594e-07
-7.17302e-08
3.95544e-07
-5.89441e-08
4.14847e-07
-4.57734e-08
4.28846e-07
-3.25863e-08
4.38026e-07
-1.95587e-08
4.42903e-07
-6.78415e-09
4.43942e-07
5.77635e-09
4.41042e-07
1.82348e-08
4.33766e-07
3.0553e-08
4.21505e-07
4.24874e-08
4.03685e-07
5.35931e-08
3.79964e-07
6.32103e-08
3.50342e-07
7.05012e-08
3.15458e-07
7.45643e-08
2.76628e-07
7.46262e-08
2.36045e-07
7.03114e-08
1.96591e-07
6.18154e-08
1.61759e-07
4.98318e-08
1.34849e-07
3.51986e-08
1.18553e-07
1.85228e-08
1.14121e-07
1.77169e-10
1.21602e-07
-1.90529e-08
1.38832e-07
-3.78349e-08
1.60962e-07
-5.13946e-08
1.8059e-07
-5.39742e-08
1.92829e-07
-4.53864e-08
1.95748e-07
-2.94453e-08
1.89282e-07
-9.99502e-09
1.7487e-07
7.95055e-09
1.54513e-07
2.10652e-08
1.23328e-07
3.55258e-08
7.07941e-08
5.67517e-08
-1.30862e-08
8.52854e-08
-1.30219e-07
1.21217e-07
-2.72129e-07
1.58996e-07
-4.28076e-07
1.94352e-07
-5.89082e-07
2.26909e-07
-7.52141e-07
2.5422e-07
-9.14814e-07
2.74e-07
-1.07355e-06
2.86219e-07
-1.2244e-06
2.90951e-07
-1.36379e-06
2.88509e-07
-1.49053e-06
2.79327e-07
-1.60508e-06
2.64563e-07
-1.70654e-06
2.46896e-07
-1.79541e-06
2.28347e-07
-1.87392e-06
2.09456e-07
-1.94363e-06
1.91035e-07
-2.00581e-06
1.73857e-07
-2.06159e-06
1.58333e-07
-2.11234e-06
1.44434e-07
-2.15896e-06
1.32104e-07
-2.20192e-06
1.2148e-07
-2.24194e-06
1.12226e-07
-2.27948e-06
1.04158e-07
-2.31487e-06
9.70977e-08
-2.34837e-06
9.08844e-08
-2.38013e-06
8.53717e-08
-2.41033e-06
8.04346e-08
-2.43905e-06
7.59712e-08
-2.46638e-06
7.18875e-08
-2.49238e-06
6.81168e-08
-2.51711e-06
6.45948e-08
-2.54059e-06
6.12802e-08
-2.56288e-06
5.8127e-08
-2.58397e-06
5.51126e-08
-2.60392e-06
5.22035e-08
-2.62271e-06
4.93881e-08
-2.64039e-06
4.66412e-08
-2.65692e-06
4.39569e-08
-2.67235e-06
4.13154e-08
-2.68666e-06
3.87136e-08
-2.69986e-06
3.61357e-08
-2.71193e-06
3.35796e-08
-2.72289e-06
3.10337e-08
-2.73273e-06
2.84934e-08
-2.74144e-06
2.59558e-08
-2.74902e-06
2.34018e-08
-2.75544e-06
2.08362e-08
-2.76072e-06
1.82479e-08
-2.76487e-06
1.56307e-08
-2.7679e-06
1.29851e-08
-2.76984e-06
1.03083e-08
-2.77071e-06
7.60504e-09
-2.77056e-06
4.88572e-09
-2.76948e-06
2.17487e-09
-2.76756e-06
-4.89845e-10
-2.7648e-06
-3.09524e-09
-2.761e-06
-5.68539e-09
-2.75596e-06
-8.29535e-09
-2.74964e-06
-1.09145e-08
-2.74202e-06
-1.35414e-08
-2.7331e-06
-1.61774e-08
-2.72287e-06
-1.88222e-08
-2.71133e-06
-2.14738e-08
-2.69847e-06
-2.41308e-08
-2.68429e-06
-2.67897e-08
-2.6688e-06
-2.9449e-08
-2.652e-06
-3.21045e-08
-2.63388e-06
-3.47545e-08
-2.61445e-06
-3.73942e-08
-2.59372e-06
-4.00223e-08
-2.57169e-06
-4.26333e-08
-2.54838e-06
-4.52267e-08
-2.52379e-06
-4.77968e-08
-2.49794e-06
-5.03438e-08
-2.47084e-06
-5.28614e-08
-2.44251e-06
-5.53499e-08
-2.41296e-06
-5.78027e-08
-2.38221e-06
-6.02196e-08
-2.35028e-06
-6.25947e-08
-2.3172e-06
-6.49272e-08
-2.28299e-06
-6.72121e-08
-2.24767e-06
-6.94484e-08
-2.21127e-06
-7.16312e-08
-2.17383e-06
-7.37571e-08
-2.13536e-06
-7.58234e-08
-2.09592e-06
-7.78271e-08
-2.05553e-06
-7.97628e-08
-2.01422e-06
-8.16214e-08
-1.97203e-06
-8.33923e-08
-1.92897e-06
-8.50766e-08
-1.88506e-06
-8.6675e-08
-1.84029e-06
-8.81944e-08
-1.79478e-06
-8.97091e-08
-1.74859e-06
-9.11973e-08
-1.70172e-06
-9.25864e-08
-1.6542e-06
-9.38856e-08
-1.60607e-06
-9.51071e-08
-1.55737e-06
-9.62556e-08
-1.50815e-06
-9.73386e-08
-1.45841e-06
-9.83556e-08
-1.40821e-06
-9.93116e-08
-1.35757e-06
-1.00204e-07
-1.30652e-06
-1.01043e-07
-1.25508e-06
-1.01822e-07
-1.20328e-06
-1.0255e-07
-1.15114e-06
-1.03219e-07
-1.09869e-06
-1.03834e-07
-1.04597e-06
-1.04385e-07
-9.93004e-07
-1.04871e-07
-9.39823e-07
-1.053e-07
-8.86459e-07
-1.05661e-07
-8.32938e-07
-1.05976e-07
-7.79282e-07
-1.06249e-07
-7.25508e-07
-1.06486e-07
-6.71628e-07
-1.06702e-07
-6.1765e-07
-1.06901e-07
-5.6358e-07
-1.0709e-07
-5.09421e-07
-1.07268e-07
-4.55181e-07
-1.07433e-07
-4.00864e-07
-1.07585e-07
-3.46476e-07
-1.07722e-07
-2.9202e-07
-1.07852e-07
-2.37495e-07
-1.07982e-07
-1.82898e-07
-1.08121e-07
-1.28222e-07
-1.0827e-07
-7.34627e-08
-1.08429e-07
-1.86262e-08
-1.08574e-07
3.62695e-08
-1.08676e-07
9.11782e-08
-1.08677e-07
1.45999e-07
-1.0846e-07
2.0058e-07
-1.07834e-07
2.54607e-07
-1.06469e-07
3.07363e-07
-1.03768e-07
3.58287e-07
-9.86067e-08
4.04066e-07
-8.90537e-08
-6.02497e-08
4.47311e-07
5.32248e-10
1.13683e-08
4.38082e-09
1.65161e-08
1.95348e-08
3.32994e-09
5.38102e-08
-2.83753e-08
1.05853e-07
-6.90475e-08
1.65777e-07
-1.05331e-07
2.23481e-07
-1.29216e-07
2.73247e-07
-1.39401e-07
3.13446e-07
-1.38469e-07
3.4478e-07
-1.30022e-07
3.68918e-07
-1.17132e-07
3.87408e-07
-1.01944e-07
4.01484e-07
-8.57866e-08
4.1195e-07
-6.94046e-08
4.19389e-07
-5.31877e-08
4.24139e-07
-3.73283e-08
4.26522e-07
-2.19145e-08
4.26746e-07
-6.99488e-09
4.25138e-07
7.41343e-09
4.22043e-07
2.13515e-08
4.17762e-07
3.48651e-08
4.12341e-07
4.79397e-08
4.05533e-07
6.04361e-08
3.96761e-07
7.20209e-08
3.85193e-07
8.21039e-08
3.69967e-07
8.98373e-08
3.50466e-07
9.41607e-08
3.26847e-07
9.39784e-08
3.00246e-07
8.84502e-08
2.7295e-07
7.71789e-08
2.47819e-07
6.03577e-08
2.27651e-07
3.87611e-08
2.13991e-07
1.38635e-08
2.06856e-07
-1.1838e-08
2.01702e-07
-3.26665e-08
1.91217e-07
-4.08548e-08
1.71406e-07
-3.4158e-08
1.42539e-07
-1.64936e-08
1.05339e-07
7.73918e-09
5.78015e-08
3.75378e-08
-6.01813e-09
7.17379e-08
-9.3473e-08
1.08489e-07
-2.06863e-07
1.48889e-07
-3.4294e-07
1.92807e-07
-4.95321e-07
2.37652e-07
-6.54299e-07
2.80178e-07
-8.12942e-07
3.17632e-07
-9.66326e-07
3.47725e-07
-1.10906e-06
3.6964e-07
-1.23793e-06
3.83085e-07
-1.35189e-06
3.87963e-07
-1.45059e-06
3.84908e-07
-1.53457e-06
3.7494e-07
-1.60546e-06
3.59396e-07
-1.66587e-06
3.39745e-07
-1.71884e-06
3.17524e-07
-1.7663e-06
2.94367e-07
-1.80952e-06
2.71567e-07
-1.84985e-06
2.49791e-07
-1.88829e-06
2.29483e-07
-1.92534e-06
2.10909e-07
-1.96121e-06
1.94209e-07
-1.99612e-06
1.79353e-07
-2.03017e-06
1.66168e-07
-2.06324e-06
1.54562e-07
-2.09533e-06
1.44331e-07
-2.12644e-06
1.3527e-07
-2.15652e-06
1.27202e-07
-2.18559e-06
1.19963e-07
-2.21363e-06
1.13418e-07
-2.24062e-06
1.07443e-07
-2.26657e-06
1.01936e-07
-2.29149e-06
9.68114e-08
-2.31536e-06
9.20007e-08
-2.3382e-06
8.74431e-08
-2.36e-06
8.3094e-08
-2.38078e-06
7.89126e-08
-2.40054e-06
7.487e-08
-2.41927e-06
7.09384e-08
-2.43699e-06
6.70991e-08
-2.45369e-06
6.33323e-08
-2.46937e-06
5.96253e-08
-2.48403e-06
5.59634e-08
-2.49767e-06
5.23371e-08
-2.51029e-06
4.87348e-08
-2.52187e-06
4.51493e-08
-2.53243e-06
4.15707e-08
-2.54194e-06
3.79944e-08
-2.55042e-06
3.44082e-08
-2.55783e-06
3.0814e-08
-2.56418e-06
2.71936e-08
-2.56948e-06
2.35479e-08
-2.57372e-06
1.98741e-08
-2.57691e-06
1.61703e-08
-2.57906e-06
1.24381e-08
-2.58016e-06
8.68507e-09
-2.58023e-06
4.91879e-09
-2.57924e-06
1.15593e-09
-2.57716e-06
-2.59754e-09
-2.57392e-06
-6.35058e-09
-2.56949e-06
-1.01351e-08
-2.56385e-06
-1.39582e-08
-2.55697e-06
-1.7811e-08
-2.54884e-06
-2.16847e-08
-2.53945e-06
-2.55782e-08
-2.52879e-06
-2.94856e-08
-2.51687e-06
-3.34062e-08
-2.50367e-06
-3.73339e-08
-2.4892e-06
-4.12676e-08
-2.47345e-06
-4.52009e-08
-2.45643e-06
-4.91319e-08
-2.43813e-06
-5.30537e-08
-2.41856e-06
-5.69638e-08
-2.39772e-06
-6.0855e-08
-2.37563e-06
-6.47248e-08
-2.35229e-06
-6.85663e-08
-2.3277e-06
-7.2377e-08
-2.30188e-06
-7.61509e-08
-2.27485e-06
-7.98849e-08
-2.24661e-06
-8.35732e-08
-2.21719e-06
-8.72115e-08
-2.18659e-06
-9.07943e-08
-2.15485e-06
-9.43168e-08
-2.12199e-06
-9.7774e-08
-2.08802e-06
-1.01161e-07
-2.05297e-06
-1.04474e-07
-2.01687e-06
-1.07708e-07
-1.97974e-06
-1.10858e-07
-1.94163e-06
-1.1392e-07
-1.90255e-06
-1.16888e-07
-1.86254e-06
-1.19757e-07
-1.82164e-06
-1.22515e-07
-1.77986e-06
-1.25155e-07
-1.73724e-06
-1.27679e-07
-1.6938e-06
-1.30093e-07
-1.64958e-06
-1.32407e-07
-1.60463e-06
-1.3465e-07
-1.55901e-06
-1.36808e-07
-1.51274e-06
-1.3885e-07
-1.46585e-06
-1.40775e-07
-1.41835e-06
-1.42589e-07
-1.3703e-06
-1.44298e-07
-1.32173e-06
-1.45909e-07
-1.27266e-06
-1.47422e-07
-1.22313e-06
-1.48843e-07
-1.17317e-06
-1.50171e-07
-1.1228e-06
-1.51416e-07
-1.07205e-06
-1.52577e-07
-1.02095e-06
-1.53657e-07
-9.69519e-07
-1.54656e-07
-9.17786e-07
-1.55571e-07
-8.65776e-07
-1.56398e-07
-8.13523e-07
-1.57128e-07
-7.61056e-07
-1.5777e-07
-7.08402e-07
-1.58318e-07
-6.55591e-07
-1.58791e-07
-6.02641e-07
-1.59202e-07
-5.49571e-07
-1.5956e-07
-4.96395e-07
-1.59883e-07
-4.43119e-07
-1.60182e-07
-3.8975e-07
-1.60464e-07
-3.36293e-07
-1.60731e-07
-2.82752e-07
-1.6098e-07
-2.29133e-07
-1.61209e-07
-1.7544e-07
-1.6142e-07
-1.21674e-07
-1.61622e-07
-6.78349e-08
-1.61826e-07
-1.39154e-08
-1.62044e-07
4.00901e-08
-1.6228e-07
9.4186e-08
-1.62528e-07
1.48372e-07
-1.62763e-07
2.02629e-07
-1.62936e-07
2.56912e-07
-1.62964e-07
3.11146e-07
-1.62698e-07
3.65202e-07
-1.61894e-07
4.18852e-07
-1.60122e-07
4.71721e-07
-1.56641e-07
5.23392e-07
-1.5028e-07
5.72926e-07
-1.38591e-07
-1.11228e-07
6.23901e-07
-1.44995e-10
1.15224e-08
1.33346e-08
3.04133e-09
5.44033e-08
-3.77275e-08
1.18111e-07
-9.20845e-08
1.86691e-07
-1.37621e-07
2.4559e-07
-1.64233e-07
2.89163e-07
-1.72783e-07
3.18394e-07
-1.68634e-07
3.37023e-07
-1.57091e-07
3.48797e-07
-1.41795e-07
3.5647e-07
-1.24793e-07
3.61649e-07
-1.07121e-07
3.65179e-07
-8.93004e-08
3.67383e-07
-7.16043e-08
3.68405e-07
-5.41903e-08
3.68246e-07
-3.71627e-08
3.66955e-07
-2.05996e-08
3.64539e-07
-4.56777e-09
3.61098e-07
1.08818e-08
3.56748e-07
2.57171e-08
3.51736e-07
3.99076e-08
3.46283e-07
5.34166e-08
3.40581e-07
6.61696e-08
3.34637e-07
7.79957e-08
3.28227e-07
8.85465e-08
3.20851e-07
9.72483e-08
3.11786e-07
1.03255e-07
3.00344e-07
1.05462e-07
2.86101e-07
1.02719e-07
2.69246e-07
9.40856e-08
2.50657e-07
7.89697e-08
2.31723e-07
5.77656e-08
2.12739e-07
3.28664e-08
1.8991e-07
1.1061e-08
1.56154e-07
1.08962e-09
1.09149e-07
6.19713e-09
4.98351e-08
2.51404e-08
-2.28269e-08
5.61772e-08
-1.11762e-07
9.6653e-08
-2.17926e-07
1.43687e-07
-3.40227e-07
1.94021e-07
-4.76435e-07
2.44679e-07
-6.21299e-07
2.9374e-07
-7.67985e-07
3.3948e-07
-9.1015e-07
3.7981e-07
-1.0421e-06
4.12118e-07
-1.15968e-06
4.35212e-07
-1.26139e-06
4.49421e-07
-1.34681e-06
4.55059e-07
-1.41669e-06
4.52964e-07
-1.47299e-06
4.44268e-07
-1.51823e-06
4.30147e-07
-1.55519e-06
4.11905e-07
-1.5866e-06
3.90812e-07
-1.61489e-06
3.6803e-07
-1.64194e-06
3.44576e-07
-1.66889e-06
3.21329e-07
-1.69629e-06
2.98962e-07
-1.72437e-06
2.77876e-07
-1.75318e-06
2.58298e-07
-1.7826e-06
2.40329e-07
-1.81239e-06
2.24006e-07
-1.84231e-06
2.09285e-07
-1.87218e-06
1.9604e-07
-1.90176e-06
1.84148e-07
-1.93087e-06
1.73458e-07
-1.9594e-06
1.63808e-07
-1.98724e-06
1.5505e-07
-2.01431e-06
1.47049e-07
-2.04056e-06
1.3968e-07
-2.06595e-06
1.3284e-07
-2.09044e-06
1.2644e-07
-2.11402e-06
1.20399e-07
-2.13666e-06
1.14654e-07
-2.15836e-06
1.09153e-07
-2.17911e-06
1.03852e-07
-2.19891e-06
9.87142e-08
-2.21775e-06
9.37102e-08
-2.23563e-06
8.8815e-08
-2.25254e-06
8.40087e-08
-2.26849e-06
7.92733e-08
-2.28347e-06
7.45945e-08
-2.29748e-06
6.99587e-08
-2.31051e-06
6.53549e-08
-2.32256e-06
6.07722e-08
-2.33362e-06
5.62011e-08
-2.3437e-06
5.16329e-08
-2.35278e-06
4.70587e-08
-2.36085e-06
4.24753e-08
-2.36791e-06
3.78618e-08
-2.37394e-06
3.32286e-08
-2.37895e-06
2.85579e-08
-2.38293e-06
2.38505e-08
-2.38588e-06
1.91043e-08
-2.38778e-06
1.43203e-08
-2.38863e-06
9.50428e-09
-2.38839e-06
4.66091e-09
-2.38706e-06
-2.01532e-10
-2.3846e-06
-5.08575e-09
-2.38097e-06
-1e-08
-2.37616e-06
-1.49609e-08
-2.37016e-06
-1.99682e-08
-2.36297e-06
-2.50161e-08
-2.35457e-06
-3.00952e-08
-2.34495e-06
-3.52023e-08
-2.33411e-06
-4.03299e-08
-2.32205e-06
-4.54757e-08
-2.30876e-06
-5.06326e-08
-2.29423e-06
-5.57981e-08
-2.27847e-06
-6.09648e-08
-2.26148e-06
-6.61298e-08
-2.24325e-06
-7.12842e-08
-2.22379e-06
-7.64249e-08
-2.2031e-06
-8.15418e-08
-2.18119e-06
-8.66319e-08
-2.15807e-06
-9.16852e-08
-2.13374e-06
-9.66995e-08
-2.10822e-06
-1.01665e-07