/*--------------------------------*- C++ -*----------------------------------*\
  =========                 |
  \\      /  F ield         | OpenFOAM: The Open Source CFD Toolbox
   \\    /   O peration     | Website:  https://openfoam.org
    \\  /    A nd           | Version:  8
     \\/     M anipulation  |
\*---------------------------------------------------------------------------*/
FoamFile
{
    version     2.0;
    format      ascii;
    class       volScalarField;
    location    "100";
    object      nut;
}
// * * * * * * * * * * * * * * * * * * * * * * * * * * * * * * * * * * * * * //

dimensions      [0 2 -1 0 0 0 0];

internalField   nonuniform List<scalar> 
12225
(
7.62685e-05
5.52197e-05
5.13398e-05
4.76798e-05
4.89661e-05
4.67582e-05
3.35094e-05
4.02182e-05
4.62813e-05
4.22862e-05
4.03188e-05
3.71436e-05
3.76081e-05
3.61524e-05
8.28557e-05
4.2057e-05
3.97237e-05
3.06968e-05
0.000133974
0.000113814
8.72588e-05
7.38522e-05
6.94474e-05
6.6945e-05
6.26779e-05
6.4746e-05
6.25217e-05
6.5827e-05
6.99737e-05
6.13674e-05
6.49683e-05
6.2379e-05
6.62916e-05
6.64187e-05
6.43243e-05
6.03947e-05
0.0004169
0.000269495
0.000202888
0.000186794
0.000164872
0.000147646
0.000135059
0.000127033
0.00011664
0.000112247
0.000107058
0.000102475
0.000100459
9.7912e-05
9.65413e-05
9.35389e-05
9.19914e-05
8.8736e-05
0.000676622
0.000531918
0.00041166
0.000399762
0.000363056
0.000325245
0.000296807
0.0002742
0.000254685
0.000237746
0.000225145
0.000212013
0.000203489
0.000193379
0.000187374
0.000178414
0.000173433
0.000166319
0.000800773
0.00074592
0.00063863
0.000633179
0.000596171
0.000550678
0.00051535
0.000481888
0.000457809
0.000431481
0.000413191
0.00039163
0.000377352
0.000359432
0.000348462
0.000333188
0.000325373
0.000312474
0.000849963
0.000821279
0.000788444
0.000776253
0.000756497
0.000723412
0.000697389
0.00066858
0.000647908
0.000622907
0.000605006
0.000582628
0.000567179
0.000547256
0.000534622
0.000517065
0.000507687
0.000492455
0.000852659
0.000845993
0.000838561
0.000827803
0.000823046
0.000808853
0.00079631
0.000780676
0.000768961
0.000753281
0.000741387
0.000725638
0.000714121
0.000698893
0.00068862
0.000674424
0.000666065
0.000653177
0.000851917
0.000849997
0.000847916
0.000844954
0.000840976
0.0008358
0.000829725
0.000822289
0.000816214
0.000807951
0.000801203
0.000791974
0.000784824
0.000775229
0.00076833
0.000758875
0.000752832
0.000743657
0.000851497
0.000850577
0.000849499
0.00084823
0.00084671
0.000844334
0.000841642
0.000838505
0.000835141
0.000831486
0.000827758
0.000823374
0.000819293
0.000814148
0.00080999
0.000804601
0.000800579
0.000795044
0.000851439
0.000850473
0.00084957
0.000848572
0.000847677
0.000846505
0.000845308
0.000843879
0.00084247
0.000840722
0.000839097
0.000837015
0.000835123
0.000832758
0.000830629
0.000828146
0.000825864
0.000823181
0.00085145
0.000850418
0.000849493
0.00084853
0.000847689
0.000846783
0.000845971
0.000845059
0.000844248
0.000843287
0.000842432
0.000841397
0.000840474
0.000839356
0.000838377
0.000837174
0.000836187
0.000834889
0.000851453
0.00085041
0.000849454
0.000848505
0.000847641
0.000846776
0.000845992
0.000845196
0.000844476
0.000843728
0.000843052
0.000842336
0.000841689
0.000840994
0.000840369
0.000839687
0.00083908
0.00083841
0.000851449
0.000850411
0.000849437
0.000848496
0.000847613
0.000846759
0.000845959
0.000845184
0.000844458
0.000843751
0.000843088
0.000842441
0.000841831
0.000841236
0.000840674
0.000840124
0.000839602
0.000839092
0.000851448
0.000850411
0.000849428
0.000848489
0.000847598
0.000846746
0.000845938
0.000845165
0.000844431
0.000843728
0.000843059
0.00084242
0.000841809
0.000841226
0.000840668
0.000840134
0.000839624
0.000839135
0.000851447
0.000850409
0.000849423
0.000848483
0.000847588
0.000846735
0.000845924
0.000845149
0.000844411
0.000843707
0.000843035
0.000842393
0.000841779
0.000841193
0.000840633
0.000840098
0.000839585
0.000839095
0.000851446
0.000850409
0.00084942
0.000848478
0.000847582
0.000846728
0.000845914
0.000845138
0.000844397
0.000843691
0.000843016
0.000842371
0.000841755
0.000841167
0.000840604
0.000840066
0.00083955
0.000839058
0.000851448
0.000850407
0.000849419
0.000848475
0.000847578
0.000846722
0.000845908
0.000845129
0.000844388
0.000843679
0.000843003
0.000842356
0.000841738
0.000841148
0.000840583
0.000840042
0.000839525
0.000839031
0.000851446
0.000850408
0.000849417
0.000848475
0.000847577
0.000846721
0.000845905
0.000845126
0.000844383
0.000843674
0.000842996
0.000842349
0.00084173
0.000841138
0.000840572
0.000840031
0.000839512
0.000839017
0.000851448
0.000850407
0.000849418
0.000848475
0.000847578
0.000846722
0.000845906
0.000845128
0.000844385
0.000843676
0.000842998
0.00084235
0.000841731
0.000841139
0.000840572
0.00084003
0.000839512
0.000839015
0.000851447
0.000850408
0.000849419
0.000848478
0.000847581
0.000846726
0.000845912
0.000845134
0.000844392
0.000843683
0.000843006
0.000842358
0.000841739
0.000841147
0.00084058
0.000840038
0.000839519
0.000839022
0.000851448
0.000850411
0.000849421
0.000848483
0.000847586
0.000846734
0.000845919
0.000845144
0.000844401
0.000843694
0.000843015
0.000842367
0.000841744
0.00084115
0.000840577
0.00084003
0.000839502
0.000838998
0.000851445
0.000850415
0.000849423
0.000848493
0.000847592
0.000846747
0.000845924
0.000845149
0.000844389
0.000843672
0.000842962
0.00084229
0.000841618
0.000840984
0.000840342
0.000839739
0.000839123
0.000838546
0.000851431
0.000850424
0.00084943
0.000848517
0.000847582
0.000846714
0.0008458
0.000844936
0.000844009
0.000843111
0.000842139
0.00084119
0.000840159
0.00083916
0.000838059
0.000837033
0.000835873
0.000834828
0.000851334
0.000850434
0.000849447
0.000848434
0.000847119
0.00084574
0.000844032
0.000842313
0.000840168
0.000837993
0.000835443
0.000832879
0.000830026
0.000827097
0.000824116
0.000821141
0.000817889
0.000815011
0.0008506
0.000849952
0.000848519
0.000845965
0.000841446
0.000836134
0.000830283
0.000823973
0.000816259
0.000808845
0.00080037
0.000792518
0.000783826
0.000776024
0.000767457
0.000760034
0.000751784
0.000744924
0.000843258
0.000839054
0.000835841
0.000820404
0.000803058
0.000784554
0.000763061
0.000743276
0.000722061
0.000703399
0.000683959
0.00066734
0.000650112
0.000635722
0.000620632
0.000608343
0.000595127
0.000584719
0.000766652
0.000774752
0.000746666
0.000701959
0.000651906
0.000608247
0.000567101
0.000533969
0.000502856
0.000478142
0.000454441
0.000435823
0.000417442
0.000403162
0.000388573
0.000377427
0.000365582
0.000356753
0.000457666
0.000495131
0.000458955
0.000402843
0.000351126
0.000312884
0.000281738
0.000259276
0.000240278
0.000226148
0.000213395
0.000203892
0.000194866
0.000188177
0.00018151
0.000176634
0.000171545
0.000167888
0.000134307
0.000157861
0.000149446
0.000133507
0.000120211
0.000111295
0.000104936
0.000100723
9.74295e-05
9.52498e-05
9.33736e-05
9.21942e-05
9.10664e-05
9.04401e-05
8.97458e-05
8.94454e-05
8.90154e-05
8.89092e-05
3.2273e-05
5.16933e-05
6.19996e-05
6.37903e-05
6.51788e-05
6.5162e-05
6.51445e-05
6.47343e-05
6.42212e-05
6.36693e-05
6.31172e-05
6.25831e-05
6.20806e-05
6.16115e-05
6.11791e-05
6.0781e-05
6.04148e-05
6.00792e-05
2.56275e-10
2.09014e-08
7.39883e-08
2.14995e-07
5.73711e-07
1.2687e-06
2.13141e-06
3.09326e-06
3.94264e-06
4.74711e-06
5.53687e-06
5.45426e-06
5.60939e-06
5.0518e-06
5.20821e-06
4.62549e-06
4.59895e-06
3.82042e-06
3.48136e-06
2.67006e-06
1.89613e-06
1.06324e-06
4.605e-07
1.63336e-07
6.9205e-08
7.5285e-08
1.57164e-07
3.33937e-07
7.14998e-07
8.95738e-07
8.40014e-07
6.67062e-07
4.70797e-07
5.12636e-07
7.73779e-07
2.01296e-06
9.88177e-06
2.9601e-05
4.03554e-05
4.54903e-05
5.09551e-05
3.53598e-05
4.50643e-05
4.87842e-05
5.15566e-05
5.4098e-05
5.64672e-05
5.83236e-05
6.02128e-05
6.1756e-05
6.32281e-05
6.44667e-05
6.55773e-05
6.64914e-05
6.72198e-05
6.73165e-05
6.96557e-05
7.10624e-05
7.14869e-05
7.29003e-05
7.37347e-05
7.43758e-05
7.53306e-05
7.60002e-05
7.6747e-05
7.739e-05
7.8143e-05
7.88848e-05
7.96514e-05
8.04337e-05
8.12308e-05
8.20352e-05
8.28236e-05
8.35346e-05
8.42795e-05
8.4928e-05
8.55778e-05
8.60629e-05
8.64244e-05
8.63681e-05
8.56814e-05
8.76016e-05
9.06664e-05
9.09392e-05
9.16613e-05
9.2495e-05
9.32155e-05
9.38901e-05
9.45075e-05
9.51956e-05
9.57713e-05
9.62857e-05
9.66279e-05
9.66273e-05
9.58949e-05
9.72998e-05
9.97642e-05
9.98179e-05
0.000100156
0.000100522
0.000100874
0.00010107
0.000100979
0.00010036
0.000101095
0.000102102
0.000100976
0.00010141
0.000102341
0.000101534
0.000102209
0.00010163
0.000101487
0.000102005
0.000101504
0.000101129
0.000100657
0.00010013
9.95441e-05
9.88991e-05
9.81984e-05
9.74446e-05
9.66407e-05
9.57908e-05
9.48981e-05
9.39675e-05
9.30029e-05
9.20096e-05
9.09919e-05
8.99553e-05
8.89035e-05
8.78407e-05
8.67682e-05
8.56935e-05
8.46222e-05
8.35572e-05
8.24945e-05
8.14496e-05
8.04225e-05
7.94164e-05
7.84354e-05
7.7482e-05
7.6555e-05
7.5655e-05
7.47862e-05
7.39496e-05
7.31284e-05
7.23519e-05
7.1612e-05
7.08752e-05
7.01507e-05
6.94446e-05
6.87555e-05
6.80818e-05
6.74229e-05
6.67779e-05
6.61443e-05
6.55211e-05
6.49068e-05
6.42967e-05
6.36971e-05
6.30947e-05
6.24902e-05
6.18831e-05
6.12729e-05
6.06602e-05
6.00446e-05
5.94277e-05
5.88088e-05
5.81889e-05
5.75695e-05
5.69428e-05
5.63292e-05
5.56699e-05
5.50875e-05
5.42867e-05
5.38698e-05
5.24113e-05
5.29949e-05
4.87484e-05
1.62888e-10
2.38933e-08
2.82364e-07
1.45731e-06
4.54133e-06
1.12466e-05
2.06205e-05
3.17307e-05
4.22888e-05
5.31667e-05
5.7565e-05
5.99801e-05
6.05132e-05
6.18858e-05
5.91848e-05
5.29902e-05
4.41428e-05
3.46694e-05
2.639e-05
1.93944e-05
1.3865e-05
9.3553e-06
6.06418e-06
3.85906e-06
2.90839e-06
2.87815e-06
4.66131e-06
9.52872e-06
1.92177e-05
2.35649e-05
2.20999e-05
1.69428e-05
1.32638e-05
1.64285e-05
2.42077e-05
3.64501e-05
5.45771e-05
7.12256e-05
8.37107e-05
9.55561e-05
0.000110429
0.000124108
0.00014604
0.000165782
0.000185601
0.000208749
0.000232799
0.000255929
0.000279533
0.000302003
0.00032275
0.000340795
0.000357438
0.000372502
0.000383854
0.000398
0.000410328
0.000421222
0.000430736
0.000441161
0.000451391
0.000463361
0.000476122
0.000483631
0.000485045
0.000490595
0.000497914
0.000505424
0.000513682
0.000523144
0.000534222
0.00054792
0.000555878
0.00056217
0.000564501
0.000575566
0.00058357
0.000594757
0.000600157
0.000615398
0.000625257
0.000635065
0.000643503
0.000651713
0.000656829
0.000669369
0.00067656
0.000688778
0.000702115
0.000713527
0.000724856
0.000735189
0.000747391
0.000761694
0.000771076
0.000782761
0.000791028
0.000799268
0.000807799
0.000817904
0.000825644
0.000835908
0.00084589
0.000856183
0.000864076
0.000871572
0.000875891
0.000876482
0.000881756
0.000893273
0.000894488
0.000899582
0.00090412
0.000909211
0.000914923
0.000915657
0.000916289
0.000915922
0.000914703
0.00091258
0.00090957
0.000905697
0.000900998
0.000895512
0.00088929
0.000882388
0.000874865
0.000866788
0.000858225
0.000849249
0.00083993
0.000830331
0.000820475
0.000810448
0.000800358
0.000790251
0.000780174
0.000770152
0.000760224
0.000750415
0.00074076
0.000731287
0.000722
0.000712896
0.00070398
0.000695272
0.000686691
0.000678317
0.000670141
0.00066202
0.000653963
0.000645991
0.000638072
0.00063019
0.000622329
0.000614475
0.000606601
0.00059869
0.000590722
0.000582658
0.000574491
0.000566195
0.000557753
0.000549158
0.000540407
0.000531503
0.000522442
0.000513241
0.000503869
0.000494389
0.000484685
0.000474933
0.000464835
0.000454721
0.000444185
0.000432841
0.00042262
0.000404649
0.000395907
0.000334163
4.7565e-10
6.39984e-08
7.66105e-07
3.61039e-06
1.18223e-05
2.55379e-05
4.26984e-05
6.17177e-05
8.08709e-05
9.72388e-05
0.000108029
0.000117723
0.000119701
0.000122705
0.000121567
0.000116599
0.00010764
9.5327e-05
7.99508e-05
6.41046e-05
4.97549e-05
3.76514e-05
2.79699e-05
2.19794e-05
1.75707e-05
1.66053e-05
2.45307e-05
4.58917e-05
5.86508e-05
5.16218e-05
4.82125e-05
5.31368e-05
6.59163e-05
8.43151e-05
0.000106868
0.000132083
0.000158241
0.000188115
0.000221606
0.00026231
0.000306638
0.000352366
0.000406221
0.000456096
0.000507523
0.000559612
0.000610025
0.000657966
0.000703708
0.000745178
0.000782713
0.000816674
0.000845077
0.000874061
0.000901003
0.000927145
0.000951235
0.000973864
0.000995477
0.00101673
0.00103735
0.00105757
0.00107643
0.00109262
0.00110738
0.00112384
0.00114103
0.00115849
0.00117649
0.00119508
0.00121414
0.00123313
0.00124988
0.00126627
0.00128316
0.00130399
0.00132082
0.00134248
0.0013566
0.00138054
0.0013954
0.00141501
0.00143427
0.0014529
0.00147289
0.00149723
0.00151508
0.0015393
0.00156486
0.00158573
0.00161187
0.00163473
0.00166029
0.00168405
0.00170835
0.00173195
0.00175274
0.00177558
0.00179867
0.00182231
0.00184422
0.00186772
0.00189038
0.00191227
0.00193217
0.00195156
0.00196891
0.00198502
0.00200116
0.00201517
0.00203007
0.00204005
0.00204974
0.00205958
0.00206676
0.00207081
0.00207299
0.00207299
0.00207086
0.00206651
0.00205991
0.00205114
0.00204026
0.00202739
0.00201264
0.00199618
0.00197814
0.0019587
0.00193804
0.00191635
0.00189381
0.00187061
0.00184692
0.00182288
0.00179866
0.00177439
0.00175017
0.00172611
0.00170229
0.00167877
0.00165561
0.00163289
0.00161061
0.00158879
0.00156742
0.00154651
0.00152598
0.00150588
0.00148626
0.001467
0.00144805
0.00142939
0.00141103
0.00139289
0.00137492
0.00135709
0.00133936
0.00132168
0.00130401
0.00128625
0.00126837
0.00125031
0.00123205
0.00121355
0.00119482
0.00117585
0.00115663
0.00113718
0.00111745
0.00109752
0.0010772
0.00105677
0.00103566
0.00101455
0.000992464
0.000969247
0.000947594
0.00091139
0.000889731
0.000803879
2.42819e-09
2.25069e-07
2.33229e-06
1.13225e-05
3.15893e-05
6.06304e-05
9.36354e-05
0.00012308
0.000144739
0.000159409
0.000169418
0.000173592
0.000174355
0.00017219
0.000167159
0.000159389
0.000148841
0.00013671
0.000120744
0.000102401
8.35869e-05
6.65932e-05
5.25862e-05
3.97663e-05
3.65472e-05
4.91379e-05
8.35658e-05
0.000105403
0.000109251
0.000112987
0.000123437
0.000139643
0.000160407
0.000188513
0.000228251
0.000268856
0.000318741
0.000375033
0.000437873
0.000506642
0.000578498
0.0006527
0.000728239
0.000802157
0.000875034
0.000945582
0.00101276
0.00107553
0.00113498
0.00119254
0.00124473
0.00129318
0.00133802
0.00138098
0.00142152
0.00146006
0.00149651
0.0015313
0.00156473
0.00159701
0.00162811
0.00165806
0.00168652
0.00171359
0.00174032
0.00176746
0.00179467
0.0018219
0.0018492
0.00187654
0.00190389
0.00193078
0.00195704
0.00198302
0.00200957
0.0020371
0.00206412
0.00209255
0.00211961
0.00214967
0.00217694
0.0022062
0.00223537
0.00226481
0.00229546
0.00232734
0.00235801
0.00239158
0.00242564
0.00245876
0.00249476
0.00253059
0.0025662
0.00260162
0.00263778
0.00267381
0.00270821
0.00274343
0.00277896
0.00281469
0.00284941
0.00288434
0.00291843
0.00295145
0.00298302
0.00301363
0.00304256
0.00306994
0.00309577
0.00311934
0.00314134
0.00315808
0.00317258
0.00318536
0.00319559
0.00320233
0.0032058
0.00320586
0.0032025
0.00319567
0.00318541
0.00317178
0.00315491
0.00313496
0.0031121
0.00308657
0.00305859
0.00302842
0.00299632
0.0029626
0.00292751
0.00289136
0.0028544
0.00281688
0.00277903
0.00274105
0.00270315
0.00266547
0.00262814
0.00259129
0.002555
0.00251937
0.00248445
0.00245027
0.00241683
0.00238412
0.0023521
0.00232076
0.00229011
0.00226009
0.00223065
0.00220174
0.00217335
0.00214545
0.00211799
0.00209089
0.00206402
0.00203735
0.00201078
0.00198421
0.00195754
0.00193068
0.00190358
0.00187624
0.00184863
0.00182076
0.00179259
0.00176414
0.00173535
0.00170628
0.00167676
0.001647
0.0016165
0.00158577
0.00155405
0.00152056
0.00148966
0.00144191
0.00140439
0.00131942
1.13621e-08
6.99481e-07
7.30235e-06
3.4185e-05
7.68794e-05
0.000121769
0.000158486
0.000184588
0.00020282
0.000211522
0.000214944
0.000214477
0.000211137
0.000205661
0.000197888
0.000188348
0.000177032
0.000163508
0.000146989
0.0001273
0.000105033
8.21827e-05
6.54746e-05
6.19725e-05
8.41292e-05
0.000125737
0.000155679
0.000168787
0.000176985
0.000187696
0.000206434
0.0002345
0.000277766
0.000327896
0.000386994
0.00045282
0.000528021
0.000609405
0.000696086
0.000786184
0.000877829
0.000970245
0.00106193
0.00115149
0.00123853
0.00132179
0.00140281
0.00147958
0.00155427
0.00162323
0.00168817
0.00174943
0.00180746
0.00186275
0.00191542
0.00196571
0.00201381
0.00206001
0.00210456
0.00214761
0.00218925
0.00222955
0.0022685
0.00230635
0.00234368
0.00238078
0.00241765
0.00245432
0.0024908
0.00252711
0.00256323
0.00259899
0.0026345
0.0026698
0.00270536
0.00274113
0.00277718
0.00281367
0.00285034
0.00288785
0.0029248
0.00296246
0.00300034
0.00303857
0.00307761
0.00311714
0.00315684
0.00319787
0.00323929
0.00328095
0.00332467
0.00336848
0.00341214
0.00345661
0.00350066
0.00354452
0.00358783
0.00363143
0.00367523
0.00371896
0.00376207
0.0038048
0.00384668
0.00388745
0.00392688
0.003965
0.00400141
0.00403595
0.00406836
0.00409834
0.00412536
0.00414676
0.00416518
0.00418093
0.00419353
0.00420208
0.00420645
0.00420652
0.00420219
0.00419345
0.00418031
0.00416284
0.00414118
0.00411551
0.00408607
0.00405313
0.00401699
0.00397794
0.00393633
0.00389253
0.00384689
0.00379978
0.00375153
0.00370248
0.00365292
0.00360314
0.00355339
0.0035039
0.00345484
0.00340637
0.00335863
0.00331173
0.00326575
0.00322075
0.00317673
0.00313369
0.00309162
0.00305047
0.00301025
0.00297091
0.0029324
0.00289468
0.0028577
0.00282145
0.00278585
0.00275088
0.00271644
0.00268239
0.00264858
0.00261484
0.00258103
0.00254707
0.0025129
0.00247851
0.00244386
0.00240895
0.00237375
0.00233824
0.00230237
0.00226617
0.00222949
0.00219247
0.00215473
0.00211657
0.00207751
0.0020366
0.0019974
0.00194745
0.00189725
0.00180473
4.66821e-08
2.20859e-06
2.42748e-05
7.45287e-05
0.000128357
0.000171985
0.000202708
0.00022256
0.00023147
0.000234473
0.00023381
0.000230724
0.000225915
0.000219405
0.000210472
0.000199603
0.000186054
0.000170088
0.000151467
0.000130097
0.000109503
9.39475e-05
9.41704e-05
0.000119261
0.000163165
0.000195603
0.000215286
0.000227639
0.00024361
0.000268565
0.000310651
0.000362738
0.0004258
0.000497928
0.000579012
0.000667694
0.000763332
0.000863609
0.000966874
0.00107152
0.00117629
0.00128034
0.00138259
0.00148204
0.00157991
0.00167434
0.00176668
0.00185408
0.00193738
0.00201666
0.00209221
0.00216429
0.00223319
0.00229918
0.00236249
0.00242331
0.00248187
0.00253841
0.00259313
0.0026462
0.00269776
0.00274791
0.00279678
0.00284456
0.00289157
0.00293802
0.00298399
0.00302956
0.00307478
0.00311967
0.00316424
0.00320847
0.00325243
0.00329619
0.00333993
0.00338367
0.00342756
0.00347159
0.00351584
0.00356032
0.00360473
0.00364932
0.00369405
0.00373898
0.00378429
0.00382986
0.00387571
0.0039222
0.00396912
0.00401651
0.00406489
0.004113
0.00416134
0.00420925
0.00425765
0.00430668
0.00435489
0.004403
0.00445121
0.00449933
0.00454687
0.00459388
0.00464009
0.0046852
0.00472899
0.00477132
0.0048119
0.00485048
0.00488676
0.00492048
0.00495075
0.00497506
0.00499662
0.00501514
0.00502967
0.00503976
0.00504514
0.00504562
0.00504109
0.00503146
0.00501671
0.00499689
0.00497214
0.00494263
0.00490859
0.00487028
0.00482805
0.00478229
0.00473338
0.00468175
0.00462782
0.004572
0.00451472
0.00445635
0.00439727
0.00433784
0.00427837
0.00421914
0.00416036
0.00410224
0.00404494
0.00398862
0.00393338
0.0038793
0.00382641
0.00377472
0.00372422
0.0036749
0.00362673
0.0035797
0.00353375
0.00348884
0.00344491
0.00340192
0.00335982
0.00331855
0.00327805
0.00323823
0.00319897
0.00315985
0.00312069
0.00308143
0.00304203
0.00300247
0.00296271
0.00292272
0.00288245
0.00284188
0.00280096
0.00275967
0.0027179
0.0026757
0.00263284
0.00258942
0.00254521
0.00249935
0.00245414
0.0024027
0.00234841
0.00225604
1.42288e-07
6.89601e-06
5.40143e-05
0.000120761
0.000178494
0.000218115
0.00024088
0.000249043
0.000249635
0.000246724
0.00024178
0.000235783
0.000228837
0.000220533
0.000210651
0.000198854
0.000184697
0.000168544
0.000150862
0.000133617
0.000123945
0.000127801
0.000157242
0.000196628
0.000228196
0.000250881
0.000269549
0.000292368
0.000329432
0.000378708
0.000440695
0.000513703
0.00059701
0.000689089
0.000788721
0.000894179
0.00100373
0.00111575
0.00122895
0.00134225
0.00145478
0.0015658
0.001675
0.00178414
0.00188918
0.00199115
0.00208949
0.00218416
0.0022752
0.00236266
0.00244672
0.00252754
0.00260533
0.00268028
0.00275258
0.00282243
0.00289003
0.00295558
0.00301927
0.00308127
0.00314173
0.00320077
0.00325855
0.00331521
0.00337095
0.00342594
0.00348028
0.00353407
0.00358735
0.00364017
0.00369255
0.00374451
0.0037961
0.00384736
0.00389838
0.0039492
0.00399989
0.00405046
0.00410096
0.00415136
0.00420157
0.00425164
0.00430156
0.00435136
0.00440113
0.00445084
0.00450056
0.00455042
0.00460039
0.00465052
0.00470084
0.00475101
0.00480103
0.00485081
0.00490085
0.0049506
0.00500003
0.00504904
0.0050982
0.00514766
0.00519615
0.00524419
0.00529162
0.00533803
0.00538327
0.00542709
0.00546927
0.00550954
0.00554761
0.00558319
0.00561552
0.00564216
0.00566598
0.00568637
0.00570264
0.0057143
0.005721
0.0057225
0.00571859
0.00570916
0.0056941
0.00567341
0.0056472
0.00561563
0.00557891
0.00553732
0.00549121
0.00544098
0.00538705
0.00532989
0.00526995
0.00520771
0.00514363
0.00507816
0.00501174
0.00494478
0.0048776
0.00481051
0.00474382
0.0046778
0.00461266
0.00454859
0.00448572
0.00442414
0.00436394
0.00430513
0.00424772
0.00419171
0.00413709
0.00408386
0.00403197
0.00398136
0.00393198
0.00388378
0.0038367
0.00379068
0.00374565
0.00370153
0.0036582
0.00361541
0.00357259
0.00352973
0.00348683
0.00344388
0.00340081
0.00335757
0.00331411
0.00327037
0.0032263
0.00318183
0.0031369
0.00309148
0.00304543
0.00299875
0.00295134
0.00290254
0.00285384
0.00280063
0.00274779
0.00265787
3.07952e-07
1.68533e-05
8.12849e-05
0.000154983
0.000212903
0.000247499
0.000263476
0.000265836
0.000260322
0.000251238
0.000241615
0.000232524
0.000223619
0.000215076
0.000204861
0.000193076
0.000178976
0.000164801
0.000152731
0.000149083
0.000163935
0.000194322
0.000226255
0.000256493
0.000280877
0.000305968
0.000338443
0.0003827
0.000439102
0.000508416
0.00058952
0.000680834
0.00078077
0.000887437
0.000999027
0.00111409
0.00123133
0.00134967
0.00146821
0.00158618
0.00170299
0.00182053
0.00193531
0.00204763
0.00215705
0.00226347
0.0023667
0.00246669
0.00256344
0.00265701
0.0027475
0.00283502
0.00291971
0.00300173
0.00308125
0.00315842
0.00323344
0.00330647
0.00337768
0.00344724
0.0035153
0.00358199
0.00364744
0.00371179
0.00377518
0.00383772
0.00389953
0.00396067
0.00402121
0.00408118
0.00414061
0.00419951
0.00425791
0.00431582
0.00437327
0.00443028
0.00448688
0.00454307
0.00459885
0.00465419
0.00470903
0.00476337
0.00481719
0.00487049
0.0049233
0.00497564
0.00502755
0.00507907
0.00513025
0.00518111
0.00523164
0.00528173
0.00533139
0.00538061
0.00542951
0.00547801
0.00552611
0.00557379
0.00562141
0.00566853
0.00571504
0.00576145
0.00580771
0.00585295
0.0058974
0.00594076
0.00598276
0.00602314
0.00606161
0.00609788
0.00613143
0.00616013
0.00618556
0.00620745
0.00622544
0.00623885
0.00624724
0.00625027
0.00624767
0.00623928
0.00622505
0.00620486
0.00617869
0.00614663
0.00610889
0.00606572
0.00601746
0.00596453
0.00590736
0.00584643
0.00578226
0.00571534
0.0056462
0.00557534
0.00550326
0.00543041
0.00535721
0.00528401
0.00521112
0.00513886
0.00506749
0.00499724
0.00492827
0.00486071
0.00479466
0.00473017
0.00466727
0.00460598
0.0045463
0.00448817
0.00443161
0.0043766
0.00432307
0.00427097
0.00422024
0.00417082
0.00412261
0.00407554
0.00402949
0.00398428
0.00393928
0.00389433
0.00384949
0.00380474
0.00375999
0.00371516
0.00367017
0.00362495
0.00357943
0.00353351
0.00348712
0.00344021
0.00339269
0.0033445
0.00329562
0.00324556
0.00319539
0.0031412
0.00309275
0.0030062
4.90099e-07
2.9883e-05
0.000113473
0.000193028
0.000247019
0.00027555
0.000282728
0.000276401
0.000263517
0.000249018
0.000235831
0.000224234
0.000215122
0.000206627
0.000195686
0.000184398
0.000175541
0.000173185
0.000183507
0.000203478
0.000228526
0.000256278
0.000283389
0.000309677
0.000340649
0.000380516
0.000429677
0.000491995
0.000566724
0.000653242
0.000749388
0.000853402
0.000963616
0.00107819
0.00119582
0.00131543
0.0014361
0.00155698
0.00167772
0.00179847
0.00191971
0.00203846
0.00215508
0.00226936
0.00238107
0.00249006
0.00259624
0.00269955
0.00279999
0.00289759
0.00299242
0.00308457
0.00317414
0.00326126
0.00334607
0.00342872
0.00350935
0.00358813
0.00366521
0.00374075
0.00381489
0.00388776
0.00395949
0.0040302
0.00409998
0.00416894
0.00423715
0.00430468
0.00437157
0.00443785
0.00450353
0.0045686
0.00463305
0.00469688
0.00476005
0.00482256
0.0048844
0.00494554
0.00500594
0.00506555
0.00512431
0.00518217
0.00523908
0.00529503
0.00535001
0.00540402
0.00545708
0.00550922
0.00556046
0.00561086
0.00566042
0.00570912
0.00575699
0.00580406
0.00585039
0.00589609
0.00594122
0.00598586
0.00603014
0.00607401
0.00611749
0.00616082
0.00620367
0.00624639
0.00628892
0.00633059
0.00637124
0.00641067
0.00644866
0.0064849
0.00651897
0.00654919
0.00657625
0.00660006
0.00662013
0.00663581
0.00664661
0.00665208
0.00665187
0.00664566
0.00663326
0.00661445
0.00658922
0.00655762
0.00651981
0.00647604
0.00642663
0.00637198
0.00631256
0.00624888
0.00618145
0.00611085
0.00603762
0.00596234
0.00588553
0.00580773
0.00572944
0.00565126
0.00557335
0.005496
0.00541953
0.0053442
0.00527022
0.00519775
0.00512691
0.00505779
0.00499043
0.00492489
0.00486118
0.00479929
0.00473924
0.00468105
0.00462459
0.00456983
0.00451672
0.00446517
0.00441511
0.00436642
0.00431897
0.00427248
0.00422643
0.00418068
0.00413526
0.00409009
0.00404507
0.00400008
0.00395501
0.0039098
0.0038643
0.00381842
0.00377206
0.00372516
0.00367763
0.00362941
0.00358052
0.00353058
0.00348045
0.00342679
0.00337958
0.00330049
7.29375e-07
3.84634e-05
0.000132032
0.000218211
0.000273536
0.000297705
0.000298843
0.000286362
0.000268157
0.000249452
0.000233264
0.000222179
0.000212954
0.000204035
0.000200178
0.000201544
0.000208863
0.000222248
0.000239292
0.000260926
0.000285514
0.000310075
0.000338803
0.00037494
0.000419043
0.000473263
0.000539172
0.000617337
0.000705996
0.000803712
0.000908757
0.00101946
0.00113423
0.00125186
0.00137138
0.00149201
0.00161305
0.00173439
0.00185619
0.00197828
0.00209848
0.00221695
0.00233347
0.00244787
0.00255997
0.00266966
0.00277684
0.00288147
0.00298354
0.00308307
0.00318014
0.0032748
0.00336715
0.00345729
0.00354536
0.00363147
0.00371577
0.00379841
0.00387952
0.00395927
0.00403779
0.0041152
0.00419164
0.0042672
0.00434199
0.00441606
0.00448949
0.00456231
0.00463457
0.00470626
0.00477736
0.00484785
0.00491769
0.00498682
0.00505518
0.00512268
0.00518932
0.00525505
0.00531976
0.00538336
0.00544575
0.00550686
0.00556659
0.00562491
0.00568176
0.00573712
0.00579098
0.00584335
0.00589427
0.0059438
0.00599191
0.00603864
0.00608405
0.00612822
0.00617127
0.00621334
0.00625457
0.0062951
0.00633506
0.00637458
0.00641376
0.00645274
0.00649152
0.00653024
0.0065689
0.00660754
0.00664589
0.00668348
0.00672024
0.00675585
0.00678988
0.00682119
0.00684985
0.00687563
0.00689798
0.0069163
0.00693003
0.00693863
0.0069416
0.00693851
0.00692903
0.0069129
0.00688999
0.0068603
0.00682391
0.00678104
0.00673198
0.00667714
0.00661697
0.00655199
0.00648276
0.00640987
0.00633392
0.00625551
0.00617524
0.00609369
0.00601141
0.00592899
0.00584658
0.00576467
0.00568362
0.00560374
0.00552528
0.00544843
0.00537335
0.00530013
0.00522886
0.0051596
0.00509241
0.00502731
0.00496432
0.00490361
0.00484505
0.00478849
0.00473387
0.00468113
0.00463014
0.0045808
0.00453294
0.00448625
0.00444026
0.00439497
0.00435027
0.00430602
0.00426205
0.00421824
0.00417444
0.00413049
0.00408628
0.00404168
0.0039966
0.00395095
0.00390465
0.00385763
0.00380992
0.00376126
0.00371234
0.0036604
0.00361406
0.00354275
9.5007e-07
4.58873e-05
0.00015137
0.000243514
0.000299327
0.00032096
0.000318074
0.000301907
0.000281557
0.000263412
0.000251069
0.000241887
0.00023454
0.000233951
0.000238286
0.000246319
0.000258377
0.000274302
0.000293691
0.000315581
0.000339106
0.00037066
0.000410412
0.000457495
0.000514904
0.000582902
0.000661427
0.000749685
0.00084619
0.000949634
0.00105828
0.00117079
0.00128607
0.00140324
0.00152156
0.00164056
0.0017605
0.00188145
0.00200155
0.00212073
0.00223862
0.00235496
0.00246955
0.00258223
0.00269288
0.00280138
0.00290759
0.00301148
0.00311306
0.00321237
0.00330948
0.00340446
0.0034974
0.00358839
0.00367756
0.00376501
0.00385089
0.00393533
0.00401847
0.00410047
0.00418148
0.00426163
0.00434103
0.00441979
0.00449802
0.00457577
0.00465304
0.00472993
0.00480647
0.00488261
0.00495829
0.00503347
0.00510806
0.00518199
0.00525514
0.00532738
0.00539877
0.00546909
0.00553819
0.00560592
0.00567215
0.00573674
0.00579958
0.00586056
0.00591959
0.00597661
0.00603156
0.00608444
0.00613524
0.00618399
0.00623073
0.00627553
0.00631848
0.00635972
0.0063994
0.00643768
0.00647475
0.0065108
0.00654605
0.0065807
0.00661497
0.00664904
0.00668309
0.00671726
0.00675168
0.00678652
0.00682158
0.00685669
0.00689176
0.00692639
0.0069601
0.0069922
0.00702236
0.00705014
0.00707489
0.00709614
0.00711326
0.00712555
0.00713239
0.00713321
0.00712754
0.00711503
0.00709544
0.00706866
0.00703473
0.00699379
0.00694612
0.00689209
0.00683217
0.00676689
0.00669681
0.00662256
0.00654477
0.00646409
0.00638118
0.00629666
0.00621114
0.00612517
0.00603918
0.00595362
0.00586889
0.00578533
0.00570324
0.00562285
0.00554436
0.00546787
0.00539348
0.0053213
0.00525141
0.00518386
0.00511872
0.00505617
0.00499588
0.00493792
0.00488221
0.00482869
0.00477723
0.00472771
0.0046799
0.00463342
0.00458819
0.00454429
0.00450131
0.00445899
0.00441711
0.0043755
0.00433401
0.00429245
0.00425066
0.00420847
0.00416581
0.00412253
0.00407853
0.00403376
0.00398827
0.00394185
0.00389507
0.00384573
0.00380067
0.00373669
1.15713e-06
5.24954e-05
0.000168393
0.000267322
0.000324922
0.000345404
0.000340496
0.000323416
0.000304546
0.000290477
0.000280511
0.000272656
0.000270618
0.000274886
0.000282925
0.000294259
0.000309091
0.000326827
0.000347152
0.000372433
0.000406147
0.00044846
0.000498128
0.000556374
0.000624161
0.000701157
0.000786725
0.000879931
0.000979452
0.00108386
0.00119195
0.00130277
0.00141552
0.00152948
0.00164442
0.0017607
0.00187796
0.00199456
0.0021105
0.00222551
0.00233932
0.00245171
0.0025625
0.00267158
0.00277891
0.00288445
0.00298766
0.00308863
0.00318747
0.00328429
0.00337916
0.00347218