/*--------------------------------*- C++ -*----------------------------------*\
| =========                 |                                                 |
| \\      /  F ield         | OpenFOAM: The Open Source CFD Toolbox           |
|  \\    /   O peration     | Version:  v2012                                 |
|   \\  /    A nd           | Website:  www.openfoam.com                      |
|    \\/     M anipulation  |                                                 |
\*---------------------------------------------------------------------------*/
FoamFile
{
    version     2.0;
    format      ascii;
    class       volScalarField;
    location    "100";
    object      omega;
}
// * * * * * * * * * * * * * * * * * * * * * * * * * * * * * * * * * * * * * //

dimensions      [0 0 -1 0 0 0 0];


internalField   nonuniform List<scalar> 
12225
(
38697.8
41621.9
43468.4
44413.8
44866.4
44885.1
44812.1
44640.2
44397.7
44146.2
43905.3
43674.5
43474.3
43276.8
43129.2
42957.8
42873.2
42712.8
2375.14
5162.23
7078.51
8549.72
9757.22
10762
11562.6
12239
12780.4
13251.3
13629.3
13967.5
14233.9
14477.8
14657.2
14823
14909.1
15003.4
581.941
1092.23
1557.55
1978.77
2335.96
2682.86
2962.13
3242.93
3457.26
3687.04
3851.16
4043.66
4169.14
4334.55
4428.59
4572.81
4633.56
4768.59
441.381
538.165
657.95
791.832
908.151
1032.98
1133.05
1243.5
1325.77
1422.29
1488.38
1572.74
1624.84
1698.89
1738.93
1804.12
1832.03
1893.55
433.316
453.715
475.932
518.821
558.154
605.95
644.998
691.143
726.052
768.581
798.405
836.976
861.645
896.48
916.153
947.662
962.123
991.671
436.718
438.985
441.412
450.767
461.212
477.695
491.676
510.268
524.731
543.355
556.875
574.695
586.612
603.367
613.334
629.052
636.773
651.63
438.533
436.83
435.326
435.883
436.788
440.122
443.29
449.031
453.588
460.448
465.519
472.801
477.813
485.139
489.712
496.904
500.773
507.771
438.925
436.866
434.783
433.379
432.174
431.903
432.045
432.736
433.699
435.659
437.182
439.844
441.67
444.69
446.573
449.783
451.521
454.899
439.008
436.928
434.821
432.999
431.247
429.856
428.664
427.854
427.182
426.903
426.859
427.001
427.258
427.841
428.279
429.155
429.698
430.855
439.031
436.929
434.866
432.97
431.123
429.453
427.857
426.469
425.157
424.057
423.029
422.245
421.447
420.946
420.34
420.08
419.608
419.563
439.04
436.92
434.876
432.966
431.118
429.399
427.734
426.201
424.714
423.367
422.05
420.888
419.735
418.746
417.744
416.912
416.043
415.349
439.044
436.914
434.877
432.957
431.117
429.384
427.718
426.153
424.646
423.234
421.871
420.599
419.37
418.227
417.12
416.094
415.099
414.179
439.046
436.91
434.876
432.949
431.112
429.371
427.71
426.134
424.629
423.201
421.835
420.539
419.299
418.122
416.995
415.925
414.901
413.927
439.047
436.908
434.874
432.944
431.107
429.362
427.7
426.12
424.615
423.182
421.815
420.514
419.271
418.087
416.956
415.878
414.847
413.864
439.047
436.907
434.873
432.94
431.103
429.355
427.692
426.11
424.603
423.167
421.799
420.495
419.251
418.064
416.931
415.85
414.817
413.83
439.047
436.906
434.871
432.938
431.099
429.35
427.686
426.102
424.593
423.156
421.786
420.48
419.234
418.045
416.911
415.828
414.793
413.805
439.047
436.905
434.871
432.936
431.097
429.347
427.682
426.096
424.587
423.148
421.777
420.469
419.222
418.032
416.896
415.812
414.776
413.787
439.047
436.905
434.87
432.935
431.096
429.345
427.68
426.093
424.583
423.143
421.771
420.463
419.215
418.024
416.888
415.803
414.766
413.776
439.046
436.905
434.87
432.936
431.096
429.346
427.679
426.093
424.582
423.143
421.77
420.462
419.213
418.022
416.886
415.8
414.764
413.774
439.047
436.905
434.871
432.936
431.097
429.347
427.681
426.095
424.585
423.145
421.773
420.464
419.216
418.025
416.889
415.803
414.767
413.777
439.047
436.906
434.872
432.937
431.099
429.349
427.684
426.098
424.589
423.15
421.779
420.471
419.225
418.035
416.902
415.819
414.787
413.8
439.048
436.905
434.874
432.938
431.103
429.351
427.691
426.106
424.604
423.169
421.811
420.513
419.286
418.113
417.007
415.948
414.951
413.995
439.052
436.902
434.878
432.935
431.113
429.365
427.74
426.186
424.752
423.386
422.137
420.951
419.876
418.853
417.938
417.058
416.291
415.531
439.059
436.888
434.88
432.966
431.253
429.681
428.372
427.168
426.258
425.443
424.897
424.417
424.17
423.96
423.943
423.978
424.12
424.193
439.029
436.877
435.152
433.822
433.248
433.389
433.963
434.989
436.798
438.608
441.044
443.306
446.097
448.562
451.523
454.013
457.04
459.424
438.782
438.589
439.608
443.715
450.191
458.172
468.122
477.692
488.593
498.518
509.453
519.058
529.579
538.527
548.45
556.58
565.871
573.108
443.385
453.026
480.5
513.315
550.813
586.33
623.791
657.155
692.017
722.025
753.741
780.209
808.794
831.874
857.58
877.55
900.731
917.899
483.644
615.253
778.113
921.648
1059.27
1180.65
1299.35
1401.17
1503.43
1588.65
1677.23
1748.3
1825.36
1884.49
1951.98
2001.22
2060.85
2102.07
1185.9
2185.33
2935.93
3527.77
4059.84
4514.3
4924.94
5269.74
5589.86
5855.47
6111.04
6317.31
6525.13
6685.39
6858.67
6982.88
7131.27
7228.05
20944.8
22217.5
23228.4
23955.1
24496.7
24840.4
25109.3
25300.6
25440.2
25523.2
25576.4
25589.1
25581.7
25563.1
25526.3
25480.2
25426.8
25369.5
11464
2499.75
2507.29
2515.96
2531.63
2562.34
2600
2641.83
2681.32
2716.55
2748.51
2771.58
2787.53
2784.95
2790.6
2780.8
2778.93
2772.76
2759.72
2743.65
2719.02
2683.43
2640.64
2597.83
2568.15
2558.38
2559.78
2564.01
2570.34
2581.08
2601.32
2621.39
2628.67
2630.02
2628.22
2625.73
2628.86
2635.48
2650.63
2705.57
2910.89
3185.69
3450.48
3695.59
3916.74
4120.2
4301.46
4465.33
4611.94
4744.07
4861.53
4964.41
5050.59
5116.9
5136.35
5220.78
5355.68
5445.3
5552.2
5646.35
5735.28
5806.44
5888.9
5962.82
6036.98
6105.46
6174.84
6223.66
6262.27
6249.17
6268.79
6333.16
6493.19
6585.62
6672.22
6777.5
6848.4
6941.03
7021.4
7099.86
7185.14
7261.39
7344.04
7414.23
7485.76
7552.68
7619.16
7678.82
7730.06
7760.55
7751.48
7759.71
7809.59
7866.73
7919.27
8005.62
8092.75
8092.74
8139.02
8193.37
8236.94
8335.37
8343.26
8385.01
8424.21
8454.57
8508.11
8507.87
8537.1
8532.86
8547.99
8559.17
8547.64
8534.21
8518.61
8492.41
8462.37
8427.08
8387.67
8343.63
8295.54
8243.47
8187.74
8128.64
8066.44
8001.44
7933.91
7864.12
7792.26
7718.43
7643.27
7566.49
7487.27
7407.89
7328.21
7248.71
7169.45
7090.38
7012.07
6934.92
6859.62
6787.38
6732.29
6695.57
6660.31
6625.49
6590.19
6554.68
6519.01
6483.54
6448.42
6413.65
6379.35
6345.45
6312.08
6279.07
6246
6213.24
6180.89
6148.95
6117.4
6086.24
6055.47
6025.11
5995.22
5965.69
5936.86
5908
5880.63
5851.8
5826.55
5796.32
5773.97
5740.07
5720.11
5680.45
5653.87
5605.76
5545.07
5419.62
11465.5
2133.23
1251.26
1204.22
1219.9
1191.9
1112.93
1026.1
945.358
878.329
826.626
788.137
760.168
744.692
737.228
753.059
805.518
909.52
1045.13
1199.44
1358.69
1494.75
1607.37
1609.29
1566.98
1473.97
1259.1
1010.29
832.9
747.692
713.796
717.303
749.143
795.825
1006.05
1460.13
1955.8
2278.02
2440.96
2538.65
2663.89
2706.98
2733.6
2732.21
2714.18
2658.13
2615.91
2562.03
2516.9
2470.95
2431.14
2394.41
2362.67
2335.01
2317.36
2318.9
2335.84
2359.4
2370.94
2382.6
2391.69
2391.52
2379.69
2383.17
2399.51
2439.81
2449.93
2468.97
2484.32
2499.22
2502.32
2529.72
2583.52
2603.04
2627.79
2650.48
2669.23
2689.06
2702.66
2714.46
2720.01
2715.24
2728.33
2755.44
2753.69
2763.07
2782.78
2782.01
2781.7
2773.01
2760.06
2761.6
2747.89
2746.72
2747.85
2755.95
2761.66
2765.69
2771.91
2788.64
2788.94
2795.98
2792.66
2797.43
2803.43
2799.87
2800.09
2802.08
2796.48
2790.85
2787.22
2780.06
2771.83
2763.25
2754.2
2743.44
2731.4
2718.78
2705.42
2691.35
2676.65
2661.34
2645.48
2629.1
2612.26
2594.98
2577.32
2559.29
2540.9
2522.15
2503.06
2483.44
2463.45
2443.43
2423.36
2403.32
2383.28
2363.23
2343.22
2323.25
2303.42
2284.13
2266.37
2251.48
2237.86
2224.77
2211.53
2198.14
2184.58
2170.94
2157.3
2143.65
2130.04
2116.46
2102.95
2089.49
2076.01
2062.54
2049.11
2035.71
2022.36
2009.06
1995.82
1982.64
1969.57
1956.54
1943.74
1930.86
1918.56
1905.76
1894.29
1881.56
1871.21
1859.19
1849.29
1843.21
1840.14
1829.58
1901.33
2054.44
11465.6
2518.29
1859.68
1694.52
1446.26
1225.29
1035.44
872.513
745.11
651.44
583.737
535.674
503.395
482.56
470.127
465.678
470.341
487.87
526.056
589.031
676.165
782.395
896.93
999.124
1036.32
1028.84
972.184
880.56
784.311
783.275
830.524
949.214
1199.58
1463.04
1677.46
1866.73
1987.63
2064.49
2060.8
2045.83
1974.78
1911.45
1861.87
1805.13
1752.79
1702.83
1662.96
1626.9
1598.66
1575.22
1557.54
1544.48
1538.88
1540.93
1544.14
1549.47
1558.02
1565.87
1573.28
1580.74
1587.78
1594.1
1600.45
1608.51
1618.17
1629.55
1638.66
1649.09
1659.12
1669.63
1679.76
1692.5
1706.55
1716.59
1727.42
1736.87
1745.39
1753.02
1758.91
1763.72
1766.66
1766.56
1770.86
1779.82
1779.25
1781.24
1784.2
1786.19
1784.2
1783.48
1779.78
1777.12
1772.88
1774.35
1772.76
1773.88
1775.62
1774.5
1774.89
1777.06
1776.3
1775.71
1773.91
1772.81
1770.79
1767.57
1764.27
1761.21
1756.3
1751.47
1747.03
1741.16
1735.16
1728.94
1722.37
1715.16
1707.3
1699.17
1690.67
1681.79
1672.57
1663.05
1653.24
1643.18
1632.87
1622.35
1611.63
1600.74
1589.68
1578.47
1567.1
1555.59
1543.97
1532.3
1520.6
1508.89
1497.14
1485.36
1473.53
1461.7
1449.92
1438.34
1427.2
1416.94
1407.29
1397.97
1388.75
1379.55
1370.17
1360.69
1351.16
1341.57
1331.95
1322.31
1312.66
1302.99
1293.31
1283.6
1273.87
1264.13
1254.39
1244.65
1234.91
1225.19
1215.51
1205.84
1196.28
1186.69
1177.36
1167.89
1158.95
1149.71
1141.35
1132.7
1125.31
1117.41
1116.82
1111.35
1135.44
1184.07
11464.8
3564.12
2419.24
1797.38
1340.84
996.657
766.912
628.54
543.499
486.857
446.757
417.373
395.855
380.631
370.917
366.877
368.519
374.774
389.586
418.572
464.316
530.467
615.272
713.816
794.488
829.949
837.983
875.504
956.306
1111.86
1274.75
1425.01
1531.47
1616.66
1687.62
1727.3
1715.61
1630.73
1594.27
1535.88
1479.95
1431.74
1388.33
1349.2
1316.08
1288.39
1266.78
1249.71
1237.28
1228.73
1224.42
1223.75
1224.5
1228.14
1232.82
1238.4
1244.84
1251.33
1257.93
1264.62
1271.29
1277.95
1284.86
1292.37
1300.35
1308.51
1316.43
1324.54
1332.5
1340.38
1348.34
1356.54
1364.53
1371.61
1378.4
1384.55
1390.1
1395.05
1399.31
1402.96
1405.92
1408.31
1411.41
1414.72
1415.58
1416.17
1416.82
1416.84
1415.99
1415.23
1413.99
1413.03
1411.98
1411.9
1411.23
1410.98
1410.62
1409.57
1409.01
1408.54
1407.37
1405.84
1404.03
1402.14
1399.77
1396.95
1393.94
1390.74
1386.93
1382.97
1378.91
1374.19
1369.26
1364.05
1358.5
1352.52
1346.14
1339.47
1332.48
1325.18
1317.6
1309.76
1301.67
1293.37
1284.86
1276.16
1267.31
1258.31
1249.19
1239.96
1230.64
1221.24
1211.77
1202.27
1192.73
1183.18
1173.61
1164.03
1154.46
1144.92
1135.45
1126.12
1117.03
1108.32
1099.95
1091.82
1083.8
1075.86
1067.9
1059.93
1051.95
1043.87
1035.77
1027.63
1019.46
1011.27
1003.06
994.823
986.562
978.282
969.989
961.691
953.396
945.111
936.851
928.614
920.439
912.288
904.269
896.258
888.497
880.727
873.384
866.063
859.578
852.783
850.15
848.374
854.931
874.951
11470.5
4449.84
2491.87
1503.63
973.302
713.319
577.668
497.147
444.043
406.447
378.482
357.714
342.223
331.218
324.404
322.182
323.887
328.824
339.709
359.55
390.942
435.369
499.215
584.115
685.694
798.325
897.412
1046.06
1214.03
1332.26
1404.53
1457.3
1494.08
1509.53
1485.9
1411.85
1368.1
1312.07
1270.97
1226.6
1188.75
1156.66
1129.27
1106.71
1089.02
1075.88
1067.07
1061.48
1059.08
1057.34
1058.19
1059.79
1063.95
1069.14
1074.95
1081.18
1087.74
1094.4
1101.11
1107.83
1114.52
1121.18
1127.87
1134.71
1141.64
1148.57
1155.41
1162.21
1168.87
1175.39
1181.83
1188.16
1194.23
1199.89
1205.19
1210.07
1214.51
1218.52
1222.09
1225.24
1227.96
1230.4
1232.81
1234.89
1236.16
1237.19
1237.88
1237.89
1237.65
1237.55
1237.26
1236.95
1236.64
1236.56
1236.3
1235.99
1235.54
1234.87
1234.25
1233.55
1232.59
1231.36
1229.92
1228.3
1226.38
1224.17
1221.73
1219.04
1216.01
1212.73
1209.17
1205.2
1200.9
1196.27
1191.28
1185.91
1180.16
1174.08
1167.67
1160.95
1153.95
1146.67
1139.15
1131.4
1123.45
1115.29
1106.98
1098.52
1089.96
1081.29
1072.55
1063.74
1054.88
1045.98
1037.07
1028.15
1019.24
1010.36
1001.51
992.725
984.022
975.438
967.026
958.841
950.873
943.078
935.408
927.829
920.301
912.814
905.356
897.9
890.454
882.958
875.436
867.886
860.312
852.714
845.092
837.452
829.802
822.151
814.508
806.883
799.286
791.723
784.215
776.755
769.389
762.083
754.936
747.871
741.067
734.401
728.253
722.266
717.668
714.259
717.759
726.274
11519.9
4555.93
2005.53
1108.34
764.72
602.288
510.368
451.104
409.75
379.132
355.303
336.496
322.008
311.655
305.394
304.006
306.671
314.025
328.017
350.628
385.124
435.502
505.654
603.923
734.564
896.307
1067.59
1198.04
1281.51
1331.75
1359.08
1364.02
1322.95
1271
1224.06
1174.49
1135.72
1097.11
1065.34
1036.83
1013.73
995.445
980.973
970.036
962.34
957.861
955.023
954.608
954.957
956.405
959.772
964.358
969.847
975.921
982.376
989.068
995.909
1002.8
1009.69
1016.54
1023.31
1030.01
1036.63
1043.2
1049.72
1056.15
1062.48
1068.69
1074.75
1080.66
1086.41
1091.99
1097.34
1102.4
1107.15
1111.58
1115.66
1119.41
1122.81
1125.88
1128.62
1131.1
1133.37
1135.32
1136.89
1138.18
1139.17
1139.93
1140.61
1141.28
1141.75
1141.91
1142.05
1142.43
1142.67
1142.63
1142.64
1142.53
1142.35
1142.08
1141.63
1140.95
1140.12
1139.09
1137.82
1136.3
1134.52
1132.45
1130.06
1127.35
1124.28
1120.81
1116.94
1112.67
1107.99
1102.89
1097.38
1091.48
1085.19
1078.55
1071.58
1064.31
1056.77
1048.98
1040.98
1032.79
1024.44
1015.95
1007.34
998.631
989.848
981.009
972.132
963.235
954.332
945.444
936.593
927.792
919.054
910.393
901.827
893.378
885.075
876.94
868.968
861.141
853.436
845.834
838.315
830.868
823.483
816.146
808.852
801.576
794.314
787.016
779.694
772.346
764.973
757.585
750.193
742.809
735.442
728.104
720.805
713.553
706.362
699.235
692.198
685.244
678.42
671.712
665.205
658.872
652.901
647.232
642.263
638.106
638.557
641.946
11609.4
3865.95
1502.51
879.399
644.484
530.377
464.993
422.392
391.729
366.566
345.513
328.4
315.237
306.452
302.66
303.914
309.503
320.359
338.348
366.523
409.595
474.353
571.502
716.3
889.969
1037.89
1137.79
1207.75
1244.78
1253.07
1215.27
1169.57
1124.79
1082.33
1044.4
1009.88
981.158
956.296
936.477
920.05
907.152
897.398
890.373
885.958
883.385
882.893
883.037
884.318
887.248
891.362
896.398
902.159
908.463
915.142
922.071
929.151
936.308
943.48
950.62
957.694
964.673
971.542
978.296
984.934
991.454
997.842
1004.09
1010.19
1016.13
1021.9
1027.49
1032.9
1038.09
1043.04
1047.73
1052.15
1056.29
1060.14
1063.71
1067
1070.02
1072.79
1075.33
1077.62
1079.65
1081.45
1083.05
1084.48
1085.79
1087.02
1088.08
1089.03
1089.98
1090.92
1091.74
1092.51
1093.2
1093.81
1094.36
1094.83
1095.12
1095.13
1095.06
1094.76
1094.19
1093.37
1092.26
1090.81
1088.99
1086.78
1084.13
1081.03
1077.45
1073.38
1068.83
1063.79
1058.27
1052.28
1045.86
1039.01
1031.78
1024.21
1016.34
1008.19
999.802
991.208
982.439
973.524
964.491
955.368
946.18
936.951
927.702
918.454
909.239
900.084
890.993
881.976
873.041
864.202
855.469
846.857
838.381
830.052
821.862
813.803
805.867
798.046
790.327
782.701
775.161
767.696
760.3
752.957
745.66
738.388
731.109
723.796
716.452
709.098
701.748
694.416
687.114
679.855
672.648
665.503
658.43
651.437
644.539
637.741
631.071
624.531
618.17
611.996
606.112
600.541
595.466
590.927
589.067
589.928
11687.4
3043.43
1256.1
792.602
605.716
514.113
457.821
419.501
390.835
367.779
348.931
333.697
322.443
316.185
314.622
318.423
328.924
347.284
376.275
420.782
490.503
602.291
742.434
880.48
991.168
1068.51
1123.08
1147.28
1131.38
1093.93
1053.49
1014.56
979.252
947.968
921.071
898.632
880.355
865.298
853.353
844.063
837.251
832.678
830.282
829.112
828.641
830.004
832.495
836.126
840.705
846.079
852.095
858.612
865.509
872.676
880.026
887.484
894.99
902.497
909.964
917.359
924.657
931.839
938.892
945.809
952.583
959.207
965.674
971.976
978.109
984.065
989.839
995.422
1000.8
1005.96
1010.9
1015.59
1020.05
1024.25
1028.22
1031.94
1035.43
1038.69
1041.75
1044.59
1047.24
1049.69
1051.98
1054.14
1056.18
1058.13
1059.97
1061.74
1063.46
1065.15
1066.78
1068.37
1069.9
1071.37
1072.75
1074.04
1075.16
1076.14
1076.95
1077.42
1077.54
1077.39
1076.87
1075.97
1074.63
1072.81
1070.49
1067.62
1064.2
1060.21
1055.66
1050.53
1044.86
1038.65
1031.94
1024.75
1017.09
1009.02
1000.6
991.875
982.891
973.688
964.304
954.775
945.136
935.418
925.652
915.864
906.076
896.307
886.578
876.938
867.389
857.938
848.592
839.36
830.249
821.268
812.426
803.728
795.179
786.769
778.488
770.334
762.297
754.37
746.546
738.817
731.176
723.608
716.11
708.668
701.267
693.854
686.401
678.942
671.499
664.085
656.718
649.407
642.165
635.001
627.923
620.94
614.064
607.304
600.675
594.189
587.877
581.756
575.891
570.324
565.155
560.5
556.721
556.315
11735.4
2452.53
1079.45
727.014
584.294
508.273
463.431
432.88
409.267
389.532
372.781
359.258
350.373
346.865
348.488
359.265
381.105
418.264
476.032
557.378
657.014
759.346
856.351
934.256
996.853
1035.84
1045.52
1024.74
995.862
961.974
929.961
901.266
876.522
855.434
837.943
823.695
812.214
803.144
796.298
791.462
788.528
787.135
786.736
787.06
788.956
792.009
796.029
800.902
806.5
812.704
819.403
826.495
833.888
841.502
849.268
857.128
865.03
872.934
880.804
888.609
896.325
903.933
911.417
918.765
925.969
933.018
939.906
946.626
953.174
959.543
965.73
971.728
977.531
983.13
988.517
993.69
998.646
1003.38
1007.91
1012.22
1016.33
1020.23
1023.95
1027.48
1030.85
1034.06
1037.14
1040.1
1042.96
1045.74
1048.44
1051.08
1053.67
1056.22
1058.73
1061.21
1063.63
1065.98
1068.23
1070.36
1072.32
1074.1
1075.64
1076.87
1077.78
1078.26
1078.28
1077.87
1076.94
1075.44
1073.34
1070.6
1067.2
1063.14
1058.4
1053.01
1046.98
1040.33
1033.11
1025.36
1017.09
1008.42
999.381
990.021
980.389
970.533
960.498
950.326
940.056
929.725
919.362
908.997
898.652
888.34
878.044
867.832
857.736
847.761
837.912
828.194
818.613
809.174
799.879
790.732
781.733
772.872
764.14
755.549
747.092
738.759
730.543
722.439
714.44
706.545
698.744
691.022
683.368
675.744
668.081
660.424
652.796
645.214
637.694
630.25
622.89
615.623
608.46
601.409
594.478
587.677
581.018
574.512
568.181
562.047
556.15
550.535
545.259
540.471
535.993
534.148
11765.5
2286.58
1055.46
722.958
588.494
522.182
484.386
459.845
441.798
427.473
416.016
409.091
406.672
410.148
424.98
452.851
495.276
550.078
615.222
687.519
760.325
825.877
879.864
927.898
951.657
953.256
937.904
914.51
889.053
863.958
841.454
821.78
805.067
791.293
780.016
770.976
763.942
758.735
755.221
753.339
752.662
752.628
753.538
755.78
759.067
763.277
768.29
774.003
780.318
787.142
794.388
801.975
809.832
817.893
826.1
834.404
842.759
851.127
859.476
867.776
876.002
884.136
892.16
900.059
907.821
915.435
922.892
930.183
937.304
944.25
951.016
957.6
963.995
970.193
976.189
981.984
987.578
992.974
998.177
1003.19
1008.03
1012.68
1017.15
1021.47
1025.65
1029.69
1033.62
1037.46
1041.21
1044.89
1048.5
1052.06
1055.58
1059.07
1062.53
1065.95
1069.31
1072.59
1075.77
1078.81
1081.67
1084.32
1086.69
1088.72
1090.38
1091.55
1092.18
1092.22
1091.66
1090.42
1088.46
1085.74
1082.26
1077.98
1072.92
1067.1
1060.54
1053.29
1045.39
1036.89
1027.86
1018.38
1008.49
998.276
987.785
977.078
966.207
955.219
944.158
933.062
921.966
910.897
899.879
888.923
878.003
867.251
856.638
846.165
835.837
825.655
815.623
805.741
796.012
786.433
777.004
767.713
758.516
749.457
740.543
731.765
723.115
714.588
706.178
697.883
689.694
681.592
673.582
665.625
657.657
649.72
641.836
634.026
626.299
618.665
611.134
603.713
596.413
589.241
582.205
575.312
568.574
561.998
555.605
549.411
543.448
537.753
532.359
527.41
522.621
519.678
11781.7
2226.77
1037.5
724.389
600.873
542.232
511.441
493.859
482.877
476.199
473.532
473.387
480.008
496.067
521.805
556.854
598.996
646.256
695.898
744.357
787.908
829.037
862.469
876.34
874.68
865.103
848.886
830.395
811.852
794.431
778.946
765.671
754.62
745.541
738.251
732.615
728.513
725.856
724.529
724.108
724.382
725.815
728.257
731.646
735.902
740.939
746.674
753.025
759.912
767.262
775.003
783.069
791.4
799.939
808.637
817.446
826.323
835.233
844.142
853.022
861.85
870.603
879.263
887.817
896.248
904.539
912.677
920.655
928.466
936.107
943.572
950.861
957.977
964.89
971.601
978.118
984.445
990.585
996.546
1002.33
1007.96
1013.39
1018.66
1023.79
1028.8
1033.71
1038.52
1043.26
1047.93
1052.57
1057.16
1061.72
1066.25
1070.75
1075.21
1079.63
1083.98
1088.25
1092.4
1096.4
1100.2
1103.74
1106.97
1109.8
1112.18
1114.03
1115.22
1115.73
1115.47
1114.41
1112.49
1109.68
1105.96
1101.33
1095.79
1089.37
1082.1
1074.05
1065.28
1055.87
1045.88
1035.4
1024.52
1013.3
1001.82
990.151
978.343
966.452
954.525
942.602
930.717
918.899
907.171
895.548
884.04
872.682
861.484
850.45
839.582
828.879
818.341
807.967
797.755
787.703
777.805
768.051
758.393
748.916
739.588
730.401
721.348
712.423
703.622
694.939
686.369
677.868
669.452
661.1
652.78
644.521
636.341
628.255
620.273
612.406
604.657
597.038
589.559
582.226
575.046
568.024
561.17
554.493
548.006
541.725
535.671
529.876
524.36
519.239
514.268
510.538
11786.7
2199.53
1032.84
731.446
615.934
563.888
538.951
527.133
521.953
520.413
521.97
529.825
543.643
563.799
590.161
620.559
653.456
687.1
719.548
751.95
783.241
804.678
811.503
811.78
805.755
795.919
783.387
770.044
757.002
744.99
734.53
725.585
718.133
712.111
707.451
704.09
701.994
701.009
700.774
701.266
702.847
705.363
708.762
712.989
717.985
723.684
730.02
736.929
744.346
752.21
760.459
769.038
777.893
786.976
796.239
805.641
815.132
824.675
834.237
843.792
853.313
862.779
872.172
881.477
890.686
899.752
908.664
917.416
926.005
934.425
942.67
950.737
958.621
966.278
973.736
981.004
988.089
994.995
1001.73
1008.3
1014.71
1020.99
1027.13
1033.15
1039.06
1044.89
1050.63
1056.32
1061.95
1067.55
1073.11
1078.65
1084.16
1089.66
1095.12
1100.53
1105.89
1111.15
1116.28
1121.23
1125.96
1130.39
1134.45
1138.06
1141.14
1143.58
1145.28
1146.17
1146.15
1145.13
1143.11
1140.05
1135.94
1130.77
1124.55
1117.33
1109.15
1100.11
1090.27
1079.74
1068.61
1056.98
1044.95
1032.6
1020.02
1007.29
994.46
981.601
968.757
955.969
943.269
930.684
918.236
905.939
893.804
881.846
870.075
858.493
847.099
835.889
824.86
814.009
803.329
792.817
782.466
772.266
762.205
752.295
742.532
732.911
723.428
714.077
704.853
695.752
686.768
677.844
669.041
660.308
651.652
643.085
634.62
626.267
618.037
609.94
601.956
594.12
586.444
578.932
571.587
564.416
557.426
550.624
544.02
537.628
531.465
525.553
519.906
514.61
509.493
505.191
11780.9
2183.11
1031.86
738.623
628.947
581.444
560.51
552.063
549.55
550.215
556.503
567.057
581.725
600.265
622.125
645.417
668.969
693.281
717.761
740.798
754.425
759.499
761.058
758.725
753.235
745.495
736.445
727.076
718.133
709.945
702.727
696.568
691.509
687.556
684.7
682.941
682.168
682.078
682.751
684.388
686.908
690.275
694.453
699.401
705.064
711.387
718.317
725.801
733.786
742.22
751.05
760.226
769.701
779.429
789.372
799.502
809.731
820.02
830.345
840.68
851
861.281
871.5
881.638
891.674
901.544
911.263
920.827
930.225
939.454
948.504
957.37
966.049
974.531
982.819
990.92
998.832
1006.56
1014.12
1021.51
1028.75
1035.85
1042.81
1049.67
1056.42
1063.1
1069.71
1076.27
1082.79
1089.29
1095.77
1102.24
1108.69
1115.13
1121.54
1127.91
1134.2
1140.4
1146.45
1152.3
1157.89
1163.13
1167.95
1172.25
1175.91
1178.85
1180.93
1182.06
1182.11
1180.95
1178.62
1175.1
1170.37
1164.42
1157.28
1149.02
1139.7
1129.43
1118.31
1106.46
1094
1081.06
1067.73
1054.13
1040.35
1026.47
1012.57
998.704
984.918
971.253
957.739
944.4
931.251
918.304
905.565
893.041
880.735
868.644
856.765
845.09
833.611
822.32
811.212
800.277
789.508
778.896
768.432
758.116
747.945
737.913
728.02
718.257
708.623
699.111
689.715
680.406
671.196
662.089
653.091
644.207
635.448
626.822
618.336
610.002
601.793
593.761
585.902
578.22
570.719
563.403
556.279
549.352
542.632
536.127
529.852
523.824
518.051
512.588
507.333
502.603
11766.2
2171.99
1031.8
742.769
635.634
590.315
571.488
564.962
563.735
566.35
573.743
584.306
597.557
613.057
630.152
648.48
667.733
686.59
702.484
713.01
718.685
721.149
721.382
718.952
714.849
709.42
703.312
696.984
690.856
685.211
680.244
676.077
672.781
670.388
668.923
668.303
668.366
669.28
671.015
673.572
676.942
681.109
686.059
691.793
698.199
705.22
712.826
720.98
729.642
738.767
748.31
758.223
768.462
778.98
789.734
800.673
811.701
822.819
833.998
845.21
856.422
867.607
878.738
889.791
900.745
911.57
922.242
932.745
943.069
953.207
963.147
972.881
982.404
991.712
1000.8
1009.67
1018.34
1026.81
1035.09
1043.2
1051.15
1058.96
1066.64
1074.21
1081.69
1089.09
1096.44
1103.76
1111.05
1118.32
1125.59
1132.86
1140.12
1147.38
1154.6
1161.78
1168.89
1175.88
1182.7
1189.29
1195.58
1201.48
1206.87
1211.67
1215.73
1218.95
1221.2
1222.31
1222.16
1220.57
1217.65
1213.38
1207.72
1200.69
1192.34
1182.74
1172
1160.23
1147.58
1134.2
1120.22
1105.8
1091.05
1076.09
1061.03
1045.95
1030.94
1016.05
1001.33
986.809
972.515
958.465
944.668
931.128
917.845
904.818
892.042
879.511
867.215
855.141
843.277
831.612
820.135
808.837
797.705
786.732
775.91
765.233
754.693
744.289
734.021
723.875
713.856
703.953
694.156
684.474
674.913
665.477
656.172
647.002
637.975
629.098
620.378
611.823
603.427
595.208
587.172
579.323
571.668
564.209
556.951
549.9
543.062
536.445
530.059
523.917
518.024
512.415
507.039
502
11743.6
2163.93
1030.61
743.46
637.111
592.102
573.467
567.119
566.082
569.206
576.62
586.669
598.809
612.758
627.626
642.649
656.299
667.784
677.211
684.539
689.187
691.383
691.819
690.434
688.071
684.795
680.975
676.954
673.03
669.438
666.363
663.954
662.363
661.488
661.239
661.661
662.842
664.784
667.496
670.982
675.239
680.262
686.039
692.554
699.651
707.379
715.719
724.64
734.105
744.072
754.496
765.33
776.526
788.035
799.812
811.813
823.978
836.259
848.613
860.998
873.376
885.712
897.975
910.139
922.173
934.048
945.735
957.215
968.468
979.479
990.243
1000.76
1011.01
1021.02
1030.76
1040.26
1049.51
1058.55
1067.37
1076
1084.45
1092.76
1100.92
1108.98
1116.95
1124.85
1132.7
1140.53
1148.34
1156.15
1163.97
1171.8
1179.63
1187.45
1195.24
1202.98
1210.64
1218.16
1225.48
1232.54
1239.24
1245.48
1251.15
1256.12
1260.24
1263.39
1265.46
1266.14
1265.36
1262.92
1259.02
1253.58
1246.59
1238.08
1228.12
1216.82
1204.31
1190.75
1176.31
1161.15
1145.46
1129.41
1113.12
1096.72
1080.33
1064.04
1047.93
1032.05
1016.44
1001.12
986.123
971.445
957.089
943.049
929.317
915.883
902.734
889.86
877.242
864.862
852.702
840.747
828.985
817.403
805.984
794.719
783.603
772.627
761.772
751.047
740.454
729.965
719.597
709.357
699.245
689.265
679.42
669.714
660.153
650.743
641.49
632.402
623.483
614.741
606.175
597.795
589.608
581.618
573.829
566.246
558.871
551.71
544.768
538.05
531.564
525.319
519.319
513.584
508.097
502.823
11721.3
2157.64
1026.78
739.74
633.028
587.644
568.771
562.393
561.492
564.96
572.374
582.02
593.002
604.59
616.255
627.55
638.228
647.897
656.109
662.7
667.566
670.837
672.63
673.221
672.923
672.044
670.633
668.952
667.241
665.692
664.468
663.688
663.384
663.47
664.128
665.472
667.571
670.444
674.103
678.553
683.796
689.829
696.643
704.229
712.549
721.551
731.202
741.466
752.303
763.67
775.518
787.799
800.459
813.444
826.696
840.163
853.791
867.533
881.328
895.123
908.87
922.526
936.05
949.398
962.542
975.453
988.105
1000.47
1012.53
1024.28
1035.7
1046.79
1057.55
1067.99
1078.1
1087.91
1097.41
1106.65
1115.64
1124.4
1132.97
1141.36
1149.61
1157.73
1165.77
1173.74
1181.67
1189.58
1197.5
1205.42
1213.37
1221.34
1229.31
1237.29
1245.23
1253.11
1260.88
1268.49
1275.87
1282.93
1289.58
1295.68
1301.12
1305.74
1309.39
1311.92
1313.16
1312.87
1310.79
1307.02
1301.56
1294.39
1285.51
1274.99
1262.93
1249.47
1234.81
1219.11
1202.58
1185.42
1167.85
1150.04
1132.15
1114.28
1096.57
1079.11
1061.96
1045.17
1028.76
1012.77
997.182
982.002
967.218
952.812
938.761
925.048
911.654
898.559
885.741
873.172
860.826
848.687
836.742
824.975
813.357
801.885
790.557
779.357
768.249
757.263
746.408
735.679
725.078
714.61
704.279
694.089
684.04
674.138
664.39
654.804
645.386
636.142
627.075
618.193
609.498
600.997
592.696
584.599
576.709
569.03
561.565
554.318
547.292
540.493
533.925
527.594
521.504
515.664
510.079
504.633
11731
2156.4
1021.58
732.518
624.313
577.786
558.189
551.557
550.733
554.557
562.104
571.793
582.792
594.43
606.195
617.698
628.605
638.626
647.521
655.163
661.495
666.555
670.391
673.08
674.688
675.377
675.541
675.419
675.309
675.336
675.663
676.408
677.716
679.58
682.052
685.209
689.103
693.767
699.219
705.471
712.529
720.388
729.04
738.47
748.651
759.548
771.116
783.314
796.096
809.415
823.217
837.45
852.058
866.964
882.101
897.402
912.802
928.231
943.636
958.963
974.16
989.173
1003.95
1018.45
1032.63
1046.45
1059.88
1072.9
1085.47
1097.58
1109.23
1120.44
1131.21
1141.53
1151.42
1160.89
1169.99
1178.76
1187.21
1195.4
1203.36
1211.11
1218.7
1226.16
1233.52
1240.84
1248.12
1255.41
1262.71
1270.05
1277.43
1284.85
1292.3
1299.75
1307.17
1314.5
1321.71
1328.73
1335.46
1341.83
1347.69
1352.93
1357.39
1360.9
1363.27
1364.35
1363.96
1361.68
1357.58
1351.65
1343.84
1334.17
1322.69
1309.5
1294.75
1278.62
1261.4
1243.21
1224.31
1204.94
1185.33
1165.61
1146.01
1126.65
1107.66
1089.1
1071.04
1053.49
1036.47
1019.98
1004
988.524
973.514
958.939
944.762
930.957
917.498
904.36
891.511
878.908
866.523
854.342
842.349
830.528
818.833
807.268
795.836
784.498
773.271
762.17
751.201
740.36
729.648
719.069
708.627
698.33
688.171
678.162
668.314
658.633
649.124
639.795
630.648
621.687
612.92
604.351
595.987
587.829
579.881
572.146
564.627
557.326
550.247
543.394
536.768
530.376
524.219
518.298
512.634
507.067
11754.4
2161.69
1017.66
724.908
615.055
568.058
548.921
543.266
544.04
550.609
560.531
572.39
584.942
597.984
611.098
623.925
636.156
647.55
657.924
667.183
675.294
682.294
688.255
693.312
697.686
701.422
704.699
707.736
710.723
713.811
717.135
720.825
725.001
729.744
735.105
741.127
747.85
755.308
763.526
772.524
782.307
792.872
804.208
816.296
829.111
842.618
856.773
871.526
886.842
902.668
918.917
935.503
952.348
969.394
986.575
1003.82
1021.05
1038.21
1055.21
1072
1088.5
1104.65
1120.4
1135.68
1150.43
1164.63
1178.23
1191.2
1203.49
1215.1
1226.05
1236.37
1246.1
1255.22
1263.72
1271.64
1279.08
1286.13
1292.8
1299.15
1305.23
1311.07
1316.73
1322.27
1327.73
1333.17
1338.6
1344.08
1349.62
1355.23
1360.93
1366.73
1372.6
1378.48