/*--------------------------------*- C++ -*----------------------------------*\
  =========                 |
  \\      /  F ield         | OpenFOAM: The Open Source CFD Toolbox
   \\    /   O peration     | Website:  https://openfoam.org
    \\  /    A nd           | Version:  8
     \\/     M anipulation  |
\*---------------------------------------------------------------------------*/
FoamFile
{
    version     2.0;
    format      ascii;
    class       surfaceScalarField;
    location    "100";
    object      phi;
}
// * * * * * * * * * * * * * * * * * * * * * * * * * * * * * * * * * * * * * //

dimensions      [0 3 -1 0 0 0 0];

internalField   nonuniform List<scalar> 
24170
(
3.03937e-06
9.44913e-08
2.93998e-06
9.9408e-08
2.84311e-06
9.6938e-08
2.75821e-06
8.48972e-08
2.68738e-06
7.0742e-08
2.6233e-06
6.40438e-08
2.56265e-06
6.06283e-08
2.51002e-06
5.25758e-08
2.46501e-06
4.49499e-08
2.42577e-06
3.91855e-08
2.39011e-06
3.56191e-08
2.35984e-06
3.02475e-08
2.33349e-06
2.63274e-08
2.31423e-06
1.9214e-08
2.29745e-06
1.67143e-08
2.28269e-06
1.46706e-08
2.266e-06
1.66758e-08
2.02306e-08
2.24579e-06
3.51823e-06
3.27741e-08
3.53869e-06
7.91069e-08
3.53241e-06
1.03214e-07
3.51416e-06
1.03023e-07
3.48928e-06
9.55149e-08
3.45722e-06
9.60736e-08
3.42706e-06
9.08049e-08
3.40216e-06
7.7431e-08
3.37544e-06
7.1601e-08
3.34747e-06
6.70944e-08
3.3192e-06
6.38509e-08
3.29136e-06
5.80543e-08
3.26556e-06
5.20888e-08
3.24172e-06
4.30015e-08
3.2166e-06
4.17546e-08
3.18865e-06
4.25363e-08
3.16305e-06
4.22261e-08
3.85392e-08
3.14475e-06
3.82732e-06
1.75532e-08
3.83463e-06
7.1757e-08
3.84631e-06
9.16906e-08
3.85489e-06
9.45412e-08
3.85789e-06
9.25212e-08
3.85977e-06
9.42049e-08
3.86012e-06
9.04514e-08
3.85621e-06
8.13383e-08
3.85092e-06
7.68786e-08
3.84451e-06
7.3503e-08
3.83744e-06
7.09224e-08
3.82922e-06
6.62686e-08
3.82054e-06
6.07604e-08
3.80988e-06
5.36333e-08
3.80078e-06
5.08177e-08
3.79321e-06
5.00735e-08
3.78709e-06
4.83766e-08
4.32755e-08
3.78236e-06
4.20611e-06
1.60059e-08
4.21681e-06
6.1177e-08
4.22709e-06
8.14335e-08
4.23548e-06
8.60821e-08
4.24108e-06
8.68451e-08
4.24679e-06
8.84688e-08
4.25167e-06
8.55743e-08
4.25371e-06
7.92932e-08
4.25523e-06
7.5346e-08
4.25649e-06
7.22294e-08
4.2577e-06
6.97077e-08
4.25828e-06
6.56752e-08
4.25821e-06
6.08173e-08
4.25643e-06
5.53829e-08
4.25507e-06
5.21353e-08
4.25498e-06
5.01348e-08
4.2559e-06
4.74516e-08
4.24758e-08
4.25673e-06
4.63802e-06
1.52195e-08
4.64829e-06
5.08215e-08
4.65681e-06
7.30282e-08
4.66382e-06
7.91848e-08
4.66948e-06
8.12082e-08
4.67543e-06
8.25333e-08
4.68079e-06
8.02114e-08
4.68441e-06
7.56833e-08
4.68759e-06
7.21712e-08
4.69066e-06
6.91734e-08
4.69389e-06
6.64908e-08
4.69682e-06
6.27556e-08
4.69922e-06
5.84042e-08
4.70068e-06
5.39108e-08
4.70228e-06
5.05206e-08
4.7046e-06
4.78096e-08
4.70745e-06
4.46384e-08
3.99133e-08
4.70999e-06
5.11581e-06
1.40045e-08
5.12436e-06
4.23688e-08
5.1324e-06
6.50089e-08
5.13916e-06
7.23635e-08
5.1451e-06
7.52078e-08
5.15112e-06
7.64831e-08
5.15656e-06
7.47706e-08
5.16083e-06
7.14147e-08
5.16468e-06
6.83251e-08
5.16841e-06
6.54537e-08
5.17226e-06
6.26444e-08
5.17589e-06
5.91176e-08
5.17912e-06
5.51619e-08
5.18182e-06
5.1185e-08
5.18457e-06
4.77511e-08
5.18771e-06
4.46617e-08
5.19109e-06
4.12466e-08
3.68737e-08
5.19414e-06
5.64238e-06
1.25712e-08
5.64944e-06
3.52182e-08
5.65741e-06
5.71429e-08
5.66434e-06
6.55344e-08
5.6706e-06
6.89855e-08
5.67673e-06
7.03599e-08
5.68228e-06
6.92223e-08
5.687e-06
6.67053e-08
5.69133e-06
6.40158e-08
5.6955e-06
6.1291e-08
5.69971e-06
5.8448e-08
5.70372e-06
5.51127e-08
5.7074e-06
5.14765e-08
5.71075e-06
4.78227e-08
5.71408e-06
4.44133e-08
5.71758e-06
4.1163e-08
5.72114e-06
3.77088e-08
3.36483e-08
5.72435e-06
4.40726e-06
1.14081e-08
4.41173e-06
3.08275e-08
4.41732e-06
5.15834e-08
4.42238e-06
6.04452e-08
4.427e-06
6.43337e-08
4.43144e-06
6.59029e-08
4.43551e-06
6.51453e-08
4.43916e-06
6.30673e-08
4.44256e-06
6.06224e-08
4.44585e-06
5.80203e-08
4.44908e-06
5.52228e-08
4.45216e-06
5.20349e-08
4.45503e-06
4.86022e-08
4.4577e-06
4.51342e-08
4.4603e-06
4.18015e-08
4.46292e-06
3.85454e-08
4.46549e-06
3.51395e-08
3.12969e-08
4.46783e-06
5.14104e-06
1.01931e-08
5.14535e-06
2.64228e-08
5.15111e-06
4.58885e-08
5.15661e-06
5.50201e-08
5.16178e-06
5.92004e-08
5.16675e-06
6.09404e-08
5.17135e-06
6.05437e-08
5.17555e-06
5.88746e-08
5.17948e-06
5.66989e-08
5.18326e-06
5.4248e-08
5.18695e-06
5.15485e-08
5.19046e-06
4.85234e-08
5.19376e-06
4.52927e-08
5.19687e-06
4.20095e-08
5.19988e-06
3.87774e-08
5.20285e-06
3.55872e-08
5.2057e-06
3.22848e-08
2.8689e-08
5.20831e-06
5.99703e-06
8.93093e-09
6.00107e-06
2.24013e-08
6.0069e-06
4.01094e-08
6.01279e-06
4.91487e-08
6.01849e-06
5.34943e-08
6.02402e-06
5.53994e-08
6.0292e-06
5.53557e-08
6.034e-06
5.40799e-08
6.03852e-06
5.21784e-08
6.04286e-06
4.99214e-08
6.04705e-06
4.73631e-08
6.05104e-06
4.45305e-08
6.05482e-06
4.15061e-08
6.0584e-06
3.84214e-08
6.06184e-06
3.5339e-08
6.06516e-06
3.22643e-08
6.06833e-06
2.91307e-08
2.57892e-08
6.07122e-06
6.99556e-06
7.62298e-09
6.99929e-06
1.86169e-08
7.0051e-06
3.43162e-08
7.01133e-06
4.29595e-08
7.01753e-06
4.73109e-08
7.02361e-06
4.93173e-08
7.02939e-06
4.95697e-08
7.03482e-06
4.86385e-08
7.03998e-06
4.70282e-08
7.04491e-06
4.49811e-08
7.04966e-06
4.26251e-08
7.05417e-06
3.9997e-08
7.05847e-06
3.72184e-08
7.06254e-06
3.43454e-08
7.06642e-06
3.14594e-08
7.07013e-06
2.85708e-08
7.07361e-06
2.56497e-08
2.26098e-08
7.0768e-06
8.16034e-06
6.27624e-09
8.1638e-06
1.5152e-08
8.16953e-06
2.86242e-08
8.17601e-06
3.65062e-08
8.18264e-06
4.06883e-08
8.18925e-06
4.27101e-08
8.19563e-06
4.31797e-08
8.20172e-06
4.25508e-08
8.20753e-06
4.12085e-08
8.21311e-06
3.94145e-08
8.21844e-06
3.72773e-08
8.22354e-06
3.49161e-08
8.22837e-06
3.23784e-08
8.23295e-06
2.9773e-08
8.23729e-06
2.71234e-08
8.24139e-06
2.44823e-08
8.24522e-06
2.18308e-08
1.91142e-08
8.24871e-06
9.51905e-06
4.94885e-09
9.52232e-06
1.18763e-08
9.52793e-06
2.3025e-08
9.53459e-06
2.98769e-08
9.5416e-06
3.36861e-08
9.54869e-06
3.56254e-08
9.55567e-06
3.62056e-08
9.56241e-06
3.58031e-08
9.56891e-06
3.47247e-08
9.57514e-06
3.31769e-08
9.58112e-06
3.13181e-08
9.58681e-06
2.92199e-08
9.59222e-06
2.69885e-08
9.59732e-06
2.4663e-08
9.60214e-06
2.23164e-08
9.60665e-06
1.99664e-08
9.61085e-06
1.76444e-08
1.52804e-08
9.61468e-06
1.1104e-05
3.64523e-09
1.11072e-05
8.68345e-09
1.11127e-05
1.75334e-08
1.11195e-05
2.31102e-08
1.11268e-05
2.63711e-08
1.11344e-05
2.80738e-08
1.11419e-05
2.86617e-08
1.11493e-05
2.84095e-08
1.11565e-05
2.755e-08
1.11634e-05
2.62678e-08
1.11701e-05
2.46861e-08
1.11764e-05
2.29053e-08
1.11824e-05
2.09896e-08
1.1188e-05
1.90055e-08
1.11934e-05
1.69937e-08
1.11983e-05
1.50021e-08
1.12029e-05
1.30351e-08
1.10696e-08
1.12072e-05
1.29529e-05
2.36804e-09
1.29561e-05
5.51284e-09
1.29616e-05
1.20461e-08
1.29685e-05
1.62306e-08
1.29761e-05
1.8722e-08
1.29841e-05
2.00705e-08
1.29923e-05
2.05395e-08
1.30003e-05
2.03552e-08
1.30082e-05
1.96756e-08
1.30158e-05
1.8645e-08
1.30232e-05
1.73636e-08
1.30302e-05
1.59161e-08
1.30368e-05
1.43601e-08
1.30431e-05
1.27505e-08
1.30489e-05
1.11255e-08
1.30544e-05
9.52381e-09
1.30595e-05
7.95703e-09
6.40106e-09
1.30641e-05
1.51097e-05
1.09446e-09
1.5113e-05
2.19471e-09
1.51186e-05
6.48672e-09
1.51257e-05
9.10903e-09
1.51338e-05
1.07053e-08
1.51423e-05
1.15345e-08
1.51511e-05
1.17915e-08
1.51598e-05
1.15922e-08
1.51684e-05
1.1056e-08
1.51768e-05
1.02623e-08
1.51849e-05
9.29415e-09
1.51926e-05
8.20245e-09
1.51999e-05
7.04037e-09
1.52068e-05
5.84149e-09
1.52133e-05
4.64194e-09
1.52194e-05
3.46619e-09
1.5225e-05
2.32929e-09
1.20666e-09
1.52302e-05
1.76258e-05
-2.44198e-10
1.76294e-05
-1.36202e-09
1.76353e-05
5.78583e-10
1.76428e-05
1.58222e-09
1.76514e-05
2.09808e-09
1.76607e-05
2.3166e-09
1.76702e-05
2.2606e-09
1.76798e-05
2.00368e-09
1.76893e-05
1.57074e-09
1.76985e-05
1.02068e-09
1.77075e-05
3.71483e-10
1.7716e-05
-3.29233e-10
1.77241e-05
-1.07135e-09
1.77318e-05
-1.81668e-09
1.7739e-05
-2.56003e-09
1.77457e-05
-3.27087e-09
1.7752e-05
-3.95412e-09
-4.61884e-09
1.77578e-05
1.78275e-05
-1.53981e-09
1.78311e-05
-4.96221e-09
1.78369e-05
-5.15392e-09
1.78443e-05
-5.74046e-09
1.78527e-05
-6.23057e-09
1.78616e-05
-6.63756e-09
1.78709e-05
-6.98945e-09
1.78802e-05
-7.32702e-09
1.78895e-05
-7.64971e-09
1.78985e-05
-7.97935e-09
1.79072e-05
-8.30334e-09
1.79154e-05
-8.63851e-09
1.79234e-05
-8.96025e-09
1.79308e-05
-9.28159e-09
1.79378e-05
-9.57515e-09
1.79444e-05
-9.85514e-09
1.79506e-05
-1.00987e-08
-1.03457e-08
1.79563e-05
1.58826e-05
-2.77164e-09
1.58861e-05
-8.39063e-09
1.58914e-05
-1.04642e-08
1.58981e-05
-1.23797e-08
1.59057e-05
-1.37472e-08
1.59137e-05
-1.4638e-08
1.5922e-05
-1.52248e-08
1.59302e-05
-1.559e-08
1.59384e-05
-1.57948e-08
1.59463e-05
-1.58919e-08
1.59539e-05
-1.59222e-08
1.59612e-05
-1.59073e-08
1.59681e-05
-1.58654e-08
1.59746e-05
-1.57965e-08
1.59808e-05
-1.57118e-08
1.59865e-05
-1.56029e-08
1.59919e-05
-1.54845e-08
-1.53615e-08
1.59969e-05
1.41499e-05
-3.98606e-09
1.41534e-05
-1.18776e-08
1.41586e-05
-1.56521e-08
1.4165e-05
-1.87573e-08
1.41721e-05
-2.07994e-08
1.41795e-05
-2.20514e-08
1.41871e-05
-2.27808e-08
1.41947e-05
-2.31115e-08
1.4202e-05
-2.31545e-08
1.42091e-05
-2.30018e-08
1.4216e-05
-2.27311e-08
1.42224e-05
-2.23845e-08
1.42286e-05
-2.19926e-08
1.42343e-05
-2.15724e-08
1.42398e-05
-2.11364e-08
1.42448e-05
-2.06914e-08
1.42496e-05
-2.02424e-08
-1.98095e-08
1.4254e-05
1.26063e-05
-5.22745e-09
1.26099e-05
-1.55609e-08
1.26152e-05
-2.09202e-08
1.26215e-05
-2.50279e-08
1.26283e-05
-2.75832e-08
1.26353e-05
-2.90802e-08
1.26424e-05
-2.98621e-08
1.26494e-05
-3.00798e-08
1.26562e-05
-2.98986e-08
1.26626e-05
-2.94694e-08
1.26688e-05
-2.88867e-08
1.26746e-05
-2.82114e-08
1.26801e-05
-2.74829e-08
1.26853e-05
-2.67312e-08
1.26901e-05
-2.59721e-08
1.26946e-05
-2.52191e-08
1.26989e-05
-2.44758e-08
-2.37641e-08
1.27028e-05
1.1231e-05
-6.43985e-09
1.12349e-05
-1.95001e-08
1.12404e-05
-2.6433e-08
1.12467e-05
-3.1301e-08
1.12532e-05
-3.41601e-08
1.126e-05
-3.58083e-08
1.12667e-05
-3.65709e-08
1.12732e-05
-3.66026e-08
1.12795e-05
-3.61441e-08
1.12854e-05
-3.54002e-08
1.1291e-05
-3.44889e-08
1.12963e-05
-3.34817e-08
1.13013e-05
-3.24273e-08
1.13059e-05
-3.13601e-08
1.13102e-05
-3.03029e-08
1.13143e-05
-2.92642e-08
1.13181e-05
-2.82572e-08
-2.72886e-08
1.13216e-05
1.00057e-05
-7.54531e-09
1.00099e-05
-2.37349e-08
1.00157e-05
-3.22618e-08
1.0022e-05
-3.75832e-08
1.00284e-05
-4.0564e-08
1.00348e-05
-4.22993e-08
1.00412e-05
-4.2957e-08
1.00474e-05
-4.27225e-08
1.00532e-05
-4.19463e-08
1.00587e-05
-4.0871e-08
1.00638e-05
-3.96241e-08
1.00686e-05
-3.82845e-08
1.00731e-05
-3.69113e-08
1.00773e-05
-3.55451e-08
1.00812e-05
-3.42069e-08
1.00848e-05
-3.29111e-08
1.00883e-05
-3.16604e-08
-3.04696e-08
1.00914e-05
8.91402e-06
-8.46876e-09
8.91858e-06
-2.83329e-08
8.92458e-06
-3.83167e-08
8.93072e-06
-4.37559e-08
8.937e-06
-4.6859e-08
8.94334e-06
-4.86337e-08
8.94947e-06
-4.90719e-08
8.95526e-06
-4.85052e-08
8.9607e-06
-4.73825e-08
8.9658e-06
-4.59645e-08
8.97056e-06
-4.43763e-08
8.97499e-06
-4.2708e-08
8.97912e-06
-4.10264e-08
8.98295e-06
-3.93727e-08
8.98652e-06
-3.7771e-08
8.98984e-06
-3.623e-08
8.99294e-06
-3.47553e-08
-3.33421e-08
8.99581e-06
7.94107e-06
-8.87421e-09
7.9465e-06
-3.38137e-08
7.95241e-06
-4.42384e-08
7.95814e-06
-4.95063e-08
7.96434e-06
-5.30805e-08
7.9707e-06
-5.50003e-08
7.97678e-06
-5.51519e-08
7.98246e-06
-5.41765e-08
7.98775e-06
-5.26592e-08
7.99265e-06
-5.08575e-08
7.99717e-06
-4.88974e-08
8.00135e-06
-4.68763e-08
8.00519e-06
-4.48657e-08
8.00874e-06
-4.29123e-08
8.01201e-06
-4.10369e-08
8.01504e-06
-3.92538e-08
8.01785e-06
-3.7565e-08
-3.59627e-08
8.02047e-06
7.07232e-06
-6.87324e-09
7.07979e-06
-4.13222e-08
7.0861e-06
-5.05999e-08
7.09192e-06
-5.53454e-08
7.09841e-06
-5.95871e-08
7.105e-06
-6.15944e-08
7.11123e-06
-6.13726e-08
7.11701e-06
-5.99436e-08
7.12232e-06
-5.79691e-08
7.12717e-06
-5.56992e-08
7.13156e-06
-5.32863e-08
7.13553e-06
-5.0839e-08
7.13911e-06
-4.84428e-08
7.14234e-06
-4.61373e-08
7.14525e-06
-4.39509e-08
7.1479e-06
-4.18916e-08
7.1503e-06
-3.9963e-08
-3.8126e-08
7.15247e-06
6.29549e-06
1.55671e-10
6.30537e-06
-5.13725e-08
6.31406e-06
-5.9223e-08
6.32231e-06
-6.36086e-08
6.33064e-06
-6.79505e-08
6.33828e-06
-6.92453e-08
6.34497e-06
-6.80665e-08
6.35086e-06
-6.58298e-08
6.35605e-06
-6.31453e-08
6.36056e-06
-6.02126e-08
6.36446e-06
-5.71799e-08
6.36779e-06
-5.41673e-08
6.37061e-06
-5.12616e-08
6.37297e-06
-4.85034e-08
6.37495e-06
-4.59197e-08
6.37658e-06
-4.35245e-08
6.37795e-06
-4.13234e-08
-3.932e-08
6.37914e-06
5.61076e-06
4.26947e-09
5.62029e-06
-6.10845e-08
5.63138e-06
-7.03041e-08
5.64336e-06
-7.56108e-08
5.65504e-06
-7.9667e-08
5.66498e-06
-7.92049e-08
5.67269e-06
-7.5785e-08
5.6784e-06
-7.15441e-08
5.68239e-06
-6.71277e-08
5.68489e-06
-6.27146e-08
5.68614e-06
-5.8433e-08
5.68635e-06
-5.43799e-08
5.68571e-06
-5.06145e-08
5.68435e-06
-4.71522e-08
5.68243e-06
-4.39975e-08
5.68007e-06
-4.11637e-08
5.67738e-06
-3.86368e-08
-3.64346e-08
5.6745e-06
5.05132e-06
-4.47838e-08
5.06131e-06
-7.12843e-08
5.07067e-06
-7.96749e-08
5.07701e-06
-8.19775e-08
5.07898e-06
-8.16833e-08
5.07659e-06
-7.68354e-08
5.07021e-06
-6.9424e-08
5.0604e-06
-6.17367e-08
5.04794e-06
-5.46601e-08
5.03358e-06
-4.83557e-08
5.01798e-06
-4.28382e-08
5.00166e-06
-3.80595e-08
4.98499e-06
-3.39529e-08
4.96827e-06
-3.04326e-08
4.9517e-06
-2.74264e-08
4.93544e-06
-2.49046e-08
4.91966e-06
-2.28611e-08
-2.17169e-08
4.90494e-06
4.41175e-06
4.34047e-06
4.26079e-06
4.17881e-06
4.09712e-06
4.02029e-06
3.95086e-06
3.88913e-06
3.83447e-06
3.78611e-06
3.74327e-06
3.70521e-06
3.67126e-06
3.64082e-06
3.6134e-06
3.58849e-06
3.56563e-06
3.54391e-06
-2.92541e-08
2.91347e-08
-6.19461e-08
3.23181e-08
-8.25915e-08
2.05114e-08
-7.04743e-08
-1.24839e-08
-2.13511e-08
-4.91493e-08
5.32405e-08
-7.47837e-08
1.39738e-07
-8.64401e-08
2.26353e-07
-8.66043e-08
3.06038e-07
-7.96429e-08
3.74765e-07
-6.85994e-08
4.30089e-07
-5.53336e-08
4.71115e-07
-4.08421e-08
4.96653e-07
-2.55982e-08
5.06439e-07
-9.59577e-09
4.99092e-07
7.23165e-09
4.74895e-07
2.43247e-08
4.34151e-07
4.05823e-08
3.79261e-07
5.49212e-08
3.12949e-07
6.61049e-08
2.40211e-07
7.26799e-08
1.66964e-07
7.29656e-08
1.00937e-07
6.58781e-08
4.90851e-08
5.14438e-08
1.69754e-08
3.18105e-08
5.60821e-09
1.07983e-08
1.38143e-08
-8.58981e-09
4.24488e-08
-2.90807e-08
8.69421e-08
-4.47595e-08
1.32302e-07
-4.56351e-08
1.67478e-07
-3.53516e-08
1.87984e-07
-2.07328e-08
1.93398e-07
-5.55896e-09
1.86414e-07
6.72436e-09
1.63477e-07
2.28525e-08
1.1697e-07
4.6183e-08
4.10581e-08
7.57899e-08
-6.49503e-08
1.05679e-07
-1.97033e-07
1.31955e-07
-3.50146e-07
1.529e-07
-5.15569e-07
1.65307e-07
-6.86858e-07
1.71153e-07
-8.62597e-07
1.75659e-07
-1.03816e-06
1.75468e-07
-1.20525e-06
1.6702e-07
-1.36168e-06
1.56338e-07
-1.50729e-06
1.45544e-07
-1.64062e-06
1.33251e-07
-1.76135e-06
1.20657e-07
-1.86974e-06
1.08312e-07
-1.96651e-06
9.67029e-08
-2.05267e-06
8.60892e-08
-2.12938e-06
7.66444e-08
-2.19783e-06
6.83758e-08
-2.2591e-06
6.12109e-08
-2.31418e-06
5.50202e-08
-2.3639e-06
4.96564e-08
-2.40879e-06
4.48284e-08
-2.4497e-06
4.08475e-08
-2.48779e-06
3.80219e-08
-2.52344e-06
3.55977e-08
-2.5569e-06
3.34085e-08
-2.58853e-06
3.15739e-08
-2.6186e-06
3.00301e-08
-2.64742e-06
2.87709e-08
-2.67513e-06
2.76764e-08
-2.70204e-06
2.68659e-08
-2.72837e-06
2.62899e-08
-2.75425e-06
2.58486e-08
-2.77981e-06
2.55194e-08
-2.80514e-06
2.52919e-08
-2.83032e-06
2.51407e-08
-2.85541e-06
2.50543e-08
-2.88042e-06
2.49781e-08
-2.90542e-06
2.49677e-08
-2.93045e-06
2.4995e-08
-2.9555e-06
2.50193e-08
-2.98055e-06
2.50213e-08
-3.00562e-06
2.50438e-08
-3.03071e-06
2.50593e-08
-3.05569e-06
2.49702e-08
-3.0804e-06
2.46809e-08
-3.10427e-06
2.38731e-08
-3.12739e-06
2.30889e-08
-3.15034e-06
2.29572e-08
-3.1729e-06
2.25127e-08
-3.19452e-06
2.15886e-08
-3.21515e-06
2.05834e-08
-3.23458e-06
1.93718e-08
-3.25265e-06
1.80095e-08
-3.26902e-06
1.63474e-08
-3.28343e-06
1.44104e-08
-3.29553e-06
1.21614e-08
-3.30495e-06
9.47602e-09
-3.31129e-06
6.40921e-09
-3.3143e-06
3.02249e-09
-3.3137e-06
-6.06849e-10
-3.30988e-06
-3.89939e-09
-3.30311e-06
-6.88532e-09
-3.29328e-06
-1.00073e-08
-3.28018e-06
-1.3299e-08
-3.26353e-06
-1.68736e-08
-3.24321e-06
-2.05408e-08
-3.21917e-06
-2.42698e-08
-3.19125e-06
-2.81341e-08
-3.15924e-06
-3.22158e-08
-3.12316e-06
-3.62694e-08
-3.08329e-06
-4.00431e-08
-3.03936e-06
-4.40798e-08
-2.99121e-06
-4.82714e-08
-2.93917e-06
-5.21468e-08
-2.88331e-06
-5.59374e-08
-2.82362e-06
-5.97492e-08
-2.76037e-06
-6.32967e-08
-2.6937e-06
-6.66974e-08
-2.62372e-06
-6.99817e-08
-2.55068e-06
-7.30335e-08
-2.47478e-06
-7.5868e-08
-2.39628e-06
-7.8464e-08
-2.31542e-06
-8.07932e-08
-2.23251e-06
-8.28532e-08
-2.1478e-06
-8.46215e-08
-2.06161e-06
-8.61044e-08
-1.97421e-06
-8.7289e-08
-1.88591e-06
-8.81892e-08
-1.79698e-06
-8.88007e-08
-1.70771e-06
-8.91438e-08
-1.61833e-06
-8.92221e-08
-1.52911e-06
-8.90611e-08
-1.44025e-06
-8.86728e-08
-1.35198e-06
-8.80873e-08
-1.26446e-06
-8.73258e-08
-1.17785e-06
-8.64165e-08
-1.09228e-06
-8.53819e-08
-1.00785e-06
-8.42478e-08
-9.24632e-07
-8.30371e-08
-8.42664e-07
-8.17761e-08
-7.61973e-07
-8.04878e-08
-6.82566e-07
-7.91949e-08
-6.04423e-07
-7.79092e-08
-5.27522e-07
-7.66429e-08
-4.51814e-07
-7.54403e-08
-3.77238e-07
-7.42989e-08
-3.03798e-07
-7.31921e-08
-2.31395e-07
-7.21855e-08
-1.59898e-07
-7.13464e-08
-8.92049e-08
-7.05955e-08
-1.91942e-08
-6.99879e-08
5.06367e-08
-6.98548e-08
1.20301e-07
-6.9715e-08
1.89469e-07
-6.92308e-08
2.58082e-07
-6.8671e-08
3.2611e-07
-6.80849e-08
3.93553e-07
-6.74938e-08
4.60393e-07
-6.68887e-08
5.2662e-07
-6.62748e-08
5.92212e-07
-6.56389e-08
6.57145e-07
-6.49854e-08
7.21397e-07
-6.4306e-08
7.84941e-07
-6.36075e-08
8.4775e-07
-6.28747e-08
9.09777e-07
-6.21043e-08
9.70973e-07
-6.12755e-08
1.03127e-06
-6.03863e-08
1.09061e-06
-5.94272e-08
1.14891e-06
-5.83989e-08
1.20611e-06
-5.72939e-08
1.26212e-06
-5.61083e-08
1.31686e-06
-5.4833e-08
1.37021e-06
-5.34453e-08
1.42204e-06
-5.19257e-08
1.47218e-06
-5.02325e-08
1.52039e-06
-4.83055e-08
1.56634e-06
-4.60362e-08
1.6095e-06
-4.32596e-08
1.64907e-06
-3.96527e-08
1.68359e-06
-3.46139e-08
1.71037e-06
-2.68276e-08
1.72226e-06
-1.19094e-08
1.70006e-06
2.22402e-08
8.52567e-08
1.61491e-06
-1.0199e-09
2.99112e-08
4.6183e-09
2.61001e-08
4.36553e-08
-1.88031e-08
1.12978e-07
-8.20312e-08
1.97505e-07
-1.33724e-07
2.82067e-07
-1.59412e-07
3.5795e-07
-1.62325e-07
4.22169e-07
-1.5082e-07
4.74409e-07
-1.31877e-07
5.15513e-07
-1.09653e-07
5.4645e-07
-8.62759e-08
5.682e-07
-6.25075e-08
5.8127e-07
-3.86873e-08
5.86751e-07
-1.49868e-08
5.85274e-07
8.67152e-09
5.77127e-07
3.25234e-08
5.61219e-07
5.64262e-08
5.36401e-07
7.97387e-08
5.01373e-07
1.01041e-07
4.55983e-07
1.18016e-07
4.01256e-07
1.27571e-07
3.40593e-07
1.26447e-07
2.79619e-07
1.12248e-07
2.2631e-07
8.496e-08
1.88998e-07
4.78614e-08
1.73711e-07
6.46624e-09
1.7464e-07
-3.02404e-08
1.75449e-07
-4.57446e-08
1.62753e-07
-3.31344e-08
1.32299e-07
-5.05889e-09
7.96219e-08
3.16616e-08
-4.17701e-09
7.80325e-08
-1.25908e-07
1.28206e-07
-2.78102e-07
1.74952e-07
-4.49704e-07
2.17673e-07
-6.29231e-07
2.55256e-07
-8.10269e-07
2.86641e-07
-9.88708e-07
3.1034e-07
-1.16085e-06
3.24972e-07
-1.32455e-06
3.28958e-07
-1.47674e-06
3.23284e-07
-1.61246e-06
3.11337e-07
-1.73113e-06
2.94079e-07
-1.83607e-06
2.71919e-07
-1.92759e-06
2.47813e-07
-2.0061e-06
2.24004e-07
-2.07397e-06
2.01064e-07
-2.13306e-06
1.79697e-07
-2.18503e-06
1.60229e-07
-2.23124e-06
1.4287e-07
-2.27282e-06
1.27614e-07
-2.31059e-06
1.14371e-07
-2.34521e-06
1.02949e-07
-2.37719e-06
9.31537e-08
-2.40703e-06
8.48069e-08
-2.43509e-06
7.76832e-08
-2.46193e-06
7.16207e-08
-2.4877e-06
6.6578e-08
-2.51221e-06
6.24847e-08
-2.5357e-06
5.90582e-08
-2.55846e-06
5.61249e-08
-2.58055e-06
5.36377e-08
-2.6021e-06
5.15535e-08
-2.6232e-06
4.98377e-08
-2.644e-06
4.84511e-08
-2.66456e-06
4.73986e-08
-2.68486e-06
4.65676e-08
-2.70491e-06
4.58736e-08
-2.72473e-06
4.53188e-08
-2.74436e-06
4.48904e-08
-2.7638e-06
4.45595e-08
-2.78307e-06
4.43052e-08
-2.8022e-06
4.40789e-08
-2.82117e-06
4.39147e-08
-2.83994e-06
4.3752e-08
-2.85853e-06
4.35897e-08
-2.87687e-06
4.33404e-08
-2.89485e-06
4.30064e-08
-2.91235e-06
4.25421e-08
-2.92927e-06
4.1882e-08
-2.94559e-06
4.09864e-08
-2.9615e-06
3.97714e-08
-2.9769e-06
3.84766e-08
-2.99114e-06
3.71825e-08
-3.00425e-06
3.56036e-08
-3.01635e-06
3.36698e-08
-3.02718e-06
3.13699e-08
-3.03656e-06
2.87134e-08
-3.04438e-06
2.57922e-08
-3.05054e-06
2.24667e-08
-3.05488e-06
1.87656e-08
-3.05739e-06
1.46923e-08
-3.05808e-06
1.01966e-08
-3.05701e-06
5.35545e-09
-3.05422e-06
2.27555e-10
-3.04965e-06
-5.2189e-09
-3.04267e-06
-1.09519e-08
-3.03273e-06
-1.6927e-08
-3.01965e-06
-2.32212e-08
-3.00326e-06
-2.98317e-08
-2.98353e-06
-3.67721e-08
-2.96025e-06
-4.39732e-08
-2.93331e-06
-5.13776e-08
-2.90259e-06
-5.89936e-08
-2.86814e-06
-6.6815e-08
-2.82982e-06
-7.47015e-08
-2.78743e-06
-8.25529e-08
-2.7411e-06
-9.0507e-08
-2.69102e-06
-9.84421e-08
-2.63705e-06
-1.06177e-07
-2.57927e-06
-1.13775e-07
-2.51787e-06
-1.21188e-07
-2.45294e-06
-1.28257e-07
-2.3846e-06
-1.35043e-07
-2.31308e-06
-1.41513e-07
-2.23856e-06
-1.47542e-07
-2.16128e-06
-1.53124e-07
-2.0815e-06
-1.58218e-07
-1.99948e-06
-1.62787e-07
-1.91548e-06
-1.66809e-07
-1.82979e-06
-1.70261e-07
-1.7427e-06
-1.73139e-07
-1.65449e-06
-1.75436e-07
-1.56545e-06
-1.77162e-07
-1.47585e-06
-1.78328e-07
-1.38595e-06
-1.7896e-07
-1.296e-06
-1.79082e-07
-1.20624e-06
-1.78733e-07
-1.11686e-06
-1.77952e-07
-1.02805e-06
-1.76786e-07
-9.39986e-07
-1.75285e-07
-8.52796e-07
-1.73503e-07
-7.6659e-07
-1.71487e-07
-6.81451e-07
-1.6929e-07
-5.9743e-07
-1.66961e-07
-5.14558e-07
-1.6455e-07
-4.3284e-07
-1.62103e-07
-3.52261e-07
-1.59666e-07
-2.72782e-07
-1.57268e-07
-1.94365e-07
-1.54932e-07
-1.16948e-07
-1.52721e-07
-4.04304e-08
-1.50684e-07
3.53271e-08
-1.48832e-07
1.10369e-07
-1.47133e-07
1.84665e-07
-1.45578e-07
2.58274e-07
-1.44172e-07
3.31191e-07
-1.429e-07
4.03104e-07
-1.41787e-07
4.74038e-07
-1.40677e-07
5.44243e-07
-1.39472e-07
6.13765e-07
-1.38224e-07
6.82605e-07
-1.36961e-07
7.50762e-07
-1.35681e-07
8.1822e-07
-1.34382e-07
8.84967e-07
-1.33051e-07
9.50978e-07
-1.31686e-07
1.01623e-06
-1.30271e-07
1.0807e-06
-1.28812e-07
1.14435e-06
-1.27298e-07
1.20715e-06
-1.25724e-07
1.26906e-06
-1.24064e-07
1.33004e-06
-1.22306e-07
1.39003e-06
-1.20432e-07
1.44898e-06
-1.18441e-07
1.50684e-06
-1.1632e-07
1.56354e-06
-1.14065e-07
1.61903e-06
-1.11659e-07
1.67321e-06
-1.09091e-07
1.72601e-06
-1.06316e-07
1.77731e-06
-1.03295e-07
1.82695e-06
-9.99475e-08
1.87473e-06
-9.61637e-08
1.92036e-06
-9.17395e-08
1.96339e-06
-8.63725e-08
2.00315e-06
-7.94904e-08
2.03849e-06
-7.00408e-08
2.06761e-06
-5.60046e-08
2.0892e-06
-3.35521e-08
2.10343e-06
8.01248e-09
8.89175e-08
2.09979e-06
8.23e-09
2.14753e-08
5.86347e-08
-2.46057e-08
1.52414e-07
-1.12701e-07
2.53242e-07
-1.82944e-07
3.34686e-07
-2.15201e-07
3.92284e-07
-2.17047e-07
4.31704e-07
-2.01758e-07
4.59422e-07
-1.78544e-07
4.79609e-07
-1.52074e-07
4.94333e-07
-1.24356e-07
5.04244e-07
-9.61958e-08
5.0967e-07
-6.78928e-08
5.10632e-07
-3.9659e-08
5.07398e-07
-1.17009e-08
5.00178e-07
1.58775e-08
4.89695e-07
4.30453e-08
4.7633e-07
6.9768e-08
4.60265e-07
9.58128e-08
4.40877e-07
1.20387e-07
4.17062e-07
1.41806e-07
3.8735e-07
1.57216e-07
3.51032e-07
1.62708e-07
3.09076e-07
1.54111e-07
2.65479e-07
1.28465e-07
2.25741e-07
8.74602e-08
1.8774e-07
4.43481e-08
1.32456e-07
2.48818e-08
5.0516e-08
3.60962e-08
-5.52315e-08
7.24747e-08
-1.84931e-07
1.24551e-07
-3.35921e-07
1.82565e-07
-4.99161e-07
2.41217e-07
-6.67508e-07
2.96505e-07
-8.36687e-07
3.441e-07
-1.00069e-06
3.81643e-07
-1.15405e-06
4.08594e-07
-1.2926e-06
4.2516e-07
-1.41388e-06
4.31588e-07
-1.51726e-06
4.28324e-07
-1.60454e-06
4.16207e-07
-1.67843e-06
3.97144e-07
-1.74065e-06
3.7353e-07
-1.7936e-06
3.4699e-07
-1.84052e-06
3.18814e-07
-1.88332e-06
2.9057e-07
-1.92279e-06
2.63443e-07
-1.95981e-06
2.38046e-07
-1.99489e-06
2.14745e-07
-2.02838e-06
1.93677e-07
-2.06042e-06
1.74883e-07
-2.09113e-06
1.58283e-07
-2.12052e-06
1.43732e-07
-2.14864e-06
1.31035e-07
-2.17553e-06
1.20021e-07
-2.20126e-06
1.10509e-07
-2.22592e-06
1.02314e-07
-2.24963e-06
9.52983e-08
-2.27242e-06
8.9342e-08
-2.29428e-06
8.43237e-08
-2.31532e-06
8.0078e-08
-2.33568e-06
7.64641e-08
-2.35545e-06
7.33877e-08
-2.3747e-06
7.07806e-08
-2.39347e-06
6.85943e-08
-2.41185e-06
6.6814e-08
-2.42989e-06
6.54285e-08
-2.44767e-06
6.43312e-08
-2.46524e-06
6.34319e-08
-2.48265e-06
6.27066e-08
-2.4999e-06
6.2129e-08
-2.51701e-06
6.16594e-08
-2.53398e-06
6.12588e-08
-2.5508e-06
6.08863e-08
-2.56745e-06
6.05553e-08
-2.58392e-06
6.02133e-08
-2.60019e-06
5.98477e-08
-2.61622e-06
5.93614e-08
-2.63199e-06
5.8767e-08
-2.64745e-06
5.79979e-08
-2.66258e-06
5.69976e-08
-2.67732e-06
5.57152e-08
-2.69165e-06
5.41027e-08
-2.70544e-06
5.22547e-08
-2.71842e-06
5.01521e-08
-2.73053e-06
4.76955e-08
-2.7417e-06
4.48268e-08
-2.75184e-06
4.1483e-08
-2.76083e-06
3.76757e-08
-2.76854e-06
3.34626e-08
-2.77484e-06
2.87396e-08
-2.7796e-06
2.35101e-08
-2.78268e-06
1.77659e-08
-2.78395e-06
1.14689e-08
-2.78327e-06
4.65103e-09
-2.78042e-06
-2.6523e-09
-2.77521e-06
-1.04867e-08
-2.76737e-06
-1.88616e-08
-2.75667e-06
-2.7723e-08
-2.74292e-06
-3.7072e-08
-2.72598e-06
-4.68731e-08
-2.70576e-06
-5.71163e-08
-2.68208e-06
-6.77572e-08
-2.65483e-06
-7.87378e-08
-2.6239e-06
-9.00231e-08
-2.58924e-06
-1.01573e-07
-2.55076e-06
-1.13265e-07
-2.50838e-06
-1.25008e-07
-2.46218e-06
-1.36775e-07
-2.41223e-06
-1.48451e-07
-2.35852e-06
-1.59924e-07
-2.30114e-06
-1.71195e-07
-2.24021e-06
-1.82137e-07
-2.17583e-06
-1.92659e-07
-2.10815e-06
-2.02724e-07
-2.03738e-06
-2.12286e-07
-1.96371e-06
-2.21202e-07
-1.88738e-06
-2.2944e-07
-1.80864e-06
-2.36937e-07
-1.72775e-06
-2.43654e-07
-1.64497e-06
-2.49552e-07
-1.56059e-06
-2.54609e-07
-1.47488e-06
-2.58808e-07
-1.38812e-06
-2.62152e-07
-1.30059e-06
-2.6465e-07
-1.21254e-06
-2.66327e-07
-1.12423e-06
-2.67215e-07
-1.03589e-06
-2.67362e-07
-9.47743e-07
-2.66819e-07
-8.59977e-07
-2.65651e-07
-7.72765e-07
-2.63928e-07
-6.86258e-07
-2.61725e-07
-6.00578e-07
-2.59118e-07
-5.1582e-07
-2.56185e-07
-4.32052e-07
-2.52999e-07
-3.49317e-07
-2.49638e-07
-2.67633e-07
-2.46174e-07
-1.86999e-07
-2.42674e-07
-1.07393e-07
-2.39207e-07
-2.87576e-08
-2.3583e-07
4.89592e-08
-2.32571e-07
1.2578e-07
-2.29461e-07
2.01715e-07
-2.26543e-07
2.76788e-07
-2.23835e-07
3.51026e-07
-2.21317e-07
4.24464e-07
-2.18979e-07
4.97119e-07
-2.16812e-07
5.68979e-07
-2.14765e-07
6.3998e-07
-2.12803e-07
7.10149e-07
-2.10865e-07
7.79574e-07
-2.08912e-07
8.48279e-07
-2.06943e-07
9.16269e-07
-2.04961e-07
9.83536e-07
-2.02956e-07
1.05006e-06
-2.00916e-07
1.11583e-06
-1.98827e-07
1.18082e-06
-1.96675e-07
1.24499e-06
-1.94448e-07
1.30831e-06
-1.92143e-07
1.37076e-06
-1.89753e-07
1.43229e-06
-1.87262e-07
1.49286e-06
-1.84647e-07
1.55242e-06
-1.81887e-07
1.61094e-06
-1.78969e-07
1.66837e-06
-1.75886e-07
1.72466e-06
-1.72626e-07
1.77976e-06
-1.69178e-07
1.8336e-06
-1.65523e-07
1.88613e-06
-1.61634e-07
1.93725e-06
-1.57462e-07
1.98688e-06
-1.52942e-07
2.03488e-06
-1.47966e-07
2.08108e-06
-1.42377e-07
2.12522e-06
-1.35901e-07
2.16696e-06
-1.28126e-07
2.20577e-06
-1.18314e-07
2.24088e-06
-1.05171e-07
2.27134e-06
-8.64591e-08
2.29617e-06
-5.83734e-08
2.31695e-06
-1.27172e-08
6.82963e-08
2.33764e-06
2.3541e-08
-2.19535e-09
1.24476e-07
-1.25688e-07
2.32919e-07
-2.21204e-07
3.07791e-07
-2.57861e-07
3.48583e-07
-2.56016e-07
3.689e-07
-2.37387e-07
3.79905e-07
-2.12778e-07
3.87173e-07
-1.85825e-07
3.92524e-07
-1.57437e-07
3.96079e-07
-1.27912e-07
3.97357e-07
-9.7485e-08
3.95903e-07
-6.64234e-08
3.91295e-07
-3.50586e-08
3.83389e-07
-3.76614e-09
3.7209e-07
2.71739e-08
3.57727e-07
5.74407e-08
3.40705e-07
8.67831e-08
3.21617e-07
1.14918e-07
3.00701e-07
1.4128e-07
2.77832e-07
1.64662e-07
2.52266e-07
1.8273e-07
2.23312e-07
1.91612e-07
1.90766e-07
1.86567e-07
1.52917e-07
1.66228e-07
9.8244e-08
1.42011e-07
1.15766e-08
1.3092e-07
-1.08399e-07
1.44773e-07
-2.52029e-07
1.79676e-07
-4.09859e-07
2.30259e-07
-5.74437e-07
2.891e-07
-7.3912e-07
3.47217e-07
-8.97052e-07
3.99133e-07
-1.04236e-06
4.41794e-07
-1.17137e-06
4.73099e-07
-1.28262e-06
4.92878e-07
-1.37604e-06
5.02008e-07
-1.45233e-06
5.01422e-07
-1.5132e-06
4.92449e-07
-1.5614e-06
4.76501e-07
-1.60029e-06
4.55084e-07
-1.63305e-06
4.29873e-07
-1.66192e-06
4.02381e-07
-1.68873e-06
3.73779e-07
-1.71494e-06
3.45006e-07
-1.74129e-06
3.16886e-07
-1.76791e-06
2.90046e-07
-1.79479e-06
2.64892e-07
-1.82173e-06
2.41662e-07
-1.84854e-06
2.20456e-07
-1.87498e-06
2.01302e-07
-1.90087e-06
1.84142e-07
-1.92604e-06
1.68882e-07
-1.95041e-06
1.55387e-07
-1.97394e-06
1.43521e-07
-1.99658e-06
1.33131e-07
-2.01836e-06
1.24074e-07
-2.0393e-06
1.16223e-07
-2.05943e-06
1.09458e-07
-2.07878e-06
1.03658e-07
-2.09741e-06
9.86942e-08
-2.11541e-06
9.44475e-08
-2.13285e-06
9.08206e-08
-2.14982e-06
8.77382e-08
-2.16638e-06
8.51487e-08
-2.1826e-06
8.30222e-08
-2.1985e-06
8.13204e-08
-2.21414e-06
7.99623e-08
-2.22959e-06
7.88703e-08
-2.24489e-06
7.79954e-08
-2.26006e-06
7.72943e-08
-2.27513e-06
7.67203e-08
-2.2901e-06
7.62275e-08
-2.305e-06
7.57772e-08
-2.3198e-06
7.53508e-08
-2.3345e-06
7.49058e-08
-2.34907e-06
7.4408e-08
-2.36349e-06
7.37859e-08
-2.37775e-06
7.30185e-08
-2.3918e-06
7.20413e-08
-2.4056e-06
7.07974e-08
-2.41911e-06
6.92214e-08
-2.43229e-06
6.72706e-08
-2.44499e-06
6.49532e-08
-2.45709e-06
6.22414e-08
-2.46848e-06
5.90797e-08
-2.47908e-06
5.54073e-08
-2.48878e-06
5.11574e-08
-2.49746e-06
4.63375e-08
-2.50497e-06
4.09416e-08
-2.51117e-06
3.48998e-08
-2.51589e-06
2.81929e-08
-2.51894e-06
2.07905e-08
-2.52016e-06
1.26628e-08
-2.51937e-06
3.82093e-09
-2.51637e-06
-5.7112e-09
-2.51096e-06
-1.59695e-08
-2.50294e-06
-2.69515e-08
-2.49214e-06
-3.86141e-08
-2.47837e-06
-5.09249e-08
-2.4615e-06
-6.38431e-08
-2.44137e-06
-7.73349e-08
-2.41786e-06
-9.13553e-08
-2.39085e-06
-1.05836e-07
-2.36023e-06
-1.20717e-07
-2.32596e-06
-1.35919e-07
-2.28796e-06
-1.51325e-07
-2.24621e-06
-1.66819e-07
-2.20072e-06
-1.8231e-07
-2.15153e-06
-1.9768e-07
-2.09866e-06
-2.12827e-07
-2.04221e-06
-2.27675e-07
-1.98229e-06
-2.42071e-07
-1.91903e-06
-2.55931e-07
-1.85259e-06
-2.69173e-07
-1.78316e-06
-2.81712e-07
-1.71094e-06
-2.93413e-07
-1.63617e-06
-3.04207e-07
-1.55907e-06
-3.14018e-07
-1.47991e-06
-3.22797e-07
-1.39894e-06