/*--------------------------------*- C++ -*----------------------------------*\
  =========                 |
  \\      /  F ield         | OpenFOAM: The Open Source CFD Toolbox
   \\    /   O peration     | Website:  https://openfoam.org
    \\  /    A nd           | Version:  8
     \\/     M anipulation  |
\*---------------------------------------------------------------------------*/
FoamFile
{
    version     2.0;
    format      ascii;
    class       volScalarField;
    location    "1200";
    object      omega;
}
// * * * * * * * * * * * * * * * * * * * * * * * * * * * * * * * * * * * * * //

dimensions      [0 0 -1 0 0 0 0];

internalField   nonuniform List<scalar> 
12225
(
32582.3
42808.5
40416.7
32582.3
39307.4
38333.6
32582.3
32582.3
40030.6
32582.3
32582.3
32582.3
32582.3
32582.3
32582.3
32582.3
32582.3
32582.3
7550.06
9074.4
11784.6
13778.1
13942.7
15629.7
16745.1
16073.9
16567.5
16483.2
16658.1
16395.1
17365.7
16711.8
16456.5
16277.9
16478.4
16295.5
443.107
1288.01
1930.07
3056.05
4099.92
4780.07
5405.69
5752.82
6003.39
6249.84
6551.58
6879.15
7196.47
7353.52
7489.59
7613.87
7698.06
7829.55
441.463
566.018
705.217
984.712
1253.11
1479.78
1668.92
1821.48
1940.72
2064.25
2163.45
2285.57
2378.35
2481.43
2542.68
2625.93
2666.75
2753
412.113
439.893
473.198
542.431
636.738
720.949
792.032
847.245
886.251
933.565
968.398
1016.71
1049.52
1094.79
1120.18
1159.2
1177.55
1215.4
398.488
409.042
421.098
433.32
467.286
505.456
535.962
560.099
577.01
589.116
602.084
622.255
636.279
656.291
668.121
685.951
694.683
711.895
398.505
399.051
400.846
403.049
412.774
426.92
438.872
448.114
455.225
460.85
465.468
473.674
479.761
488.506
493.972
502.013
506.079
513.858
398.898
397.412
396.424
396.275
398.217
402.821
407.479
412.212
415.498
418.206
419.317
422.344
424.993
428.956
431.622
435.495
437.488
441.381
399.081
397.112
395.669
393.888
393.599
394.193
395.312
396.456
397.692
399.192
399.747
399.813
400.471
401.811
402.933
404.531
405.378
406.974
399.083
397.185
395.508
393.8
392.447
391.479
390.753
390.147
389.637
389.299
388.884
388.552
388.508
388.503
388.546
388.711
388.848
389.196
399.055
397.225
395.479
393.823
392.269
390.867
389.569
388.372
387.247
386.237
385.292
384.461
383.71
383.085
382.453
381.964
381.383
381.03
399.05
397.221
395.471
393.821
392.244
390.763
389.35
388.022
386.751
385.564
384.432
383.387
382.386
381.473
380.582
379.775
378.965
378.246
399.05
397.215
395.466
393.81
392.232
390.737
389.311
387.958
386.667
385.442
384.273
383.165
382.108
381.107
380.148
379.242
378.369
377.546
399.051
397.211
395.462
393.802
392.223
390.723
389.294
387.936
386.64
385.408
384.231
383.113
382.041
381.025
380.049
379.124
378.234
377.39
399.051
397.21
395.46
393.797
392.216
390.713
389.282
387.92
386.623
385.387
384.208
383.084
382.012
380.988
380.011
379.078
378.188
377.336
399.051
397.209
395.458
393.794
392.211
390.706
389.273
387.909
386.61
385.372
384.191
383.065
381.991
380.965
379.986
379.051
378.158
377.304
399.051
397.208
395.456
393.791
392.208
390.702
389.268
387.903
386.602
385.362
384.18
383.053
381.977
380.95
379.97
379.033
378.139
377.283
399.051
397.207
395.456
393.79
392.207
390.699
389.267
387.899
386.6
385.358
384.177
383.048
381.972
380.944
379.964
379.025
378.131
377.274
399.051
397.208
395.456
393.791
392.207
390.702
389.267
387.903
386.601
385.362
384.18
383.053
381.976
380.949
379.968
379.031
378.135
377.28
399.051
397.209
395.457
393.793
392.211
390.704
389.271
387.906
386.61
385.374
384.2
383.078
382.008
380.984
380.006
379.069
378.174
377.316
399.053
397.209
395.458
393.802
392.218
390.703
389.266
387.912
386.658
385.478
384.374
383.313
382.296
381.302
380.348
379.41
378.517
377.637
399.062
397.203
395.449
393.848
392.232
390.617
389.182
388.015
387.173
386.471
385.919
385.278
384.63
383.868
383.114
382.188
381.32
380.311
399.089
397.18
395.435
393.991
392.307
389.779
388.885
389.358
391.054
393.3
395.323
396.688
397.818
399.007
399.414
398.717
398.131
396.684
399.153
397.168
395.559
394.109
392.18
391.693
393.629
401.1
412.929
424.599
435.26
443.927
451.724
456.43
461.455
464.175
466.431
466.79
399.553
397.425
396.097
396.518
398.43
402.096
414.735
444.53
482.514
517.087
549.336
573.319
594.27
607.003
617.657
622.294
627.841
629.449
403.102
403.803
405.927
417.317
431.303
449.574
492.74
564.393
649.578
743.219
822.277
887.496
933.978
962.006
974.437
982.45
983.857
985.638
442.552
444.274
483.107
532.935
588.387
648.942
786.683
952.372
1151.88
1370.96
1521.19
1622.45
1712.55
1779.72
1819.41
1836.97
1844.85
1852.95
736.703
799.463
1021.47
1227.07
1453.53
1684.46
2093.23
2499.16
2925.74
3255.47
3492.98
3683.18
3812.07
3935.44
4030.25
4087.34
4113
4138.61
3124.84
4309.08
5544.68
6561.76
7444.88
8150.84
8714.41
9170.14
9506.36
9746.84
9814.05
9810.14
9888.36
9840.01
9876.36
9832.79
9813.03
9812.87
19393.5
22154
23772.1
24624.6
25042
25104.2
25029
24851.9
24582.6
24289.4
23987.2
23695.3
23415.1
23156.1
22919.6
22702.7
22511.1
22334.8
11463.3
2494.65
2496.87
2499.12
2501.38
2503.67
2505.98
2508.3
2510.65
2513.02
2515.42
2517.83
2520.27
2522.73
2525.21
2527.72
2530.25
2532.8
2535.37
2537.97
2540.6
2543.25
2545.92
2548.62
2551.34
2554.09
2556.87
2559.67
2562.5
2565.35
2568.23
2571.14
2574.08
2577.04
2580.04
2583.06
2586.11
2589.19
2592.3
2595.43
2598.6
2601.8
2605.03
2608.29
2611.59
2614.91
2618.27
2621.66
2625.08
2628.54
2632.03
2635.55
2639.11
2642.71
2646.33
2650
2653.7
3174.49
3328.08
2665.03
3270.92
3409.19
3230.91
3412.49
3473.81
3568.23
3645.48
3724.77
3799.25
3871.86
3942.12
4010.49
4077
4142.01
4205.44
4267.57
4328.37
4387.95
4446.4
4503.68
4559.95
4615.08
4669.29
4722.38
4774.59
4825.71
4875.96
4925.12
4973.36
5020.51
5066.63
5111.69
5155.66
5198.46
5240.08
5280.45
5319.56
5357.39
5394.05
5429.73
5464.92
5498.99
5532.16
5564.36
5595.64
5625.97
5655.34
5683.75
5711.18
5737.63
5763.07
5787.53
5810.95
5833.37
5854.75
5875.12
5894.42
5912.72
5929.93
5946.14
5961.25
5975.37
5988.38
6000.39
6011.29
6021.2
6029.98
6037.71
6045.02
6051.58
6055.64
6060.91
6062.47
6065.56
6067.13
6068.29
6068.11
6066.15
6063.54
6059.83
6055.39
6050.09
6044.06
6037.26
6029.77
6021.57
6012.73
6003.25
5993.3
5982.32
5971.44
5959.11
5947.08
5934.02
5920.93
5907.36
5893.57
5879.6
5865.48
5851.3
5837.09
5822.9
5808.74
5794.65
5780.66
5766.81
5753.17
5739.79
5726.72
5714
5701.64
5689.6
5677.8
5665.98
5653.81
5640.55
5625.34
5605.45
5575.81
5455.83
11463.3
1992.63
993.203
805.25
688.03
622.73
629.472
625.118
613.77
591.337
567.312
543.995
522.528
504.909
492.812
484.362
483.731
485.397
512.591
561.31
645.701
747.055
856.464
965.005
1060.92
1135.28
1175.06
1168.88
1127.99
1049.46
929.734
779.62
652.804
566.976
499.951
463.439
457.675
465.244
485.961
517.731
546.141
591.175
685.174
806.354
998.748
1317.26
1631.71
1846.14
1986.16
2058.89
2079.78
2072.99
2053.83
2004.76
1933.79
1880.77
1834.68
1814.11
1787.36
1693.55
1717
1700.38
1679.13
1674.72
1665.19
1664.69
1664
1665.84
1668.88
1673.16
1678.27
1684.18
1690.58
1697.48
1704.66
1712.14
1719.76
1727.53
1735.37
1743.25
1751.15
1759.02
1766.86
1774.62
1782.31
1789.89
1797.34
1804.66
1811.81
1818.78
1825.58
1832.18
1838.58
1844.8
1850.84
1856.79
1862.71
1868.8
1875.31
1882.64
1891.34
1899.54
1907.64
1915.49
1923.13
1930.54
1937.73
1944.69
1951.42
1957.93
1964.2
1970.24
1976.06
1981.64
1986.99
1992.11
1996.99
2001.65
2006.07
2010.27
2014.24
2017.98
2021.5
2024.8
2027.89
2030.76
2033.43
2035.92
2038.25
2040.34
2042.21
2043.98
2045.45
2046.95
2048.17
2049.06
2049.31
2048.81
2048.04
2047.07
2045.92
2044.58
2043.06
2041.38
2039.54
2037.58
2035.47
2033.45
2030.06
2028.27
2024.45
2022.3
2018.78
2015.86
2012.61
2009.24
2005.89
2002.42
1998.93
1995.38
1991.82
1988.23
1984.62
1981.02
1977.41
1973.82
1970.26
1966.74
1963.27
1959.87
1956.55
1953.33
1950.16
1947.15
1944.34
1941.8
1939.6
1938.32
1937.01
1945.78
11463.3
2006.6
813.803
643.578
682.838
682.193
653.212
597.47
537.977
482.242
432.933
391.211
358.377
332.649
312.822
297.604
287.004
278.913
276.758
279.137
289.422
308.292
340.542
384.775
439.184
499.563
559.05
605.351
633.343
630.671
608.4
565.888
504.226
437.849
389.911
383.451
393.38
416.017
453.859
526.018
636.758
792.275
991.687
1169.07
1315.51
1447.37
1534.88
1563.56
1562.84
1516.08
1462.96
1402.7
1346.95
1295.08
1247.08
1210.65
1180.72
1157.87
1138.3
1123.49
1116.95
1109.82
1104.86
1102.73
1101.28
1101.21
1102.27
1104.06
1106.43
1109.29
1112.51
1116.04
1119.79
1123.73
1127.81
1132
1136.27
1140.6
1144.97
1149.36
1153.75
1158.15
1162.52
1166.88
1171.19
1175.47
1179.69
1183.86
1187.98
1192.03
1196.02
1199.96
1203.87
1207.74
1211.61
1215.51
1219.47
1223.55
1227.77
1232.15
1236.57
1240.81
1244.96
1248.97
1252.86
1256.62
1260.26
1263.77
1267.15
1270.4
1273.51
1276.5
1279.35
1282.07
1284.65
1287.1
1289.42
1291.6
1293.65
1295.56
1297.34
1298.99
1300.51
1301.89
1303.15
1304.28
1305.29
1306.17
1306.94
1307.58
1308.1
1308.5
1308.78
1308.96
1308.97
1308.79
1308.36
1307.73
1306.97
1306.11
1305.14
1304.07
1302.89
1301.61
1300.24
1298.77
1297.21
1295.56
1293.62
1291.93
1289.78
1287.95
1285.74
1283.66
1281.44
1279.17
1276.86
1274.49
1272.09
1269.65
1267.18
1264.68
1262.16
1259.61
1257.06
1254.5
1251.93
1249.37
1246.82
1244.29
1241.8
1239.36
1236.99
1234.74
1232.68
1230.93
1229.66
1229.53
1230.93
1241.29
11463.3
2040.29
1019.36
980.291
902.67
772.528
655.534
549.14
465.285
402.74
355.622
318.828
290.124
268.101
251.265
238.475
228.882
221.95
217.361
215.649
216.706
219.833
228.21
242.666
264.216
293.055
327.079
361.953
392.029
414.768
419.04
412.357
391.332
395.672
438.46
523.578
586.119
643.558
715.876
819.803
955.914
1074.53
1152.92
1219.77
1272.22
1292.79
1257.78
1212.41
1168.12
1114.04
1068.84
1026.75
992.22
963.193
939.536
921.454
907.462
897.07
889.043
884.188
881.108
878.881
878.277
878.174
878.954
880.348
882.246
884.506
887.068
889.872
892.869
896.026
899.308
902.694
906.16
909.692
913.273
916.893
920.539
924.203
927.875
931.547
935.213
938.866
942.501
946.113
949.7
953.258
956.787
960.281
963.748
967.19
970.615
974.028
977.436
980.847
984.268
987.699
991.134
994.546
997.885
1001.12
1004.26
1007.31
1010.26
1013.11
1015.86
1018.5
1021.04
1023.48
1025.81
1028.03
1030.14
1032.14
1034.03
1035.82
1037.49
1039.04
1040.49
1041.82
1043.04
1044.15
1045.15
1046.03
1046.8
1047.47
1048.02
1048.46
1048.8
1049.02
1049.15
1049.16
1049.06
1048.85
1048.51
1048.03
1047.4
1046.65
1045.79
1044.85
1043.8
1042.67
1041.44
1040.13
1038.73
1037.24
1035.68
1034.01
1032.24
1030.46
1028.52
1026.62
1024.58
1022.53
1020.4
1018.22
1016
1013.72
1011.41
1009.06
1006.68
1004.26
1001.82
999.36
996.881
994.388
991.885
989.376
986.87
984.369
981.892
979.456
977.083
974.815
972.712
970.882
969.481
969.048
970.064
976.436
11463.3
2323.71
1475.2
1184.96
939.178
725.702
560.205
449.369
373.715
320.698
282.775
255.555
235.845
221.051
209.7
200.994
194.455
189.75
186.641
185.266
185.641
187.038
191.018
198.009
209.007
225.095
246.149
269.898
293.162
311.263
327.597
360.416
424.766
526.093
611.222
679.274
750.314
827.762
900.883
964.942
1020.51
1068.24
1098.02
1105.96
1075.32
1028.47
991.745
949.758
913.055
878.601
851.041
827.245
808.285
793.032
781.204
772.382
765.989
761.603
758.913
757.676
757.344
757.624
758.758
760.349
762.402
764.792
767.456
770.333
773.386
776.583
779.898
783.31
786.804
790.365
793.981
797.641
801.337
805.06
808.802
812.555
816.313
820.07
823.82
827.558
831.28
834.982
838.66
842.314
845.939
849.534
853.098
856.636
860.148
863.635
867.095
870.527
873.927
877.285
880.591
883.831
886.989
890.057
893.037
895.926
898.721
901.42
904.022
906.525
908.927
911.227
913.423
915.515
917.5
919.378
921.146
922.805
924.353
925.789
927.112
928.323
929.419
930.403
931.273
932.029
932.672
933.201
933.615
933.916
934.102
934.171
934.146
933.998
933.734
933.352
932.848
932.219
931.464
930.595
929.625
928.556
927.389
926.126
924.768
923.32
921.784
920.158
918.448
916.645
914.755
912.806
910.765
908.683
906.515
904.299
902.019
899.684
897.298
894.864
892.386
889.867
887.313
884.727
882.115
879.479
876.824
874.152
871.467
868.774
866.081
863.402
860.744
858.123
855.559
853.088
850.76
848.665
846.933
845.93
846.156
849.354
11463.3
2939.01
1732.07
1205.75
830.669
586.119
443.39
355.258
300.492
264.87
240.125
221.949
208.002
197.077
188.372
181.478
176.182
172.362
169.922
169.001
169.419
170.903
174.296
179.669
187.792
199.878
216.785
238.946
268.829
313.54
372.291
468.608
574.718
658.579
726.243
788.842
841.259
881.853
916.601
950.315
967.408
969.352
940.23
909.304
876.759
842.689
813.222
784.803
761.279
740.946
724.625
711.198
700.715
692.7
686.871
682.904
680.65
679.722
679.548
680.329
681.797
683.782
686.235
689.019
692.084
695.366
698.824
702.421
706.135
709.946
713.838
717.8
721.819
725.888
729.998
734.141
738.31
742.496
746.694
750.897
755.098
759.291
763.472
767.636
771.778
775.894
779.98
784.034
788.052
792.03
795.968
799.866
803.723
807.537
811.305
815.021
818.68
822.272
825.79
829.228
832.577
835.836
839.001
842.07
845.041
847.91
850.677
853.337
855.89
858.333
860.666
862.888
864.995
866.986
868.86
870.614
872.248
873.761
875.152
876.419
877.562
878.582
879.476
880.246
880.891
881.41
881.802
882.068
882.195
882.215
882.114
881.881
881.52
881.032
880.416
879.671
878.798
877.807
876.702
875.487
874.163
872.732
871.196
869.56
867.828
865.997
864.073
862.052
859.943
857.754
855.481
853.142
850.727
848.247
845.701
843.094
840.432
837.717
834.955
832.15
829.307
826.43
823.526
820.597
817.647
814.678
811.697
808.706
805.715
802.734
799.773
796.847
793.973
791.182
788.517
786.049
783.884
782.273
781.569
782.63
11463.3
3436.06
1773.23
1032.46
649.121
456.856
358.663
302.946
267.379
242.433
223.71
209.068
197.273
187.532
179.474
172.949
167.879
164.264
162.206
161.828
162.849
165.654
170.657
178.322
189.359
204.796
228.458
266.143
323.942
411.601
514.438
600.881
668.988
727.735
774.156
809.204
837.443
859.382
868.458
864.743
841.906
819.635
793.185
767.848
742.778
719.293
698.944
681.002
666.254
654.011
644.292
636.694
631.074
627.177
624.966
624.093
624.016
624.973
626.659
628.993
631.827
635.059
638.617
642.427
646.442
650.617
654.924
659.337
663.84
668.418
673.06
677.758
682.502
687.285
692.101
696.942
701.8
706.668
711.539
716.405
721.261
726.1
730.916
735.705
740.462
745.183
749.861
754.495
759.079
763.611
768.086
772.505
776.866
781.166
785.401
789.567
793.659
797.675
801.608
805.448
809.191
812.833
816.371
819.802
823.123
826.332
829.424
832.398
835.251
837.979
840.578
843.046
845.384
847.591
849.666
851.607
853.413
855.081
856.613
858.005
859.258
860.372
861.346
862.179
862.872
863.423
863.834
864.095
864.202
864.198
864.048
863.753
863.316
862.739
862.021
861.165
860.171
859.046
857.795
856.418
854.92
853.302
851.565
849.707
847.729
845.641
843.448
841.15
838.753
836.264
833.686
831.027
828.287
825.473
822.587
819.633
816.619
813.548
810.425
807.257
804.047
800.802
797.528
794.228
790.906
787.565
784.211
780.85
777.487
774.135
770.803
767.504
764.257
761.084
758.021
755.127
752.483
750.257
748.625
748.09
11463.3
3575.24
1558.15
813.888
516.002
382.54
313.575
273.348
247.314
229.022
214.97
203.205
192.941
184.099
176.643
170.658
166.32
163.797
163.001
163.853
166.604
171.895
180.184
193.678
214.976
246.864
297.932
374.685
461.184
537.621
600.76
655.133
700.844
737.064
766.319
784.446
790.557
783.539
766.555
749.092
728.428
708.962
689.066
670.253
652.487
636.647
623.105
611.654
602.354
594.94
589.308
585.271
582.812
581.748
581.579
582.442
584.151
586.611
589.677
593.254
597.242
601.565
606.158
610.968
615.952
621.078
626.319
631.657
637.074
642.558
648.099
653.688
659.316
664.978
670.665
676.37
682.082
687.795
693.5
699.189
704.854
710.49
716.089
721.647
727.157
732.618
738.022
743.363
748.637
753.839
758.968
764.021
768.997
773.892
778.702
783.424
788.056
792.596
797.034
801.361
805.573
809.666
813.638
817.486
821.207
824.796
828.253
831.573
834.753
837.792
840.687
843.437
846.04
848.494
850.798
852.95
854.947
856.79
858.476
860.005
861.376
862.589
863.643
864.538
865.274
865.849
866.265
866.506
866.588
866.529
866.306
865.922
865.38
864.681
863.825
862.815
861.654
860.345
858.893
857.3
855.57
853.706
851.71
849.585
847.337
844.968
842.483
839.883
837.174
834.363
831.453
828.453
825.365
822.195
818.945
815.624
812.235
808.786
805.282
801.728
798.131
794.496
790.83
787.138
783.422
779.688
775.94
772.186
768.433
764.69
760.969
757.282
753.643
750.075
746.605
743.275
740.121
737.289
734.852
732.981
11463.3
3397.09
1278.97
660.852
442.479
347.287
296.215
265.137
243.643
227.391
214.484
203.821
194.78
187.107
180.834
176.195
173.519
172.961
174.855
179.275
187.275
200.261
219.572
250.228
296.346
357.172
424.051
485.062
540.085
588.031
629.547
664.563
694.714
715.018
722.041
718.301
705.747
691.633
675.488
660.049
644.574
629.88
615.473
601.96
589.643
578.95
569.973
562.63
556.873
552.586
549.688
548.251
547.842
548.39
549.896
552.249
555.332
559.051
563.306
568.016
573.103
578.502
584.158
590.023
596.06
602.239
608.536
614.932
621.407
627.948
634.541
641.176
647.842
654.53
661.238
667.952
674.662
681.358
688.031
694.671
701.272
707.825
714.324
720.761
727.128
733.41
739.616
745.745
751.79
757.747
763.612
769.384
775.06
780.636
786.108
791.471
796.72
801.847
806.849
811.72
816.457
821.056
825.514
829.828
833.994
838.01
841.872
845.577
849.122
852.504
855.722
858.773
861.657
864.37
866.912
869.28
871.473
873.49
875.328
876.989
878.47
879.771
880.893
881.834
882.595
883.175
883.572
883.77
883.801
883.658
883.333
882.829
882.147
881.289
880.256
879.052
877.678
876.14
874.44
872.583
870.572
868.41
866.102
863.652
861.063
858.341
855.489
852.512
849.415
846.203
842.883
839.462
835.946
832.338
828.646
824.875
821.032
817.126
813.161
809.143
805.079
800.975
796.839
792.675
788.488
784.283
780.066
775.844
771.626
767.42
763.238
759.091
754.992
750.96
747.02
743.207
739.563
736.18
733.075
730.16
11463.3
2971.33
1033.49
562.083
400.416
327.45
288.355
262.746
245.141
232.203
221.841
213.14
205.828
200.013
196.104
194.668
196.001
200.945
209.514
222.268
241.334
268.637
305.64
350.299
398.102
445.861
490.571
530.845
567.008
598.327
626.183
648.7
658.792
659.853
652.874
642.685
630.19
617.891
605.817
594.406
583.278
572.533
562.18
552.612
544.124
536.926
531.062
526.503
523.208
521.258
520.503
520.592
521.741
523.798
526.695
530.348
534.671
539.584
545.01
550.879
557.127
563.694
570.526
577.578
584.812
592.196
599.709
607.341
615.053
622.827
630.647
638.498
646.359
654.208
662.007
669.777
677.534
685.271
692.975
700.635
708.243
715.791
723.271
730.677
738.004
745.252
752.404
759.448
766.376
773.183
779.867
786.427
792.861
799.165
805.335
811.366
817.254
822.994
828.585
834.021
839.3
844.417
849.369
854.153
858.766
863.205
867.466
871.546
875.443
879.153
882.675
886.006
889.145
892.09
894.841
897.395
899.75
901.905
903.859
905.611
907.161
908.51
909.655
910.598
911.338
911.875
912.199
912.315
912.238
911.96
911.482
910.803
909.926
908.854
907.589
906.132
904.488
902.661
900.655
898.473
896.12
893.601
890.92
888.082
885.092
881.955
878.676
875.26
871.713
868.041
864.25
860.349
856.343
852.24
848.045
843.768
839.415
834.995
830.514
825.978
821.393
816.767
812.107
807.418
802.706
797.978
793.241
788.502
783.769
779.053
774.362
769.708
765.104
760.564
756.112
751.775
747.585
743.612
739.843
735.968
11463.3
2497.01
886.209
517.948
384.977
323.117
288.78
268.35
254.706
244.68
236.848
230.748
226.535
224.84
225.79
230.57
239.349
251.396
267.046
288.41
315.479
347.128
381.626
416.917
451.372
484.013
514.094
540.862
565.39
587.497
600.547
604.503
603.066
597.688
589.358
580.207
570.95
562.185
553.766
545.63
537.632
529.86
522.495
515.831
510.092
505.415
501.843
499.394
498.199
497.929
498.638
500.304
502.899
506.354
510.604
515.577
521.199
527.402
534.118
541.29
548.875
556.811
565.029
573.484
582.134
590.933
599.823
608.726
617.709
626.768
635.881
645.031
654.189
663.339
672.478
681.584
690.643
699.653
708.588
717.44
726.201
734.867
743.432
751.888
760.228
768.441
776.515
784.447
792.231
799.862
807.339
814.661
821.827
828.833
835.674
842.348
848.851
855.181
861.332
867.303
873.088
878.684
884.087
889.294
894.304
899.113
903.717
908.115
912.302
916.276
920.035
923.578
926.904
930.011
932.898
935.563
938.006
940.224
942.217
943.984
945.527
946.844
947.936
948.802
949.443
949.856
950.035
949.99
949.725
949.236
948.526
947.597
946.449
945.087
943.512
941.728
939.738
937.548
935.16
932.581
929.814
926.866
923.741
920.444
916.983
913.362
909.589
905.668
901.606
897.408
893.083
888.639
884.083
879.422
874.667
869.826
864.907
859.919
854.869
849.761
844.603
839.403
834.167
828.903
823.617
818.317
813.012
807.71
802.418
797.146
791.902
786.699
781.546
776.458
771.456
766.562
761.799
757.225
752.813
748.069
11463.3
2083
788.117
487.961
377.575
324.523
296.627
280.249
269.759
262.645
257.853
255.537
255.267
258.09
264.398
274.294
287.216
302.926
322.151
344.53
369.098
394.827
420.748
446.095
470.126
492.298
513.215
532.853
547.06
553.405
554.936
554.218
550.312
544.809
538.54
532.249
526.127
520.218
514.405
508.643
502.951
497.477
492.428
488.035
484.474
481.845
480.338
479.826
480.222
481.614
483.953
487.208
491.351
496.353
502.176
508.71
515.89
523.652
531.927
540.63
549.632
558.922
568.53
578.429
588.579
598.939
609.477
620.191
631.001
641.86
652.736
663.613
674.438
685.175
695.803
706.305
716.663
726.868
736.937
746.879
756.695
766.385
775.948
785.377
794.659
803.781
812.729
821.497
830.08
838.473
846.677
854.691
862.514
870.143
877.574
884.805
891.833
898.656
905.271
911.674
917.861
923.827
929.57
935.088
940.378
945.439
950.268
954.861
959.216
963.331
967.204
970.834
974.221
977.364
980.262
982.914
985.319
987.476
989.385
991.046
992.461
993.627
994.545
995.219
995.643
995.821
995.745
995.426
994.862
994.056
993.01
991.726
990.206
988.454
986.471
984.263
981.834
979.187
976.328
973.263
969.996
966.533
962.881
959.045
955.033
950.851
946.507
942.007
937.359
932.567
927.641
922.587
917.416
912.138
906.763
901.302
895.762
890.152
884.479
878.749
872.968
867.144
861.284
855.396
849.489
843.572
837.656
831.748
825.855
819.986
814.15
808.356
802.615
796.943
791.356
785.874
780.514
775.324
770.284
764.736
11463.3
1945.1
769.945
484.372
379.702
332.879
309.021
295.715
287.89
283.621
281.996
282.312
285.439
291.437
300.246
311.59
325.135
340.888
358.439
377.139
396.344
415.467
433.958
451.694
468.94
485.436
498.85
506.654
510.572
512.068
512.093
510.301
507.262
503.663
499.844
496.003
492.161
488.31
484.431
480.575
476.85
473.425
470.486
468.217
466.875
466.426
466.909
468.504
471.028
474.47
478.809
484.011
490.019
496.715
504.001
512.009
520.725
530.097
540.061
550.563
561.578
573.046
584.89
597.057
609.504
622.173
635.012
647.989
661.014
673.988
686.841
699.499
711.936
724.133
736.076
747.758
759.181
770.367
781.351
792.166
802.823
813.333
823.704
833.926
843.979
853.84
863.485
872.909
882.108
891.081
899.827
908.347
916.639
924.701
932.528
940.12
947.475
954.592
961.47
968.104
974.489
980.623
986.502
992.125
997.492
1002.6
1007.45
1012.03
1016.36
1020.41
1024.2
1027.72
1030.97
1033.95
1036.67
1039.12
1041.3
1043.21
1044.86
1046.24
1047.35
1048.19
1048.77
1049.09
1049.13
1048.92
1048.44
1047.69
1046.69
1045.42
1043.9
1042.13
1040.11
1037.84
1035.33
1032.57
1029.59
1026.37
1022.93
1019.28
1015.41
1011.33
1007.05
1002.59
997.934
993.105
988.106
982.946
977.633
972.173
966.576
960.844
954.993
949.035
942.983
936.845
930.63
924.346
917.999
911.596
905.143
898.648
892.116
885.559
878.989
872.416
865.85
859.298
852.767
846.264
839.798
833.378
827.016
820.726
814.525
808.43
802.452
796.632
790.97
784.666
11463.3
1886.34
746.807
482.003
387.005
344.63
323.749
312.67
306.835
304.349
303.936
306.109
310.858
317.896
326.909
337.559
349.572
362.669
376.465
390.541
404.486
418.307
432.143
445.411
456.548
464.394
469.836
473.724
475.752
476.567
476.703
476.001
474.716
473.141
471.393
469.54
467.611
465.656
463.757
462.066
460.824
460.144
459.985
460.538
461.919
464.097
466.996
470.426
474.759
480.064
486.343
493.573
501.72
510.774
520.742
531.541
543.139
555.457
568.419
581.96
596.023
610.529
625.386
640.527
655.917
671.461
687.018
702.456
717.682
732.634
747.239
761.432
775.172
788.438
801.226
813.542
825.416
836.923
848.171
859.258
870.189
880.99
891.691
902.27
912.685
922.888
932.822
942.503
951.933
961.105
970.017
978.669
987.061
995.188
1003.05
1010.64
1017.96
1025.02
1031.81
1038.33
1044.57
1050.53
1056.21
1061.61
1066.73
1071.56
1076.12
1080.38
1084.36
1088.05
1091.46
1094.57
1097.4
1099.95
1102.21
1104.2
1105.9
1107.32
1108.46
1109.31
1109.88
1110.17
1110.18
1109.92
1109.37
1108.55
1107.46
1106.1
1104.46
1102.56
1100.4
1097.97
1095.28
1092.34
1089.14
1085.7
1082.02
1078.11
1073.96
1069.58
1064.99
1060.19
1055.18
1049.98
1044.58
1039.01
1033.27
1027.36
1021.3
1015.09
1008.75
1002.27
995.671
988.976
982.19
975.322
968.379
961.368
954.297
947.174
940.004
932.794
925.547
918.283
911.013
903.749
896.499
889.271
882.069
874.902
867.774
860.697
853.684
846.751
839.912
833.183
826.572
820.111
813.831
806.812
11463.3
1852.11
744.22
488.215
397.869
358.021
338.497
328.249
323.077
321.051
320.888
323.474
328.265
334.791
342.619
351.4
360.922
370.95
381.238
391.683
402.412
412.564
421.209
428.368
434.274
439.329
443.315
446.497
448.978
450.994
452.703
454.195
455.451
456.495
457.381
458.174
458.929
459.715
460.587
461.564
462.512
463.933
466.112
469.322
473.537
478.719
484.888
492.164
500.483
509.873
520.344
531.851
544.343
557.786
572.15
587.375
603.511
620.321
637.668
655.444
673.55
691.879
710.322
728.765
747.061
765.114
782.86
800.196
817.011
833.198
848.646
863.306
877.162
890.244
902.583
914.185
925.087
935.473
945.617
955.839
965.967
976.053
986.214
996.357
1006.38
1016.22
1025.84
1035.2
1044.3
1053.11
1061.64
1069.88
1077.84
1085.5
1092.86
1099.93
1106.71
1113.2
1119.4
1125.31
1130.92
1136.24
1141.25
1145.96
1150.37
1154.48
1158.3
1161.81
1165.02
1167.94
1170.55
1172.86
1174.88
1176.6
1178.02
1179.17
1180.04
1180.61
1180.89
1180.87
1180.6
1180.01
1179.14
1178
1176.58
1174.87
1172.91
1170.66
1168.15
1165.37
1162.32
1159.01
1155.43
1151.61
1147.53
1143.2
1138.64
1133.84
1128.8
1123.55
1118.07
1112.38
1106.49
1100.41
1094.14
1087.69
1081.07
1074.29
1067.36
1060.29
1053.1
1045.8
1038.41
1030.92
1023.35
1015.7
1007.98
1000.2
992.354
984.464
976.535
968.571
960.575
952.573
944.577
936.595
928.635
920.702
912.804
904.946
897.132
889.374
881.692
874.098
866.607
859.231
851.977
844.866
837.972
830.276
11463.3
1829.77
743.647
496.229
407.6
368.802
350.012
339.764
334.383
332.194
331.878
334.025
338.058
343.438
349.747
356.726
364.266
372.246
380.389
388.286
395.75
402.843
409.698
416.111
422.157
427.913
433.347
438.508
443.354
447.863
451.957
455.438
458.61
461.706
464.81
468.01
471.386
475.035
479.053
483.573
488.856
495.031
502.349
511.078
520.935
531.858
543.883
557.064
571.346
586.732
603.351
621.003
639.508
658.734
678.556
698.825
719.325
740.042
760.888
781.758
802.55
823.164
843.507
863.49
883.026
902.041
920.47
938.242
955.271
971.449
986.586
1000.71
1013.87
1026.19
1037.74
1048.56
1058.69
1068.16
1077.1
1085.69
1094
1102.33
1111.2
1120.17
1129.05
1137.74
1146.24
1154.47
1162.41
1170.03
1177.36
1184.38
1191.09
1197.49
1203.57
1209.34
1214.81
1219.98
1224.87
1229.46
1233.76
1237.75
1241.43
1244.81
1247.89
1250.68
1253.17
1255.36
1257.25
1258.85
1260.15
1261.15
1261.87
1262.29
1262.43
1262.3
1261.92
1261.22
1260.25
1259
1257.49
1255.7
1253.65
1251.33
1248.74
1245.89
1242.79
1239.42
1235.8
1231.91
1227.77
1223.38
1218.74
1213.85
1208.73
1203.37
1197.79
1191.97
1185.94
1179.69
1173.23
1166.57
1159.71
1152.67
1145.45
1138.06
1130.51
1122.81
1114.96
1106.99
1098.89
1090.71
1082.45
1074.1
1065.66
1057.16
1048.58
1039.94
1031.26
1022.53
1013.78
1005
996.243
987.49
978.753
970.036
961.346
952.689
944.074
935.509
926.993
918.545
910.185
901.925
893.776
885.749
877.85
870.091
862.59
854.258
11463.3
1816.41
745.886
501.457
413.908
376.084
357.481
347.063
341.523
339.196
338.767
340.612
344.265
349.23
355.105
361.66
368.722
376.108
383.79
391.773
399.738
407.581
415.405
423.185
430.967
438.796
446.68
454.654
462.6
470.488
478.381
486.428
494.672
503.19
512.068
521.406
531.306
541.878
553.222
565.46
578.734
593.046
608.381
624.52
641.556
659.556
678.561
698.606
719.576
741.284
763.479
786.319
809.563
832.983
856.393
879.641
902.567
925.086
947.09
968.501
989.252
1009.31
1028.65
1047.24
1065.08
1082.15
1098.45
1113.98
1128.71
1142.66
1155.82
1168.15
1179.6
1190.37
1200.56
1210.2
1219.32
1227.77
1235.51
1242.47
1249.09
1255.94
1262.96
1269.84
1276.48
1282.83
1288.89
1294.65
1300.11
1305.27
1310.15
1314.74
1319.04
1323.05
1326.77
1330.21
1333.38
1336.3
1338.98
1341.4
1343.56
1345.44
1347.06
1348.41
1349.51
1350.35
1350.93
1351.25
1351.29
1351.11
1350.67
1349.94
1348.97
1347.75
1346.28
1344.58
1342.64
1340.45
1338.02
1335.34
1332.43
1329.28
1325.9
1322.28
1318.44
1314.36
1310.05
1305.52
1300.75
1295.75
1290.52
1285.06
1279.38
1273.48
1267.37
1261.04
1254.51
1247.77
1240.83
1233.7
1226.37
1218.85
1211.16
1203.29
1195.26
1187.07
1178.73
1170.25
1161.63
1152.89
1144.02
1135.05
1125.98
1116.82
1107.58
1098.26
1088.88
1079.43
1069.94
1060.41
1050.86
1041.3
1031.76
1022.23
1012.73
1003.25
993.797
984.385
975.022
965.718
956.497
947.371
938.344
929.427
920.627
911.957
903.422
895.028
886.93
878.014
11463.3
1805.09
747.558
504.187
416.858
381.214
363.203
353.468
349.31
347.873
348.479
351.559
356.352
362.419
369.695
378.363
387.715
397.485
408.207
420.033
432.571
445.385
458.858
473.019
487.854
503.348
519.473
536.198
553.512
571.453
590.028
609.287
629.131
649.568
670.609
692.34
714.846
738.314
762.661
787.804
813.612
839.949
866.636
893.467
920.428
947.51
974.781
1002.66
1030.67
1058.19
1084.83
1110.2
1134.37
1157.34
1179.09
1199.56
1218.75
1236.6
1253.16
1268.48
1282.62
1295.64
1307.67
1318.75
1328.94
1338.32
1346.93
1354.85
1362.13
1368.87
1375.33
1381.58
1387.65
1393.46
1398.91
1403.97
1408.55
1412.57
1416.35
1420.15
1424.3
1428.43
1431.89
1434.81
1437.34
1439.56
1441.54
1443.29
1444.84
1446.18
1447.32
1448.26
1449
1449.54
1449.89
1450.07
1450.06
1449.92
1449.64
1449.17
1448.52
1447.69
1446.67
1445.48
1444.11
1442.56
1440.84
1438.93
1436.83
1434.54
1432.06
1429.39
1426.53
1423.5
1420.28