/*--------------------------------*- C++ -*----------------------------------*\
  =========                 |
  \\      /  F ield         | OpenFOAM: The Open Source CFD Toolbox
   \\    /   O peration     | Website:  https://openfoam.org
    \\  /    A nd           | Version:  8
     \\/     M anipulation  |
\*---------------------------------------------------------------------------*/
FoamFile
{
    version     2.0;
    format      ascii;
    class       surfaceScalarField;
    location    "1200";
    object      phi;
}
// * * * * * * * * * * * * * * * * * * * * * * * * * * * * * * * * * * * * * //

dimensions      [0 3 -1 0 0 0 0];

internalField   nonuniform List<scalar> 
24170
(
2.99485e-06
1.39114e-07
2.85204e-06
1.43027e-07
2.72395e-06
1.28262e-07
2.60854e-06
1.15487e-07
2.50895e-06
9.96335e-08
2.42578e-06
8.32059e-08
2.35586e-06
6.99511e-08
2.29792e-06
5.78563e-08
2.24959e-06
4.82688e-08
2.20869e-06
4.08259e-08
2.17331e-06
3.53549e-08
2.14341e-06
2.98581e-08
2.12006e-06
2.33335e-08
2.10087e-06
1.91992e-08
2.08425e-06
1.6657e-08
2.07066e-06
1.36319e-08
2.06175e-06
8.96452e-09
2.34579e-09
2.05941e-06
3.51966e-06
7.5914e-08
3.5495e-06
1.13387e-07
3.56399e-06
1.14038e-07
3.56398e-06
1.15756e-07
3.55159e-06
1.12283e-07
3.53168e-06
1.03357e-07
3.50717e-06
9.46655e-08
3.47853e-06
8.658e-08
3.44842e-06
7.84336e-08
3.41844e-06
7.08454e-08
3.38893e-06
6.49187e-08
3.35926e-06
5.95396e-08
3.3298e-06
5.28026e-08
3.30231e-06
4.66713e-08
3.27692e-06
4.2029e-08
3.25337e-06
3.71488e-08
3.23096e-06
3.13499e-08
2.6048e-08
3.2072e-06
3.83334e-06
5.4797e-08
3.85133e-06
9.54415e-08
3.86631e-06
9.91094e-08
3.87991e-06
1.02145e-07
3.89094e-06
1.01214e-07
3.89855e-06
9.57288e-08
3.9032e-06
8.99973e-08
3.90541e-06
8.43054e-08
3.90551e-06
7.82678e-08
3.90376e-06
7.25506e-08
3.90094e-06
6.7718e-08
3.8972e-06
6.32598e-08
3.89194e-06
5.8058e-08
3.8856e-06
5.30288e-08
3.879e-06
4.86587e-08
3.87232e-06
4.38566e-08
3.86507e-06
3.8628e-08
3.33487e-08
3.85777e-06
4.21708e-06
4.22913e-08
4.22969e-06
8.29883e-08
4.23922e-06
8.97486e-08
4.24833e-06
9.32192e-08
4.25664e-06
9.3067e-08
4.26349e-06
8.9071e-08
4.26933e-06
8.42922e-08
4.27443e-06
7.93004e-08
4.27868e-06
7.40603e-08
4.28217e-06
6.91123e-08
4.28521e-06
6.46933e-08
4.28797e-06
6.05179e-08
4.29015e-06
5.58875e-08
4.29179e-06
5.13896e-08
4.29322e-06
4.72142e-08
4.29432e-06
4.27573e-08
4.29481e-06
3.81207e-08
3.34003e-08
4.29471e-06
4.64624e-06
3.33741e-08
4.65766e-06
7.15331e-08
4.66614e-06
8.12582e-08
4.67393e-06
8.539e-08
4.68108e-06
8.58735e-08
4.68713e-06
8.29821e-08
4.69247e-06
7.89332e-08
4.69728e-06
7.44421e-08
4.70154e-06
6.97604e-08
4.70536e-06
6.52712e-08
4.70892e-06
6.11168e-08
4.71234e-06
5.70856e-08
4.71543e-06
5.28002e-08
4.71824e-06
4.85828e-08
4.72093e-06
4.45383e-08
4.72335e-06
4.03477e-08
4.72537e-06
3.61005e-08
3.18822e-08
4.72697e-06
5.12131e-06
2.66866e-08
5.13197e-06
6.10682e-08
5.14038e-06
7.30247e-08
5.148e-06
7.79138e-08
5.15497e-06
7.90664e-08
5.16099e-06
7.71203e-08
5.16631e-06
7.37425e-08
5.17113e-06
6.97162e-08
5.17546e-06
6.54933e-08
5.17942e-06
6.13585e-08
5.18315e-06
5.74161e-08
5.18673e-06
5.35154e-08
5.19005e-06
4.94837e-08
5.19313e-06
4.5487e-08
5.19606e-06
4.15925e-08
5.19874e-06
3.76522e-08
5.20112e-06
3.37296e-08
2.981e-08
5.20313e-06
5.64624e-06
2.14613e-08
5.6559e-06
5.13456e-08
5.6643e-06
6.45882e-08
5.67205e-06
7.01341e-08
5.67917e-06
7.19187e-08
5.68543e-06
7.08455e-08
5.69101e-06
6.8149e-08
5.69605e-06
6.46588e-08
5.70063e-06
6.08924e-08
5.70485e-06
5.71298e-08
5.70882e-06
5.34294e-08
5.71261e-06
4.97296e-08
5.71613e-06
4.59448e-08
5.71943e-06
4.21877e-08
5.72252e-06
3.84935e-08
5.72535e-06
3.48138e-08
5.72789e-06
3.11636e-08
2.76172e-08
5.73014e-06
4.40922e-06
1.83569e-08
4.41544e-06
4.53097e-08
4.42146e-06
5.87123e-08
4.4271e-06
6.46285e-08
4.43233e-06
6.6804e-08
4.43705e-06
6.62493e-08
4.4413e-06
6.40026e-08
4.44514e-06
6.08911e-08
4.44865e-06
5.74326e-08
4.4519e-06
5.39196e-08
4.45495e-06
5.04e-08
4.45783e-06
4.68594e-08
4.46051e-06
4.32574e-08
4.46301e-06
3.96829e-08
4.46534e-06
3.61558e-08
4.46747e-06
3.26733e-08
4.46939e-06
2.92451e-08
2.59117e-08
4.47108e-06
5.14273e-06
1.54999e-08
5.14885e-06
3.91179e-08
5.15517e-06
5.23754e-08
5.16127e-06
5.85295e-08
5.16705e-06
6.10427e-08
5.17235e-06
6.09678e-08
5.17715e-06
5.92167e-08
5.18153e-06
5.65262e-08
5.18554e-06
5.34295e-08
5.18927e-06
5.01938e-08
5.19277e-06
4.69063e-08
5.19605e-06
4.35647e-08
5.19913e-06
4.01815e-08
5.20198e-06
3.68053e-08
5.20463e-06
3.34996e-08
5.20704e-06
3.02308e-08
5.20923e-06
2.70397e-08
2.39906e-08
5.21117e-06
5.99841e-06
1.28617e-08
6.00435e-06
3.32671e-08
6.01087e-06
4.59473e-08
6.01736e-06
5.21255e-08
6.02364e-06
5.48449e-08
6.02951e-06
5.51716e-08
6.03491e-06
5.38778e-08
6.03985e-06
5.16138e-08
6.04442e-06
4.88903e-08
6.04868e-06
4.59557e-08
6.05267e-06
4.29231e-08
6.05641e-06
3.9816e-08
6.05991e-06
3.6664e-08
6.06317e-06
3.35601e-08
6.06617e-06
3.0468e-08
6.06891e-06
2.74781e-08
6.07141e-06
2.45532e-08
2.17807e-08
6.07364e-06
6.99664e-06
1.05187e-08
7.00228e-06
2.76105e-08
7.00892e-06
3.93305e-08
7.01574e-06
4.53659e-08
7.02246e-06
4.81692e-08
7.02887e-06
4.88119e-08
7.03485e-06
4.79269e-08
7.0404e-06
4.61027e-08
7.04556e-06
4.37497e-08
7.05038e-06
4.11551e-08
7.0549e-06
3.84018e-08
7.05914e-06
3.5568e-08
7.06312e-06
3.27196e-08
7.06679e-06
2.98642e-08
7.0702e-06
2.70864e-08
7.07329e-06
2.43566e-08
7.07614e-06
2.17413e-08
1.92432e-08
7.07868e-06
8.16113e-06
8.38148e-09
8.16645e-06
2.23281e-08
8.17312e-06
3.27086e-08
8.18018e-06
3.83457e-08
8.18729e-06
4.11021e-08
8.19421e-06
4.19343e-08
8.20076e-06
4.14048e-08
8.20691e-06
3.99457e-08
8.21268e-06
3.80034e-08
8.21808e-06
3.57314e-08
8.22316e-06
3.33258e-08
8.22794e-06
3.0805e-08
8.2324e-06
2.82793e-08
8.23656e-06
2.57432e-08
8.24037e-06
2.32739e-08
8.24388e-06
2.08607e-08
8.24707e-06
1.85519e-08
1.63739e-08
8.24998e-06
9.51964e-06
6.49615e-09
9.52459e-06
1.74082e-08
9.5312e-06
2.61493e-08
9.53845e-06
3.11454e-08
9.5459e-06
3.36986e-08
9.55329e-06
3.45923e-08
9.56039e-06
3.42898e-08
9.56716e-06
3.32056e-08
9.57353e-06
3.1584e-08
9.57957e-06
2.97149e-08
9.58522e-06
2.76311e-08
9.59058e-06
2.55091e-08
9.59555e-06
2.32988e-08
9.60022e-06
2.11497e-08
9.60447e-06
1.89851e-08
9.60843e-06
1.69402e-08
9.61201e-06
1.49385e-08
1.30977e-08
9.61528e-06
1.11044e-05
4.76668e-09
1.11091e-05
1.27879e-08
1.11156e-05
1.9683e-08
1.11229e-05
2.37797e-08
1.11307e-05
2.59577e-08
1.11385e-05
2.67819e-08
1.11462e-05
2.66368e-08
1.11536e-05
2.58037e-08
1.11606e-05
2.45503e-08
1.11673e-05
2.30129e-08
1.11736e-05
2.13439e-08
1.11795e-05
1.95655e-08
1.11851e-05
1.7781e-08
1.11903e-05
1.5964e-08
1.11951e-05
1.4215e-08
1.11994e-05
1.2501e-08
1.12035e-05
1.08946e-08
9.37195e-09
1.12072e-05
1.29532e-05
3.16313e-09
1.29576e-05
8.38232e-09
1.2964e-05
1.32622e-08
1.29715e-05
1.62581e-08
1.29796e-05
1.78765e-08
1.29879e-05
1.84957e-08
1.29961e-05
1.83917e-08
1.30041e-05
1.77731e-08
1.30119e-05
1.68137e-08
1.30192e-05
1.56393e-08
1.30262e-05
1.43442e-08
1.30328e-05
1.29786e-08
1.3039e-05
1.15869e-08
1.30448e-05
1.01974e-08
1.30501e-05
8.8453e-09
1.30551e-05
7.54586e-09
1.30596e-05
6.31894e-09
5.18332e-09
1.30638e-05
1.511e-05
1.61625e-09
1.51142e-05
4.0636e-09
1.51206e-05
6.84812e-09
1.51283e-05
8.51406e-09
1.51368e-05
9.3918e-09
1.51456e-05
9.67151e-09
1.51545e-05
9.49924e-09
1.51633e-05
9.01522e-09
1.51718e-05
8.31223e-09
1.51799e-05
7.48045e-09
1.51877e-05
6.57094e-09
1.51951e-05
5.62703e-09
1.5202e-05
4.67218e-09
1.52085e-05
3.73239e-09
1.52144e-05
2.82448e-09
1.522e-05
1.96329e-09
1.52252e-05
1.15653e-09
4.25651e-10
1.52299e-05
1.7626e-05
6.15821e-11
1.76303e-05
-2.92762e-10
1.7637e-05
2.26407e-10
1.76451e-05
3.53206e-10
1.76542e-05
3.25611e-10
1.76638e-05
8.72155e-11
1.76735e-05
-2.29316e-10
1.76832e-05
-6.74942e-10
1.76927e-05
-1.12808e-09
1.77018e-05
-1.64205e-09
1.77105e-05
-2.12879e-09
1.77188e-05
-2.63605e-09
1.77265e-05
-3.10357e-09
1.77338e-05
-3.5659e-09
1.77406e-05
-3.98218e-09
1.7747e-05
-4.3763e-09
1.77528e-05
-4.72238e-09
-5.02467e-09
1.77583e-05
1.78277e-05
-1.42238e-09
1.78319e-05
-4.4046e-09
1.78383e-05
-6.1493e-09
1.78463e-05
-7.50708e-09
1.78551e-05
-8.54179e-09
1.78646e-05
-9.2511e-09
1.78741e-05
-9.83664e-09
1.78837e-05
-1.01931e-08
1.7893e-05
-1.04992e-08
1.79021e-05
-1.06422e-08
1.79107e-05
-1.07775e-08
1.79189e-05
-1.08025e-08
1.79266e-05
-1.08362e-08
1.79339e-05
-1.07933e-08
1.79406e-05
-1.0761e-08
1.79469e-05
-1.06724e-08
1.79527e-05
-1.05935e-08
-1.04602e-08
1.79582e-05
1.58828e-05
-2.82902e-09
1.58867e-05
-8.27416e-09
1.58927e-05
-1.20273e-08
1.59e-05
-1.47388e-08
1.59081e-05
-1.65437e-08
1.59166e-05
-1.77519e-08
1.59253e-05
-1.8443e-08
1.59339e-05
-1.88176e-08
1.59424e-05
-1.88581e-08
1.59504e-05
-1.8755e-08
1.59582e-05
-1.84679e-08
1.59654e-05
-1.81314e-08
1.59723e-05
-1.76962e-08
1.59787e-05
-1.72577e-08
1.59848e-05
-1.67697e-08
1.59904e-05
-1.62994e-08
1.59956e-05
-1.5804e-08
-1.53255e-08
1.60004e-05
1.41501e-05
-4.28226e-09
1.41542e-05
-1.22585e-08
1.41601e-05
-1.78857e-08
1.41672e-05
-2.17198e-08
1.41748e-05
-2.4175e-08
1.41829e-05
-2.56835e-08
1.41909e-05
-2.64927e-08
1.41989e-05
-2.67259e-08
1.42066e-05
-2.65782e-08
1.42141e-05
-2.61262e-08
1.42211e-05
-2.55013e-08
1.42277e-05
-2.4743e-08
1.42339e-05
-2.3923e-08
1.42397e-05
-2.30595e-08
1.42451e-05
-2.2195e-08
1.42502e-05
-2.13302e-08
1.42548e-05
-2.04933e-08
-1.96655e-08
1.42592e-05
1.26066e-05
-5.9042e-09
1.2611e-05
-1.65983e-08
1.26171e-05
-2.39816e-08
1.26241e-05
-2.86934e-08
1.26316e-05
-3.16076e-08
1.26393e-05
-3.33233e-08
1.2647e-05
-3.41165e-08
1.26545e-05
-3.41893e-08
1.26617e-05
-3.37446e-08
1.26685e-05
-3.29552e-08
1.2675e-05
-3.19515e-08
1.26811e-05
-3.07965e-08
1.26867e-05
-2.95827e-08
1.2692e-05
-2.83259e-08
1.26969e-05
-2.70901e-08
1.27015e-05
-2.58696e-08
1.27057e-05
-2.46994e-08
-2.35669e-08
1.27096e-05
1.12317e-05
-7.78554e-09
1.12366e-05
-2.15235e-08
1.1243e-05
-3.04435e-08
1.12501e-05
-3.57676e-08
1.12575e-05
-3.89539e-08
1.12649e-05
-4.07675e-08
1.12723e-05
-4.14518e-08
1.12794e-05
-4.12625e-08
1.12862e-05
-4.04817e-08
1.12925e-05
-3.9312e-08
1.12985e-05
-3.78927e-08
1.13041e-05
-3.63432e-08
1.13093e-05
-3.47196e-08
1.1314e-05
-3.30997e-08
1.13185e-05
-3.14911e-08
1.13225e-05
-2.99459e-08
1.13263e-05
-2.84515e-08
-2.70462e-08
1.13298e-05
1.00069e-05
-1.01184e-08
1.00126e-05
-2.71501e-08
1.00194e-05
-3.73083e-08
1.00266e-05
-4.29245e-08
1.00338e-05
-4.62435e-08
1.00411e-05
-4.80426e-08
1.00482e-05
-4.85203e-08
1.00549e-05
-4.79927e-08
1.00613e-05
-4.67962e-08
1.00672e-05
-4.51991e-08
1.00727e-05
-4.33525e-08
1.00777e-05
-4.13837e-08
1.00824e-05
-3.93678e-08
1.00867e-05
-3.73666e-08
1.00907e-05
-3.54203e-08
1.00943e-05
-3.35492e-08
1.00976e-05
-3.17731e-08
-3.00934e-08
1.01007e-05
8.9161e-06
-1.31033e-08
8.92263e-06
-3.37372e-08
8.92988e-06
-4.45908e-08
8.9371e-06
-5.01813e-08
8.94433e-06
-5.34869e-08
8.95143e-06
-5.51531e-08
8.95819e-06
-5.52981e-08
8.96452e-06
-5.43229e-08
8.97039e-06
-5.26684e-08
8.97582e-06
-5.06112e-08
8.9808e-06
-4.83257e-08
8.98539e-06
-4.59322e-08
8.98958e-06
-4.35394e-08
8.99342e-06
-4.11811e-08
8.99692e-06
-3.89102e-08
9.00012e-06
-3.6737e-08
9.00306e-06
-3.46888e-08
-3.27697e-08
9.00573e-06
7.94465e-06
-1.711e-08
7.95226e-06
-4.13308e-08
7.95987e-06
-5.21979e-08
7.9672e-06
-5.75213e-08
7.97445e-06
-6.07568e-08
7.98141e-06
-6.21269e-08
7.98787e-06
-6.17831e-08
7.99381e-06
-6.02733e-08
7.99925e-06
-5.81123e-08
8.00423e-06
-5.55813e-08
8.00878e-06
-5.28562e-08
8.01293e-06
-5.00839e-08
8.01673e-06
-4.73202e-08
8.0202e-06
-4.4637e-08
8.02338e-06
-4.20526e-08
8.02626e-06
-3.96064e-08
8.0289e-06
-3.73114e-08
-3.51449e-08
8.03128e-06
7.07972e-06
-2.24892e-08
7.08861e-06
-5.02334e-08
7.09675e-06
-6.03951e-08
7.10444e-06
-6.52449e-08
7.11193e-06
-6.8249e-08
7.1189e-06
-6.91218e-08
7.12524e-06
-6.81354e-08
7.13098e-06
-6.60373e-08
7.13618e-06
-6.33024e-08
7.14091e-06
-6.03081e-08
7.14523e-06
-5.71736e-08
7.14919e-06
-5.4021e-08
7.15282e-06
-5.09471e-08
7.15615e-06
-4.7949e-08
7.15919e-06
-4.50874e-08
7.16197e-06
-4.23624e-08
7.16451e-06
-3.98333e-08
-3.7449e-08
7.16682e-06
6.31016e-06
-3.01408e-08
6.32102e-06
-6.11901e-08
6.33049e-06
-6.98042e-08
6.33943e-06
-7.41941e-08
6.34796e-06
-7.68055e-08
6.3557e-06
-7.68895e-08
6.36263e-06
-7.51026e-08
6.36892e-06
-7.22608e-08
6.37459e-06
-6.90316e-08
6.37984e-06
-6.55506e-08
6.3847e-06
-6.20247e-08
6.38918e-06
-5.85037e-08
6.3933e-06
-5.50361e-08
6.39707e-06
-5.17284e-08
6.40051e-06
-4.85097e-08
6.40363e-06
-4.54612e-08
6.40643e-06
-4.2628e-08
-3.99666e-08
6.40895e-06
5.62943e-06
-4.46845e-08
5.64509e-06
-7.69346e-08
5.65905e-06
-8.3781e-08
5.67243e-06
-8.75889e-08
5.68478e-06
-8.91967e-08
5.69598e-06
-8.81223e-08
5.70615e-06
-8.52619e-08
5.71539e-06
-8.14977e-08
5.72368e-06
-7.73467e-08
5.73101e-06
-7.29016e-08
5.73733e-06
-6.83592e-08
5.74267e-06
-6.38096e-08
5.74704e-06
-5.94103e-08
5.75052e-06
-5.51979e-08
5.75312e-06
-5.11109e-08
5.75494e-06
-4.72802e-08
5.75608e-06
-4.37622e-08
-4.08115e-08
5.75693e-06
5.04924e-06
-9.16383e-08
5.08544e-06
-1.1325e-07
5.11182e-06
-1.10184e-07
5.13005e-06
-1.05847e-07
5.14122e-06
-1.00417e-07
5.14633e-06
-9.32588e-08
5.14647e-06
-8.5409e-08
5.14256e-06
-7.75812e-08
5.13513e-06
-6.99421e-08
5.12487e-06
-6.26671e-08
5.11235e-06
-5.58426e-08
5.09822e-06
-4.9666e-08
5.08286e-06
-4.4054e-08
5.06665e-06
-3.89915e-08
5.05018e-06
-3.46444e-08
5.03374e-06
-3.08331e-08
5.01742e-06
-2.74331e-08
-2.49328e-08
5.00155e-06
4.36491e-06
4.25165e-06
4.14147e-06
4.03562e-06
3.93519e-06
3.84194e-06
3.75653e-06
3.67894e-06
3.609e-06
3.54633e-06
3.49049e-06
3.44082e-06
3.39677e-06
3.35777e-06
3.32313e-06
3.2923e-06
3.26487e-06
3.23994e-06
-8.07832e-09
8.05593e-09
-2.20386e-08
1.39278e-08
-3.71522e-08
1.50894e-08
-5.00808e-08
1.28899e-08
-5.56493e-08
5.57111e-09
-4.79808e-08
-7.73737e-09
-2.49047e-08
-2.30319e-08
1.0943e-08
-3.59329e-08
5.57273e-08
-4.47067e-08
1.04398e-07
-4.87401e-08
1.52858e-07
-4.83659e-08
1.97749e-07
-4.49434e-08
2.37361e-07
-3.95193e-08
2.70194e-07
-3.2879e-08
2.95811e-07
-2.55313e-08
3.1355e-07
-1.77841e-08
3.23385e-07
-9.76394e-09
3.2478e-07
-1.43753e-09
3.17754e-07
7.07815e-09
3.02332e-07
1.53944e-08
2.79278e-07
2.31001e-08
2.49466e-07
2.98081e-08
2.1439e-07
3.51194e-08
1.75822e-07
3.85807e-08
1.36102e-07
3.97628e-08
9.77604e-08
3.83656e-08
6.34026e-08
3.43916e-08
3.51065e-08
2.83178e-08
1.39829e-08
2.11393e-08
-3.85101e-13
1.40047e-08
-7.66855e-09
7.63649e-09
-9.32947e-09
1.69256e-09
-4.84697e-09
-4.55189e-09
7.10974e-09
-1.19012e-08
2.76803e-08
-2.06556e-08
5.67641e-08
-2.90355e-08
9.01008e-08
-3.34123e-08
1.21864e-07
-3.17681e-08
1.46677e-07
-2.48784e-08
1.61575e-07
-1.49555e-08
1.6679e-07
-5.29038e-09
1.65229e-07
1.46579e-09
1.60595e-07
4.54749e-09
1.5658e-07
3.88336e-09
1.55437e-07
1.03809e-09
1.50779e-07
4.45759e-09
1.33193e-07
1.74305e-08
9.47764e-08
3.8191e-08
3.0253e-08
6.43075e-08
-5.87514e-08
8.88647e-08
-1.67592e-07
1.08804e-07
-2.93099e-07
1.25417e-07
-4.31616e-07
1.38574e-07
-5.75997e-07
1.44285e-07
-7.22708e-07
1.46743e-07
-8.69265e-07
1.46528e-07
-1.01219e-06
1.42956e-07
-1.1488e-06
1.36617e-07
-1.27754e-06
1.28765e-07
-1.39703e-06
1.19497e-07
-1.50681e-06
1.09788e-07
-1.60799e-06
1.01185e-07
-1.7005e-06
9.25199e-08
-1.78505e-06
8.45582e-08
-1.8628e-06
7.77505e-08
-1.93433e-06
7.15356e-08
-2.00041e-06
6.60827e-08
-2.06167e-06
6.12614e-08
-2.1187e-06
5.70366e-08
-2.172e-06
5.33096e-08
-2.22201e-06
5.00094e-08
-2.26906e-06
4.70622e-08
-2.31346e-06
4.44066e-08
-2.35543e-06
4.19895e-08
-2.39519e-06
3.97655e-08
-2.43287e-06
3.76997e-08
-2.46863e-06
3.57597e-08
-2.50253e-06
3.39253e-08
-2.5347e-06
3.21723e-08
-2.56517e-06
3.04925e-08
-2.59405e-06
2.88656e-08
-2.62133e-06
2.72925e-08
-2.64711e-06
2.57536e-08
-2.67135e-06
2.42563e-08
-2.69415e-06
2.27786e-08
-2.71546e-06
2.13323e-08
-2.73537e-06
1.98921e-08
-2.75384e-06
1.84721e-08
-2.77093e-06
1.70569e-08
-2.78665e-06
1.56392e-08
-2.80093e-06
1.42278e-08
-2.81377e-06
1.28137e-08
-2.82516e-06
1.13868e-08
-2.83509e-06
9.9409e-09
-2.84353e-06
8.46017e-09
-2.85044e-06
6.94203e-09
-2.85578e-06
5.36491e-09
-2.85948e-06
3.72372e-09
-2.86148e-06
2.00564e-09
-2.86176e-06
2.85795e-10
-2.86051e-06
-1.26508e-09
-2.85792e-06
-2.60763e-09
-2.85407e-06
-3.88228e-09
-2.84896e-06
-5.13501e-09
-2.84261e-06
-6.38715e-09
-2.83502e-06
-7.63893e-09
-2.82617e-06
-8.89448e-09
-2.81607e-06
-1.01519e-08
-2.80472e-06
-1.14107e-08
-2.79211e-06
-1.26716e-08
-2.77824e-06
-1.39306e-08
-2.76311e-06
-1.51919e-08
-2.74673e-06
-1.64474e-08
-2.7291e-06
-1.77052e-08
-2.7102e-06
-1.89533e-08
-2.69008e-06
-2.02035e-08
-2.66869e-06
-2.14399e-08
-2.64609e-06
-2.26779e-08
-2.62224e-06
-2.38985e-08
-2.59719e-06
-2.51201e-08
-2.57091e-06
-2.63208e-08
-2.54345e-06
-2.75214e-08
-2.51479e-06
-2.86977e-08
-2.48496e-06
-2.98719e-08
-2.45396e-06
-3.10187e-08
-2.42183e-06
-3.21604e-08
-2.38856e-06
-3.32717e-08
-2.3542e-06
-3.43749e-08
-2.31874e-06
-3.54448e-08
-2.28222e-06
-3.64982e-08
-2.24465e-06
-3.75197e-08
-2.20608e-06
-3.85176e-08
-2.16655e-06
-3.9475e-08
-2.12613e-06
-4.03951e-08
-2.08485e-06
-4.12547e-08
-2.04276e-06
-4.20571e-08
-1.99994e-06
-4.27678e-08
-1.95631e-06
-4.35724e-08
-1.91181e-06
-4.44344e-08
-1.86656e-06
-4.51849e-08
-1.82061e-06
-4.58879e-08
-1.774e-06
-4.65484e-08
-1.72675e-06
-4.71742e-08
-1.67892e-06
-4.77623e-08
-1.63054e-06
-4.83199e-08
-1.58164e-06
-4.88416e-08
-1.53228e-06
-4.93374e-08
-1.48247e-06
-4.97995e-08
-1.43227e-06
-5.02229e-08
-1.38168e-06
-5.06133e-08
-1.33075e-06
-5.09565e-08
-1.27951e-06
-5.12634e-08
-1.22801e-06
-5.15321e-08
-1.17628e-06
-5.17603e-08
-1.12436e-06
-5.19594e-08
-1.07227e-06
-5.21247e-08
-1.02003e-06
-5.22683e-08
-9.67674e-07
-5.23921e-08
-9.15205e-07
-5.2505e-08
-8.62629e-07
-5.26091e-08
-8.09955e-07
-5.27112e-08
-7.57179e-07
-5.28095e-08
-7.04307e-07
-5.29064e-08
-6.51339e-07
-5.29973e-08
-5.98283e-07
-5.30852e-08
-5.45136e-07
-5.31688e-08
-4.91904e-07
-5.32542e-08
-4.38577e-07
-5.3343e-08
-3.85156e-07
-5.34381e-08
-3.31631e-07
-5.3538e-08
-2.78013e-07
-5.36344e-08
-2.24321e-07
-5.37063e-08
-1.70612e-07
-5.37253e-08
-1.16995e-07
-5.36328e-08
-6.36719e-08
-5.33395e-08
-1.11134e-08
-5.25724e-08
4.00839e-08
-5.12102e-08
8.81929e-08
-4.81169e-08
1.3238e-07
-4.41924e-08
-1.91918e-08
1.51567e-07
-3.47004e-09
1.14835e-08
-9.67303e-09
2.00759e-08
-1.25083e-08
1.78712e-08
-4.83809e-09
5.14019e-09
1.83499e-08
-1.76311e-08
5.59385e-08
-4.53897e-08
1.03527e-07
-7.0601e-08
1.55475e-07
-8.79231e-08
2.06885e-07
-9.60838e-08
2.54398e-07
-9.62829e-08
2.96691e-07
-9.0615e-08
3.32936e-07
-8.12104e-08
3.63167e-07
-6.97012e-08
3.87439e-07
-5.71695e-08
4.0622e-07
-4.42639e-08
4.19762e-07
-3.13411e-08
4.28609e-07
-1.85686e-08
4.33196e-07
-6.03859e-09
4.34026e-07
6.2837e-09
4.30913e-07
1.85058e-08
4.23467e-07
3.05781e-08
4.11043e-07
4.22437e-08
3.93142e-07
5.30513e-08
3.69405e-07
6.23401e-08
3.39913e-07
6.92842e-08
3.05296e-07
7.3003e-08
2.66944e-07
7.27682e-08
2.27027e-07
6.8254e-08
1.88475e-07
5.97008e-08
1.54689e-07
4.78077e-08
1.28931e-07
3.33806e-08
1.1367e-07
1.69785e-08
1.10081e-07
-1.00445e-09
1.1807e-07
-1.98513e-08
1.35354e-07
-3.79821e-08
1.56852e-07
-5.05065e-08
1.75491e-07
-5.20881e-08
1.86709e-07
-4.29937e-08
1.88866e-07
-2.70794e-08
1.81956e-07
-8.10964e-09
1.67509e-07
9.08999e-09
1.47106e-07
2.17373e-08
1.15607e-07
3.5948e-08
6.25688e-08
5.67317e-08
-2.12847e-08
8.47631e-08
-1.36817e-07
1.19856e-07
-2.75727e-07
1.56257e-07
-4.27979e-07
1.90383e-07
-5.85693e-07
2.21967e-07
-7.45386e-07
2.48522e-07
-9.0436e-07
2.67754e-07
-1.0589e-06
2.79925e-07
-1.20525e-06
2.84904e-07
-1.34279e-06
2.81798e-07
-1.46831e-06
2.72252e-07
-1.58064e-06
2.5885e-07
-1.68014e-06
2.42464e-07
-1.76803e-06
2.2452e-07
-1.84549e-06
2.06229e-07
-1.91439e-06
1.88408e-07
-1.97613e-06
1.71534e-07
-2.03137e-06
1.56432e-07
-2.08171e-06
1.42865e-07
-2.12797e-06
1.30822e-07
-2.17063e-06
1.2042e-07
-2.21044e-06
1.11346e-07
-2.2478e-06
1.03441e-07
-2.28305e-06
9.65173e-08
-2.31643e-06
9.04209e-08
-2.34812e-06
8.50059e-08
-2.37826e-06
8.01509e-08
-2.40694e-06
7.57508e-08
-2.43425e-06
7.17189e-08
-2.46023e-06
6.79835e-08
-2.48494e-06
6.44871e-08
-2.50842e-06
6.11829e-08
-2.53068e-06
5.80336e-08
-2.55175e-06
5.50105e-08
-2.57167e-06
5.2089e-08
-2.59042e-06
4.92526e-08
-2.60804e-06
4.64842e-08
-2.62452e-06
4.37755e-08
-2.63989e-06
4.11129e-08
-2.65412e-06
3.84928e-08
-2.66726e-06
3.59025e-08
-2.67926e-06
3.33406e-08
-2.69016e-06
3.07942e-08
-2.69995e-06
2.82638e-08
-2.70867e-06
2.57375e-08
-2.71631e-06
2.3218e-08
-2.72282e-06
2.06995e-08
-2.7282e-06
1.81805e-08
-2.73246e-06
1.56567e-08
-2.73563e-06
1.31212e-08
-2.73772e-06
1.05722e-08
-2.73876e-06
8.00905e-09
-2.7388e-06
5.43398e-09
-2.73792e-06
2.85909e-09
-2.73622e-06
3.11476e-10
-2.73376e-06
-2.17142e-09
-2.73042e-06
-4.61328e-09
-2.72598e-06
-7.05992e-09
-2.72037e-06
-9.51894e-09
-2.71354e-06
-1.19821e-08
-2.70551e-06
-1.44534e-08
-2.69625e-06
-1.69303e-08
-2.68577e-06
-1.94151e-08
-2.67405e-06
-2.19038e-08
-2.66111e-06
-2.43977e-08
-2.64693e-06
-2.68927e-08
-2.63152e-06
-2.93892e-08
-2.61487e-06
-3.18839e-08
-2.597e-06
-3.43758e-08
-2.57789e-06
-3.68626e-08
-2.55755e-06
-3.93419e-08
-2.53599e-06
-4.18125e-08
-2.51321e-06
-4.42705e-08
-2.48921e-06
-4.67163e-08
-2.46402e-06
-4.91443e-08
-2.43762e-06
-5.15566e-08
-2.41003e-06
-5.39462e-08
-2.38127e-06
-5.63162e-08
-2.35134e-06
-5.86575e-08
-2.32026e-06
-6.09745e-08
-2.28805e-06
-6.32562e-08
-2.25471e-06
-6.55077e-08
-2.22027e-06
-6.77169e-08
-2.18476e-06
-6.98901e-08
-2.14818e-06
-7.20142e-08
-2.11057e-06
-7.40914e-08
-2.07194e-06
-7.61123e-08
-2.03233e-06
-7.80802e-08
-1.99179e-06
-7.99828e-08
-1.95035e-06
-8.1821e-08
-1.90801e-06
-8.35863e-08
-1.86476e-06
-8.52787e-08
-1.8206e-06
-8.68951e-08
-1.77562e-06
-8.85101e-08
-1.72993e-06
-9.00912e-08
-1.6835e-06
-9.1568e-08
-1.63639e-06
-9.29571e-08
-1.58863e-06
-9.42686e-08
-1.54026e-06
-9.55064e-08
-1.4913e-06
-9.66732e-08
-1.44181e-06
-9.77709e-08
-1.39182e-06
-9.88034e-08
-1.34138e-06
-9.97715e-08
-1.29051e-06
-1.00676e-07
-1.23924e-06
-1.01507e-07
-1.1876e-06
-1.02269e-07
-1.13562e-06
-1.02951e-07
-1.08335e-06
-1.0356e-07
-1.03081e-06
-1.04095e-07
-9.78035e-07
-1.04556e-07
-9.25065e-07
-1.04952e-07
-8.71924e-07
-1.05289e-07
-8.18638e-07
-1.05577e-07
-7.65223e-07
-1.05831e-07
-7.11693e-07
-1.06058e-07
-6.58056e-07
-1.06271e-07
-6.04315e-07
-1.06476e-07
-5.50471e-07
-1.06678e-07
-4.96526e-07
-1.06874e-07
-4.42479e-07
-1.07064e-07
-3.88337e-07
-1.07246e-07
-3.34097e-07
-1.07423e-07
-2.79761e-07
-1.07603e-07
-2.25321e-07
-1.07792e-07
-1.70774e-07
-1.07993e-07
-1.16113e-07
-1.08205e-07
-6.13425e-08
-1.08413e-07
-6.4822e-09
-1.08574e-07
4.84235e-08
-1.08639e-07
1.03287e-07
-1.08504e-07
1.57926e-07
-1.07985e-07
2.12104e-07
-1.06756e-07
2.65165e-07
-1.04276e-07
3.16524e-07
-9.94782e-08
3.62902e-07
-9.05699e-08
-6.33208e-08
4.07031e-07
3.36998e-10
1.11133e-08
3.96496e-09
1.63859e-08
1.90196e-08
2.76829e-09
5.30994e-08
-2.89905e-08
1.04355e-07
-6.88941e-08
1.62961e-07
-1.04029e-07
2.19303e-07
-1.26934e-07
2.6788e-07
-1.36526e-07
3.07182e-07
-1.35367e-07
3.37828e-07
-1.26949e-07
3.61482e-07
-1.14242e-07
3.79578e-07
-9.93192e-08
3.93374e-07
-8.34644e-08
4.03592e-07
-6.73971e-08
4.10858e-07
-5.14941e-08
4.15453e-07
-3.59407e-08
4.17742e-07
-2.08214e-08
4.17887e-07
-6.18455e-09
4.16255e-07
7.95094e-09
4.13141e-07
2.16266e-08
4.08867e-07
3.48857e-08
4.0342e-07
4.77056e-08
3.96564e-07
5.99384e-08
3.87683e-07
7.12417e-08
3.75971e-07
8.10226e-08
3.60565e-07
8.84342e-08
3.40923e-07
9.24296e-08
3.17256e-07
9.19408e-08
2.90802e-07
8.61688e-08
2.63862e-07
7.47633e-08
2.39283e-07
5.79601e-08
2.19713e-07
3.65686e-08
2.06649e-07
1.20527e-08
1.99822e-07
-1.2999e-08
1.94531e-07
-3.27017e-08
1.8367e-07
-3.96273e-08
1.63714e-07
-3.21448e-08
1.35038e-07
-1.43271e-08
9.82714e-08
9.65727e-09
5.12296e-08
3.88852e-08
-1.20215e-08
7.22671e-08
-9.84425e-08
1.0808e-07
-2.0988e-07
1.47325e-07
-3.43106e-07
1.89903e-07
-4.9177e-07
2.33391e-07
-6.46627e-07
2.74686e-07
-8.01395e-07
3.11004e-07
-9.51277e-07
3.4025e-07
-1.09095e-06
3.6163e-07
-1.2173e-06
3.74846e-07
-1.32934e-06
3.79778e-07
-1.42652e-06
3.7708e-07
-1.50924e-06
3.67601e-07
-1.57984e-06
3.52374e-07
-1.6407e-06
3.33105e-07
-1.69362e-06
3.11765e-07
-1.74066e-06
2.89505e-07
-1.78352e-06
2.67381e-07
-1.82344e-06
2.4616e-07
-1.86141e-06
2.26378e-07
-1.8981e-06
2.0823e-07
-1.93358e-06
1.91922e-07
-1.96812e-06
1.7741e-07
-2.00183e-06
1.64537e-07
-2.03461e-06
1.53198e-07
-2.06646e-06
1.43199e-07
-2.09736e-06
1.34344e-07
-2.1273e-06
1.26456e-07
-2.15625e-06
1.19376e-07
-2.1842e-06
1.12965e-07
-2.21115e-06
1.07102e-07
-2.23708e-06
1.01686e-07
-2.26199e-06
9.6633e-08
-2.28587e-06
9.18728e-08
-2.30873e-06
8.73486e-08
-2.33055e-06
8.3015e-08
-2.35134e-06
7.88352e-08
-2.37111e-06
7.47806e-08
-2.38984e-06
7.08278e-08
-2.40754e-06
6.69591e-08
-2.42422e-06
6.31596e-08
-2.43986e-06
5.94183e-08
-2.45448e-06
5.57248e-08
-2.46806e-06
5.2072e-08
-2.48061e-06
4.84512e-08
-2.49213e-06
4.4857e-08
-2.50261e-06
4.12811e-08
-2.51207e-06
3.77184e-08
-2.52053e-06
3.41641e-08
-2.52796e-06
3.06106e-08
-2.53435e-06
2.70622e-08
-2.53969e-06
2.35133e-08
-2.54398e-06
1.99622e-08
-2.54725e-06
1.64042e-08
-2.54949e-06
1.28409e-08
-2.55073e-06
9.26995e-09
-2.55097e-06
5.69823e-09
-2.55023e-06
2.12858e-09
-2.54848e-06
-1.42512e-09
-2.54569e-06
-4.9669e-09
-2.54179e-06
-8.51808e-09
-2.53676e-06
-1.21027e-08
-2.53058e-06
-1.57139e-08
-2.52323e-06
-1.93463e-08
-2.51471e-06
-2.29946e-08
-2.50501e-06
-2.66573e-08
-2.49412e-06
-3.03311e-08
-2.48204e-06
-3.40142e-08
-2.46877e-06
-3.77042e-08
-2.45429e-06
-4.13981e-08
-2.43862e-06
-4.50944e-08
-2.42175e-06
-4.8789e-08
-2.40369e-06
-5.24812e-08
-2.38442e-06
-5.61653e-08
-2.36396e-06
-5.98412e-08
-2.3423e-06
-6.35024e-08
-2.31946e-06
-6.7149e-08
-2.29544e-06
-7.07741e-08
-2.27024e-06
-7.43784e-08
-2.24387e-06
-7.79548e-08
-2.21635e-06
-8.15038e-08
-2.18767e-06
-8.5018e-08
-2.15786e-06
-8.84969e-08
-2.12692e-06
-9.19329e-08
-2.09487e-06
-9.5324e-08
-2.06173e-06
-9.86627e-08
-2.02751e-06
-1.01946e-07
-1.99223e-06
-1.05168e-07
-1.95592e-06
-1.08324e-07
-1.91858e-06
-1.11405e-07
-1.88027e-06
-1.14407e-07
-1.84099e-06
-1.17328e-07
-1.8008e-06
-1.2016e-07
-1.75971e-06
-1.229e-07
-1.71774e-06
-1.25547e-07
-1.67491e-06
-1.28096e-07
-1.63123e-06
-1.30551e-07
-1.58678e-06
-1.32935e-07
-1.54161e-06
-1.3523e-07
-1.49575e-06
-1.37405e-07
-1.44922e-06
-1.39461e-07
-1.40205e-06
-1.41405e-07
-1.35428e-06
-1.43238e-07
-1.30596e-06
-1.44965e-07
-1.25711e-06
-1.46587e-07
-1.20779e-06
-1.48109e-07
-1.15802e-06
-1.49532e-07
-1.10783e-06
-1.50858e-07
-1.05726e-06
-1.52079e-07
-1.00634e-06
-1.53197e-07
-9.55081e-07
-1.5421e-07
-9.0353e-07
-1.55113e-07
-8.51716e-07
-1.55912e-07
-7.99673e-07
-1.56601e-07
-7.47431e-07
-1.57197e-07
-6.95018e-07
-1.57704e-07
-6.42457e-07
-1.58142e-07
-5.89764e-07
-1.58525e-07
-5.36954e-07
-1.58871e-07
-4.84034e-07
-1.59194e-07
-4.31009e-07
-1.59505e-07
-3.77878e-07
-1.59812e-07
-3.24642e-07
-1.60114e-07
-2.71303e-07
-1.60405e-07
-2.17863e-07
-1.60689e-07
-1.64321e-07
-1.60967e-07
-1.10675e-07
-1.61251e-07
-5.69184e-08
-1.6155e-07
-3.04486e-09
-1.61869e-07
5.0952e-08
-1.62204e-07
1.05069e-07
-1.62532e-07
1.59296e-07
-1.62803e-07
2.1359e-07
-1.62936e-07
2.67875e-07
-1.62792e-07
3.22024e-07
-1.62137e-07
3.75835e-07
-1.6057e-07
4.28955e-07
-1.57399e-07
4.80966e-07
-1.51491e-07
5.30933e-07
-1.40539e-07
-1.1471e-07
5.82319e-07
-1.3831e-10
1.12261e-08
1.33808e-08
2.8058e-09
5.39772e-08
-3.78493e-08
1.16387e-07
-9.14336e-08
1.83255e-07
-1.35762e-07
2.40608e-07
-1.61406e-07
2.83114e-07
-1.69432e-07
3.11695e-07
-1.65126e-07
3.30002e-07
-1.53659e-07
3.41603e-07
-1.38565e-07
3.4921e-07
-1.21827e-07
3.54334e-07
-1.04452e-07
3.57843e-07
-8.69447e-08
3.6001e-07
-6.95683e-08
3.61023e-07
-5.24739e-08
3.60846e-07
-3.57622e-08
3.5957e-07
-1.95073e-08
3.57166e-07
-3.77397e-09
3.53772e-07
1.13849e-08
3.49472e-07
2.59397e-08
3.44537e-07
3.98611e-08
3.39151e-07
5.31102e-08
3.33518e-07
6.56083e-08
3.27604e-07
7.718e-08
3.21183e-07
8.74757e-08
3.13723e-07
9.59167e-08
3.04525e-07
1.01652e-07
2.92915e-07
1.03577e-07
2.78541e-07
1.00558e-07
2.61645e-07
9.16855e-08
2.43171e-07
7.64412e-08
2.24449e-07
5.53215e-08
2.05623e-07
3.08745e-08
1.82597e-07
1.00551e-08
1.48637e-07
1.24663e-09
1.01845e-07
7.18098e-09
4.32313e-08
2.64495e-08
-2.84051e-08
5.73059e-08
-1.15886e-07
9.71078e-08
-2.20033e-07
1.43004e-07
-3.3969e-07
1.91898e-07
-4.72696e-07
2.41055e-07
-6.14042e-07
2.88645e-07
-7.57237e-07
3.33078e-07
-8.96151e-07
3.72289e-07
-1.02522e-06
4.03742e-07
-1.14052e-06
4.26295e-07
-1.24052e-06
4.40239e-07
-1.32475e-06
4.45851e-07
-1.39388e-06
4.43962e-07
-1.44978e-06
4.35666e-07
-1.4948e-06
4.22084e-07
-1.53163e-06
4.04415e-07
-1.56311e-06
3.83835e-07
-1.59159e-06
3.6158e-07
-1.61862e-06
3.38786e-07
-1.64532e-06
3.16211e-07
-1.67238e-06
2.94438e-07
-1.70009e-06
2.73874e-07
-1.72849e-06
2.54785e-07
-1.75752e-06
2.37263e-07
-1.78695e-06
2.21347e-07
-1.81653e-06
2.06995e-07
-1.84608e-06
1.94092e-07
-1.87539e-06
1.8251e-07
-1.90429e-06
1.72098e-07
-1.93264e-06
1.627e-07
-1.96035e-06
1.54168e-07
-1.98733e-06
1.46365e-07
-2.01354e-06
1.39169e-07
-2.03891e-06
1.32474e-07
-2.06341e-06
1.26191e-07
-2.08701e-06
1.20241e-07
-2.10969e-06
1.14561e-07
-2.13144e-06
1.091e-07
-2.15223e-06
1.03816e-07
-2.17207e-06
9.86756e-08
-2.19093e-06
9.36518e-08
-2.20883e-06
8.87237e-08
-2.22574e-06
8.3875e-08
-2.24167e-06
7.90921e-08
-2.25662e-06
7.43645e-08
-2.27058e-06
6.96832e-08
-2.28355e-06
6.50407e-08
-2.29553e-06
6.04299e-08
-2.30652e-06
5.58448e-08
-2.31652e-06
5.12784e-08
-2.32553e-06
4.6725e-08
-2.33357e-06
4.21766e-08
-2.34062e-06
3.76339e-08
-2.34667e-06
3.30886e-08
-2.35169e-06
2.85421e-08
-2.35571e-06
2.39915e-08
-2.35872e-06
1.9432e-08
-2.36072e-06
1.48636e-08
-2.36171e-06
1.02825e-08
-2.36168e-06
5.69157e-09
-2.36063e-06
1.08939e-09
-2.35853e-06
-3.52035e-09
-2.35535e-06
-8.14731e-09
-2.35107e-06
-1.28034e-08
-2.34568e-06
-1.75008e-08
-2.33917e-06
-2.22331e-08
-2.33154e-06
-2.69963e-08
-2.32277e-06
-3.17828e-08
-2.31286e-06
-3.65909e-08
-2.30179e-06
-4.14149e-08
-2.28958e-06
-4.62528e-08
-2.27621e-06
-5.11002e-08
-2.26168e-06
-5.59546e-08
-2.24599e-06
-6.08126e-08
-2.22914e-06
-6.56701e-08
-2.21112e-06
-7.05249e-08
-2.19195e-06
-7.53708e-08
-2.17161e-06
-8.02068e-08
-2.15012e-06
-8.50243e-08