/*--------------------------------*- C++ -*----------------------------------*\
  =========                 |
  \\      /  F ield         | OpenFOAM: The Open Source CFD Toolbox
   \\    /   O peration     | Website:  https://openfoam.org
    \\  /    A nd           | Version:  8
     \\/     M anipulation  |
\*---------------------------------------------------------------------------*/
FoamFile
{
    version     2.0;
    format      ascii;
    class       volVectorField;
    location    "1200";
    object      wallShearStress;
}
// * * * * * * * * * * * * * * * * * * * * * * * * * * * * * * * * * * * * * //

dimensions      [0 2 -2 0 0 0 0];

internalField   uniform (0 0 0);

boundaryField
{
    inlet
    {
        type            calculated;
        value           uniform (0 0 0);
    }
    outlet
    {
        type            calculated;
        value           uniform (0 0 0);
    }
    upperWall
    {
        type            calculated;
        value           nonuniform List<vector> 
223
(
(-0.444246 0.00295881 0)
(-0.478285 0.00547323 0)
(-0.499831 0.00685349 0)
(-0.5043 0.00745316 0)
(-0.500195 0.00751498 0)
(-0.489522 0.00716245 0)
(-0.4773 0.00661938 0)
(-0.464986 0.00599357 0)
(-0.452312 0.0053364 0)
(-0.440479 0.00470686 0)
(-0.429717 0.00412747 0)
(-0.420051 0.00360264 0)
(-0.411456 0.00313313 0)
(-0.403841 0.00271876 0)
(-0.397106 0.00235638 0)
(-0.391148 0.00205632 0)
(-0.385813 0.00182041 0)
(-0.381059 0.00168264 0)
(-0.377266 0.00160893 0)
(-0.374264 0.00156558 5.86498e-22)
(-0.371319 0.00150283 0)
(-0.368448 0.00142884 0)
(-0.365647 0.00134957 0)
(-0.362921 0.00126831 5.98311e-22)
(-0.360275 0.00118709 0)
(-0.357712 0.00110787 0)
(-0.35523 0.00103096 0)
(-0.352833 0.000957478 -1.2172e-21)
(-0.35051 0.000886436 1.22204e-21)
(-0.348276 0.000818379 1.22681e-21)
(-0.346111 0.000751773 0)
(-0.344042 0.000687367 -1.23612e-21)
(-0.34204 0.000623146 0)
(-0.34014 0.000559283 1.24519e-21)
(-0.33832 0.000496862 1.24963e-21)
(-0.336601 0.000434594 -1.25399e-21)
(-0.334968 0.000373641 0)
(-0.333457 0.000320843 0)
(-0.331997 0.000272662 0)
(-0.330642 0.000228853 0)
(-0.32935 0.000196852 -1.27454e-21)
(-0.328098 0.000176909 0)
(-0.326872 0.000161541 0)
(-0.325673 0.000155058 1.28656e-21)
(-0.324498 0.000159938 0)
(-0.323319 0.000161044 1.29522e-21)
(-0.322152 0.000154241 -1.29962e-21)
(-0.321014 0.000142813 1.30407e-21)
(-0.319924 0.000129514 0)
(-0.318885 0.000115931 0)
(-0.317896 0.000103146 0)
(-0.316953 9.18015e-05 1.32283e-21)
(-0.31605 8.21622e-05 -1.32767e-21)
(-0.315183 7.42163e-05 0)
(-0.314349 6.82247e-05 0)
(-0.313544 6.4063e-05 0)
(-0.312764 6.16723e-05 0)
(-0.312006 6.11201e-05 0)
(-0.311266 6.21721e-05 0)
(-0.310542 6.48553e-05 0)
(-0.30983 6.89135e-05 0)
(-0.309126 7.43749e-05 1.37248e-21)
(-0.308429 8.13741e-05 -1.3777e-21)
(-0.307734 8.95273e-05 0)
(-0.30704 9.83838e-05 0)
(-0.306345 0.000107595 0)
(-0.305652 0.000117342 -1.3992e-21)
(-0.304938 0.000127484 0)
(-0.304259 0.000138339 0)
(-0.303497 0.000160603 0)
(-0.302812 0.000144987 0)
(-0.301993 0.000110783 0)
(-0.301711 0.000129955 -2.87043e-21)
(-0.301398 0.000239766 0)
(-0.301109 0.000424641 0)
(-0.300781 0.000366505 0)
(-0.300614 0.00014295 0)
(-0.351267 0.000258579 0)
(-0.335572 0.000365998 0)
(-0.360296 0.000392031 0)
(-0.333143 0.00039854 3.32518e-21)
(-0.315727 0.000245101 0)
(-0.346961 0.00025965 0)
(-0.33197 0.00127241 0)
(-0.321823 0.00164471 -3.2101e-21)
(-0.327016 0.000878992 0)
(-0.324986 0.000353185 -3.31158e-21)
(-0.309846 0.000206684 0)
(-0.303862 5.49209e-05 0)
(-0.297293 -0.000122307 0)
(-0.317004 -9.98406e-05 -3.35869e-21)
(-0.361125 -5.06318e-05 0)
(-0.375811 0.000290084 4.00629e-21)
(-0.347029 -9.59549e-05 3.69083e-21)
(-0.350286 0.000492487 0)
(-0.32963 0.00116564 3.47549e-21)
(-0.314651 0.000945775 0)
(-0.305472 0.000856349 0)
(-0.306522 0.000387996 0)
(-0.30569 5.46587e-05 -3.27892e-21)
(-0.294093 -0.000273574 0)
(-0.311812 -0.000304462 -3.36682e-21)
(-0.350689 6.15039e-05 3.78901e-21)
(-0.327121 0.0011138 0)
(-0.30654 0.00131443 0)
(-0.295473 0.00089567 0)
(-0.291392 0.000679918 0)
(-0.290932 3.46669e-05 0)
(-0.339778 0.00076355 0)
(-0.31457 0.00113632 0)
(-0.297282 0.000688434 -3.18836e-21)
(-0.288539 0.000451493 0)
(-0.28961 -9.38856e-05 0)
(-0.287631 -3.18453e-05 0)
(-0.287044 -5.40738e-05 0)
(-0.307544 -8.03989e-05 0)
(-0.327375 0.000342628 0)
(-0.347193 3.05802e-05 0)
(-0.342752 0.000248225 0)
(-0.315001 0.00121665 0)
(-0.283117 0.00108711 0)
(-0.282166 0.00138146 0)
(-0.280793 0.00194252 0)
(-0.27946 0.00155943 -5.52333e-21)
(-0.278277 0.000619684 0)
(-0.277432 -0.000295708 0)
(-0.294546 -0.00061591 0)
(-0.300777 -0.00039135 5.85555e-21)
(-0.292982 -0.000185409 0)
(-0.303349 0.000340969 0)
(-0.279547 0.00123494 5.16714e-21)
(-0.271015 0.00112256 0)
(-0.270002 0.000268465 -4.77241e-21)
(-0.284548 0.000606191 0)
(-0.267421 0.000788722 0)
(-0.291934 0.00101741 0)
(-0.265053 0.000871893 4.16832e-21)
(-0.293728 0.000892234 0)
(-0.26263 0.000740319 -3.82958e-21)
(-0.29028 0.000750393 0)
(-0.259964 0.000656813 0)
(-0.28375 0.000771184 0)
(-0.256974 0.00129325 0)
(-0.255176 0.000653424 0)
(-0.269277 -0.000107421 0)
(-0.264295 0.000281917 0)
(-0.249875 0.000542045 0)
(-0.251681 0.00056811 0)
(-0.246261 0.000540428 0)
(-0.247032 3.30928e-05 0)
(-0.2412 0.000231811 -1.17998e-21)
(-0.23898 -1.85153e-05 8.8486e-22)
(-0.235283 0.000879402 0)
(-0.235032 0.00156576 0)
(-0.233183 0.00101471 0)
(-0.256884 0.00178279 0)
(-0.230867 0.00202459 -6.99883e-22)
(-0.229322 0.00192403 1.04829e-21)
(-0.228001 0.00150479 -1.40448e-21)
(-0.226043 0.00183125 0)
(-0.224015 0.000590973 -2.14952e-21)
(-0.220597 -0.00126409 -5.44618e-21)
(-0.217366 -0.000845401 0)
(-0.213954 -2.39028e-05 -7.18703e-21)
(-0.212361 0.000613605 7.82758e-21)
(-0.224363 0.0016052 0)
(-0.21054 0.00221732 0)
(-0.209466 0.00202808 0)
(-0.208327 0.00115981 0)
(-0.206171 -0.000353573 0)
(-0.202248 -0.000354062 -1.40336e-20)
(-0.201218 -5.547e-05 0)
(-0.197571 -0.000530869 -1.64539e-20)
(-0.194745 0.000864871 0)
(-0.194814 0.000497971 0)
(-0.191294 -0.00121227 0)
(-0.186527 0.000411439 0)
(-0.186732 0.0021354 0)
(-0.186041 0.00168358 2.25936e-20)
(-0.182981 0.000910463 0)
(-0.179671 0.000967012 0)
(-0.178101 0.00132471 -2.75254e-20)
(-0.177659 0.00119684 0)
(-0.176408 0.000781889 0)
(-0.174442 0.000523355 0)
(-0.171866 0.000432822 3.31998e-20)
(-0.168274 0.000380788 0)
(-0.162863 0.000306425 0)
(-0.154571 0.000334454 0)
(-0.142971 0.000694443 0)
(-0.128987 0.00122887 -5.65911e-20)
(-0.114373 0.00163259 0)
(-0.100752 0.00174865 0)
(-0.0888834 0.00158513 0)
(-0.079357 0.00140142 9.41953e-20)
(-0.0691174 0.00131935 0)
(-0.0640778 0.00176346 0)
(-0.0353406 0.00147315 -1.38702e-19)
(-0.0675904 0.000461189 -6.01853e-36)
(-0.101549 0.00576389 1.18559e-17)
(-0.124848 0.0101614 2.12672e-17)
(-0.137234 0.0127407 1.9986e-17)
(-0.144539 0.0141532 1.92159e-17)
(-0.149982 0.0150205 1.86022e-17)
(-0.154249 0.0156283 -1.80847e-17)
(-0.157258 0.0160611 -1.76076e-17)
(-0.159578 0.0163543 0)
(-0.161657 0.0165839 -3.36364e-17)
(-0.16375 0.0167872 -1.64402e-17)
(-0.165873 0.0169857 4.87501e-34)
(-0.168327 0.0171885 0)
(-0.171212 0.01743 -3.02552e-17)
(-0.174732 0.0177218 -2.91291e-17)
(-0.178871 0.0180782 -2.78083e-17)
(-0.183774 0.0185035 -4.81482e-35)
(-0.189388 0.0190005 4.90913e-17)
(-0.195925 0.0195831 2.25376e-17)
(-0.203142 0.0202358 1.20371e-35)
(-0.211857 0.0210186 -3.51785e-17)
(-0.220189 0.0218005 -1.23362e-20)
(-0.233769 0.0229646 -3.00927e-36)
(-0.238108 0.0236917 1.32405e-17)
(-0.263837 0.0252609 -7.10972e-18)
)
;
    }
    lowerWall
    {
        type            calculated;
        value           nonuniform List<vector> 
250
(
(-0.623052 -0.00596657 0)
(-0.595721 -0.00923888 0)
(-0.645958 -0.0109246 0)
(-0.635334 -0.0105039 0)
(-0.671728 -0.0109433 0)
(-0.578774 -0.00846304 0)
(-0.509983 -0.00591853 0)
(-0.53819 -0.00523889 0)
(-0.522036 -0.00432324 0)
(-0.550955 -0.00395241 0)
(-0.563841 -0.00266375 0)
(-0.538498 -0.0028303 0)
(-0.477048 -0.00316833 0)
(-0.437609 -0.0031952 0)
(-0.445894 -0.00405445 0)
(-0.423575 -0.00288284 0)
(-0.421015 -0.000708545 0)
(-0.420252 0.000596757 0)
(0.00215902 0.00026701 0)
(0.00239636 -0.00254847 0)
(0.0026441 -0.00545157 0)
(0.00294166 -0.00849247 1.12922e-19)
(0.00330484 -0.0114591 -9.48536e-20)
(0.00372648 -0.0151523 8.20603e-20)
(0.00365916 -0.0149955 -7.40057e-20)
(0.0101052 -0.0352954 0)
(-0.0470806 -0.108132 0)
(0.000223882 -0.000275678 0)
(6.08214e-05 -0.000791747 0)
(-6.12057e-06 -0.000879415 0)
(5.69853e-05 -0.000880893 0)
(3.47216e-05 -0.000851978 1.53941e-19)
(-0.000140042 -0.000287772 -1.50128e-19)
(-0.000574735 0.00114599 0)
(-0.00117213 0.00384194 -1.72559e-19)
(-0.00155074 0.00728145 1.31917e-19)
(-0.00149576 0.0105303 0)
(-0.00110139 0.0129287 0)
(-0.000566365 0.0141899 0)
(-5.22871e-05 0.0142886 0)
(0.0003552 0.0134142 0)
(0.000694798 0.0118514 0)
(0.00102749 0.00964822 0)
(0.00139277 0.00684398 0)
(0.00180495 0.00348907 0)
(-0.000143003 -0.000278455 0)
(0.000169587 -0.000448222 0)
(0.000480361 -0.000500492 0)
(0.000801756 -0.000430665 0)
(0.00105788 -0.000196529 -0)
(0.00110492 0.000191894 -0)
(0.000857679 0.000657838 1.43849e-20)
(0.000344699 0.001095 -1.63741e-20)
(-0.00036638 0.001413 0)
(-0.00118113 0.00157215 -9.39134e-21)
(-0.00202107 0.00158572 0)
(-0.00282149 0.00148375 0)
(-0.0035371 0.00130267 0)
(-0.0041428 0.00107322 4.60492e-21)
(-0.00462715 0.000816305 0)
(-0.00498583 0.000543708 0)
(-0.00521635 0.000263764 -3.99463e-21)
(-0.00532314 -2.9625e-05 -0)
(-0.00528077 -0.000333627 0)
(-0.00508819 -0.000626585 -0)
(-0.00475438 -0.000888426 4.30714e-21)
(-0.00429128 -0.00109861 -0)
(-0.00371724 -0.00123574 5.11488e-21)
(-0.00306032 -0.00128008 0)
(-0.00235908 -0.00121706 -0)
(-0.001664 -0.00104362 8.38119e-21)
(-0.00103408 -0.000776963 0)
(-0.000528183 -0.000464464 -1.40484e-20)
(-0.000177933 -0.00018252 0)
(3.9592e-05 5.69038e-06 2.37219e-20)
(0.000178884 0.000114263 0)
(0.000259042 0.00020714 0)
(0.000247491 0.000320714 0)
(0.00013266 0.000476181 0)
(-0.000123262 0.00068469 0)
(-0.000545465 0.000899334 -1.48744e-20)
(-0.0011132 0.00104164 0)
(-0.00173341 0.00103656 1.75681e-20)
(-0.00228536 0.000877309 0)
(-0.00267328 0.000616089 -1.39999e-20)
(-0.00286132 0.000340104 0)
(-0.00288094 0.000120514 0)
(-0.00278746 8.82097e-07 1.38154e-20)
(-0.00265478 5.58201e-06 0)
(-0.00254944 0.000129323 1.43193e-20)
(-0.0024808 0.000315637 -1.44227e-20)
(-0.00239486 0.000415828 0)
(-0.00214622 0.000194898 -1.57508e-20)
(-0.00147697 -0.000470469 -1.84577e-20)
(-0.000128417 -0.00114331 0)
(0.0016336 -0.00171216 0)
(0.00352332 -0.00234563 0)
(0.00567818 -0.00303621 0)
(0.00807402 -0.00361916 -0)
(0.0106262 -0.00390992 3.37548e-21)
(0.0131809 -0.00394195 0)
(0.0156486 -0.0038722 -2.69168e-21)
(0.0183921 -0.00377849 -0)
(0.0214116 -0.00361011 -0)
(0.0224005 -0.00317481 2.13356e-21)
(0.0251824 -0.00306871 0)
(0.0279336 -0.00283443 -2.05043e-21)
(0.028543 -0.00246148 -0)
(0.0311732 -0.00234847 0)
(0.0332971 -0.0021734 -0)
(0.0352851 -0.0020248 1.82331e-21)
(0.0372541 -0.00189101 0)
(0.0391115 -0.0017713 -0)
(0.0409002 -0.0016646 1.7772e-21)
(0.0426358 -0.00156997 0)
(0.0443007 -0.00148523 1.75635e-21)
(0.0459264 -0.00140904 0)
(0.0474953 -0.00133981 0)
(0.049028 -0.00127612 0)
(0.0505143 -0.00121712 -1.72607e-21)
(0.051966 -0.00116165 -0)
(0.0533774 -0.00110915 0)
(0.0547547 -0.00105879 -1.70699e-21)
(0.0560947 -0.00101042 -1.70063e-21)
(0.0574007 -0.000963341 -0)
(0.0586707 -0.000917539 -1.68749e-21)
(0.0599059 -0.000872531 0)
(0.0611054 -0.00082844 -3.34659e-21)
(0.0622694 -0.000784828 -0)
(0.0633971 -0.000741798 -3.31522e-21)
(0.0644876 -0.000699025 -0)
(0.065541 -0.000656597 3.28017e-21)
(0.0665557 -0.000614238 0)
(0.0675317 -0.000571864 0)
(0.0684669 -0.000529127 0)
(0.0693606 -0.000486222 -3.19689e-21)
(0.0702118 -0.000442604 -0)
(0.0710187 -0.000397942 3.14771e-21)
(0.0717791 -0.000351896 0)
(0.0724914 -0.000304082 -3.09268e-21)
(0.0731528 -0.000254298 -3.0629e-21)
(0.0737613 -0.000202405 -3.03166e-21)
(0.0743145 -0.000149123 -0)
(0.0748117 -9.60079e-05 0)
(0.0752524 -4.71275e-05 0)
(0.0756421 -7.10432e-06 0)
(0.0759864 2.72853e-05 0)
(0.076287 6.13771e-05 0)
(0.0765422 9.46753e-05 0)
(0.0767527 0.000127913 0)
(0.0769173 0.000160978 2.67968e-21)
(0.0770358 0.000194074 2.63144e-21)
(0.0771071 0.000226952 0)
(0.0771313 0.000259816 0)
(0.0771073 0.000292559 0)
(0.0770351 0.000325149 2.4188e-21)
(0.0769141 0.000357629 0)
(0.0767438 0.000389894 0)
(0.0765246 0.000422009 0)
(0.0762553 0.000453879 0)
(0.0759367 0.00048555 -2.10595e-21)
(0.0755679 0.0005169 0)
(0.0751496 0.000547985 0)
(0.0746814 0.00057859 1.89078e-21)
(0.0741641 0.000608924 -1.8141e-21)
(0.0735972 0.000638709 0)
(0.072982 0.000668068 -1.6529e-21)
(0.0723182 0.000696733 0)
(0.0716075 0.000724921 1.48078e-21)
(0.0708495 0.000752352 0)
(0.0700462 0.000779088 0)
(0.0691981 0.000805028 0)
(0.0683083 0.000830086 0)
(0.0673701 0.000853875 0)
(0.0664031 0.000877082 -1.78634e-21)
(0.0653735 0.000898507 -1.56793e-21)
(0.064327 0.00091892 0)
(0.0632216 0.000937046 0)
(0.062098 0.000951128 0)
(0.0609416 0.000959405 6.28588e-22)
(0.059754 0.000958679 0)
(0.0585419 0.000951457 0)
(0.057296 0.000955652 0)
(0.0560213 0.000970158 -4.24691e-22)
(0.0547165 0.00098052 7.08048e-22)
(0.0533892 0.000989959 0)
(0.0520396 0.000998054 0)
(0.0506712 0.00100527 1.6101e-21)
(0.0492846 0.00101148 1.92897e-21)
(0.047882 0.00101688 0)
(0.0464642 0.0010213 0)
(0.045033 0.001025 -2.94528e-21)
(0.0435894 0.00102792 3.30565e-21)
(0.0421351 0.00103029 0)
(0.0406709 0.00103216 0)
(0.0391982 0.00103354 4.46095e-21)
(0.0377179 0.00103442 0)
(0.0362316 0.00103497 0)
(0.03474 0.00103518 5.74543e-21)
(0.0332449 0.00103517 0)
(0.0317472 0.00103517 6.68808e-21)
(0.0302475 0.0010353 0)
(0.0287467 0.00103573 0)
(0.0272449 0.00103656 0)
(0.0257426 0.00103796 -8.83825e-21)
(0.0242396 0.00103995 0)
(0.0227358 0.00104263 0)
(0.0212309 0.00104592 0)
(0.0197251 0.00104988 0)
(0.0182181 0.0010545 0)
(0.0167099 0.0010599 0)
(0.0152006 0.00106616 -1.39106e-20)
(0.0136897 0.00107343 -1.48419e-20)
(0.0121769 0.00108176 0)
(0.0106619 0.00109117 0)
(0.00914407 0.00110149 0)
(0.0076236 0.0011125 1.94043e-20)
(0.00610105 0.00112421 0)
(0.00457812 0.00113573 -4.47702e-20)
(0.0030588 0.00114414 4.8239e-20)
(0.0015521 0.00114421 5.2103e-20)
(6.24112e-05 0.00111536 -5.48061e-20)
(-0.00131859 0.00105212 5.42508e-20)
(-0.00285322 0.000887395 -5.22555e-20)
(-0.0031965 0.000500876 0)
(-0.00518193 0.00111195 -3.11334e-18)
(-0.00829461 0.000884846 -2.82018e-18)
(-0.0113829 0.000539289 0)
(-0.0145682 0.000215344 -4.79485e-18)
(-0.0179652 -0.00012511 -8.91584e-18)
(-0.0215775 -0.000484991 -4.16001e-18)
(-0.0254156 -0.000864917 3.89232e-18)
(-0.0295012 -0.00126912 6.01853e-36)
(-0.0338591 -0.00170038 3.00927e-36)
(-0.0385058 -0.00216294 3.22109e-18)
(-0.0434593 -0.00265626 3.02913e-18)
(-0.0487365 -0.00314576 3.00927e-36)
(-0.0543458 -0.00366328 0)
(-0.0603501 -0.00425979 0)
(-0.0668017 -0.00491748 -5.03112e-36)
(-0.0737066 -0.00562864 1.03444e-36)
(-0.0812116 -0.00639497 7.52316e-35)
(-0.0891786 -0.00722162 -3.75814e-18)
(-0.0981685 -0.00811905 -3.42392e-18)
(-0.107257 -0.00908985 6.01853e-36)
(-0.118827 -0.0101578 5.38742e-18)
(-0.128413 -0.0113288 8.94272e-18)
(-0.145835 -0.0125634 0)
(-0.153265 -0.0140737 -4.31348e-18)
(-0.187897 -0.0164235 1.20371e-35)
)
;
    }
    frontAndBack
    {
        type            empty;
    }
}


// ************************************************************************* //
