/*--------------------------------*- C++ -*----------------------------------*\
  =========                 |
  \\      /  F ield         | OpenFOAM: The Open Source CFD Toolbox
   \\    /   O peration     | Website:  https://openfoam.org
    \\  /    A nd           | Version:  8
     \\/     M anipulation  |
\*---------------------------------------------------------------------------*/
FoamFile
{
    version     2.0;
    format      ascii;
    class       volVectorField;
    location    "700";
    object      U;
}
// * * * * * * * * * * * * * * * * * * * * * * * * * * * * * * * * * * * * * //

dimensions      [0 1 -1 0 0 0 0];

internalField   nonuniform List<vector> 
12225
(
(9.75111 0.053633 0)
(9.29182 0.0984538 0)
(8.87274 0.0987007 0)
(8.46055 0.0936025 0)
(8.10754 0.0814132 0)
(7.81962 0.058944 0)
(7.57599 0.0530099 0)
(7.38115 0.0581433 0)
(7.21926 0.0416523 0)
(7.0851 0.0265742 0)
(6.98006 0.014512 0)
(6.88859 0.00766861 0)
(6.81835 0.00484252 0)
(6.75567 -0.000218762 0)
(6.70371 -0.00467831 0)
(6.65989 -0.00672255 0)
(6.62195 -0.00726712 0)
(6.6078 -0.00456683 0)
(10.1077 0.0581337 0)
(10.257 0.0911793 0)
(10.3284 0.0918772 0)
(10.3483 0.0867966 0)
(10.3247 0.0824458 0)
(10.2626 0.0799882 0)
(10.1978 0.0726158 0)
(10.0975 0.0632271 0)
(9.99196 0.0594556 0)
(9.89737 0.054846 0)
(9.8017 0.050245 0)
(9.71709 0.0464475 0)
(9.63019 0.0425997 0)
(9.55352 0.0392429 0)
(9.47976 0.0364249 0)
(9.41489 0.0330927 0)
(9.35326 0.0272367 0)
(9.29271 0.0182283 0)
(10.0087 0.0426707 0)
(10.0751 0.0662383 0)
(10.1257 0.0702144 0)
(10.164 0.0764359 0)
(10.1958 0.080755 0)
(10.2199 0.0800761 0)
(10.2365 0.0788641 0)
(10.2457 0.0777825 0)
(10.2482 0.0737614 0)
(10.2444 0.0697475 0)
(10.2349 0.0660755 0)
(10.222 0.0623625 0)
(10.2057 0.058965 0)
(10.1884 0.0561758 0)
(10.1699 0.0532354 0)
(10.1511 0.0500641 0)
(10.1325 0.0453359 0)
(10.1112 0.0384881 0)
(10.0054 0.0299023 0)
(10.0408 0.0562117 0)
(10.0715 0.0635511 0)
(10.0948 0.0695088 0)
(10.1156 0.0731714 0)
(10.1345 0.072876 0)
(10.1505 0.07169 0)
(10.1649 0.070667 0)
(10.1773 0.0676843 0)
(10.187 0.0643772 0)
(10.1943 0.0613262 0)
(10.1998 0.0586286 0)
(10.2039 0.0562002 0)
(10.2072 0.053809 0)
(10.2096 0.0512193 0)
(10.2114 0.0481684 0)
(10.2126 0.0442966 0)
(10.2122 0.0396408 0)
(10.0045 0.0235859 0)
(10.0281 0.0503916 0)
(10.0531 0.0586685 0)
(10.0718 0.0640516 0)
(10.0881 0.0674119 0)
(10.1032 0.067869 0)
(10.1166 0.0673394 0)
(10.1287 0.0664784 0)
(10.1397 0.0642193 0)
(10.1489 0.0614894 0)
(10.1569 0.0587896 0)
(10.1638 0.0563158 0)
(10.17 0.0539868 0)
(10.1758 0.0516423 0)
(10.1811 0.0491108 0)
(10.186 0.04629 0)
(10.1905 0.0429359 0)
(10.194 0.0390583 0)
(10.0032 0.018961 0)
(10.0208 0.0440939 0)
(10.0418 0.0530997 0)
(10.0584 0.0584897 0)
(10.0729 0.0620964 0)
(10.0863 0.063207 0)
(10.0985 0.0630541 0)
(10.1094 0.0622219 0)
(10.1193 0.060327 0)
(10.1279 0.0579678 0)
(10.1355 0.0555454 0)
(10.1423 0.0531999 0)
(10.1486 0.0509252 0)
(10.1545 0.0486324 0)
(10.16 0.0461793 0)
(10.1652 0.0434688 0)
(10.17 0.0403653 0)
(10.174 0.0369151 0)
(10.0021 0.0152856 0)
(10.0156 0.0375805 0)
(10.0333 0.0473672 0)
(10.0482 0.0529123 0)
(10.0614 0.056635 0)
(10.0737 0.0581789 0)
(10.0851 0.058333 0)
(10.0954 0.0576404 0)
(10.1047 0.0560935 0)
(10.1129 0.0540961 0)
(10.1203 0.0519489 0)
(10.127 0.0497749 0)
(10.1332 0.0476032 0)
(10.139 0.0453857 0)
(10.1444 0.0430222 0)
(10.1495 0.0404407 0)
(10.1541 0.037574 0)
(10.1582 0.0344759 0)
(10.0015 0.0126461 0)
(10.0123 0.0324504 0)
(10.0274 0.0426187 0)
(10.041 0.0482801 0)
(10.0533 0.0519868 0)
(10.0649 0.0537436 0)
(10.0756 0.0540913 0)
(10.0854 0.0535443 0)
(10.0943 0.0522751 0)
(10.1023 0.0505734 0)
(10.1096 0.0486537 0)
(10.1162 0.0466307 0)
(10.1224 0.0445483 0)
(10.1281 0.0423942 0)
(10.1334 0.0401038 0)
(10.1384 0.0376334 0)
(10.1429 0.0349471 0)
(10.1469 0.0321014 0)
(10.0012 0.0106784 0)
(10.01 0.0283891 0)
(10.023 0.0384544 0)
(10.0355 0.0441314 0)
(10.047 0.0478235 0)
(10.0578 0.0497241 0)
(10.068 0.0502594 0)
(10.0774 0.0498803 0)
(10.086 0.0488074 0)
(10.0938 0.047294 0)
(10.1009 0.045532 0)
(10.1074 0.0436335 0)
(10.1135 0.041649 0)
(10.1191 0.039577 0)
(10.1243 0.0373854 0)
(10.1291 0.0350402 0)
(10.1335 0.0325298 0)
(10.1375 0.0298991 0)
(10.0009 0.00892932 0)
(10.008 0.0244168 0)
(10.019 0.0340924 0)
(10.0304 0.0396903 0)
(10.041 0.0433215 0)
(10.0511 0.045309 0)
(10.0607 0.0459992 0)
(10.0696 0.0457744 0)
(10.0778 0.044891 0)
(10.0853 0.0435679 0)
(10.0923 0.0419748 0)
(10.0986 0.0402121 0)
(10.1045 0.038337 0)
(10.11 0.0363681 0)
(10.1151 0.0342825 0)
(10.1198 0.0320774 0)
(10.1241 0.0297438 0)
(10.128 0.0273376 0)
(10.0007 0.00736811 0)
(10.0063 0.0206137 0)
(10.0155 0.0296173 0)
(10.0257 0.035015 0)
(10.0354 0.038512 0)
(10.0447 0.0405134 0)
(10.0537 0.0413123 0)
(10.0621 0.0412284 0)
(10.0699 0.0405147 0)
(10.0771 0.0393742 0)
(10.0838 0.037947 0)
(10.09 0.0363297 0)
(10.0957 0.0345845 0)
(10.101 0.032734 0)
(10.1059 0.0307787 0)
(10.1105 0.0287255 0)
(10.1146 0.0265817 0)
(10.1184 0.0243807 0)
(10.0005 0.00596383 0)
(10.0049 0.016998 0)
(10.0126 0.025076 0)
(10.0214 0.0301148 0)
(10.0303 0.0333952 0)
(10.0389 0.035333 0)
(10.0471 0.0361887 0)
(10.055 0.0362198 0)
(10.0624 0.0356601 0)
(10.0693 0.0346843 0)
(10.0757 0.0334237 0)
(10.0816 0.0319605 0)
(10.0871 0.0303643 0)
(10.0923 0.0286489 0)
(10.097 0.0268501 0)
(10.1014 0.0249593 0)
(10.1054 0.0230096 0)
(10.109 0.0210198 0)
(10.0004 0.00470599 0)
(10.0039 0.0136081 0)
(10.0101 0.0205362 0)
(10.0178 0.0250355 0)
(10.0257 0.0280003 0)
(10.0335 0.0297856 0)
(10.0412 0.0306274 0)
(10.0485 0.0307332 0)
(10.0555 0.0302957 0)
(10.062 0.029471 0)
(10.0681 0.0283686 0)
(10.0738 0.027073 0)
(10.0791 0.025629 0)
(10.084 0.0240827 0)
(10.0885 0.0224417 0)
(10.0927 0.0207423 0)
(10.0966 0.0189845 0)
(10.1001 0.0172168 0)
(10.0003 0.00357151 0)
(10.003 0.0104304 0)
(10.0082 0.0160467 0)
(10.0147 0.0198243 0)
(10.0217 0.0223521 0)
(10.0288 0.0238866 0)
(10.0358 0.024632 0)
(10.0426 0.0247535 0)
(10.0492 0.0243975 0)
(10.0553 0.0236987 0)
(10.0611 0.0227446 0)
(10.0665 0.0216107 0)
(10.0716 0.0203355 0)
(10.0763 0.0189611 0)
(10.0807 0.0175054 0)
(10.0847 0.0160014 0)
(10.0884 0.0144565 0)
(10.0918 0.0129078 0)
(10.0002 0.00252656 0)
(10.0024 0.00742847 0)
(10.0067 0.0116219 0)
(10.0122 0.0145113 0)
(10.0184 0.0164657 0)
(10.0248 0.0176449 0)
(10.0312 0.0182036 0)
(10.0376 0.0182654 0)
(10.0436 0.0179436 0)
(10.0495 0.01733 0)
(10.0549 0.0165074 0)
(10.0601 0.0155205 0)
(10.065 0.0144194 0)
(10.0695 0.0132221 0)
(10.0737 0.01197 0)
(10.0776 0.0106701 0)
(10.0812 0.00935402 0)
(10.0845 0.00803239 0)
(10.0002 0.00153793 0)
(10.002 0.00453727 0)
(10.0056 0.00723121 0)
(10.0104 0.00908231 0)
(10.0159 0.0103256 0)
(10.0217 0.0110343 0)
(10.0276 0.0113086 0)
(10.0334 0.0112336 0)
(10.0392 0.0108798 0)
(10.0446 0.0103134 0)
(10.0499 0.00958695 0)
(10.0548 0.00873932 0)
(10.0594 0.00780043 0)
(10.0638 0.00679522 0)
(10.0678 0.00574588 0)
(10.0716 0.00466991 0)
(10.0751 0.0035816 0)
(10.0783 0.00250326 0)
(10.0002 0.000564288 0)
(10.0018 0.00167027 0)
(10.0049 0.00278325 0)
(10.0092 0.00346008 0)
(10.0142 0.00385647 0)
(10.0196 0.00397458 0)
(10.0251 0.0038667 0)
(10.0306 0.00356768 0)
(10.036 0.00312066 0)
(10.0412 0.0025503 0)
(10.0462 0.00189301 0)
(10.051 0.00116195 0)
(10.0554 0.000383038 0)
(10.0596 -0.000435967 0)
(10.0636 -0.00127433 0)
(10.0672 -0.00212674 0)
(10.0706 -0.00297865 0)
(10.0738 -0.00381622 0)
(10.0002 -0.000389737 0)
(10.0017 -0.00114343 0)
(10.0047 -0.0016382 0)
(10.0088 -0.0021852 0)
(10.0136 -0.00270119 0)
(10.0188 -0.00322955 0)
(10.0241 -0.00377868 0)
(10.0295 -0.00434312 0)
(10.0347 -0.00492869 0)
(10.0398 -0.00552662 0)
(10.0447 -0.00614386 0)
(10.0493 -0.00676786 0)
(10.0537 -0.00740592 0)
(10.0578 -0.00804311 0)
(10.0617 -0.00868641 0)
(10.0653 -0.00931998 0)
(10.0686 -0.00995241 0)
(10.0718 -0.0105583 0)
(10.0002 -0.00129934 0)
(10.0018 -0.00380996 0)
(10.0049 -0.0058318 0)
(10.0092 -0.00752886 0)
(10.0142 -0.00889685 0)
(10.0194 -0.0100293 0)
(10.0248 -0.0109863 0)
(10.0302 -0.0117991 0)
(10.0355 -0.0125053 0)
(10.0406 -0.0131304 0)
(10.0455 -0.0137007 0)
(10.0501 -0.0142289 0)
(10.0545 -0.0147289 0)
(10.0586 -0.0152054 0)
(10.0624 -0.0156656 0)
(10.066 -0.0161096 0)
(10.0694 -0.0165414 0)
(10.0725 -0.0169502 0)
(10.0002 -0.00219856 0)
(10.002 -0.00641854 0)
(10.0056 -0.00986364 0)
(10.0103 -0.0125853 0)
(10.0157 -0.0146774 0)
(10.0212 -0.0163161 0)
(10.0269 -0.017599 0)
(10.0325 -0.0185978 0)
(10.0379 -0.0193737 0)
(10.0431 -0.0199944 0)
(10.0481 -0.0204957 0)
(10.0528 -0.0209202 0)
(10.0572 -0.0212796 0)
(10.0613 -0.0216042 0)
(10.0652 -0.0218941 0)
(10.0688 -0.0221689 0)
(10.0722 -0.0224232 0)
(10.0753 -0.0226614 0)
(10.0003 -0.00315888 0)
(10.0025 -0.00915124 0)
(10.0067 -0.0139516 0)
(10.0121 -0.0175633 0)
(10.018 -0.020251 0)
(10.024 -0.0222892 0)
(10.0301 -0.0238129 0)
(10.036 -0.0249188 0)
(10.0417 -0.0257142 0)
(10.0471 -0.02628 0)
(10.0522 -0.0266911 0)
(10.057 -0.0269818 0)
(10.0615 -0.0272017 0)
(10.0657 -0.0273618 0)
(10.0696 -0.0274976 0)
(10.0732 -0.0276029 0)
(10.0766 -0.0277049 0)
(10.0798 -0.0277816 0)
(10.0003 -0.00424545 0)
(10.0032 -0.0121517 0)
(10.0083 -0.0182349 0)
(10.0147 -0.0225793 0)
(10.0213 -0.0257294 0)
(10.0279 -0.0280644 0)
(10.0344 -0.0297369 0)
(10.0407 -0.0308753 0)
(10.0467 -0.0316229 0)
(10.0523 -0.0320988 0)
(10.0576 -0.0323796 0)
(10.0626 -0.0325255 0)
(10.0672 -0.0325805 0)
(10.0715 -0.0325819 0)
(10.0754 -0.0325502 0)
(10.0791 -0.0325057 0)
(10.0826 -0.0324525 0)
(10.0857 -0.0323958 0)
(10.0005 -0.00554192 0)
(10.0042 -0.0155464 0)
(10.0107 -0.0227821 0)
(10.0182 -0.0276715 0)
(10.0256 -0.0311607 0)
(10.0328 -0.0336972 0)
(10.0398 -0.0354219 0)
(10.0466 -0.0365135 0)
(10.0529 -0.0371626 0)
(10.0589 -0.0375058 0)
(10.0644 -0.0376316 0)
(10.0695 -0.0376105 0)
(10.0742 -0.0374939 0)
(10.0786 -0.0373289 0)
(10.0827 -0.0371367 0)
(10.0865 -0.0369426 0)
(10.09 -0.0367505 0)
(10.0932 -0.0365626 0)
(10.0006 -0.00714885 0)
(10.0058 -0.0194952 0)
(10.0141 -0.0276323 0)
(10.0228 -0.0328223 0)
(10.031 -0.03654 0)
(10.0389 -0.0391968 0)
(10.0465 -0.0408949 0)
(10.0538 -0.0418749 0)
(10.0605 -0.0423787 0)
(10.0668 -0.0425582 0)
(10.0726 -0.0425062 0)
(10.078 -0.0423017 0)
(10.0829 -0.0420083 0)
(10.0875 -0.0416712 0)
(10.0917 -0.0413271 0)
(10.0956 -0.0409922 0)
(10.0992 -0.0406813 0)
(10.1025 -0.0403798 0)
(10.001 -0.00919068 0)
(10.0082 -0.0241413 0)
(10.0188 -0.0328149 0)
(10.0288 -0.0380497 0)
(10.0378 -0.0418602 0)
(10.0465 -0.0445303 0)
(10.0549 -0.0461466 0)
(10.0628 -0.0470015 0)
(10.0701 -0.0473561 0)
(10.0769 -0.0473653 0)
(10.0831 -0.0471256 0)
(10.0888 -0.0467271 0)
(10.0941 -0.0462387 0)
(10.099 -0.0457174 0)
(10.1034 -0.045203 0)
(10.1075 -0.0447214 0)
(10.1113 -0.0442768 0)
(10.1148 -0.0438605 0)
(10.0015 -0.0118827 0)
(10.0117 -0.0294383 0)
(10.0253 -0.0382922 0)
(10.0369 -0.0435082 0)
(10.0469 -0.0473092 0)
(10.0568 -0.0498322 0)
(10.0664 -0.0512542 0)
(10.0755 -0.0519326 0)
(10.0838 -0.0521234 0)
(10.0915 -0.0519666 0)
(10.0985 -0.0515596 0)
(10.105 -0.0509943 0)
(10.1109 -0.0503458 0)
(10.1162 -0.0496676 0)
(10.1211 -0.049017 0)
(10.1256 -0.0484124 0)
(10.1297 -0.0478628 0)
(10.1334 -0.0473451 0)
(10.0027 -0.0161577 0)
(10.0183 -0.0352205 0)
(10.0359 -0.0432386 0)
(10.0503 -0.0487537 0)
(10.0631 -0.0530655 0)
(10.0758 -0.0556556 0)
(10.0883 -0.0568236 0)
(10.0999 -0.0571869 0)
(10.1105 -0.0570372 0)
(10.12 -0.0565279 0)
(10.1286 -0.0557669 0)
(10.1364 -0.0548649 0)
(10.1432 -0.0538984 0)
(10.1492 -0.0529409 0)
(10.1545 -0.0520483 0)
(10.1591 -0.0512532 0)
(10.1633 -0.0505456 0)
(10.1668 -0.0498882 0)
(10.0071 -0.0242071 0)
(10.0377 -0.0431575 0)
(10.0655 -0.0482023 0)
(10.0899 -0.0529022 0)
(10.1127 -0.057841 0)
(10.1348 -0.0613066 0)
(10.1546 -0.0631558 0)
(10.1715 -0.0639258 0)
(10.1855 -0.0639626 0)
(10.1969 -0.0634337 0)
(10.206 -0.0625068 0)
(10.2128 -0.061311 0)
(10.2176 -0.059968 0)
(10.2207 -0.0585843 0)
(10.2222 -0.0572469 0)
(10.2223 -0.0560544 0)
(10.2215 -0.0550418 0)
(10.2197 -0.054299 0)
(10.0421 -0.034784 0)
(10.1353 -0.0634861 0)
(10.2073 -0.0690752 0)
(10.256 -0.07088 0)
(10.2863 -0.0720222 0)
(10.3014 -0.0717491 0)
(10.3035 -0.0702849 0)
(10.2947 -0.0682199 0)
(10.2777 -0.0658574 0)
(10.2547 -0.0633149 0)
(10.2272 -0.0606655 0)
(10.1967 -0.0579814 0)
(10.1639 -0.055332 0)
(10.1297 -0.0527836 0)
(10.0946 -0.050426 0)
(10.0591 -0.0483253 0)
(10.0241 -0.0465071 0)
(9.99027 -0.0454539 0)
(9.89027 -0.0358139 0)
(9.66492 -0.068276 0)
(9.41976 -0.0794066 0)
(9.1694 -0.0817545 0)
(8.93249 -0.0798764 0)
(8.71598 -0.0753445 0)
(8.52021 -0.0694743 0)
(8.34408 -0.063086 0)
(8.18678 -0.0566356 0)
(8.04701 -0.0504221 0)
(7.92331 -0.044586 0)
(7.81399 -0.0391761 0)
(7.71764 -0.0342163 0)
(7.63273 -0.0297217 0)
(7.55788 -0.0256925 0)
(7.49179 -0.0222352 0)
(7.43238 -0.0194514 0)
(7.37889 -0.0176797 0)
(-0.00281091 0.0076089 0)
(-0.0128226 0.0126609 0)
(-0.0265677 0.0137459 0)
(-0.040968 0.0116723 0)
(-0.0513305 0.0058046 0)
(-0.0500614 -0.00384062 0)
(-0.0339787 -0.0168972 -8.14148e-19)
(-0.00645304 -0.0304459 9.16173e-19)
(0.0293011 -0.0405216 0)
(0.0703527 -0.0454101 5.22003e-19)
(0.113684 -0.0457761 0)
(0.155878 -0.0428098 0)
(0.194203 -0.0375864 0)
(0.227019 -0.030919 -2.57095e-19)
(0.253462 -0.0233774 0)
(0.273126 -0.0153163 0)
(0.285677 -0.0069399 2.22378e-19)
(0.291323 0.00182559 0)
(0.28895 0.0108713 0)
(0.278751 0.0197254 0)
(0.261363 0.0276363 -2.3824e-19)
(0.237408 0.033824 0)
(0.207824 0.0375631 -2.81731e-19)
(0.173987 0.038237 0)
(0.137753 0.0354118 0)
(0.101372 0.0290652 -4.58276e-19)
(0.0673516 0.0198615 0)
(0.0381399 0.00946204 7.6514e-19)
(0.0155719 0.00048268 0)
(0.000113957 -0.004979 -1.30092e-18)
(-0.00956157 -0.0075934 0)
(-0.0144624 -0.00946024 0)
(-0.0133935 -0.011761 0)
(-0.00595187 -0.0153789 0)
(0.00878044 -0.0207712 0)
(0.0311314 -0.0267697 8.47078e-19)
(0.0595646 -0.0310359 0)
(0.0900018 -0.0312725 -9.95484e-19)
(0.117327 -0.0270034 0)
(0.137324 -0.0196105 7.88459e-19)
(0.148185 -0.0116531 0)
(0.151188 -0.00526597 0)
(0.148934 -0.00177487 -7.7428e-19)
(0.145298 -0.00215863 0)
(0.143174 -0.00721482 -7.99536e-19)
(0.140559 -0.0162152 8.04377e-19)
(0.131044 -0.0237312 0)
(0.107283 -0.0196588 8.81584e-19)
(0.0642966 -0.000650046 1.03865e-18)
(-0.0109721 0.0183669 0)
(-0.108202 0.0377617 0)
(-0.213669 0.0621806 0)
(-0.331031 0.0848989 0)
(-0.457942 0.101511 0)
(-0.59073 0.109892 -1.8488e-19)
(-0.725081 0.114691 0)
(-0.857043 0.111834 1.47053e-19)
(-0.986134 0.106602 0)
(-1.10675 0.100108 0)
(-1.22043 0.0918724 -1.14588e-19)
(-1.32535 0.0859304 0)
(-1.42237 0.0785927 1.02449e-19)
(-1.51163 0.0701884 0)
(-1.59316 0.063988 0)
(-1.66831 0.0586494 0)
(-1.73765 0.0535594 -8.84232e-20)
(-1.80182 0.0491396 0)
(-1.86143 0.0452386 0)
(-1.91705 0.0418696 -8.21468e-20)
(-1.96918 0.0389118 0)
(-2.01824 0.0363187 -7.89412e-20)
(-2.06458 0.034023 0)
(-2.10847 0.0319705 0)
(-2.15016 0.0301209 0)
(-2.18984 0.028433 7.38326e-20)
(-2.22767 0.0268804 0)
(-2.26376 0.0254358 0)
(-2.29822 0.0240812 7.06883e-20)
(-2.33112 0.0228006 6.97257e-20)
(-2.36253 0.0215801 0)
(-2.3925 0.0204126 6.78939e-20)
(-2.42107 0.0192856 0)
(-2.44826 0.0181981 1.32317e-19)
(-2.47412 0.0171377 0)
(-2.49865 0.0161072 1.28979e-19)
(-2.52188 0.0150935 0)
(-2.54381 0.0141013 -1.25723e-19)
(-2.56444 0.0131185 0)
(-2.58377 0.0121479 0)
(-2.60177 0.0111826 0)
(-2.61848 0.0102187 1.19313e-19)
(-2.6339 0.00924626 0)
(-2.64799 0.00826238 -1.16105e-19)
(-2.66073 0.00725752 0)
(-2.67208 0.00622654 1.12862e-19)
(-2.68199 0.00516179 1.11222e-19)
(-2.69041 0.00406158 1.09569e-19)
(-2.69729 0.0029396 0)
(-2.70258 0.00184165 0)
(-2.7062 0.000859659 0)
(-2.70812 6.36863e-05 0)
(-2.70887 -0.000613896 0)
(-2.70838 -0.00126737 0)
(-2.70671 -0.00190231 0)
(-2.70385 -0.00253121 0)
(-2.69981 -0.00315051 -9.34607e-20)
(-2.69458 -0.00376524 -9.14732e-20)
(-2.68815 -0.00437107 0)
(-2.68053 -0.00497211 0)
(-2.67171 -0.00556427 0)
(-2.6617 -0.00615109 -8.30697e-20)
(-2.65048 -0.00672909 0)
(-2.63807 -0.007301 0)
(-2.62445 -0.00786422 0)
(-2.60964 -0.00842048 0)
(-2.59364 -0.0089682 7.14327e-20)
(-2.57644 -0.00950807 0)
(-2.55806 -0.0100396 0)
(-2.53849 -0.0105625 -6.37594e-20)
(-2.51775 -0.0110774 6.10733e-20)
(-2.49584 -0.0115829 0)
(-2.47277 -0.0120807 5.54941e-20)
(-2.44854 -0.0125683 0)
(-2.42317 -0.0130488 -4.96202e-20)
(-2.39666 -0.013519 0)
(-2.36903 -0.0139832 0)
(-2.34028 -0.0144379 0)
(-2.31044 -0.0148864 0)
(-2.27952 -0.0153151 0)
(-2.24752 -0.0157338 5.99691e-20)
(-2.21448 -0.0161388 5.27608e-20)
(-2.1804 -0.0165321 0)
(-2.14532 -0.0168999 0)
(-2.10929 -0.0172077 0)
(-2.07234 -0.0174006 -2.17513e-20)
(-2.03453 -0.017395 0)
(-1.99591 -0.0171567 0)
(-1.95646 -0.017143 0)
(-1.91609 -0.0174537 1.32356e-20)
(-1.87487 -0.0177399 -2.27196e-20)
(-1.83284 -0.0180085 0)
(-1.79002 -0.0182653 0)
(-1.74645 -0.0185082 -5.32402e-20)
(-1.70215 -0.0187427 -6.41667e-20)
(-1.65716 -0.018967 0)
(-1.61149 -0.0191863 0)
(-1.56518 -0.0193974 9.95172e-20)
(-1.51824 -0.0196068 -1.12234e-19)
(-1.47073 -0.019804 0)
(-1.42265 -0.0200004 0)
(-1.37405 -0.0201854 -1.53674e-19)
(-1.32493 -0.0203686 0)
(-1.27535 -0.0205391 0)
(-1.2253 -0.0207084 -2.00803e-19)
(-1.17486 -0.0208692 0)
(-1.12401 -0.0210276 -2.3608e-19)
(-1.0728 -0.0211903 0)
(-1.02123 -0.0213528 0)
(-0.969314 -0.0215225 0)
(-0.917066 -0.0216995 3.18179e-19)
(-0.864482 -0.0218865 0)
(-0.811566 -0.0220833 0)
(-0.75832 -0.0222912 0)
(-0.704747 -0.0225096 0)
(-0.650852 -0.0227416 0)
(-0.59664 -0.022988 0)
(-0.54211 -0.0232542 5.17688e-19)
(-0.487257 -0.0235415 5.54873e-19)
(-0.432076 -0.0238544 0)
(-0.376557 -0.0241922 0)
(-0.320696 -0.024555 0)
(-0.26451 -0.0249368 -7.38477e-19)
(-0.208033 -0.0253526 0)
(-0.151343 -0.0257729 1.7191e-18)
(-0.0946081 -0.0261309 -1.86089e-18)
(-0.0382611 -0.0262772 -2.01985e-18)
(0.0176676 -0.0255975 2.0817e-18)
(0.06978 -0.0236054 -2.02037e-18)
(0.127073 -0.0210057 1.95916e-18)
(0.143351 -0.00938815 0)
(-0.000323631 0.0204419 0)
(-0.00580494 0.0357819 0)
(-0.012384 0.0368254 2.15239e-18)
(-0.0126718 0.0271608 0)
(0.00159532 0.00492888 -2.23297e-18)
(0.0314209 -0.0323473 -1.41243e-18)
(0.0707393 -0.0738238 -4.46281e-19)
(0.115486 -0.107599 -3.19263e-19)
(0.161668 -0.128185 0)
(0.205887 -0.135343 -2.09429e-19)
(0.245996 -0.131767 0)
(0.281072 -0.120849 0)
(0.310802 -0.105468 3.12723e-19)
(0.335208 -0.0876879 1.49003e-19)
(0.354516 -0.0688486 -2.90533e-19)
(0.369042 -0.0497073 -2.87202e-19)
(0.37917 -0.0306445 -1.43617e-19)
(0.385078 -0.0117873 0)
(0.387759 0.00687274 0)
(0.387118 0.0251745 0)
(0.382779 0.0427617 -1.51767e-19)
(0.37424 0.0591005 0)
(0.360942 0.0734465 4.8547e-19)
(0.342392 0.0848196 0)
(0.318368 0.0920952 0)
(0.289081 0.0941807 1.96329e-19)
(0.255398 0.0903276 0)
(0.218937 0.0805716 -2.4829e-19)
(0.182032 0.0659477 -5.8105e-19)
(0.147613 0.0482441 3.47439e-19)
(0.1188 0.0290857 0)
(0.0988891 0.0093446 0)
(0.0892498 -0.011141 0)
(0.0916356 -0.0314133 -1.02643e-18)
(0.104307 -0.0514505 -8.66366e-19)
(0.123651 -0.0687341 -3.58674e-19)
(0.143652 -0.0762537 0)
(0.158363 -0.0707227 5.1911e-19)
(0.165224 -0.0551086 0)
(0.163889 -0.0347963 -5.03831e-19)
(0.15506 -0.0165316 0)
(0.13946 -0.00452174 0)
(0.116692 0.00264388 6.42829e-19)
(0.0808841 0.00968444 0)
(0.0220232 0.0237321 2.45949e-18)
(-0.0726378 0.0555848 -6.12725e-19)
(-0.19294 0.0985378 0)
(-0.323966 0.143178 -2.64072e-19)
(-0.461223 0.185641 -1.96781e-19)
(-0.604621 0.220978 0)
(-0.749254 0.2476 0)
(-0.891688 0.266022 0)
(-1.02984 0.276127 0)
(-1.16048 0.277983 0)
(-1.28162 0.272568 8.36985e-20)
(-1.39019 0.261936 1.57828e-19)
(-1.48744 0.247437 -7.45517e-20)
(-1.57306 0.230126 0)
(-1.64901 0.212025 1.37583e-19)
(-1.71628 0.193756 -6.67974e-20)
(-1.7763 0.176326 0)
(-1.83048 0.160169 -6.26642e-20)
(-1.87967 0.145519 0)
(-1.92493 0.13256 0)
(-1.96688 0.121169 -1.17774e-19)
(-2.00604 0.111205 5.77561e-20)
(-2.04291 0.102522 -1.13657e-19)
(-2.0778 0.0949552 1.11813e-19)
(-2.11098 0.0883293 5.50431e-20)
(-2.14261 0.0825028 0)
(-2.17284 0.0773276 5.34638e-20)
(-2.20178 0.0727003 0)
(-2.2295 0.0685118 0)
(-2.25606 0.0646913 0)
(-2.2815 0.0611643 5.05543e-20)
(-2.30587 0.0578844 0)
(-2.32917 0.0548034 9.8629e-20)
(-2.35144 0.0518898 -1.46131e-19)
(-2.37269 0.0491149 -4.81355e-20)
(-2.39291 0.0464553 0)
(-2.41213 0.0438964 -4.69455e-20)
(-2.43034 0.0414189 0)
(-2.44754 0.0390173 -9.15647e-20)
(-2.46374 0.0366742 0)
(-2.47893 0.0343895 -8.92668e-20)
(-2.49312 0.0321459 1.76111e-19)
(-2.50629 0.0299465 8.69732e-20)
(-2.51845 0.0277773 0)
(-2.52957 0.0256411 0)
(-2.53966 0.0235328 0)
(-2.54873 0.0214488 -8.23264e-20)
(-2.55679 0.019382 0)
(-2.56384 0.0173326 7.99486e-20)
(-2.56986 0.0152946 0)
(-2.57486 0.0132667 -2.32569e-19)
(-2.57886 0.011241 -7.62754e-20)
(-2.58189 0.00921024 -7.50194e-20)
(-2.58401 0.00717064 0)
(-2.5853 0.00514188 0)
(-2.58586 0.00319191 0)
(-2.58578 0.00139527 0)
(-2.58459 -0.000285152 0)
(-2.5823 -0.00192325 -1.34068e-19)
(-2.57886 -0.00352598 -1.31208e-19)
(-2.57427 -0.005107 0)
(-2.56852 -0.00666331 6.25736e-20)
(-2.56161 -0.00819992 6.10617e-20)
(-2.55352 -0.00971193 0)
(-2.54426 -0.0112032 1.16172e-19)
(-2.53382 -0.0126687 0)
(-2.52221 -0.0141118 -5.50416e-20)
(-2.50941 -0.0155281 0)
(-2.49544 -0.0169201 0)
(-2.48028 -0.0182841 9.984e-20)
(-2.46394 -0.0196216 0)
(-2.44643 -0.02093 -4.62744e-20)
(-2.42773 -0.0222099 0)
(-2.40787 -0.0234599 0)
(-2.38684 -0.0246797 -4.12541e-20)
(-2.36465 -0.0258693 -3.89573e-20)
(-2.3413 -0.0270271 0)
(-2.31681 -0.0281542 3.55787e-20)
(-2.29118 -0.0292479 0)
(-2.26441 -0.0303101 -3.16257e-20)
(-2.23653 -0.0313371 -5.86708e-20)
(-2.20753 -0.0323315 0)
(-2.17744 -0.0332884 0)
(-2.14628 -0.0342107 0)
(-2.11404 -0.0350925 0)
(-2.08076 -0.0359367 -3.65634e-20)
(-2.04644 -0.0367405 -9.72522e-20)
(-2.0111 -0.0375081 0)
(-1.9748 -0.0382386 0)
(-1.93754 -0.0389374 0)
(-1.89933 -0.039611 1.29369e-20)
(-1.86018 -0.0402765 0)
(-1.82006 -0.0409268 0)
(-1.77899 -0.0415533 3.23589e-21)
(-1.73709 -0.0421161 6.17207e-21)
(-1.69439 -0.0426136 1.29494e-20)
(-1.65089 -0.0430612 0)
(-1.60662 -0.0434683 0)
(-1.56159 -0.0438326 2.96647e-20)
(-1.51583 -0.0441615 -3.3925e-20)
(-1.46938 -0.0444536 0)
(-1.42226 -0.0447155 0)
(-1.3745 -0.0449434 -5.34663e-20)
(-1.32612 -0.0451501 1.77476e-19)
(-1.27716 -0.0453236 0)
(-1.22763 -0.0454748 0)
(-1.17758 -0.0455951 7.91293e-20)
(-1.127 -0.0456907 0)
(-1.07596 -0.0457524 1.83749e-19)
(-1.02445 -0.0457888 -9.79895e-20)
(-0.972524 -0.0458004 0)
(-0.920188 -0.045785 1.14133e-19)
(-0.867476 -0.0457574 2.41366e-19)
(-0.814403 -0.0457166 0)
(-0.760976 -0.045669 0)
(-0.707208 -0.0456191 -1.44774e-19)
(-0.653097 -0.0455693 0)
(-0.598646 -0.045521 3.20306e-19)
(-0.543856 -0.0454735 0)
(-0.488727 -0.045426 0)
(-0.433263 -0.0453795 0)
(-0.377467 -0.045336 0)
(-0.321336 -0.0452995 -2.05036e-19)
(-0.264867 -0.0452738 -2.14444e-19)
(-0.208051 -0.0452613 0)
(-0.150882 -0.0452617 0)
(-0.0933531 -0.0452696 0)
(-0.0354815 -0.0452674 2.54413e-19)
(0.0227206 -0.0452215 0)
(0.0811915 -0.0450836 -5.23633e-19)
(0.139795 -0.0447913 5.2513e-19)
(0.198238 -0.0442041 5.26664e-19)
(0.256425 -0.0429157 5.25076e-19)
(0.312046 -0.0405038 5.3126e-19)
(0.370124 -0.0361554 5.33535e-19)
(0.406419 -0.0232755 0)
(0.00026249 0.0232201 0)
(0.000753585 0.0400705 0)
(0.00662386 0.0324605 -2.30076e-18)
(0.0270593 -0.00163158 -1.60342e-18)
(0.0669881 -0.0619626 9.51707e-19)
(0.118544 -0.128005 6.19577e-19)
(0.171301 -0.17998 -3.67873e-22)
(0.218412 -0.209497 0)
(0.257309 -0.217601 0)
(0.288061 -0.209575 0)
(0.311905 -0.191225 0)
(0.330293 -0.16723 0)
(0.344433 -0.140757 -7.12044e-19)
(0.355173 -0.113672 0)
(0.363075 -0.0869762 2.27224e-19)
(0.36851 -0.0611345 2.26675e-19)
(0.371745 -0.0363286 0)
(0.372971 -0.0126232 0)
(0.372443 0.0100095 0)
(0.370483 0.0317399 0)
(0.367355 0.0527107 2.41346e-19)
(0.363234 0.0728594 0)
(0.358043 0.0918175 -2.58576e-19)
(0.351394 0.108837 0)
(0.342604 0.1228 0)
(0.330815 0.132287 0)
(0.315238 0.135812 -6.46789e-19)
(0.295535 0.132166 0)
(0.272238 0.120847 3.83726e-19)
(0.246931 0.10221 -8.55702e-19)
(0.222154 0.0773692 0)
(0.200832 0.0477117 0)
(0.185572 0.014925 0)
(0.176573 -0.0199433 6.31667e-19)
(0.17274 -0.0533224 5.5732e-19)
(0.167325 -0.0750169 0)
(0.153576 -0.0759093 0)
(0.131358 -0.0589743 -7.67464e-19)
(0.101673 -0.0317965 -7.89795e-19)
(0.0647461 0.00102991 8.80122e-19)
(0.0182324 0.0347971 0)
(-0.0486023 0.0668784 0)
(-0.140965 0.106115 0)
(-0.25272 0.155822 0)
(-0.380337 0.210639 -3.94716e-19)
(-0.518274 0.266131 -3.13235e-19)
(-0.659127 0.318195 2.57383e-19)
(-0.797123 0.362331 0)
(-0.928219 0.397131 0)
(-1.04885 0.421527 0)
(-1.15733 0.434707 0)
(-1.25303 0.437275 -1.43398e-19)
(-1.33554 0.430139 0)
(-1.40586 0.414588 0)
(-1.46596 0.39262 -1.19827e-19)
(-1.51786 0.366566 -1.13354e-19)
(-1.56381 0.338381 0)
(-1.60529 0.309727 2.12098e-19)
(-1.64388 0.282156 -1.01851e-19)
(-1.68047 0.256385 9.89159e-20)
(-1.71562 0.233012 0)
(-1.7497 0.212092 0)
(-1.78296 0.193543 0)
(-1.81548 0.177377 0)
(-1.84723 0.163336 8.80553e-20)
(-1.87819 0.15109 1.72871e-19)
(-1.90837 0.140386 8.47657e-20)
(-1.93774 0.130986 -8.32674e-20)
(-1.96629 0.122669 0)
(-1.99401 0.11525 1.60902e-19)
(-2.02088 0.108565 1.58276e-19)
(-2.0469 0.102485 1.55761e-19)
(-2.07206 0.0968958 -1.5334e-19)
(-2.09636 0.0917118 0)
(-2.1198 0.0868579 -2.23197e-19)
(-2.14236 0.0822776 0)
(-2.16405 0.077923 7.21186e-20)
(-2.18485 0.0737576 7.12498e-20)
(-2.20478 0.0697514 0)
(-2.2238 0.0658798 0)
(-2.24193 0.0621247 1.36321e-19)
(-2.25916 0.0584685 0)
(-2.27547 0.054901 1.3247e-19)
(-2.29086 0.0514086 0)
(-2.30533 0.0479852 -1.28693e-19)
(-2.31887 0.0446196 -2.53752e-19)
(-2.33147 0.0413084 0)
(-2.34312 0.0380431 0)
(-2.35382 0.0348217 0)
(-2.36355 0.0316427 -1.19351e-19)
(-2.37234 0.0285019 0)
(-2.38018 0.0253977 -1.15591e-19)
(-2.38707 0.0223293 0)
(-2.39299 0.0193001 0)
(-2.39795 0.0163143 2.19718e-19)
(-2.40194 0.0133768 0)
(-2.40499 0.0104962 1.0597e-19)
(-2.40709 0.00768173 0)
(-2.40825 0.00494362 1.01983e-19)
(-2.40842 0.00227208 0)
(-2.40756 -0.000372684 0)
(-2.40561 -0.00300802 0)
(-2.40258 -0.00561494 2.80293e-19)
(-2.39844 -0.00818957 9.11482e-20)
(-2.39319 -0.0107306 0)
(-2.38682 -0.0132375 0)
(-2.37932 -0.015709 0)
(-2.37068 -0.0181445 0)
(-2.36091 -0.0205426 -7.9732e-20)
(-2.34999 -0.0229023 1.55145e-19)
(-2.33793 -0.0252225 7.49783e-20)
(-2.32472 -0.0275016 -1.45577e-19)
(-2.31036 -0.0297388 -1.4071e-19)
(-2.29485 -0.0319322 -6.76418e-20)
(-2.27819 -0.0340809 0)
(-2.26038 -0.0361829 -1.25773e-19)
(-2.24142 -0.0382375 0)
(-2.22132 -0.040243 1.15527e-19)
(-2.20008 -0.042199 5.4845e-20)
(-2.1777 -0.0441044 0)
(-2.15419 -0.0459587 -9.97087e-20)
(-2.12956 -0.0477607 -4.68087e-20)
(-2.10381 -0.0495096 0)
(-2.07696 -0.0512042 -4.2036e-20)
(-2.04901 -0.0528433 1.16235e-19)
(-2.01997 -0.0544257 0)
(-1.98985 -0.0559499 0)
(-1.95868 -0.0574142 0)
(-1.92646 -0.0588152 0)
(-1.8932 -0.0601509 4.88211e-20)
(-1.85893 -0.0614212 4.19465e-20)
(-1.82366 -0.0626282 0)
(-1.78743 -0.0637707 0)
(-1.75025 -0.0648463 0)
(-1.71215 -0.0658518 0)
(-1.67311 -0.0667906 0)
(-1.63315 -0.0676704 0)
(-1.5923 -0.0685122 -2.02595e-21)
(-1.55064 -0.0693046 -1.02882e-21)
(-1.50818 -0.0700266 0)
(-1.46494 -0.0706782 0)
(-1.42094 -0.0712627 -2.7549e-20)
(-1.3762 -0.0717809 0)
(-1.33074 -0.0722377 4.231e-20)
(-1.2846 -0.0726351 4.81492e-20)
(-1.2378 -0.0729784 0)
(-1.19036 -0.0732672 0)
(-1.14233 -0.073511 -7.04585e-20)
(-1.09372 -0.073706 -1.53028e-19)
(-1.04456 -0.0738562 0)
(-0.994873 -0.0739601 0)
(-0.94468 -0.0740159 0)
(-0.894004 -0.0740217 -1.07037e-19)
(-0.842878 -0.073977 1.14516e-19)
(-0.791325 -0.0738921 0)
(-0.73937 -0.0737628 2.56993e-19)
(-0.687036 -0.0736052 1.34957e-19)
(-0.63434 -0.0734234 -2.87753e-19)
(-0.581293 -0.0732247 0)
(-0.527903 -0.0730164 0)
(-0.474173 -0.0728023 -3.34671e-19)
(-0.420104 -0.0725844 -1.76479e-19)
(-0.365695 -0.0723614 0)
(-0.310948 -0.0721317 0)
(-0.255865 -0.071896 0)
(-0.200446 -0.0716567 0)
(-0.144689 -0.0714179 -4.31106e-19)
(-0.0885906 -0.0711842 0)
(-0.0321429 -0.0709591 0)
(0.0246674 -0.0707408 0)
(0.0818457 -0.0705189 0)
(0.139382 -0.0702698 0)
(0.197247 -0.0699456 0)
(0.255377 -0.0694791 -5.04778e-19)
(0.313678 -0.0687839 0)
(0.37192 -0.0676876 0)
(0.430075 -0.0658742 -1.05001e-18)
(0.48657 -0.0628181 5.30873e-19)
(0.545248 -0.0574887 -5.42293e-19)
(0.591393 -0.0445077 5.5405e-19)
(-0.00117298 0.0234033 0)
(0.0020566 0.0266972 4.98931e-18)
(0.0241414 -0.0160111 0)
(0.0723888 -0.0999499 8.48975e-19)
(0.133373 -0.187891 0)
(0.190794 -0.251318 0)
(0.235554 -0.281818 -3.21136e-19)
(0.266508 -0.284577 0)
(0.28651 -0.269119 0)
(0.299193 -0.243762 0)
(0.307426 -0.213946 0)
(0.313018 -0.182677 0)
(0.316934 -0.151458 8.04238e-19)
(0.319619 -0.120975 3.95552e-19)
(0.321232 -0.091529 -3.9303e-19)
(0.321812 -0.0632515 0)
(0.32137 -0.0361998 0)
(0.319919 -0.0104095 0)
(0.317516 0.014106 0)
(0.314249 0.0373794 0)
(0.310266 0.0594564 4.2537e-19)
(0.305783 0.0803473 4.36782e-19)
(0.301015 0.0999662 -4.52786e-19)
(0.296073 0.118005 4.74659e-19)
(0.290864 0.133834 0)
(0.28505 0.146423 0)
(0.278038 0.154334 5.7495e-19)
(0.26908 0.155865 0)
(0.257587 0.149452 0)
(0.243371 0.133986 7.40973e-19)
(0.227075 0.109253 8.26915e-19)
(0.209806 0.0762555 9.35894e-19)
(0.192932 0.0372499 0)
(0.175619 -0.00319478 0)
(0.150926 -0.03297 -9.55461e-19)
(0.113837 -0.0389119 0)
(0.0659873 -0.0215736 0)
(0.00814764 0.0123751 7.64602e-19)
(-0.0628309 0.0575654 -6.78967e-19)
(-0.149721 0.112153 5.42204e-19)
(-0.251199 0.173402 0)
(-0.366399 0.236783 0)
(-0.491567 0.300551 5.80343e-19)
(-0.620886 0.363359 0)
(-0.748967 0.421532 4.16345e-19)
(-0.870758 0.470053 5.48243e-19)
(-0.981586 0.506896 -4.89086e-19)
(-1.07928 0.532024 2.9584e-19)
(-1.16311 0.545333 0)
(-1.23287 0.547516 0)
(-1.29002 0.539739 2.35078e-19)
(-1.33637 0.523509 1.09644e-19)
(-1.37415 0.500585 0)
(-1.40583 0.472793 0)
(-1.43373 0.442096 9.43197e-20)
(-1.45969 0.410334 1.82549e-19)
(-1.485 0.378835 0)
(-1.51048 0.348539 -1.68398e-19)
(-1.53656 0.320244 1.64096e-19)
(-1.56334 0.294282 -1.59168e-19)
(-1.59074 0.270802 0)
(-1.61861 0.249749 0)
(-1.64679 0.230978 0)
(-1.67505 0.214352 0)
(-1.70322 0.199635 0)
(-1.73114 0.186576 -1.37431e-19)
(-1.75866 0.174944 0)
(-1.78571 0.164526 0)
(-1.81219 0.155129 0)
(-1.83805 0.146586 -2.55137e-19)