/*--------------------------------*- C++ -*----------------------------------*\
  =========                 |
  \\      /  F ield         | OpenFOAM: The Open Source CFD Toolbox
   \\    /   O peration     | Website:  https://openfoam.org
    \\  /    A nd           | Version:  8
     \\/     M anipulation  |
\*---------------------------------------------------------------------------*/
FoamFile
{
    version     2.0;
    format      ascii;
    class       volScalarField;
    location    "400";
    object      epsilon;
}
// * * * * * * * * * * * * * * * * * * * * * * * * * * * * * * * * * * * * * //

dimensions      [0 2 -3 0 0 0 0];

internalField   nonuniform List<scalar> 
12225
(
295.213
280.097
266.376
252.016
239.975
230.797
224.051
220.972
221.49
223.109
228.017
232.389
240.905
246.307
256.05
261.993
271.339
280.026
53.5088
95.027
110.662
119.149
130.11
143.457
161.007
180.284
203.752
225.792
252.659
275.042
302.994
322.882
350.308
365.871
392.478
402.252
20.3445
34.969
44.9769
50.9981
56.0849
60.541
65.8306
71.1897
78.3666
85.7011
94.5402
102.835
112.407
121.466
130.895
140.657
148.883
159.644
15.9375
19.0908
23.5726
27.03
29.9479
32.3359
34.6363
36.7806
39.0346
41.4479
43.9273
46.7529
49.3158
52.5879
55.0694
58.755
61.0345
64.983
14.9849
15.513
16.9752
18.5013
19.9532
21.261
22.4276
23.5512
24.5325
25.6176
26.5224
27.673
28.5265
29.7761
30.581
31.9202
32.675
34.0737
14.7605
14.7581
15.0641
15.4957
16.0663
16.6677
17.218
17.7913
18.2685
18.8074
19.2239
19.7533
20.1263
20.6605
21
21.5458
21.8509
22.4157
14.761
14.5971
14.5468
14.5686
14.6632
14.8263
15.0098
15.233
15.4251
15.6587
15.8416
16.0741
16.2423
16.4734
16.6251
16.8588
16.989
17.2336
14.7656
14.5888
14.4456
14.3502
14.2853
14.2769
14.2889
14.327
14.3743
14.4511
14.5129
14.6014
14.6678
14.7627
14.8264
14.9265
14.9841
15.0945
14.7661
14.5931
14.4303
14.293
14.171
14.0795
14.0069
13.958
13.9188
13.9016
13.8879
13.8884
13.8933
13.9028
13.9134
13.9328
13.9485
13.9775
14.7657
14.5948
14.431
14.2813
14.1408
14.0162
13.9032
13.8064
13.719
13.6463
13.5809
13.5273
13.4785
13.4405
13.4019
13.377
13.3438
13.3325
14.7656
14.5946
14.4321
14.28
14.1358
14.0018
13.8758
13.7601
13.6519
13.5536
13.4617
13.3792
13.3012
13.2328
13.166
13.1099
13.0516
13.0065
14.7657
14.5942
14.4321
14.2796
14.1352
13.9993
13.8706
13.7498
13.6354
13.5284
13.427
13.3328
13.2431
13.1603
13.0809
13.0084
12.938
12.8746
14.7657
14.594
14.4319
14.2791
14.1347
13.9984
13.8694
13.7475
13.632
13.5229
13.4193
13.3215
13.2286
13.141
13.0576
12.9791
12.9041
12.8337
14.7657
14.5938
14.4317
14.2788
14.1343
13.9978
13.8687
13.7466
13.6308
13.5212
13.4173
13.3187
13.2252
13.1364
13.052
12.972
12.8958
12.8235
14.7657
14.5938
14.4316
14.2785
14.134
13.9973
13.8681
13.7458
13.63
13.5203
13.4162
13.3174
13.2237
13.1347
13.0501
12.9697
12.8932
12.8205
14.7657
14.5937
14.4315
14.2783
14.1337
13.997
13.8677
13.7453
13.6294
13.5195
13.4154
13.3165
13.2227
13.1336
13.0489
12.9683
12.8918
12.8189
14.7657
14.5937
14.4314
14.2782
14.1335
13.9968
13.8674
13.7449
13.6289
13.519
13.4148
13.3159
13.2219
13.1328
13.048
12.9674
12.8907
12.8178
14.7657
14.5937
14.4314
14.2782
14.1334
13.9966
13.8672
13.7448
13.6287
13.5188
13.4145
13.3155
13.2216
13.1323
13.0475
12.9669
12.8902
12.8172
14.7657
14.5937
14.4314
14.2782
14.1335
13.9967
13.8673
13.7448
13.6287
13.5188
13.4145
13.3155
13.2215
13.1323
13.0474
12.9668
12.8901
12.8171
14.7657
14.5937
14.4314
14.2782
14.1336
13.9968
13.8674
13.7449
13.6289
13.519
13.4147
13.3158
13.2218
13.1326
13.0478
12.9672
12.8906
12.8176
14.7657
14.5937
14.4315
14.2783
14.1337
13.997
13.8677
13.7453
13.6294
13.5195
13.4155
13.3167
13.2231
13.1342
13.0499
12.9697
12.8936
12.8212
14.7657
14.5937
14.4316
14.2785
14.134
13.9974
13.8685
13.7466
13.6317
13.5229
13.4204
13.3234
13.232
13.1454
13.064
12.9865
12.9139
12.8445
14.7659
14.5935
14.4317
14.2788
14.1355
14.0008
13.8755
13.7585
13.6501
13.549
13.4558
13.3686
13.2885
13.2131
13.1442
13.0785
13.0192
12.9616
14.766
14.5922
14.433
14.2847
14.1532
14.0352
13.9339
13.845
13.7688
13.7014
13.6445
13.5932
13.5504
13.5102
13.4778
13.4452
13.421
13.3933
14.7619
14.5911
14.4607
14.3577
14.2998
14.2679
14.2692
14.2779
14.2994
14.327
14.3629
14.3963
14.4364
14.4703
14.5118
14.5436
14.5864
14.6143
14.7356
14.672
14.7279
14.8557
15.0861
15.3307
15.5812
15.8151
16.042
16.2456
16.4457
16.622
16.8013
16.9563
17.1222
17.2605
17.4192
17.5429
14.779
15.3778
16.2545
17.2467
18.138
18.9005
19.5705
20.1484
20.6808
21.1493
21.6082
22.0175
22.4427
22.8209
23.234
23.5927
24.0058
24.3497
15.8007
20.0114
23.4749
25.8762
27.6523
29.0322
30.2264
31.2952
32.333
33.3219
34.355
35.3535
36.432
37.4597
38.5925
39.6365
40.8216
41.8824
27.6438
42.3553
49.0875
52.4842
54.9686
57.2155
59.5611
62.0598
64.7471
67.5659
70.5643
73.6173
76.8028
79.9656
83.2269
86.4016
89.6511
92.7561
147.724
142.928
138.642
134.247
130.047
126.067
122.533
119.521
116.918
114.779
113.055
111.698
110.689
109.938
109.478
109.169
109.117
109.186
0.12399
0.163902
0.310365
0.438338
0.555473
0.682953
0.832124
1.01311
1.23681
1.50584
1.81873
2.16701
2.54342
2.93776
3.34348
3.75179
4.15757
4.55347
4.93588
5.30057
5.64561
5.97187
6.2799
6.5762
6.86161
7.14422
7.42028
7.70167
7.97893
8.23377
8.4526
8.62307
8.72993
8.71136
8.53886
8.15566
8.4035
8.7056
9.29909
43.6396
41.6565
40.5577
9.24761
42.684
45.6687
48.7997
52.3787
55.9033
59.733
63.6495
67.7791
72.0538
76.5149
81.1439
85.9553
90.9461
96.1222
101.485
107.038
112.784
118.724
124.861
131.196
137.73
144.464
151.399
158.534
165.869
173.403
181.133
189.058
197.175
205.48
213.969
222.637
231.481
240.492
249.665
258.992
268.467
278.078
287.819
297.679
307.647
317.711
327.861
338.081
348.358
358.677
369.022
379.372
389.707
400.004
410.239
420.386
430.422
440.334
450.136
459.902
469.516
479.007
488.348
497.535
506.548
515.374
523.997
532.403
540.576
548.502
556.168
563.558
570.66
577.462
583.95
590.113
595.94
601.421
606.546
611.306
615.694
619.701
623.322
626.551
629.385
631.819
633.853
635.483
636.711
637.537
637.973
637.985
637.576
636.666
635.459
633.967
632.05
629.724
627.036
623.986
620.587
616.851
612.788
608.411
603.73
598.76
593.512
588.001
582.239
576.24
570.017
563.588
556.965
550.167
543.207
536.1
528.864
521.512
514.06
506.524
498.92
491.266
483.587
475.932
468.51
463.077
460.075
457.358
454.658
451.952
449.241
446.527
443.809
441.083
438.332
435.52
432.569
429.318
425.324
419.591
396.133
0.65202
0.412626
0.419468
0.472883
0.554737
0.661667
0.796612
0.963419
1.16493
1.40148
1.67083
1.96888
2.29069
2.63116
2.98538
3.34895
3.7178
4.08885
4.45952
4.82932
5.19816
5.56913
5.94485
6.33137
6.73231
7.15308
7.59478
8.05934
8.5578
9.10706
9.71533
10.4057
11.2423
12.3303
13.7011
14.49
16.6955
17.7901
19.997
22.3389
22.7758
23.2206
23.2525
27.8384
28.9971
30.7325
32.4673
34.2499
36.106
38.0161
39.9964
42.0402
44.1536
46.3355
48.5883
50.9124
53.309
55.7787
58.3223
60.9403
63.633
66.4007
69.2435
72.1614
75.154
78.2211
81.362
84.5762
87.8625
91.2201
94.6474
98.1432
101.706
105.333
109.023
112.773
116.582
120.445
124.361
128.325
132.335
136.387
140.477
144.6
148.753
152.929
157.125
161.333
165.549
169.766
173.976
178.173
182.349
186.498
190.616
194.702
198.766
202.83
206.95
211.024
215.049
219.019
222.928
226.771
230.542
234.235
237.843
241.362
244.786
248.108
251.324
254.429
257.417
260.283
263.022
265.631
268.105
270.439
272.631
274.677
276.573
278.317
279.907
281.34
282.615
283.731
284.685
285.478
286.109
286.576
286.873
286.994
286.959
286.766
286.446
285.957
285.304
284.499
283.544
282.442
281.198
279.816
278.298
276.65
274.877
272.982
270.971
268.849
266.62
264.291
261.866
259.353
256.755
254.081
251.335
248.524
245.653
242.73
239.76
236.749
233.707
230.642
227.574
224.577
221.981
219.883
217.906
215.955
214.012
212.075
210.144
208.222
206.31
204.409
202.517
200.636
198.749
196.905
194.995
191.767
1.41894
0.745387
0.674569
0.703966
0.77634
0.881779
1.01958
1.19075
1.39572
1.63344
1.90127
2.19561
2.51241
2.84785
3.19833
3.56092
3.93302
4.31301
4.69972
5.09369
5.49607
5.91044
6.34086
6.7938
7.27556
7.7935
8.35445
8.96384
9.62017
10.3163
11.0625
11.8653
12.7312
13.6594
14.6199
15.5734
16.7524
17.8491
19.092
20.3243
21.3077
22.4165
23.7086
25.3693
26.6751
28.0872
29.5435
31.0504
32.6104
34.2221
35.8875
37.6064
39.38
41.2085
43.0927
45.0331
47.03
49.084
51.1952
53.3642
55.5909
57.8755
60.2181
62.6185
65.0765
67.5918
70.1641
72.7927
75.4769
78.2161
81.0091
83.8549
86.7524
89.7
92.6962
95.7393
98.8275
101.959
105.131
108.341
111.587
114.866
118.175
121.51
124.87
128.249
131.644
135.051
138.466
141.886
145.305
148.721
152.129
155.527
158.914
162.291
165.661
169.027
172.385
175.707
178.992
182.232
185.423
188.561
191.641
194.657
197.606
200.481
203.279
205.995
208.625
211.164
213.607
215.952
218.194
220.329
222.354
224.265
226.06
227.736
229.29
230.72
232.024
233.2
234.247
235.163
235.947
236.599
237.117
237.501
237.749
237.847
237.836
237.69
237.424
237.026
236.497
235.844
235.068
234.172
233.16
232.034
230.798
229.456
228.01
226.466
224.826
223.095
221.278
219.377
217.399
215.348
213.229
211.046
208.804
206.509
204.165
201.777
199.351
196.892
194.406
191.901
189.391
186.917
184.592
182.457
180.401
178.375
176.364
174.366
172.38
170.411
168.46
166.532
164.634
162.778
160.983
159.327
157.818
156.394
2.33053
1.12538
0.968823
0.973959
1.04303
1.15364
1.29997
1.48038
1.69379
1.93853
2.21201
2.51112
2.83257
3.17338
3.53091
3.90321
4.28871
4.68672
5.09694
5.52028
5.95812
6.41331
6.88917
7.39007
7.92045
8.4844
9.08552
9.72552
10.4055
11.125
11.8852
12.6851
13.5196
14.3798
15.2344
16.1186
17.069
18.0948
19.225
20.3787
21.5124
22.6878
23.958
25.2809
26.5944
27.9536
29.3578
30.8093
32.3093
33.8587
35.4583
37.1087
38.8108
40.565
42.3721
44.2326
46.1468
48.1154
50.1387
52.2172
54.351
56.5405
58.7859
61.0873
63.4445
65.8576
68.3263
70.8503
73.4292
76.0623
78.7489
81.4881
84.2791
87.1205
90.0111
92.9493
95.9336
98.962
102.033
105.143
108.291
111.474
114.689
117.933
121.204
124.497
127.81
131.139
134.48
137.829
141.184
144.541
147.896
151.248
154.593
157.931
161.259
164.575
167.867
171.127
174.348
177.527
180.657
183.734
186.752
189.708
192.595
195.409
198.146
200.801
203.369
205.846
208.228
210.51
212.69
214.762
216.724
218.572
220.304
221.916
223.407
224.773
226.013
227.126
228.109
228.962
229.683
230.272
230.729
231.052
231.23
231.282
231.215
231.014
230.689
230.236
229.656
228.954
228.13
227.189
226.134
224.968
223.693
222.315
220.836
219.261
217.594
215.839
213.999
212.08
210.087
208.023
205.894
203.705
201.46
199.164
196.823
194.441
192.023
189.575
187.102
184.612
182.117
179.641
177.239
174.931
172.679
170.457
168.255
166.07
163.904
161.761
159.644
157.56
155.519
153.54
151.644
149.916
148.381
147.097
3.27499
1.52476
1.27533
1.25441
1.31688
1.42911
1.58037
1.76657
1.98539
2.23468
2.51192
2.81441
3.13935
3.48433
3.84729
4.22679
4.62183
5.03209
5.45764
5.8993
6.35822
6.83626
7.3355
7.85837
8.40729
8.98431
9.59154
10.2302
10.902
11.6081
12.3497
13.1274
13.9384
14.7766
15.6441
16.5551
17.5223
18.5498
19.6295
20.7464
21.8913
23.0711
24.3004
25.5814
26.8989
28.2603
29.6678
31.1229
32.6269
34.1807
35.7856
37.4424
39.152
40.9153
42.7333
44.607
46.5367
48.5232
50.567
52.6688
54.8291
57.0486
59.3276
61.6665
64.0656
66.525
69.0448
71.6248
74.265
76.965
79.7241
82.5419
85.4174
88.3496
91.3373
94.3792
97.4737
100.619
103.813
107.053
110.338
113.664
117.029
120.429
123.862
127.324
130.811
134.32
137.847
141.387
144.938
148.496
152.056
155.614
159.167
162.709
166.236
169.742
173.22
176.663
180.065
183.422
186.726
189.973
193.157
196.273
199.315
202.279
205.158
207.948
210.644
213.241
215.734
218.12
220.393
222.551
224.588
226.503
228.291
229.95
231.477
232.869
234.125
235.243
236.222
237.06
237.757
238.312
238.725
238.989
239.101
239.092
238.941
238.652
238.227
237.668
236.975
236.152
235.202
234.128
232.934
231.622
230.199
228.666
227.029
225.291
223.458
221.534
219.524
217.432
215.264
213.024
210.719
208.352
205.93
203.457
200.94
198.382
195.79
193.169
190.525
187.865
185.199
182.544
179.93
177.37
174.852
172.363
169.898
167.456
165.039
162.652
160.3
157.992
155.74
153.565
151.499
149.613
147.931
146.453
4.1913
1.9185
1.57553
1.5277
1.58106
1.69188
1.84469
2.03315
2.25381
2.50409
2.78148
3.08354
3.40786
3.7524
4.11543
4.49582
4.89282
5.30629
5.7364
6.18388
6.64971
7.13526
7.64208
8.17183
8.72624
9.30683
9.91526
10.5529
11.2217
11.9233
12.6598
13.4332
14.244
15.0923
15.9782
16.9058
17.8788
18.899
19.9659
21.0757
22.2262
23.4189
24.6586
25.9457
27.279
28.66
30.0901
31.5706
33.1029
34.6882
36.3278
38.023
39.7748
41.5844
43.4529
45.3811
47.3705
49.4223
51.5375
53.7171
55.9621
58.2734
60.6516
63.0975
65.6117
68.1947
70.8467
73.5681
76.3587
79.2184
82.147
85.1438
88.2082
91.3392
94.5356
97.7961
101.119
104.502
107.944
111.441
114.992
118.593
122.241
125.932
129.664
133.432
137.233
141.061
144.913
148.783
152.668
156.562
160.461
164.359
168.251
172.13
175.991
179.827
183.631
187.396
191.115
194.784
198.394
201.94
205.416
208.815
212.131
215.359
218.491
221.524
224.45
227.265
229.964
232.541
234.993
237.314
239.5
241.548
243.454
245.216
246.829
248.293
249.604
250.761
251.762
252.608
253.295
253.826
254.198
254.399
254.451
254.357
254.107
253.705
253.154
252.455
251.61
250.624
249.5
248.241
246.851
245.335
243.697
241.943
240.076
238.101
236.025
233.852
231.588
229.237
226.807
224.302
221.728
219.091
216.397
213.652
210.861
208.03
205.165
202.273
199.358
196.429
193.493
190.565
187.662
184.795
181.962
179.158
176.382
173.635
170.919
168.241
165.607
163.027
160.516
158.097
155.801
153.69
151.773
149.99
5.04183
2.28993
1.8564
1.78102
1.82324
1.92999
2.08131
2.26877
2.48787
2.73563
3.00948
3.30717
3.62656
3.96589
4.3237
4.69907
5.09142
5.5007
5.92719
6.3716
6.83488
7.3183
7.82329
8.35143
8.90435
9.48364
10.0909
10.7278
11.3961
12.0975
12.8342
13.608
14.4203
15.2724
16.1651
17.1
18.0786
19.1023
20.1717
21.2867
22.4476
23.6553
24.9119
26.2183
27.5754
28.9845
30.4469
31.9642
33.5378
35.1692
36.8601
38.612
40.4264
42.305
44.2491
46.2604
48.3404
50.4908
52.7129
55.0081
57.3779
59.8235
62.3461
64.9467
67.6263
70.3856
73.2253
76.1459
79.1476
82.2305
85.3944
88.639
91.9635
95.367
98.8483
102.406
106.038
109.743
113.517
117.359
121.266
125.233
129.257
133.335
137.462
141.633
145.845
150.091
154.367
158.666
162.984
167.314
171.65
175.986
180.315
184.629
188.921
193.184
197.411
201.593
205.724
209.795
213.801
217.733
221.584
225.347
229.016
232.583
236.041
239.385
242.607
245.702
248.664
251.488
254.167
256.698
259.076
261.296
263.355
265.249
266.975
268.531
269.915
271.124
272.158
273.016
273.696
274.2
274.521
274.657
274.632
274.434
274.063
273.524
272.818
271.948
270.919
269.732
268.393
266.906
265.276
263.508
261.607
259.578
257.427
255.16
252.784
250.303
247.724
245.053
242.298
239.463
236.557
233.584
230.552
227.468
224.337
221.166
217.961
214.729
211.477
208.211
204.94
201.674
198.427
195.208
192.019
188.861
185.735
182.643
179.591
176.584
173.63
170.742
167.934
165.23
162.661
160.277
158.073
155.942
5.799
2.62621
2.108
2.00501
2.03445
2.13478
2.28191
2.46547
2.68003
2.92218
3.18931
3.47928
3.79019
4.12053
4.46909
4.83513
5.21824
5.61848
6.03626
6.47236
6.92779
7.40377
7.9016
8.42307
8.96994
9.54392
10.1467
10.7801
11.4457
12.1453
12.8808
13.654
14.4663
15.3193
16.2142
17.1525
18.1354
19.1643
20.2404
21.3647
22.5385
23.7632
25.04
26.3703
27.7559
29.1981
30.6988
32.2598
33.883
35.5705
37.324
39.1457
41.0375
43.0015
45.0397
47.1541
49.3467
51.6196
53.9748
56.4141
58.9394
61.5523
64.2545
67.0475
69.9326
72.9109
75.9835
79.151
82.4141
85.7728
89.2273
92.7771
96.4217
100.16
103.991
107.913
111.923
116.02
120.2
124.461
128.798
133.209
137.688
142.231
146.834
151.489
156.193
160.938
165.719
170.529
175.36
180.207
185.06
189.912
194.756
199.582
204.382
209.148
213.871
218.543
223.154
227.697
232.163
236.544
240.831
245.017
249.092
253.051
256.884
260.585
264.146
267.561
270.822
273.925
276.862
279.629
282.221
284.633
286.86
288.9
290.748
292.403
293.862
295.124
296.186
297.05
297.713
298.178
298.431
298.491
298.36
298.035
297.519
296.814
295.923
294.851
293.6
292.177
290.585
288.83
286.918
284.854
282.644
280.296
277.815
275.207
272.481
269.643
266.699
263.658
260.526
257.311
254.019
250.659
247.237
243.761
240.238
236.674
233.078
229.456
225.814
222.161
218.504
214.853
211.219
207.609
204.03
200.484
196.975
193.506
190.085
186.717
183.413
180.184
177.048
174.026
171.147
168.454
165.925
163.426
6.44528
2.91863
2.32374
2.19371
2.20914
2.30101
2.44157
2.61874
2.82622
3.06023
3.31809
3.59777
3.89757
4.2162
4.5527
4.90653
5.27736
5.66523
6.071
6.49564
6.94033
7.40657
7.89626
8.41074
8.95113
9.51901
10.1161
10.7442
11.405
12.1004
12.8321
13.602
14.4116
15.2626
16.1566
17.0952
18.0798
19.112
20.1936
21.3261
22.5115
23.7518
25.0496
26.4071
27.8252
29.3051
30.8493
32.4605
34.1411
35.8936
37.7206
39.6244
41.6075
43.6727
45.8225
48.0594
50.386
52.8051
55.3189
57.93
60.6407
63.4532
66.3697
69.3921
72.522
75.7611
79.1107
82.5717
86.1448
89.8305
93.6289
97.5396
101.562
105.695
109.937
114.285
118.739
123.294
127.948
132.696
137.535
142.46
147.465
152.546
157.695
162.907
168.174
173.49
178.847
184.237
189.651
195.081
200.518
205.952
211.375
216.776
222.145
227.473
232.749
237.965
243.109
248.173
253.147
258.021
262.786
267.433
271.952
276.335
280.573
284.658
288.582
292.337
295.916
299.312
302.519
305.531
308.343
310.949
313.345
315.527
317.493
319.238
320.762
322.062
323.138
323.989
324.615
325.014
325.182
325.136
324.871
324.389
323.695
322.791
321.681
320.369
318.861
317.163
315.278
313.215
310.98
308.578
306.018
303.307
300.452
297.461
294.341
291.101
287.749
284.293
280.74
277.1
273.379
269.588
265.732
261.821
257.863
253.865
249.835
245.78
241.709
237.628
233.546
229.472
225.414
221.383
217.384
213.422
209.502
205.63
201.813
198.059
194.378
190.783
187.291
183.923
180.706
177.674
174.793
171.915
6.97097
3.16211
2.50014
2.34423
2.34488
2.42663
2.55862
2.72728
2.9256
3.14947
3.39612
3.66363
3.95043
4.25527
4.57773
4.91785
5.27605
5.65343
6.04939
6.4645
6.89977
7.35644
7.83571
8.33921
8.86857
9.42561
10.0123
10.6306
11.2822
11.9692
12.6934
13.4566
14.2608
15.1077
15.9992
16.9372
17.9238
18.9609
20.0505
21.195
22.3965
23.6573
24.9792
26.3646
27.8164
29.3386
30.9329
32.6025
34.3504
36.1797
38.0934
40.0945
42.1862
44.3717
46.6542
49.0369
51.5231
54.1158
56.8184
59.6336
62.5645
65.6139
68.7842
72.0779
75.4971
79.0438
82.7193
86.5251
90.4619
94.5302
98.7301
103.061
107.522
112.112
116.829
121.671
126.634
131.715
136.91
142.214
147.623
153.13
158.73
164.415
170.179
176.013
181.91
187.86
193.855
199.886
205.941
212.012
218.088
224.157
230.209
236.233
242.217
248.149
254.02
259.817
265.529
271.146
276.656
282.049
287.314
292.441
297.419
302.24
306.893
311.369
315.66
319.756
323.651
327.337
330.807
334.054
337.073
339.859
342.407
344.713
346.774
348.587
350.149
351.461
352.52
353.328
353.885
354.187
354.239
354.047
353.611
352.935
352.024
350.882
349.513
347.922
346.116
344.101
341.883
339.47
336.87
334.089
331.138
328.022
324.752
321.336
317.783
314.102
310.301
306.391
302.379
298.275
294.089
289.829
285.503
281.122
276.693
272.226
267.728
263.208
258.674
254.133
249.595
245.068
240.561
236.082
231.639
227.238
222.886
218.589
214.355
210.194
206.115
202.133
198.264
194.529
190.95
187.557
184.306
181.044
7.37346
3.35505
2.63679
2.45557
2.44205
2.51234
2.6341
2.79254
2.98004
3.1922
3.42606
3.68021
3.95384
4.24694
4.55836
4.88733
5.2336
5.59691
5.97803
6.37831
6.79893
7.2412
7.7065
8.19646
8.71307
9.25815
9.83342
10.4408
11.0822
11.7597
12.4753
13.2311
14.0294
14.8722
15.7618
16.7006
17.6908
18.7351
19.836
20.9961
22.2182
23.5052
24.8599
26.2854
27.7854
29.3613
31.0169
32.7577
34.5884
36.5122
38.5327
40.6535
42.8784
45.2113
47.6561
50.2167
52.8971
55.701
58.6321
61.6942
64.8906
68.2246
71.6993
75.3173
79.0813
82.9932
87.0548
91.2675
95.632
100.149
104.817
109.637
114.607
119.725
124.988
130.394
135.938
141.616
147.423
153.354
159.402
165.56
171.82
178.175
184.616
191.133
197.717
204.357
211.044
217.765
224.509
231.265
238.019
244.761
251.477
258.154
264.78
271.341
277.826
284.221
290.514
296.693
302.746
308.66
314.424
320.028
325.459
330.707
335.761
340.613
345.251
349.668
353.855
357.803
361.507
364.959
368.153
371.084
373.747
376.139
378.255
380.095
381.655
382.935
383.935
384.655
385.097
385.26
385.149
384.765
384.111
383.195
382.022
380.596
378.922
377.008
374.859
372.483
369.888
367.083
364.076
360.875
357.491
353.932
350.209
346.33
342.306
338.148
333.863
329.464
324.96
320.361
315.677
310.918
306.093
301.213
296.286
291.322
286.331
281.32
276.298
271.275
266.258
261.256
256.278
251.333
246.429
241.574
236.774
232.037
227.371
222.788
218.297
213.913
209.651
205.532
201.575
197.804
194.172
190.526
7.65641
3.49804
2.73459
2.53036
2.50275
2.56075
2.67102
2.81778
2.99332
3.19369
3.417
3.66061
3.92276
4.20198
4.49763
4.81016
5.13985
5.48727
5.85366
6.23973
6.64652
7.07532
7.52759
8.00497
8.50928
9.0424
9.60628
10.203
10.8346
11.5035
12.212
12.9624
13.7574
14.5995
15.4914
16.436
17.4362
18.495
19.6156
20.8012
22.0551
23.3814
24.7835
26.264
27.8246
29.4714
31.2113
33.0484
34.9877
37.0354
39.1951
41.4709
43.8673
46.3891
49.0408
51.8272
54.7528
57.822
61.0392
64.4085
67.9338
71.6187
75.4667
79.4806
83.6632
88.0164
92.5419
97.2408
102.114
107.16
112.38
117.772
123.332
129.06
134.951
141.001
147.205
153.558
160.052
166.682
173.438
180.313
187.297
194.381
201.555
208.806
216.125
223.499
230.915
238.361
245.824
253.289
260.744
268.173
275.564
282.901
290.171
297.359
304.451
311.434
318.293
325.015
331.588
337.997
344.231
350.278
356.125
361.761
367.175
372.357
377.296
381.984
386.411
390.57
394.453
398.053
401.365
404.383
407.103
409.521
411.634
413.439
414.937
416.126
417.006
417.579
417.847
417.814
417.483
416.846
415.92
414.71
413.221
411.459
409.43
407.141
404.601
401.818
398.801
395.559
392.103
388.442
384.586
380.546
376.333
371.957
367.43
362.762
357.965
353.049
348.025
342.905
337.698
332.417
327.071
321.671
316.226
310.747
305.244
299.725
294.2
288.679
283.168
277.679
272.219
266.797
261.422
256.102
250.846
245.66
240.555
235.541
230.63
225.834
221.171
216.658
212.312
208.156
204.137
200.11
7.83003
3.5945
2.79655
2.57203
2.53065
2.57584
2.67454
2.81131
2.97727
3.16707
3.37698
3.60542
3.85159
4.115
4.39582
4.69389
5.00945
5.3431
5.6957
6.06824
6.46189
6.87801
7.31815
7.78403
8.27755
8.80074
9.35578
9.94496
10.5707
11.2357
11.9426
12.6943
13.494
14.3446
15.2493
16.2116
17.2352
18.3245
19.4829
20.7136
22.0201
23.4046
24.8708
26.4266
28.0794
29.8352
31.699
33.6761
35.7722
37.9941
40.3466
42.835
45.4648
48.2413
51.17
54.2563
57.5053
60.9219
64.5108
68.2765
72.2231
76.3543
80.6734
85.1833
89.8862
94.7838
99.8773
105.167
110.652
116.333
122.206
128.27
134.521
140.955
147.566
154.35
161.299
168.406
175.664
183.062
190.592
198.244
206.006
213.866
221.813
229.834
237.916
246.045
254.206
262.385
270.568
278.739
286.883
294.985
303.028
310.998
318.878
326.654
334.31
341.832
349.205
356.414
363.445
370.286
376.922
383.34
389.53
395.478
401.174
406.606
411.765
416.641
421.225
425.509
429.487
433.15
436.495
439.515
442.206
444.566
446.592
448.283
449.637
450.655
451.337
451.688
451.709
451.413
450.78
449.827
448.563
446.995
445.129
442.972
440.531
437.814
434.832
431.593
428.107
424.385
420.438
416.277
411.913
407.358
402.623
397.721
392.662
387.459
382.125
376.67
371.107
365.447
359.702
353.884
348.003
342.071
336.097
330.094
324.07
318.037
312.002
305.976
299.968
293.986
288.041
282.14
276.293
270.508
264.794
259.16
253.615
248.17
242.836
237.628
232.561
227.651
222.914
218.37
213.967
209.568
7.8957
3.64594
2.82527
2.58402
2.53071
2.56651
2.65563
2.78058
2.93287
3.10822
3.3041
3.51907
3.75198
4.00232
4.26995
4.55503
4.85793
5.17932
5.52012
5.88144
6.26458
6.67107
7.10263
7.56123
8.04903
8.56841
9.12185
9.71198
10.3416
11.0139
11.7321
12.5002
13.3222
14.2013
15.1411
16.1454
17.2176
18.3594
19.5766
20.8759
22.2636
23.7464
25.3312
27.0237
28.8309
30.7594
32.8156
35.0064
37.3391
39.8198
42.4554
45.2522
48.2167
51.3551
54.6734
58.1775
61.8725
65.7636
69.8553
74.1517
78.6567
83.3734
88.3043
93.4515
98.8161
104.399
110.199
116.216
122.448
128.891
135.543
142.399
149.453
156.7
164.132
171.742
179.52
187.458
195.545
203.771
212.124
220.591
229.16
237.817
246.549
255.34
264.177
273.044
281.924
290.803
299.664
308.49
317.266
325.974
334.598
343.122
351.529
359.804
367.93
375.891
383.674
391.262
398.642
405.799
412.721
419.394
425.807
431.946
437.801
443.361
448.617
453.558
458.176
462.465
466.416
470.023
473.283
476.189
478.739
480.931
482.761
484.23
485.338
486.086
486.474
486.508
486.207
485.541
484.529
483.181
481.505
479.508
477.198
474.582
471.668
468.467
464.989
461.245
457.244
453
448.524
443.827
438.923
433.823
428.54
423.087
417.476
411.721
405.834
399.828
393.714
387.506
381.216
374.856
368.437
361.971
355.469
348.942
342.4
335.855
329.315
322.79
316.289
309.823
303.399
297.027
290.716
284.474
278.312
272.237
266.26
260.392
254.644
249.03
243.564
238.263
233.14
228.215
223.434
218.677
7.88248
3.65846
2.82637
2.57576
2.5135
2.53698
2.61295
2.72515
2.86539
3.02893
3.21309
3.41636
3.63784
3.87712
4.13417
4.40927
4.70299
5.0162
5.35002
5.70577
6.08499
6.48949
6.9213
7.38282
7.87679
8.40674
8.97538
9.58563
10.2409
10.9447
11.7004
12.5106
13.3779
14.3095
15.3114
16.3892
17.5489
18.7979
20.1423
21.5882
23.1429
24.8145
26.611
28.5397
30.6083
32.8246
35.1965
37.7316
40.4378
43.3235
46.3963
49.6641
53.1338
56.8116
60.7038
64.8156
69.1516
73.7158
78.5115
83.5414
88.8076
94.3116
100.054
106.034
112.252
118.705
125.39
132.304
139.442
146.8
154.37
162.145
170.118
178.281
186.622
195.133
203.802
212.618
221.568
230.64
239.82
249.094
258.448
267.867
277.335
286.837
296.357
305.879
315.385
324.86
334.285
343.646
352.923
362.101
371.162
380.09
388.868
397.481
405.911
414.145
422.166
429.961
437.514
444.812
451.843
458.593
465.051
471.206
477.045
482.56
487.74
492.578
497.064
501.193
504.958
508.353
511.375
514.019
516.284
518.167
519.668
520.785
521.522
521.88
521.857
521.489
520.727
519.603
518.122
516.291
514.12
511.617
508.79
505.648
502.201
498.459
494.433
490.136
485.579
480.775
475.736
470.474
465.004
459.338
453.489
447.472
441.299
434.983
428.539
421.978
415.316
408.563
401.733
394.837
387.89
380.901
373.882
366.846
359.801
352.76
345.731
338.724
331.75
324.816
317.933
311.109
304.353
297.675
291.083
284.586
278.196
271.921
265.776
259.772
253.923
248.245
242.749
237.456
232.313
227.22
7.8407
3.65236
2.81342
2.55097
2.47702
2.48961
2.5552
2.65725
2.78751
2.94151
3.11674
3.31186
3.52614
3.75936
4.01167
4.2836
4.57603
4.89032
5.22846
5.59214
5.98309
6.40356
6.85611
7.34338
7.86778
8.43047
9.03626
9.69076
10.399
11.1663
11.9981
12.9008
13.8817
14.9464
16.1019
17.3559
18.7167
20.1932
21.794
23.5277
25.4032
27.4301
29.6175
31.9747
34.5107
37.2343
40.1542
43.2782
46.6135
50.1659
53.9463
57.9673
62.2322
66.7459
71.514
76.5393
81.8231
87.3658
93.167
99.2258
105.54
112.108
118.927
125.991
133.296
140.837
148.607
156.599
164.804
173.214
181.82
190.612
199.578
208.707
217.989
227.409
236.957
246.618
256.378
266.224
276.142
286.115
296.13
306.171
316.222
326.267
336.289
346.273
356.203
366.06
375.83
385.495
395.039
404.445
413.697
422.779
431.676
440.372
448.851
457.1
465.103
472.847
480.319
487.506
494.396
500.976
507.236
513.166
518.755
523.993
528.873
533.387
537.528
541.289
544.666
547.654
550.25
552.452
554.256
555.664
556.676
557.288
557.51
557.346
556.804
555.864
554.547
552.86
550.809
548.402
545.651
542.564
539.149
535.415
531.375
527.04
522.421
517.531
512.383
506.989
501.363
495.518
489.467
483.226
476.806
470.223
463.49
456.62
449.628
442.527
435.33
428.05
420.7
413.293
405.84
398.355
390.847
383.33
375.812
368.305
360.819
353.362
345.946
338.578
331.267
324.024
316.855
309.771
302.781
295.893
289.118
282.466
275.95
269.582
263.374
257.343
251.497
245.859
240.377
234.977
7.75113
3.62669
2.78241
2.51147
2.42999
2.435
2.49349
2.58926
2.7143
2.86446
3.03761
3.23306
3.45055
3.68992
3.95168
4.23678
4.54637
4.8816
5.24282
5.63282
6.05571
6.51532
7.0157
7.56126
8.15706
8.80961
9.52451
10.3081
11.1676
12.1109
13.1467
14.2843
15.5339
16.905
18.4076
20.0527
21.8513
23.8152
25.9556
28.2838
30.8105
33.5465
36.5022
39.6875
43.1116
46.7824
50.7074
54.8932
59.345
64.0661
69.0595
74.3237
79.8636
85.6843
91.7995
98.2011
104.881
111.83
119.041
126.506
134.216
142.163
150.338
158.732
167.335
176.138
185.13
194.299
203.636
213.128
222.763
232.531
242.418
252.412
262.501
272.672
282.911
293.207
303.545
313.911
324.293
334.675
345.045
355.387
365.688
375.931
386.103
396.189
406.174
416.042
425.778
435.369
444.798
454.051
463.113
471.97
480.608
489.013
497.172
505.071
512.697
520.038
527.082
533.818
540.233
546.319
552.066
557.464
562.504
567.177
571.477
575.398
578.932
582.075
584.825
587.177
589.125
590.676
591.821
592.565
592.913
592.845
592.425
591.571
590.341
588.727
586.737
584.377
581.656
578.583
575.171
571.426
567.357
562.976
558.294
553.324
548.077
542.567
536.807
530.809
524.588
518.156
511.529
504.719
497.741
490.608
483.336
475.937
468.425
460.814
453.116
445.346
437.515
429.637
421.723
413.785
405.834
397.881
389.938
382.013
374.117
366.259
358.449
350.694
343.004
335.388
327.853
320.409
313.065
305.829
298.712
291.724
284.876
278.181
271.651
265.3
259.137
253.187
247.396
241.725
7.64933
3.57825
2.73782
2.46593
2.38296
2.38759
2.44841
2.54901
2.68165
2.84243
3.02921
3.2403
3.47564
3.73721
4.0269
4.34705
4.70053
5.09088
5.52298
6.00157
6.53198
7.12087
7.77581
8.50524
9.31861
10.2267
11.2406
12.3726
13.6355
15.0429
16.6093
18.3499
20.2805
22.4167
24.7733
27.3646
30.2048
33.3074
36.6851
40.3482
44.3049
48.5625
53.1277
58.0061
63.1995
68.7072
74.528
80.6627
87.108
93.8535
100.887
108.195
115.767
123.593
131.656
139.976
148.535
157.307
166.275
175.422
184.735
194.2
203.805
213.538
223.387
233.34
243.387
253.517
263.718
273.98
284.293
294.647
305.032
315.437
325.853
336.269
346.675
357.062
367.418
377.734
387.998
398.201
408.33
418.375
428.325
438.166
447.889
457.48
466.928
476.22
485.344
494.289
503.04
511.587
519.917
528.018
535.878
543.485
550.827
557.895
564.675
571.158
577.334
583.191
588.721
593.914
598.765
603.262
607.398
611.166
614.561
617.579
620.212
622.453