/*--------------------------------*- C++ -*----------------------------------*\
  =========                 |
  \\      /  F ield         | OpenFOAM: The Open Source CFD Toolbox
   \\    /   O peration     | Website:  https://openfoam.org
    \\  /    A nd           | Version:  8
     \\/     M anipulation  |
\*---------------------------------------------------------------------------*/
FoamFile
{
    version     2.0;
    format      ascii;
    class       volScalarField;
    location    "400";
    object      nut;
}
// * * * * * * * * * * * * * * * * * * * * * * * * * * * * * * * * * * * * * //

dimensions      [0 2 -1 0 0 0 0];

internalField   nonuniform List<scalar> 
12225
(
4.00415e-05
3.79925e-05
3.6132e-05
3.41842e-05
3.25512e-05
3.13059e-05
3.03912e-05
2.99732e-05
2.99761e-05
3.03915e-05
3.08692e-05
3.1508e-05
3.26745e-05
3.33989e-05
3.47719e-05
3.53961e-05
3.71141e-05
3.64234e-05
0.000331349
0.000213888
0.000178115
0.0001571
0.000145605
0.00013753
0.000132435
0.000131791
0.000129616
0.000130596
0.000129421
0.000130067
0.000129105
0.00012921
0.000128519
0.00012804
0.000127822
0.000126931
0.000675768
0.000454088
0.000358534
0.000311674
0.000276576
0.000251969
0.000232199
0.00021722
0.000202153
0.000191632
0.000181681
0.000174584
0.000168303
0.000163014
0.000159185
0.000154935
0.000152753
0.00014923
0.000804844
0.000704325
0.000585317
0.000511389
0.000459509
0.000421243
0.000389099
0.000363631
0.000340654
0.000320903
0.000303515
0.000286661
0.000274382
0.000260129
0.000251458
0.000239444
0.000233191
0.000223394
0.000842015
0.000818199
0.000756486
0.000695721
0.00064406
0.000601719
0.000565842
0.00053426
0.000508444
0.00048302
0.000463538
0.00044151
0.000426465
0.000407126
0.000395412
0.000378347
0.000369244
0.000354398
0.00085201
0.000845573
0.00082701
0.000802221
0.000770974
0.000739658
0.000711585
0.00068365
0.000660727
0.000636583
0.000618062
0.000596846
0.000581627
0.000562747
0.000550131
0.000533157
0.000522723
0.000507314
0.000851978
0.000851548
0.000847161
0.00083992
0.000829079
0.000814704
0.000799493
0.000782283
0.000767098
0.000750064
0.000736023
0.000720045
0.000707492
0.000692689
0.000681686
0.000667908
0.000658523
0.00064543
0.000851808
0.000851654
0.000850891
0.000848462
0.000845091
0.000838882
0.000831887
0.000823514
0.000814865
0.000804648
0.000795515
0.000785113
0.000776144
0.000765942
0.000757592
0.000747732
0.00074017
0.000730442
0.000851796
0.000851416
0.000851248
0.000850403
0.000849457
0.000847301
0.00084456
0.000840731
0.00083665
0.000831465
0.000826296
0.00082048
0.000814596
0.000808657
0.000802818
0.000796732
0.000790972
0.00078478
0.000851807
0.000851342
0.000851101
0.000850655
0.000850315
0.000849614
0.000848771
0.000847393
0.000845863
0.000843777
0.000841542
0.000838851
0.000836107
0.00083293
0.000829985
0.000826437
0.000823538
0.000819565
0.000851799
0.000851352
0.000851017
0.000850628
0.00085033
0.000849951
0.000849606
0.000849097
0.00084857
0.000847827
0.000847049
0.000846012
0.000844995
0.000843658
0.000842466
0.000840859
0.000839584
0.000837732
0.000851789
0.000851363
0.000850991
0.000850611
0.000850283
0.000849941
0.000849647
0.000849321
0.000849028
0.000848674
0.000848346
0.000847926
0.000847541
0.000847031
0.000846581
0.000845974
0.000845465
0.000844768
0.000851783
0.000851365
0.00085098
0.000850605
0.00085026
0.000849922
0.000849614
0.000849309
0.000849031
0.000848748
0.000848491
0.000848219
0.000847971
0.0008477
0.000847451
0.000847173
0.000846918
0.000846629
0.000851781
0.000851365
0.000850973
0.000850599
0.000850248
0.000849911
0.000849594
0.00084929
0.000849004
0.000848728
0.000848468
0.000848216
0.000847979
0.000847748
0.000847529
0.000847314
0.00084711
0.00084691
0.00085178
0.000851364
0.000850969
0.000850595
0.00085024
0.000849902
0.000849581
0.000849276
0.000848985
0.000848708
0.000848444
0.000848192
0.000847952
0.000847722
0.000847503
0.000847293
0.000847093
0.000846901
0.000851779
0.000851363
0.000850967
0.000850591
0.000850234
0.000849895
0.000849572
0.000849265
0.000848973
0.000848694
0.000848428
0.000848174
0.000847932
0.0008477
0.000847479
0.000847268
0.000847065
0.000846872
0.000851779
0.000851362
0.000850965
0.000850588
0.000850231
0.00084989
0.000849566
0.000849258
0.000848964
0.000848684
0.000848417
0.000848162
0.000847918
0.000847685
0.000847462
0.000847249
0.000847046
0.000846851
0.000851779
0.000851362
0.000850965
0.000850587
0.000850229
0.000849888
0.000849564
0.000849255
0.00084896
0.000848679
0.000848411
0.000848155
0.000847911
0.000847677
0.000847453
0.000847239
0.000847035
0.000846839
0.000851779
0.000851362
0.000850965
0.000850588
0.000850229
0.000849889
0.000849564
0.000849255
0.00084896
0.000848679
0.000848411
0.000848155
0.00084791
0.000847676
0.000847452
0.000847238
0.000847032
0.000846836
0.000851779
0.000851362
0.000850966
0.000850589
0.000850231
0.000849891
0.000849567
0.000849258
0.000848964
0.000848683
0.000848415
0.000848159
0.000847914
0.00084768
0.000847455
0.00084724
0.000847033
0.000846835
0.000851779
0.000851363
0.000850967
0.000850592
0.000850234
0.000849896
0.000849572
0.000849265
0.00084897
0.00084869
0.000848418
0.00084816
0.000847905
0.000847663
0.000847422
0.000847192
0.00084696
0.000846739
0.000851777
0.000851366
0.000850968
0.000850598
0.000850239
0.000849905
0.000849576
0.000849264
0.000848945
0.000848636
0.000848307
0.000847984
0.000847631
0.000847283
0.000846898
0.000846525
0.000846105
0.000845709
0.00085177
0.000851379
0.000850968
0.000850613
0.000850234
0.000849867
0.00084943
0.000848954
0.000848364
0.000847719
0.000846938
0.000846111
0.000845139
0.000844152
0.000843016
0.000841913
0.000840646
0.000839479
0.000851765
0.000851439
0.000850951
0.000850537
0.000849785
0.000848824
0.00084736
0.000845566
0.000843346
0.000840886
0.000838042
0.0008351
0.000831851
0.000828653
0.000825183
0.000821916
0.000818345
0.000815159
0.000851943
0.000851526
0.000850178
0.00084828
0.000844439
0.000839533
0.000832894
0.00082595
0.000818364
0.000810531
0.000802358
0.00079449
0.000786447
0.000778952
0.000771282
0.000764359
0.000757122
0.00075088
0.000853179
0.000848679
0.000840763
0.000829129
0.000812036
0.000794114
0.000775603
0.000757939
0.000740803
0.000725081
0.000709959
0.000696342
0.000683135
0.000671431
0.000659843
0.000649781
0.000639487
0.000630867
0.000852319
0.000823288
0.000785083
0.00073942
0.00070052
0.000666602
0.000636456
0.000610822
0.00058797
0.00056838
0.000550434
0.000534988
0.000520421
0.000507966
0.000495743
0.000485475
0.000475017
0.000466462
0.000813279
0.000687052
0.000594807
0.000535038
0.000491122
0.000456312
0.000428871
0.000407076
0.000388474
0.00037325
0.00035975
0.000348567
0.000338426
0.000329744
0.000321426
0.000314785
0.000308005
0.000302557
0.000528579
0.000373307
0.00031493
0.000279553
0.000255727
0.000238602
0.000228012
0.000219896
0.00021331
0.000209084
0.000205603
0.000203159
0.000200914
0.000199407
0.000197782
0.000196769
0.000195488
0.000194837
8.19308e-05
7.92791e-05
7.69042e-05
7.44664e-05
7.21369e-05
6.99294e-05
6.79691e-05
6.6298e-05
6.48545e-05
6.36679e-05
6.27117e-05
6.1959e-05
6.1399e-05
6.09823e-05
6.07274e-05
6.05558e-05
6.05272e-05
6.05653e-05
1.3665e-07
3.82434e-06
7.2169e-06
1.01748e-05
1.28651e-05
1.58003e-05
1.92174e-05
2.33812e-05
2.84773e-05
3.45971e-05
4.16163e-05
4.93994e-05
5.7687e-05
6.63329e-05
7.51117e-05
8.3955e-05
9.2697e-05
0.000101361
0.000109854
0.000118274
0.000126579
0.000134888
0.000143115
0.000151236
0.00015907
0.000166374
0.000172877
0.000177981
0.000181516
0.000183553
0.000184234
0.000183628
0.000181848
0.000180822
0.000181878
0.000187846
0.000193369
0.000201141
0.000198442
4.09681e-05
4.50732e-05
4.97267e-05
0.000227935
4.67475e-05
4.98164e-05
5.04729e-05
5.16941e-05
5.27781e-05
5.39075e-05
5.50149e-05
5.61297e-05
5.72351e-05
5.83408e-05
5.94403e-05
6.05378e-05
6.16306e-05
6.27205e-05
6.3806e-05
6.48881e-05
6.5966e-05
6.70401e-05
6.81098e-05
6.91752e-05
7.02358e-05
7.12916e-05
7.2342e-05
7.33869e-05
7.44258e-05
7.54584e-05
7.64841e-05
7.75026e-05
7.85133e-05
7.95159e-05
8.05097e-05
8.14943e-05
8.24692e-05
8.34338e-05
8.43876e-05
8.533e-05
8.62605e-05
8.71785e-05
8.80834e-05
8.89747e-05
8.98517e-05
9.07139e-05
9.15606e-05
9.23912e-05
9.32051e-05
9.40015e-05
9.47797e-05
9.55388e-05
9.62777e-05
9.69955e-05
9.7691e-05
9.83631e-05
9.9011e-05
9.96346e-05
0.000100236
0.000100821
0.000101382
0.000101922
0.00010244
0.000102936
0.00010341
0.000103861
0.000104289
0.000104694
0.000105075
0.000105432
0.000105766
0.000106075
0.000106359
0.000106619
0.000106854
0.000107064
0.000107249
0.000107409
0.000107544
0.000107653
0.000107737
0.000107795
0.000107829
0.000107837
0.000107819
0.000107777
0.00010771
0.000107618
0.000107502
0.000107362
0.000107198
0.000107009
0.000106795
0.000106552
0.000106291
0.000106013
0.00010571
0.000105383
0.000105034
0.000104664
0.000104273
0.000103862
0.000103431
0.00010298
0.000102511
0.000102023
0.000101518
0.000100995
0.000100456
9.99005e-05
9.93299e-05
9.87446e-05
9.81451e-05
9.75323e-05
9.69068e-05
9.62692e-05
9.56204e-05
9.49609e-05
9.42917e-05
9.36133e-05
9.29267e-05
9.22328e-05
9.1533e-05
9.08303e-05
9.0138e-05
8.957e-05
8.91566e-05
8.87601e-05
8.83633e-05
8.79647e-05
8.75643e-05
8.71623e-05
8.67586e-05
8.63528e-05
8.5944e-05
8.55297e-05
8.51049e-05
8.46588e-05
8.41621e-05
8.35485e-05
8.17298e-05
7.1615e-07
2.18932e-05
5.10478e-05
7.16855e-05
8.48642e-05
9.3405e-05
9.98815e-05
0.000106031
0.000112775
0.000120492
0.000129194
0.000138733
0.000148866
0.000159362
0.000169996
0.000180602
0.000191034
0.000201205
0.000211047
0.000220537
0.00022965
0.000238379
0.000246666
0.000254427
0.000261511
0.000267712
0.000272779
0.000276408
0.000278051
0.000277058
0.000273509
0.000267337
0.00025872
0.000248152
0.00023929
0.00025052
0.000238518
0.000243437
0.000231705
0.000216628
0.000232594
0.000255464
0.000286972
0.000258652
0.000270013
0.000276272
0.000283855
0.000291615
0.000299525
0.000307631
0.000315823
0.00032413
0.000332517
0.000340991
0.000349542
0.000358173
0.00036688
0.000375666
0.000384531
0.000393475
0.000402499
0.000411605
0.000420793
0.000430063
0.000439415
0.000448848
0.000458363
0.000467956
0.000477627
0.000487373
0.000497191
0.00050708
0.000517034
0.00052705
0.000537125
0.000547252
0.000557428
0.000567647
0.000577903
0.000588191
0.000598505
0.000608838
0.000619185
0.00062954
0.000639896
0.000650247
0.000660588
0.000670913
0.000681216
0.000691492
0.000701735
0.000711937
0.000722086
0.000732163
0.000742137
0.000751953
0.000761512
0.000770648
0.000779072
0.000787359
0.000795511
0.000803533
0.000811417
0.000819161
0.000826758
0.000834203
0.00084149
0.000848614
0.000855569
0.000862351
0.000868954
0.000875373
0.000881604
0.000887642
0.000893483
0.000899123
0.000904558
0.000909784
0.000914798
0.000919596
0.000924176
0.000928535
0.000932671
0.00093658
0.000940263
0.000943717
0.000946943
0.000949941
0.000952712
0.000955261
0.000957606
0.00095976
0.000961438
0.00096291
0.000964326
0.000965541
0.000966463
0.000967151
0.000967612
0.000967849
0.000967865
0.000967663
0.000967247
0.00096662
0.000965787
0.000964752
0.000963518
0.00096209
0.000960474
0.000958674
0.000956695
0.000954543
0.000952224
0.000949744
0.000947109
0.000944326
0.000941401
0.000938341
0.000935151
0.000931837
0.000928401
0.000924839
0.000921117
0.000917041
0.000911675
0.000904719
0.000897251
0.000889601
0.000881859
0.000874057
0.000866211
0.000858326
0.000850403
0.000842434
0.000834396
0.000826237
0.000817805
0.000808832
0.000797875
0.000769784
1.5565e-06
3.71678e-05
8.23888e-05
0.000116804
0.000141679
0.000159664
0.000173195
0.000184282
0.000194376
0.000204373
0.000214722
0.000225555
0.000236817
0.000248364
0.00026002
0.000271622
0.000283025
0.000294125
0.000304848
0.000315156
0.000325033
0.000334476
0.000343468
0.000351965
0.000359871
0.000367039
0.000373282
0.000378428
0.000382691
0.000386482
0.000389807
0.000393093
0.000397157
0.00040313
0.000412421
0.000425067
0.000431344
0.000440369
0.000446789
0.000455909
0.00047693
0.000497555
0.000514919
0.000522651
0.000539394
0.000554995
0.000571053
0.000587316
0.000603761
0.000620388
0.000637166
0.000654093
0.00067116
0.000688365
0.000705706
0.000723184
0.0007408
0.000758555
0.000776451
0.000794488
0.000812667
0.000830988
0.00084945
0.000868053
0.000886794
0.000905671
0.000924681
0.00094382
0.000963082
0.000982463
0.00100196
0.00102155
0.00104125
0.00106103
0.00108089
0.00110082
0.00112082
0.00114086
0.00116094
0.00118104
0.00120116
0.00122129
0.0012414
0.00126149
0.00128155
0.00130156
0.00132151
0.00134138
0.00136116
0.00138083
0.00140039
0.00141979
0.00143901
0.00145803
0.00147677
0.00149519
0.00151321
0.00153073
0.0015478
0.00156461
0.00158115
0.00159742
0.00161341
0.00162909
0.00164447
0.00165952
0.00167424
0.00168861
0.00170263
0.00171628
0.00172956
0.00174246
0.00175496
0.00176705
0.00177873
0.00179
0.00180083
0.00181123
0.00182119
0.0018307
0.00183975
0.00184835
0.00185648
0.00186414
0.00187133
0.00187805
0.0018843
0.00189008
0.00189538
0.00190023
0.00190462
0.00190864
0.00191179
0.00191446
0.00191696
0.00191899
0.00192048
0.0019215
0.00192204
0.00192213
0.00192175
0.00192093
0.00191968
0.00191798
0.00191586
0.00191333
0.00191039
0.00190705
0.00190332
0.00189921
0.00189473
0.0018899
0.00188472
0.00187921
0.00187338
0.00186725
0.00186082
0.00185412
0.00184714
0.00183991
0.00183243
0.0018247
0.00181665
0.00180807
0.00179819
0.00178672
0.00177445
0.00176177
0.00174885
0.00173576
0.00172255
0.00170922
0.00169579
0.00168224
0.00166854
0.00165456
0.00164002
0.00162418
0.00160433
0.00156224
2.55661e-06
4.95211e-05
0.000107066
0.000151811
0.000184682
0.00020895
0.000227482
0.000242536
0.000255758
0.000268236
0.000280595
0.000293119
0.000305866
0.000318769
0.000331703
0.000344531
0.000357129
0.000369406
0.00038131
0.000392838
0.000404026
0.000414946
0.000425688
0.000436337
0.000446954
0.000457558
0.000468133
0.00047866
0.000489183
0.000499826
0.000510792
0.000522532
0.00053573
0.000551144
0.000569877
0.000589932
0.000609009
0.00062702
0.000643512
0.000661931
0.00068418
0.000707255
0.000728882
0.000749861
0.000772529
0.000795265
0.00081821
0.000841344
0.000864665
0.000888174
0.000911865
0.000935737
0.000959789
0.000984021
0.00100843
0.00103303
0.0010578
0.00108277
0.00110792
0.00113326
0.00115879
0.0011845
0.0012104
0.00123648
0.00126273
0.00128916
0.00131575
0.00134251
0.00136941
0.00139646
0.00142364
0.00145094
0.00147835
0.00150586
0.00153346
0.00156113
0.00158885
0.00161662
0.00164442
0.00167222
0.00170002
0.0017278
0.00175553
0.00178321
0.00181081
0.00183831
0.0018657
0.00189295
0.00192005
0.00194696
0.00197366
0.00200012
0.00202631
0.00205219
0.00207772
0.00210284
0.0021275
0.0021517
0.00217548
0.0021989
0.00222195
0.00224461
0.00226688
0.00228873
0.00231014
0.0023311
0.0023516
0.00237163
0.00239116
0.00241018
0.00242868
0.00244665
0.00246407
0.00248093
0.00249722
0.00251293
0.00252805
0.00254257
0.00255647
0.00256976
0.00258242
0.00259445
0.00260583
0.00261657
0.00262666
0.0026361
0.00264488
0.00265301
0.0026605
0.00266734
0.00267366
0.00267923
0.00268379
0.0026877
0.00269134
0.00269424
0.00269646
0.00269802
0.00269892
0.00269919
0.00269883
0.00269785
0.00269625
0.00269405
0.00269126
0.00268789
0.00268395
0.00267945
0.00267441
0.00266884
0.00266275
0.00265616
0.00264909
0.00264155
0.00263355
0.00262513
0.00261628
0.00260704
0.00259742
0.00258743
0.00257709
0.00256639
0.00255528
0.00254358
0.00253082
0.00251679
0.0025019
0.00248648
0.0024707
0.00245466
0.00243842
0.002422
0.00240543
0.0023887
0.00237177
0.00235452
0.00233668
0.00231723
0.00229296
0.00224858
3.59178e-06
5.98657e-05
0.000127876
0.000181342
0.000221234
0.000251028
0.000273932
0.000292449
0.000308414
0.000323084
0.000337235
0.000351288
0.000365414
0.000379633
0.000393881
0.000408069
0.000422107
0.000435934
0.000449528
0.000462918
0.000476184
0.000489455
0.000502893
0.000516669
0.000530941
0.000545817
0.000561347
0.000577527
0.000594329
0.000611739
0.000629815
0.000648764
0.000668969
0.00069092
0.000714478
0.000738751
0.000762906
0.00078675
0.000810777
0.000835771
0.00086217
0.000889466
0.00091687
0.000944154
0.000971924
0.000999924
0.00102814
0.00105655
0.00108518
0.00111401
0.00114306
0.00117232
0.00120178
0.00123146
0.00126134
0.00129143
0.00132173
0.00135225
0.00138299
0.00141394
0.0014451
0.00147648
0.00150806
0.00153984
0.00157181
0.00160397
0.0016363
0.00166881
0.00170147
0.00173428
0.00176721
0.00180027
0.00183343
0.00186668
0.00190001
0.00193339
0.00196681
0.00200024
0.00203368
0.0020671
0.00210049
0.00213381
0.00216706
0.0022002
0.00223322
0.0022661
0.00229881
0.00233133
0.00236362
0.00239568
0.00242747
0.00245895
0.0024901
0.00252089
0.00255129
0.00258127
0.00261083
0.00263995
0.00266864
0.00269689
0.0027247
0.00275205
0.00277893
0.00280531
0.00283117
0.0028565
0.00288129
0.0029055
0.00292913
0.00295217
0.00297459
0.00299637
0.00301752
0.003038
0.00305781
0.00307694
0.00309537
0.0031131
0.0031301
0.00314637
0.00316191
0.0031767
0.00319073
0.003204
0.00321651
0.00322824
0.0032392
0.0032494
0.00325882
0.00326756
0.00327564
0.00328266
0.00328868
0.00329403
0.00329887
0.00330287
0.00330607
0.00330848
0.00331013
0.00331101
0.00331114
0.00331054
0.0033092
0.00330714
0.00330437
0.0033009
0.00329675
0.00329192
0.00328644
0.00328032
0.00327358
0.00326622
0.00325828
0.00324976
0.00324069
0.00323109
0.00322097
0.00321037
0.00319929
0.00318775
0.00317578
0.00316337
0.00315049
0.00313702
0.00312269
0.00310737
0.00309126
0.00307457
0.00305744
0.00303998
0.00302225
0.00300431
0.00298617
0.00296784
0.00294931
0.00293046
0.00291095
0.0028898
0.0028639
0.00282199
4.59546e-06
6.86509e-05
0.000145547
0.000206557
0.000252766
0.000287616
0.000314554
0.000336281
0.000354797
0.000371512
0.000387348
0.000402856
0.000418323
0.000433863
0.00044949
0.00046517
0.000480857
0.000496524
0.000512171
0.000527844
0.000543634
0.000559678
0.000576143
0.000593213
0.000611057
0.000629804
0.000649528
0.000670233
0.000691872
0.000714371
0.000737671
0.000761779
0.000786783
0.000812809
0.00083987
0.000867702
0.000896026
0.0009247
0.000953754
0.000983397
0.00101374
0.00104468
0.00107595
0.00110747
0.00113929
0.00117137
0.00120368
0.00123621
0.00126897
0.00130195
0.00133514
0.00136857
0.00140221
0.00143608
0.00147019
0.00150452
0.00153909
0.00157387
0.00160886
0.00164407
0.00167948
0.0017151
0.00175091
0.00178692
0.00182311
0.00185947
0.00189599
0.00193267
0.0019695
0.00200645
0.00204351
0.00208068
0.00211793
0.00215526
0.00219263
0.00223004
0.00226747
0.00230489
0.0023423
0.00237966
0.00241696
0.00245418
0.00249129
0.00252827
0.00256511
0.00260177
0.00263824
0.00267448
0.00271048
0.00274621
0.00278164
0.00281674
0.0028515
0.00288587
0.00291985
0.0029534
0.00298652
0.00301919
0.00305139
0.00308313
0.00311438
0.00314513
0.00317536
0.00320504
0.00323416
0.0032627
0.00329064
0.00331796
0.00334465
0.00337068
0.00339604
0.00342071
0.00344469
0.00346794
0.00349046
0.00351223
0.00353325
0.00355349
0.00357294
0.0035916
0.00360946
0.0036265
0.00364271
0.00365809
0.00367263
0.00368632
0.00369918
0.00371118
0.00372236
0.00373288
0.00374242
0.00375097
0.00375841
0.00376524
0.00377133
0.00377653
0.00378086
0.00378432
0.00378694
0.00378872
0.00378966
0.00378979
0.0037891
0.00378761
0.00378534
0.00378228
0.00377846
0.00377389
0.00376859
0.00376256
0.00375583
0.00374842
0.00374033
0.0037316
0.00372224
0.00371227
0.00370172
0.0036906
0.00367894
0.00366675
0.00365406
0.00364087
0.00362717
0.00361288
0.00359787
0.00358206
0.00356552
0.0035484
0.00353081
0.00351284
0.00349456
0.00347602
0.00345728
0.00343834
0.00341922
0.00339983
0.00337989
0.00335847
0.00333286
0.00329508
5.52632e-06
7.59785e-05
0.000160336
0.000227921
0.000279838
0.000319376
0.000350128
0.000374932
0.000395924
0.000414643
0.000432141
0.000449094
0.000465901
0.000482773
0.000499802
0.000517017
0.000534419
0.00055201
0.000569809
0.000587863
0.000606253
0.000625095
0.000644524
0.000664688
0.000685725
0.000707744
0.000730814
0.000754945
0.000780102
0.000806209
0.000833185
0.000860969
0.000889539
0.000918899
0.000949042
0.000979889
0.00101134
0.00104331
0.00107575
0.0011087
0.00114214
0.00117604
0.00121031
0.0012449
0.00127978
0.00131492
0.00135032
0.00138594
0.00142179
0.00145786
0.00149415
0.00153066
0.00156739
0.00160434
0.00164151
0.00167889
0.00171649
0.0017543
0.00179231
0.00183052
0.00186892
0.00190751
0.00194629
0.00198524
0.00202436
0.00206364
0.00210307
0.00214263
0.00218233
0.00222213
0.00226204
0.00230203
0.00234209
0.00238221
0.00242237
0.00246254
0.00250273
0.00254289
0.00258302
0.0026231
0.0026631
0.002703
0.00274279
0.00278244
0.00282193
0.00286123
0.00290033
0.0029392
0.00297781
0.00301614
0.00305416
0.00309186
0.0031292
0.00316616
0.00320273
0.00323888
0.00327458
0.00330984
0.00334462
0.00337892
0.00341272
0.00344599
0.00347871
0.00351087
0.00354245
0.00357342
0.00360377
0.00363347
0.00366251
0.00369087
0.00371852
0.00374546
0.00377167
0.00379712
0.00382181
0.00384572
0.00386884
0.00389114
0.00391262
0.00393327
0.00395307
0.00397202
0.0039901
0.0040073
0.00402362
0.00403905
0.00405359
0.00406723
0.00408007
0.00409215
0.00410311
0.00411313
0.00412202
0.0041303
0.00413769
0.00414415
0.0041497
0.00415433
0.00415807
0.00416091
0.00416287
0.00416396
0.00416418
0.00416354
0.00416207
0.00415976
0.00415663
0.0041527
0.00414797
0.00414247
0.00413621
0.00412921
0.00412149
0.00411306
0.00410394
0.00409416
0.00408374
0.00407269
0.00406105
0.00404883
0.00403605
0.00402273
0.00400886
0.00399441
0.00397931
0.00396351
0.00394706
0.00393003
0.00391251
0.00389459
0.00387634
0.0038578
0.00383905
0.00382012
0.00380105
0.00378178
0.00376211
0.00374123
0.0037169
0.00368324
6.35482e-06
8.19356e-05
0.000172446
0.000245714
0.000302762
0.00034665
0.000381028
0.000408821
0.00043226
0.000452988
0.000472168
0.000490585
0.00050874
0.000526935
0.00054534
0.000564043
0.000583091
0.000602513
0.000622339
0.000642612
0.000663397
0.000684782
0.000706876
0.000729765
0.000753536
0.000778268
0.000804009
0.000830771
0.00085853
0.000887232
0.000916808
0.00094719
0.000978326
0.00101018
0.00104271
0.00107589
0.00110965
0.00114394
0.00117873
0.00121398
0.00124965
0.00128572
0.00132216
0.00135893
0.00139599
0.00143333
0.00147091
0.00150872
0.00154675
0.00158498
0.00162343
0.00166207
0.00170091
0.00173996
0.0017792
0.00181863
0.00185826
0.00189807
0.00193807
0.00197824
0.00201859
0.00205911
0.00209979
0.00214063
0.00218162
0.00222275
0.00226401
0.00230541
0.00234691
0.00238852
0.00243022
0.002472
0.00251384
0.00255573
0.00259766
0.0026396
0.00268155
0.00272348
0.00276539
0.00280723
0.00284901
0.0028907
0.00293228
0.00297373
0.00301502
0.00305614
0.00309706
0.00313775
0.00317821
0.00321839
0.00325829
0.00329786
0.0033371
0.00337598
0.00341447
0.00345256
0.00349022
0.00352743
0.00356418
0.00360044
0.0036362
0.00367143
0.00370612
0.00374023
0.00377376
0.00380667
0.00383895
0.00387058
0.00390153
0.00393179
0.00396134
0.00399016
0.00401824
0.00404554
0.00407207
0.00409779
0.00412271
0.00414679
0.00417003
0.00419242
0.00421394
0.00423458
0.00425433
0.00427318
0.00429112
0.00430815
0.00432425
0.00433943
0.00435386
0.00436729
0.00437972
0.00439116
0.00440156
0.00441123
0.00441995
0.00442772
0.00443454
0.00444042
0.00444537
0.00444939
0.0044525
0.0044547
0.004456
0.00445641
0.00445593
0.00445459
0.00445239
0.00444935
0.00444548
0.00444079
0.00443531
0.00442904
0.004422
0.00441422
0.00440571
0.0043965
0.0043866
0.00437603
0.00436482
0.00435299
0.00434056
0.00432755
0.00431396
0.00429978
0.00428499
0.00426956
0.00425352
0.00423692
0.00421982
0.0042023
0.00418443
0.00416627
0.0041479
0.00412936
0.00411072
0.00409198
0.00407297
0.00405308
0.00403046
0.00400106
7.06171e-06
8.66146e-05
0.000182064
0.000260171
0.000321781
0.000369675
0.00040749
0.000438183
0.000464046
0.000486799
0.000507689
0.000527594
0.000547104
0.000566603
0.000586325
0.000606415
0.000626971
0.000648066
0.000669696
0.000691893
0.000714694
0.00073814
0.000762254
0.000787136
0.000812904
0.000839617
0.000867303
0.000895966
0.000925585
0.000956118
0.00098751
0.0010197
0.00105263
0.00108625
0.00112053
0.00115541
0.00119086
0.00122683
0.00126329
0.00130018
0.00133748
0.00137512
0.00141303
0.00145118
0.0014896
0.00152831
0.00156727
0.00160645
0.00164581
0.00168535
0.00172507
0.00176496
0.00180502
0.00184525
0.00188565
0.00192622
0.00196695
0.00200784
0.00204889
0.0020901
0.00213146
0.00217297
0.00221463
0.00225644
0.00229839
0.00234047
0.00238268
0.00242501
0.00246745
0.00251
0.00255265
0.00259538
0.00263819
0.00268106
0.00272398
0.00276693
0.00280991
0.00285289
0.00289586
0.00293881
0.00298171
0.00302454
0.00306729
0.00310993
0.00315245
0.00319482
0.00323703
0.00327904
0.00332083
0.00336239
0.00340368
0.00344468
0.00348538
0.00352574
0.00356574
0.00360536
0.00364458
0.00368337
0.00372171
0.00375958
0.00379696
0.00383382
0.00387013
0.00390589
0.00394106
0.00397563
0.00400957
0.00404286
0.00407547
0.00410739
0.0041386
0.00416908
0.00419881
0.00422776
0.00425593
0.00428329
0.00430984
0.00433554
0.00436039
0.00438438
0.00440749
0.00442971
0.00445102
0.00447142
0.00449089
0.00450943
0.00452702
0.00454373
0.00455959
0.00457441
0.00458829
0.00460116
0.00461307
0.00462413
0.00463421
0.00464332
0.00465147
0.00465865
0.00466489
0.00467017
0.00467452
0.00467794
0.00468044
0.00468202
0.0046827
0.00468248
0.00468138
0.00467941
0.00467658
0.00467291
0.00466841
0.00466309
0.00465699
0.0046501
0.00464245
0.00463407
0.00462496
0.00461516
0.00460467
0.00459353
0.00458175
0.00456936
0.00455636
0.00454277
0.00452857
0.00451376
0.00449836
0.00448241
0.00446597
0.00444909
0.00443184
0.0044143
0.00439654
0.00437864
0.00436068
0.00434269
0.00432457
0.00430584
0.00428507
0.00425994
7.63686e-06
9.01181e-05
0.000189387
0.000271527
0.000337127
0.000388668
0.000429707
0.000463191
0.000491436
0.000516211
0.000538829
0.000560236
0.0005811
0.000601898
0.000622874
0.000644171
0.000665856
0.000687932
0.000710618
0.000733994
0.000758104
0.000782992
0.000808718
0.00083531
0.000862796
0.00089119
0.000920482
0.000950659
0.0009817
0.00101357
0.00104623
0.00107963
0.00111372
0.00114846
0.00118379
0.00121968
0.00125609
0.00129296
0.00133026
0.00136794
0.00140598
0.00144435
0.00148304
0.00152203
0.00156127
0.00160066
0.00164024
0.00167998
0.00171986
0.00175987
0.00180001
0.00184029
0.0018807
0.00192125
0.00196193
0.00200275
0.00204371
0.00208482
0.00212606
0.00216744
0.00220897
0.00225064
0.00229246
0.00233443
0.00237654
0.00241879
0.00246119
0.00250373
0.0025464
0.0025892
0.00263212
0.00267517
0.00271832
0.00276157
0.0028049
0.00284832
0.00289179
0.00293532
0.00297888
0.00302246
0.00306604
0.0031096
0.00315312
0.00319658
0.00323997
0.00328325
0.00332641
0.00336942
0.00341226
0.00345491
0.00349733
0.00353951
0.00358141
0.00362301
0.0036643
0.00370523
0.00374578
0.00378594
0.00382567
0.00386496
0.00390376
0.00394207
0.00397986
0.0040171
0.00405376
0.00408983
0.00412529
0.0041601
0.00419424
0.0042277
0.00426045
0.00429247
0.00432375
0.00435425
0.00438396
0.00441287
0.00444096
0.0044682
0.00449459
0.00452011
0.00454475
0.00456849
0.00459132
0.00461322
0.00463419
0.00465422
0.00467329
0.00469148
0.00470871
0.00472498
0.0047403
0.00475463
0.00476804
0.00478054
0.00479201
0.0048025
0.00481202
0.00482056
0.00482815
0.00483477
0.00484045
0.00484518
0.00484897
0.00485183
0.00485377
0.0048548
0.00485492
0.00485416
0.00485253
0.00485003
0.00484668
0.00484249
0.00483749
0.00483169
0.0048251
0.00481774
0.00480964
0.0048008
0.00479127
0.00478104
0.00477015
0.00475861
0.00474644
0.00473366
0.00472027
0.00470627
0.0046917
0.00467657
0.00466095
0.00464487
0.00462842
0.00461167
0.00459469
0.00457758
0.00456044
0.00454334
0.00452622
0.00450872
0.00448974
0.00446803
8.07714e-06
9.25516e-05
0.000194597
0.00028012
0.000349029
0.000403848
0.000447875
0.000484007
0.000514557
0.00054132
0.000565676
0.000588544
0.000610567
0.000632137
0.000653719
0.000675641
0.000698105
0.000721292
0.000745238
0.000769927
0.000795377
0.000821613
0.000848659
0.000876523
0.000905182
0.000934637
0.0009649
0.00099596
0.0010278
0.00106038
0.00109367
0.00112763
0.00116222
0.00119739
0.00123309
0.00126928
0.00130593
0.00134298
0.0013804
0.00141815
0.0014562
0.00149452
0.00153309
0.00157188
0.00161085
0.00165008
0.00168952
0.00172905
0.00176861
0.00180824
0.00184794
0.00188772
0.00192761
0.00196761
0.00200772
0.00204794
0.00208829
0.00212878
0.0021694
0.00221017
0.0022511
0.00229219
0.00233344
0.00237487
0.00241648
0.00245827
0.00250024
0.00254241
0.00258475
0.00262728
0.00267
0.00271289
0.00275595
0.00279917
0.00284254
0.00288606
0.00292971
0.00297347
0.00301734
0.00306129
0.00310531
0.00314937
0.00319346
0.00323755
0.00328162
0.00332566
0.00336962
0.0034135
0.00345725
0.00350086
0.0035443
0.00358753
0.00363054
0.00367329
0.00371576
0.00375791
0.00379972
0.00384117
0.00388221
0.00392283
0.003963
0.00400269
0.00404187
0.00408053
0.00411862
0.00415614
0.00419305
0.00422933
0.00426495
0.0042999
0.00433415
0.00436767
0.00440044
0.00443246
0.00446368
0.0044941
0.0045237
0.00455246
0.00458036
0.0046074
0.00463354
0.00465879
0.00468312
0.00470653
0.004729
0.00475052
0.00477108
0.00479071
0.00480937
0.0048271
0.00484389
0.00485971
0.00487461
0.00488864
0.00490153
0.00491345
0.00492439
0.00493437
0.00494337
0.0049514
0.00495848
0.00496461
0.00496978
0.00497402
0.00497733
0.00497971
0.00498119
0.00498176
0.00498144
0.00498024
0.00497818
0.00497527
0.00497153
0.00496696
0.00496159
0.00495543
0.00494851
0.00494083
0.00493241
0.00492329
0.00491347
0.00490298
0.00489184
0.00488006
0.00486765
0.00485464
0.00484104
0.00482688
0.00481221
0.00479709
0.00478156
0.00476573
0.00474966
0.00473346
0.00471725
0.00470111
0.00468504
0.00466876
0.00465144
0.00463257
8.38675e-06
9.40469e-05
0.000197941
0.000286114
0.000357773
0.000415467
0.000462208
0.000500828
0.000533538
0.000562027
0.000587524
0.000611245
0.000634057
0.000656628
0.000679364
0.000702437
0.000726008
0.000750179
0.000774953
0.000800415
0.000826602
0.000853528
0.000881205
0.000909637
0.000938813
0.000968721
0.000999351
0.00103068
0.00106269
0.00109535
0.00112862
0.00116247
0.00119684
0.00123171
0.00126704
0.00130278
0.0013389
0.00137534
0.00141206
0.00144904
0.00148625
0.00152363
0.00156116
0.00159892
0.00163701
0.0016753
0.00171361
0.00175196
0.00179033
0.00182865
0.00186699
0.00190539
0.00194387