/*--------------------------------*- C++ -*----------------------------------*\
  =========                 |
  \\      /  F ield         | OpenFOAM: The Open Source CFD Toolbox
   \\    /   O peration     | Website:  https://openfoam.org
    \\  /    A nd           | Version:  8
     \\/     M anipulation  |
\*---------------------------------------------------------------------------*/
FoamFile
{
    version     2.0;
    format      ascii;
    class       volVectorField;
    location    "5000";
    object      wallShearStress;
}
// * * * * * * * * * * * * * * * * * * * * * * * * * * * * * * * * * * * * * //

dimensions      [0 2 -2 0 0 0 0];

internalField   uniform (0 0 0);

boundaryField
{
    inlet
    {
        type            calculated;
        value           uniform (0 0 0);
    }
    outlet
    {
        type            calculated;
        value           uniform (0 0 0);
    }
    upperWall
    {
        type            calculated;
        value           nonuniform List<vector> 
223
(
(-0.582193 -0.392359 0)
(-0.977814 -0.219377 0)
(-0.939336 -0.0567747 0)
(-0.81071 -0.00585779 0)
(-0.734594 0.00331371 0)
(-0.695452 0.00231544 0)
(-0.670941 0.000424224 0)
(-0.653508 -0.0014488 0)
(-0.640532 -0.00256251 0)
(-0.629821 -0.00218352 0)
(-0.620058 -0.0013053 0)
(-0.610993 -0.00107839 0)
(-0.603033 -0.00138851 0)
(-0.596184 -0.00127386 0)
(-0.590434 -0.00106051 0)
(-0.585075 -0.000334645 0)
(-0.579787 0.00168714 0)
(-0.575194 0.0014147 0)
(-0.571309 0.00162524 0)
(-0.567716 0.00312827 4.27765e-22)
(-0.564342 0.00251105 0)
(-0.561642 0.00175055 0)
(-0.558902 0.00303629 0)
(-0.555755 0.00321356 4.48365e-22)
(-0.552843 0.00331364 0)
(-0.54995 0.00393377 0)
(-0.546937 0.00376721 0)
(-0.544106 0.00348254 -9.38198e-22)
(-0.541328 0.00298065 9.46105e-22)
(-0.538633 0.0025663 9.56552e-22)
(-0.535953 0.00245936 0)
(-0.533232 0.00218855 -9.78536e-22)
(-0.530575 0.00194062 0)
(-0.527935 0.00174268 1.00154e-21)
(-0.525292 0.00157373 1.01362e-21)
(-0.522641 0.00144497 -1.02617e-21)
(-0.51997 0.00134116 0)
(-0.517284 0.00125824 0)
(-0.514579 0.00119389 0)
(-0.51185 0.00114453 0)
(-0.509096 0.00110713 -1.09099e-21)
(-0.506311 0.00107929 0)
(-0.503494 0.00105928 0)
(-0.500643 0.0010458 1.13117e-21)
(-0.497754 0.00103777 0)
(-0.494823 0.00103443 1.15766e-21)
(-0.491847 0.0010349 -1.17065e-21)
(-0.488824 0.00103846 1.1834e-21)
(-0.485749 0.00104484 0)
(-0.48262 0.0010528 0)
(-0.479436 0.00106139 0)
(-0.4762 0.00106958 1.2309e-21)
(-0.472915 0.0010762 -1.24156e-21)
(-0.469595 0.00108155 0)
(-0.466253 0.00108667 0)
(-0.462905 0.00109186 0)
(-0.459561 0.00109637 0)
(-0.456228 0.00109914 0)
(-0.452904 0.00109925 0)
(-0.449587 0.00109682 0)
(-0.446268 0.00109256 0)
(-0.442937 0.00108739 1.29204e-21)
(-0.439583 0.00108261 -1.29181e-21)
(-0.436194 0.001079 0)
(-0.432761 0.00107713 0)
(-0.429271 0.00107731 0)
(-0.425716 0.00107957 -1.27842e-21)
(-0.422089 0.00108375 0)
(-0.418381 0.0010896 0)
(-0.414588 0.00109674 0)
(-0.410705 0.00110477 0)
(-0.406729 0.00111331 0)
(-0.402656 0.00112179 -2.43446e-21)
(-0.398488 0.00112963 0)
(-0.394225 0.00113632 0)
(-0.389869 0.00114135 0)
(-0.385428 0.00114451 0)
(-0.380908 0.00114568 0)
(-0.376323 0.00114471 0)
(-0.371684 0.00114141 0)
(-0.367002 0.00113541 2.09535e-21)
(-0.362289 0.00112656 0)
(-0.357552 0.00111503 0)
(-0.352796 0.00110108 0)
(-0.348023 0.00108525 -1.83966e-21)
(-0.343233 0.00106814 0)
(-0.338424 0.00105026 -1.69022e-21)
(-0.333592 0.00103235 0)
(-0.328733 0.0010153 0)
(-0.323839 0.000999813 0)
(-0.319026 0.000991983 -1.35098e-21)
(-0.316385 0.00100109 0)
(-0.313661 0.00101498 1.18049e-21)
(-0.310856 0.00102961 1.08979e-21)
(-0.307977 0.00104279 0)
(-0.305032 0.00105368 8.96079e-22)
(-0.302035 0.0010625 0)
(-0.298998 0.00106972 0)
(-0.295937 0.00107713 0)
(-0.292866 0.0010837 -4.54592e-22)
(-0.289796 0.00109464 0)
(-0.286746 0.00110012 -2.05145e-22)
(-0.283721 0.00110287 7.30944e-23)
(-0.280738 0.00111048 0)
(-0.277804 0.00112079 0)
(-0.274931 0.00111537 0)
(-0.272122 0.00108513 0)
(-0.269372 0.00111441 0)
(-0.2667 0.00109924 0)
(-0.264075 0.000930472 0)
(-0.261516 0.000761608 1.15402e-21)
(-0.259074 0.000756203 0)
(-0.256697 0.00081091 0)
(-0.254523 0.000810537 0)
(-0.252359 0.000841425 0)
(-0.250287 0.000854713 0)
(-0.248443 0.000796006 0)
(-0.246612 0.000710477 0)
(-0.244712 0.000683883 0)
(-0.242965 0.000733134 0)
(-0.241042 0.000754599 0)
(-0.239059 0.000706127 0)
(-0.237192 0.00060951 0)
(-0.235599 0.000679608 7.1433e-21)
(-0.233911 0.000712255 0)
(-0.232126 0.000646116 0)
(-0.230383 0.00058787 0)
(-0.22871 0.000614103 -8.80092e-21)
(-0.227001 0.000766544 0)
(-0.225656 0.00074485 0)
(-0.224165 0.000663552 -1.00594e-20)
(-0.222946 0.000685447 0)
(-0.221679 0.000631333 1.08681e-20)
(-0.220184 0.000520844 0)
(-0.218795 0.000535411 0)
(-0.2174 0.000656775 0)
(-0.21633 0.000677592 -1.25518e-20)
(-0.215127 0.000627869 0)
(-0.21393 0.00090361 1.33889e-20)
(-0.213074 0.00116402 0)
(-0.211999 0.00103037 0)
(-0.211306 0.000861974 0)
(-0.210652 0.000802495 0)
(-0.209643 0.000497052 0)
(-0.208399 0.000515534 0)
(-0.207764 0.000669013 0)
(-0.207217 0.000503409 0)
(-0.206586 0.000425037 0)
(-0.205872 0.000370852 0)
(-0.204943 0.000465036 0)
(-0.204049 0.000450393 1.83803e-20)
(-0.20329 0.000406813 -1.87645e-20)
(-0.20265 -0.000120023 0)
(-0.201179 -0.000600296 0)
(-0.200431 -0.000353409 0)
(-0.199939 -0.000136945 0)
(-0.199488 -2.78322e-05 -2.09393e-20)
(-0.199024 9.35864e-05 2.13058e-20)
(-0.198225 0.000124765 -2.1786e-20)
(-0.197612 0.000102381 0)
(-0.197027 0.000180998 -2.25905e-20)
(-0.19668 0.000218507 -4.59215e-20)
(-0.195932 0.00021563 0)
(-0.195198 0.000278593 -4.77675e-20)
(-0.195019 0.000290744 4.83282e-20)
(-0.194738 0.000395332 0)
(-0.194257 0.000595345 0)
(-0.193904 0.000581263 0)
(-0.193913 0.000693634 0)
(-0.193523 0.000585086 0)
(-0.192946 0.000448993 -5.34e-20)
(-0.192898 0.000491854 0)
(-0.193021 0.00031211 -5.45965e-20)
(-0.19223 0.000130131 0)
(-0.191853 0.000265108 0)
(-0.191273 9.33629e-05 0)
(-0.189879 -0.000269725 0)
(-0.189518 0.000201779 0)
(-0.189189 0.000567597 6.05238e-20)
(-0.188583 0.000436627 0)
(-0.18853 0.000412793 0)
(-0.187558 0.000411613 -6.38813e-20)
(-0.187025 0.000387269 0)
(-0.186336 1.33025e-06 0)
(-0.184678 -0.000254717 0)
(-0.183059 6.30295e-05 6.93853e-20)
(-0.181846 0.000242491 0)
(-0.180618 0.00051318 0)
(-0.17932 0.000689414 0)
(-0.178193 0.000675933 0)
(-0.175877 0.000691137 -7.69677e-20)
(-0.173833 0.000387059 0)
(-0.170225 0.000265697 0)
(-0.166023 0.000631674 0)
(-0.161349 0.000894481 8.87915e-20)
(-0.155138 0.00144049 0)
(-0.148398 0.00259882 0)
(-0.123784 0.00246508 -1.0747e-19)
(-0.141593 0.00677917 0)
(-0.169702 0.0132659 1.25287e-17)
(-0.187017 0.017106 2.35665e-17)
(-0.193464 0.0188758 2.27102e-17)
(-0.19698 0.0196952 2.19825e-17)
(-0.200963 0.0203259 2.11754e-17)
(-0.205424 0.0210159 -2.02564e-17)
(-0.209673 0.021526 -1.95325e-17)
(-0.213869 0.0218764 0)
(-0.218106 0.0220205 -3.66639e-17)
(-0.220244 0.0221838 -1.80771e-17)
(-0.22471 0.0227228 9.26854e-34)
(-0.227532 0.0229062 -1.20371e-35)
(-0.23107 0.0233653 -3.22791e-17)
(-0.235352 0.0239367 -3.06855e-17)
(-0.242347 0.02478 -2.84658e-17)
(-0.249523 0.0254453 -4.81482e-35)
(-0.256864 0.0260683 4.94041e-17)
(-0.263913 0.0266479 2.26463e-17)
(-0.272755 0.0274465 1.20371e-35)
(-0.282659 0.0283574 -3.4862e-17)
(-0.291217 0.0289995 -1.58056e-20)
(-0.300883 0.0295779 -3.00927e-36)
(-0.304438 0.0304168 1.34852e-17)
(-0.332563 0.0321497 -7.62892e-18)
)
;
    }
    lowerWall
    {
        type            calculated;
        value           nonuniform List<vector> 
250
(
(-0.653909 0.466638 0)
(-1.14095 0.204678 0)
(-1.03492 0.0379587 0)
(-0.869573 -0.000935989 0)
(-0.786941 -0.00419162 0)
(-0.746063 -0.00160782 0)
(-0.719878 0.000416171 0)
(-0.700645 -0.000651807 0)
(-0.685088 -0.00405595 0)
(-0.671318 -0.00471225 0)
(-0.658932 -0.00298826 0)
(-0.647719 -0.000864311 0)
(-0.637516 0.00142598 0)
(-0.628189 0.00210379 0)
(-0.61932 0.00136784 0)
(-0.611521 0.00135742 0)
(-0.60458 0.00169573 0)
(-0.605068 0.00194332 0)
(-0.00426051 -0.0228574 0)
(-0.00275891 -0.017642 0)
(-0.000676942 -0.0144926 0)
(0.00194463 -0.0137771 9.02308e-20)
(0.00526907 -0.0151975 -7.86233e-20)
(0.00896173 -0.0208205 6.28532e-20)
(0.0127401 -0.0200849 -4.84767e-20)
(0.0256287 -0.0633143 0)
(-0.0840624 -0.144714 0)
(0.00087285 -0.00384075 0)
(-0.00766523 0.00954587 0)
(-0.00851622 0.0328208 0)
(-0.00254966 0.044855 0)
(0.00295315 0.0442615 1.82229e-20)
(0.00618251 0.0360631 -1.89664e-20)
(0.00818696 0.0241611 0)
(0.0094603 0.0101607 -5.42307e-20)
(0.00943148 -0.00404235 6.11455e-20)
(0.00793314 -0.0174224 0)
(0.00614111 -0.0291949 0)
(0.00438165 -0.0385625 0)
(0.00268717 -0.0451398 0)
(0.000985996 -0.0488797 0)
(-0.000885202 -0.0495149 0)
(-0.00282063 -0.0464084 0)
(-0.00437914 -0.0399025 0)
(-0.00492629 -0.0308266 0)
(0.00132855 -0.00151231 0)
(0.00133791 0.00652695 0)
(-0.00450913 0.00961828 0)
(-0.00959704 0.00975623 0)
(-0.013383 0.00829931 0)
(-0.0158892 0.00623503 0)
(-0.0172642 0.00409747 1.49578e-21)
(-0.0177829 0.00200595 -1.52739e-21)
(-0.0173313 -7.19552e-06 0)
(-0.0160537 -0.00168646 -1.65314e-21)
(-0.0141882 -0.00283778 0)
(-0.0120501 -0.00329667 0)
(-0.0100503 -0.00303606 -0)
(-0.00855264 -0.00228041 2.57045e-21)
(-0.00761596 -0.00142312 0)
(-0.00693771 -0.000815868 0)
(-0.00612026 -0.000623408 -3.37842e-21)
(-0.00499272 -0.00100042 0)
(-0.00340842 -0.00238588 0)
(-0.000488626 -0.0050575 0)
(0.00436066 -0.00740357 3.03321e-21)
(0.00994555 -0.0088951 0)
(0.0158465 -0.00984995 1.4692e-21)
(0.0218919 -0.0106169 0)
(0.0280977 -0.0112689 -0)
(0.0344081 -0.0115143 8.44726e-22)
(0.0405406 -0.0113546 0)
(0.0491482 -0.0116032 -7.54061e-22)
(0.0589383 -0.0117552 -0)
(0.0686324 -0.0115827 7.70723e-22)
(0.0780416 -0.0111689 0)
(0.0870142 -0.010584 0)
(0.0954588 -0.00989011 0)
(0.103317 -0.00913657 -0)
(0.110563 -0.0083607 0)
(0.117196 -0.00758953 -8.11174e-22)
(0.123229 -0.00684036 -0)
(0.128685 -0.00612267 1.63313e-21)
(0.133591 -0.00544049 0)
(0.137973 -0.00479418 -1.635e-21)
(0.141858 -0.00418211 -0)
(0.145271 -0.00360152 -0)
(0.148232 -0.0030496 1.62109e-21)
(0.150758 -0.00252413 0)
(0.152863 -0.00202407 1.60087e-21)
(0.154561 -0.00155033 -1.58756e-21)
(0.155863 -0.00110636 -0)
(0.156782 -0.000698928 -1.55494e-21)
(0.157328 -0.000337907 -1.53591e-21)
(0.157514 -3.98689e-05 -0)
(0.157408 0.000194759 0)
(0.157077 0.000391481 0)
(0.156523 0.000568124 0)
(0.155761 0.000731034 -0)
(0.154801 0.000884231 1.37584e-21)
(0.153649 0.00102835 0)
(0.152312 0.00116397 -1.30706e-21)
(0.150799 0.00129163 -0)
(0.149117 0.00141123 -0)
(0.147272 0.00152279 1.19061e-21)
(0.145272 0.00162639 0)
(0.143127 0.0017219 -1.10491e-21)
(0.140843 0.00180933 -0)
(0.13843 0.00188862 0)
(0.135896 0.00195983 -0)
(0.13325 0.00202311 9.16886e-22)
(0.130502 0.00207846 0)
(0.12766 0.00212599 -0)
(0.124734 0.00216587 7.63843e-22)
(0.121733 0.00219833 0)
(0.118666 0.00222355 6.57309e-22)
(0.115542 0.00224169 0)
(0.112371 0.00225309 0)
(0.109161 0.00225801 0)
(0.10592 0.00225675 -4.36232e-22)
(0.102657 0.00224971 -0)
(0.0993811 0.00223734 0)
(0.0960987 0.00222008 -2.65638e-22)
(0.0928172 0.00219816 -2.08185e-22)
(0.0895437 0.00217164 -0)
(0.0862851 0.00214012 -9.26997e-23)
(0.0830478 0.0021032 -0)
(0.079839 0.00206091 4.64637e-23)
(0.0766649 0.0020149 -0)
(0.0735307 0.00196835 2.78786e-22)
(0.07044 0.00192412 0)
(0.067394 0.00188251 -5.11792e-22)
(0.0643946 0.00183874 -0)
(0.0614482 0.0017866 0)
(0.0585639 0.00173055 -0)
(0.0557422 0.00168429 9.78239e-22)
(0.0529777 0.00165082 0)
(0.0502697 0.00162056 -1.21385e-21)
(0.0476232 0.001594 0)
(0.0457853 0.00160299 1.47557e-21)
(0.0442426 0.0016214 1.63405e-21)
(0.0427036 0.00162572 1.79895e-21)
(0.0411761 0.0016131 0)
(0.0396658 0.00158966 0)
(0.0381721 0.00156402 0)
(0.0366939 0.00153821 0)
(0.035231 0.00151253 0)
(0.0337837 0.0014869 0)
(0.0323529 0.00146142 0)
(0.0309387 0.00143622 0)
(0.0295416 0.00141138 -3.69171e-21)
(0.0281624 0.00138719 -3.96736e-21)
(0.0268005 0.00136378 0)
(0.0254567 0.00134077 0)
(0.0241312 0.00131674 0)
(0.0228253 0.00129187 -5.26732e-21)
(0.021539 0.00126763 0)
(0.0202724 0.00124397 0)
(0.0190253 0.00122092 0)
(0.017798 0.0011985 0)
(0.0165903 0.00117677 7.53597e-21)
(0.0154024 0.00115582 0)
(0.0142341 0.00113574 0)
(0.0130855 0.00111662 -9.45486e-21)
(0.0119564 0.00109852 1.02324e-20)
(0.0108468 0.00108151 0)
(0.0097566 0.00106589 1.20689e-20)
(0.00868574 0.00105231 0)
(0.00763383 0.00104193 -1.44075e-20)
(0.0066002 0.00103505 0)
(0.00558454 0.00103065 0)
(0.00458678 0.00102844 0)
(0.00360648 0.00102873 0)
(0.00264323 0.00103177 0)
(0.00169745 0.0010375 5.57147e-20)
(0.000770682 0.00104308 6.42266e-20)
(-0.000139146 0.00103035 0)
(-0.00103646 0.000987502 0)
(-0.0019183 0.000935111 0)
(-0.00278464 0.00088562 -5.28836e-20)
(-0.00363537 0.000840701 0)
(-0.00447031 0.00079995 0)
(-0.0052898 0.000762885 0)
(-0.00609445 0.000729006 -4.04128e-20)
(-0.00688481 0.000697857 3.83632e-20)
(-0.00766138 0.000669057 0)
(-0.00842463 0.000642308 0)
(-0.00917502 0.000617356 3.36162e-20)
(-0.00991297 0.000594003 3.23762e-20)
(-0.0106389 0.000572091 0)
(-0.0113533 0.000551479 0)
(-0.0120565 0.000532058 -2.93516e-20)
(-0.012749 0.000513734 2.8524e-20)
(-0.0134312 0.000496419 0)
(-0.0141035 0.000480044 0)
(-0.0147663 0.000464553 2.64345e-20)
(-0.0154201 0.000449892 0)
(-0.0160654 0.000436013 0)
(-0.0167026 0.000422876 2.47894e-20)
(-0.0173321 0.000410442 0)
(-0.0179544 0.000398679 2.38737e-20)
(-0.01857 0.000387557 0)
(-0.0191793 0.000377039 0)
(-0.0197828 0.000367098 0)
(-0.020381 0.000357706 -2.23581e-20)
(-0.0209743 0.000348829 0)
(-0.0215631 0.000340414 0)
(-0.0221477 0.000332419 0)
(-0.0227286 0.000324772 0)
(-0.0233058 0.00031741 0)
(-0.0238796 0.000310202 0)
(-0.0244495 0.000303005 -2.03853e-20)
(-0.0250155 0.000295644 -2.0155e-20)
(-0.0255766 0.000287822 0)
(-0.0261314 0.000279158 0)
(-0.0266776 0.000269108 0)
(-0.0272118 0.000256976 1.93604e-20)
(-0.0277291 0.000241503 0)
(-0.0282209 0.000221265 -3.81348e-20)
(-0.0286778 0.000192216 3.79283e-20)
(-0.0290708 0.000152594 3.78195e-20)
(-0.029402 7.78469e-05 -3.7858e-20)
(-0.0294835 -3.94417e-05 3.80452e-20)
(-0.029508 -0.000356591 -3.83974e-20)
(-0.0279734 -0.000616893 0)
(-0.0293462 -0.000516233 -2.43317e-18)
(-0.0327697 -0.00134244 -2.26976e-18)
(-0.0364132 -0.00203342 -3.00927e-36)
(-0.0395341 -0.0025761 -4.06087e-18)
(-0.0424838 -0.00301868 -7.7578e-18)
(-0.0455563 -0.00342181 -3.71958e-18)
(-0.0487788 -0.00381908 3.56806e-18)
(-0.052115 -0.00429979 -1.20371e-35)
(-0.0555937 -0.00474617 6.01853e-36)
(-0.0592915 -0.00506444 3.15082e-18)
(-0.0632293 -0.00540197 3.02986e-18)
(-0.067416 -0.00580441 3.00927e-36)
(-0.0718978 -0.00624631 0)
(-0.0767125 -0.00670969 0)
(-0.0819068 -0.00720707 8.99018e-35)
(-0.0875289 -0.00774953 3.34781e-35)
(-0.093649 -0.0083496 1.44445e-34)
(-0.100321 -0.00901259 -4.15812e-18)
(-0.107686 -0.00973316 -3.81222e-18)
(-0.116744 -0.0106256 6.01853e-36)
(-0.127562 -0.0116289 6.13644e-18)
(-0.138418 -0.0127355 1.03487e-17)
(-0.153644 -0.0139285 1.20371e-35)
(-0.162845 -0.0152952 -5.09772e-18)
(-0.19196 -0.0169829 -2.40741e-35)
)
;
    }
    frontAndBack
    {
        type            empty;
    }
}


// ************************************************************************* //
