/*--------------------------------*- C++ -*----------------------------------*\
  =========                 |
  \\      /  F ield         | OpenFOAM: The Open Source CFD Toolbox
   \\    /   O peration     | Website:  https://openfoam.org
    \\  /    A nd           | Version:  8
     \\/     M anipulation  |
\*---------------------------------------------------------------------------*/
FoamFile
{
    version     2.0;
    format      ascii;
    class       volScalarField;
    location    "600";
    object      nut;
}
// * * * * * * * * * * * * * * * * * * * * * * * * * * * * * * * * * * * * * //

dimensions      [0 2 -1 0 0 0 0];

internalField   nonuniform List<scalar> 
12225
(
3.05466e-06
1.39906e-05
1.82063e-05
1.58909e-05
1.84615e-05
1.68573e-05
1.70456e-05
1.69644e-05
1.71607e-05
1.74013e-05
1.29707e-05
3.31992e-05
2.77646e-05
1.93288e-05
1.79677e-05
2.16711e-05
1.61876e-05
1.62379e-05
2.51319e-05
3.73658e-05
3.09574e-05
2.21116e-05
2.63374e-05
2.77076e-05
2.77902e-05
2.78245e-05
2.77064e-05
3.23172e-05
3.31522e-05
4.19485e-05
4.41776e-05
4.3335e-05
4.35342e-05
4.25432e-05
4.27936e-05
4.6685e-05
0.000444466
0.00019727
0.000127294
7.2901e-05
5.57226e-05
4.7028e-05
4.0295e-05
3.60683e-05
3.34651e-05
3.31163e-05
3.23883e-05
3.32665e-05
3.38134e-05
3.43923e-05
3.43147e-05
3.4386e-05
3.41092e-05
3.43908e-05
0.000435281
0.000389637
0.000334853
0.00025735
0.000197156
0.000156284
0.000132723
0.000115501
0.000105278
9.619e-05
9.06013e-05
8.39971e-05
8.02146e-05
7.58064e-05
7.3326e-05
7.00864e-05
6.90366e-05
6.62527e-05
0.000450634
0.00044127
0.000431557
0.000411776
0.00037119
0.000324695
0.000286
0.000255403
0.000238473
0.000224737
0.000217947
0.000207644
0.000203252
0.000192317
0.000188487
0.00018084
0.000177226
0.000169655
0.000454483
0.000451934
0.000449745
0.000446714
0.000437103
0.000418396
0.000399447
0.000376873
0.000361638
0.000349521
0.000340651
0.000333506
0.000329562
0.000326065
0.000321864
0.000316468
0.000312762
0.000305029
0.000454447
0.000453205
0.000453112
0.000453249
0.000451024
0.000446444
0.000441134
0.000433566
0.000425802
0.000420415
0.000412473
0.000408681
0.000404834
0.000401929
0.000398968
0.000400434
0.000393662
0.000394305
0.000454296
0.000453565
0.000453225
0.000452987
0.000452516
0.000450861
0.000450447
0.000447739
0.000445399
0.000442935
0.000440379
0.00043754
0.000435312
0.000433654
0.000433252
0.000430528
0.00043015
0.000430187
0.000454205
0.000453678
0.000453273
0.000452892
0.000452544
0.000451947
0.000451467
0.000450692
0.000449928
0.00044919
0.000448425
0.000447656
0.000446997
0.000446279
0.000445826
0.00044502
0.000444523
0.000443752
0.00045418
0.000453687
0.000453295
0.000452859
0.000452517
0.000452089
0.000451753
0.000451328
0.000450972
0.000450574
0.000450252
0.000449874
0.000449589
0.000449227
0.000448969
0.000448604
0.000448328
0.00044796
0.000454168
0.000453691
0.000453283
0.000452857
0.00045249
0.000452103
0.000451769
0.000451417
0.000451107
0.000450786
0.000450504
0.000450212
0.000449956
0.00044969
0.000449454
0.000449207
0.000448981
0.000448747
0.000454159
0.000453695
0.000453269
0.000452854
0.00045247
0.000452096
0.000451748
0.00045141
0.000451093
0.000450786
0.000450498
0.000450219
0.000449956
0.000449702
0.000449461
0.00044923
0.000449008
0.000448795
0.000454155
0.000453695
0.000453262
0.000452848
0.000452457
0.000452084
0.00045173
0.000451392
0.00045107
0.000450763
0.00045047
0.00045019
0.000449923
0.000449668
0.000449423
0.00044919
0.000448966
0.000448752
0.000454154
0.000453694
0.000453258
0.000452843
0.00045245
0.000452074
0.000451718
0.000451377
0.000451054
0.000450744
0.00045045
0.000450167
0.000449899
0.00044964
0.000449395
0.000449158
0.000448934
0.000448717
0.000454155
0.000453695
0.000453261
0.000452846
0.000452454
0.000452079
0.000451724
0.000451383
0.000451061
0.000450751
0.000450457
0.000450175
0.000449907
0.000449649
0.000449404
0.000449168
0.000448944
0.000448727
0.000454165
0.000453724
0.000453309
0.000452909
0.000452534
0.000452171
0.000451832
0.000451502
0.000451193
0.000450892
0.000450611
0.000450335
0.00045008
0.000449826
0.000449593
0.00044936
0.000449148
0.000448932
0.000454192
0.000453805
0.000453435
0.000453081
0.000452745
0.000452422
0.000452115
0.00045182
0.000451539
0.000451269
0.00045101
0.000450763
0.000450525
0.000450298
0.000450079
0.00044987
0.000449669
0.000449477
0.000454191
0.000453805
0.000453433
0.000453081
0.000452742
0.000452421
0.00045211
0.000451817
0.000451533
0.000451265
0.000451003
0.000450758
0.000450517
0.000450291
0.00045007
0.000449863
0.000449658
0.000449468
0.000454163
0.000453724
0.000453303
0.000452905
0.000452524
0.000452162
0.000451817
0.000451488
0.000451174
0.000450874
0.000450587
0.000450313
0.00045005
0.0004498
0.000449559
0.000449331
0.000449109
0.0004489
0.000454153
0.000453695
0.000453257
0.000452842
0.000452446
0.00045207
0.00045171
0.000451369
0.000451042
0.000450731
0.000450432
0.000450149
0.000449876
0.000449617
0.000449367
0.00044913
0.000448901
0.000448684
0.000454153
0.000453693
0.000453255
0.000452839
0.000452442
0.000452064
0.000451704
0.000451362
0.000451034
0.000450721
0.000450422
0.000450137
0.000449863
0.000449602
0.000449352
0.000449113
0.000448884
0.000448664
0.000454152
0.000453696
0.000453256
0.000452844
0.000452445
0.000452071
0.00045171
0.00045137
0.000451042
0.000450732
0.000450432
0.000450147
0.000449873
0.000449611
0.000449359
0.000449118
0.000448887
0.000448665
0.000454144
0.000453707
0.000453252
0.000452857
0.000452444
0.000452086
0.000451709
0.000451383
0.000451036
0.000450731
0.000450404
0.000450115
0.000449802
0.000449522
0.000449221
0.000448952
0.000448663
0.000448404
0.00045413
0.000453738
0.000453233
0.000452884
0.0004524
0.000452063
0.000451585
0.000451224
0.000450723
0.000450304
0.000449722
0.000449247
0.000448572
0.000448019
0.000447281
0.00044668
0.000445914
0.000445287
0.000454232
0.000453815
0.000453161
0.000452706
0.000451693
0.000450971
0.000449543
0.000448188
0.000446463
0.000444349
0.000442288
0.000440054
0.000437258
0.000434843
0.000431711
0.000429234
0.000426135
0.000423717
0.000455891
0.000453871
0.000451491
0.000448255
0.000442567
0.00043707
0.000428239
0.000421211
0.000411574
0.000403535
0.000393268
0.000384975
0.000375024
0.000367308
0.000358281
0.000351514
0.000343552
0.000337736
0.000471991
0.00044393
0.000427933
0.000407841
0.000372172
0.000342375
0.000313027
0.000290738
0.000268798
0.000252305
0.000235752
0.000223562
0.000211039
0.000202042
0.000192475
0.000185798
0.000178375
0.000173336
0.000569103
0.00035053
0.000274142
0.000214322
0.000161525
0.000131431
0.000111692
9.89032e-05
8.92241e-05
8.23986e-05
7.67295e-05
7.26306e-05
6.89825e-05
6.63724e-05
6.39082e-05
6.22152e-05
6.05058e-05
5.93528e-05
0.000350554
9.45634e-05
6.05306e-05
4.98632e-05
4.55411e-05
4.33156e-05
4.26319e-05
4.22846e-05
4.26285e-05
4.29347e-05
4.37543e-05
4.44228e-05
4.55562e-05
4.64984e-05
4.78783e-05
4.90431e-05
5.05306e-05
5.07105e-05
4.36657e-06
1.17162e-05
1.61065e-05
1.91742e-05
2.09793e-05
2.2055e-05
2.23899e-05
2.25175e-05
2.24499e-05
2.22178e-05
2.19292e-05
2.16214e-05
2.13147e-05
2.10226e-05
2.07496e-05
2.05019e-05
2.02746e-05
2.00744e-05
1.46838e-12
1.67246e-10
8.53935e-10
3.3652e-09
1.12664e-08
3.41637e-08
9.01651e-08
1.80438e-07
2.93742e-07
4.13533e-07
5.21459e-07
6.05442e-07
6.61745e-07
6.83295e-07
6.74668e-07
6.47196e-07
5.94585e-07
5.08363e-07
4.32258e-07
3.67092e-07
3.05637e-07
2.45966e-07
1.88471e-07
1.35179e-07
8.78934e-08
5.14276e-08
2.73206e-08
1.37868e-08
7.02437e-09
3.82015e-09
2.29439e-09
1.75902e-09
1.75533e-09
4.23189e-09
8.16451e-09
5.60249e-08
1.14905e-07
2.59177e-07
3.92564e-07
4.36178e-07
4.02934e-07
3.25987e-07
2.72624e-07
2.70904e-07
3.01578e-07
3.8868e-07
5.02163e-07
9.38067e-07
2.02709e-06
5.94782e-06
1.68203e-05
3.19393e-05
4.18817e-05
4.6926e-05
4.53626e-05
4.61256e-05
4.3178e-05
4.03675e-05
4.07789e-05
4.01054e-05
3.56715e-05
3.06752e-05
3.07737e-05
3.25142e-05
3.29408e-05
3.35935e-05
3.42305e-05
3.47593e-05
3.53459e-05
3.58861e-05
3.64377e-05
3.69694e-05
3.7504e-05
3.80257e-05
3.85482e-05
3.90622e-05
3.95756e-05
4.00835e-05
4.05902e-05
4.1093e-05
4.15948e-05
4.20936e-05
4.25915e-05
4.3087e-05
4.3582e-05
4.40748e-05
4.45672e-05
4.50577e-05
4.55475e-05
4.60354e-05
4.65221e-05
4.70068e-05
4.74897e-05
4.79696e-05
4.84466e-05
4.89198e-05
4.93893e-05
4.98554e-05
5.03197e-05
5.07852e-05
5.12575e-05
5.17401e-05
5.22193e-05
5.27042e-05
5.31928e-05
5.36872e-05
5.4187e-05
5.46937e-05
5.52066e-05
5.57276e-05
5.6256e-05
5.67937e-05
5.73401e-05
5.78974e-05
5.84648e-05
5.90447e-05
5.96365e-05
6.02426e-05
6.08627e-05
6.1499e-05
6.21519e-05
6.28231e-05
6.35138e-05
6.42253e-05
6.49596e-05
6.57179e-05
6.65028e-05
6.73155e-05
6.8168e-05
6.90563e-05
6.99436e-05
7.09287e-05
7.18698e-05
7.29361e-05
7.39993e-05
7.51607e-05
7.63648e-05
7.73834e-05
7.71335e-05
7.6876e-05
7.66046e-05
7.63235e-05
7.6032e-05
7.57306e-05
7.54198e-05
7.50998e-05
7.47713e-05
7.44345e-05
7.40903e-05
7.37386e-05
7.33802e-05
7.30149e-05
7.26441e-05
7.22674e-05
7.18858e-05
7.15001e-05
7.11107e-05
7.07187e-05
7.03248e-05
6.99298e-05
6.95339e-05
6.91373e-05
6.87402e-05
6.83429e-05
6.79456e-05
6.75487e-05
6.71529e-05
6.67585e-05
6.63664e-05
6.59767e-05
6.55896e-05
6.52047e-05
6.48209e-05
6.44365e-05
6.40467e-05
6.36441e-05
6.32181e-05
6.27394e-05
6.21551e-05
6.0646e-05
7.09426e-12
1.16268e-09
1.5751e-08
8.29674e-08
3.629e-07
1.13357e-06
2.6532e-06
4.86728e-06
7.56218e-06
1.06378e-05
1.3752e-05
1.66444e-05
1.90956e-05
2.09504e-05
2.20228e-05
2.23419e-05
2.20002e-05
2.12438e-05
1.89864e-05
1.59355e-05
1.22773e-05
9.01897e-06
6.346e-06
4.26577e-06
2.6833e-06
1.65622e-06
1.01019e-06
6.26111e-07
3.92152e-07
2.56467e-07
1.83013e-07
1.66506e-07
1.31891e-07
3.12459e-07
3.63149e-07
3.32958e-06
6.85286e-06
1.40738e-05
1.98985e-05
2.21454e-05
2.10407e-05
1.9116e-05
1.70014e-05
1.60822e-05
1.6754e-05
1.64982e-05
1.85232e-05
2.44334e-05
3.48429e-05
4.48888e-05
5.61574e-05
6.62953e-05
7.58662e-05
8.35983e-05
9.37718e-05
0.000105656
0.000116817
0.000130372
0.0001439
0.000156439
0.000169293
0.000179117
0.000193978
0.000206233
0.000218069
0.000229651
0.000240847
0.000251578
0.000261898
0.00027192
0.000281602
0.000291053
0.000300234
0.000309232
0.000318021
0.000326656
0.000335126
0.000343463
0.000351662
0.000359741
0.0003677
0.000375549
0.00038329
0.000390927
0.000398462
0.0004059
0.000413242
0.00042049
0.000427648
0.000434716
0.000441696
0.000448586
0.000455384
0.00046208
0.000468664
0.000475111
0.000481392
0.00048746
0.000493243
0.000498642
0.000503519
0.000507895
0.000512331
0.000516567
0.000520729
0.000524755
0.000528671
0.000532461
0.000536127
0.000539664
0.000543071
0.000546343
0.000549478
0.000552474
0.000555327
0.000558035
0.000560596
0.000563007
0.000565265
0.000567371
0.00056932
0.000571112
0.000572746
0.000574219
0.000575531
0.000576681
0.000577666
0.000578485
0.000579137
0.000579659
0.000579968
0.000580214
0.000580138
0.000580036
0.000579702
0.00057938
0.000578984
0.000578671
0.000578469
0.000578105
0.00057761
0.000576989
0.000576249
0.00057539
0.000574415
0.000573328
0.000572132
0.000570829
0.000569425
0.00056792
0.000566314
0.000564607
0.000562815
0.000560926
0.000558951
0.000556888
0.000554749
0.000552537
0.000550261
0.000547925
0.000545533
0.00054309
0.000540596
0.000538053
0.00053546
0.00053282
0.000530136
0.000527413
0.000524654
0.000521862
0.000519035
0.000516168
0.000513248
0.000510265
0.000507145
0.000503817
0.000500156
0.000495859
0.000490197
0.000474603
1.76134e-11
2.99061e-09
5.64458e-08
3.27648e-07
1.19673e-06
2.86285e-06
6.11844e-06
1.065e-05
1.62495e-05
2.26169e-05
2.9387e-05
3.60992e-05
4.21571e-05
4.72201e-05
5.10428e-05
5.35632e-05
5.49375e-05
5.52835e-05
5.38143e-05
5.09749e-05
4.63742e-05
4.05078e-05
3.33903e-05
2.62524e-05
1.97e-05
1.40691e-05
9.54019e-06
6.35377e-06
4.01738e-06
2.67194e-06
1.87971e-06
1.53032e-06
1.20996e-06
2.19499e-06
3.7941e-06
1.59057e-05
3.34275e-05
5.16923e-05
6.15239e-05
6.05606e-05
5.02152e-05
4.07401e-05
3.94718e-05
4.55985e-05
5.24797e-05
6.11202e-05
7.36367e-05
8.5291e-05
9.75736e-05
0.000113815
0.00013211
0.000153021
0.000176191
0.000201141
0.000229669
0.000259723
0.000290211
0.000321769
0.000351888
0.000380943
0.000409538
0.000434754
0.000462877
0.000487283
0.000511452
0.000534257
0.000556159
0.000577262
0.000597663
0.000617471
0.000636739
0.000655558
0.000673957
0.000692003
0.000709713
0.000727131
0.000744266
0.000761147
0.000777778
0.000794177
0.000810348
0.0008263
0.000842037
0.000857563
0.000872881
0.000887993
0.000902901
0.000917605
0.000932103
0.000946392
0.000960466
0.000974316
0.000987931
0.00100129
0.00101437
0.00102713
0.00103955
0.00105158
0.00106317
0.0010743
0.001085
0.00109541
0.00110565
0.00111561
0.00112535
0.00113482
0.00114404
0.00115299
0.00116167
0.00117006
0.00117817
0.00118599
0.0011935
0.00120071
0.00120761
0.0012142
0.00122046
0.0012264
0.001232
0.00123728
0.00124221
0.00124681
0.00125106
0.00125498
0.00125854
0.00126176
0.00126464
0.00126716
0.00126935
0.00127121
0.00127269
0.0012739
0.00127468
0.00127521
0.00127537
0.00127544
0.00127531
0.00127502
0.00127452
0.00127372
0.00127263
0.00127126
0.00126962
0.00126772
0.00126555
0.00126313
0.00126047
0.00125756
0.00125443
0.00125107
0.00124749
0.00124369
0.00123968
0.00123546
0.00123104
0.00122643
0.00122164
0.00121669
0.00121159
0.00120636
0.00120101
0.00119554
0.00118996
0.00118428
0.00117849
0.00117261
0.00116663
0.00116057
0.00115444
0.00114825
0.00114199
0.00113566
0.00112922
0.00112263
0.00111578
0.00110851
0.00110051
0.00109107
0.00107833
0.00105006
6.85897e-11
1.16073e-08
1.8369e-07
7.69569e-07
2.4893e-06
6.76439e-06
1.34493e-05
2.24123e-05
3.29891e-05
4.41068e-05
5.48585e-05
6.47498e-05
7.32789e-05
7.98625e-05
8.48319e-05
8.80369e-05
8.93347e-05
8.91271e-05
8.75353e-05
8.44446e-05
7.9921e-05
7.43903e-05
6.70691e-05
5.83401e-05
4.86966e-05
3.90005e-05
3.00575e-05
2.25982e-05
1.68585e-05
1.22415e-05
9.45247e-06
6.9882e-06
7.51635e-06
1.10519e-05
2.4655e-05
4.72727e-05
6.61165e-05
7.65198e-05
7.43132e-05
7.16183e-05
7.18078e-05
7.53799e-05
8.28258e-05
9.34657e-05
0.000108214
0.000119147
0.000137095
0.000159962
0.000184856
0.000216438
0.000250745
0.000289353
0.000330279
0.00037314
0.000417641
0.000462338
0.000506567
0.000550038
0.000591639
0.000631931
0.000670885
0.000707049
0.000743997
0.000778224
0.000811377
0.000843298
0.000874186
0.00090418
0.000933377
0.000961879
0.000989762
0.0010171
0.00104394
0.00107033
0.0010963
0.00112188
0.00114709
0.00117195
0.00119646
0.00122064
0.00124449
0.00126801
0.00129121
0.00131409
0.00133665
0.00135889
0.00138081
0.0014024
0.00142365
0.00144458
0.00146515
0.00148537
0.00150521
0.00152466
0.00154371
0.00156232
0.00158048
0.00159817
0.00161539
0.00163215
0.0016485
0.0016645
0.00168016
0.00169543
0.00171034
0.00172486
0.00173898
0.0017527
0.001766
0.00177887
0.00179131
0.00180331
0.00181486
0.00182594
0.00183657
0.00184672
0.00185639
0.00186557
0.00187427
0.00188247
0.00189017
0.00189737
0.00190407
0.00191026
0.00191595
0.00192113
0.00192581
0.00192998
0.00193366
0.00193685
0.00193952
0.00194174
0.00194344
0.00194465
0.00194541
0.00194598
0.00194614
0.00194593
0.00194532
0.00194427
0.00194281
0.00194093
0.00193865
0.00193597
0.0019329
0.00192946
0.00192566
0.00192149
0.00191699
0.00191215
0.00190697
0.00190147
0.00189565
0.00188951
0.00188307
0.00187634
0.00186935
0.00186211
0.00185465
0.00184698
0.00183912
0.00183109
0.00182289
0.00181453
0.00180601
0.00179735
0.00178855
0.00177963
0.0017706
0.00176147
0.00175226
0.00174294
0.00173348
0.00172381
0.00171381
0.00170325
0.00169176
0.0016783
0.00166041
0.00162687
2.29515e-10
3.41596e-08
4.03602e-07
1.93036e-06
6.6271e-06
1.59349e-05
2.95351e-05
4.57301e-05
6.26122e-05
7.85117e-05
9.23007e-05
0.000103069
0.000110987
0.000116481
0.000119642
0.000121073
0.000120946
0.000119409
0.00011663
0.000112633
0.000107418
0.00010146
9.41419e-05
8.5514e-05
7.55755e-05
6.46094e-05
5.34246e-05
4.32731e-05
3.48183e-05
2.79857e-05
2.20339e-05
2.05599e-05
2.53664e-05
4.17016e-05
6.57577e-05
8.17493e-05
8.97704e-05
9.34591e-05
9.63531e-05
0.000101311
0.000109932
0.000123087
0.000136648
0.00014895
0.000169097
0.000197459
0.00022799
0.000266072
0.000307589
0.000354784
0.000404099
0.000456451
0.000509791
0.000563811
0.000617918
0.000671353
0.0007237
0.000774713
0.000823963
0.000871606
0.000917798
0.00096231
0.00100586
0.00104756
0.0010881
0.00112745
0.00116578
0.0012032
0.00123979
0.00127565
0.00131084
0.00134543
0.00137946
0.00141296
0.00144598
0.00147852
0.00151061
0.00154224
0.00157344
0.0016042
0.00163452
0.00166441
0.00169387
0.00172289
0.00175148
0.00177963
0.00180735
0.00183462
0.00186144
0.00188781
0.00191371
0.00193914
0.00196408
0.00198853
0.00201248
0.00203591
0.00205882
0.00208121
0.0021031
0.00212449
0.00214541
0.00216586
0.00218585
0.00220535
0.00222435
0.00224286
0.00226085
0.00227831
0.00229524
0.00231163
0.00232745
0.00234272
0.00235741
0.00237152
0.00238504
0.00239797
0.0024103
0.00242202
0.00243313
0.00244362
0.0024535
0.00246276
0.00247139
0.0024794
0.00248679
0.00249355
0.0024997
0.00250524
0.00251017
0.00251449
0.0025182
0.00252131
0.00252384
0.00252572
0.00252711
0.00252817
0.00252866
0.00252865
0.00252812
0.00252706
0.00252548
0.0025234
0.00252082
0.00251775
0.0025142
0.00251018
0.0025057
0.00250079
0.00249544
0.00248967
0.00248348
0.00247689
0.00246989
0.00246249
0.00245471
0.00244657
0.00243809
0.0024293
0.00242022
0.00241087
0.00240127
0.00239144
0.00238139
0.00237112
0.00236065
0.00234999
0.00233914
0.00232814
0.002317
0.00230573
0.00229432
0.00228278
0.00227106
0.00225912
0.00224681
0.00223392
0.00222007
0.0022042
0.00218352
0.0021497
7.29637e-10
8.41096e-08
1.01883e-06
5.16064e-06
1.68095e-05
3.54564e-05
5.78039e-05
8.07961e-05
0.00010125
0.000117563
0.000129632
0.000138414
0.000143704
0.000146488
0.000147368
0.000146758
0.000144895
0.000141933
0.000137999
0.000133047
0.000127182
0.000120676
0.000113035
0.000104321
9.40939e-05
7.86246e-05
6.36478e-05
4.96929e-05
3.84116e-05
3.31627e-05
3.36916e-05
4.42034e-05
6.48745e-05
8.65373e-05
0.00010193
0.000111339
0.000117415
0.00012369
0.000133639
0.000149305
0.000161427
0.000174279
0.000196497
0.000224868
0.000258912
0.000300433
0.00034609
0.000397812
0.000452145
0.000509872
0.000568856
0.000629176
0.000689605
0.000749846
0.00080949
0.000868142
0.000925479
0.000981187
0.00103583
0.00108896
0.00114056
0.00119066
0.00123955
0.00128702
0.00133334
0.00137855
0.00142278
0.00146611
0.00150862
0.00155038
0.00159145
0.00163187
0.00167169
0.00171092
0.00174959
0.00178772
0.0018253
0.00186234
0.00189885
0.00193482
0.00197026
0.00200516
0.00203952
0.00207333
0.00210661
0.00213935
0.00217153
0.00220317
0.00223426
0.00226478
0.00229475
0.00232415
0.00235298
0.00238123
0.00240889
0.00243598
0.00246247
0.00248839
0.00251374
0.00253853
0.00256275
0.00258641
0.00260951
0.00263202
0.00265394
0.00267527
0.00269599
0.00271609
0.00273556
0.0027544
0.00277259
0.00279013
0.002807
0.00282321
0.00283875
0.00285361
0.00286779
0.00288128
0.00289408
0.00290619
0.0029176
0.00292832
0.00293833
0.00294765
0.00295628
0.00296422
0.00297147
0.00297803
0.00298393
0.00298917
0.00299369
0.00299756
0.00300079
0.00300327
0.00300527
0.00300678
0.00300766
0.00300795
0.00300765
0.00300677
0.00300531
0.00300328
0.0030007
0.00299758
0.00299391
0.00298971
0.00298501
0.0029798
0.00297411
0.00296794
0.00296129
0.00295418
0.00294661
0.00293858
0.00293012
0.00292124
0.00291197
0.00290234
0.00289236
0.00288206
0.00287147
0.00286059
0.00284945
0.00283805
0.0028264
0.00281452
0.00280241
0.00279011
0.00277764
0.002765
0.00275222
0.00273927
0.00272615
0.00271279
0.00269909
0.00268486
0.00266974
0.00265284
0.00263157
0.00259959
2.32724e-09
2.14773e-07
2.68801e-06
1.40597e-05
3.67288e-05
6.53621e-05
9.30069e-05
0.000115405
0.000132509
0.000145237
0.000154243
0.000159794
0.00016275
0.000163752
0.000163254
0.000161557
0.000158846
0.00015521
0.000150578
0.00014488
0.000138362
0.00013079
0.000121918
0.000106716
9.12308e-05
7.75172e-05
6.53007e-05
5.63253e-05
5.44405e-05
6.20262e-05
7.52173e-05
9.87777e-05
0.000116615
0.000129551
0.000138985
0.000147047
0.000157581
0.000173712
0.000184131
0.000196362
0.000217974
0.000245501
0.000280006
0.000321127
0.000368507
0.000421697
0.000478456
0.000538756
0.000600738
0.000664395
0.000728628
0.000793177
0.00085741
0.000921084
0.000983734
0.00104518
0.00110595
0.00116529
0.00122332
0.00128001
0.00133536
0.0013894
0.00144225
0.0014939
0.00154448
0.00159404
0.00164266
0.00169042
0.00173738
0.00178359
0.00182909
0.00187393
0.00191812
0.00196168
0.00200463
0.00204696
0.00208868
0.00212978
0.00217026
0.00221011
0.00224934
0.00228793
0.00232589
0.00236322
0.0023999
0.00243595
0.00247136
0.00250614
0.00254028
0.00257377
0.00260663
0.00263885
0.00267042
0.00270135
0.00273163
0.00276126
0.00279025
0.00281857
0.00284624
0.00287326
0.00289963
0.00292537
0.00295046
0.0029749
0.00299868
0.00302179
0.00304422
0.00306598
0.00308705
0.00310743
0.00312713
0.00314613
0.00316443
0.00318201
0.00319886
0.00321499
0.0032304
0.00324507
0.003259
0.0032722
0.00328466
0.00329638
0.00330736
0.00331761
0.00332712
0.0033359
0.00334395
0.00335129
0.00335794
0.00336388
0.00336903
0.00337353
0.00337733
0.00338034
0.00338288
0.00338481
0.00338608
0.00338671
0.00338671
0.0033861
0.00338487
0.00338305
0.00338064
0.00337768
0.00337419
0.00337015
0.00336557
0.00336046
0.00335483
0.00334868
0.00334203
0.00333488
0.00332723
0.00331909
0.00331048
0.00330143
0.00329194
0.00328205
0.00327179
0.00326116
0.0032502
0.00323892
0.00322733
0.00321544
0.00320327
0.00319082
0.00317812
0.0031652
0.00315206
0.00313874
0.00312524
0.00311156
0.00309771
0.00308362
0.00306924
0.00305442
0.00303887
0.00302183
0.00300134
0.00297229
6.95924e-09
5.66368e-07
7.20424e-06
3.00544e-05
6.33839e-05
9.71984e-05
0.000125269
0.000145897
0.000159898
0.000168548
0.000173097
0.00017507
0.000175306
0.000174197
0.000172059
0.000169052
0.000165141
0.000160234
0.000154456
0.00014795
0.000140575
0.000131998
0.000116263
9.99295e-05
8.64372e-05
7.69906e-05
7.39661e-05
7.68961e-05
8.60476e-05
0.000105851
0.000130086
0.000152169
0.000165472
0.000175211
0.000186384
0.000197388
0.000204173
0.000216198
0.00023549
0.000260767
0.00029364
0.000332898
0.000378852
0.000430742
0.000487655
0.000548335
0.000611362
0.000676268
0.000742155
0.000808743
0.000875462
0.000942015
0.0010079
0.00107287
0.00113736
0.00120086
0.00126328
0.0013245
0.00138454
0.00144338
0.00150105
0.00155756
0.00161298
0.00166735
0.00172073
0.00177317
0.00182474
0.00187549
0.00192546
0.00197471
0.00202326
0.00207114
0.00211836
0.00216494
0.00221085
0.00225611
0.0023007
0.00234462
0.00238785
0.00243038
0.00247221
0.00251333
0.00255373
0.00259342
0.0026324
0.00267066
0.00270822
0.00274507
0.00278121
0.00281666
0.00285141
0.00288546
0.00291882
0.00295148
0.00298346
0.00301473
0.00304531
0.00307518
0.00310433
0.00313279
0.00316057
0.00318766
0.00321407
0.00323978
0.00326479
0.0032891
0.0033127
0.00333558
0.00335774
0.00337918
0.00339989
0.00341986
0.00343909
0.00345757
0.00347531
0.0034923
0.00350855
0.00352403
0.00353877
0.00355275
0.00356597
0.00357844
0.00359015
0.00360112
0.00361133
0.0036208
0.00362954
0.00363754
0.00364488
0.00365142
0.00365721
0.00366233
0.00366672
0.00367034
0.00367346
0.00367591
0.0036777
0.00367882
0.00367931
0.00367916
0.00367839
0.003677
0.00367502
0.00367244
0.00366929
0.00366556
0.00366127
0.00365644
0.00365106
0.00364515
0.00363871
0.00363175
0.00362426
0.00361627
0.00360779
0.00359883
0.00358942
0.00357959
0.00356934
0.00355871
0.00354771
0.00353636
0.00352467
0.00351265
0.00350031
0.00348767
0.00347474
0.00346156
0.00344813
0.00343449
0.00342065
0.00340663
0.00339241
0.00337798
0.0033633
0.00334826
0.00333265
0.00331601
0.00329673
0.00327111
1.80308e-08
1.40281e-06
1.60429e-05
5.06267e-05
9.0772e-05
0.000124793
0.000150256
0.000167363
0.000178044
0.000183628
0.000185473
0.000184651
0.00018209
0.000178489
0.000174226
0.00016942
0.000163963
0.000157924
0.000151162
0.000143864
0.000135731
0.000125589
0.000113822
0.000106676
0.000101219
9.75765e-05
0.000102416
0.000117068
0.000135987
0.00015633
0.000175609
0.000191735
0.000203447
0.000212019
0.000220978
0.000232492
0.000249875
0.000272544
0.000302396
0.000338686
0.00038166
0.00043049
0.000484846
0.000543729
0.000606008
0.000670553
0.000736512
0.000803434
0.000870833
0.000938413
0.00100586
0.00107252
0.00113876
0.00120453
0.00126939
0.00133328
0.00139616
0.00145797
0.00151871
0.00157839
0.001637
0.00169459
0.0017512
0.00180686
0.00186162
0.00191554
0.00196864
0.00202097
0.00207258
0.00212352
0.00217379
0.00222343
0.00227244
0.00232082
0.00236854
0.00241558
0.00246194
0.00250759
0.00255252
0.00259671
0.00264014
0.0026828
0.00272469
0.00276582
0.0028062
0.00284586
0.00288478
0.00292292
0.0029603
0.00299692
0.00303279
0.00306791
0.0031023
0.00313594
0.00316886
0.00320104
0.0032325
0.00326323
0.00329325
0.00332256
0.00335116
0.00337904
0.0034062
0.00343264
0.00345836
0.00348334
0.0035076
0.00353112
0.0035539
0.00357594
0.00359723
0.00361778
0.00363758
0.00365663
0.00367492
0.00369247
0.00370926
0.0037253
0.00374058
0.00375511
0.00376889
0.00378192
0.0037942
0.00380574
0.00381652
0.00382657
0.00383589
0.00384452
0.00385243
0.00385954
0.00386596
0.0038717
0.00387669
0.00388096
0.00388469
0.00388773
0.00389011
0.00389183
0.00389291
0.00389336
0.00389318
0.00389239
0.003891
0.00388902
0.00388645
0.00388332
0.00387962
0.00387537
0.00387058
0.00386524
0.00385937
0.00385296
0.00384603
0.00383858
0.00383062
0.00382218
0.00381328
0.00380393
0.00379416
0.00378398
0.00377341
0.00376246
0.00375115
0.00373949
0.00372747
0.00371513
0.00370247
0.00368953
0.00367632
0.00366286
0.00364919
0.00363531
0.00362123
0.00360694
0.00359243
0.00357763
0.00356241
0.00354632
0.00352814
0.00350546
4.00423e-08
3.22958e-06
2.89822e-05
7.41296e-05
0.000117858
0.00015103
0.000172742
0.000186371
0.0001929
0.000194116
0.000191884
0.000187563
0.000182064
0.000175959
0.000169426
0.000162492
0.00015526
0.000147455
0.000139697
0.00013167
0.000123488
0.000116
0.000111029
0.000111078
0.000117455
0.000129345
0.00014473
0.000161886
0.000179303
0.000195769
0.00020964
0.000220499
0.000231977
0.000244795
0.000261066
0.000281582
0.000308351
0.000341148
0.000380309
0.000425215
0.000475575
0.000530709
0.000589976
0.000652392
0.000716973
0.000782905
0.000849636
0.000916813
0.000984124
0.00105107
0.00111748
0.0011839
0.00124951
0.00131438
0.00137837
0.00144143
0.00150353
0.00156465
0.00162478
0.00168393
0.00174211
0.00179936
0.00185573
0.00191127
0.00196601
0.00202001
0.00207329
0.00212584
0.00217777
0.0022291
0.00227986
0.00233008
0.00237976
0.00242893
0.00247768
0.00252589
0.00257341
0.00262019
0.0026662
0.00271141
0.0027558
0.00279935
0.00284207
0.00288394
0.00292498
0.00296515
0.00300451
0.0030431
0.00308092
0.00311799
0.00315431
0.00318989
0.00322475
0.00325887
0.00329226
0.00332493
0.00335688
0.00338811
0.00341863
0.00344841
0.00347748
0.00350581
0.00353341
0.00356027
0.0035864
0.0036118
0.00363645
0.00366036
0.00368353
0.00370596
0.00372765
0.00374859
0.00376878
0.00378823
0.00380694
0.0038249
0.00384212
0.0038586
0.00387434
0.00388934
0.0039036
0.00391713
0.00392993
0.00394199
0.00395333
0.00396394
0.00397385
0.00398309
0.00399156
0.00399931
0.00400638
0.00401277
0.00401843
0.00402344
0.00402783
0.00403156
0.00403463
0.00403706
0.00403885
0.00404002
0.00404057
0.00404052
0.00403987
0.00403864
0.00403684
0.00403447
0.00403154
0.00402807
0.00402405
0.0040195
0.00401441
0.00400878
0.00400262
0.00399595
0.00398876
0.00398108
0.00397294
0.00396434
0.00395531
0.00394585
0.003936
0.00392574
0.00391511
0.00390409
0.0038927
0.00388096
0.00386888
0.00385648
0.0038438
0.00383084
0.00381764
0.00380421
0.00379057
0.00377671
0.00376265
0.00374836
0.00373376
0.00371851
0.00370162
0.00368223
7.60703e-08
6.60812e-06
4.26311e-05
9.30668e-05
0.000138205
0.000170828
0.000191075
0.000200606
0.000202753
0.000200079
0.000194462
0.000187202
0.000179071
0.000170484
0.000162044
0.000153723
0.000146208
0.000139614
0.000134612
0.00013095
0.000129497
0.000131078
0.000136083
0.00014458
0.000156101
0.000169858
0.00018477
0.000199899
0.00021387
0.000225847
0.000238478
0.000253017
0.00026931
0.000288678
0.00031283
0.000342286
0.000377513
0.000418154
0.000463968
0.000514441
0.000569147
0.000627487
0.000688772
0.000752176
0.000816939
0.000882475
0.000948379
0.00101438
0.00107984
0.00114516
0.00121011
0.00127445
0.00133798
0.00140067
0.00146244
0.00152328
0.00158318
0.00164217
0.00170024
0.00175743
0.00181371
0.00186911
0.00192376
0.00197771
0.00203102
0.00208377
0.00213608
0.00218821
0.0022399
0.00229108
0.00234176
0.00239195
0.00244166
0.00249087
0.00253952
0.00258758
0.00263503
0.00268178
0.00272784
0.00277315
0.00281768
0.0028614
0.00290428
0.00294633
0.00298756
0.00302799
0.00306766
0.00310657
0.00314471
0.00318211
0.00321877
0.00325469
0.00328988
0.00332436
0.00335811
0.00339114
0.00342345
0.00345504
0.00348591
0.00351605
0.00354547
0.00357415
0.0036021
0.00362932
0.0036558
0.00368154
0.00370655
0.00373082
0.00375435
0.00377714
0.0037992
0.00382052
0.0038411
0.00386096
0.00388008
0.00389847
0.00391613
0.00393308
0.0039493
0.0039648
0.00397959
0.00399366
0.00400702
0.00401967
0.00403161
0.00404284
0.00405343
0.00406329
0.00407244
0.00408091
0.00408871
0.00409584
0.00410228
0.0041081
0.00411328
0.0041178
0.00412168
0.00412493
0.00412756
0.00412958
0.00413099
0.0041318
0.00413204
0.0041317
0.00413079
0.00412933
0.00412733
0.00412479
0.00412171
0.0041181
0.00411396
0.00410928
0.00410407
0.00409834
0.0040921
0.00408537
0.00407817
0.00407051
0.00406241
0.00405389
0.00404495
0.0040356
0.00402585
0.0040157
0.00400515
0.00399423
0.00398295
0.00397134
0.0039594
0.00394718
0.00393467
0.00392192
0.00390892
0.00389571
0.0038823
0.00386868
0.00385483
0.0038405
0.00382483
0.00380827
1.21777e-07
1.13719e-05
5.89329e-05
0.000116026
0.000161084
0.000190731
0.00020652
0.000212011
0.00021061
0.00020497
0.000196996
0.000187777
0.000178751
0.000170032
0.000162698
0.000156306
0.000151799
0.000149314
0.000148814
0.000150545
0.000154746
0.000161413
0.000170294
0.000180998
0.000193094
0.000206083
0.000218976
0.000231008
0.000243734
0.000258865
0.000275928
0.000294602
0.000317021
0.000343727
0.000375308
0.000411782
0.000453003