/*--------------------------------*- C++ -*----------------------------------*\
  =========                 |
  \\      /  F ield         | OpenFOAM: The Open Source CFD Toolbox
   \\    /   O peration     | Website:  https://openfoam.org
    \\  /    A nd           | Version:  8
     \\/     M anipulation  |
\*---------------------------------------------------------------------------*/
FoamFile
{
    version     2.0;
    format      ascii;
    class       volScalarField;
    location    "600";
    object      omega;
}
// * * * * * * * * * * * * * * * * * * * * * * * * * * * * * * * * * * * * * //

dimensions      [0 0 -1 0 0 0 0];

internalField   nonuniform List<scalar> 
12225
(
32582.3
32582.3
39629
50083.1
43659.6
38788.5
45691
45166.7
49630.6
48479.3
42183.6
32582.3
41936.1
43233.8
41746.6
45785.4
46089.6
41170
7433.8
6453.63
9063.54
16752.7
17133
17249.3
18495.9
19130
20853
19920.5
19586
17748.8
17754.8
18650.8
18433
19070.5
19193.1
17979.2
442.961
893.593
1579.41
2853.72
3892.79
4635.36
5392.66
6028.59
6586.84
6932.02
7193.41
7348.36
7490.32
7654.5
7790.81
7959.72
8117.45
8172.89
455.54
506.435
586.687
763.346
995.156
1240.28
1448.23
1652.68
1799.6
1958.62
2067.34
2224.5
2325.66
2458.86
2543.29
2667.6
2725.01
2836.4
442.079
448.143
456.198
475.863
524.818
594.863
670.626
744.404
793.898
833.887
856.35
895.02
918.022
959.169
983.234
1024.94
1043.14
1084.28
438.691
438.275
438.153
438.828
445.907
462.878
482.064
507.848
526.862
542.468
554.744
564.797
570.259
574.708
580.784
588.806
593.833
606.412
438.759
437.242
434.952
432.509
432.336
434.411
437.413
442.82
448.888
452.726
459.74
462.441
465.391
467.318
469.377
466.192
472.726
470.413
438.892
436.929
434.811
432.696
430.902
430.281
428.602
429.178
429.55
430.16
431.004
432.247
432.996
433.241
432.29
433.67
432.738
431.407
438.972
436.819
434.729
432.73
430.824
429.241
427.661
426.446
425.322
424.271
423.343
422.509
421.652
420.918
419.996
419.451
418.664
418.176
438.987
436.806
434.681
432.722
430.798
429.063
427.349
425.816
424.312
422.937
421.576
420.351
419.114
418.024
416.899
415.937
414.943
414.092
438.995
436.793
434.671
432.694
430.782
429.001
427.278
425.673
424.119
422.665
421.256
419.936
418.658
417.462
416.303
415.221
414.173
413.192
438.999
436.783
434.668
432.674
430.769
428.969
427.25
425.622
424.067
422.592
421.18
419.841
418.559
417.343
416.177
415.071
414.009
413.002
439.002
436.777
434.664
432.661
430.757
428.949
427.228
425.594
424.035
422.554
421.139
419.795
418.51
417.288
416.118
415.006
413.941
412.926
439.001
436.775
434.659
432.653
430.745
428.935
427.21
425.571
424.01
422.524
421.108
419.758
418.472
417.244
416.073
414.955
413.888
412.869
438.999
436.77
434.65
432.64
430.728
428.912
427.183
425.54
423.973
422.484
421.062
419.709
418.416
417.186
416.009
414.889
413.815
412.795
438.989
436.74
434.601
432.574
430.644
428.814
427.068
425.413
423.831
422.331
420.894
419.533
418.226
416.99
415.799
414.674
413.588
412.564
438.962
436.662
434.479
432.408
430.441
428.572
426.796
425.107
423.499
421.97
420.513
419.125
417.802
416.541
415.337
414.19
413.094
412.049
438.964
436.662
434.481
432.408
430.442
428.572
426.796
425.105
423.498
421.968
420.51
419.122
417.799
416.537
415.334
414.185
413.09
412.043
438.99
436.741
434.605
432.576
430.648
428.814
427.071
425.41
423.832
422.325
420.894
419.525
418.224
416.978
415.796
414.66
413.583
412.547
439.001
436.769
434.652
432.638
430.726
428.907
427.177
425.53
423.962
422.468
421.045
419.688
418.393
417.159
415.98
414.856
413.782
412.757
439.001
436.773
434.657
432.647
430.738
428.922
427.195
425.551
423.986
422.495
421.075
419.72
418.429
417.197
416.022
414.899
413.828
412.805
439.003
436.773
434.662
432.651
430.746
428.93
427.207
425.564
424.003
422.513
421.097
419.744
418.458
417.228
416.059
414.939
413.875
412.855
439.011
436.768
434.674
432.651
430.763
428.937
427.233
425.582
424.044
422.555
421.169
419.827
418.58
417.373
416.253
415.167
414.159
413.183
439.027
436.747
434.701
432.644
430.827
428.989
427.387
425.783
424.403
423.038
421.904
420.749
419.851
418.911
418.21
417.444
416.894
416.268
438.948
436.684
434.769
432.843
431.538
430.1
429.44
428.849
428.702
429.028
429.37
429.961
431.171
432.091
433.799
434.936
436.783
438.006
437.454
436.589
436.309
437.269
440.734
444.325
451.612
457.472
466.493
474.16
484.814
493.555
504.881
513.733
524.902
533.258
543.893
551.539
422.806
446.216
460.567
482.467
527.636
572.54
625.219
672.252
725.787
771.653
823.483
865.771
913.912
951.088
994.54
1026.22
1064.98
1091.55
350.991
569.757
730.322
951.368
1280.19
1588.89
1887.53
2144.72
2390.35
2595.38
2792.05
2950.73
3106.24
3226.5
3349.32
3438.92
3537.14
3604.36
347.737
2270.79
4003.15
5534.48
6764.25
7729.46
8428.32
8940.24
9310.79
9576.15
9752.33
9874.15
9941.3
9982.38
9989.29
9985.73
9969.57
9950.24
16112.1
16112.1
21287.2
23165
24115.8
24589.2
24628.7
24561.1
24407.2
24159.2
23891
23620.9
23359.3
23112.7
22883.3
22673.7
22480.7
22308
11463.3
2494.65
2496.87
2499.12
2501.38
2503.67
2505.98
2508.3
2510.65
2513.02
2515.42
2517.83
2520.27
2522.73
2525.21
2527.72
2530.25
2532.8
2535.37
2537.97
2540.6
2543.25
2545.92
2548.62
2551.34
2554.09
2556.87
2559.67
2562.5
2565.35
2568.23
2571.14
2574.08
2577.04
2580.04
2583.06
2586.11
2589.19
2592.3
2595.43
2598.6
2601.8
2605.03
2608.29
2611.59
2614.91
2618.27
2621.66
2625.08
2628.54
2632.03
2635.55
2639.11
2642.71
2646.33
2650
2653.7
2657.44
2661.21
2665.03
2668.88
3242.75
3225.62
3291.65
3440.8
3499.06
3588.42
3663.05
3738.29
3809.78
3879.91
3947.34
4013.67
4077.86
4140.99
4202.45
4262.87
4321.91
4379.93
4436.75
4492.6
4547.34
4601.15
4653.91
4705.77
4756.61
4806.55
4855.5
4903.51
4950.52
4996.55
5041.55
5085.5
5128.33
5170.01
5210.47
5249.68
5287.63
5324.34
5359.98
5394.81
5429.12
5462.19
5494.44
5525.69
5556.03
5585.38
5613.78
5641.17
5667.59
5692.97
5717.38
5740.72
5763.06
5784.34
5804.61
5823.8
5841.97
5859.08
5875.15
5890.18
5904.17
5917.13
5929.06
5940
5949.91
5958.89
5966.92
5974.51
5980.03
5986.46
5989.23
5993.97
5994.76
5997.34
5998.65
5999.39
5999.04
5997.06
5994.49
5990.97
5986.76
5981.81
5976.16
5969.83
5962.85
5955.26
5947.09
5938.38
5929.13
5919.38
5909.13
5898.42
5887.28
5875.75
5863.88
5851.75
5839.4
5826.9
5814.29
5801.6
5788.88
5776.13
5763.39
5750.68
5738.03
5725.49
5713.13
5700.98
5689.08
5677.46
5666.07
5654.84
5643.58
5631.93
5619.18
5604.39
5584.95
5556.06
5443.93
11463.3
1991.7
989.514
802.518
686.535
616.712
622.438
618.941
608.56
586.818
563.397
540.303
519.139
501.691
489.79
481.443
481.054
482.781
509.799
557.384
641.122
742.015
851.607
960.295
1057.55
1132.46
1175.23
1169.46
1128.85
1052.1
930.678
781.167
648.906
564.562
498.056
459.918
451.934
458.376
477.226
509.358
539.316
577.536
654.457
775.578
961.279
1264.7
1582.41
1808.34
1953.06
2030.43
2056.53
2055.86
2015.42
1984.74
1931.43
1861.35
1811.9
1758.65
1721.58
1698.38
1679.51
1683.07
1655.03
1650.83
1647.38
1644.46
1644.09
1645.33
1648.45
1652.4
1657.51
1663.15
1669.55
1676.25
1683.4
1690.74
1698.32
1706
1713.8
1721.62
1729.48
1737.32
1745.14
1752.89
1760.58
1768.17
1775.64
1782.98
1790.17
1797.19
1804.02
1810.65
1817.06
1823.27
1829.28
1835.15
1840.94
1846.78
1852.87
1859.52
1867.15
1875.74
1883.59
1891.48
1899.03
1906.41
1913.55
1920.46
1927.15
1933.62
1939.85
1945.86
1951.64
1957.2
1962.53
1967.63
1972.51
1977.17
1981.61
1985.83
1989.83
1993.62
1997.21
2000.58
2003.76
2006.74
2009.54
2012.16
2014.62
2016.82
2018.95
2020.73
2022.53
2024.01
2025.56
2026.84
2027.74
2027.96
2027.5
2026.89
2026.1
2025.14
2024.01
2022.72
2021.25
2019.63
2017.86
2015.94
2013.88
2011.68
2009.36
2006.93
2004.34
2001.65
1998.86
1995.98
1993.02
1990
1986.92
1983.79
1980.62
1977.4
1974.16
1970.9
1967.63
1964.36
1961.09
1957.84
1954.63
1951.47
1948.37
1945.34
1942.41
1939.53
1936.84
1934.37
1932.2
1930.81
1929.23
1938.17
11463.3
2006.97
809.671
633.636
669.831
671.787
645.599
591.83
533.372
478.21
429.248
387.917
355.363
329.797
310.091
294.948
284.376
276.39
274.173
276.531
286.792
305.1
337.02
380.61
435.14
494.957
555.847
602.268
633.556
631.803
610.935
570.583
509.329
440.787
389.407
377.021
385.675
408.086
443.31
512.276
619.384
765.584
956.077
1134.19
1283.19
1414.84
1510
1544.18
1546.15
1504.55
1452.12
1392.54
1334.41
1285.86
1238.81
1199.2
1169.48
1143.86
1126.29
1113.43
1103
1100.52
1091.24
1089.78
1087.73
1087.68
1088.61
1090.29
1092.61
1095.38
1098.56
1102.02
1105.74
1109.63
1113.68
1117.83
1122.07
1126.37
1130.72
1135.09
1139.47
1143.85
1148.22
1152.56
1156.87
1161.14
1165.37
1169.53
1173.63
1177.67
1181.65
1185.57
1189.43
1193.25
1197.05
1200.85
1204.7
1208.62
1212.66
1216.85
1221.17
1225.44
1229.52
1233.53
1237.38
1241.13
1244.74
1248.24
1251.6
1254.84
1257.95
1260.93
1263.79
1266.51
1269.12
1271.59
1273.94
1276.16
1278.25
1280.22
1282.07
1283.79
1285.39
1286.87
1288.23
1289.48
1290.61
1291.62
1292.53
1293.3
1293.99
1294.53
1295.01
1295.34
1295.6
1295.69
1295.6
1295.25
1294.72
1294.1
1293.38
1292.56
1291.64
1290.62
1289.5
1288.29
1286.98
1285.58
1284.09
1282.52
1280.87
1279.15
1277.34
1275.46
1273.52
1271.52
1269.46
1267.35
1265.19
1262.98
1260.73
1258.45
1256.14
1253.79
1251.43
1249.05
1246.66
1244.27
1241.88
1239.5
1237.15
1234.84
1232.6
1230.46
1228.49
1226.81
1225.56
1225.34
1226.53
1236.48
11463.3
2037.07
1006.82
963.404
890.489
764.375
649.731
544.971
461.86
399.752
353.007
316.241
287.534
265.462
248.579
235.78
226.278
219.426
214.932
213.177
214.23
217.362
225.583
239.65
260.91
289.213
323.44
358.163
389.433
412.444
419.109
412.906
391.384
387.968
420.643
504.783
573.402
631.277
700.978
797.534
928.133
1048.97
1128.08
1195.85
1251.99
1275.96
1250
1200.78
1160.09
1105.7
1060.33
1017.5
982.398
953.796
930.008
911.399
897.372
886.507
879.176
873.887
870.17
869.375
867.132
867.3
867.977
869.328
871.165
873.372
875.889
878.649
881.608
884.726
887.975
891.327
894.765
898.268
901.825
905.42
909.044
912.687
916.339
919.993
923.641
927.276
930.894
934.488
938.054
941.589
945.091
948.559
951.994
955.4
958.78
962.141
965.489
968.834
972.181
975.536
978.896
982.25
985.561
988.784
991.904
994.938
997.871
1000.71
1003.45
1006.09
1008.63
1011.07
1013.4
1015.64
1017.77
1019.8
1021.72
1023.54
1025.25
1026.86
1028.36
1029.75
1031.05
1032.23
1033.31
1034.29
1035.16
1035.93
1036.6
1037.16
1037.62
1037.98
1038.24
1038.4
1038.46
1038.41
1038.27
1038
1037.59
1037.04
1036.38
1035.63
1034.8
1033.88
1032.87
1031.77
1030.59
1029.32
1027.97
1026.55
1025.04
1023.46
1021.81
1020.1
1018.31
1016.46
1014.56
1012.59
1010.58
1008.51
1006.4
1004.24
1002.04
999.807
997.541
995.247
992.929
990.591
988.238
985.873
983.505
981.142
978.793
976.476
974.218
972.053
970.045
968.29
966.933
966.462
967.364
973.397
11463.3
2307.44
1452.27
1170.29
930.169
721.14
557.201
446.832
371.552
318.973
281.424
254.774
235.477
220.89
209.431
200.395
193.443
188.372
184.988
183.335
183.517
184.863
188.673
195.386
206.026
221.612
242.357
265.822
289.527
308.27
323.372
351.133
404.776
502.683
593.768
663.182
732.186
807.879
880.953
944.823
1000.1
1047.63
1081.54
1092.2
1067.85
1019.19
985.092
941.666
906.118
870.832
843.112
818.806
799.672
784.418
772.446
763.457
756.972
752.455
749.756
748.38
747.917
748.375
749.137
750.759
752.741
755.083
757.697
760.528
763.537
766.691
769.966
773.34
776.796
780.321
783.903
787.53
791.194
794.886
798.598
802.322
806.051
809.78
813.502
817.213
820.906
824.579
828.226
831.847
835.437
838.997
842.526
846.024
849.493
852.934
856.345
859.729
863.08
866.395
869.663
872.873
876.011
879.064
882.028
884.906
887.693
890.389
892.991
895.498
897.909
900.223
902.438
904.553
906.566
908.478
910.285
911.988
913.585
915.076
916.461
917.737
918.906
919.967
920.92
921.764
922.501
923.129
923.65
924.062
924.366
924.56
924.651
924.638
924.519
924.287
923.949
923.495
922.921
922.229
921.435
920.548
919.569
918.5
917.34
916.093
914.761
913.343
911.842
910.26
908.599
906.861
905.052
903.173
901.228
899.219
897.149
895.021
892.837
890.602
888.318
885.989
883.619
881.211
878.771
876.302
873.808
871.293
868.759
866.213
863.661
861.111
858.58
856.082
853.638
851.278
849.055
847.05
845.381
844.393
844.564
847.55
11463.3
2907.7
1712.41
1194.38
826.141
583.6
441.951
353.399
297.71
261.603
236.832
218.881
205.288
194.748
186.342
179.617
174.386
170.561
168.068
167.021
167.346
168.744
171.961
177.113
184.85
196.356
212.569
233.653
261.166
301.462
355.299
441.678
548.788
639.948
708.787
771.595
825.014
866.159
900.859
933.914
953.949
958.366
932.682
901.048
870.205
835.434
806.593
777.58
754.263
733.525
717.07
703.401
692.824
684.733
678.786
674.712
672.278
671.298
671.091
671.757
673.134
675.1
677.417
680.157
683.159
686.385
689.787
693.331
696.994
700.754
704.598
708.511
712.485
716.509
720.575
724.675
728.802
732.948
737.107
741.27
745.433
749.589
753.732
757.858
761.962
766.04
770.087
774.101
778.077
782.016
785.914
789.771
793.587
797.358
801.084
804.759
808.381
811.942
815.431
818.846
822.179
825.423
828.578
831.641
834.61
837.483
840.257
842.931
845.501
847.968
850.33
852.584
854.729
856.762
858.683
860.488
862.179
863.752
865.207
866.542
867.758
868.853
869.828
870.682
871.415
872.026
872.516
872.885
873.131
873.247
873.262
873.155
872.925
872.574
872.104
871.514
870.803
869.974
869.036
867.994
866.851
865.608
864.265
862.827
861.298
859.676
857.963
856.161
854.275
852.306
850.259
848.139
845.947
843.686
841.359
838.969
836.52
834.017
831.461
828.858
826.212
823.527
820.808
818.059
815.284
812.486
809.668
806.838
804.001
801.165
798.345
795.555
792.814
790.15
787.604
785.242
783.157
781.59
780.867
781.809
11463.3
3406.41
1757.4
1027.33
646.212
454.349
354.727
299.399
264.193
239.533
220.969
206.469
194.842
185.274
177.372
170.958
165.954
162.348
160.255
159.778
160.691
163.301
168.042
175.299
185.835
200.205
221.778
255.506
307.406
387.673
490.043
581.152
651.253
711.683
759.612
795.387
823.607
846.789
856.684
856.243
834.92
811.956
786.498
760.929
736.278
712.523
692.262
674.103
659.341
646.917
637.087
629.353
623.642
619.653
617.296
616.332
616.173
617.025
618.633
620.869
623.615
626.781
630.25
633.991
637.935
642.043
646.283
650.632
655.072
659.588
664.17
668.808
673.494
678.222
682.983
687.771
692.577
697.394
702.215
707.034
711.842
716.634
721.404
726.146
730.857
735.532
740.165
744.753
749.291
753.778
758.21
762.587
766.907
771.166
775.361
779.489
783.546
787.529
791.434
795.256
798.984
802.616
806.149
809.58
812.906
816.124
819.233
822.228
825.107
827.867
830.502
833.012
835.396
837.653
839.782
841.78
843.647
845.379
846.978
848.44
849.765
850.953
852.004
852.917
853.691
854.329
854.828
855.19
855.405
855.483
855.447
855.268
854.952
854.502
853.919
853.206
852.363
851.394
850.304
849.099
847.78
846.35
844.809
843.156
841.389
839.517
837.545
835.476
833.312
831.058
828.718
826.296
823.797
821.221
818.573
815.857
813.077
810.238
807.343
804.398
801.407
798.374
795.306
792.207
789.08
785.929
782.758
779.574
776.384
773.196
770.022
766.876
763.777
760.747
757.821
755.051
752.505
750.358
748.759
748.164
11463.3
3549.6
1550.94
810.629
512.512
378.339
309.581
269.847
244.396
226.383
212.439
200.771
190.637
181.926
174.59
168.686
164.384
161.845
160.988
161.719
164.283
169.293
177.14
189.81
209.689
238.919
284.004
355.054
439.899
519.279
584.119
639.837
686.995
724.33
753.914
773.777
781.21
775.77
759.474
742.227
721.764
702.141
682.536
663.689
646.023
630.088
616.532
604.99
595.629
588.106
582.377
578.237
575.66
574.491
574.245
574.998
576.605
578.963
581.933
585.411
589.305
593.541
598.044
602.769
607.67
612.714
617.875
623.134
628.474
633.882
639.349
644.866
650.425
656.018
661.639
667.279
672.93
678.582
684.228
689.859
695.468
701.048
706.593
712.097
717.554
722.962
728.314
733.604
738.828
743.983
749.066
754.075
759.009
763.864
768.636
773.323
777.92
782.429
786.845
791.157
795.359
799.449
803.422
807.276
811.009
814.617
818.097
821.447
824.663
827.743
830.684
833.484
836.141
838.653
841.017
843.231
845.295
847.205
848.961
850.562
852.005
853.29
854.418
855.389
856.201
856.856
857.353
857.693
857.86
857.891
857.774
857.498
857.069
856.489
855.762
854.889
853.872
852.717
851.427
850.008
848.462
846.791
844.998
843.086
841.059
838.918
836.668
834.311
831.85
829.29
826.636
823.894
821.066
818.156
815.167
812.104
808.973
805.779
802.526
799.219
795.862
792.463
789.025
785.555
782.055
778.53
774.986
771.429
767.866
764.306
760.761
757.244
753.77
750.361
747.045
743.862
740.864
738.149
735.785
733.908
11463.3
3384.62
1274.16
656.576
438.603
343.718
292.728
261.843
240.638
224.599
211.869
201.369
192.494
184.976
178.842
174.29
171.659
171.059
172.823
176.91
184.36
196.431
214.231
242.566
285.398
342.775
408.316
469.231
525.072
574.172
616.684
652.406
682.888
704.948
713.297
711.069
698.615
684.971
668.901
653.459
638.014
623.347
609.074
595.588
583.297
572.562
563.546
556.136
550.309
545.935
542.927
541.387
540.908
541.349
542.754
544.997
547.971
551.579
555.726
560.327
565.308
570.605
576.158
581.922
587.859
593.939
600.139
606.44
612.822
619.272
625.777
632.326
638.909
645.517
652.146
658.786
665.424
672.051
678.656
685.231
691.767
698.257
704.693
711.07
717.378
723.603
729.752
735.824
741.814
747.718
753.534
759.26
764.893
770.43
775.865
781.195
786.416
791.523
796.509
801.371
806.105
810.708
815.175
819.504
823.691
827.735
831.631
835.377
838.968
842.404
845.679
848.791
851.738
854.518
857.129
859.568
861.833
863.923
865.835
867.569
869.123
870.496
871.689
872.702
873.534
874.187
874.661
874.947
875.053
875.002
874.773
874.368
873.793
873.049
872.139
871.066
869.835
868.45
866.915
865.235
863.413
861.454
859.36
857.134
854.781
852.304
849.706
846.991
844.163
841.226
838.186
835.049
831.818
828.498
825.094
821.61
818.053
814.429
810.743
806.999
803.203
799.361
795.479
791.563
787.615
783.642
779.65
775.646
771.639
767.636
763.648
759.689
755.773
751.918
748.146
744.493
740.994
737.741
734.736
731.86
11463.3
2968.14
1027.99
555.654
394.805
322.776
284.407
259.297
242.012
229.32
219.18
210.688
203.586
197.963
194.242
192.922
194.328
199.135
207.408
219.548
237.678
263.46
298.358
340.729
386.769
433.536
478.166
518.676
555.339
586.989
614.919
638.962
650.55
652.356
645.833
636.081
623.61
611.4
599.322
587.935
576.872
566.205
555.936
546.394
537.903
530.669
524.756
520.131
516.76
514.709
513.882
513.872
514.923
516.871
519.656
523.191
527.394
532.184
537.487
543.232
549.356
555.801
562.513
569.445
576.56
583.827
591.222
598.74
606.343
614.01
621.727
629.479
637.247
645.009
652.729
660.415
668.088
675.745
683.371
690.956
698.49
705.965
713.374
720.71
727.969
735.151
742.242
749.226
756.098
762.853
769.488
776.005
782.4
788.669
794.809
800.815
806.684
812.41
817.993
823.429
828.715
833.847
838.821
843.633
848.28
852.761
857.071
861.207
865.167
868.945
872.54
875.948
879.165
882.191
885.022
887.658
890.095
892.332
894.367
896.198
897.824
899.244
900.46
901.47
902.277
902.882
903.281
903.466
903.468
903.273
902.881
902.295
901.518
900.554
899.405
898.076
896.571
894.897
893.057
891.056
888.9
886.592
884.137
881.538
878.799
875.926
872.922
869.79
866.537
863.164
859.681
856.091
852.401
848.614
844.738
840.778
836.741
832.634
828.461
824.229
819.941
815.604
811.226
806.811
802.364
797.892
793.402
788.903
784.402
779.908
775.431
770.984
766.58
762.234
757.966
753.804
749.776
745.952
742.305
738.502
11463.3
2497.83
890.45
519.603
383.558
320.014
285.391
265.082
251.626
241.802
234.183
228.292
224.305
222.761
223.869
228.655
237.228
248.788
263.768
284.148
309.925
340.168
373.399
407.659
441.448
473.783
503.901
530.692
555.179
577.987
592.356
596.971
595.947
590.914
582.776
573.739
564.498
555.776
547.401
539.332
531.414
523.715
516.399
509.743
503.984
499.263
495.633
493.09
491.807
491.466
492.077
493.634
496.114
499.446
503.568
508.408
513.893
519.956
526.53
533.556
540.991
548.782
556.858
565.171
573.682
582.347
591.114
599.894
608.75
617.683
626.677
635.712
644.764
653.812
662.851
671.865
680.834
689.758
698.611
707.383
716.066
724.655
733.144
741.526
749.796
757.943
765.955
773.827
781.555
789.134
796.565
803.847
810.978
817.956
824.776
831.434
837.928
844.254
850.41
856.394
862.201
867.828
873.271
878.526
883.59
888.46
893.135
897.609
901.882
905.947
909.803
913.444
916.87
920.076
923.063
925.827
928.367
930.681
932.766
934.622
936.247
937.64
938.803
939.736
940.441
940.92
941.162
941.186
940.991
940.577
939.945
939.1
938.045
936.783
935.319
933.657
931.803
929.763
927.543
925.148
922.583
919.854
916.966
913.922
910.729
907.39
903.912
900.298
896.553
892.682
888.692
884.588
880.376
876.064
871.657
867.165
862.593
857.948
853.237
848.463
843.632
838.75
833.825
828.861
823.865
818.846
813.811
808.769
803.729
798.699
793.689
788.711
783.776
778.898
774.095
769.39
764.805
760.395
756.127
751.48
11463.3
2080.4
776.861
479.96
371.525
320.073
292.876
276.86
266.613
259.693
255.111
252.97
252.812
255.732
261.962
271.609
284.102
299.253
317.728
339.198
362.817
387.676
412.91
437.739
461.464
483.358
504.014
523.848
538.886
545.906
547.693
547.348
543.659
538.309
532.134
525.907
519.834
513.988
508.242
502.55
496.921
491.488
486.451
482.039
478.431
475.736
474.133
473.545
473.836
475.124
477.345
480.472
484.477
489.324
494.997
501.376
508.396
515.995
524.105
532.647
541.506
550.628
560.065
569.792
579.772
589.966
600.34
610.895
621.558
632.28
643.027
653.781
664.5
675.14
685.678
696.094
706.372
716.495
726.482
736.342
746.076
755.683
765.164
774.513
783.72
792.774
801.66
810.37
818.899
827.245
835.407
843.387
851.185
858.797
866.219
873.448
880.481
887.316
893.953
900.388
906.619
912.641
918.449
924.04
929.412
934.563
939.489
944.19
948.661
952.899
956.899
960.659
964.175
967.445
970.469
973.245
975.771
978.045
980.065
981.83
983.339
984.591
985.586
986.329
986.819
987.058
987.046
986.789
986.289
985.55
984.575
983.367
981.931
980.271
978.391
976.299
973.999
971.499
968.806
965.925
962.863
959.626
956.218
952.647
948.917
945.034
941.004
936.832
932.524
928.083
923.518
918.832
914.034
909.133
904.136
899.053
893.891
888.654
883.35
877.984
872.558
867.082
861.559
855.998
850.406
844.793
839.169
833.542
827.921
822.314
816.73
811.179
805.673
800.225
794.851
789.572
784.403
779.392
774.513
769.081
11463.3
1951.4
764.553
478.92
375.051
328.875
305.399
292.341
284.692
280.578
279.051
279.511
282.655
288.555
297.138
308.129
321.213
336.417
353.351
371.409
390.013
408.623
426.73
444.092
460.979
477.413
491.102
499.652
503.791
505.314
505.426
503.81
500.898
497.394
493.651
489.874
486.091
482.295
478.465
474.645
470.937
467.504
464.531
462.201
460.762
460.233
460.588
462.052
464.451
467.762
471.96
477.015
482.875
489.441
496.554
504.374
512.893
522.061
531.819
542.109
552.902
564.156
575.788
587.747
599.991
612.468
625.123
637.926
650.804
663.649
676.391
688.959
701.315
713.443
725.321
736.941
748.301
759.416
770.322
781.054
791.627
802.049
812.329
822.464
832.437
842.228
851.812
861.182
870.334
879.266
887.978
896.474
904.754
912.814
920.651
928.26
935.64
942.791
949.713
956.405
962.862
969.082
975.058
980.79
986.272
991.506
996.49
1001.22
1005.7
1009.91
1013.87
1017.56
1020.98
1024.13
1027.01
1029.62
1031.95
1034.01
1035.8
1037.3
1038.53
1039.48
1040.14
1040.54
1040.66
1040.51
1040.09
1039.41
1038.46
1037.26
1035.8
1034.1
1032.15
1029.96
1027.55
1024.9
1022.04
1018.96
1015.68
1012.21
1008.54
1004.69
1000.67
996.473
992.112
987.594
982.925
978.11
973.156
968.068
962.853
957.514
952.06
946.505
940.858
935.126
929.315
923.432
917.482
911.47
905.4
899.28
893.111
886.906
880.673
874.425
868.171
861.92
855.679
849.457
843.261
837.101
830.987
824.934
818.958
813.077
807.302
801.674
796.19
790.016
11463.3
1862.43
737.784
476.132
382.451
340.715
320.183
309.284
303.556
301.132
300.754
302.982
307.651
314.512
323.257
333.566
345.184
357.849
371.204
384.854
398.427
411.884
425.376
438.498
449.763
457.721
463.363
467.239
469.363
470.254
470.445
469.836
468.634
467.12
465.419
463.597
461.686
459.733
457.815
456.073
454.73
453.954
453.715
454.152
455.419
457.492
460.296
463.64
467.829
472.968
479.068
486.105
494.047
502.87
512.602
523.151
534.486
546.538
559.231
572.5
586.292
600.536
615.144
630.044
645.201
660.547
675.936
691.243
706.361
721.234
735.788
749.952
763.679
776.942
789.73
802.047
813.906
825.372
836.545
847.549
858.392
869.094
879.687
890.165
900.493
910.625
920.5
930.134
939.524
948.664
957.554
966.196
974.591
982.736
990.627
998.261
1005.64
1012.75
1019.62
1026.22
1032.57
1038.65
1044.47
1050.02
1055.29
1060.29
1065.02
1069.48
1073.66
1077.57
1081.19
1084.53
1087.58
1090.34
1092.81
1094.99
1096.88
1098.48
1099.79
1100.8
1101.51
1101.94
1102.06
1101.9
1101.45
1100.71
1099.69
1098.39
1096.82
1094.98
1092.87
1090.51
1087.89
1085.02
1081.91
1078.57
1075
1071.22
1067.22
1063.02
1058.63
1054.05
1049.3
1044.37
1039.27
1034.01
1028.61
1023.06
1017.37
1011.55
1005.6
999.533
993.354
987.081
980.722
974.282
967.766
961.18
954.53
947.821
941.057
934.246
927.386
920.493
913.581
906.66
899.741
892.83
885.935
879.063
872.223
865.42
858.668
851.981
845.376
838.87
832.472
826.213
820.127
813.247
11463.3
1844.39
737.359
482.926
393.581
354.233
334.947
324.798
319.658
317.643
317.488
320.079
324.738
331.069
338.646
347.143
356.357
366.072
376.057
386.19
396.61
406.566
415.128
422.233
428.098
433.183
437.22
440.413
442.932
444.966
446.678
448.152
449.39
450.398
451.236
451.965
452.647
453.35
454.138
455.044
455.974
457.261
459.263
462.232
466.282
471.307
477.306
484.39
492.511
501.68
511.907
523.155
535.371
548.515
562.568
577.456
593.228
609.693
626.704
644.153
661.947
679.985
698.164
716.377
734.489
752.389
770.025
787.3
804.106
820.337
835.883
850.661
864.642
877.841
890.293
902.03
913.015
923.426
933.473
943.602
953.641
963.606
973.618
983.636
993.567
1003.34
1012.9
1022.23
1031.3
1040.09
1048.61
1056.85
1064.83
1072.52
1079.94
1087.08
1093.94
1100.51
1106.81
1112.84
1118.59
1124.06
1129.25
1134.14
1138.75
1143.08
1147.11
1150.86
1154.33
1157.51
1160.39
1162.98
1165.27
1167.26
1168.96
1170.35
1171.45
1172.26
1172.76
1172.95
1172.86
1172.47
1171.75
1170.74
1169.44
1167.85
1165.97
1163.81
1161.37
1158.66
1155.68
1152.43
1148.93
1145.17
1141.17
1136.94
1132.47
1127.79
1122.9
1117.81
1112.52
1107.06
1101.41
1095.59
1089.62
1083.48
1077.2
1070.78
1064.23
1057.56
1050.77
1043.88
1036.92
1029.87
1022.74
1015.53
1008.25
1000.91
993.505
986.047
978.541
970.995
963.402
955.786
948.163
940.54
932.925
925.325
917.746
910.195
902.683
895.21
887.794
880.454
873.203
866.057
859.025
852.125
845.438
837.888
11463.3
1821.04
736.348
490.869
403.35
365.04
346.458
336.254
330.887
328.687
328.361
330.473
334.352
339.547
345.644
352.403
359.712
367.466
375.386
383.083
390.396
397.342
404.094
410.414
416.385
422.071
427.44
432.519
437.297
441.728
445.757
449.203
452.265
455.218
458.161
461.179
464.358
467.799
471.602
475.898
480.913
486.817
493.801
502.139
511.802
522.528
534.349
547.312
561.367
576.501
592.807
610.156
628.349
647.249
666.731
686.657
706.818
727.181
747.678
768.217
788.706
809.052
829.17
848.977
868.389
887.331
905.742
923.552
940.68
957.027
972.446
986.825
1000.22
1012.73
1024.43
1035.4
1045.66
1055.26
1064.27
1072.88
1081.17
1089.37
1098
1106.83
1115.62
1124.26
1132.73
1140.95
1148.87
1156.5
1163.82
1170.86
1177.61
1184.07
1190.25
1196.12
1201.7
1207
1212.01
1216.76
1221.23
1225.42
1229.32
1232.94
1236.26
1239.3
1242.06
1244.54
1246.74
1248.65
1250.29
1251.64
1252.69
1253.45
1253.92
1254.1
1254
1253.64
1252.94
1251.97
1250.7
1249.14
1247.29
1245.14
1242.71
1240
1237.01
1233.74
1230.21
1226.41
1222.35
1218.04
1213.47
1208.66
1203.61
1198.34
1192.84
1187.14
1181.23
1175.14
1168.86
1162.41
1155.78
1149
1142.07
1134.98
1127.76
1120.41
1112.94
1105.35
1097.66
1089.88
1082.05
1074.13
1066.15
1058.09
1049.96
1041.78
1033.54
1025.26
1016.93
1008.58
1000.22
991.866
983.512
975.165
966.831
958.517
950.23
941.978
933.772
925.612
917.52
909.517
901.613
893.823
886.152
878.61
871.327
863.143
11463.3
1806.7
738.327
496.039
409.757
372.403
354.012
343.628
338.087
335.712
335.25
337.027
340.537
345.362
351.064
357.443
364.313
371.513
379.013
386.842
394.663
402.37
410.08
417.739
425.403
433.089
440.811
448.58
456.319
463.954
471.562
479.253
487.118
495.211
503.628
512.474
521.86
531.909
542.745
554.496
567.306
581.22
596.23
612.204
629.031
646.845
665.677
685.551
706.386
727.979
750.075
772.712
795.77
818.982
842.157
865.143
887.791
910.018
931.737
952.883
973.398
993.259
1012.45
1030.95
1048.76
1065.86
1082.24
1097.91
1112.83
1127
1140.41
1153.07
1164.8
1175.78
1186.14
1195.92
1205.23
1213.88
1221.85
1228.92
1235.56
1242.24
1249.15
1255.98
1262.59
1268.94
1275
1280.78
1286.25
1291.43
1296.33
1300.97
1305.35
1309.47
1313.33
1316.93
1320.26
1323.35
1326.2
1328.83
1331.22
1333.37
1335.27
1336.91
1338.31
1339.46
1340.36
1341.03
1341.46
1341.64
1341.58
1341.29
1340.69
1339.85
1338.76
1337.43
1335.84
1334.01
1331.91
1329.55
1326.93
1324.04
1320.89
1317.48
1313.81
1309.89
1305.72
1301.3
1296.64
1291.74
1286.6
1281.23
1275.63
1269.81
1263.77
1257.53
1251.08
1244.45
1237.64
1230.65
1223.49
1216.18
1208.71
1201.1
1193.34
1185.45
1177.43
1169.29
1161.03
1152.66
1144.18
1135.61
1126.96
1118.23
1109.43
1100.55
1091.62
1082.62
1073.58
1064.49
1055.37
1046.22
1037.09
1027.97
1018.85
1009.74
1000.65
991.585
982.553
973.566
964.634
955.785
947.026
938.368
929.818
921.389
913.088
904.916
897.045
888.276
11463.3
1794
739.819
498.715
413.127
377.724
359.912
350.185
345.991
344.542
345.098
348.102
352.768
358.696
365.869
374.455
383.684
393.368
404.008
415.754
428.159
440.853
454.185
468.16
482.762
497.933
513.657
529.86
546.547
563.732
581.458
599.753
618.602
637.965
657.895
678.463
699.786
722.032
745.319
769.592
794.726
820.603
847.044
873.85
900.892
928.164
955.676
983.679
1012.07
1040.06
1067.2
1093.06
1117.58
1140.78
1162.65
1183.15
1202.29
1220.04
1236.47
1251.64
1265.64
1278.55
1290.51
1301.59
1311.84
1321.35
1330.16
1338.33
1345.9
1352.94
1359.58
1366.02
1372.28
1378.33
1384.04
1389.37
1394.29
1398.63
1402.53
1406.25
1410.3
1414.44
1418.04
1421.08
1423.68
1425.94
1427.94
1429.71
1431.29
1432.69
1433.9
1434.95
1435.81
1436.51
1437.04
1437.41
1437.63
1437.69
1437.62
1437.44
1437.09
1436.57
1435.88
1435.03
1434.01
1432.82
1431.47
1429.95
1428.26
1426.4
1424.35
1422.12
1419.69
1417.07
1414.25
1411.25
1408.05