/*--------------------------------*- C++ -*----------------------------------*\
  =========                 |
  \\      /  F ield         | OpenFOAM: The Open Source CFD Toolbox
   \\    /   O peration     | Website:  https://openfoam.org
    \\  /    A nd           | Version:  8
     \\/     M anipulation  |
\*---------------------------------------------------------------------------*/
FoamFile
{
    version     2.0;
    format      ascii;
    class       volVectorField;
    location    "600";
    object      U;
}
// * * * * * * * * * * * * * * * * * * * * * * * * * * * * * * * * * * * * * //

dimensions      [0 1 -1 0 0 0 0];

internalField   nonuniform List<vector> 
12225
(
(9.75048 0.0464092 0)
(9.29291 0.0951855 0)
(8.85675 0.114494 0)
(8.43114 0.106893 0)
(8.07112 0.0808339 0)
(7.77005 0.0712645 0)
(7.50756 0.0648107 0)
(7.28836 0.057984 0)
(7.11807 0.0486322 0)
(6.97985 0.0264182 0)
(6.87065 0.00938432 0)
(6.79075 0.00826651 0)
(6.72104 0.0112657 0)
(6.66129 0.00637246 0)
(6.60378 0.00805314 0)
(6.55922 0.010601 0)
(6.52141 -0.000468053 0)
(6.51209 -0.00697584 0)
(10.1041 0.0604676 0)
(10.2652 0.093276 0)
(10.3524 0.0910816 0)
(10.3602 0.0873607 0)
(10.3391 0.0852781 0)
(10.2964 0.0807867 0)
(10.2239 0.0743248 0)
(10.1415 0.066308 0)
(10.0344 0.0602407 0)
(9.93258 0.0569309 0)
(9.83985 0.0516421 0)
(9.74717 0.0452683 0)
(9.65398 0.0407919 0)
(9.56685 0.0383568 0)
(9.49251 0.0349571 0)
(9.41555 0.0310186 0)
(9.34566 0.0258864 0)
(9.28443 0.0181335 0)
(10.0112 0.0413594 0)
(10.0714 0.0646223 0)
(10.1223 0.0700857 0)
(10.1657 0.0757117 0)
(10.2015 0.0783331 0)
(10.2322 0.0802062 0)
(10.2578 0.0808788 0)
(10.277 0.0799163 0)
(10.2877 0.0765341 0)
(10.2903 0.07094 0)
(10.2857 0.0662863 0)
(10.2754 0.063739 0)
(10.2623 0.0620315 0)
(10.247 0.0594579 0)
(10.2314 0.0570712 0)
(10.2146 0.0541236 0)
(10.1971 0.0482637 0)
(10.1768 0.0412751 0)
(10.006 0.0298574 0)
(10.0373 0.0563164 0)
(10.068 0.0652993 0)
(10.0921 0.0707992 0)
(10.1113 0.072357 0)
(10.1288 0.0725632 0)
(10.1458 0.0715879 0)
(10.1622 0.0697731 0)
(10.1773 0.0669313 0)
(10.1897 0.0626131 0)
(10.1989 0.0590038 0)
(10.2065 0.0571944 0)
(10.2136 0.0560374 0)
(10.2202 0.0541984 0)
(10.226 0.052342 0)
(10.2315 0.049718 0)
(10.2358 0.0450278 0)
(10.2379 0.0400464 0)
(10.0042 0.0236503 0)
(10.0261 0.0507407 0)
(10.0512 0.0603261 0)
(10.0702 0.0650389 0)
(10.0852 0.0669232 0)
(10.0987 0.067483 0)
(10.1114 0.0669499 0)
(10.1233 0.0656061 0)
(10.1344 0.0632852 0)
(10.1438 0.0599113 0)
(10.1516 0.0568854 0)
(10.1586 0.0549301 0)
(10.1655 0.0534342 0)
(10.1725 0.0515776 0)
(10.1792 0.0495587 0)
(10.1859 0.0469531 0)
(10.1918 0.0431283 0)
(10.1963 0.0389449 0)
(10.0029 0.0190922 0)
(10.0195 0.0442845 0)
(10.0407 0.0542619 0)
(10.0577 0.0592624 0)
(10.0715 0.0619608 0)
(10.084 0.0630874 0)
(10.0955 0.0628383 0)
(10.1061 0.061617 0)
(10.1156 0.0594574 0)
(10.1238 0.0565749 0)
(10.1308 0.0538706 0)
(10.1372 0.0517928 0)
(10.1435 0.0500388 0)
(10.1497 0.0481305 0)
(10.1559 0.0460069 0)
(10.1618 0.043394 0)
(10.1671 0.0400551 0)
(10.1715 0.0364637 0)
(10.002 0.0154967 0)
(10.0148 0.0379721 0)
(10.0324 0.0482898 0)
(10.0478 0.0536246 0)
(10.0608 0.0567587 0)
(10.0726 0.058233 0)
(10.0837 0.0582511 0)
(10.0937 0.0572196 0)
(10.1027 0.0553342 0)
(10.1105 0.052908 0)
(10.1173 0.0505427 0)
(10.1235 0.048529 0)
(10.1295 0.0467021 0)
(10.1354 0.0447755 0)
(10.1411 0.0426299 0)
(10.1465 0.0401084 0)
(10.1514 0.0371472 0)
(10.1556 0.034018 0)
(10.0015 0.0129084 0)
(10.0118 0.0329868 0)
(10.0268 0.0433215 0)
(10.0408 0.0487914 0)
(10.053 0.0520825 0)
(10.0642 0.0537347 0)
(10.0747 0.0539703 0)
(10.0844 0.0531672 0)
(10.0931 0.0515985 0)
(10.1007 0.0495737 0)
(10.1075 0.0475066 0)
(10.1137 0.0455773 0)
(10.1197 0.0437219 0)
(10.1253 0.0417727 0)
(10.1308 0.0396312 0)
(10.1359 0.0372105 0)
(10.1405 0.0345056 0)
(10.1446 0.0316837 0)
(10.0012 0.0109818 0)
(10.0096 0.0290442 0)
(10.0226 0.0391162 0)
(10.0354 0.0446404 0)
(10.0468 0.0479905 0)
(10.0574 0.0497664 0)
(10.0675 0.0501791 0)
(10.0768 0.0495689 0)
(10.0853 0.0482243 0)
(10.0928 0.0464467 0)
(10.0995 0.0445593 0)
(10.1057 0.042712 0)
(10.1115 0.0408807 0)
(10.1171 0.0389578 0)
(10.1223 0.0368644 0)
(10.1272 0.0345571 0)
(10.1317 0.0320439 0)
(10.1357 0.0294605 0)
(10.0009 0.00926464 0)
(10.0078 0.0251972 0)
(10.0187 0.0347062 0)
(10.0303 0.0401775 0)
(10.0409 0.0435235 0)
(10.0509 0.0453715 0)
(10.0604 0.045927 0)
(10.0693 0.0455004 0)
(10.0774 0.0443766 0)
(10.0847 0.0428462 0)
(10.0914 0.0411507 0)
(10.0975 0.0394186 0)
(10.1032 0.03765 0)
(10.1086 0.035778 0)
(10.1137 0.0337695 0)
(10.1184 0.0315893 0)
(10.1227 0.0292671 0)
(10.1265 0.0269042 0)
(10.0007 0.00770786 0)
(10.0062 0.0214417 0)
(10.0154 0.0301506 0)
(10.0256 0.0354319 0)
(10.0354 0.038697 0)
(10.0447 0.0405519 0)
(10.0536 0.0412202 0)
(10.062 0.0409613 0)
(10.0697 0.0400564 0)
(10.0768 0.0387548 0)
(10.0833 0.0372557 0)
(10.0892 0.0356579 0)
(10.0948 0.033977 0)
(10.1 0.032192 0)
(10.1049 0.0302915 0)
(10.1094 0.0282604 0)
(10.1136 0.0261292 0)
(10.1173 0.0239951 0)
(10.0006 0.0062957 0)
(10.0049 0.0178598 0)
(10.0125 0.0255503 0)
(10.0214 0.030468 0)
(10.0303 0.033558 0)
(10.0389 0.0353495 0)
(10.0471 0.0360773 0)
(10.055 0.035966 0)
(10.0624 0.0352493 0)
(10.0691 0.0341602 0)
(10.0754 0.0328418 0)
(10.0812 0.0313905 0)
(10.0866 0.0298182 0)
(10.0916 0.028159 0)
(10.0963 0.0263841 0)
(10.1007 0.0245308 0)
(10.1046 0.022596 0)
(10.1083 0.0206866 0)
(10.0004 0.00501586 0)
(10.0039 0.0144532 0)
(10.0101 0.0209591 0)
(10.0178 0.0253319 0)
(10.0258 0.0281338 0)
(10.0336 0.0297833 0)
(10.0412 0.0305082 0)
(10.0486 0.0304938 0)
(10.0555 0.0299381 0)
(10.0619 0.0290227 0)
(10.068 0.0278773 0)
(10.0735 0.0265662 0)
(10.0788 0.0251437 0)
(10.0836 0.0236161 0)
(10.0881 0.0220173 0)
(10.0923 0.0203417 0)
(10.0961 0.0186276 0)
(10.0996 0.0169334 0)
(10.0003 0.00384534 0)
(10.0031 0.0112373 0)
(10.0082 0.0164338 0)
(10.0148 0.0200785 0)
(10.0218 0.0224607 0)
(10.0289 0.023873 0)
(10.0359 0.0245143 0)
(10.0427 0.0245314 0)
(10.0492 0.0240879 0)
(10.0553 0.0233103 0)
(10.0611 0.0223166 0)
(10.0664 0.0211566 0)
(10.0715 0.0198901 0)
(10.0761 0.0185321 0)
(10.0805 0.0171179 0)
(10.0845 0.0156462 0)
(10.0882 0.0141507 0)
(10.0916 0.0126833 0)
(10.0003 0.00276544 0)
(10.0025 0.00819415 0)
(10.0068 0.0120008 0)
(10.0124 0.0147468 0)
(10.0186 0.0165659 0)
(10.025 0.0176298 0)
(10.0314 0.0180877 0)
(10.0376 0.0180638 0)
(10.0437 0.0176595 0)
(10.0495 0.0169887 0)
(10.055 0.0161163 0)
(10.0601 0.0151142 0)
(10.0649 0.0140056 0)
(10.0694 0.0128391 0)
(10.0736 0.0116124 0)
(10.0775 0.0103611 0)
(10.0811 0.00908192 0)
(10.0844 0.00784577 0)
(10.0002 0.00174356 0)
(10.0021 0.00527338 0)
(10.0057 0.00762072 0)
(10.0105 0.00932174 0)
(10.016 0.0104292 0)
(10.0218 0.0110213 0)
(10.0277 0.0111957 0)
(10.0335 0.0110338 0)
(10.0392 0.0106093 0)
(10.0447 0.00998737 0)
(10.0499 0.00922211 0)
(10.0548 0.00835545 0)
(10.0595 0.00741764 0)
(10.0638 0.00643172 0)
(10.0679 0.0054121 0)
(10.0716 0.00437397 0)
(10.0751 0.00332632 0)
(10.0784 0.00231406 0)
(10.0002 0.000737126 0)
(10.0018 0.00235989 0)
(10.005 0.00317207 0)
(10.0093 0.00370632 0)
(10.0143 0.00395929 0)
(10.0197 0.00396455 0)
(10.0252 0.00374537 0)
(10.0307 0.00336566 0)
(10.0361 0.00284168 0)
(10.0413 0.00222607 0)
(10.0463 0.00152757 0)
(10.051 0.000786027 0)
(10.0555 2.24796e-06 0)
(10.0597 -0.000796772 0)
(10.0637 -0.00161391 0)
(10.0673 -0.00242986 0)
(10.0708 -0.00324773 0)
(10.0739 -0.00402824 0)
(10.0002 -0.000257411 0)
(10.0017 -0.000549936 0)
(10.0047 -0.00127389 0)
(10.0089 -0.00195753 0)
(10.0137 -0.00260526 0)
(10.0188 -0.00325637 0)
(10.0242 -0.00390941 0)
(10.0295 -0.00457113 0)
(10.0348 -0.00522296 0)
(10.0399 -0.0058812 0)
(10.0448 -0.00652547 0)
(10.0494 -0.00717359 0)
(10.0538 -0.00780484 0)
(10.058 -0.00843668 0)
(10.0619 -0.00905037 0)
(10.0655 -0.00966068 0)
(10.0689 -0.0102515 0)
(10.072 -0.0108155 0)
(10.0002 -0.001203 0)
(10.0018 -0.00332749 0)
(10.0049 -0.00550188 0)
(10.0092 -0.0073246 0)
(10.0141 -0.00881646 0)
(10.0194 -0.0100764 0)
(10.0248 -0.011145 0)
(10.0302 -0.0120608 0)
(10.0355 -0.0128435 0)
(10.0406 -0.0135296 0)
(10.0455 -0.0141345 0)
(10.0502 -0.0146832 0)
(10.0546 -0.0151827 0)
(10.0587 -0.0156487 0)
(10.0626 -0.0160843 0)
(10.0662 -0.0164983 0)
(10.0696 -0.0168921 0)
(10.0728 -0.0172545 0)
(10.0002 -0.00212336 0)
(10.002 -0.00600334 0)
(10.0055 -0.00954141 0)
(10.0102 -0.0123766 0)
(10.0155 -0.0146095 0)
(10.021 -0.0163836 0)
(10.0266 -0.0178026 0)
(10.0322 -0.0189098 0)
(10.0377 -0.019782 0)
(10.043 -0.0204597 0)
(10.048 -0.0210091 0)
(10.0528 -0.0214442 0)
(10.0572 -0.0218126 0)
(10.0614 -0.0221142 0)
(10.0653 -0.0223835 0)
(10.069 -0.0226148 0)
(10.0724 -0.0228312 0)
(10.0755 -0.0230142 0)
(10.0003 -0.00308331 0)
(10.0024 -0.00873619 0)
(10.0065 -0.013577 0)
(10.0118 -0.0173123 0)
(10.0176 -0.0201617 0)
(10.0236 -0.0223736 0)
(10.0296 -0.0240576 0)
(10.0355 -0.0253048 0)
(10.0413 -0.0261975 0)
(10.0468 -0.0268417 0)
(10.052 -0.0272888 0)
(10.0568 -0.0276079 0)
(10.0614 -0.0278156 0)
(10.0657 -0.027965 0)
(10.0696 -0.028055 0)
(10.0733 -0.0281254 0)
(10.0767 -0.0281644 0)
(10.0799 -0.0281926 0)
(10.0003 -0.00414671 0)
(10.0031 -0.0116626 0)
(10.008 -0.0177387 0)
(10.0142 -0.0222259 0)
(10.0206 -0.0255829 0)
(10.0271 -0.0281422 0)
(10.0336 -0.0300233 0)
(10.0399 -0.0313289 0)
(10.046 -0.0322003 0)
(10.0518 -0.032759 0)
(10.0571 -0.0330884 0)
(10.0622 -0.0332521 0)
(10.0669 -0.0332993 0)
(10.0712 -0.0332691 0)
(10.0752 -0.0331934 0)
(10.079 -0.0330881 0)
(10.0825 -0.0329733 0)
(10.0857 -0.0328422 0)
(10.0005 -0.00539152 0)
(10.004 -0.0149189 0)
(10.0101 -0.0220962 0)
(10.0173 -0.0271581 0)
(10.0245 -0.030919 0)
(10.0316 -0.0337511 0)
(10.0386 -0.0357386 0)
(10.0454 -0.037032 0)
(10.0519 -0.037826 0)
(10.0579 -0.0382643 0)
(10.0635 -0.0384484 0)
(10.0687 -0.0384419 0)
(10.0736 -0.0383159 0)
(10.078 -0.0381053 0)
(10.0821 -0.0378578 0)
(10.0859 -0.0375851 0)
(10.0894 -0.0373131 0)
(10.0927 -0.0370354 0)
(10.0007 -0.0069241 0)
(10.0054 -0.0186325 0)
(10.0131 -0.0266596 0)
(10.0214 -0.0320739 0)
(10.0294 -0.0361676 0)
(10.0371 -0.0392194 0)
(10.0448 -0.0412441 0)
(10.0521 -0.0424573 0)
(10.0589 -0.0431203 0)
(10.0653 -0.0434004 0)
(10.0712 -0.043401 0)
(10.0766 -0.0432073 0)
(10.0816 -0.0428869 0)
(10.0862 -0.0425012 0)
(10.0904 -0.0420822 0)
(10.0943 -0.0416631 0)
(10.0979 -0.0412518 0)
(10.1013 -0.0408589 0)
(10.001 -0.00887501 0)
(10.0076 -0.0229163 0)
(10.0173 -0.0314488 0)
(10.0267 -0.0369828 0)
(10.0354 -0.0413069 0)
(10.0439 -0.0444998 0)
(10.0524 -0.0465131 0)
(10.0603 -0.0476413 0)
(10.0677 -0.0481805 0)
(10.0744 -0.0482997 0)
(10.0807 -0.048108 0)
(10.0864 -0.0477024 0)
(10.0917 -0.0471678 0)
(10.0965 -0.0465691 0)
(10.1009 -0.0459513 0)
(10.105 -0.0453441 0)
(10.1088 -0.0447703 0)
(10.1123 -0.0442196 0)
(10.0015 -0.011431 0)
(10.0108 -0.0276291 0)
(10.023 -0.0364477 0)
(10.0339 -0.042183 0)
(10.0436 -0.0466573 0)
(10.0532 -0.0497614 0)
(10.0628 -0.0515694 0)
(10.0717 -0.0525064 0)
(10.0799 -0.0528849 0)
(10.0875 -0.0528462 0)
(10.0944 -0.0525053 0)
(10.1009 -0.0519624 0)
(10.1067 -0.0513026 0)
(10.1121 -0.0505953 0)
(10.117 -0.0498773 0)
(10.1215 -0.0491868 0)
(10.1257 -0.0485425 0)
(10.1295 -0.0479132 0)
(10.0025 -0.0153442 0)
(10.0163 -0.0325907 0)
(10.0324 -0.0411136 0)
(10.0462 -0.0474791 0)
(10.0586 -0.05253 0)
(10.0709 -0.0556587 0)
(10.0831 -0.0571937 0)
(10.0944 -0.0577758 0)
(10.1049 -0.0577605 0)
(10.1146 -0.0573027 0)
(10.1235 -0.0565371 0)
(10.1317 -0.055592 0)
(10.1391 -0.0545719 0)
(10.1459 -0.0535443 0)
(10.1521 -0.0525633 0)
(10.1576 -0.0516754 0)
(10.1628 -0.0508952 0)
(10.1674 -0.0501478 0)
(10.0063 -0.0230766 0)
(10.0334 -0.0391461 0)
(10.0619 -0.0445745 0)
(10.0866 -0.0506666 0)
(10.1095 -0.0566417 0)
(10.1323 -0.0607827 0)
(10.1538 -0.0631993 0)
(10.1733 -0.064523 0)
(10.1905 -0.0650757 0)
(10.2055 -0.0649979 0)
(10.2184 -0.0644285 0)
(10.2293 -0.0635143 0)
(10.2381 -0.0623912 0)
(10.2452 -0.0611477 0)
(10.2506 -0.0598878 0)
(10.2545 -0.0587131 0)
(10.2573 -0.057689 0)
(10.2589 -0.0569371 0)
(10.0431 -0.036473 0)
(10.1433 -0.0633721 0)
(10.2173 -0.0679465 0)
(10.2694 -0.0699098 0)
(10.3069 -0.0719338 0)
(10.3312 -0.0726441 0)
(10.3422 -0.0720802 0)
(10.3414 -0.0707537 0)
(10.331 -0.0689737 0)
(10.3134 -0.0668938 0)
(10.2902 -0.0645992 0)
(10.2629 -0.062195 0)
(10.2325 -0.0597459 0)
(10.2 -0.0573293 0)
(10.1662 -0.0550054 0)
(10.1315 -0.0529124 0)
(10.0964 -0.0510353 0)
(10.0621 -0.0498193 0)
(9.88821 -0.0291848 0)
(9.66851 -0.0637927 0)
(9.43344 -0.0773864 0)
(9.18453 -0.0833455 0)
(8.94268 -0.0841552 0)
(8.7166 -0.0812626 0)
(8.50907 -0.0760792 0)
(8.32007 -0.070003 0)
(8.14965 -0.0635438 0)
(7.997 -0.0570462 0)
(7.86105 -0.0508214 0)
(7.74009 -0.044993 0)
(7.63289 -0.0396148 0)
(7.53782 -0.0346997 0)
(7.45371 -0.0302593 0)
(7.37903 -0.0263206 0)
(7.31238 -0.0229607 0)
(7.2527 -0.0206338 0)
(-0.00262337 0.00727698 0)
(-0.0123131 0.0122436 0)
(-0.0253963 0.0134364 0)
(-0.0393516 0.0115774 0)
(-0.0496267 0.0060237 0)
(-0.0488899 -0.00325812 0)
(-0.0336409 -0.0158593 -8.28325e-19)
(-0.00707784 -0.029072 9.37146e-19)
(0.0276248 -0.039036 0)
(0.067575 -0.043993 5.39477e-19)
(0.109946 -0.0445285 0)
(0.151364 -0.041784 0)
(0.189101 -0.0367882 0)
(0.221498 -0.0303343 -2.64292e-19)
(0.247676 -0.0229833 0)
(0.267205 -0.015094 0)
(0.279744 -0.00687427 2.28084e-19)
(0.285475 0.00173459 0)
(0.283339 0.0106241 0)
(0.273495 0.0193239 0)
(0.256571 0.0270843 -2.44017e-19)
(0.233185 0.0331307 0)
(0.204258 0.0367501 -2.88287e-19)
(0.171149 0.0373444 0)
(0.135685 0.0345091 0)
(0.100074 0.0282552 -4.6735e-19)
(0.0667615 0.0192747 0)
(0.0381164 0.00921308 7.75549e-19)
(0.0159226 0.000580814 0)
(0.000668867 -0.00466449 -1.315e-18)
(-0.00891213 -0.00713551 0)
(-0.0138774 -0.00883329 0)
(-0.0131879 -0.0109599 0)
(-0.0062723 -0.0143847 0)
(0.00765705 -0.0194677 0)
(0.0290041 -0.0252127 8.83778e-19)
(0.0564379 -0.0294962 0)
(0.0860599 -0.0299399 -1.03742e-18)
(0.113093 -0.026096 0)
(0.133276 -0.0191163 8.14311e-19)
(0.144568 -0.0113699 0)
(0.148042 -0.00503904 0)
(0.146145 -0.00151305 -7.95898e-19)
(0.142727 -0.00162647 0)
(0.140768 -0.00632745 -8.19323e-19)
(0.139281 -0.0153352 8.22608e-19)
(0.132242 -0.0245154 0)
(0.112442 -0.0240079 8.82845e-19)
(0.0742697 -0.00758736 1.02205e-18)
(0.00879642 0.0129324 0)
(-0.0848689 0.0332511 0)
(-0.187589 0.0572449 0)
(-0.302262 0.0825521 0)
(-0.426342 0.102961 0)
(-0.55868 0.105196 -2.01035e-19)
(-0.694643 0.106496 0)
(-0.824241 0.1079 1.52884e-19)
(-0.952037 0.10429 0)
(-1.07288 0.0991461 0)
(-1.18639 0.0928032 -1.17481e-19)
(-1.29186 0.0853005 0)
(-1.38914 0.0786499 1.0475e-19)
(-1.47857 0.0717733 0)
(-1.56085 0.0639781 0)
(-1.63615 0.0585066 0)
(-1.70571 0.0538605 -9.02767e-20)
(-1.77016 0.0492381 0)
(-1.82997 0.0453407 0)
(-1.88575 0.0419022 -8.38079e-20)
(-1.938 0.0389008 0)
(-1.98713 0.0362632 -8.05384e-20)
(-2.03349 0.0339246 0)
(-2.07738 0.031838 0)
(-2.11903 0.0299553 0)
(-2.15864 0.028243 7.53631e-20)
(-2.19636 0.0266685 0)
(-2.23233 0.0252104 0)
(-2.26665 0.0238469 7.21766e-20)
(-2.2994 0.022565 7.11966e-20)
(-2.33066 0.0213508 0)
(-2.36048 0.0201957 6.93246e-20)
(-2.38891 0.0190913 0)
(-2.41598 0.0180309 1.35082e-19)
(-2.44174 0.0170097 0)
(-2.46621 0.0160216 1.31638e-19)
(-2.48941 0.0150638 0)
(-2.51136 0.0141297 -1.28279e-19)
(-2.53207 0.0132166 0)
(-2.55155 0.0123182 0)
(-2.56982 0.0114278 0)
(-2.58686 0.0105395 1.21692e-19)
(-2.60267 0.00964632 0)
(-2.61725 0.00873891 -1.18414e-19)
(-2.63056 0.00780983 0)
(-2.6426 0.00685035 1.15125e-19)
(-2.65331 0.00585489 1.13476e-19)
(-2.66265 0.00482142 1.11822e-19)
(-2.67056 0.00375624 0)
(-2.677 0.00268829 0)
(-2.68188 0.0016741 0)
(-2.68512 0.000786555 0)
(-2.68681 5.38407e-05 0)
(-2.68736 -0.000593003 0)
(-2.6867 -0.00122675 0)
(-2.68486 -0.00184902 0)
(-2.68184 -0.00247097 -9.62311e-20)
(-2.67763 -0.00308772 -9.4337e-20)
(-2.67221 -0.00370515 0)
(-2.66559 -0.00431716 0)
(-2.65775 -0.0049294 0)
(-2.64869 -0.00553523 -8.6325e-20)
(-2.63839 -0.00614038 0)
(-2.62687 -0.00673804 0)
(-2.6141 -0.00733368 0)
(-2.6001 -0.00792074 0)
(-2.58487 -0.00850411 7.51499e-20)
(-2.5684 -0.0090779 0)
(-2.5507 -0.00964603 0)
(-2.53178 -0.0102037 -6.77032e-20)
(-2.51165 -0.0107536 6.50815e-20)
(-2.49031 -0.0112924 0)
(-2.46778 -0.0118213 5.96131e-20)
(-2.44408 -0.0123386 0)
(-2.41921 -0.0128441 -5.38272e-20)
(-2.39319 -0.0133377 0)
(-2.36605 -0.0138177 0)
(-2.33779 -0.0142856 0)
(-2.30845 -0.0147374 0)
(-2.27805 -0.0151702 0)
(-2.24661 -0.0155911 6.87205e-20)
(-2.21416 -0.0159912 6.15643e-20)
(-2.18074 -0.0163736 0)
(-2.14634 -0.0167317 0)
(-2.111 -0.017043 0)
(-2.07476 -0.0172887 -3.08331e-20)
(-2.03769 -0.0173884 0)
(-1.99988 -0.0172904 0)
(-1.96137 -0.0170439 0)
(-1.9221 -0.0170888 3.5805e-21)
(-1.88198 -0.0173868 -1.28429e-20)
(-1.84109 -0.01761 0)
(-1.79948 -0.0178243 0)
(-1.75719 -0.0180261 -4.24644e-20)
(-1.71426 -0.0182166 -5.29985e-20)
(-1.67071 -0.0183976 0)
(-1.62655 -0.0185694 0)
(-1.58181 -0.0187338 8.68506e-20)
(-1.53651 -0.0188928 -9.89641e-20)
(-1.49065 -0.0190482 0)
(-1.44427 -0.0192009 0)
(-1.39739 -0.0193513 -1.38186e-19)
(-1.35001 -0.0194989 0)
(-1.30216 -0.0196442 0)
(-1.25388 -0.019788 -1.8247e-19)
(-1.20517 -0.0199317 0)
(-1.15607 -0.0200777 -2.15386e-19)
(-1.10657 -0.0202281 0)
(-1.0567 -0.0203853 0)
(-1.00646 -0.0205515 0)
(-0.955858 -0.0207287 2.91488e-19)
(-0.90488 -0.0209182 0)
(-0.853527 -0.0211209 0)
(-0.801794 -0.0213368 0)
(-0.749679 -0.0215655 0)
(-0.697181 -0.0218079 0)
(-0.6443 -0.0220648 0)
(-0.591034 -0.0223389 4.73909e-19)
(-0.53738 -0.0226319 5.07543e-19)
(-0.483332 -0.0229465 0)
(-0.428883 -0.023282 0)
(-0.374031 -0.0236381 0)
(-0.318784 -0.0240068 -6.71916e-19)
(-0.26318 -0.0243799 0)
(-0.207295 -0.0247572 1.55741e-18)
(-0.151282 -0.0250946 -1.6813e-18)
(-0.0954388 -0.0252724 -1.81914e-18)
(-0.0401345 -0.0251236 1.97307e-18)
(0.0117777 -0.0238555 -2.04822e-18)
(0.069165 -0.0215824 2.00867e-18)
(0.0865258 -0.0106866 0)
(-0.000138256 0.019551 0)
(-0.00578125 0.0343723 0)
(-0.0117968 0.0355973 2.20564e-18)
(-0.0122397 0.0265032 0)
(0.0013686 0.00529453 -2.28307e-18)
(0.0301967 -0.0304889 -1.4566e-18)
(0.0683962 -0.0707762 -4.61275e-19)
(0.112126 -0.104083 -3.29531e-19)
(0.157454 -0.124785 0)
(0.201026 -0.13239 -2.1533e-19)
(0.240667 -0.129381 0)
(0.27541 -0.119031 0)
(0.304911 -0.104163 3.20241e-19)
(0.329173 -0.0868299 1.52477e-19)
(0.348406 -0.0683747 -2.97108e-19)
(0.362917 -0.0495685 -2.93565e-19)
(0.373078 -0.0308032 -1.46756e-19)
(0.379069 -0.0122267 0)
(0.381834 0.0061626 0)
(0.381308 0.024209 0)
(0.377121 0.0415566 -1.55052e-19)
(0.368787 0.0576715 0)
(0.355761 0.0718162 4.95947e-19)
(0.337566 0.0830246 0)
(0.313987 0.0901951 0)
(0.285233 0.0922624 2.0046e-19)
(0.252153 0.088514 0)
(0.216327 0.0790048 -2.53201e-19)
(0.180027 0.0647645 -5.91903e-19)
(0.146113 0.0475467 3.53422e-19)
(0.117623 0.0289543 0)
(0.0977326 0.00983639 0)
(0.0878799 -0.00997919 0)
(0.0896576 -0.0296797 -1.05594e-18)
(0.101602 -0.0491276 -8.95213e-19)
(0.120439 -0.0661446 -3.7058e-19)
(0.140396 -0.0742997 0)
(0.155696 -0.0699697 5.35456e-19)
(0.163506 -0.0554461 0)
(0.163326 -0.0358938 -5.12155e-19)
(0.155769 -0.017662 0)
(0.141629 -0.00551553 0)
(0.120952 0.00114494 6.44926e-19)
(0.0882892 0.00696297 0)
(0.0353942 0.0186945 2.58218e-18)
(-0.050917 0.0472313 -6.8961e-19)
(-0.167693 0.0889025 0)
(-0.296545 0.132981 -2.87402e-19)
(-0.431683 0.176035 -2.11428e-19)
(-0.57331 0.212853 0)
(-0.717647 0.240821 0)
(-0.859801 0.260304 0)
(-0.997498 0.271628 0)
(-1.12691 0.275557 0)
(-1.24777 0.271983 8.65688e-20)
(-1.35658 0.26163 1.62376e-19)
(-1.45468 0.247409 -7.63801e-20)
(-1.54128 0.230435 0)
(-1.61783 0.212562 1.40701e-19)
(-1.68587 0.194387 -6.83313e-20)
(-1.74665 0.17688 0)
(-1.80106 0.160777 -6.38591e-20)
(-1.85074 0.146236 0)
(-1.89629 0.133165 0)
(-1.93849 0.121681 -1.20052e-19)
(-1.9779 0.111657 5.88695e-20)
(-2.01488 0.102892 -1.15838e-19)
(-2.04989 0.0952475 1.13969e-19)
(-2.08314 0.0885536 5.61139e-20)
(-2.11482 0.0826573 0)
(-2.14509 0.0774285 5.45292e-20)
(-2.17404 0.0727448 0)
(-2.20177 0.0685144 0)
(-2.22832 0.0646505 0)
(-2.25375 0.0610925 5.16308e-20)
(-2.27809 0.0577819 0)
(-2.30137 0.054681 1.00761e-19)
(-2.32361 0.0517516 -1.49306e-19)
(-2.34483 0.0489704 -4.91806e-20)
(-2.36504 0.0463133 0)
(-2.38425 0.043765 -4.79683e-20)
(-2.40248 0.0413105 0)
(-2.41974 0.0389384 -9.35505e-20)
(-2.43601 0.0366401 0)
(-2.45132 0.0344064 -9.11828e-20)
(-2.46566 0.0322327 1.79887e-19)
(-2.47904 0.0301114 8.88193e-20)
(-2.49145 0.0280393 0)
(-2.50289 0.0260092 0)
(-2.51336 0.024015 0)
(-2.52286 0.0220498 -8.40555e-20)
(-2.53137 0.0201073 0)
(-2.5389 0.018179 8.16315e-20)
(-2.54544 0.0162588 0)
(-2.55101 0.0143386 -2.37508e-19)
(-2.55562 0.0124133 -7.79269e-20)
(-2.55928 0.0104757 -7.66737e-20)
(-2.56203 0.00851987 0)
(-2.56393 0.00655165 0)
(-2.56506 0.00460552 0)
(-2.56551 0.00275 0)
(-2.56525 0.00103219 0)
(-2.5639 -0.000594223 -1.37754e-19)
(-2.56144 -0.00219086 -1.34995e-19)
(-2.55784 -0.00376271 0)
(-2.55309 -0.00532142 6.45964e-20)
(-2.54717 -0.00686296 6.31431e-20)
(-2.54007 -0.00839219 0)
(-2.53178 -0.00990263 1.20543e-19)
(-2.5223 -0.0113986 0)
(-2.51162 -0.0128728 -5.7335e-20)
(-2.49972 -0.0143297 0)
(-2.48662 -0.0157614 0)
(-2.4723 -0.0171725 1.04797e-19)
(-2.45676 -0.0185552 0)
(-2.44001 -0.0199136 -4.88596e-20)
(-2.42204 -0.0212404 0)
(-2.40287 -0.0225392 0)
(-2.38249 -0.0238036 -4.39444e-20)
(-2.36093 -0.0250363 -4.16839e-20)
(-2.33817 -0.0262323 0)
(-2.31425 -0.0273931 3.83466e-20)
(-2.28916 -0.0285153 0)
(-2.26294 -0.0295989 -3.44209e-20)
(-2.23558 -0.0306429 -6.42693e-20)
(-2.20712 -0.0316457 0)
(-2.17757 -0.0326079 0)
(-2.14696 -0.0335267 0)
(-2.1153 -0.034404 0)
(-2.08263 -0.0352376 -4.21101e-20)
(-2.04897 -0.0360301 -1.13857e-19)
(-2.01434 -0.0367757 0)
(-1.97878 -0.0374754 0)
(-1.94229 -0.0381242 0)
(-1.90491 -0.0387337 1.84134e-20)
(-1.86667 -0.0393208 0)
(-1.82757 -0.0399019 0)
(-1.7876 -0.0404673 -7.77051e-21)
(-1.74681 -0.0409995 6.51505e-22)
(-1.70528 -0.041459 7.37222e-21)
(-1.66301 -0.0418538 0)
(-1.62004 -0.0422035 0)
(-1.57638 -0.0425184 2.38667e-20)
(-1.53208 -0.0427985 -2.80594e-20)
(-1.48715 -0.0430479 0)
(-1.44161 -0.0432653 0)
(-1.39548 -0.0434544 -4.71074e-20)
(-1.34878 -0.0436166 1.57932e-19)
(-1.30153 -0.0437573 0)
(-1.25374 -0.0438771 0)
(-1.20543 -0.0439784 7.1925e-20)
(-1.15663 -0.0440579 0)
(-1.10734 -0.0441168 1.68375e-19)
(-1.0576 -0.0441542 -9.00812e-20)
(-1.00742 -0.0441737 0)
(-0.956824 -0.0441775 1.055e-19)
(-0.905825 -0.0441711 2.2353e-19)
(-0.854435 -0.0441577 0)
(-0.802659 -0.0441424 0)
(-0.750501 -0.0441285 -1.34729e-19)
(-0.697958 -0.0441193 0)
(-0.645027 -0.044116 2.98751e-19)
(-0.591702 -0.0441182 0)
(-0.537981 -0.0441244 0)
(-0.483862 -0.0441334 0)
(-0.429343 -0.0441461 0)
(-0.374423 -0.0441641 -1.92077e-19)
(-0.319097 -0.04419 -2.01025e-19)
(-0.263361 -0.0442255 0)
(-0.207208 -0.04427 0)
(-0.150636 -0.0443194 0)
(-0.0936497 -0.0443614 2.39029e-19)
(-0.0362849 -0.0443692 0)
(0.0214022 -0.044292 -5.10679e-19)
(0.0793055 -0.0440582 5.13551e-19)
(0.137148 -0.0435408 5.15306e-19)
(0.194832 -0.0425275 5.1388e-19)
(0.250286 -0.0405388 5.20144e-19)
(0.308499 -0.0366621 5.2227e-19)
(0.34532 -0.0248523 0)
(0.000377307 0.0220677 0)
(0.000626509 0.0384879 0)
(0.00646492 0.0310551 -2.33726e-18)
(0.0261794 -0.00186742 -1.64094e-18)
(0.0649097 -0.0597495 9.84308e-19)
(0.115239 -0.123748 6.4014e-19)
(0.167126 -0.174895 -3.64002e-22)
(0.213781 -0.204602 0)
(0.252467 -0.213398 0)
(0.283132 -0.206205 0)
(0.306936 -0.188646 0)
(0.325299 -0.16534 0)
(0.339418 -0.139449 -7.26867e-19)
(0.350145 -0.112857 0)
(0.358045 -0.0865864 2.31755e-19)
(0.363495 -0.0611191 2.31108e-19)
(0.366765 -0.0366487 0)
(0.368052 -0.0132499 0)
(0.367602 0.00909817 0)
(0.365739 0.0305553 0)
(0.362718 0.0512551 2.46071e-19)
(0.358714 0.0711326 0)
(0.353647 0.0898237 -2.63688e-19)
(0.347136 0.106597 0)
(0.338509 0.120359 0)
(0.326924 0.129727 0)
(0.311605 0.133255 -6.59617e-19)
(0.292228 0.12977 0)
(0.269315 0.118796 3.90947e-19)
(0.244422 0.100687 -8.70998e-19)
(0.220023 0.0765559 0)
(0.198961 0.047751 0)
(0.183765 0.0158698 0)
(0.174726 -0.0180739 6.45911e-19)
(0.171087 -0.0508453 5.7228e-19)
(0.166685 -0.0729847 0)
(0.154571 -0.0753924 0)
(0.133977 -0.0601069 -7.81423e-19)
(0.106074 -0.0345716 -8.00052e-19)
(0.0710178 -0.00339659 8.79314e-19)
(0.0273919 0.0293461 0)
(-0.034175 0.0602639 0)
(-0.122095 0.0969984 0)
(-0.230086 0.144727 0)
(-0.35437 0.198509 -4.19186e-19)
(-0.489854 0.253482 -3.30572e-19)
(-0.629658 0.306077 2.70107e-19)
(-0.76736 0.351198 0)
(-0.898661 0.387195 0)
(-1.01992 0.413327 0)
(-1.12901 0.428231 0)
(-1.22539 0.43225 -1.48047e-19)
(-1.30863 0.426506 0)
(-1.37951 0.412448 0)
(-1.44006 0.391495 -1.2313e-19)
(-1.49239 0.366108 -1.16275e-19)
(-1.53878 0.338664 0)
(-1.58062 0.310536 2.16888e-19)
(-1.61932 0.28323 -1.04006e-19)
(-1.65594 0.257614 1.01034e-19)
(-1.6911 0.234134 0)
(-1.72517 0.213099 0)
(-1.75836 0.194546 0)
(-1.79079 0.178203 0)
(-1.82252 0.163977 8.98116e-20)
(-1.85347 0.151634 1.76315e-19)
(-1.88363 0.140824 8.6463e-20)
(-1.913 0.13133 -8.49471e-20)
(-1.94155 0.122933 0)
(-1.96926 0.115439 1.64227e-19)
(-1.99613 0.108691 1.61598e-19)
(-2.02214 0.102552 1.59082e-19)
(-2.04728 0.0969147 -1.56664e-19)
(-2.07155 0.0916863 0)
(-2.09495 0.086797 -2.28175e-19)
(-2.11746 0.0821876 0)
(-2.13909 0.077814 7.37858e-20)
(-2.15983 0.0736391 7.288e-20)
(-2.17969 0.0696353 0)
(-2.19866 0.0657794 0)
(-2.21674 0.0620536 1.39509e-19)
(-2.23393 0.0584428 0)
(-2.25023 0.0549346 1.35556e-19)
(-2.26563 0.0515186 0)
(-2.28014 0.0481855 -1.31657e-19)
(-2.29376 0.0449282 -2.59536e-19)
(-2.30648 0.041739 0)
(-2.31831 0.0386124 0)
(-2.32924 0.0355417 0)
(-2.33926 0.0325195 -1.22012e-19)
(-2.34838 0.02954 0)
(-2.35659 0.026597 -1.1815e-19)
(-2.36388 0.0236859 0)
(-2.37026 0.0208028 0)
(-2.37573 0.0179469 2.24654e-19)
(-2.3803 0.0151214 0)
(-2.38397 0.012332 1.08407e-19)
(-2.38673 0.00958914 0)
(-2.3886 0.00690258 1.04471e-19)
(-2.38955 0.00427762 0)
(-2.38953 0.00169698 0)
(-2.3885 -0.000874091 0)
(-2.3864 -0.00344494 2.88422e-19)
(-2.38321 -0.00599778 9.39404e-20)
(-2.37893 -0.00853079 0)
(-2.37353 -0.0110421 0)
(-2.36699 -0.0135315 0)
(-2.35931 -0.0159961 0)
(-2.35048 -0.0184348 -8.28801e-20)
(-2.34048 -0.0208444 1.61546e-19)
(-2.32932 -0.0232231 7.82704e-20)
(-2.31697 -0.0255677 -1.52266e-19)
(-2.30345 -0.0278757 -1.47534e-19)
(-2.28875 -0.0301444 -7.11284e-20)
(-2.27286 -0.0323707 0)
(-2.25578 -0.0345521 -1.32943e-19)
(-2.23753 -0.0366851 0)
(-2.21809 -0.0387678 1.22869e-19)
(-2.19749 -0.0407966 5.85513e-20)
(-2.17571 -0.0427699 0)
(-2.15279 -0.0446845 -1.07207e-19)
(-2.12871 -0.046539 -5.05674e-20)
(-2.10351 -0.0483305 0)
(-2.07719 -0.0500579 -4.58058e-20)
(-2.04977 -0.0517187 1.275e-19)
(-2.02126 -0.0533122 0)
(-1.9917 -0.0548364 0)
(-1.96109 -0.0562904 0)
(-1.92946 -0.0576732 0)
(-1.89684 -0.0589859 5.6112e-20)
(-1.86326 -0.060226 4.91661e-20)
(-1.82873 -0.0613898 0)
(-1.79327 -0.0624752 0)
(-1.75691 -0.0634772 0)
(-1.71967 -0.0644001 0)
(-1.68158 -0.0652539 0)
(-1.64266 -0.0660454 0)
(-1.60292 -0.0667836 4.87714e-21)
(-1.5624 -0.0674832 -1.01479e-21)
(-1.52115 -0.0681228 0)
(-1.47918 -0.0686874 0)
(-1.43652 -0.0691862 -2.06313e-20)
(-1.39319 -0.0696268 0)
(-1.34922 -0.0700114 3.52378e-20)
(-1.30463 -0.0703438 4.1019e-20)
(-1.25943 -0.0706248 0)
(-1.21364 -0.0708587 0)
(-1.16729 -0.0710485 -6.29064e-20)
(-1.12038 -0.0712007 -1.37686e-19)
(-1.07295 -0.0713175 0)
(-1.025 -0.0714013 0)
(-0.976547 -0.071449 0)
(-0.927616 -0.0714605 -9.85244e-20)
(-0.878224 -0.0714352 1.0579e-19)
(-0.828391 -0.0713773 0)
(-0.778134 -0.0712908 2.38663e-19)
(-0.72747 -0.0711828 1.25596e-19)
(-0.676408 -0.071059 -2.68385e-19)
(-0.624955 -0.0709264 0)
(-0.573116 -0.0707899 0)
(-0.52089 -0.0706541 -3.13692e-19)
(-0.468272 -0.0705213 -1.65664e-19)
(-0.41526 -0.0703904 0)
(-0.361849 -0.0702589 0)
(-0.308037 -0.0701243 0)
(-0.253824 -0.0699874 0)
(-0.199207 -0.0698494 -4.06915e-19)
(-0.144183 -0.0697134 0)
(-0.0887439 -0.0695799 0)
(-0.0328857 -0.0694483 0)
(0.0233973 -0.0693105 0)
(0.0801018 -0.0691477 0)
(0.137206 -0.0689236 0)
(0.194655 -0.0685699 -4.88555e-19)
(0.252357 -0.0679883 0)
(0.310098 -0.0670223 0)
(0.367868 -0.0654157 -1.0185e-18)
(0.424171 -0.0626851 5.15163e-19)
(0.482866 -0.0578921 -5.26461e-19)
(0.529169 -0.0460279 5.37562e-19)
(-0.00110105 0.0220547 0)
(0.00190557 0.0255567 5.10277e-18)
(0.0233707 -0.0164716 0)
(0.0701875 -0.0974525 8.7638e-19)
(0.129838 -0.182859 0)
(0.186562 -0.245359 0)
(0.231164 -0.276176 -3.29436e-19)
(0.262236 -0.279781 0)
(0.282408 -0.265241 0)
(0.295214 -0.240701 0)
(0.303508 -0.211576 0)
(0.309111 -0.180898 0)
(0.313013 -0.150198 8.20707e-19)
(0.315677 -0.120183 4.03404e-19)
(0.317275 -0.0911679 -4.00604e-19)
(0.317854 -0.0632899 0)
(0.317433 -0.0366113 0)
(0.316029 -0.011171 0)
(0.313697 0.0130169 0)
(0.310528 0.0359829 0)
(0.306665 0.0577665 4.33071e-19)
(0.302319 0.0783753 4.44679e-19)
(0.297697 0.0977221 -4.61018e-19)
(0.292908 0.115506 4.83357e-19)
(0.287855 0.131112 0)
(0.282205 0.143541 0)
(0.275373 0.151395 5.85632e-19)
(0.266627 0.153015 0)
(0.255396 0.146882 0)
(0.241508 0.13192 7.53466e-19)
(0.22559 0.107931 8.39498e-19)
(0.208716 0.0758692 9.48442e-19)
(0.192274 0.0378752 0)
(0.175747 -0.00186317 0)
(0.152806 -0.0321293 -9.78999e-19)
(0.118108 -0.0398728 0)
(0.072541 -0.0248704 0)
(0.0173135 0.00684065 7.88371e-19)
(-0.0502023 0.049819 -7.20472e-19)
(-0.133706 0.102116 5.74793e-19)
(-0.231855 0.161563 0)
(-0.343854 0.223803 0)
(-0.466651 0.286699 6.09476e-19)
(-0.594466 0.348916 0)
(-0.721787 0.407386 4.33545e-19)
(-0.84374 0.456954 5.69584e-19)
(-0.955403 0.495085 -5.07275e-19)
(-1.0541 0.521749 3.05948e-19)
(-1.13911 0.536679 0)
(-1.21006 0.540496 0)
(-1.26813 0.534232 2.42046e-19)
(-1.31526 0.519362 1.12773e-19)
(-1.35361 0.497766 0)
(-1.38563 0.471271 0)
(-1.41362 0.441562 9.66808e-20)
(-1.43949 0.410376 1.86902e-19)
(-1.46463 0.379266 0)
(-1.48987 0.349245 -1.72164e-19)
(-1.51564 0.321085 1.67617e-19)
(-1.54211 0.295174 -1.62571e-19)
(-1.56925 0.271649 0)
(-1.59691 0.250537 0)
(-1.62489 0.231732 0)
(-1.65301 0.215001 0)
(-1.68108 0.200177 0)
(-1.70893 0.187036 -1.40226e-19)
(-1.73642 0.175324 0)
(-1.76343 0.164831 0)
(-1.7899 0.155362 0)