/*--------------------------------*- C++ -*----------------------------------*\
| =========                 |                                                 |
| \\      /  F ield         | OpenFOAM: The Open Source CFD Toolbox           |
|  \\    /   O peration     | Version:  v2012                                 |
|   \\  /    A nd           | Website:  www.openfoam.com                      |
|    \\/     M anipulation  |                                                 |
\*---------------------------------------------------------------------------*/
FoamFile
{
    version     2.0;
    format      ascii;
    class       volScalarField;
    location    "1200";
    object      nut;
}
// * * * * * * * * * * * * * * * * * * * * * * * * * * * * * * * * * * * * * //

dimensions      [0 2 -1 0 0 0 0];


internalField   nonuniform List<scalar> 
12225
(
5.33392e-06
8.14734e-06
1.00336e-05
1.11548e-05
1.16637e-05
1.18321e-05
1.18675e-05
1.17398e-05
1.15654e-05
1.13837e-05
1.12072e-05
1.10377e-05
1.08939e-05
1.07474e-05
1.06501e-05
1.05162e-05
1.04779e-05
1.03509e-05
0.000188747
5.94527e-05
4.25098e-05
3.64274e-05
3.35795e-05
3.25231e-05
3.21929e-05
3.26452e-05
3.3244e-05
3.30271e-05
3.26327e-05
3.28097e-05
3.27093e-05
3.31143e-05
3.31857e-05
3.3756e-05
3.39818e-05
3.47619e-05
0.000960898
0.00032227
0.000214058
0.000161574
0.000133768
0.000114187
0.000102516
9.27097e-05
8.62978e-05
7.92117e-05
7.4495e-05
6.9415e-05
6.61991e-05
6.26223e-05
6.0524e-05
5.79725e-05
5.66724e-05
5.48713e-05
0.000961777
0.000661186
0.000549115
0.000443265
0.000381346
0.000328461
0.000296419
0.000265207
0.000246023
0.000224051
0.000210519
0.00019444
0.000184996
0.000172975
0.000166379
0.000157225
0.000152753
0.000145398
0.000888252
0.000809133
0.000766589
0.000696056
0.0006432
0.000585252
0.000546211
0.000503524
0.000475857
0.000443828
0.000423357
0.000398318
0.000383026
0.000363148
0.000351866
0.000335839
0.000327798
0.000314381
0.000857625
0.000846452
0.000835128
0.000810745
0.000788118
0.000754783
0.000729388
0.000697259
0.000674048
0.000645663
0.000625839
0.000601276
0.000584961
0.000563892
0.000550969
0.000532846
0.000523088
0.000507285
0.000852803
0.000850667
0.000848333
0.000842251
0.000836129
0.000824726
0.000814731
0.000799652
0.000787603
0.000771295
0.000758792
0.000742506
0.00073066
0.000715212
0.000704788
0.000690531
0.000681884
0.000668827
0.000851872
0.000850667
0.000850034
0.000848
0.000846114
0.000842086
0.000837778
0.000832328
0.000826621
0.000818885
0.000812219
0.000803226
0.000796137
0.00078674
0.000779883
0.000770575
0.000764457
0.000755336
0.000851665
0.000850619
0.000850062
0.00084901
0.000848184
0.000846702
0.000845067
0.000842796
0.000840418
0.000837296
0.000833828
0.000829998
0.000826087
0.000821352
0.000817284
0.000812127
0.000808195
0.000802793
0.0008516
0.000850642
0.000849958
0.000849115
0.000848453
0.000847612
0.000846844
0.000845815
0.000844837
0.000843519
0.000842214
0.000840465
0.000838868
0.000836723
0.000834859
0.000832444
0.000830631
0.000827927
0.000851567
0.000850666
0.000849908
0.000849105
0.000848424
0.000847689
0.000847066
0.000846351
0.000845745
0.000844998
0.000844354
0.00084351
0.000842783
0.00084182
0.000841009
0.000839928
0.000839075
0.000837918
0.000851551
0.000850675
0.000849884
0.000849096
0.000848385
0.000847671
0.000847034
0.000846382
0.000845804
0.000845198
0.000844659
0.000844078
0.000843558
0.000842984
0.00084247
0.000841896
0.000841384
0.000840813
0.000851543
0.000850677
0.000849868
0.000849088
0.000848359
0.000847653
0.000846995
0.000846355
0.000845759
0.000845178
0.000844635
0.000844103
0.000843604
0.000843113
0.000842651
0.000842195
0.000841763
0.000841338
0.000851539
0.000850676
0.000849859
0.00084908
0.000848342
0.000847637
0.000846968
0.000846329
0.000845723
0.000845142
0.00084459
0.000844061
0.000843557
0.000843074
0.000842613
0.000842171
0.000841748
0.000841342
0.000851538
0.000850674
0.000849854
0.000849073
0.000848331
0.000847623
0.00084695
0.000846308
0.000845697
0.000845113
0.000844556
0.000844024
0.000843515
0.000843029
0.000842564
0.000842119
0.000841694
0.000841286
0.000851537
0.000850673
0.000849851
0.000849068
0.000848324
0.000847614
0.000846939
0.000846294
0.00084568
0.000845093
0.000844533
0.000843998
0.000843486
0.000842997
0.000842529
0.000842081
0.000841653
0.000841243
0.000851538
0.000850676
0.000849855
0.000849073
0.000848328
0.000847618
0.000846942
0.000846296
0.000845681
0.000845093
0.000844531
0.000843994
0.00084348
0.000842989
0.000842519
0.00084207
0.000841639
0.000841227
0.000851538
0.000850676
0.000849854
0.000849072
0.000848326
0.000847616
0.000846938
0.000846292
0.000845674
0.000845085
0.000844522
0.000843984
0.000843469
0.000842976
0.000842505
0.000842054
0.000841622
0.00084121
0.000851537
0.000850672
0.000849849
0.000849065
0.000848318
0.000847606
0.000846928
0.00084628
0.000845662
0.000845071
0.000844507
0.000843967
0.000843451
0.000842958
0.000842486
0.000842034
0.000841602
0.000841188
0.000851537
0.000850673
0.00084985
0.000849067
0.00084832
0.000847609
0.00084693
0.000846283
0.000845664
0.000845074
0.000844509
0.00084397
0.000843454
0.000842961
0.000842488
0.000842036
0.000841603
0.000841188
0.000851537
0.000850675
0.000849852
0.000849071
0.000848325
0.000847616
0.000846936
0.000846291
0.00084567
0.000845081
0.000844514
0.000843974
0.000843454
0.000842959
0.00084248
0.000842022
0.000841579
0.000841156
0.00085154
0.000850676
0.000849854
0.000849075
0.000848332
0.000847625
0.000846937
0.000846282
0.00084564
0.000845033
0.000844433
0.000843869
0.000843302
0.000842766
0.000842216
0.000841694
0.000841153
0.000840645
0.000851557
0.00085067
0.000849848
0.000849061
0.000848329
0.000847554
0.000846768
0.000845932
0.000845084
0.000844243
0.00084336
0.000842526
0.000841625
0.000840742
0.000839723
0.000838754
0.000837646
0.000836638
0.000851611
0.000850699
0.000849722
0.000848778
0.000847737
0.000846259
0.00084455
0.000842269
0.000840031
0.000837626
0.000835052
0.000832596
0.000830322
0.000827476
0.000824504
0.000821602
0.000818687
0.000815918
0.000851989
0.000851452
0.000847868
0.000844885
0.000839939
0.000834775
0.000827768
0.000819282
0.000810735
0.000803046
0.000793506
0.000784751
0.00077988
0.000773715
0.000766113
0.00075915
0.000751159
0.000744396
0.000857579
0.000849615
0.000830457
0.000813564
0.000796519
0.000774572
0.00075011
0.00072923
0.000708806
0.000691866
0.000674383
0.000659615
0.000644014
0.000630769
0.000616414
0.000604537
0.000591612
0.000581399
0.000890928
0.000805595
0.000738841
0.000680383
0.000627272
0.000582287
0.000540997
0.000509011
0.000479941
0.00045761
0.00043606
0.000419302
0.000402253
0.000389047
0.000375153
0.000364631
0.000353223
0.000344887
0.00101406
0.000592628
0.000461129
0.000359079
0.000303045
0.000266814
0.00023918
0.000219484
0.000202951
0.000190899
0.000179994
0.000172067
0.000164371
0.000158889
0.000153213
0.000149306
0.000145007
0.000142134
0.000666587
0.000151525
0.000108742
8.55847e-05
7.40465e-05
6.72481e-05
6.27831e-05
5.99054e-05
5.79081e-05
5.67004e-05
5.59127e-05
5.56174e-05
5.54974e-05
5.57216e-05
5.59755e-05
5.57922e-05
5.52037e-05
5.46279e-05
6.26184e-06
8.11675e-06
9.65565e-06
1.08779e-05
1.17942e-05
1.24728e-05
1.29426e-05
1.32821e-05
1.35269e-05
1.36937e-05
1.37859e-05
1.38396e-05
1.38561e-05
1.38391e-05
1.37887e-05
1.3735e-05
1.3681e-05
1.36275e-05
3.77103e-10
1.37446e-08
3.53237e-08
6.86625e-08
1.09687e-07
1.5777e-07
2.36779e-07
3.68046e-07
5.62749e-07
8.15692e-07
1.08882e-06
1.36442e-06
1.62064e-06
1.84549e-06
2.0353e-06
2.18715e-06
2.30344e-06
2.37994e-06
2.42741e-06
2.42603e-06
2.39785e-06
2.3606e-06
2.27211e-06
2.12884e-06
1.92387e-06
1.64985e-06
1.31026e-06
9.23815e-07
5.39579e-07
2.36993e-07
7.09415e-08
1.86453e-08
1.38247e-08
1.50163e-08
1.73918e-08
2.06857e-08
2.44293e-08
2.72903e-08
3.10573e-08
4.65565e-08
1.15894e-07
2.64476e-07
5.008e-07
7.05898e-07
8.40087e-07
8.40225e-07
8.01556e-07
7.24975e-07
6.32386e-07
5.57479e-07
5.50212e-07
6.42399e-07
8.46625e-07
9.12902e-07
1.08446e-06
1.41303e-06
2.72728e-06
7.50667e-06
1.30569e-05
1.79656e-05
2.21425e-05
2.5195e-05
2.66257e-05
2.78815e-05
2.90371e-05
3.01597e-05
3.12435e-05
3.22136e-05
3.31476e-05
3.40161e-05
3.48552e-05
3.56521e-05
3.64258e-05
3.71712e-05
3.78987e-05
3.86062e-05
3.92989e-05
3.99766e-05
4.06444e-05
4.12998e-05
4.19478e-05
4.25859e-05
4.32178e-05
4.38416e-05
4.44599e-05
4.50715e-05
4.56778e-05
4.6278e-05
4.68729e-05
4.74619e-05
4.80452e-05
4.86224e-05
4.91933e-05
4.97574e-05
5.03144e-05
5.08642e-05
5.14073e-05
5.19449e-05
5.24795e-05
5.30157e-05
5.35601e-05
5.41046e-05
5.46476e-05
5.51929e-05
5.57403e-05
5.62909e-05
5.68448e-05
5.74025e-05
5.79645e-05
5.85313e-05
5.91034e-05
5.96814e-05
6.02659e-05
6.08575e-05
6.14569e-05
6.2065e-05
6.26825e-05
6.33104e-05
6.39496e-05
6.46013e-05
6.52666e-05
6.59468e-05
6.66436e-05
6.73584e-05
6.80932e-05
6.88503e-05
6.96331e-05
7.04442e-05
7.1268e-05
7.21258e-05
7.21148e-05
7.18819e-05
7.16273e-05
7.13542e-05
7.1066e-05
7.07609e-05
7.04345e-05
7.00923e-05
6.97326e-05
6.93566e-05
6.89646e-05
6.8557e-05
6.81343e-05
6.76966e-05
6.72446e-05
6.67788e-05
6.63007e-05
6.58063e-05
6.53083e-05
6.47836e-05
6.42636e-05
6.37139e-05
6.31733e-05
6.26011e-05
6.20435e-05
6.14522e-05
6.08813e-05
6.02745e-05
5.96933e-05
5.90772e-05
5.84772e-05
5.78625e-05
5.72474e-05
5.66275e-05
5.60047e-05
5.53794e-05
5.47523e-05
5.41242e-05
5.34955e-05
5.28665e-05
5.22366e-05
5.16051e-05
5.09705e-05
5.03308e-05
4.96809e-05
4.90137e-05
4.83246e-05
4.76501e-05
4.71163e-05
4.52979e-05
1.84148e-09
7.07193e-09
4.50435e-08
1.3515e-07
3.88544e-07
1.35631e-06
3.15769e-06
5.82403e-06
9.28644e-06
1.27203e-05
1.64941e-05
2.0975e-05
2.46473e-05
2.76101e-05
2.98074e-05
3.11604e-05
3.16347e-05
3.15083e-05
3.07502e-05
2.86292e-05
2.58069e-05
2.1565e-05
1.72372e-05
1.33411e-05
1.01079e-05
7.43316e-06
5.37354e-06
3.80806e-06
2.57131e-06
1.65583e-06
1.00308e-06
5.87685e-07
3.60763e-07
2.38859e-07
1.7501e-07
1.42656e-07
1.40454e-07
2.28102e-07
5.77158e-07
1.15214e-06
4.45593e-06
9.59244e-06
1.66096e-05
2.13348e-05
2.33997e-05
2.23509e-05
2.07701e-05
1.66866e-05
1.28842e-05
1.15195e-05
1.21896e-05
1.21011e-05
1.1567e-05
1.24762e-05
1.54299e-05
2.0325e-05
2.75294e-05
3.76525e-05
4.72072e-05
5.84627e-05
7.09636e-05
8.46881e-05
9.9483e-05
0.000114919
0.000130888
0.000146906
0.000162833
0.00017832
0.000193277
0.000207548
0.000221119
0.000233983
0.000246021
0.000257697
0.000268596
0.000279195
0.000289365
0.000298998
0.000308396
0.000317443
0.000326269
0.000334846
0.000343231
0.000351425
0.000359454
0.000367326
0.000375056
0.000382651
0.000390118
0.000397463
0.000404689
0.000411795
0.000418778
0.000425629
0.000432333
0.000438864
0.000445183
0.000451234
0.00045693
0.000462154
0.000466755
0.000471155
0.000475463
0.000479634
0.000483691
0.000487621
0.000491426
0.000495102
0.000498647
0.00050206
0.000505337
0.000508476
0.000511477
0.000514335
0.000517051
0.000519621
0.000522045
0.00052432
0.000526447
0.000528422
0.000530247
0.000531919
0.00053344
0.00053481
0.000536031
0.000537108
0.000538049
0.000538889
0.000539626
0.00054034
0.000541137
0.000541775
0.000542277
0.000542579
0.000542782
0.000542918
0.000542875
0.000542691
0.000542378
0.000541938
0.000541372
0.000540683
0.000539872
0.000538941
0.000537887
0.000536706
0.000535381
0.000534185
0.00053249
0.000531193
0.000529246
0.000527767
0.00052561
0.000523961
0.00052162
0.00051982
0.000517334
0.000515414
0.000512842
0.00051072
0.000508218
0.000505817
0.000503347
0.000500845
0.000498311
0.000495749
0.000493167
0.000490571
0.000487965
0.000485353
0.000482729
0.000480086
0.000477407
0.000474676
0.00047182
0.000468756
0.000465333
0.000461097
0.000455091
0.000438589
2.16741e-09
5.62298e-09
6.29863e-08
3.55717e-07
1.06588e-06
2.96396e-06
6.58681e-06
1.14916e-05
1.76941e-05
2.48906e-05
3.27583e-05
4.09316e-05
4.90714e-05
5.63585e-05
6.24289e-05
6.717e-05
7.03744e-05
7.24733e-05
7.31664e-05
7.25937e-05
7.01627e-05
6.59456e-05
6.04421e-05
5.28123e-05
4.41251e-05
3.54877e-05
2.72265e-05
2.01239e-05
1.44138e-05
1.00472e-05
6.84933e-06
4.40212e-06
2.82976e-06
1.86153e-06
1.31815e-06
1.05578e-06
9.22542e-07
8.48495e-07
2.72798e-06
5.33004e-06
1.65944e-05
3.35676e-05
4.79947e-05
5.65994e-05
6.00826e-05
5.59948e-05
4.79273e-05
3.34828e-05
2.65675e-05
2.67218e-05
2.98267e-05
3.53165e-05
4.22471e-05
5.42123e-05
7.02699e-05
8.64095e-05
0.000106445
0.000129395
0.000157451
0.000189236
0.000224338
0.000261158
0.000299228
0.000336985
0.000374071
0.000409522
0.000443255
0.000474949
0.000504723
0.000532637
0.000558748
0.000583574
0.000606831
0.000629304
0.00065075
0.000671235
0.000691019
0.000710117
0.000728705
0.00074677
0.000764416
0.000781652
0.000798533
0.000815074
0.000831304
0.000847236
0.000862885
0.00087826
0.000893366
0.000908204
0.000922773
0.000937064
0.000951065
0.000964754
0.000978106
0.000991087
0.00100366
0.00101577
0.0010274
0.00103851
0.00104921
0.00105969
0.00106993
0.00107989
0.0010896
0.00109903
0.00110818
0.00111706
0.00112564
0.00113393
0.00114193
0.00114962
0.001157
0.00116408
0.00117083
0.00117727
0.00118339
0.00118918
0.00119464
0.00119978
0.00120458
0.00120905
0.0012132
0.00121702
0.00122051
0.0012237
0.00122658
0.00122919
0.00123153
0.00123365
0.00123555
0.00123711
0.00123833
0.00123912
0.00123964
0.00124009
0.00124006
0.00123973
0.0012391
0.00123817
0.00123695
0.00123544
0.00123366
0.00123159
0.00122926
0.00122666
0.00122382
0.00122086
0.00121739
0.00121405
0.00121007
0.00120629
0.00120183
0.00119766
0.00119277
0.00118825
0.00118302
0.00117821
0.00117271
0.00116759
0.00116203
0.00115652
0.00115089
0.00114518
0.0011394
0.00113355
0.00112765
0.00112171
0.00111576
0.00110979
0.00110379
0.00109775
0.00109163
0.00108539
0.0010789
0.00107199
0.00106435
0.00105504
0.00104206
0.00101261
2.13709e-09
1.31938e-08
1.87921e-07
8.59415e-07
2.51206e-06
6.81766e-06
1.38333e-05
2.33185e-05
3.49898e-05
4.79108e-05
6.10712e-05
7.38701e-05
8.53807e-05
9.5102e-05
0.000102537
0.00010829
0.000112189
0.000114202
0.000114656
0.000113685
0.000111408
0.000107301
0.000102309
9.53348e-05
8.68276e-05
7.64178e-05
6.47724e-05
5.26522e-05
4.11938e-05
3.13621e-05
2.33483e-05
1.71374e-05
1.22683e-05
8.82187e-06
6.32226e-06
4.89001e-06
4.14225e-06
4.17699e-06
1.04531e-05
2.0822e-05
4.40849e-05
6.16375e-05
7.17124e-05
7.47651e-05
6.70494e-05
5.42697e-05
5.056e-05
5.35545e-05
5.7465e-05
6.39619e-05
7.55276e-05
9.27733e-05
0.000110271
0.000135622
0.000163322
0.000197932
0.000238862
0.000285106
0.000336005
0.000389654
0.000444897
0.000500105
0.000554506
0.000606978
0.000657265
0.00070491
0.00074998
0.000792521
0.0008325
0.000870525
0.000906458
0.000941099
0.000973944
0.0010056
0.00103608
0.00106553
0.00109411
0.0011219
0.001149
0.00117545
0.00120133
0.00122666
0.00125149
0.00127584
0.00129973
0.00132319
0.00134622
0.00136882
0.00139102
0.00141279
0.00143414
0.00145507
0.00147555
0.00149557
0.00151511
0.00153416
0.0015527
0.00157072
0.00158822
0.00160524
0.00162184
0.00163808
0.00165393
0.00166938
0.00168442
0.00169904
0.00171325
0.00172702
0.00174034
0.00175323
0.00176566
0.00177762
0.00178913
0.00180016
0.00181071
0.00182078
0.00183037
0.00183947
0.00184807
0.00185619
0.00186381
0.00187094
0.00187757
0.00188373
0.0018894
0.0018946
0.00189933
0.00190363
0.00190748
0.00191089
0.00191387
0.00191634
0.00191829
0.00191967
0.00192073
0.00192142
0.00192153
0.00192118
0.00192038
0.00191913
0.00191745
0.00191534
0.0019128
0.00190986
0.00190651
0.00190277
0.00189868
0.00189424
0.00188934
0.00188424
0.0018786
0.00187282
0.00186649
0.00186008
0.00185312
0.00184615
0.00183866
0.00183123
0.00182331
0.00181547
0.00180729
0.00179903
0.00179062
0.00178207
0.00177339
0.00176461
0.00175575
0.00174683
0.00173786
0.00172886
0.00171982
0.00171071
0.00170149
0.0016921
0.00168238
0.00167213
0.00166095
0.00164763
0.0016296
0.00159501
2.85701e-09
4.17286e-08
4.32463e-07
1.82623e-06
6.39223e-06
1.58374e-05
2.98163e-05
4.74298e-05
6.68118e-05
8.60633e-05
0.000103726
0.000118567
0.000129881
0.000138641
0.000144848
0.000148686
0.000150638
0.000151022
0.00015008
0.000147973
0.000144823
0.000140376
0.000135024
0.000128472
0.000120748
0.00011119
9.99707e-05
8.72478e-05
7.3463e-05
5.98188e-05
4.76122e-05
3.73153e-05
2.89682e-05
2.23227e-05
1.82549e-05
1.4262e-05
1.44229e-05
1.86388e-05
3.51147e-05
6.06461e-05
8.43904e-05
9.52175e-05
9.05875e-05
8.43716e-05
8.16268e-05
8.22984e-05
8.65112e-05
9.49955e-05
0.000109353
0.000127604
0.000146577
0.000176144
0.000211259
0.000254529
0.000303246
0.000359509
0.000419932
0.000483993
0.000550126
0.000616952
0.000683385
0.000748452
0.000811591
0.000872274
0.000930388
0.000985845
0.0010383
0.00108844
0.00113665
0.00118251
0.00122645
0.00126874
0.00130943
0.00134878
0.0013869
0.00142392
0.00145996
0.0014951
0.00152942
0.00156296
0.0015958
0.00162796
0.00165948
0.00169038
0.00172069
0.00175042
0.00177958
0.00180819
0.00183624
0.00186374
0.00189069
0.00191709
0.00194292
0.00196818
0.00199287
0.00201698
0.00204052
0.00206349
0.00208591
0.0021078
0.00212918
0.00215006
0.00217044
0.00219028
0.0022096
0.00222838
0.0022466
0.00226426
0.00228136
0.00229788
0.00231382
0.00232917
0.00234393
0.00235808
0.00237164
0.00238458
0.0023969
0.00240862
0.00241971
0.00243018
0.00244004
0.00244929
0.00245792
0.00246594
0.00247335
0.00248018
0.00248641
0.00249207
0.00249717
0.00250164
0.00250555
0.00250886
0.00251149
0.00251346
0.00251506
0.00251608
0.00251646
0.00251626
0.0025155
0.00251419
0.00251233
0.00250994
0.00250703
0.00250362
0.0024997
0.00249529
0.00249043
0.00248511
0.0024793
0.00247309
0.00246638
0.00245931
0.00245174
0.00244385
0.0024355
0.00242689
0.00241787
0.00240865
0.00239906
0.00238932
0.0023793
0.00236909
0.00235868
0.00234809
0.00233733
0.00232642
0.00231538
0.00230425
0.00229304
0.00228175
0.00227039
0.00225894
0.00224737
0.00223559
0.00222348
0.00221081
0.00219719
0.00218148
0.00216071
0.00212609
2.43498e-09
9.71457e-08
9.84408e-07
4.73335e-06
1.61482e-05
3.50978e-05
5.88109e-05
8.48565e-05
0.000109321
0.000129681
0.000145483
0.000157496
0.000166221
0.000172024
0.000175642
0.000177492
0.000177916
0.000177141
0.000175323
0.000172571
0.000168927
0.000164207
0.000158727
0.000152385
0.000144838
0.000135868
0.000125378
0.000113334
9.98511e-05
8.5021e-05
6.90782e-05
5.48872e-05
4.35419e-05
3.4563e-05
2.91914e-05
2.83964e-05
3.48104e-05
5.47604e-05
8.26903e-05
0.00010078
0.00010861
0.000110097
0.000109384
0.000110201
0.000115072
0.000125776
0.00014345
0.000154845
0.000178367
0.000208813
0.000247331
0.000294677
0.000348758
0.000410193
0.000475902
0.000546102
0.000618267
0.000691992
0.00076594
0.000839261
0.000911252
0.000981379
0.00104937
0.00111475
0.00117752
0.00123827
0.0012965
0.00135241
0.00140626
0.00145806
0.00150805
0.00155638
0.00160319
0.00164863
0.00169281
0.00173583
0.00177779
0.00181876
0.0018588
0.00189797
0.0019363
0.00197383
0.0020106
0.00204662
0.00208193
0.00211653
0.00215045
0.00218369
0.00221625
0.00224815
0.00227939
0.00230998
0.0023399
0.00236918
0.00239779
0.00242576
0.00245309
0.00247978
0.00250587
0.00253134
0.00255621
0.00258047
0.00260411
0.00262712
0.0026495
0.00267124
0.00269233
0.00271276
0.00273252
0.00275162
0.00277003
0.00278776
0.00280481
0.00282116
0.00283682
0.00285178
0.00286604
0.00287959
0.00289244
0.00290459
0.00291604
0.00292679
0.00293685
0.00294622
0.0029549
0.00296291
0.00297024
0.00297694
0.00298298
0.00298827
0.00299293
0.00299693
0.00300016
0.00300271
0.00300481
0.00300622
0.00300696
0.00300704
0.00300651
0.00300535
0.00300359
0.00300124
0.0029983
0.00299479
0.00299073
0.00298611
0.00298098
0.00297531
0.00296912
0.00296244
0.00295524
0.00294758
0.00293941
0.00293081
0.00292174
0.0029123
0.00290245
0.00289229
0.00288177
0.00287099
0.00285991
0.00284858
0.00283701
0.0028252
0.00281317
0.00280096
0.00278858
0.00277606
0.00276343
0.0027507
0.00273787
0.00272493
0.00271186
0.00269859
0.00268499
0.00267089
0.00265591
0.00263908
0.00261773
0.00258516
5.59498e-09
2.46535e-07
2.56775e-06
1.30856e-05
3.55812e-05
6.5988e-05
9.83004e-05
0.000125752
0.000147389
0.000163539
0.000175805
0.00018404
0.000189442
0.000192745
0.000194464
0.000194967
0.000194485
0.00019312
0.00019094
0.000187996
0.000184231
0.000179506
0.000174115
0.000167815
0.000160302
0.000147694
0.000131303
0.000115696
0.000100629
8.55739e-05
7.04168e-05
5.62538e-05
4.49418e-05
4.02115e-05
4.2764e-05
5.82908e-05
8.44418e-05
0.000108166
0.000124035
0.000132258
0.000135178
0.00013715
0.000142768
0.000154908
0.000168792
0.000180163
0.000203977
0.000234603
0.000273776
0.000321057
0.000376647
0.000439707
0.000508066
0.000580828
0.000656041
0.000733345
0.000811291
0.000889375
0.000966768
0.00104294
0.00111755
0.00118982
0.00125997
0.00132865
0.00139475
0.00145872
0.00152052
0.00158027
0.0016381
0.00169409
0.00174839
0.00180112
0.00185238
0.00190229
0.00195094
0.0019984
0.00204475
0.00209005
0.00213434
0.00217766
0.00222005
0.00226154
0.00230216
0.00234193
0.00238088
0.00241901
0.00245636
0.00249292
0.00252872
0.00256377
0.00259807
0.00263163
0.00266447
0.00269657
0.00272796
0.00275863
0.00278859
0.00281784
0.00284637
0.00287421
0.00290136
0.00292782
0.00295358
0.00297864
0.00300299
0.00302663
0.00304955
0.00307174
0.0030932
0.00311393
0.00313391
0.00315316
0.00317165
0.00318941
0.00320641
0.00322267
0.00323818
0.00325295
0.00326698
0.00328025
0.00329278
0.00330456
0.00331559
0.00332589
0.00333546
0.0033443
0.00335243
0.0033599
0.0033666
0.00337253
0.00337779
0.00338235
0.00338609
0.00338918
0.00339171
0.00339353
0.00339467
0.00339516
0.003395
0.00339419
0.00339274
0.00339068
0.003388
0.00338473
0.00338086
0.00337642
0.00337142
0.00336586
0.00335975
0.0033531
0.00334592
0.00333822
0.00333
0.00332129
0.0033121
0.00330248
0.00329243
0.00328201
0.00327121
0.00326009
0.00324864
0.00323689
0.00322485
0.00321254
0.00319997
0.00318717
0.00317416
0.00316097
0.00314763
0.00313416
0.00312057
0.00310685
0.00309298
0.00307893
0.00306459
0.00304984
0.00303438
0.00301743
0.00299694
0.00296742
5.04954e-08
6.92589e-07
6.76006e-06
2.94041e-05
6.49706e-05
0.00010307
0.000135598
0.000160855
0.000179071
0.000191862
0.000199434
0.000203668
0.000205617
0.000206091
0.000205626
0.000204556
0.000203055
0.000201192
0.000198821
0.000195707
0.000191713
0.000186756
0.000180969
0.000173919
0.00015735
0.000140814
0.000125699
0.000111584
9.83937e-05
8.5956e-05
7.5061e-05
6.83599e-05
6.94329e-05
8.02778e-05
9.22467e-05
0.000119052
0.000145709
0.000156639
0.000163004
0.000167114
0.000173194
0.00018487
0.000193233
0.000204207
0.000225342
0.000254386
0.000292452
0.000338067
0.000391908
0.000453161
0.000521089
0.000593988
0.000670042
0.000748353
0.000827865
0.000908058
0.000988111
0.00106756
0.00114594
0.00122251
0.00129727
0.00137097
0.00144246
0.0015121
0.0015797
0.00164536
0.00170912
0.00177106
0.00183126
0.00188981
0.0019468
0.00200233
0.00205648
0.00210933
0.00216094
0.00221139
0.0022607
0.00230893
0.0023561
0.00240224
0.00244739
0.00249156
0.00253477
0.00257706
0.00261844
0.00265893
0.00269855
0.00273731
0.00277523
0.00281234
0.00284864
0.00288414
0.00291886
0.0029528
0.00298598
0.00301839
0.00305003
0.0030809
0.003111
0.00314036
0.00316899
0.00319689
0.00322405
0.00325046
0.00327613
0.00330105
0.0033252
0.0033486
0.00337123
0.00339309
0.00341417
0.00343449
0.00345402
0.00347278
0.00349075
0.00350795
0.00352437
0.00354001
0.00355488
0.00356896
0.00358228
0.00359483
0.00360661
0.00361763
0.00362791
0.00363743
0.00364622
0.00365435
0.00366164
0.0036682
0.00367405
0.00367919
0.00368349
0.00368718
0.00369023
0.00369257
0.00369421
0.00369517
0.00369546
0.0036951
0.00369408
0.00369243
0.00369015
0.00368726
0.00368377
0.00367969
0.00367503
0.00366979
0.00366398
0.00365762
0.00365071
0.00364325
0.00363526
0.00362676
0.00361775
0.00360828
0.00359837
0.00358804
0.00357731
0.00356622
0.00355477
0.00354299
0.00353088
0.00351846
0.00350574
0.00349276
0.00347953
0.00346608
0.00345245
0.00343865
0.0034247
0.0034106
0.00339635
0.00338194
0.00336741
0.00335258
0.00333723
0.00332074
0.00330153
0.00327558
1.90263e-07
1.7193e-06
1.58981e-05
5.17914e-05
9.56927e-05
0.000134391
0.000164314
0.000185999
0.000200397
0.000208729
0.000213149
0.000214695
0.000214347
0.00021289
0.000210867
0.000208582
0.000206121
0.000203399
0.0002002
0.000196475
0.000192074
0.000186813
0.000180489
0.000163401
0.000147084
0.000132255
0.000118055
0.000105132
9.47727e-05
8.97531e-05
9.14451e-05
9.15054e-05
0.000103088
0.000125325
0.000152236
0.000176278
0.000195435
0.000204721
0.000210946
0.000214635
0.000216866
0.000226534
0.00024438
0.000270564
0.000305531
0.000348431
0.000399163
0.000456797
0.00052125
0.00059145
0.0006661
0.000743614
0.000822829
0.000903068
0.00098367
0.00106416
0.00114404
0.00122275
0.00129982
0.001376
0.00145054
0.00152346
0.00159455
0.0016639
0.00173149
0.00179736
0.00186157
0.00192417
0.00198522
0.00204479
0.00210296
0.00215981
0.00221539
0.00226977
0.002323
0.00237512
0.00242613
0.00247605
0.00252493
0.00257275
0.00261955
0.00266532
0.00271008
0.00275386
0.00279668
0.00283856
0.00287953
0.00291965
0.00295888
0.00299723
0.00303472
0.00307135
0.00310716
0.00314214
0.00317632
0.00320969
0.00324227
0.00327407
0.00330511
0.00333538
0.00336488
0.00339363
0.0034216
0.00344881
0.00347525
0.00350091
0.00352579
0.00354989
0.00357321
0.00359575
0.0036175
0.00363845
0.00365862
0.003678
0.00369659
0.0037144
0.00373142
0.00374765
0.0037631
0.00377777
0.00379166
0.00380479
0.00381714
0.00382874
0.00383958
0.00384967
0.00385906
0.00386774
0.00387559
0.00388273
0.00388916
0.00389488
0.00389978
0.0039041
0.00390774
0.00391068
0.00391294
0.00391452
0.00391544
0.00391571
0.00391534
0.00391434
0.00391272
0.00391049
0.00390766
0.00390424
0.00390025
0.00389568
0.00389055
0.00388485
0.0038786
0.00387179
0.00386445
0.00385658
0.00384821
0.00383935
0.00383003
0.00382028
0.00381011
0.00379955
0.00378861
0.0037773
0.00376563
0.00375362
0.00374128
0.00372864
0.00371572
0.00370255
0.00368915
0.00367555
0.00366177
0.00364781
0.00363368
0.00361939
0.00360491
0.00359019
0.00357509
0.00355913
0.00354106
0.00351817
4.09157e-07
3.8052e-06
2.97158e-05
7.77165e-05
0.000125896
0.000164416
0.000191288
0.000208059
0.000218037
0.00022248
0.000222833
0.000220738
0.000217365
0.000213497
0.000209587
0.000205825
0.000202156
0.000198443
0.000194364
0.000189906
0.000184742
0.00017898
0.000167929
0.000153599
0.000141521
0.000132046
0.000126349
0.000124363
0.000116746
0.000114382
0.000121506
0.000137846
0.000158315
0.000179972
0.000200013
0.000215886
0.000225977
0.000231873
0.000237287
0.00024623
0.000261752
0.000284387
0.000315619
0.00035481
0.000401525
0.000454953
0.000514671
0.000580048
0.000650555
0.000725042
0.000802231
0.000880955
0.000960444
0.00104018
0.0011197
0.00119866
0.00127617
0.00135275
0.00142827
0.00150229
0.00157474
0.00164561
0.00171484
0.00178249
0.0018486
0.00191322
0.00197641
0.00203823
0.00209871
0.00215786
0.00221581
0.00227262
0.00232834
0.002383
0.00243667
0.00248941
0.00254132
0.00259231
0.00264224
0.00269109
0.00273887
0.00278556
0.00283119
0.00287576
0.0029193
0.00296183
0.00300337
0.00304392
0.00308356
0.00312231
0.00316021
0.00319728
0.00323352
0.00326896
0.0033036
0.00333746
0.00337054
0.00340285
0.0034344
0.00346517
0.00349517
0.0035244
0.00355285
0.00358053
0.00360743
0.00363355
0.00365889
0.00368345
0.00370722
0.00373021
0.00375241
0.00377383
0.00379446
0.0038143
0.00383336
0.00385163
0.00386913
0.00388585
0.00390179
0.00391696
0.00393137
0.00394501
0.0039579
0.00397003
0.00398142
0.00399207
0.00400205
0.00401126
0.00401972
0.00402747
0.00403453
0.00404088
0.00404649
0.00405149
0.00405581
0.00405945
0.00406242
0.00406474
0.00406641
0.00406745
0.00406787
0.00406767
0.00406686
0.00406546
0.00406348
0.00406092
0.00405779
0.0040541
0.00404986
0.00404505
0.00403969
0.00403378
0.00402733
0.00402036
0.00401287
0.0040049
0.00399646
0.00398757
0.00397825
0.00396852
0.00395839
0.00394787
0.00393697
0.00392569
0.00391405
0.00390208
0.0038898
0.00387724
0.00386441
0.00385134
0.00383806
0.00382457
0.00381089
0.00379705
0.00378303
0.00376882
0.00375434
0.00373923
0.00372249
0.00370298
6.29742e-07
7.4691e-06
4.59507e-05
0.000100955
0.000150233
0.00018723
0.000211451
0.000224959
0.00023027
0.000230177
0.000226781
0.00022157
0.00021557
0.000209438
0.000203493
0.000197884
0.000192233
0.000186651
0.000180881
0.000174782
0.000168389
0.000161319
0.000153147
0.000144405
0.000136145
0.000129787
0.000127324
0.000130297
0.000138991
0.000152653
0.000169054
0.000186679
0.000204266
0.000220278
0.000232889
0.000242069
0.000251441
0.000261757
0.000276789
0.000296878
0.000324545
0.000359595
0.000401953
0.000450765
0.000505433
0.000565382
0.000630215
0.000699392
0.000772183
0.000847522
0.000924364
0.00100188
0.00107949
0.00115683
0.00123317
0.00130841
0.00138297
0.00145607
0.00152782
0.00159811
0.00166693
0.00173427
0.00180005
0.00186443
0.00192753
0.00198941
0.00205016
0.00210988
0.00216873
0.00222696
0.00228424
0.00234052
0.00239582
0.00245017
0.00250361
0.00255617
0.0026078
0.00265849
0.00270823
0.00275696
0.0028047
0.00285143
0.00289711
0.00294177
0.0029854
0.00302805
0.00306975
0.00311054
0.00315044
0.00318947
0.00322766
0.00326503
0.00330159
0.00333735
0.00337232
0.00340652
0.00343994
0.0034726
0.00350449
0.00353562
0.00356598
0.00359558
0.00362441
0.00365246
0.00367975
0.00370626
0.003732
0.00375697
0.00378116
0.00380458
0.00382722
0.00384908
0.00387016
0.00389047
0.00391001
0.00392877
0.00394677
0.00396401
0.00398048
0.00399619
0.00401116
0.00402537
0.00403885
0.00405158
0.00406358
0.00407489
0.00408548
0.00409535
0.0041045
0.00411296
0.00412073
0.00412782
0.00413423
0.00414001
0.00414512
0.00414957
0.00415338
0.00415655
0.0041591
0.00416104
0.00416237
0.00416311
0.00416326
0.00416284
0.00416184
0.00416029
0.00415819
0.00415554
0.00415234
0.0041486
0.00414431
0.00413947
0.00413409
0.00412819
0.00412178
0.00411489
0.00410752
0.00409971
0.00409145
0.00408277
0.00407368
0.00406416
0.00405425
0.00404393
0.00403323
0.00402218
0.00401078
0.00399906
0.00398705
0.00397476
0.00396222
0.00394944
0.00393645
0.00392327
0.00390992
0.00389641
0.0038827
0.00386853
0.00385305
0.00383643
7.95468e-07
1.30156e-05
6.3285e-05
0.000124799
0.000174991
0.000209013
0.00022886
0.000237589
0.000238781
0.00023518
0.000228784
0.000220997
0.000212736
0.0002046
0.000196514
0.00018899