/*--------------------------------*- C++ -*----------------------------------*\
  =========                 |
  \\      /  F ield         | OpenFOAM: The Open Source CFD Toolbox
   \\    /   O peration     | Website:  https://openfoam.org
    \\  /    A nd           | Version:  8
     \\/     M anipulation  |
\*---------------------------------------------------------------------------*/
FoamFile
{
    version     2.0;
    format      ascii;
    class       volScalarField;
    location    "1200";
    object      omega;
}
// * * * * * * * * * * * * * * * * * * * * * * * * * * * * * * * * * * * * * //

dimensions      [0 0 -1 0 0 0 0];

internalField   nonuniform List<scalar> 
12225
(
32582.3
32582.3
32582.3
32582.3
32582.3
44204.3
42328.6
32582.3
32582.3
32582.3
32582.3
32582.3
43279.3
42287.8
50017.2
51143.8
49231.7
43320.5
369.095
6714.28
9504.36
12028.4
12640
14939.5
15670.5
16437.6
17069.3
16388
17265.3
16461.4
16870.5
16898.2
19478.1
20404.5
20721.1
19819.7
418.522
905.707
1878.34
2950.1
3757.91
4475.13
5010.56
5582.22
6019.39
6382.16
6650.37
6792.61
7044.67
7276.85
7499.81
7728.4
7842.14
7910.07
415.125
475.388
658.961
916.534
1144.36
1365
1534.26
1723.23
1868.53
2031.36
2142.5
2268.12
2352.16
2465.69
2529.93
2626.18
2666.81
2755.53
428.48
432.398
467.659
533.02
600.185
672.642
728.723
794.764
844.23
906.935
950.53
1006.99
1043
1093.39
1121.9
1165.9
1185.95
1225.93
435.76
433.263
437.388
450.555
469.582
494.507
513.537
538.481
556.705
581.976
599.936
624.696
641.163
664.335
678.18
699.261
709.688
729.398
438.563
435.968
434.211
434.937
437.927
444.445
449.338
457.344
462.951
472.14
478.7
488.72
495.653
505.743
512.173
521.769
527.154
536.413
438.909
436.715
434.342
433.133
432.255
432.752
433.657
435.507
436.899
439.824
441.914
445.833
448.563
453.004
455.853
460.416
462.986
467.702
438.976
436.821
434.576
432.822
431.086
429.92
428.929
428.424
428.001
428.075
428.266
428.874
429.496
430.824
431.705
433.391
434.353
436.315
438.989
436.812
434.656
432.74
430.838
429.197
427.58
426.259
424.94
423.949
422.963
422.334
421.679
421.39
421.062
420.99
420.854
421.034
438.994
436.795
434.667
432.704
430.783
429.034
427.297
425.751
424.201
422.851
421.498
420.357
419.208
418.262
417.319
416.547
415.746
415.158
438.999
436.784
434.665
432.68
430.764
428.981
427.245
425.638
424.068
422.619
421.203
419.904
418.637
417.475
416.348
415.313
414.308
413.392
439
436.778
434.662
432.664
430.755
428.953
427.227
425.598
424.035
422.559
421.143
419.804
418.521
417.306
416.143
415.04
413.985
412.985
439.001
436.775
434.66
432.654
430.746
428.936
427.212
425.575
424.013
422.529
421.112
419.765
418.478
417.253
416.083
414.968
413.901
412.885
439.001
436.773
434.657
432.649
430.74
428.926
427.2
425.559
423.996
422.508
421.09
419.738
418.449
417.22
416.047
414.928
413.859
412.839
439
436.772
434.655
432.645
430.734
428.918
427.191
425.547
423.982
422.492
421.072
419.718
418.427
417.196
416.021
414.899
413.828
412.806
439
436.769
434.651
432.639
430.727
428.909
427.18
425.534
423.968
422.476
421.054
419.698
418.406
417.173
415.996
414.873
413.801
412.777
439
436.769
434.651
432.638
430.726
428.907
427.178
425.531
423.965
422.471
421.05
419.693
418.4
417.166
415.989
414.865
413.793
412.767
439
436.771
434.654
432.643
430.731
428.914
427.185
425.54
423.973
422.481
421.058
419.703
418.409
417.177
415.999
414.876
413.803
412.779
439.001
436.772
434.656
432.645
430.735
428.918
427.191
425.546
423.981
422.489
421.068
419.712
418.421
417.188
416.012
414.889
413.817
412.793
439.001
436.773
434.658
432.649
430.741
428.925
427.2
425.557
423.995
422.505
421.088
419.734
418.446
417.216
416.045
414.926
413.86
412.842
439.003
436.774
434.663
432.655
430.753
428.947
427.236
425.608
424.064
422.59
421.193
419.857
418.597
417.391
416.258
415.171
414.153
413.173
439.008
436.774
434.664
432.666
430.827
429.12
427.535
426.059
424.657
423.335
422.105
420.945
419.885
418.902
418.006
417.13
416.362
415.598
439.037
436.727
434.62
432.844
431.665
430.773
430.085
429.623
429.161
428.676
428.834
428.838
428.84
429.484
429.598
429.696
429.032
429.58
438.993
436.418
435
435.7
438.899
442.277
445.573
449.549
452.845
456.728
460.824
464.358
468.15
470.817
470.743
471.814
474.665
477.129
437.348
438.403
445.254
460.891
482.346
498.45
513.792
528.312
544.237
555.964
567.978
576.761
587.77
596.609
608.037
617.157
629.115
638.105
429.208
465.755
515.681
591.954
670.287
724.511
781.05
831.441
882.091
922.308
963.902
996.199
1033.37
1061.79
1097.13
1123.08
1156.98
1180.35
458.405
722.719
1001.73
1308.45
1568.71
1793.52
2013.96
2201.61
2370.61
2508.3
2634.19
2734.73
2831.14
2903.77
2983.76
3042.11
3117.05
3169.82
1482.15
3503.42
5103.52
6406.93
7494.55
8295.07
8851.77
9206.56
9414.92
9491.06
9535.08
9522.33
9483.49
9422.05
9368.7
9313.96
9280.52
9251.63
16112.1
21022.4
23163.3
24327.4
24928.6
25031.1
24976.8
24823.4
24569.5
24293.5
24018.6
23755.2
23509.5
23282.9
23076.1
22888.3
22718.1
22566.4
11463.3
2494.65
2496.87
2499.12
2501.38
2503.67
2505.98
2508.3
2510.65
2513.02
2515.42
2517.83
2520.27
2522.73
2525.21
2527.72
2530.25
2532.8
2535.37
2537.97
2540.6
2543.25
2545.92
2548.62
2551.34
2554.09
2556.87
2559.67
2562.5
2565.35
2568.23
2571.14
2574.08
2577.04
2580.04
2583.06
2586.11
2589.19
2592.3
2595.43
2598.6
2601.8
2605.03
2608.29
2611.59
2614.91
2618.27
2621.66
2625.08
2628.54
2632.03
2635.55
2639.11
3151.95
3204.66
3223.07
3243.92
3147.18
2661.21
3247.84
3369.78
2672.76
3354.73
3373.16
3490.82
3566.85
3649.24
3728.21
3801.68
3875.54
3944.9
4013.95
4080.08
4145.38
4208.64
4270.89
4331.58
4391.21
4449.54
4506.82
4562.95
4618.05
4672.11
4725.12
4777.17
4828.17
4878.25
4927.24
4975.3
5022.25
5068.14
5112.96
5156.64
5199.15
5240.45
5280.49
5319.29
5356.81
5393.21
5428.72
5463.81
5497.6
5530.58
5562.58
5593.65
5623.76
5652.92
5681.09
5708.27
5734.47
5759.64
5783.8
5806.92
5829.02
5850.04
5870.05
5888.96
5906.84
5923.62
5939.37
5954.01
5967.61
5980.13
5991.62
6002.04
6011.45
6019.84
6027.44
6034.3
6038.77
6044.52
6045.8
6049.11
6050.38
6051.87
6052.08
6051.53
6048.98
6045.94
6041.78
6036.99
6031.37
6025.12
6018.11
6010.48
6002.18
5993.3
5983.85
5973.9
5963.46
5952.56
5941.29
5929.52
5917.49
5905.09
5892.49
5879.67
5866.77
5853.8
5840.84
5827.88
5814.96
5802.08
5789.27
5776.53
5763.93
5751.49
5739.28
5727.33
5715.69
5704.32
5693.22
5682.27
5671.26
5659.81
5647.25
5632.59
5613.25
5584.11
5466.22
11463.3
1993.28
997.627
811.542
693.887
623.729
630.846
626.751
615.674
593.117
568.934
545.345
523.672
505.749
493.552
484.84
484.313
486.446
512.819
562.526
647.56
749.575
860.071
969.701
1067.26
1142.94
1183.41
1176.62
1132.83
1051.24
925.82
770.749
642.796
560.416
495.43
460.242
456.273
464.519
486.62
518.71
548.79
593.974
679.821
812.68
1017.26
1331.65
1638.08
1849.75
1989.5
2057.32
2078
2069.64
2038.02
2027.69
1956.61
1890.86
1836.59
1796.14
1735.19
1732.16
1696.28
1658.74
1690.86
1668.77
1669.53
1665.94
1665.66
1666.96
1670.05
1674.26
1679.19
1685.03
1691.26
1698.04
1705.06
1712.38
1719.84
1727.44
1735.1
1742.81
1750.52
1758.22
1765.88
1773.47
1780.98
1788.38
1795.67
1802.82
1809.82
1816.64
1823.31
1829.77
1836.06
1842.17
1848.14
1854.04
1859.96
1866.11
1872.79
1880.48
1889.37
1897.37
1905.49
1913.23
1920.81
1928.14
1935.25
1942.13
1948.78
1955.19
1961.37
1967.32
1973.03
1978.51
1983.75
1988.75
1993.53
1998.07
2002.38
2006.46
2010.32
2013.96
2017.38
2020.59
2023.59
2026.39
2028.99
2031.41
2033.61
2035.57
2037.43
2038.91
2040.49
2041.82
2043.01
2043.75
2043.86
2043.29
2042.5
2041.53
2040.4
2039.1
2037.63
2035.99
2034.21
2032.26
2030.18
2027.97
2025.64
2023.13
2020.65
2017.83
2015.12
2012.18
2009.26
2006.2
2003.14
2000
1996.84
1993.63
1990.4
1987.15
1983.89
1980.61
1977.34
1974.07
1970.82
1967.6
1964.41
1961.28
1958.21
1955.22
1952.28
1949.46
1946.82
1944.41
1942.33
1941.13
1939.8
1948.78
11463.3
2009.53
814.917
641.422
682.073
683.301
655.699
599.981
540.159
483.976
434.316
392.239
359.188
333.282
313.355
298.035
287.385
279.202
277.171
279.511
290.229
309.002
341.542
385.847
441.161
501.969
563.22
610.216
639.995
637.493
614.587
571.854
508.891
440.442
390.653
384.974
396.703
420.849
458.965
531.962
644.52
800.437
993.973
1171.64
1319.1
1450.5
1537.03
1564.22
1561.85
1514.41
1461.25
1400.95
1344.89
1294.85
1247.33
1208.57
1178.38
1156.31
1137.34
1125.89
1114.47
1108.41
1106.51
1102.58
1102.13
1101.73
1102.49
1104.26
1106.55
1109.33
1112.46
1115.9
1119.55
1123.4
1127.38
1131.47
1135.64
1139.87
1144.14
1148.43
1152.73
1157.03
1161.32
1165.58
1169.82
1174.01
1178.16
1182.27
1186.32
1190.32
1194.27
1198.17
1202.04
1205.9
1209.76
1213.67
1217.65
1221.76
1226.03
1230.45
1234.85
1239.03
1243.15
1247.11
1250.96
1254.68
1258.26
1261.72
1265.05
1268.24
1271.3
1274.23
1277.02
1279.68
1282.2
1284.59
1286.85
1288.97
1290.96
1292.82
1294.55
1296.14
1297.62
1298.96
1300.18
1301.28
1302.25
1303.1
1303.83
1304.44
1304.93
1305.29
1305.58
1305.74
1305.75
1305.56
1305.13
1304.52
1303.8
1302.99
1302.07
1301.06
1299.95
1298.75
1297.45
1296.06
1294.59
1293.03
1291.4
1289.68
1287.91
1286.02
1284.13
1282.14
1280.12
1278.03
1275.91
1273.74
1271.53
1269.28
1267
1264.69
1262.35
1259.98
1257.6
1255.21
1252.8
1250.39
1247.98
1245.58
1243.21
1240.88
1238.61
1236.45
1234.46
1232.77
1231.54
1231.41
1232.78
1243.11
11463.3
2039.09
1013.72
976.948
905.983
776.117
658.764
551.593
467.049
404.012
356.596
319.571
290.767
268.684
251.816
238.982
229.347
222.36
217.715
216.041
217.173
220.257
228.636
242.99
264.684
293.529
328.209
363.51
394.828
418.068
423.48
416.736
394.161
396.411
436.465
527.502
592.454
649.457
721.005
823.262
957.001
1073.85
1152.43
1220.15
1272.65
1292.44
1255.79
1211.81
1166.22
1112.82
1067.77
1026.1
992.009
963.013
939.594
921.322
907.483
897.251
889.658
884.536
880.814
879.382
878.641
878.404
879.159
880.457
882.268
884.478
886.971
889.707
892.633
895.718
898.925
902.236
905.628
909.085
912.594
916.142
919.718
923.315
926.923
930.534
934.143
937.743
941.329
944.896
948.441
951.962
955.459
958.928
962.376
965.803
969.216
972.621
976.027
979.439
982.863
986.298
989.732
993.13
996.441
999.642
1002.76
1005.77
1008.69
1011.5
1014.21
1016.82
1019.32
1021.71
1024
1026.18
1028.25
1030.21
1032.06
1033.8
1035.43
1036.95
1038.36
1039.66
1040.84
1041.92
1042.89
1043.75
1044.5
1045.14
1045.68
1046.1
1046.42
1046.63
1046.74
1046.74
1046.65
1046.44
1046.11
1045.64
1045.03
1044.3
1043.48
1042.58
1041.59
1040.52
1039.36
1038.11
1036.79
1035.39
1033.91
1032.35
1030.73
1029.03
1027.28
1025.45
1023.58
1021.64
1019.66
1017.62
1015.54
1013.42
1011.25
1009.04
1006.79
1004.52
1002.21
999.877
997.522
995.146
992.754
990.35
987.94
985.528
983.131
980.767
978.457
976.242
974.182
972.382
970.999
970.559
971.551
977.868
11463.3
2315.27
1472.36
1189.07
943.797
729.47
562.902
451.254
375.129
321.867
283.824
256.605
236.871
222.028
210.616
201.832
195.222
190.426
187.229
185.753
186.087
187.401
191.345
198.172
209.066
225.021
246.198
270.182
294.314
313.24
328.782
359.394
419.647
524.779
614.058
682.634
752.598
828.532
900.746
964.293
1019.64
1067.41
1097.56
1105.54
1074.57
1028.04
990.655
949.049
912.107
878.203
850.788
827.236
808.465
793.184
781.467
772.678
766.336
761.963
759.202
758.027
757.547
757.905
758.957
760.497
762.496
764.828
767.434
770.257
773.251
776.388
779.641
782.992
786.423
789.922
793.476
797.077
800.715
804.382
808.07
811.772
815.483
819.196
822.907
826.608
830.298
833.971
837.624
841.255
844.861
848.443
851.999
855.529
859.034
862.515
865.97
869.397
872.79
876.138
879.43
882.65
885.784
888.826
891.78
894.639
897.405
900.074
902.644
905.114
907.482
909.749
911.912
913.97
915.922
917.766
919.502
921.129
922.646
924.054
925.349
926.535
927.608
928.57
929.42
930.158
930.783
931.296
931.696
931.983
932.157
932.215
932.178
932.022
931.756
931.375
930.878
930.257
929.516
928.669
927.727
926.692
925.565
924.349
923.044
921.656
920.184
918.63
916.997
915.286
913.499
911.643
909.72
907.732
905.687
903.582
901.424
899.212
896.95
894.641
892.287
889.892
887.459
884.992
882.495
879.97
877.421
874.85
872.26
869.657
867.046
864.441
861.85
859.288
856.775
854.345
852.051
849.979
848.261
847.255
847.464
850.618
11463.3
2934.24
1737.1
1211.97
835.425
589.267
445.88
357.042
301.834
266.021
241.208
222.993
209.013
198.042
189.285
182.319
176.938
173.017
170.47
169.41
169.754
171.121
174.442
179.713
187.596
199.379
215.978
237.618
266.162
308.725
365.292
459.357
570.161
659.267
727.228
789.341
841.473
881.827
916.373
949.894
967.198
969.328
940.492
909.343
876.513
842.32
812.69
784.479
761.043
740.98
724.751
711.418
701.006
692.98
687.194
683.24
680.964
680.003
679.828
680.587
682.004
683.976
686.374
689.113
692.13
695.362
698.768
702.314
705.975
709.733
713.571
717.479
721.445
725.462
729.522
733.616
737.738
741.881
746.038
750.203
754.369
758.533
762.687
766.827
770.948
775.047
779.119
783.16
787.169
791.141
795.076
798.971
802.825
806.635
810.397
814.106
817.755
821.333
824.835
828.253
831.581
834.815
837.955
840.998
843.94
846.781
849.518
852.148
854.67
857.083
859.388
861.581
863.659
865.622
867.469
869.198
870.807
872.297
873.665
874.912
876.036
877.037
877.915
878.668
879.296
879.799
880.176
880.426
880.538
880.546
880.427
880.18
879.808
879.312
878.691
877.942
877.072
876.088
874.995
873.798
872.499
871.098
869.6
868.009
866.327
864.554
862.693
860.747
858.719
856.614
854.437
852.19
849.878
847.504
845.07
842.577
840.031
837.435
834.791
832.103
829.376
826.614
823.821
821
818.154
815.284
812.395
809.492
806.58
803.672
800.777
797.908
795.084
792.335
789.703
787.26
785.11
783.504
782.788
783.822
11463.3
3442.79
1781.69
1038.9
652.959
459.192
359.576
303.64
268.107
243.323
224.701
210.09
198.28
188.481
180.341
173.706
168.514
164.753
162.519
161.93
162.781
165.328
170.1
177.475
188.319
202.999
224.898
259.502
313.908
399.147
506.687
598.743
668.334
727.824
774.624
809.761
837.925
859.836
868.962
865.646
842.801
820.215
793.574
767.929
742.674
719.132
698.813
681.01
666.365
654.228
644.547
636.973
631.37
627.459
625.246
624.368
624.281
625.216
626.887
629.19
631.989
635.191
638.709
642.479
646.451
650.583
654.845
659.213
663.67
668.202
672.798
677.451
682.151
686.892
691.668
696.47
701.292
706.128
710.969
715.809
720.642
725.462
730.263
735.039
739.786
744.499
749.173
753.802
758.384
762.916
767.392
771.813
776.173
780.471
784.701
788.86
792.944
796.948
800.865
804.686
808.407
812.026
815.538
818.942
822.234
825.413
828.476
831.419
834.241
836.938
839.505
841.944
844.255
846.436
848.486
850.403
852.186
853.833
855.344
856.717
857.951
859.047
860.003
860.818
861.491
862.023
862.413
862.651
862.74
862.714
862.538
862.22
861.761
861.163
860.426
859.553
858.546
857.412
856.156
854.782
853.291
851.688
849.972
848.138
846.195
844.151
842.008
839.771
837.442
835.028
832.533
829.962
827.319
824.608
821.83
818.989
816.09
813.138
810.135
807.086
803.995
800.869
797.71
794.523
791.309
788.072
784.816
781.545
778.268
774.993
771.731
768.494
765.301
762.174
759.15
756.285
753.662
751.448
749.814
749.262
11463.3
3586.79
1566.86
818.137
517.754
383.263
314.235
274.141
248.297
230.052
216.005
204.218
193.902
184.969
177.386
171.229
166.679
163.911
162.874
163.451
165.848
170.683
178.524
191.235
211.407
241.728
288.118
360.851
450.025
532.94
598.958
654.524
700.895
737.717
767.222
785.724
792.106
785.163
768.037
750.213
729.259
709.469
689.346
670.35
652.514
636.688
623.204
611.829
602.578
595.193
589.567
585.527
583.057
581.982
581.812
582.674
584.371
586.811
589.858
593.409
597.37
601.665
606.225
611.001
615.949
621.038
626.242
631.541
636.919
642.365
647.869
653.421
659.015
664.643
670.3
675.977
681.664
687.355
693.042
698.715
704.369
709.996
715.59
721.144
726.655
732.118
737.524
742.869
748.147
753.354
758.489
763.547
768.524
773.418
778.225
782.941
787.564
792.091
796.511
800.816
805.004
809.071
813.014
816.831
820.52
824.077
827.5
830.787
833.935
836.941
839.807
842.527
845.103
847.53
849.809
851.937
853.912
855.733
857.399
858.908
860.259
861.451
862.484
863.357
864.069
864.619
865.007
865.215
865.272
865.18
864.922
864.503
863.925
863.19
862.299
861.256
860.064
858.729
857.256
855.648
853.909
852.043
850.053
847.944
845.719
843.382
840.936
838.387
835.738
832.994
830.161
827.245
824.251
821.182
818.041
814.833
811.563
808.235
804.855
801.427
797.954
794.444
790.901
787.329
783.729
780.105
776.463
772.808
769.147
765.49
761.846
758.228
754.651
751.135
747.71
744.417
741.291
738.477
736.046
734.169
11463.3
3410.18
1284.32
662.659
443.342
347.859
296.852
265.954
244.575
228.368
215.455
204.728
195.585
187.752
181.262
176.342
173.308
172.331
173.661
177.373
184.292
195.814
213.382
241.313
284.955
344.609
413.728
478.457
536.453
586.631
629.325
664.965
695.455
716.524
724.015
720.492
707.611
693.204
676.697
660.905
645.158
630.241
615.693
602.098
589.765
579.09
570.141
562.825
557.083
552.801
549.896
548.451
548.04
548.588
550.092
552.438
555.511
559.215
563.454
568.145
573.21
578.587
584.217
590.054
596.062
602.21
608.476
614.842
621.287
627.798
634.363
640.971
647.611
654.275
660.964
667.662
674.358
681.044
687.71
694.347
700.947
707.503
714.007
720.451
726.824
733.116
739.335
745.476
751.533
757.502
763.379
769.16
774.841
780.419
785.888
791.243
796.481
801.591
806.572
811.419
816.129
820.697
825.121
829.399
833.529
837.507
841.332
844.999
848.507
851.855
855.039
858.059
860.912
863.597
866.112
868.456
870.625
872.619
874.436
876.074
877.532
878.81
879.906
880.82
881.551
882.099
882.456
882.613
882.609
882.421
882.048
881.494
880.76
879.85
878.765
877.509
876.087
874.503
872.763
870.872
868.834
866.654
864.337
861.886
859.307
856.605
853.783
850.847
847.801
844.652
841.405
838.067
834.644
831.14
827.559
823.906
820.188
816.41
812.577
808.693
804.763
800.794
796.791
792.758
788.697
784.613
780.512
776.4
772.284
768.173
764.077
760.008
755.979
752.008
748.119
744.35
740.739
737.382
734.29
731.378
11463.3
2979.92
1035.05
562.567
400.897
328.241
289.195
263.647
246.084
233.134
222.711
213.888
206.387
200.307
195.988
194.126
194.812
198.96
206.618
218.302
235.984
261.759
297.304
341.618
390.148
439.622
486.493
528.617
566.153
598.325
626.607
650.052
660.837
662.118
654.966
644.551
631.666
619.023
606.64
594.981
583.672
572.798
562.367
552.758
544.258
537.064
531.207
526.655
523.362
521.41
520.653
520.747
521.896
523.952
526.847
530.496
534.813
539.717
545.131
550.986
557.218
563.767
570.58
577.611
584.821
592.182
599.671
607.281
614.972
622.726
630.528
638.362
646.209
654.045
661.829
669.594
677.35
685.09
692.801
700.471
708.094
715.659
723.16
730.589
737.942
745.217
752.393
759.457
766.405
773.23
779.931
786.503
792.944
799.25
805.416
811.437
817.308
823.028
828.594
834
839.245
844.325
849.236
853.977
858.546
862.94
867.156
871.193
875.047
878.716
882.199
885.494
888.599
891.514
894.236
896.763
899.093
901.224
903.154
904.882
906.406
907.726
908.842
909.751
910.454
910.95
911.225
911.294
911.166
910.831
910.29
909.546
908.602
907.459
906.122
904.594
902.881
900.988
898.921
896.686
894.288
891.732
889.024
886.171
883.176
880.046
876.786
873.403
869.901
866.286
862.566
858.747
854.836
850.839
846.761
842.608
838.387
834.104
829.764
825.373
820.934
816.454
811.94
807.394
802.821
798.227
793.618
789
784.382
779.771
775.178
770.612
766.087
761.617
757.224
752.938
748.788
744.848
741.098
737.232
11463.3
2500.35
888.42
519.296
385.86
323.974
289.729
269.304
255.638
245.539
237.576
231.27
226.726
224.692
225.064
229.215
237.289
248.52
263.261
283.664
310.025
341.424
376.213
412.279
447.797
481.641
512.879
540.422
565.436
588.406
602.336
606.591
605.077
599.572
590.965
581.512
571.947
562.929
554.308
546.019
537.91
530.059
522.645
515.951
510.198
505.513
501.938
499.487
498.29
498.021
498.737
500.405
503.002
506.457
510.707
515.678
521.297
527.494
534.203
541.364
548.935
556.857
565.061
573.5
582.132
590.914
599.785
608.672
617.642
626.689
635.795
644.94
654.098
663.251
672.402
681.522
690.6
699.632
708.593
717.474
726.269
734.971
743.574
752.071
760.451
768.701
776.813
784.778
792.591
800.249
807.748
815.087
822.263
829.271
836.107
842.769
849.252
855.555
861.674
867.607
873.349
878.897
884.249
889.403
894.357
899.11
903.66
908.004
912.139
916.065
919.779
923.28
926.567
929.638
932.494
935.13
937.546
939.738
941.706
943.447
944.962
946.247
947.304
948.131
948.729
949.091
949.216
949.115
948.785
948.227
947.44
946.429
945.197
943.746
942.08
940.205
938.125
935.847
933.378
930.724
927.891
924.886
921.716
918.388
914.907
911.28
907.514
903.616
899.591
895.447
891.189
886.827
882.367
877.816
873.182
868.472
863.693
858.851
853.953
849.001
844.002
838.961
833.884
828.776
823.643
818.491
813.328
808.16
802.995
797.84
792.706
787.601
782.537
777.529
772.594
767.758
763.043
758.506
754.12
749.391
11463.3
2082.87
788.09
488.329
378.305
325.353
297.543
281.19
270.656
263.434
258.441
255.816
255.247
257.531
263.329
272.711
285.131
300.334
319.12
341.226
365.816
391.837
418.258
444.201
468.929
491.626
512.895
533.218
548.241
555.053
556.663
555.92
551.855
546.144
539.635
533.117
526.795
520.727
514.788
508.928
503.162
497.631
492.541
488.118
484.536
481.891
480.373
479.855
480.252
481.646
483.987
487.244
491.387
496.386
502.209
508.742
515.919
523.676
531.944
540.639
549.634
558.909
568.502
578.384
588.517
598.862
609.389
620.095
630.901
641.763
652.648
663.541
674.388
685.151
695.812
706.35
716.747
726.996
737.115
747.111
756.985
766.737
776.363
785.855
795.199
804.381
813.386
822.205
830.831
839.261
847.496
855.533
863.37
871.002
878.427
885.641
892.643
899.431
906.003
912.357
918.487
924.391
930.069
935.517
940.737
945.728
950.487
955.013
959.304
963.359
967.177
970.756
974.097
977.199
980.061
982.682
985.059
987.19
989.072
990.706
992.091
993.223
994.104
994.735
995.109
995.232
995.097
994.711
994.074
993.187
992.052
990.672
989.051
987.192
985.1
982.781
980.24
977.485
974.523
971.361
968.006
964.467
960.751
956.865
952.816
948.614
944.265
939.777
935.157
930.413
925.55
920.578
915.503
910.336
905.086
899.761
894.368
888.914
883.404
877.841
872.231
866.579
860.891
855.173
849.433
843.679
837.918
832.158
826.405
820.666
814.951
809.267
803.625
798.041
792.53
787.114
781.809
776.662
771.652
766.123
11463.3
1945.04
770.385
484.947
380.463
333.787
310.002
296.69
288.788
284.351
282.553
282.525
285.284
290.918
299.384
310.414
323.691
339.245
356.686
375.424
394.85
414.283
433.153
451.152
468.592
485.588
499.622
508.036
512.074
513.485
513.454
511.533
508.346
504.587
500.609
496.623
492.657
488.701
484.733
480.802
477.013
473.534
470.551
468.244
466.869
466.401
466.863
468.449
470.971
474.413
478.753
483.957
489.969
496.675
503.958
511.959
520.665
530.022
539.97
550.452
561.443
572.887
584.706
596.852
609.279
621.935
634.767
647.747
660.783
673.776
686.657
699.35
711.834
724.087
736.094
747.845
759.343
770.607
781.674
792.577
803.326
813.933
824.401
834.72
844.868
854.819
864.548
874.047
883.309
892.336
901.125
909.676
917.988
926.055
933.874
941.444
948.765
955.837
962.658
969.225
975.537
981.589
987.383
992.916
998.191
1003.21
1007.97
1012.47
1016.71
1020.68
1024.4
1027.86
1031.05
1033.99
1036.67
1039.08
1041.23
1043.12
1044.74
1046.09
1047.17
1047.98
1048.52
1048.79
1048.79
1048.52
1047.97
1047.15
1046.07
1044.72
1043.1
1041.22
1039.08
1036.69
1034.05
1031.17
1028.05
1024.71
1021.15
1017.37
1013.39
1009.22
1004.86
1000.32
995.618
990.752
985.735
980.574
975.28
969.859
964.32
958.667
952.909
947.063
941.137
935.139
929.077
922.956
916.781
910.556
904.285
897.975
891.627
885.254
878.864
872.467
866.069
859.679
853.3
846.94
840.606
834.307
828.053
821.861
815.744
809.721
803.804
798.032
792.405
786.124
11463.3
1885.9
747.04
482.652
387.917
345.677
324.833
313.712
307.739
305.096
304.537
306.421
310.943
317.757
326.572
337.065
348.968
362.013
375.833
390.018
404.143
418.086
432.008
445.621
457.294
465.424
471.086
474.883
476.868
477.636
477.727
476.913
475.527
473.847
471.993
470.037
468.012
465.967
463.983
462.209
460.883
460.135
459.933
460.441
461.795
463.961
466.864
470.29
474.619
479.921
486.198
493.423
501.564
510.603
520.553
531.328
542.896
555.178
568.099
581.595
595.61
610.07
624.883
639.985
655.344
670.87
686.42
701.865
717.114
732.106
746.766
761.031
774.858
788.225
801.125
813.559
825.559
837.193
848.567
859.789
870.861
881.806
892.651
903.372
913.923
924.258
934.318
944.106
953.626
962.873
971.847
980.545
988.965
997.103
1004.96
1012.52
1019.8
1026.8
1033.52
1039.95
1046.1
1051.95
1057.52
1062.8
1067.8
1072.52
1076.95
1081.1
1084.98
1088.57
1091.89
1094.93
1097.69
1100.17
1102.38
1104.32
1105.99
1107.37
1108.48
1109.3
1109.85
1110.11
1110.08
1109.79
1109.2
1108.33
1107.17
1105.74
1104.03
1102.03
1099.76
1097.22
1094.41
1091.33
1088
1084.42
1080.59
1076.53
1072.24
1067.73
1063.02
1058.1
1052.99
1047.69
1042.23
1036.6
1030.82
1024.9
1018.85
1012.67
1006.37
999.969
993.462
986.874
980.214
973.488
966.701
959.859
952.967
946.029
939.051
932.036
924.984
917.915
910.837
903.761
896.692
889.636
882.599
875.586
868.601
861.654
854.759
847.931
841.184
834.533
827.988
821.579
815.338
808.344
11463.3
1851.67
744.829
489.16
399.023
359.245
339.708
329.394
324.097
321.952
321.681
324.053
328.698
335.087
342.803
351.507
360.99
371.023
381.363
391.826
402.569
412.933
421.822
429.132
435.103
440.248
444.278
447.431
449.887
451.862
453.513
454.918
456.086
457.033
457.818
458.507
459.16
459.849
460.632
461.535
462.437
463.789
465.904
469.051
473.242
478.415
484.581
491.86
500.185
509.577
520.046
531.545
544.02
557.433
571.755
586.917
602.98
619.711
636.971
654.654
672.665
690.902
709.261
727.632
745.874
763.892
781.626
798.973
815.826
832.073
847.605
862.382
876.384
889.632
902.152
913.932
925.033
935.615
945.93
956.346
966.677
976.968
987.333
997.675
1007.89
1017.91
1027.68
1037.19
1046.41
1055.34
1063.96
1072.27
1080.28
1087.97
1095.34
1102.39
1109.13
1115.55
1121.67
1127.47
1132.97
1138.15
1143.02
1147.59
1151.84
1155.8
1159.47
1162.83
1165.91
1168.69
1171.19
1173.4
1175.32
1176.96
1178.32
1179.41
1180.22
1180.75
1180.99
1180.95
1180.65
1180.04
1179.15
1177.98
1176.52
1174.78
1172.76
1170.46
1167.87
1165
1161.85
1158.43
1154.73
1150.77
1146.55
1142.08
1137.37
1132.41
1127.23
1121.82
1116.2
1110.39
1104.38
1098.19
1091.83
1085.31
1078.64
1071.84
1064.9
1057.85
1050.69
1043.45
1036.14
1028.75
1021.31
1013.8
1006.23
998.618
990.958
983.259
975.527
967.765
959.972
952.173
944.379
936.594
928.824
921.074
913.349
905.655
897.992
890.373
882.815
875.332
867.937
860.644
853.458
846.403
839.552
831.883
11463.3
1829.88
744.646
497.485
408.92
370.191
351.407
341.103
335.615
333.326
332.921
334.888
338.809
344.095
350.334
357.263
364.769
372.741
380.956
388.909
396.478
403.61
410.543
417.001
423.073
428.84
434.264
439.388
444.191
448.641
452.67
456.087
459.149
462.12
465.093
468.157
471.398
474.919
478.818
483.23
488.41
494.502
501.743
510.408
520.279
531.229
543.29
556.515
570.839
586.258
602.886
620.538
639.026
658.21
677.966
698.145
718.528
739.104
759.79
780.492
801.116
821.57
841.769
861.633
881.078
900.036
918.446
936.234
953.313
969.564
984.785
999.051
1012.41
1024.95
1036.72
1047.79
1058.17
1067.89
1077.08
1085.92
1094.5
1103.09
1112.21
1121.44
1130.55
1139.46
1148.16
1156.58
1164.68
1172.46
1179.92
1187.05
1193.85
1200.31
1206.42
1212.19
1217.63
1222.74
1227.55
1232.03
1236.2
1240.04
1243.56
1246.77
1249.66
1252.27
1254.57
1256.58
1258.3
1259.75
1260.91
1261.79
1262.39
1262.72
1262.76
1262.59
1262.14
1261.41
1260.41
1259.14
1257.61
1255.81
1253.73
1251.39
1248.78
1245.91
1242.76
1239.34
1235.65
1231.69
1227.46
1222.97
1218.21
1213.2
1207.94
1202.44
1196.7
1190.74
1184.54
1178.14
1171.53
1164.73
1157.74
1150.59
1143.26
1135.79
1128.18
1120.44
1112.58
1104.61
1096.54
1088.39
1080.2
1071.94
1063.63
1055.26
1046.84
1038.37
1029.86
1021.33
1012.77
1004.2
995.648
987.104
978.574
970.06
961.566
953.098
944.662
936.263
927.903
919.597
911.365
903.219
895.169
887.227
879.4
871.699
864.242
855.94
11463.3
1817.71
747.741
502.919
415.364
377.708
359.129
348.652
343.006
340.576
340.065
341.755
345.313
350.212
356.041
362.569
369.622
377.027
384.711
392.754
400.775
408.653
416.521
424.32
432.105
439.911
447.749
455.644
463.494
471.258
479.004
486.866
494.912
503.215
511.866
520.976
530.65
541.012
552.171
564.257
577.416
591.666
606.992
623.194
640.308
658.413
677.543
697.724
718.835
740.674
762.981
785.871
809.13
832.514
855.832
878.935
901.666
923.95
945.688
966.82
987.288
1007.08
1026.18
1044.58
1062.26
1079.23
1095.48
1111.01
1125.81
1139.86
1153.17
1165.66
1177.33
1188.35
1198.81
1208.75
1218.14
1226.87
1234.93
1242.19
1249.11
1256.26
1263.58
1270.74
1277.66
1284.28
1290.58
1296.56
1302.22
1307.57
1312.6
1317.32
1321.73
1325.82
1329.59
1333.04
1336.18
1339.06
1341.65
1343.96
1345.99
1347.73
1349.18
1350.35
1351.25
1351.9
1352.3
1352.42
1352.3
1351.98
1351.38
1350.53
1349.45
1348.15
1346.61
1344.85
1342.87
1340.66
1338.21
1335.53
1332.61
1329.46
1326.07
1322.45
1318.59
1314.49
1310.15
1305.57
1300.75
1295.68
1290.37
1284.81
1279.03
1273.01
1266.76
1260.3
1253.61
1246.72
1239.62
1232.33
1224.85
1217.19
1209.36
1201.37
1193.24
1184.96
1176.55
1168.02
1159.38
1150.64
1141.8
1132.86
1123.86
1114.79
1105.66
1096.47
1087.23
1077.95
1068.64
1059.3
1049.94
1040.57
1031.24
1021.92
1012.62
1003.34
994.083
984.858
975.673
966.536
957.47
948.485
939.587
930.784
922.083
913.5
905.037
896.703
888.653
879.768
11463.3
1808.07
750.069
506.172
418.693
383.214
365.205
355.405
351.171
349.684
350.19
353.201
357.934
363.966
371.254
379.976
389.368
399.2
409.995
421.912
434.475
447.328
460.826
474.977
489.772
505.171
521.155
537.673
554.73
572.349
590.557
609.397
628.813
648.796
669.38
690.654
712.724
735.779
759.81
784.75
810.471
836.84
863.675
890.756
918.031
945.474
973.133
1001.38
1029.77
1057.65
1084.59
1110.18
1134.46
1157.4
1179.02
1199.26
1218.14
1235.6
1251.74
1266.59
1280.26
1292.86
1304.5
1315.24
1325.16
1334.34
1342.84
1350.73
1358.05
1364.93
1371.63
1378.14
1384.47
1390.57
1396.33
1401.71
1406.61
1410.97
1415.09
1419.23
1423.7
1428.17
1431.96
1435.2
1438.04
1440.55
1442.79
1444.78
1446.55
1448.09
1449.41
1450.49
1451.35
1451.98
1452.38
1452.56
1452.53
1452.37
1452
1451.42
1450.65
1449.67
1448.5
1447.13
1445.59
1443.87
1441.97
1439.89
1437.64
1435.22
1432.62
1429.85
1426.91
1423.81