/*--------------------------------*- C++ -*----------------------------------*\
  =========                 |
  \\      /  F ield         | OpenFOAM: The Open Source CFD Toolbox
   \\    /   O peration     | Website:  https://openfoam.org
    \\  /    A nd           | Version:  8
     \\/     M anipulation  |
\*---------------------------------------------------------------------------*/
FoamFile
{
    version     2.0;
    format      ascii;
    class       volScalarField;
    location    "1200";
    object      p;
}
// * * * * * * * * * * * * * * * * * * * * * * * * * * * * * * * * * * * * * //

dimensions      [0 2 -2 0 0 0 0];

internalField   nonuniform List<scalar> 
12225
(
-4.22394
-5.12344
-5.51589
-5.64265
-5.7718
-5.9168
-6.04065
-6.14395
-6.23407
-6.31526
-6.38537
-6.4521
-6.51876
-6.58449
-6.65552
-6.72731
-6.81119
-6.90749
-4.5025
-5.14837
-5.4812
-5.61034
-5.73419
-5.87901
-6.00625
-6.10919
-6.20425
-6.29054
-6.36502
-6.42731
-6.4902
-6.55603
-6.62183
-6.69767
-6.77886
-6.84671
-4.72567
-5.15138
-5.46553
-5.61789
-5.74601
-5.88655
-6.01122
-6.11349
-6.20692
-6.29139
-6.3642
-6.42662
-6.48853
-6.55193
-6.61606
-6.68564
-6.75485
-6.8087
-4.87681
-5.1808
-5.47504
-5.63371
-5.75555
-5.88515
-6.00413
-6.10474
-6.19555
-6.27781
-6.35009
-6.41383
-6.47566
-6.53798
-6.60075
-6.66506
-6.72618
-6.77503
-4.99881
-5.22985
-5.49177
-5.64782
-5.76487
-5.88697
-6.00208
-6.10124
-6.18978
-6.27014
-6.342
-6.40647
-6.46799
-6.5289
-6.58921
-6.64852
-6.70358
-6.7489
-5.11088
-5.284
-5.50846
-5.66008
-5.775
-5.89109
-6.00165
-6.09836
-6.18447
-6.2629
-6.33394
-6.39844
-6.45933
-6.51852
-6.57608
-6.63122
-6.6818
-6.72447
-5.2153
-5.34139
-5.52911
-5.67339
-5.78545
-5.89523
-6.00052
-6.09433
-6.17825
-6.25494
-6.32504
-6.38918
-6.4493
-6.50682
-6.56188
-6.61376
-6.66101
-6.70164
-5.29647
-5.39224
-5.55148
-5.68661
-5.79488
-5.89908
-5.99954
-6.09053
-6.17249
-6.24764
-6.3167
-6.38023
-6.43952
-6.49567
-6.54881
-6.59838
-6.64338
-6.68252
-5.36255
-5.43798
-5.57401
-5.69973
-5.80397
-5.90316
-5.99914
-6.08732
-6.16737
-6.24099
-6.30896
-6.37172
-6.43015
-6.48508
-6.53663
-6.58439
-6.62769
-6.66565
-5.42833
-5.48724
-5.60095
-5.7156
-5.81478
-5.90851
-5.99951
-6.08435
-6.16209
-6.23386
-6.30038
-6.36202
-6.41934
-6.47288
-6.52281
-6.56881
-6.61054
-6.64746
-5.49283
-5.53869
-5.63207
-5.73443
-5.82737
-5.91528
-6.00088
-6.08184
-6.15684
-6.2264
-6.29111
-6.35125
-6.40713
-6.45915
-6.5074
-6.55176
-6.59206
-6.628
-5.55509
-5.59076
-5.6665
-5.75601
-5.84165
-5.92343
-6.00335
-6.07994
-6.15173
-6.21872
-6.28125
-6.33953
-6.39374
-6.44408
-6.49067
-6.53346
-6.57244
-6.60747
-5.61378
-5.64173
-5.70281
-5.77976
-5.85732
-5.93272
-6.00682
-6.07866
-6.14683
-6.21089
-6.27094
-6.32708
-6.37939
-6.42797
-6.47291
-6.51422
-6.55199
-6.58614
-5.66749
-5.68962
-5.73899
-5.80443
-5.87367
-5.94259
-6.01091
-6.07784
-6.14209
-6.20298
-6.26033
-6.31415
-6.36442
-6.4112
-6.4545
-6.49442
-6.53102
-6.56437
-5.71414
-5.73201
-5.77241
-5.82806
-5.88942
-5.95207
-6.0149
-6.07704
-6.13732
-6.19494
-6.24953
-6.30096
-6.34917
-6.39413
-6.43588
-6.47447
-6.51002
-6.54259
-5.751
-5.76587
-5.7998
-5.84784
-5.90252
-5.95963
-6.01761
-6.07546
-6.13208
-6.18661
-6.23858
-6.28774
-6.33399
-6.37726
-6.41757
-6.45496
-6.48957
-6.52146
-5.7741
-5.78708
-5.81695
-5.85997
-5.90991
-5.96293
-6.01727
-6.07183
-6.12556
-6.17758
-6.22738
-6.27465
-6.31925
-6.3611
-6.40022
-6.43664
-6.47049
-6.50184
-5.77723
-5.78963
-5.81824
-5.85958
-5.9078
-5.95913
-6.01191
-6.06495
-6.11729
-6.168
-6.21662
-6.26278
-6.30641
-6.34739
-6.38578
-6.42159
-6.45496
-6.48598
-5.7601
-5.77324
-5.80341
-5.84656
-5.89619
-5.94852
-6.00196
-6.05553
-6.10812
-6.15895
-6.20747
-6.25351
-6.2969
-6.33767
-6.37579
-6.41142
-6.4446
-6.47554
-5.72789
-5.74294
-5.7772
-5.82502
-5.87853
-5.93378
-5.98964
-6.04518
-6.09933
-6.15121
-6.2005
-6.24701
-6.29075
-6.33167
-6.36991
-6.40555
-6.43876
-6.4697
-5.68375
-5.70209
-5.74316
-5.7983
-5.85744
-5.91694
-5.97641
-6.03503
-6.09152
-6.14513
-6.19564
-6.24304
-6.28738
-6.3287
-6.36717
-6.40295
-6.43625
-6.46726
-5.62948
-5.65299
-5.7042
-5.76909
-5.83494
-5.89946
-5.96343
-6.02584
-6.08517
-6.14084
-6.19285
-6.24136
-6.28641
-6.32821
-6.36693
-6.40288
-6.43621
-6.46729
-5.56593
-5.59752
-5.66302
-5.73959
-5.81246
-5.88245
-5.95156
-6.01818
-6.08054
-6.13837
-6.19201
-6.24166
-6.28749
-6.32971
-6.36867
-6.40467
-6.43804
-6.46904
-5.49327
-5.53752
-5.62239
-5.71149
-5.79077
-5.86655
-5.94141
-6.01239
-6.07769
-6.13764
-6.19286
-6.24361
-6.2901
-6.33268
-6.37175
-6.40775
-6.44103
-6.47199
-5.41094
-5.4748
-5.58515
-5.68619
-5.7703
-5.85193
-5.93291
-6.00826
-6.0764
-6.13839
-6.19512
-6.24683
-6.29382
-6.33654
-6.37552
-6.4113
-6.44431
-6.47504
-5.31845
-5.41071
-5.55233
-5.66381
-5.75138
-5.83864
-5.92536
-6.00459
-6.07532
-6.13934
-6.19762
-6.25039
-6.29796
-6.34091
-6.37983
-6.41538
-6.44812
-6.47874
-5.21571
-5.34894
-5.52107
-5.63947
-5.7318
-5.82635
-5.91877
-6.0013
-6.07418
-6.13989
-6.19942
-6.25297
-6.30093
-6.34395
-6.38263
-6.41783
-6.45022
-6.48058
-5.09371
-5.30382
-5.49649
-5.60935
-5.70638
-5.8118
-5.91241
-6.00006
-6.07677
-6.14554
-6.20731
-6.26229
-6.31103
-6.35423
-6.39258
-6.42718
-6.45915
-6.48991
-4.9097
-5.28199
-5.50599
-5.60167
-5.69385
-5.80348
-5.90729
-5.99644
-6.07455
-6.14484
-6.20796
-6.26397
-6.31335
-6.35674
-6.39472
-6.428
-6.45793
-6.48585
-4.6507
-5.20569
-5.49441
-5.60099
-5.70196
-5.82095
-5.93088
-6.02308
-6.10258
-6.17352
-6.23682
-6.29267
-6.3416
-6.38421
-6.42091
-6.45142
-6.47664
-6.49712
-7.43556
-7.43567
-7.43572
-7.4357
-7.4354
-7.43418
-7.43166
-7.4283
-7.42511
-7.42306
-7.42318
-7.42564
-7.42995
-7.43533
-7.44101
-7.44631
-7.45067
-7.45368
-7.45531
-7.4559
-7.45574
-7.45503
-7.45401
-7.45297
-7.45216
-7.45167
-7.45146
-7.45136
-7.45117
-7.45081
-7.45028
-7.4496
-7.4487
-7.44752
-7.44612
-7.44479
-7.44415
-7.44491
-7.44715
-7.45019
-7.45311
-7.4554
-7.45723
-7.45904
-7.46125
-7.46436
-7.46802
-7.47116
-7.47344
-7.47682
-7.48505
-7.50219
-7.5284
-7.56254
-7.60444
-7.65476
-7.71345
-7.77913
-7.84973
-7.92333
-7.99772
-8.07076
-8.14151
-8.20907
-8.27233
-8.33097
-8.38479
-8.43375
-8.47787
-8.51725
-8.55194
-8.58205
-8.60761
-8.62869
-8.6453
-8.65745
-8.66512
-8.66828
-8.66691
-8.66095
-8.65037
-8.63507
-8.61505
-8.59021
-8.56055
-8.52597
-8.4865
-8.44206
-8.39265
-8.33817
-8.2785
-8.21357
-8.14336
-8.06782
-7.98697
-7.90079
-7.80932
-7.71262
-7.61085
-7.50394
-7.39145
-7.27321
-7.14945
-7.02021
-6.88555
-6.74547
-6.59999
-6.44912
-6.29287
-6.1313
-5.96442
-5.79228
-5.61493
-5.43244
-5.24488
-5.05232
-4.85486
-4.65262
-4.44569
-4.23423
-4.01836
-3.79825
-3.57407
-3.34599
-3.11421
-2.87893
-2.64038
-2.39878
-2.15439
-1.90747
-1.65824
-1.40693
-1.1538
-0.899128
-0.643229
-0.386444
-0.128996
0.129226
0.388093
0.647191
0.906231
1.16496
1.42317
1.68067
1.9373
2.19288
2.44731
2.70041
2.95205
3.20208
3.45036
3.69679
3.94122
4.18356
4.42368
4.66151
4.89694
5.1299
5.36033
5.58816
5.81332
6.03575
6.25537
6.47211
6.68588
6.8966
7.10417
7.30852
7.50955
7.70716
7.90127
8.09174
8.27847
8.46134
8.64023
8.81504
8.98603
9.15307
9.3192
9.47559
-7.43678
-7.43696
-7.43733
-7.43771
-7.43769
-7.43687
-7.43493
-7.43246
-7.4307
-7.43058
-7.43242
-7.43604
-7.44093
-7.44645
-7.45197
-7.45699
-7.46114
-7.46421
-7.46602
-7.46635
-7.46532
-7.46325
-7.46058
-7.4578
-7.45532
-7.45344
-7.45218
-7.45135
-7.45071
-7.4501
-7.44952
-7.44896
-7.44834
-7.44757
-7.44661
-7.44587
-7.4461
-7.44781
-7.45076
-7.45397
-7.45627
-7.45727
-7.45742
-7.45673
-7.45541
-7.45506
-7.4581
-7.4647
-7.47119
-7.47786
-7.4882
-7.50356
-7.52565
-7.55775
-7.60191
-7.65749
-7.72205
-7.79285
-7.86738
-7.94306
-8.01771
-8.09053
-8.16003
-8.2249
-8.28522
-8.34093
-8.392
-8.43851
-8.48051
-8.51812
-8.55136
-8.58031
-8.60498
-8.62538
-8.6415
-8.65333
-8.66081
-8.6639
-8.66255
-8.6567
-8.64629
-8.63124
-8.6115
-8.58701
-8.55771
-8.52356
-8.48453
-8.44059
-8.39171
-8.3378
-8.27875
-8.21451
-8.14502
-8.07027
-7.99022
-7.90487
-7.81417
-7.71809
-7.61652
-7.50939
-7.39694
-7.2793
-7.15632
-7.02795
-6.89417
-6.75498
-6.6104
-6.46044
-6.30512
-6.14446
-5.97851
-5.80729
-5.63087
-5.44929
-5.26264
-5.07098
-4.87442
-4.67304
-4.46698
-4.25635
-4.0413
-3.82198
-3.59856
-3.37121
-3.14013
-2.90552
-2.66759
-2.42658
-2.18274
-1.93631
-1.68753
-1.43661
-1.1838
-0.929336
-0.67347
-0.416418
-0.158442
0.100028
0.358784
0.617774
0.876723
1.1354
1.39358
1.65108
1.90773
2.16337
2.41787
2.67106
2.9228
3.17295
3.42136
3.66794
3.91255
4.15507
4.3954
4.63343
4.86909
5.10228
5.33295
5.56102
5.78643
6.00911
6.229
6.44601
6.66006
6.87107
7.07895
7.28361
7.48496
7.68292
7.87738
8.06825
8.25544
8.43887
8.61843
8.79405
8.9659
9.13333
9.30151
9.45721
-7.43808
-7.43808
-7.43811
-7.43819
-7.43827
-7.4383
-7.43852
-7.43943
-7.44153
-7.44495
-7.44949
-7.45479
-7.46042
-7.46596
-7.47102
-7.4753
-7.47861
-7.48082
-7.48186
-7.48168
-7.48029
-7.47783
-7.47448
-7.47045
-7.46599
-7.46139
-7.45694
-7.45291
-7.44951
-7.44683
-7.4448
-7.4432
-7.44176
-7.4405
-7.43989
-7.44065
-7.44331
-7.44764
-7.45221
-7.45516
-7.45516
-7.45311
-7.45114
-7.45074
-7.45144
-7.45315
-7.45841
-7.46851
-7.48272
-7.50163
-7.52607
-7.55626
-7.59272
-7.63608
-7.68638
-7.74273
-7.80362
-7.86745
-7.93274
-7.99811
-8.06249
-8.12524
-8.18566
-8.24302
-8.29704
-8.34754
-8.39437
-8.43747
-8.47678
-8.51225
-8.54386
-8.57156
-8.59531
-8.61506
-8.63075
-8.64231
-8.64968
-8.65278
-8.65155
-8.6459
-8.63577
-8.62108
-8.60177
-8.57775
-8.54897
-8.51537
-8.47692
-8.4336
-8.38536
-8.33214
-8.2738
-8.21031
-8.14162
-8.06771
-7.98854
-7.90411
-7.81441
-7.7194
-7.61899
-7.5131
-7.40182
-7.28524
-7.16332
-7.03603
-6.90336
-6.7653
-6.62187
-6.47307
-6.31892
-6.15944
-5.99468
-5.82465
-5.64943
-5.46904
-5.28358
-5.0931
-4.89771
-4.69749
-4.49256
-4.28305
-4.06909
-3.85083
-3.62844
-3.40209
-3.17197
-2.93828
-2.70122
-2.46104
-2.21798
-1.97228
-1.72418
-1.47389
-1.22166
-0.967747
-0.712419
-0.455901
-0.198428
0.059648
0.318107
0.576811
0.835507
1.09396
1.35197
1.60933
1.86586
2.12143
2.37586
2.62902
2.88074
3.13089
3.37933
3.62595
3.87062
4.11323
4.35366
4.59181
4.82759
5.06092
5.29173
5.51994
5.74549
5.96831
6.18833
6.40548
6.61967
6.83082
7.03883
7.24362
7.44511
7.64319
7.83779
8.0288
8.2161
8.39961
8.5793
8.75517
8.9277
9.09571
9.26664
9.41832
-7.43922
-7.43894
-7.43857
-7.43859
-7.43978
-7.44252
-7.44664
-7.45176
-7.45753
-7.46364
-7.46981
-7.47577
-7.48131
-7.48623
-7.49037
-7.49359
-7.49579
-7.4969
-7.4969
-7.49576
-7.4935
-7.49018
-7.4859
-7.48074
-7.47481
-7.46824
-7.46122
-7.45405
-7.44709
-7.44072
-7.43519
-7.43072
-7.42755
-7.42617
-7.4273
-7.43122
-7.43686
-7.44221
-7.44577
-7.44715
-7.44693
-7.44665
-7.44787
-7.45136
-7.45762
-7.46741
-7.48159
-7.50084
-7.52528
-7.55457
-7.58824
-7.62599
-7.66762
-7.71297
-7.76185
-7.81391
-7.86856
-7.92503
-7.98251
-8.04015
-8.09721
-8.15308
-8.20723
-8.25918
-8.30859
-8.3552
-8.39881
-8.43925
-8.47641
-8.51016
-8.54043
-8.5671
-8.59008
-8.60928
-8.6246
-8.63595
-8.64323
-8.64636
-8.64523
-8.63977
-8.6299
-8.61553
-8.59658
-8.57299
-8.54467
-8.51158
-8.47367
-8.43091
-8.38326
-8.33064
-8.27296
-8.21015
-8.14217
-8.06899
-7.99059
-7.90694
-7.81802
-7.7238
-7.62424
-7.51931
-7.40904
-7.29346
-7.17254
-7.04627
-6.91464
-6.77764
-6.63528
-6.48757
-6.33452
-6.17615
-6.0125
-5.8436
-5.6695
-5.49024
-5.3059
-5.11654
-4.92225
-4.72312
-4.51926
-4.3108
-4.09787
-3.88062
-3.6592
-3.43379
-3.20457
-2.97174
-2.73552
-2.49613
-2.25381
-2.0088
-1.76134
-1.51164
-1.25996
-1.00657
-0.75173
-0.49569
-0.238686
0.0190075
0.277175
0.535609
0.794064
1.05231
1.31014
1.56736
1.82379
2.07927
2.33365
2.58676
2.83846
3.08859
3.33705
3.58369
3.82841
4.07107
4.31158
4.54981
4.78569
5.01913
5.25004
5.47836
5.70402
5.92696
6.14709
6.36435
6.57865
6.78991
6.99802
7.20291
7.40448
7.60265
7.79732
7.98841
8.17583
8.3595
8.53941
8.71551
8.88845
9.05644
9.22813
9.3736
-7.44153
-7.44094
-7.44055
-7.44201
-7.44629
-7.45267
-7.46007
-7.46778
-7.47533
-7.4824
-7.48884
-7.49459
-7.4996
-7.50379
-7.50709
-7.50941
-7.51069
-7.51087
-7.50994
-7.50786
-7.50465
-7.50035
-7.49499
-7.48863
-7.48135
-7.4732
-7.46429
-7.45481
-7.44511
-7.4357
-7.42718
-7.42037
-7.41623
-7.41573
-7.4188
-7.42362
-7.4285
-7.43269
-7.43602
-7.43894
-7.44221
-7.44695
-7.45415
-7.46481
-7.47976
-7.49926
-7.5229
-7.55013
-7.58071
-7.61429
-7.65062
-7.68966
-7.73137
-7.77567
-7.82238
-7.87121
-7.9217
-7.97334
-8.02556
-8.0778
-8.12955
-8.18033
-8.22973
-8.2774
-8.32302
-8.36634
-8.40714
-8.44522
-8.48043
-8.5126
-8.54158
-8.56725
-8.58946
-8.60808
-8.62298
-8.63405
-8.64116
-8.6442
-8.64308
-8.63769
-8.62795
-8.61376
-8.59505
-8.57174
-8.54374
-8.51101
-8.47348
-8.43114
-8.38393
-8.33179
-8.2746
-8.21231
-8.1449
-8.07232
-7.99455
-7.91156
-7.82333
-7.72982
-7.63101
-7.52687
-7.41742
-7.30266
-7.18258
-7.05716
-6.92638
-6.79026
-6.64879
-6.50198
-6.34984
-6.1924
-6.02968
-5.86171
-5.68854
-5.51022
-5.32679
-5.13835
-4.94496
-4.74673
-4.54375
-4.33614
-4.12404
-3.90759
-3.68695
-3.46228
-3.23378
-3.00163
-2.76606
-2.52729
-2.28555
-2.04107
-1.7941
-1.54486
-1.29361
-1.04061
-0.786127
-0.530415
-0.273721
-0.0162881
0.24165
0.499871
0.758131
1.01621
1.27389
1.531
1.78733
2.04274
2.29705
2.55012
2.80177
3.05189
3.30033
3.54698
3.79171
4.0344
4.27495
4.51324
4.74918
4.98268
5.21367
5.44208
5.66783
5.89086
6.11109
6.32845
6.54285
6.7542
6.96242
7.16741
7.3691
7.56739
7.76219
7.95341
8.14097
8.32479
8.50486
8.68105
8.85397
9.02132
9.1925
9.33122
-7.44583
-7.44491
-7.44546
-7.45003
-7.45758
-7.46616
-7.47486
-7.48317
-7.49082
-7.49772
-7.50387
-7.50926
-7.51382
-7.51749
-7.5202
-7.52189
-7.52249
-7.52198
-7.52034
-7.51754
-7.51361
-7.50856
-7.50242
-7.49517
-7.48683
-7.47749
-7.46728
-7.45641
-7.44525
-7.43448
-7.42491
-7.41783
-7.41429
-7.41412
-7.41591
-7.41848
-7.42174
-7.42603
-7.43167
-7.43858
-7.44706
-7.4583
-7.4733
-7.49217
-7.51465
-7.54034
-7.56895
-7.60011
-7.63359
-7.6692
-7.70682
-7.74637
-7.78775
-7.83087
-7.87554
-7.92154
-7.96855
-8.01625
-8.06426
-8.11222
-8.15974
-8.20651
-8.25218
-8.29646
-8.33906
-8.37973
-8.41825
-8.4544
-8.48798
-8.51881
-8.54672
-8.57151
-8.59303
-8.61112
-8.62562
-8.63639
-8.64329
-8.64621
-8.64501
-8.63961
-8.6299
-8.61578
-8.59718
-8.57401
-8.5462
-8.51368
-8.47639
-8.43431
-8.3874
-8.33556
-8.27871
-8.21679
-8.14978
-8.07764
-8.00033
-7.91784
-7.83013
-7.73717
-7.63893
-7.5354
-7.42658
-7.31245
-7.193
-7.06823
-6.93813
-6.80269
-6.66191
-6.51581
-6.36439
-6.20767
-6.04568
-5.87844
-5.706
-5.5284
-5.3457
-5.15797
-4.96528
-4.76773
-4.56542
-4.35846
-4.14698
-3.93113
-3.71106
-3.48694
-3.25895
-3.02729
-2.79218
-2.55384
-2.3125
-2.06839
-1.82175
-1.57281
-1.32185
-1.06912
-0.814878
-0.559386
-0.302889
-0.0456298
0.212145
0.470209
0.728322
0.986267
1.24383
1.50083
1.75708
2.01241
2.26665
2.51965
2.77124
3.0213
3.2697
3.51632
3.76102
4.0037
4.24423
4.48251
4.71846
4.95197
5.18299
5.41142
5.63721
5.86029
6.08057
6.29798
6.51245
6.72387
6.93216
7.13724
7.33901
7.53739
7.73228
7.92359
8.11124
8.29514
8.47523
8.65131
8.82395
8.99034
9.16075
9.29291
-7.45115
-7.45071
-7.45352
-7.46085
-7.46977
-7.47862
-7.48706
-7.49494
-7.5022
-7.50881
-7.5147
-7.51982
-7.52407
-7.52738
-7.52969
-7.53095
-7.53111
-7.53014
-7.52803
-7.52477
-7.52038
-7.51487
-7.50817
-7.50023
-7.49115
-7.48113
-7.47039
-7.4592
-7.44803
-7.43767
-7.42926
-7.42363
-7.42031
-7.41838
-7.4178
-7.41904
-7.42269
-7.42866
-7.43685
-7.44792
-7.46238
-7.48021
-7.50121
-7.52514
-7.55176
-7.58074
-7.61186
-7.64497
-7.67989
-7.71646
-7.75453
-7.79398
-7.8347
-7.87658
-7.91946
-7.9632
-8.00758
-8.05238
-8.09735
-8.14223
-8.18674
-8.23061
-8.27357
-8.31537
-8.35573
-8.39444
-8.43124
-8.46593
-8.49829
-8.52809
-8.55515
-8.57926
-8.60023
-8.61787
-8.63203
-8.64252
-8.64921
-8.65196
-8.65064
-8.64515
-8.63538
-8.62124
-8.60264
-8.5795
-8.55174
-8.51929
-8.4821
-8.44015
-8.39337
-8.3417
-8.28503
-8.22333
-8.15655
-8.08469
-8.00769
-7.92553
-7.83817
-7.74559
-7.64775
-7.54465
-7.43626
-7.32258
-7.2036
-7.0793
-6.94969
-6.81475
-6.67448
-6.5289
-6.37802
-6.22184
-6.0604
-5.89372
-5.72183
-5.54478
-5.36262
-5.17541
-4.98325
-4.78619
-4.58437
-4.37787
-4.16683
-3.9514
-3.73172
-3.50797
-3.28032
-3.04899
-2.81417
-2.5761
-2.335
-2.09112
-1.84466
-1.59591
-1.34511
-1.09254
-0.838439
-0.58308
-0.326698
-0.0695536
0.188114
0.446064
0.70407
0.96191
1.21938
1.47629
1.73245
1.98769
2.24185
2.49476
2.74627
2.99624
3.24456
3.49111
3.73575
3.97835
4.21883
4.45705
4.69294
4.92642
5.15739
5.3858
5.61158
5.83465
6.05495
6.27238
6.48687
6.69831
6.90664
7.11175
7.31357
7.512
7.70695
7.89832
8.086
8.26988
8.4499
8.62576
8.79795
8.9633
9.13297
9.25906
-7.4553
-7.45617
-7.46165
-7.47006
-7.47864
-7.48687
-7.49475
-7.50221
-7.50919
-7.51559
-7.5213
-7.52623
-7.53029
-7.5334
-7.5355
-7.53653
-7.53646
-7.53525
-7.53291
-7.52943
-7.52483
-7.51902
-7.51192
-7.50369
-7.49456
-7.48468
-7.47426
-7.46375
-7.45393
-7.44556
-7.43898
-7.4336
-7.42894
-7.42565
-7.42463
-7.4262
-7.43083
-7.43902
-7.45083
-7.46612
-7.48458
-7.50599
-7.5301
-7.55662
-7.58533
-7.61601
-7.64847
-7.68254
-7.71807
-7.75489
-7.79289
-7.83194
-7.87195
-7.91281
-7.95439
-7.99655
-8.03916
-8.08203
-8.12499
-8.16782
-8.21031
-8.25224
-8.29338
-8.33349
-8.37234
-8.40971
-8.44535
-8.47904
-8.51055
-8.53966
-8.56613
-8.58976
-8.61033
-8.62765
-8.64152
-8.65177
-8.65825
-8.66081
-8.65932
-8.65368
-8.64379
-8.62953
-8.61083
-8.58761
-8.55978
-8.52729
-8.49007
-8.4481
-8.40134
-8.34968
-8.29306
-8.23142
-8.16475
-8.09302
-8.01618
-7.9342
-7.84705
-7.75469
-7.65709
-7.55424
-7.44612
-7.33273
-7.21405
-7.09007
-6.96078
-6.82619
-6.68628
-6.54108
-6.39057
-6.23479
-6.07374
-5.90746
-5.73597
-5.55931
-5.37754
-5.19072
-4.99892
-4.80222
-4.60073
-4.39455
-4.18381
-3.96864
-3.74922
-3.52569
-3.29824
-3.06708
-2.83243
-2.5945
-2.35352
-2.10973
-1.86335
-1.61468
-1.36396
-1.11145
-0.857413
-0.602107
-0.34578
-0.0886964
0.168904
0.42678
0.684709
0.94247
1.19986
1.45669
1.71277
1.96792
2.22198
2.47478
2.72618
2.97605
3.22427
3.47071
3.71525
3.95775
4.19811
4.43622
4.67201
4.90539
5.13629
5.36463
5.59035
5.8134
6.03367
6.25108
6.46554
6.67698
6.8853
7.09043
7.29226
7.49072
7.68569
7.87708
8.06476
8.24859
8.42847
8.60404
8.77575
8.94006
9.10907
9.2297
-7.45656
-7.45912
-7.46618
-7.47428
-7.48217
-7.4899
-7.49743
-7.50467
-7.5115
-7.51781
-7.52347
-7.52836
-7.53239
-7.53548
-7.53756
-7.53857
-7.5385
-7.5373
-7.53496
-7.5315
-7.52685
-7.52094
-7.51388
-7.5059
-7.4972
-7.488
-7.47876
-7.46998
-7.46206
-7.45504
-7.44869
-7.4429
-7.43801
-7.43501
-7.43477
-7.43785
-7.44463
-7.45517
-7.46918
-7.4865
-7.50682
-7.52987
-7.55538
-7.58311
-7.61281
-7.64428
-7.67733
-7.71179
-7.7475
-7.78433
-7.82217
-7.8609
-7.9004
-7.94058
-7.98132
-8.02252
-8.06404
-8.10575
-8.14749
-8.18909
-8.23037
-8.27114
-8.31119
-8.35032
-8.38829
-8.42489
-8.45987
-8.49301
-8.52405
-8.55276
-8.5789
-8.60224
-8.62257
-8.63966
-8.65332
-8.66336
-8.66962
-8.67197
-8.67027
-8.66443
-8.65432
-8.63987
-8.62099
-8.59758
-8.56957
-8.53691
-8.49955
-8.45745
-8.41058
-8.35884
-8.30213
-8.24044
-8.17375
-8.10202
-8.02522
-7.94328
-7.8562
-7.76391
-7.66641
-7.56367
-7.45568
-7.34243
-7.22392
-7.10012
-6.97103
-6.83665
-6.69697
-6.55202
-6.40177
-6.24626
-6.08548
-5.91948
-5.74827
-5.57189
-5.39039
-5.20383
-5.01227
-4.81581
-4.61453
-4.40855
-4.19799
-3.98298
-3.76368
-3.54026
-3.31291
-3.08182
-2.84722
-2.60932
-2.36836
-2.12457
-1.87821
-1.62953
-1.37882
-1.12631
-0.872266
-0.616957
-0.360646
-0.103585
0.153973
0.411802
0.66967
0.927366
1.18468
1.44143
1.69741
1.95246
2.2064
2.45908
2.71034
2.96007
3.20816
3.45447
3.69887
3.94124
4.18145
4.41942
4.65507
4.88832
5.11909
5.34733
5.57298
5.79595
6.01618
6.23354
6.44796
6.65936
6.86766
7.07277
7.2746
7.47306
7.66806
7.85944
8.04708
8.23083
8.41054
8.58577
8.75696
8.92027
9.08869
9.20457
-7.45337
-7.45733
-7.46455
-7.47209
-7.47966
-7.48721
-7.49465
-7.50187
-7.50874
-7.51515
-7.52095
-7.52602
-7.53024
-7.53353
-7.53581
-7.53702
-7.53712
-7.53608
-7.53389
-7.53052
-7.52597
-7.52026
-7.51358
-7.50621
-7.4984
-7.49049
-7.48272
-7.47519
-7.46799
-7.46122
-7.45501
-7.44971
-7.44593
-7.44443
-7.44581
-7.45045
-7.45859
-7.47026
-7.48531
-7.50353
-7.52466
-7.54843
-7.57455
-7.60277
-7.63289
-7.66468
-7.69797
-7.73258
-7.76838
-7.80522
-7.84299
-7.88155
-7.92081
-7.96066
-8.00102
-8.04176
-8.08277
-8.12394
-8.16511
-8.20616
-8.2469
-8.28717
-8.32677
-8.3655
-8.40314
-8.43946
-8.47424
-8.5072
-8.53809
-8.56667
-8.59269
-8.6159
-8.63607
-8.653
-8.66647
-8.6763
-8.68234
-8.68445
-8.68251
-8.67641
-8.66605
-8.65134
-8.63219
-8.60852
-8.58025
-8.54733
-8.50972
-8.46739
-8.42031
-8.36836
-8.31148
-8.24963
-8.18281
-8.11098
-8.03409
-7.95209
-7.86494
-7.77261
-7.67508
-7.57233
-7.46436
-7.35114
-7.23268
-7.10896
-6.97996
-6.84569
-6.70615
-6.56134
-6.41126
-6.25592
-6.09534
-5.92952
-5.7585
-5.58232
-5.401
-5.21461
-5.02322
-4.8269
-4.62575
-4.41988
-4.20941
-3.99447
-3.77522
-3.55182
-3.32447
-3.09338
-2.85875
-2.62081
-2.37981
-2.13596
-1.88954
-1.64083
-1.39007
-1.1375
-0.88341
-0.628068
-0.371744
-0.114688
0.142848
0.400641
0.658459
0.916094
1.17333
1.42999
1.68587
1.94079
2.19459
2.44712
2.69822
2.94779
3.19572
3.44188
3.68612
3.9283
4.16833
4.40611
4.64158
4.87466
5.10528
5.33338
5.55892
5.78181
6.00196
6.21925
6.4336
6.64494
6.85319
7.05827
7.26008
7.45855
7.65354
7.84491
8.0325
8.21613
8.39563
8.57051
8.74118
8.90355
9.0714
9.18328
-7.44374
-7.44836
-7.45529
-7.46281
-7.47058
-7.47832
-7.48595
-7.49338
-7.50052
-7.50723
-7.51337
-7.51879
-7.52335
-7.52697
-7.52954
-7.53103
-7.53139
-7.53059
-7.52864
-7.52555
-7.52137
-7.51625
-7.51036
-7.50392
-7.49707
-7.48998
-7.48282
-7.47572
-7.4688
-7.46236
-7.45681
-7.45258
-7.45011
-7.44994
-7.45258
-7.45835
-7.46745
-7.4799
-7.4956
-7.51436
-7.53592
-7.56001
-7.5864
-7.61485
-7.64515
-7.67712
-7.71056
-7.74532
-7.78124
-7.81819
-7.85603
-7.89465
-7.93395
-7.97383
-8.01418
-8.0549
-8.09589
-8.13702
-8.17818
-8.21923
-8.26
-8.3003
-8.33995
-8.37875
-8.41648
-8.4529
-8.48778
-8.52084
-8.55184
-8.58049
-8.60654
-8.62975
-8.64987
-8.66668
-8.67998
-8.68961
-8.6954
-8.69723
-8.69499
-8.68857
-8.67789
-8.66286
-8.64339
-8.61939
-8.59078
-8.55751
-8.51955
-8.47689
-8.4295
-8.37728
-8.32012
-8.25803
-8.19099
-8.11897
-8.0419
-7.95974
-7.87243
-7.77998
-7.68232
-7.57948
-7.47144
-7.35818
-7.23969
-7.11597
-6.987
-6.85277
-6.7133
-6.56857
-6.4186
-6.26337
-6.10292
-5.93724
-5.76637
-5.59031
-5.40913
-5.22285
-5.03157
-4.83535
-4.63428
-4.42846
-4.21803
-4.0031
-3.78385
-3.56043
-3.33304
-3.10189
-2.8672
-2.62919
-2.38809
-2.14416
-1.89766
-1.64888
-1.39803
-1.14539
-0.891238
-0.635865
-0.379522
-0.122477
0.13504
0.39279
0.650555
0.908113
1.16527
1.42182
1.67758
1.93235
2.186
2.43834
2.68926
2.93862
3.18637
3.43237
3.67641
3.91838
4.15818
4.39574
4.631
4.86388
5.09432
5.32227
5.54767
5.77048
5.99055
6.20775
6.42201
6.63328
6.84147
7.04651
7.2483
7.44676
7.64176
7.8331
8.02062
8.20412
8.3834
8.55791
8.72807
8.88956
9.05685
9.16546
-7.4261
-7.43072
-7.43781
-7.44611
-7.45457
-7.4628
-7.47079
-7.47858
-7.48613
-7.49333
-7.49997
-7.50587
-7.51088
-7.51489
-7.51787
-7.51975
-7.5205
-7.52012
-7.51863
-7.51606
-7.5125
-7.50804
-7.50283
-7.49699
-7.49068
-7.48402
-7.47716
-7.47032
-7.46382
-7.45799
-7.45316
-7.44976
-7.44827
-7.44916
-7.45284
-7.45957
-7.46951
-7.48265
-7.49889
-7.51804
-7.53989
-7.56421
-7.59078
-7.6194
-7.64988
-7.68202
-7.71567
-7.75064
-7.78679
-7.82397
-7.86208
-7.901
-7.94062
-7.98084
-8.02154
-8.06261
-8.10395
-8.14546
-8.18699
-8.22841
-8.26957
-8.31028
-8.35036
-8.3896
-8.42776
-8.4646
-8.49986
-8.53327
-8.56455
-8.59343
-8.61961
-8.64286
-8.66294
-8.67964
-8.69274
-8.70206
-8.7075
-8.70896
-8.70632
-8.69952
-8.68846
-8.67305
-8.65319
-8.6288
-8.59977
-8.56605
-8.52766
-8.48462
-8.43689
-8.38433
-8.32686
-8.26447
-8.19717
-8.1249
-8.04761
-7.96524
-7.87773
-7.78508
-7.68726
-7.58428
-7.47612
-7.36278
-7.24424
-7.12049
-6.99151
-6.8573
-6.71786
-6.5732
-6.42331
-6.26819
-6.10785
-5.94229
-5.77153
-5.59559
-5.41451
-5.22834
-5.03715
-4.841
-4.64
-4.43423
-4.22383
-4.00891
-3.78965
-3.56621
-3.33878
-3.10758
-2.87282
-2.63473
-2.39354
-2.14952
-1.90293
-1.65406
-1.40312
-1.15041
-0.896212
-0.640811
-0.384464
-0.127433
0.130053
0.387753
0.645451
0.902925
1.15998
1.4164
1.67201
1.92662
2.18007
2.43221
2.68291
2.93205
3.17962
3.42545
3.66928
3.911
4.15053
4.38784
4.62285
4.85551
5.08575
5.31353
5.53879
5.76151
5.98149
6.19858
6.41274
6.62392
6.83204
7.03703
7.2388
7.43726
7.63226
7.82358
8.01101
8.19437
8.37343
8.54758
8.71723
8.87792
9.04463
9.15069
-7.40003
-7.40449
-7.4125
-7.4222
-7.43167
-7.44047
-7.44889
-7.45719
-7.46543
-7.4734
-7.48078
-7.48732
-7.49289
-7.49742
-7.50089
-7.50328
-7.50457
-7.50474
-7.50382
-7.50182
-7.49883
-7.49492
-7.49019
-7.48474
-7.47872
-7.47229
-7.46568
-7.45918
-7.45307
-7.44767
-7.44341
-7.44074
-7.44011
-7.44194
-7.44654
-7.45413
-7.46481
-7.47856
-7.49525
-7.51474
-7.53683
-7.56134
-7.5881
-7.61691
-7.64762
-7.68004
-7.71401
-7.74933
-7.78585
-7.82344
-7.86198
-7.90137
-7.94149
-7.98223
-8.02348
-8.06514
-8.10711
-8.14926
-8.19147
-8.23358
-8.27542
-8.31685
-8.35765
-8.3976
-8.43645
-8.47394
-8.50979
-8.54371
-8.57535
-8.60441
-8.63062
-8.65378
-8.67367
-8.6901
-8.7028
-8.71164
-8.71657
-8.71753
-8.71444
-8.70724
-8.69581
-8.68004
-8.65981
-8.63501
-8.60549
-8.5712
-8.53231
-8.4889
-8.44084
-8.38797
-8.33018
-8.26749
-8.19993
-8.12741
-8.04991
-7.96732
-7.87962
-7.78676
-7.68877
-7.58564
-7.47738
-7.36397
-7.24539
-7.12161
-6.99263
-6.85845
-6.71906
-6.57448
-6.42468
-6.26969
-6.10948
-5.94407
-5.77344
-5.59763
-5.41667
-5.23063
-5.03955
-4.84352
-4.64261
-4.43693
-4.22659
-4.01174
-3.79251
-3.56909
-3.34167
-3.11045
-2.87565
-2.63751
-2.39628
-2.15219
-1.90554
-1.65659
-1.4056
-1.15284
-0.898644
-0.643252
-0.386949
-0.129968
0.127439
0.385051
0.642635
0.899983
1.15688
1.41314
1.66855
1.92294
2.17616
2.42805
2.67848
2.92738
3.17483
3.42057
3.66417
3.90559
4.14484
4.38187
4.61663
4.84906
5.07909
5.30669
5.53184
5.75451
5.97443
6.19139
6.40544
6.61653
6.82458
7.02953
7.23128
7.42975
7.62478
7.81606
8.00342
8.18662
8.36544
8.53924
8.70842
8.86836
9.03445
9.13865
-7.36675
-7.37153
-7.38105
-7.39255
-7.40312
-7.41264
-7.42182
-7.43083
-7.43977
-7.44864
-7.45708
-7.46463
-7.47089
-7.47591
-7.47988
-7.48283
-7.4847
-7.48545
-7.48508
-7.4836
-7.48106
-7.47752
-7.47306
-7.46782
-7.46196
-7.45569
-7.44923
-7.44288
-7.437
-7.43198
-7.42826
-7.42626
-7.4264
-7.42903
-7.43441
-7.4427
-7.45397
-7.46817
-7.48522
-7.505
-7.52735
-7.55209
-7.57907
-7.60812
-7.63909
-7.6718
-7.70609
-7.74177
-7.77872
-7.81679
-7.85587
-7.89583
-7.93656
-7.97796
-8.01991
-8.06233
-8.1051
-8.14809
-8.19117
-8.23416
-8.2769
-8.3192
-8.36083
-8.40157
-8.44115
-8.47928
-8.51565
-8.54992
-8.58173
-8.61072
-8.63667
-8.65946
-8.67894
-8.69487
-8.70689
-8.71491
-8.71912
-8.71956
-8.71611
-8.70866
-8.69707
-8.68115
-8.66071
-8.6356
-8.60561
-8.57068
-8.53126
-8.48756
-8.43927
-8.3861
-8.32797
-8.26496
-8.19711
-8.12437
-8.04664
-7.96384
-7.87589
-7.7828
-7.6846
-7.5813
-7.47292
-7.35943
-7.24081
-7.117
-6.98801
-6.85384
-6.7145
-6.57
-6.42033
-6.26548
-6.10544
-5.94018
-5.76972
-5.59408
-5.4133
-5.22742
-5.03651
-4.84064
-4.63988
-4.43434
-4.22411
-4.00933
-3.79016
-3.56679
-3.33941
-3.10821
-2.87344
-2.63533
-2.39414
-2.15014
-1.90356
-1.65465
-1.4037
-1.15103
-0.896947
-0.641693
-0.38555
-0.12875
0.128455
0.38584
0.643176
0.900252
1.15685
1.41278
1.66784
1.92186
2.17468
2.42615
2.67615
2.92463
3.1718
3.41735
3.66062
3.90167
4.14057
4.37729
4.61177
4.84395
5.07377
5.30118
5.52623
5.74898
5.96891
6.18576
6.39969
6.61069
6.81868
7.0236
7.22535
7.42389
7.61899
7.81027
7.99753
8.18058
8.35918
8.53263
8.70135
8.86062
9.02603
9.12904
-7.32928
-7.33496
-7.34652
-7.36022
-7.37194
-7.38175
-7.39133
-7.40138
-7.41159
-7.42159
-7.43109
-7.43964
-7.44671
-7.45226
-7.4567
-7.46018
-7.4626
-7.46387
-7.46397
-7.46288
-7.46063
-7.4573
-7.45297
-7.44778
-7.44191
-7.43558
-7.42909
-7.42279
-7.41707
-7.41236
-7.40906
-7.40759
-7.4083
-7.41149
-7.41738
-7.42609
-7.43768
-7.45214
-7.46939
-7.48932
-7.51181
-7.53669
-7.56384
-7.59309
-7.6243
-7.65726
-7.69183
-7.72786
-7.76522
-7.80377
-7.84339
-7.88396
-7.92537
-7.9675
-8.01025
-8.05351
-8.09713
-8.14096
-8.18486
-8.22866
-8.27215
-8.31514
-8.3574
-8.39869
-8.43872
-8.4772
-8.51378
-8.54811
-8.57973
-8.60815
-8.63329
-8.6553
-8.67413
-8.68937
-8.70029
-8.70688
-8.70996
-8.70978
-8.70611
-8.69872
-8.68732
-8.6716
-8.65128
-8.62629
-8.59669
-8.56248
-8.52367
-8.48015
-8.43178
-8.37839
-8.31994
-8.25662
-8.18844
-8.11539
-8.03732
-7.95418
-7.86588
-7.77245
-7.67393
-7.57036
-7.46173
-7.34804
-7.22924
-7.10529
-6.97618
-6.84192
-6.70255
-6.55805
-6.40842
-6.25363
-6.09369
-5.92853
-5.75821
-5.58271
-5.40209
-5.21637
-5.02563
-4.82991
-4.6293
-4.42388
-4.21376
-3.99907
-3.77998
-3.55667
-3.32934
-3.0982
-2.86347
-2.62542
-2.38431
-2.14042
-1.89393
-1.64511
-1.39428
-1.14177
-0.887837
-0.632787
-0.376857
-0.120313
0.136616
0.393685
0.650683
0.907384
1.16358
1.41907
1.67365
1.92715
2.17942
2.43029
2.67963
2.92733
3.1733
3.4175
3.65986
3.90027
4.13865
4.3749
4.60895
4.84072
5.07015
5.2972
5.522
5.74468
5.96457
6.18126
6.39506
6.60598
6.81394
7.01885
7.22062
7.41931
7.6146
7.80593
7.99311
8.17604
8.35442
8.52756
8.69586
8.85448
9.01918
9.12163
-7.29126
-7.29817
-7.31224
-7.32787
-7.33992
-7.35017
-7.36083
-7.37201
-7.38328
-7.39431
-7.40483
-7.41431
-7.42215
-7.42832
-7.43334
-7.4374
-7.44036
-7.4421
-7.44258
-7.44177
-7.43968
-7.43637
-7.43195
-7.42658
-7.42046
-7.41389
-7.40718
-7.40073
-7.39493
-7.39022
-7.38698
-7.3856
-7.3864
-7.38966
-7.39557
-7.40426
-7.41579
-7.43014
-7.44728
-7.4671
-7.48953
-7.51442
-7.54167
-7.57108
-7.6025
-7.63573
-7.67062
-7.70703
-7.74484
-7.78391
-7.82409
-7.86525
-7.90727
-7.95002
-7.99339
-8.03726
-8.08147
-8.12587
-8.17028
-8.21453
-8.25843
-8.30176
-8.34428
-8.38575
-8.42589
-8.46441
-8.50096
-8.53513
-8.56623
-8.59328
-8.6164
-8.63663
-8.65433
-8.66931
-8.6809
-8.68858
-8.69223
-8.69205
-8.68825
-8.68076
-8.66929
-8.65349
-8.63307
-8.60807
-8.57883
-8.54537
-8.50716
-8.46382
-8.41541
-8.36186
-8.30327
-8.23975
-8.17136
-8.09804
-8.01971
-7.93628
-7.84772
-7.75405
-7.65532
-7.55157
-7.44278
-7.32894
-7.21002
-7.08599
-6.95683
-6.82257
-6.68323
-6.5388
-6.38926
-6.23461
-6.07481
-5.90984
-5.7397
-5.56441
-5.38401
-5.19852