/*--------------------------------*- C++ -*----------------------------------*\
| =========                 |                                                 |
| \\      /  F ield         | OpenFOAM: The Open Source CFD Toolbox           |
|  \\    /   O peration     | Version:  v2012                                 |
|   \\  /    A nd           | Website:  www.openfoam.com                      |
|    \\/     M anipulation  |                                                 |
\*---------------------------------------------------------------------------*/
FoamFile
{
    version     2.0;
    format      ascii;
    class       surfaceScalarField;
    location    "1200";
    object      phi;
}
// * * * * * * * * * * * * * * * * * * * * * * * * * * * * * * * * * * * * * //

dimensions      [0 3 -1 0 0 0 0];
oriented        oriented;


internalField   nonuniform List<scalar> 
24170
(
2.9996e-06
1.34312e-07
2.85636e-06
1.43238e-07
2.72753e-06
1.28821e-07
2.61174e-06
1.15792e-07
2.50827e-06
1.03479e-07
2.41726e-06
9.10188e-08
2.33822e-06
7.90419e-08
2.27006e-06
6.81668e-08
2.2112e-06
5.88536e-08
2.16005e-06
5.11475e-08
2.11555e-06
4.44998e-08
2.07696e-06
3.85902e-08
2.04373e-06
3.3235e-08
2.01545e-06
2.82762e-08
1.99196e-06
2.34983e-08
1.97354e-06
1.84108e-08
1.96117e-06
1.23536e-08
1.50895e-10
1.961e-06
3.51592e-06
7.48322e-08
3.54786e-06
1.11268e-07
3.56372e-06
1.12939e-07
3.56665e-06
1.1285e-07
3.55939e-06
1.10723e-07
3.54484e-06
1.05565e-07
3.5253e-06
9.85804e-08
3.50246e-06
9.10068e-08
3.47784e-06
8.346e-08
3.45274e-06
7.62412e-08
3.42781e-06
6.94315e-08
3.40344e-06
6.2955e-08
3.37994e-06
5.67387e-08
3.35754e-06
5.06728e-08
3.33647e-06
4.45714e-08
3.31695e-06
3.7922e-08
3.29906e-06
3.0231e-08
1.95129e-08
3.2797e-06
3.83295e-06
5.40817e-08
3.85101e-06
9.32092e-08
3.86584e-06
9.81005e-08
3.87876e-06
9.99283e-08
3.88933e-06
1.00151e-07
3.89743e-06
9.74641e-08
3.90319e-06
9.28183e-08
3.90682e-06
8.73835e-08
3.90859e-06
8.16859e-08
3.90886e-06
7.59631e-08
3.90797e-06
7.03213e-08
3.90617e-06
6.47553e-08
3.90368e-06
5.92302e-08
3.90069e-06
5.36624e-08
3.89736e-06
4.78998e-08
3.89372e-06
4.15571e-08
3.88947e-06
3.4472e-08
2.59571e-08
3.88302e-06
4.21657e-06
4.20694e-08
4.22931e-06
8.04528e-08
4.23941e-06
8.79911e-08
4.24845e-06
9.08788e-08
4.25665e-06
9.19439e-08
4.26391e-06
9.01996e-08
4.27026e-06
8.64596e-08
4.27579e-06
8.18458e-08
4.28057e-06
7.69002e-08
4.28468e-06
7.18428e-08
4.28824e-06
6.67563e-08
4.29133e-06
6.16608e-08
4.29403e-06
5.65271e-08
4.2964e-06
5.1291e-08
4.29847e-06
4.58318e-08
4.30009e-06
3.99271e-08
4.30102e-06
3.3543e-08
2.65863e-08
4.30038e-06
4.646e-06
3.33764e-08
4.65704e-06
6.94154e-08
4.66579e-06
7.92409e-08
4.67358e-06
8.30894e-08
4.68079e-06
8.47299e-08
4.68734e-06
8.36536e-08
4.69322e-06
8.05767e-08
4.69853e-06
7.6532e-08
4.70335e-06
7.20772e-08
4.70776e-06
6.74335e-08
4.71182e-06
6.26942e-08
4.71559e-06
5.78934e-08
4.7191e-06
5.3019e-08
4.72236e-06
4.80251e-08
4.72536e-06
4.2835e-08
4.72794e-06
3.73431e-08
4.72989e-06
3.15818e-08
2.56891e-08
4.73079e-06
5.12132e-06
2.66513e-08
5.13126e-06
5.94843e-08
5.13952e-06
7.09807e-08
5.14699e-06
7.56179e-08
5.15401e-06
7.77128e-08
5.16044e-06
7.72175e-08
5.16627e-06
7.47379e-08
5.17159e-06
7.1205e-08
5.17649e-06
6.71791e-08
5.18103e-06
6.28899e-08
5.18527e-06
5.84497e-08
5.18925e-06
5.39064e-08
5.193e-06
4.92711e-08
5.1965e-06
4.45199e-08
5.19971e-06
3.96214e-08
5.20251e-06
3.45451e-08
5.20472e-06
2.93656e-08
2.42652e-08
5.20614e-06
5.64629e-06
2.13776e-08
5.65523e-06
5.05476e-08
5.66322e-06
6.29888e-08
5.6706e-06
6.82407e-08
5.67763e-06
7.06786e-08
5.68417e-06
7.06805e-08
5.69016e-06
6.87461e-08
5.69567e-06
6.56969e-08
5.70076e-06
6.20814e-08
5.70551e-06
5.81394e-08
5.70996e-06
5.39977e-08
5.71415e-06
4.97203e-08
5.71808e-06
4.53412e-08
5.72174e-06
4.0862e-08
5.72507e-06
3.62877e-08
5.72798e-06
3.16349e-08
5.73035e-06
2.69923e-08
2.25265e-08
5.73209e-06
4.40922e-06
1.82722e-08
4.41502e-06
4.4758e-08
4.42067e-06
5.7337e-08
4.42596e-06
6.29561e-08
4.43103e-06
6.561e-08
4.43582e-06
6.58947e-08
4.44026e-06
6.43027e-08
4.44437e-06
6.15843e-08
4.44819e-06
5.8258e-08
4.45176e-06
5.45671e-08
4.45511e-06
5.06475e-08
4.45825e-06
4.65755e-08
4.46119e-06
4.2399e-08
4.46392e-06
3.81366e-08
4.46639e-06
3.38137e-08
4.46856e-06
2.94676e-08
4.47036e-06
2.51878e-08
2.11178e-08
4.47177e-06
5.14271e-06
1.54258e-08
5.14845e-06
3.90232e-08
5.15437e-06
5.14148e-08
5.16005e-06
5.72702e-08
5.16558e-06
6.0087e-08
5.17084e-06
6.06298e-08
5.17577e-06
5.93733e-08
5.18037e-06
5.69889e-08
5.18466e-06
5.39638e-08
5.18868e-06
5.05448e-08
5.19245e-06
4.68733e-08
5.19599e-06
4.30382e-08
5.19929e-06
3.90985e-08
5.20234e-06
3.5091e-08
5.2051e-06
3.10546e-08
5.20752e-06
2.7042e-08
5.20957e-06
2.31343e-08
1.94542e-08
5.21124e-06
5.99837e-06
1.28483e-08
6.00396e-06
3.34382e-08
6.01008e-06
4.52947e-08
6.01613e-06
5.12223e-08
6.0221e-06
5.4124e-08
6.02784e-06
5.48806e-08
6.03327e-06
5.39424e-08
6.03837e-06
5.18899e-08
6.04316e-06
4.9175e-08
6.04766e-06
4.6047e-08
6.05188e-06
4.26511e-08
6.05583e-06
3.90854e-08
6.05951e-06
3.542e-08
6.0629e-06
3.17044e-08
6.06596e-06
2.79898e-08
6.06867e-06
2.43328e-08
6.071e-06
2.08058e-08
1.75072e-08
6.07295e-06
6.99657e-06
1.05424e-08
7.00192e-06
2.80905e-08
7.00818e-06
3.90433e-08
7.01455e-06
4.48506e-08
7.02092e-06
4.77492e-08
7.02714e-06
4.86555e-08
7.03308e-06
4.80025e-08
7.0387e-06
4.62737e-08
7.044e-06
4.3877e-08
7.04898e-06
4.10583e-08
7.05367e-06
3.79664e-08
7.05805e-06
3.47045e-08
7.06212e-06
3.13501e-08
7.06586e-06
2.79641e-08
7.06925e-06
2.46007e-08
7.07226e-06
2.13188e-08
7.07489e-06
1.81772e-08
1.52545e-08
7.07714e-06
8.16107e-06
8.48802e-09
8.16612e-06
2.30382e-08
8.17241e-06
3.27508e-08
8.17905e-06
3.82129e-08
8.1858e-06
4.10011e-08
8.19248e-06
4.19769e-08
8.19892e-06
4.15555e-08
8.20506e-06
4.01317e-08
8.21088e-06
3.80561e-08
8.21638e-06
3.55648e-08
8.22154e-06
3.28045e-08
8.22636e-06
2.98813e-08
8.23084e-06
2.68752e-08
8.23495e-06
2.38524e-08
8.23868e-06
2.08681e-08
8.24202e-06
1.79769e-08
8.24497e-06
1.52256e-08
1.26762e-08
8.24755e-06
9.51957e-06
6.65049e-09
9.5243e-06
1.83048e-08
9.53054e-06
2.65065e-08
9.53738e-06
3.13762e-08
9.54445e-06
3.39251e-08
9.55155e-06
3.48763e-08
9.55849e-06
3.46165e-08
9.56516e-06
3.34623e-08
9.57151e-06
3.17032e-08
9.57753e-06
2.95505e-08
9.58318e-06
2.71472e-08
9.58847e-06
2.45933e-08
9.59337e-06
2.19705e-08
9.59788e-06
1.93409e-08
9.60199e-06
1.67603e-08
9.6057e-06
1.42734e-08
9.609e-06
1.19196e-08
9.7444e-09
9.61193e-06
1.11044e-05
4.98685e-09
1.11088e-05
1.38724e-08
1.11149e-05
2.03714e-08
1.11219e-05
2.44074e-08
1.11293e-05
2.65658e-08
1.11367e-05
2.73884e-08
1.11442e-05
2.72071e-08
1.11513e-05
2.6273e-08
1.11582e-05
2.48115e-08
1.11648e-05
2.3002e-08
1.1171e-05
2.09711e-08
1.11767e-05
1.88129e-08
1.11821e-05
1.65991e-08
1.11871e-05
1.43896e-08
1.11916e-05
1.22307e-08
1.11957e-05
1.01624e-08
1.11994e-05
8.21248e-09
6.41809e-09
1.12027e-05
1.29532e-05
3.45128e-09
1.29574e-05
9.68363e-09
1.29634e-05
1.43567e-08
1.29704e-05
1.73439e-08
1.2978e-05
1.89507e-08
1.29859e-05
1.95319e-08
1.29938e-05
1.9341e-08
1.30015e-05
1.85662e-08
1.30089e-05
1.73729e-08
1.3016e-05
1.5899e-08
1.30227e-05
1.42489e-08
1.3029e-05
1.2501e-08
1.30349e-05
1.07164e-08
1.30404e-05
8.94422e-09
1.30454e-05
7.22296e-09
1.30499e-05
5.58355e-09
1.30541e-05
4.04673e-09
2.64016e-09
1.30579e-05
1.51099e-05
1.99304e-09
1.5114e-05
5.63665e-09
1.51199e-05
8.39469e-09
1.51271e-05
1.01558e-08
1.5135e-05
1.10547e-08
1.51432e-05
1.12809e-08
1.51516e-05
1.09936e-08
1.51598e-05
1.03152e-08
1.51679e-05
9.35355e-09
1.51756e-05
8.20083e-09
1.51829e-05
6.93124e-09
1.51898e-05
5.60199e-09
1.51962e-05
4.25844e-09
1.52022e-05
2.93661e-09
1.52078e-05
1.66474e-09
1.52129e-05
4.64658e-10
1.52176e-05
-6.49523e-10
-1.65803e-09
1.52219e-05
1.76259e-05
5.47381e-10
1.763e-05
1.56596e-09
1.76361e-05
2.29983e-09
1.76435e-05
2.685e-09
1.76518e-05
2.73706e-09
1.76606e-05
2.50792e-09
1.76696e-05
2.04932e-09
1.76785e-05
1.41612e-09
1.76872e-05
6.5462e-10
1.76955e-05
-1.88756e-10
1.77035e-05
-1.07862e-09
1.77111e-05
-1.98143e-09
1.77183e-05
-2.87349e-09
1.77249e-05
-3.73206e-09
1.77311e-05
-4.54245e-09
1.77369e-05
-5.29061e-09
1.77422e-05
-5.97033e-09
-6.56766e-09
1.77471e-05
1.78276e-05
-8.09181e-10
1.78314e-05
-2.27916e-09
1.78372e-05
-3.47274e-09
1.78443e-05
-4.41646e-09
1.78522e-05
-5.18726e-09
1.78606e-05
-5.87264e-09
1.78691e-05
-6.51191e-09
1.78777e-05
-7.12354e-09
1.7886e-05
-7.70927e-09
1.78941e-05
-8.27586e-09
1.79019e-05
-8.81661e-09
1.79092e-05
-9.33039e-09
1.79162e-05
-9.80615e-09
1.79227e-05
-1.02418e-08
1.79287e-05
-1.06283e-08
1.79344e-05
-1.09646e-08
1.79397e-05
-1.12456e-08
-1.14668e-08
1.79446e-05
1.58826e-05
-2.06655e-09
1.58861e-05
-5.81047e-09
1.58914e-05
-8.71868e-09
1.58977e-05
-1.07819e-08
1.59048e-05
-1.22236e-08
1.59122e-05
-1.32653e-08
1.59197e-05
-1.4036e-08
1.59272e-05
-1.46016e-08
1.59345e-05
-1.50206e-08
1.59415e-05
-1.53329e-08
1.59483e-05
-1.55699e-08
1.59547e-05
-1.57429e-08
1.59608e-05
-1.58652e-08
1.59665e-05
-1.59386e-08
1.59718e-05
-1.59701e-08
1.59768e-05
-1.59581e-08
1.59815e-05
-1.59078e-08
-1.58123e-08
1.59858e-05
1.41499e-05
-3.3437e-09
1.41535e-05
-9.34173e-09
1.41586e-05
-1.38247e-08
1.41646e-05
-1.68068e-08
1.41711e-05
-1.87483e-08
1.41779e-05
-2.00385e-08
1.41847e-05
-2.08642e-08
1.41915e-05
-2.13414e-08
1.4198e-05
-2.157e-08
1.42043e-05
-2.16324e-08
1.42103e-05
-2.15787e-08
1.4216e-05
-2.14416e-08
1.42214e-05
-2.12424e-08
1.42265e-05
-2.09969e-08
1.42312e-05
-2.07146e-08
1.42357e-05
-2.04023e-08
1.42398e-05
-2.00637e-08
-1.96982e-08
1.42437e-05
1.26064e-05
-4.74613e-09
1.26102e-05
-1.31119e-08
1.26154e-05
-1.90348e-08
1.26213e-05
-2.26972e-08
1.26276e-05
-2.49714e-08
1.26339e-05
-2.63988e-08
1.26402e-05
-2.72011e-08
1.26464e-05
-2.75272e-08
1.26524e-05
-2.7535e-08
1.26581e-05
-2.7338e-08
1.26635e-05
-2.69999e-08
1.26687e-05
-2.65674e-08
1.26735e-05
-2.60687e-08
1.2678e-05
-2.55316e-08
1.26823e-05
-2.49668e-08
1.26862e-05
-2.43873e-08
1.269e-05
-2.37954e-08
-2.3193e-08
1.26935e-05
1.12315e-05
-6.39001e-09
1.12357e-05
-1.73444e-08
1.12412e-05
-2.45124e-08
1.12471e-05
-2.85767e-08
1.12531e-05
-3.09985e-08
1.12592e-05
-3.24599e-08
1.12651e-05
-3.31475e-08
1.12709e-05
-3.32698e-08
1.12764e-05
-3.30307e-08
1.12816e-05
-3.25614e-08
1.12865e-05
-3.19416e-08
1.12912e-05
-3.12192e-08
1.12955e-05
-3.04407e-08
1.12996e-05
-2.96296e-08
1.13035e-05
-2.88098e-08
1.13071e-05
-2.79867e-08
1.13105e-05
-2.71717e-08
-2.63589e-08
1.13136e-05
1.00067e-05
-8.43623e-09
1.00116e-05
-2.22446e-08
1.00174e-05
-3.03187e-08
1.00233e-05
-3.44515e-08
1.00292e-05
-3.68942e-08
1.0035e-05
-3.82884e-08
1.00407e-05
-3.87866e-08
1.00461e-05
-3.86467e-08
1.00512e-05
-3.81342e-08
1.0056e-05
-3.73928e-08
1.00606e-05
-3.64903e-08
1.00648e-05
-3.54915e-08
1.00688e-05
-3.44408e-08
1.00726e-05
-3.33759e-08
1.00761e-05
-3.23153e-08
1.00794e-05
-3.12742e-08
1.00825e-05
-3.02546e-08
-2.92567e-08
1.00853e-05
8.91575e-06
-1.10631e-08
8.92158e-06
-2.8072e-08
8.92775e-06
-3.64789e-08
8.93366e-06
-4.03705e-08
8.93947e-06
-4.26986e-08
8.94513e-06
-4.3936e-08
8.95051e-06
-4.41571e-08
8.9556e-06
-4.37313e-08
8.96041e-06
-4.29443e-08
8.96495e-06
-4.19243e-08
8.9692e-06
-4.07462e-08
8.97319e-06
-3.94727e-08
8.97691e-06
-3.81614e-08
8.98038e-06
-3.68501e-08
8.98363e-06
-3.55632e-08
8.98667e-06
-3.43145e-08
8.98952e-06
-3.31098e-08
-3.19418e-08
8.99221e-06
7.94413e-06
-1.45333e-08
7.95117e-06
-3.50875e-08
7.95763e-06
-4.29344e-08
7.96359e-06
-4.63208e-08
7.96939e-06
-4.85056e-08
7.97496e-06
-4.95006e-08
7.9802e-06
-4.9398e-08
7.98512e-06
-4.86566e-08
7.98976e-06
-4.75794e-08
7.99412e-06
-4.62822e-08
7.99819e-06
-4.48224e-08
8.00199e-06
-4.32712e-08
8.00552e-06
-4.16919e-08
8.0088e-06
-4.01302e-08
8.01185e-06
-3.86162e-08
8.0147e-06
-3.71643e-08
8.01736e-06
-3.5781e-08
-3.44469e-08
8.01987e-06
7.07898e-06
-1.91732e-08
7.08745e-06
-4.35628e-08
7.09435e-06
-4.9843e-08
7.10057e-06
-5.25595e-08
7.1066e-06
-5.45314e-08
7.11229e-06
-5.51971e-08
7.1176e-06
-5.471e-08
7.12257e-06
-5.36263e-08
7.12723e-06
-5.22436e-08
7.13158e-06
-5.06346e-08
7.13562e-06
-4.88626e-08
7.13934e-06
-4.70027e-08
7.14278e-06
-4.51268e-08
7.14594e-06
-4.32926e-08
7.14885e-06
-4.15304e-08
7.15155e-06
-3.98641e-08
7.15406e-06
-3.82999e-08
-3.68146e-08
7.15643e-06
6.30949e-06
-2.61482e-08
6.31957e-06
-5.36838e-08
6.32761e-06
-5.78895e-08
6.33494e-06
-5.98889e-08
6.34187e-06
-6.14726e-08
6.34826e-06
-6.15935e-08
6.35411e-06
-6.05732e-08
6.35951e-06
-5.90383e-08
6.3645e-06
-5.72348e-08
6.36908e-06
-5.52178e-08
6.37325e-06
-5.30399e-08
6.37703e-06
-5.07821e-08
6.38043e-06
-4.85334e-08
6.38348e-06
-4.63449e-08
6.38622e-06
-4.42686e-08
6.38869e-06
-4.23329e-08
6.39093e-06
-4.05424e-08
-3.88435e-08
6.39296e-06
5.62863e-06
-3.98883e-08
5.64235e-06
-6.7459e-08
5.65423e-06
-6.97853e-08
5.66508e-06
-7.07508e-08
5.67478e-06
-7.11932e-08
5.68327e-06
-7.00841e-08
5.69063e-06
-6.79553e-08
5.69703e-06
-6.54484e-08
5.70255e-06
-6.27552e-08
5.70722e-06
-5.98903e-08
5.71109e-06
-5.69127e-08
5.71421e-06
-5.39108e-08
5.71664e-06
-5.0964e-08
5.71844e-06
-4.8149e-08
5.71969e-06
-4.55191e-08
5.7205e-06
-4.31361e-08
5.72096e-06
-4.10065e-08
-3.92568e-08
5.72137e-06
5.04893e-06
-8.65189e-08
5.078e-06
-9.65985e-08
5.09884e-06
-9.06557e-08
5.11313e-06
-8.50546e-08
5.12193e-06
-8.00093e-08
5.12627e-06
-7.44419e-08
5.12707e-06
-6.8767e-08
5.12503e-06
-6.34189e-08
5.12066e-06
-5.83979e-08
5.11439e-06
-5.36205e-08
5.10657e-06
-4.90948e-08
5.09751e-06
-4.48598e-08
5.08749e-06
-4.09486e-08
5.07675e-06
-3.74035e-08
5.06556e-06
-3.43302e-08
5.05425e-06
-3.18188e-08
5.04305e-06
-2.98058e-08
-2.86152e-08
5.0324e-06
4.37003e-06
4.27343e-06
4.18277e-06
4.09771e-06
4.0177e-06
3.94326e-06
3.87449e-06
3.81107e-06
3.75267e-06
3.69905e-06
3.64995e-06
3.60509e-06
3.56414e-06
3.52674e-06
3.49241e-06
3.46059e-06
3.43079e-06
3.40217e-06
-1.03854e-08
1.03961e-08
-2.79184e-08
1.7545e-08
-4.76272e-08
1.97175e-08
-6.61673e-08
1.8534e-08
-7.84025e-08
1.22326e-08
-7.64122e-08
-1.99984e-09
-5.53704e-08
-2.10512e-08
-1.67055e-08
-3.86614e-08
3.48866e-08
-5.16059e-08
9.42891e-08
-5.93935e-08
1.55914e-07
-6.16418e-08
2.15564e-07
-5.96469e-08
2.70405e-07
-5.48612e-08
3.18715e-07
-4.83162e-08
3.59456e-07
-4.07657e-08
3.92134e-07
-3.26944e-08
4.16461e-07
-2.43547e-08
4.3226e-07
-1.58229e-08
4.39242e-07
-7.01421e-09
4.36981e-07
2.23263e-09
4.25157e-07
1.17859e-08
4.03897e-07
2.12307e-08
3.73673e-07
3.0182e-08
3.35351e-07
3.82935e-08
2.90168e-07
4.51376e-08
2.39953e-07
5.0187e-08
1.87056e-07
5.28505e-08
1.34456e-07
5.25672e-08
8.54662e-08
4.89369e-08
4.34667e-08
4.19578e-08
1.10167e-08
3.23937e-08
-1.11177e-08
2.20879e-08
-2.47982e-08
1.36367e-08
-3.29013e-08
8.06565e-09
-3.81506e-08
5.21742e-09
-4.24352e-08
4.2588e-09
-4.55611e-08
3.10449e-09
-4.39832e-08
-1.58058e-09
-3.34965e-08
-1.04902e-08
-1.15734e-08
-2.1901e-08
2.13474e-08
-3.29035e-08
6.10409e-08
-3.96648e-08
1.00553e-07
-3.94884e-08
1.33851e-07
-3.32696e-08
1.57363e-07
-2.3478e-08
1.69997e-07
-1.25976e-08
1.72402e-07
-2.36645e-09
1.67715e-07
4.73594e-09
1.60954e-07
6.80337e-09
1.55619e-07
5.38142e-09
1.56268e-07
-6.11418e-10
1.68459e-07
-1.21623e-08
1.79875e-07
-1.13919e-08
1.71649e-07
8.23841e-09
1.32665e-07
3.90066e-08
5.41176e-08
7.85529e-08
-6.64376e-08
1.20593e-07
-2.20469e-07
1.54014e-07
-3.96058e-07
1.75618e-07
-5.83696e-07
1.87616e-07
-7.74914e-07
1.91242e-07
-9.62773e-07
1.87844e-07
-1.14178e-06
1.79033e-07
-1.30846e-06
1.66673e-07
-1.46092e-06
1.52474e-07
-1.59862e-06
1.37704e-07
-1.72195e-06
1.23353e-07
-1.83195e-06
1.10003e-07
-1.92989e-06
9.79568e-08
-2.01721e-06
8.73297e-08
-2.0953e-06
7.80998e-08
-2.16546e-06
7.01639e-08
-2.22882e-06
6.33754e-08
-2.28638e-06
5.75729e-08
-2.33897e-06
5.25982e-08
-2.38727e-06
4.83075e-08
-2.43184e-06
4.45753e-08
-2.47313e-06
4.12987e-08
-2.51151e-06
3.83877e-08
-2.54727e-06
3.57715e-08
-2.58066e-06
3.33902e-08
-2.61186e-06
3.11995e-08
-2.64102e-06
2.916e-08
-2.66826e-06
2.72439e-08
-2.69368e-06
2.54252e-08
-2.71736e-06
2.36864e-08
-2.73937e-06
2.20096e-08
-2.75975e-06
2.03827e-08
-2.77855e-06
1.87918e-08
-2.79577e-06
1.72279e-08
-2.81145e-06
1.56784e-08
-2.82558e-06
1.41352e-08
-2.83815e-06
1.25869e-08
-2.84917e-06
1.10231e-08
-2.8586e-06
9.43243e-09
-2.8664e-06
7.80363e-09
-2.87252e-06
6.12511e-09
-2.8769e-06
4.38304e-09
-2.87948e-06
2.57465e-09
-2.88023e-06
7.54942e-10
-2.87932e-06
-9.14796e-10
-2.87695e-06
-2.36355e-09
-2.87325e-06
-3.70059e-09
-2.86824e-06
-5.01053e-09
-2.86192e-06
-6.31192e-09
-2.85431e-06
-7.61265e-09
-2.84539e-06
-8.91327e-09
-2.83518e-06
-1.02141e-08
-2.82366e-06
-1.15137e-08
-2.81084e-06
-1.28116e-08
-2.79673e-06
-1.41061e-08
-2.78133e-06
-1.53963e-08
-2.76465e-06
-1.66808e-08
-2.74669e-06
-1.79585e-08
-2.72745e-06
-1.92278e-08
-2.70696e-06
-2.04877e-08
-2.68522e-06
-2.17368e-08
-2.66224e-06
-2.29736e-08
-2.63804e-06
-2.41973e-08
-2.61263e-06
-2.5406e-08
-2.58602e-06
-2.6599e-08
-2.55824e-06
-2.77742e-08
-2.5293e-06
-2.89305e-08
-2.49923e-06
-3.00654e-08
-2.46805e-06
-3.11763e-08
-2.43579e-06
-3.22584e-08
-2.40248e-06
-3.33035e-08
-2.36816e-06
-3.43088e-08
-2.33289e-06
-3.527e-08
-2.29671e-06
-3.61703e-08
-2.25959e-06
-3.7121e-08
-2.22147e-06
-3.81138e-08
-2.18243e-06
-3.9036e-08
-2.14252e-06
-3.99096e-08
-2.10176e-06
-4.07496e-08
-2.0602e-06
-4.15578e-08
-2.01787e-06
-4.23335e-08
-1.97479e-06
-4.30736e-08
-1.93101e-06
-4.37793e-08
-1.88656e-06
-4.44497e-08
-1.84147e-06
-4.50865e-08
-1.79577e-06
-4.56888e-08
-1.74951e-06
-4.62596e-08
-1.70272e-06
-4.67971e-08
-1.65542e-06
-4.73044e-08
-1.60765e-06
-4.77796e-08
-1.55944e-06
-4.82268e-08
-1.51082e-06
-4.86389e-08
-1.46181e-06
-4.90268e-08
-1.41245e-06
-4.9376e-08
-1.36278e-06
-4.96972e-08
-1.31281e-06
-4.99792e-08
-1.2626e-06
-5.02332e-08
-1.21216e-06
-5.04501e-08
-1.16153e-06
-5.06455e-08
-1.11074e-06
-5.0812e-08
-1.05978e-06
-5.09671e-08
-1.00869e-06
-5.11029e-08
-9.57468e-07
-5.12369e-08
-9.06114e-07
-5.13644e-08
-8.54637e-07
-5.14871e-08
-8.03035e-07
-5.16123e-08
-7.51313e-07
-5.17298e-08
-6.99478e-07
-5.18441e-08
-6.4753e-07
-5.19549e-08
-5.95469e-07
-5.20668e-08
-5.43291e-07
-5.21836e-08
-4.90985e-07
-5.23105e-08
-4.38541e-07
-5.24478e-08
-3.85951e-07
-5.25929e-08
-3.33217e-07
-5.27339e-08
-2.8037e-07
-5.28485e-08
-2.27466e-07
-5.29021e-08
-1.74624e-07
-5.28399e-08
-1.22054e-07
-5.2565e-08
-7.01977e-08
-5.18523e-08
-1.96723e-08
-5.05186e-08
2.78359e-08
-4.75029e-08
7.2187e-08
-4.43442e-08
-2.06965e-08
9.28856e-08
-3.99125e-09
1.44028e-08
-1.19259e-08
2.55012e-08
-1.76055e-08
2.54165e-08
-1.38852e-08
1.47998e-08
6.94504e-09
-8.59594e-09
4.4975e-08
-4.00397e-08
9.66373e-08
-7.27157e-08
1.56517e-07
-9.85397e-08
2.18746e-07
-1.13839e-07
2.7845e-07
-1.19095e-07
3.33146e-07
-1.16346e-07
3.81609e-07
-1.08111e-07
4.23396e-07
-9.66601e-08
4.58624e-07
-8.35517e-08
4.87586e-07
-6.97438e-08
5.10664e-07
-5.57874e-08
5.28244e-07
-4.19561e-08
5.40755e-07
-2.83552e-08
5.48708e-07
-1.49941e-08
5.52721e-07
-1.808e-09
5.5306e-07
1.14144e-08
5.49378e-07
2.48834e-08
5.40932e-07
3.85939e-08
5.26827e-07
5.23695e-08
5.06126e-07
6.5804e-08
4.78051e-07
7.8234e-08
4.42136e-07
8.87327e-08
3.98489e-07
9.61866e-08
3.479e-07
9.94941e-08
2.91973e-07
9.78573e-08
2.33203e-07
9.11307e-08
1.75189e-07
8.00709e-08
1.22786e-07
6.60005e-08
8.05301e-08
5.02815e-08
5.13984e-08
3.43012e-08
3.66588e-08
1.89563e-08
3.63109e-08
3.41177e-09
4.83092e-08
-1.35892e-08
7.074e-08
-3.29257e-08
1.02129e-07
-5.32758e-08
1.37619e-07
-6.83834e-08
1.70019e-07
-7.20469e-08
1.94642e-07
-6.40925e-08
2.09414e-07
-4.80172e-08
2.14361e-07
-2.8397e-08
2.11121e-07
-9.32067e-09
2.01088e-07
7.70598e-09
1.87284e-07
1.85912e-08
1.74029e-07
2.01081e-08
1.5074e-07
2.87259e-08
9.86174e-08
5.15605e-08
-3.24583e-09
8.97462e-08
-1.58789e-07
1.44176e-07
-3.50532e-07
1.99991e-07
-5.60005e-07
2.48489e-07
-7.72543e-07
2.91094e-07
-9.78175e-07
3.26229e-07
-1.17303e-06
3.48869e-07
-1.35406e-06
3.56653e-07
-1.51779e-06
3.51333e-07
-1.66226e-06
3.35719e-07
-1.78733e-06
3.12909e-07
-1.89425e-06
2.85963e-07
-1.98513e-06
2.57553e-07
-2.0624e-06
2.29748e-07
-2.12856e-06
2.03877e-07
-2.18585e-06
1.80649e-07
-2.23614e-06
1.60298e-07
-2.28093e-06
1.42753e-07
-2.32137e-06
1.27779e-07
-2.35832e-06
1.15059e-07
-2.3924e-06
1.04255e-07
-2.42406e-06
9.5044e-08
-2.45362e-06
8.71387e-08
-2.48131e-06
8.02937e-08
-2.5073e-06
7.43044e-08
-2.53172e-06
6.9001e-08
-2.55466e-06
6.42456e-08
-2.57619e-06
5.99267e-08
-2.59637e-06
5.59581e-08
-2.61525e-06
5.22691e-08
-2.63285e-06
4.88053e-08
-2.64921e-06
4.55216e-08
-2.66435e-06
4.23834e-08
-2.67829e-06
3.93613e-08
-2.69103e-06
3.64328e-08
-2.7026e-06
3.35778e-08
-2.71299e-06
3.07803e-08
-2.72223e-06
2.80263e-08
-2.7303e-06
2.53022e-08
-2.73722e-06
2.25986e-08
-2.74298e-06
1.99057e-08
-2.74761e-06
1.72155e-08
-2.7511e-06
1.45223e-08
-2.75349e-06
1.18221e-08
-2.75479e-06
9.11446e-09
-2.75507e-06
6.40264e-09
-2.75439e-06
3.69775e-09
-2.75284e-06
1.02564e-09
-2.7505e-06
-1.58119e-09
-2.74728e-06
-4.13728e-09
-2.74295e-06
-6.69186e-09
-2.73739e-06
-9.25704e-09
-2.73058e-06
-1.18245e-08
-2.72249e-06
-1.43943e-08
-2.71314e-06
-1.69673e-08
-2.70251e-06
-1.95424e-08
-2.6906e-06
-2.21183e-08
-2.67742e-06
-2.46928e-08
-2.66296e-06
-2.72637e-08
-2.64724e-06
-2.98286e-08
-2.63025e-06
-3.2385e-08
-2.61199e-06
-3.49304e-08
-2.59249e-06
-3.74622e-08
-2.57173e-06
-3.99777e-08
-2.54974e-06
-4.24743e-08
-2.52653e-06
-4.49494e-08
-2.5021e-06
-4.74004e-08
-2.47646e-06
-4.98246e-08
-2.44965e-06
-5.22193e-08
-2.42166e-06
-5.45818e-08
-2.39252e-06
-5.69091e-08
-2.36225e-06
-5.91981e-08
-2.33086e-06
-6.14456e-08
-2.29839e-06
-6.36478e-08
-2.26484e-06
-6.58007e-08
-2.23024e-06
-6.78999e-08
-2.1946e-06
-6.99445e-08
-2.15794e-06
-7.19309e-08
-2.12024e-06
-7.38599e-08
-2.08159e-06
-7.57726e-08
-2.04204e-06
-7.76583e-08
-2.00161e-06
-7.9468e-08
-1.96031e-06
-8.12032e-08
-1.91818e-06
-8.28741e-08
-1.87526e-06
-8.44827e-08
-1.83156e-06
-8.6025e-08
-1.78714e-06
-8.74978e-08
-1.74202e-06
-8.8902e-08
-1.69623e-06
-9.02372e-08
-1.6498e-06
-9.15044e-08
-1.60279e-06
-9.2704e-08
-1.55521e-06
-9.3838e-08
-1.5071e-06
-9.49065e-08
-1.4585e-06
-9.59118e-08
-1.40943e-06
-9.68543e-08
-1.35993e-06
-9.77373e-08
-1.31002e-06
-9.85566e-08
-1.25974e-06
-9.93202e-08
-1.20911e-06
-1.00018e-07
-1.15817e-06
-1.00654e-07
-1.10694e-06
-1.01221e-07
-1.05546e-06
-1.01725e-07
-1.00375e-06
-1.02164e-07
-9.51856e-07
-1.0255e-07
-8.99788e-07
-1.02888e-07
-8.47571e-07
-1.03192e-07
-7.95213e-07
-1.03468e-07
-7.42728e-07
-1.03729e-07
-6.90116e-07
-1.03982e-07
-6.37382e-07
-1.04227e-07
-5.84527e-07
-1.04472e-07
-5.31555e-07
-1.04707e-07
-4.78468e-07
-1.04935e-07
-4.25268e-07
-1.05158e-07
-3.71955e-07
-1.05383e-07
-3.18523e-07
-1.05618e-07
-2.64963e-07
-1.05872e-07
-2.11263e-07
-1.06148e-07
-1.57417e-07
-1.0644e-07
-1.03423e-07
-1.06727e-07
-4.93005e-08
-1.06969e-07
4.89791e-09
-1.07099e-07
5.90843e-08
-1.07024e-07
1.13098e-07
-1.06576e-07
1.66671e-07
-1.05421e-07
2.19265e-07
-1.03109e-07
2.70482e-07
-9.87153e-08
3.16814e-07
-9.0671e-08
-6.53599e-08
3.6148e-07
1.51602e-09
1.29016e-08
4.7927e-09
2.22478e-08
1.68688e-08
1.33572e-08
4.81381e-08
-1.64707e-08
1.00624e-07
-6.10794e-08
1.66982e-07
-1.06401e-07
2.35034e-07
-1.40768e-07
2.96439e-07
-1.59944e-07
3.47859e-07
-1.65261e-07
3.89179e-07
-1.60414e-07
4.21946e-07
-1.49118e-07
4.48033e-07
-1.342e-07
4.68913e-07
-1.17549e-07
4.85645e-07
-1.0029e-07
4.9891e-07
-8.30222e-08
5.09152e-07
-6.60415e-08
5.1665e-07
-4.94735e-08
5.21627e-07
-3.33508e-08
5.24271e-07
-1.76632e-08
5.24816e-07
-2.37735e-09
5.23614e-07
1.25863e-08
5.21092e-07
2.73771e-08
5.17522e-07
4.21314e-08
5.12933e-07
5.69278e-08
5.06983e-07
7.17213e-08
4.98908e-07
8.62784e-08
4.87496e-07
1.00114e-07
4.71227e-07
1.12428e-07
4.48582e-07
1.22111e-07
4.18547e-07
1.27867e-07
3.81203e-07
1.2845e-07
3.38267e-07
1.22985e-07
2.93074e-07
1.11171e-07
2.49929e-07
9.34044e-08
2.13417e-07
7.07918e-08
1.87645e-07
4.47094e-08
1.74836e-07
1.62034e-08
1.74816e-07
-1.35748e-08
1.85704e-07
-4.38202e-08
2.00948e-07
-6.85166e-08
2.11601e-07
-7.90298e-08
2.12251e-07
-7.26869e-08
2.02487e-07
-5.43176e-08
1.83475e-07
-2.89869e-08
1.56769e-07
-1.66875e-09
1.2418e-07
2.33001e-08
8.11144e-08
5.0809e-08
1.49066e-08
8.48453e-08
-9.02355e-08
1.25292e-07
-2.39541e-07
1.78057e-07
-4.2569e-07
2.37727e-07
-6.33356e-07
2.97422e-07
-8.42172e-07
3.52999e-07
-1.04138e-06
3.99199e-07
-1.22544e-06
4.32556e-07
-1.38768e-06
4.53336e-07
-1.52306e-06
4.61613e-07
-1.63189e-06
4.57694e-07
-1.71808e-06
4.42846e-07
-1.78619e-06
4.19438e-07
-1.84079e-06
3.90321e-07
-1.8861e-06
3.58215e-07
-1.92554e-06
3.25404e-07
-1.96159e-06
2.9361e-07
-1.99581e-06
2.63968e-07
-2.02903e-06
2.37101e-07
-2.0616e-06
2.13232e-07
-2.09361e-06
1.92314e-07
-2.12498e-06
1.7413e-07
-2.15559e-06
1.5839e-07
-2.18529e-06
1.44772e-07
-2.21399e-06
1.32957e-07
-2.24159e-06
1.2265e-07
-2.26804e-06
1.13594e-07
-2.2933e-06
1.05565e-07
-2.31737e-06
9.8375e-08
-2.34023e-06
9.18667e-08
-2.36189e-06
8.59105e-08
-2.38236e-06
8.04007e-08
-2.40165e-06
7.52528e-08
-2.41977e-06
7.0398e-08
-2.43675e-06
6.5781e-08
-2.45258e-06
6.13567e-08
-2.46729e-06
5.70889e-08
-2.48087e-06
5.29475e-08
-2.49335e-06
4.89081e-08
-2.50472e-06
4.49499e-08
-2.51499e-06
4.10555e-08
-2.52418e-06
3.72091e-08
-2.53227e-06
3.33986e-08
-2.53928e-06
2.96115e-08
-2.54521e-06
2.58393e-08
-2.55007e-06
2.2075e-08
-2.55385e-06
1.83134e-08
-2.55658e-06
1.45524e-08
-2.55826e-06
1.07929e-08
-2.5589e-06
7.03803e-09
-2.55849e-06
3.2946e-09
-2.55704e-06
-4.29272e-10
-2.55449e-06
-4.13458e-09
-2.55078e-06
-7.84485e-09
-2.54589e-06
-1.15833e-08
-2.53979e-06
-1.53488e-08
-2.53249e-06
-1.91313e-08
-2.52395e-06
-2.29262e-08
-2.51419e-06
-2.67298e-08
-2.50319e-06
-3.05391e-08
-2.49096e-06
-3.43507e-08
-2.47749e-06
-3.81614e-08
-2.46278e-06
-4.19674e-08
-2.44684e-06
-4.57652e-08
-2.42968e-06
-4.95511e-08
-2.41128e-06
-5.33213e-08
-2.39167e-06
-5.70719e-08
-2.37085e-06
-6.0799e-08
-2.34882e-06
-6.44986e-08
-2.3256e-06
-6.81667e-08
-2.3012e-06
-7.17994e-08
-2.27563e-06
-7.53927e-08
-2.2489e-06
-7.89428e-08
-2.22103e-06
-8.24454e-08
-2.19204e-06
-8.58965e-08
-2.16195e-06
-8.92915e-08
-2.13076e-06
-9.26261e-08
-2.09851e-06
-9.58956e-08
-2.06521e-06
-9.90957e-08
-2.03089e-06
-1.02223e-07
-1.99555e-06
-1.05276e-07
-1.95923e-06
-1.08251e-07
-1.92194e-06
-1.1115e-07
-1.88372e-06
-1.13988e-07
-1.84462e-06
-1.16756e-07
-1.80466e-06
-1.19429e-07
-1.76386e-06
-1.22003e-07
-1.72224e-06
-1.24484e-07
-1.67985e-06
-1.26873e-07
-1.63671e-06
-1.29165e-07
-1.59285e-06
-1.31354e-07
-1.54831e-06
-1.33442e-07
-1.50312e-06
-1.35428e-07
-1.45731e-06
-1.37313e-07
-1.41091e-06
-1.39097e-07
-1.36397e-06
-1.40782e-07
-1.3165e-06
-1.4237e-07
-1.26856e-06
-1.43861e-07
-1.22016e-06
-1.45259e-07
-1.17133e-06
-1.46565e-07
-1.12212e-06
-1.47781e-07
-1.07253e-06
-1.4891e-07
-1.02261e-06
-1.49949e-07
-9.72375e-07
-1.50895e-07
-9.21858e-07
-1.51744e-07
-8.71094e-07
-1.52495e-07
-8.20107e-07
-1.53155e-07
-7.68929e-07
-1.53733e-07
-7.17579e-07
-1.54242e-07
-6.6608e-07
-1.54696e-07
-6.1444e-07
-1.55111e-07
-5.62674e-07
-1.55498e-07
-5.10783e-07
-1.55877e-07
-4.5877e-07
-1.56243e-07
-4.06638e-07
-1.56607e-07
-3.54388e-07
-1.5696e-07
-3.02024e-07
-1.57302e-07
-2.49545e-07
-1.57639e-07
-1.96951e-07
-1.5798e-07
-1.44235e-07
-1.58337e-07
-9.13875e-08
-1.58722e-07
-3.83977e-08
-1.5914e-07
1.47437e-08
-1.59584e-07
6.80385e-08
-1.60024e-07
1.21475e-07
-1.60408e-07
1.75025e-07
-1.6065e-07
2.28616e-07
-1.60616e-07
2.82125e-07
-1.60086e-07
3.35376e-07
-1.58673e-07
3.88067e-07
-1.55801e-07
4.39835e-07
-1.50484e-07
4.89707e-07
-1.40543e-07
-1.16719e-07
5.41064e-07
-7.93752e-10
1.37108e-08
9.13078e-09
1.23509e-08
4.64286e-08
-2.39252e-08
1.13056e-07
-8.30941e-08
1.92106e-07
-1.40126e-07
2.65167e-07
-1.7946e-07
3.22563e-07
-1.98163e-07
3.63136e-07
-2.00515e-07
3.90249e-07
-1.92376e-07
4.08264e-07
-1.78427e-07
4.20739e-07
-1.61598e-07
4.30016e-07
-1.43479e-07
4.37347e-07
-1.24889e-07
4.43304e-07
-1.06254e-07
4.48069e-07
-8.77996e-08
4.51667e-07
-6.96507e-08
4.54056e-07
-5.18807e-08
4.55217e-07
-3.45302e-08
4.5515e-07
-1.76207e-08
4.53908e-07
-1.16132e-09
4.51602e-07
1.48623e-08
4.48458e-07
3.04912e-08
4.44783e-07
4.57717e-08
4.40924e-07
6.07546e-08
4.37152e-07
7.54567e-08
4.3358e-07
8.98171e-08
4.3e-07
1.03659e-07
4.25782e-07
1.16614e-07
4.19819e-07
1.28043e-07
4.10708e-07
1.36951e-07
3.97134e-07
1.41997e-07
3.78431e-07
1.41663e-07
3.54999e-07
1.34579e-07
3.28539e-07
1.19843e-07
3.01853e-07
9.74576e-08
2.78242e-07
6.83052e-08
2.60289e-07
3.41403e-08
2.4876e-07
-2.05663e-09
2.39294e-07
-3.43583e-08
2.23731e-07
-5.29532e-08
1.96896e-07
-5.2195e-08
1.58675e-07
-3.44587e-08
1.10398e-07
-6.03124e-09
5.12202e-08
3.0206e-08
-2.46428e-08
7.42163e-08
-1.2581e-07
1.24489e-07
-2.55981e-07
1.81001e-07
-4.14184e-07
2.43064e-07
-5.96281e-07
3.07402e-07
-7.88428e-07
3.70214e-07
-9.77181e-07
4.26487e-07
-1.15199e-06
4.72235e-07
-1.3041e-06
5.0511e-07
-1.42957e-06
5.24675e-07
-1.529e-06
5.31982e-07
-1.60406e-06
5.28401e-07
-1.65803e-06
5.15579e-07
-1.69565e-06
4.95311e-07
-1.72225e-06
4.69445e-07
-1.74268e-06
4.39871e-07
-1.7607e-06
4.08342e-07
-1.77885e-06
3.76363e-07
-1.79856e-06
3.45111e-07
-1.82039e-06
3.15444e-07
-1.84433e-06
2.87909e-07
-1.87002e-06
2.62794e-07
-1.89696e-06
2.4018e-07
-1.92464e-06
2.20002e-07
-1.9526e-06
2.02096e-07
-1.98045e-06
1.86245e-07
-2.00789e-06
1.72211e-07
-2.03467e-06
1.59748e-07
-2.06064e-06
1.48628e-07
-2.08569e-06
1.38643e-07
-2.10972e-06
1.29607e-07
-2.1327e-06
1.2136e-07
-2.1546e-06
1.13765e-07
-2.17539e-06
1.06707e-07
-2.19508e-06
1.00089e-07
-2.21365e-06
9.3833e-08
-2.23113e-06
8.78738e-08
-2.2475e-06
8.21581e-08
-2.26279e-06
7.66421e-08
-2.27699e-06
7.12898e-08
-2.29011e-06
6.60709e-08
-2.30216e-06
6.09605e-08
-2.31315e-06
5.59372e-08
-2.32308e-06
5.09825e-08
-2.33195e-06
4.60805e-08
-2.33977e-06
4.12155e-08
-2.34653e-06
3.63772e-08
-2.35224e-06
3.15538e-08
-2.3569e-06
2.67379e-08
-2.36051e-06
2.19234e-08
-2.36306e-06
1.71068e-08
-2.36456e-06
1.22867e-08
-2.36498e-06
7.46298e-09
-2.36433e-06
2.63694e-09
-2.36256e-06
-2.19207e-09
-2.35967e-06
-7.03115e-09
-2.35562e-06
-1.18957e-08
-2.35041e-06
-1.67962e-08
-2.34402e-06
-2.17302e-08
-2.33646e-06
-2.66897e-08
-2.32772e-06
-3.16688e-08
-2.31779e-06
-3.66619e-08
-2.30666e-06
-4.16644e-08
-2.29434e-06
-4.66712e-08
-2.28082e-06
-5.16778e-08