/*--------------------------------*- C++ -*----------------------------------*\
  =========                 |
  \\      /  F ield         | OpenFOAM: The Open Source CFD Toolbox
   \\    /   O peration     | Website:  https://openfoam.org
    \\  /    A nd           | Version:  8
     \\/     M anipulation  |
\*---------------------------------------------------------------------------*/
FoamFile
{
    version     2.0;
    format      ascii;
    class       volVectorField;
    location    "1200";
    object      U;
}
// * * * * * * * * * * * * * * * * * * * * * * * * * * * * * * * * * * * * * //

dimensions      [0 1 -1 0 0 0 0];

internalField   nonuniform List<vector> 
12225
(
(9.75621 0.0473499 0)
(9.3324 0.0868188 0)
(8.91214 0.0914486 0)
(8.52749 0.0855261 0)
(8.18878 0.0818815 0)
(7.90301 0.070666 0)
(7.66113 0.0523726 0)
(7.45016 0.041564 0)
(7.27114 0.0338864 0)
(7.12094 0.0287962 0)
(7.00423 0.0166709 0)
(6.90176 0.0200584 0)
(6.8193 0.0280259 0)
(6.7541 0.03166 0)
(6.69242 0.0406654 0)
(6.64036 0.0297061 0)
(6.60069 0.0061393 0)
(6.59366 -0.00845308 0)
(10.0811 0.0559964 0)
(10.2277 0.0883772 0)
(10.2998 0.0853328 0)
(10.3153 0.0814986 0)
(10.295 0.0780199 0)
(10.2334 0.0748582 0)
(10.1638 0.0712754 0)
(10.0889 0.0661129 0)
(10.0071 0.060511 0)
(9.92259 0.0547931 0)
(9.83213 0.0522642 0)
(9.75049 0.0468726 0)
(9.65783 0.0399804 0)
(9.57152 0.0358362 0)
(9.48327 0.0307436 0)
(9.40316 0.0287 0)
(9.33228 0.0262868 0)
(9.27152 0.0192498 0)
(10.0244 0.0416918 0)
(10.0775 0.0658496 0)
(10.1271 0.0688646 0)
(10.1614 0.0738597 0)
(10.1903 0.0785468 0)
(10.2138 0.0796118 0)
(10.2297 0.0787732 0)
(10.2381 0.0778256 0)
(10.2403 0.0756081 0)
(10.2374 0.0723158 0)
(10.2291 0.0679939 0)
(10.2172 0.0652996 0)
(10.2033 0.0634751 0)
(10.1879 0.0614399 0)
(10.1723 0.0595251 0)
(10.1569 0.0542417 0)
(10.139 0.0455436 0)
(10.1174 0.0365206 0)
(10.0105 0.0316498 0)
(10.0422 0.0555565 0)
(10.0742 0.0628239 0)
(10.0953 0.0679861 0)
(10.1139 0.0720217 0)
(10.1321 0.072976 0)
(10.1478 0.0715224 0)
(10.1607 0.069927 0)
(10.1715 0.0680709 0)
(10.1804 0.0659462 0)
(10.1874 0.0634359 0)
(10.1928 0.0617532 0)
(10.1977 0.0605666 0)
(10.2027 0.0592011 0)
(10.2079 0.0571724 0)
(10.2126 0.0527354 0)
(10.2149 0.0460636 0)
(10.2142 0.0391242 0)
(10.005 0.0242815 0)
(10.0291 0.0483304 0)
(10.054 0.0575293 0)
(10.0717 0.0626944 0)
(10.0868 0.0663863 0)
(10.1013 0.0676619 0)
(10.1144 0.067075 0)
(10.1255 0.0659969 0)
(10.1354 0.0645174 0)
(10.1441 0.0627468 0)
(10.1518 0.0607558 0)
(10.1586 0.0592225 0)
(10.1654 0.0579485 0)
(10.1724 0.0564064 0)
(10.1796 0.0541037 0)
(10.1864 0.0501633 0)
(10.1916 0.0447967 0)
(10.1949 0.0392333 0)
(10.0032 0.0190631 0)
(10.0214 0.041191 0)
(10.0417 0.0514548 0)
(10.0578 0.0572017 0)
(10.0716 0.0611669 0)
(10.0847 0.0628935 0)
(10.0965 0.0628687 0)
(10.1069 0.0620887 0)
(10.1161 0.0608395 0)
(10.1244 0.0592681 0)
(10.1319 0.0575025 0)
(10.1387 0.0559244 0)
(10.1455 0.0544446 0)
(10.1523 0.0526506 0)
(10.1592 0.0501714 0)
(10.1656 0.04659 0)
(10.1708 0.0421083 0)
(10.1747 0.0374594 0)
(10.0022 0.0153706 0)
(10.0158 0.0349826 0)
(10.0326 0.0455005 0)
(10.0474 0.0516302 0)
(10.0602 0.0557596 0)
(10.0723 0.0578137 0)
(10.0835 0.058218 0)
(10.0934 0.0577507 0)
(10.1023 0.0567705 0)
(10.1104 0.0554409 0)
(10.1178 0.0538931 0)
(10.1246 0.0523542 0)
(10.1313 0.0507658 0)
(10.1378 0.0488481 0)
(10.1442 0.0463531 0)
(10.1501 0.0430988 0)
(10.155 0.0392627 0)
(10.1591 0.03529 0)
(10.0016 0.0127291 0)
(10.0123 0.0305365 0)
(10.0267 0.0409782 0)
(10.0402 0.0471719 0)
(10.0523 0.05126 0)
(10.0637 0.0534673 0)
(10.0743 0.0541481 0)
(10.0839 0.0539228 0)
(10.0927 0.053133 0)
(10.1007 0.0519564 0)
(10.108 0.0505163 0)
(10.1148 0.0489774 0)
(10.1213 0.0473029 0)
(10.1276 0.0453209 0)
(10.1335 0.0428726 0)
(10.139 0.0398934 0)
(10.1438 0.0365222 0)
(10.1478 0.033025 0)
(10.0012 0.0107437 0)
(10.0098 0.026662 0)
(10.0223 0.036822 0)
(10.0347 0.043035 0)
(10.0459 0.0471163 0)
(10.0567 0.0494376 0)
(10.0668 0.0503108 0)
(10.0761 0.050268 0)
(10.0846 0.0496492 0)
(10.0924 0.0486336 0)
(10.0997 0.0473339 0)
(10.1064 0.0458711 0)
(10.1128 0.0442241 0)
(10.1189 0.042272 0)
(10.1247 0.0399212 0)
(10.13 0.0371477 0)
(10.1346 0.0340786 0)
(10.1386 0.0309049 0)
(10.0009 0.008999 0)
(10.0077 0.0229014 0)
(10.0183 0.0325524 0)
(10.0295 0.0386599 0)
(10.0399 0.0426617 0)
(10.05 0.0450335 0)
(10.0595 0.0460653 0)
(10.0684 0.0461853 0)
(10.0766 0.0457255 0)
(10.0842 0.0448505 0)
(10.0913 0.043675 0)
(10.0979 0.0422823 0)
(10.1042 0.0406679 0)
(10.1101 0.0387778 0)
(10.1157 0.0365471 0)
(10.1207 0.0339999 0)
(10.1252 0.0312328 0)
(10.1291 0.0283921 0)
(10.0007 0.00745028 0)
(10.006 0.0193022 0)
(10.0149 0.0282143 0)
(10.0248 0.034074 0)
(10.0344 0.0379101 0)
(10.0436 0.040265 0)
(10.0526 0.0413983 0)
(10.061 0.0416583 0)
(10.0688 0.0413263 0)
(10.0761 0.0405764 0)
(10.083 0.039505 0)
(10.0894 0.0381843 0)
(10.0955 0.0366368 0)
(10.1012 0.0348367 0)
(10.1065 0.0327608 0)
(10.1114 0.03045 0)
(10.1157 0.0279796 0)
(10.1196 0.0254479 0)
(10.0006 0.00606828 0)
(10.0047 0.0158674 0)
(10.012 0.0238161 0)
(10.0206 0.0292672 0)
(10.0293 0.0328534 0)
(10.0378 0.035113 0)
(10.0461 0.0362907 0)
(10.054 0.0366437 0)
(10.0614 0.0364254 0)
(10.0684 0.035778 0)
(10.075 0.0348119 0)
(10.0812 0.0335812 0)
(10.087 0.0321358 0)
(10.0925 0.0304512 0)
(10.0975 0.028563 0)
(10.1022 0.0264847 0)
(10.1063 0.0242982 0)
(10.1101 0.0220637 0)
(10.0004 0.0048237 0)
(10.0037 0.0126598 0)
(10.0097 0.0194453 0)
(10.0171 0.0242981 0)
(10.0248 0.0275286 0)
(10.0326 0.0296024 0)
(10.0402 0.030738 0)
(10.0476 0.0311371 0)
(10.0546 0.0309927 0)
(10.0612 0.0304433 0)
(10.0675 0.0295768 0)
(10.0734 0.0284652 0)
(10.079 0.0271302 0)
(10.0842 0.0256079 0)
(10.089 0.0239035 0)
(10.0934 0.0220697 0)
(10.0974 0.0201528 0)
(10.101 0.0182022 0)
(10.0004 0.00369483 0)
(10.0029 0.0096613 0)
(10.0078 0.0151369 0)
(10.0141 0.0192073 0)
(10.021 0.021961 0)
(10.028 0.023747 0)
(10.035 0.024748 0)
(10.0418 0.0251276 0)
(10.0484 0.0250149 0)
(10.0547 0.0245427 0)
(10.0606 0.0237742 0)
(10.0663 0.022781 0)
(10.0715 0.0215867 0)
(10.0765 0.0202302 0)
(10.081 0.0187298 0)
(10.0852 0.0171384 0)
(10.089 0.015486 0)
(10.0925 0.0138139 0)
(10.0003 0.00264641 0)
(10.0024 0.00682501 0)
(10.0064 0.0108866 0)
(10.0118 0.0140159 0)
(10.0179 0.0161589 0)
(10.0242 0.0175463 0)
(10.0306 0.0183247 0)
(10.0369 0.0185964 0)
(10.0431 0.0184767 0)
(10.049 0.0180381 0)
(10.0546 0.0173617 0)
(10.0599 0.0164781 0)
(10.0649 0.0154373 0)
(10.0696 0.0142533 0)
(10.074 0.0129749 0)
(10.078 0.0116224 0)
(10.0816 0.0102376 0)
(10.085 0.0088353 0)
(10.0002 0.00165045 0)
(10.002 0.00408028 0)
(10.0054 0.00665936 0)
(10.01 0.00870601 0)
(10.0154 0.0100988 0)
(10.0212 0.0109762 0)
(10.0271 0.0114245 0)
(10.0329 0.0115177 0)
(10.0387 0.0113191 0)
(10.0443 0.0108875 0)
(10.0496 0.0102693 0)
(10.0547 0.00949861 0)
(10.0594 0.00860476 0)
(10.0639 0.00761338 0)
(10.068 0.00655297 0)
(10.0719 0.00544704 0)
(10.0754 0.00431982 0)
(10.0787 0.00318668 0)
(10.0002 0.00066345 0)
(10.0017 0.00134074 0)
(10.0047 0.00237172 0)
(10.0089 0.00319649 0)
(10.0139 0.0037106 0)
(10.0192 0.00394998 0)
(10.0247 0.00397567 0)
(10.0302 0.00379881 0)
(10.0357 0.00346899 0)
(10.041 0.00299563 0)
(10.046 0.00241905 0)
(10.0509 0.0017443 0)
(10.0554 0.00100154 0)
(10.0597 0.000197129 0)
(10.0637 -0.000642742 0)
(10.0675 -0.00150959 0)
(10.0709 -0.00238307 0)
(10.0741 -0.00325693 0)
(10.0002 -0.000316184 0)
(10.0017 -0.00135146 0)
(10.0045 -0.001899 0)
(10.0086 -0.00233348 0)
(10.0134 -0.00277564 0)
(10.0185 -0.00321872 0)
(10.0238 -0.00368175 0)
(10.0292 -0.00415662 0)
(10.0345 -0.00466341 0)
(10.0397 -0.00518851 0)
(10.0446 -0.00574927 0)
(10.0493 -0.00632876 0)
(10.0538 -0.00693868 0)
(10.0579 -0.00756037 0)
(10.0619 -0.00820014 0)
(10.0655 -0.00883917 0)
(10.0689 -0.00948247 0)
(10.0721 -0.0101134 0)
(10.0002 -0.00125428 0)
(10.0018 -0.00391987 0)
(10.0048 -0.00596044 0)
(10.009 -0.00758219 0)
(10.014 -0.0089124 0)
(10.0192 -0.00999753 0)
(10.0246 -0.0109032 0)
(10.03 -0.0116583 0)
(10.0354 -0.0123097 0)
(10.0405 -0.0128822 0)
(10.0455 -0.0134096 0)
(10.0501 -0.0139019 0)
(10.0546 -0.0143775 0)
(10.0587 -0.014838 0)
(10.0626 -0.0152917 0)
(10.0663 -0.0157353 0)
(10.0696 -0.0161722 0)
(10.0728 -0.0165985 0)
(10.0002 -0.00217837 0)
(10.002 -0.00645307 0)
(10.0055 -0.0098846 0)
(10.0102 -0.0125691 0)
(10.0155 -0.014651 0)
(10.021 -0.0162807 0)
(10.0267 -0.0175356 0)
(10.0323 -0.018505 0)
(10.0378 -0.0192421 0)
(10.0431 -0.0198261 0)
(10.0481 -0.02029 0)
(10.0529 -0.0206845 0)
(10.0573 -0.0210199 0)
(10.0615 -0.0213278 0)
(10.0654 -0.0216085 0)
(10.0691 -0.0218789 0)
(10.0725 -0.0221352 0)
(10.0756 -0.022386 0)
(10.0003 -0.00315777 0)
(10.0025 -0.0091204 0)
(10.0066 -0.0138902 0)
(10.0119 -0.0174913 0)
(10.0178 -0.020207 0)
(10.0239 -0.0222597 0)
(10.0299 -0.0237854 0)
(10.0359 -0.0248736 0)
(10.0416 -0.0256442 0)
(10.0471 -0.0261793 0)
(10.0523 -0.0265595 0)
(10.0572 -0.0268216 0)
(10.0617 -0.0270165 0)
(10.066 -0.0271589 0)
(10.0699 -0.0272811 0)
(10.0736 -0.0273815 0)
(10.077 -0.0274805 0)
(10.0802 -0.0275693 0)
(10.0004 -0.00426089 0)
(10.0032 -0.0120589 0)
(10.0082 -0.0180991 0)
(10.0145 -0.0224697 0)
(10.0211 -0.0256836 0)
(10.0277 -0.0280652 0)
(10.0343 -0.0297539 0)
(10.0407 -0.0308884 0)
(10.0468 -0.0316172 0)
(10.0525 -0.032062 0)
(10.0579 -0.0323113 0)
(10.0629 -0.0324255 0)
(10.0675 -0.0324552 0)
(10.0719 -0.0324357 0)
(10.0759 -0.0323909 0)
(10.0796 -0.0323371 0)
(10.0831 -0.0322809 0)
(10.0863 -0.0322324 0)
(10.0005 -0.00556881 0)
(10.0042 -0.0153944 0)
(10.0106 -0.0225769 0)
(10.018 -0.027535 0)
(10.0254 -0.0311346 0)
(10.0326 -0.0337502 0)
(10.0398 -0.0355126 0)
(10.0467 -0.0366041 0)
(10.0531 -0.0372283 0)
(10.0592 -0.037537 0)
(10.0648 -0.0376217 0)
(10.0699 -0.0375632 0)
(10.0747 -0.0374129 0)
(10.0792 -0.0372223 0)
(10.0833 -0.0370137 0)
(10.0871 -0.036809 0)
(10.0906 -0.0366126 0)
(10.0938 -0.036434 0)
(10.0007 -0.00718885 0)
(10.0058 -0.0192721 0)
(10.0139 -0.0273488 0)
(10.0225 -0.0326733 0)
(10.0308 -0.0365565 0)
(10.0388 -0.039329 0)
(10.0466 -0.0410821 0)
(10.054 -0.0420631 0)
(10.0609 -0.0425265 0)
(10.0673 -0.0426463 0)
(10.0731 -0.042534 0)
(10.0785 -0.0422764 0)
(10.0835 -0.0419424 0)
(10.0881 -0.0415779 0)
(10.0923 -0.0412164 0)
(10.0962 -0.0408703 0)
(10.0998 -0.0405519 0)
(10.1032 -0.0402604 0)
(10.001 -0.00924287 0)
(10.0081 -0.0238226 0)
(10.0185 -0.0324645 0)
(10.0285 -0.0379232 0)
(10.0376 -0.0419594 0)
(10.0465 -0.044781 0)
(10.0551 -0.0464585 0)
(10.0632 -0.0472887 0)
(10.0706 -0.047568 0)
(10.0774 -0.0474909 0)
(10.0837 -0.0471712 0)
(10.0894 -0.0467068 0)
(10.0947 -0.0461694 0)
(10.0996 -0.0456131 0)
(10.104 -0.0450774 0)
(10.1081 -0.0445827 0)
(10.1119 -0.0441333 0)
(10.1154 -0.043728 0)
(10.0016 -0.0119432 0)
(10.0117 -0.0290065 0)
(10.025 -0.0378757 0)
(10.0366 -0.0434122 0)
(10.0468 -0.0475141 0)
(10.057 -0.050218 0)
(10.0668 -0.0516819 0)
(10.076 -0.0523009 0)
(10.0843 -0.0523745 0)
(10.092 -0.0521052 0)
(10.0991 -0.051601 0)
(10.1055 -0.0509556 0)
(10.1114 -0.0502465 0)
(10.1167 -0.049527 0)
(10.1215 -0.0488433 0)
(10.1259 -0.048218 0)
(10.13 -0.047658 0)
(10.1337 -0.0471509 0)
(10.0029 -0.0162052 0)
(10.0182 -0.0346469 0)
(10.0356 -0.042849 0)
(10.0501 -0.0487838 0)
(10.0632 -0.0534066 0)
(10.0763 -0.0561198 0)
(10.0889 -0.0573083 0)
(10.1004 -0.0575819 0)
(10.1109 -0.0573046 0)
(10.1204 -0.0566705 0)
(10.129 -0.0558074 0)
(10.1367 -0.0548216 0)
(10.1435 -0.053798 0)
(10.1495 -0.0527973 0)
(10.1547 -0.0518781 0)
(10.1593 -0.051058 0)
(10.1634 -0.0503319 0)
(10.1669 -0.0496716 0)
(10.0074 -0.0242171 0)
(10.037 -0.0424478 0)
(10.0648 -0.0478894 0)
(10.0893 -0.0532019 0)
(10.1124 -0.0585509 0)
(10.1345 -0.062107 0)
(10.1546 -0.0638965 0)
(10.1719 -0.0645347 0)
(10.1864 -0.0644307 0)
(10.1982 -0.0637605 0)
(10.2075 -0.0626952 0)
(10.2145 -0.0613824 0)
(10.2193 -0.0599384 0)
(10.2223 -0.0584736 0)
(10.2237 -0.0570852 0)
(10.2237 -0.0558545 0)
(10.2227 -0.0548158 0)
(10.2208 -0.0540583 0)
(10.0404 -0.0347827 0)
(10.1309 -0.0626129 0)
(10.2005 -0.0685879 0)
(10.2487 -0.070971 0)
(10.2812 -0.0725254 0)
(10.2999 -0.0724191 0)
(10.3052 -0.0709253 0)
(10.2989 -0.0687171 0)
(10.2834 -0.0661706 0)
(10.2609 -0.063422 0)
(10.2334 -0.0605784 0)
(10.2024 -0.0577411 0)
(10.169 -0.0549804 0)
(10.134 -0.0523568 0)
(10.0981 -0.0499609 0)
(10.062 -0.0478354 0)
(10.0265 -0.0460068 0)
(9.99237 -0.0449743 0)
(9.89194 -0.0339375 0)
(9.67184 -0.0661558 0)
(9.43185 -0.0782949 0)
(9.182 -0.0822687 0)
(8.94111 -0.0815767 0)
(8.71895 -0.077412 0)
(8.51761 -0.071432 0)
(8.33698 -0.0646368 0)
(8.17659 -0.0576413 0)
(8.03521 -0.0509107 0)
(7.91096 -0.0446533 0)
(7.80193 -0.0389195 0)
(7.7064 -0.0337283 0)
(7.62267 -0.0290902 0)
(7.54911 -0.0249879 0)
(7.48434 -0.0215307 0)
(7.42604 -0.0187975 0)
(7.37354 -0.0170794 0)
(-0.0027922 0.00764203 0)
(-0.0128783 0.0126897 0)
(-0.0266836 0.0137744 0)
(-0.0412266 0.0117058 0)
(-0.0517963 0.00584604 0)
(-0.0508016 -0.00378665 0)
(-0.0348717 -0.0168071 -8.13285e-19)
(-0.00742714 -0.0303862 9.25523e-19)
(0.0282953 -0.0405415 0)
(0.0693334 -0.0454888 5.30908e-19)
(0.112741 -0.0458867 0)
(0.155048 -0.042929 0)
(0.193499 -0.0376879 0)
(0.226422 -0.0309861 -2.59975e-19)
(0.252947 -0.0233944 0)
(0.272653 -0.0152791 0)
(0.2852 -0.00683939 2.24818e-19)
(0.290805 0.00199198 0)
(0.288308 0.0111031 0)
(0.277952 0.0200001 0)
(0.26038 0.0279265 -2.41321e-19)
(0.236245 0.034081 0)
(0.206496 0.0377318 -2.86144e-19)
(0.172566 0.0382468 0)
(0.136334 0.0351962 0)
(0.100119 0.0285788 -4.68446e-19)
(0.0664541 0.0191285 0)
(0.0378032 0.00863689 7.8494e-19)
(0.0158813 -0.000183838 0)
(0.000938204 -0.0053379 -1.32451e-18)
(-0.00833754 -0.00766156 0)
(-0.0128656 -0.00928742 0)
(-0.0113708 -0.0114884 0)
(-0.00356592 -0.0151859 0)
(0.0116855 -0.0208546 0)
(0.034639 -0.0270766 8.28237e-19)
(0.0637527 -0.031487 0)
(0.0946798 -0.0316474 -9.77482e-19)
(0.122271 -0.0272083 0)
(0.142337 -0.019653 7.77749e-19)
(0.153116 -0.0115429 0)
(0.155854 -0.00500243 0)
(0.153152 -0.00135396 -7.65581e-19)
(0.148913 -0.00153918 0)
(0.146238 -0.00640287 -7.92381e-19)
(0.143433 -0.0153586 7.97407e-19)
(0.134083 -0.0232717 0)
(0.110644 -0.020044 8.69044e-19)
(0.0683816 -0.00152743 1.0174e-18)
(-0.00577949 0.0163492 0)
(-0.104662 0.0343524 0)
(-0.211163 0.0574456 0)
(-0.329053 0.0827555 0)
(-0.455462 0.104464 0)
(-0.588504 0.115106 -1.8246e-19)
(-0.724376 0.116736 0)
(-0.857207 0.115464 1.44906e-19)
(-0.985196 0.11071 0)
(-1.10714 0.101554 0)
(-1.2212 0.0941514 -1.14483e-19)
(-1.32673 0.0885521 0)
(-1.4246 0.0785647 1.03165e-19)
(-1.51407 0.0706824 0)
(-1.59626 0.0652723 0)
(-1.67215 0.0590621 0)
(-1.742 0.054077 -8.89402e-20)
(-1.80668 0.0495476 0)
(-1.86677 0.0456411 0)
(-1.92283 0.0422155 -8.2688e-20)
(-1.97535 0.0392087 0)
(-2.02476 0.0365712 -7.95191e-20)
(-2.07139 0.0342196 0)
(-2.11554 0.0321225 0)
(-2.15743 0.0302162 0)
(-2.19725 0.0284819 7.44935e-20)
(-2.23516 0.026874 0)
(-2.27128 0.025383 0)
(-2.3057 0.0239765 7.13939e-20)
(-2.33851 0.022652 7.04399e-20)
(-2.36977 0.0213857 0)
(-2.39954 0.0201792 6.86146e-20)
(-2.42785 0.0190152 0)
(-2.45475 0.0178968 1.33741e-19)
(-2.48026 0.0168109 0)
(-2.50441 0.0157601 1.30359e-19)
(-2.52721 0.0147343 0)
(-2.54868 0.0137331 -1.2704e-19)
(-2.56884 0.0127499 0)
(-2.58769 0.0117821 0)
(-2.60524 0.0108201 0)
(-2.62148 0.00986844 1.20475e-19)
(-2.63642 0.00891199 0)
(-2.65004 0.00794582 -1.17181e-19)
(-2.66231 0.00695977 0)
(-2.67321 0.00594515 1.13847e-19)
(-2.68269 0.00489838 1.12162e-19)
(-2.69071 0.00381513 1.10466e-19)
(-2.69722 0.00271567 0)
(-2.70217 0.00164478 0)
(-2.70548 0.000703744 0)
(-2.70716 -5.37209e-05 0)
(-2.70772 -0.00070488 0)
(-2.70707 -0.00133935 0)
(-2.70525 -0.00195601 0)
(-2.70227 -0.00256917 0)
(-2.69812 -0.00317409 -9.41162e-20)
(-2.69279 -0.00377663 -9.21217e-20)
(-2.68627 -0.00437289 0)
(-2.67857 -0.00496652 0)
(-2.66966 -0.00555514 0)
(-2.65955 -0.00614056 -8.37271e-20)
(-2.64823 -0.00672212 0)
(-2.63569 -0.00729969 0)
(-2.62194 -0.00787428 0)
(-2.60696 -0.00844388 0)
(-2.59076 -0.00901103 7.21592e-20)
(-2.57333 -0.00957207 0)
(-2.55467 -0.0101307 0)
(-2.53479 -0.0106819 -6.45316e-20)
(-2.51369 -0.0112302 6.18567e-20)
(-2.49137 -0.01177 0)
(-2.46784 -0.0123055 5.62891e-20)
(-2.44311 -0.0128313 0)
(-2.4172 -0.0133511 -5.04071e-20)
(-2.3901 -0.01386 0)
(-2.36185 -0.0143606 0)
(-2.33245 -0.0148486 0)
(-2.30192 -0.015325 0)
(-2.2703 -0.0157818 0)
(-2.2376 -0.0162295 6.11516e-20)
(-2.20385 -0.0166521 5.38284e-20)
(-2.16909 -0.0170516 0)
(-2.13332 -0.0174132 0)
(-2.09661 -0.0176835 0)
(-2.05902 -0.0178244 -2.22442e-20)
(-2.02063 -0.0177549 0)
(-1.9815 -0.0175287 0)
(-1.94161 -0.0175891 0)
(-1.90084 -0.0179135 1.33959e-20)
(-1.85928 -0.0181515 -2.3043e-20)
(-1.81699 -0.018379 0)
(-1.77401 -0.0185863 0)
(-1.73041 -0.0187829 -5.3967e-20)
(-1.68621 -0.0189626 -6.49813e-20)
(-1.64144 -0.0191303 0)
(-1.59613 -0.019281 0)
(-1.5503 -0.0194199 1.00387e-19)
(-1.50397 -0.0195466 -1.13053e-19)
(-1.45717 -0.0196653 0)
(-1.40991 -0.0197766 0)
(-1.36221 -0.0198822 -1.54041e-19)
(-1.31411 -0.0199812 0)
(-1.26561 -0.0200766 0)
(-1.21675 -0.02017 -2.00266e-19)
(-1.16755 -0.0202629 0)
(-1.11804 -0.0203597 -2.34585e-19)
(-1.06821 -0.020462 0)
(-1.01808 -0.0205745 0)
(-0.967642 -0.0206984 0)
(-0.916901 -0.0208379 3.13887e-19)
(-0.865843 -0.0209929 0)
(-0.81446 -0.0211661 0)
(-0.762741 -0.0213558 0)
(-0.71068 -0.021564 0)
(-0.658271 -0.0217903 0)
(-0.605508 -0.0220382 0)
(-0.552383 -0.0223093 5.04678e-19)
(-0.498882 -0.0226073 5.40064e-19)
(-0.444992 -0.0229335 0)
(-0.390696 -0.0232888 0)
(-0.335985 -0.0236701 0)
(-0.280863 -0.0240739 -7.14255e-19)
(-0.225359 -0.0245057 0)
(-0.169549 -0.0249488 1.65728e-18)
(-0.113597 -0.0253409 -1.79088e-18)
(-0.0578707 -0.0255392 -1.94029e-18)
(-0.00257006 -0.0251328 2.04785e-18)
(0.0490392 -0.0234355 -2.03529e-18)
(0.106159 -0.0209687 1.97118e-18)
(0.122355 -0.00958434 0)
(-0.000290317 0.0205563 0)
(-0.00580209 0.0358891 0)
(-0.0124154 0.0370353 2.16125e-18)
(-0.0128281 0.0275063 0)
(0.00124432 0.00553276 -2.26042e-18)
(0.030915 -0.0316378 -1.43777e-18)
(0.0701159 -0.0732344 -4.52674e-19)
(0.114857 -0.107278 -3.23079e-19)
(0.161127 -0.128147 0)
(0.205482 -0.135521 -2.11366e-19)
(0.245735 -0.132062 0)
(0.280941 -0.121179 0)
(0.310781 -0.105767 3.15239e-19)
(0.335269 -0.0879178 1.50195e-19)
(0.354633 -0.0689806 -2.92863e-19)
(0.369186 -0.0497325 -2.89529e-19)
(0.379313 -0.0305538 -1.44823e-19)
(0.385192 -0.0115855 0)
(0.387825 0.00719218 0)
(0.387101 0.0255953 0)
(0.382627 0.0432658 -1.53157e-19)
(0.373897 0.0596454 0)
(0.360336 0.073978 4.90555e-19)
(0.341468 0.0852567 0)
(0.317078 0.0923401 0)
(0.28742 0.0941273 1.99257e-19)
(0.253413 0.0898884 0)
(0.21675 0.0797164 -2.5342e-19)
(0.179827 0.0647226 -5.95144e-19)
(0.145607 0.0467403 3.57055e-19)
(0.117261 0.0273914 0)
(0.0981051 0.00753066 0)
(0.0894965 -0.0129362 0)
(0.0929522 -0.0330947 -1.03259e-18)
(0.106506 -0.0531815 -8.62734e-19)
(0.126447 -0.0704178 -3.55945e-19)
(0.14668 -0.0775091 0)
(0.161422 -0.0714071 5.14854e-19)
(0.168256 -0.0552848 0)
(0.16687 -0.0346184 -5.01809e-19)
(0.157976 -0.0160937 0)
(0.142404 -0.00375897 0)
(0.119954 0.00359901 6.40467e-19)
(0.0846294 0.0103709 0)
(0.02666 0.0235831 2.49163e-18)
(-0.0669134 0.054403 -6.31675e-19)
(-0.187202 0.0972557 0)
(-0.318696 0.142111 -2.69589e-19)
(-0.456313 0.185149 -2.00302e-19)
(-0.599878 0.221195 0)
(-0.744968 0.248426 0)
(-0.888094 0.266993 0)
(-1.02694 0.27688 0)
(-1.15775 0.278949 0)
(-1.27893 0.273869 8.39511e-20)
(-1.38891 0.262916 1.57995e-19)
(-1.48687 0.248243 -7.43565e-20)
(-1.57368 0.231317 0)
(-1.65072 0.213012 1.38159e-19)
(-1.71871 0.194569 -6.70232e-20)
(-1.77907 0.177276 0)
(-1.83382 0.161202 -6.29787e-20)
(-1.8834 0.146475 0)
(-1.92906 0.133536 0)
(-1.97117 0.122053 -1.1849e-19)
(-2.0106 0.11203 5.81307e-20)
(-2.04768 0.103284 -1.14407e-19)
(-2.08277 0.0956462 1.12584e-19)
(-2.11613 0.0889567 5.54486e-20)
(-2.14791 0.0830532 0)
(-2.17827 0.0778106 5.39032e-20)
(-2.2073 0.0731015 0)
(-2.23508 0.0688399 0)
(-2.26166 0.0649329 0)
(-2.28709 0.0613274 5.1065e-20)
(-2.3114 0.0579578 0)
(-2.33461 0.054795 9.96977e-20)
(-2.35675 0.0517929 -1.47756e-19)
(-2.37782 0.0489374 -4.86789e-20)
(-2.39784 0.046196 0)
(-2.41682 0.0435631 -4.74907e-20)
(-2.43475 0.0410151 0)
(-2.45166 0.0385502 -9.26352e-20)
(-2.46754 0.0361511 0)
(-2.48239 0.033817 -9.02956e-20)
(-2.49621 0.0315353 1.78144e-19)
(-2.50902 0.0293036 8.79444e-20)
(-2.5208 0.0271152 0)
(-2.53157 0.0249667 0)
(-2.54133 0.0228563 0)
(-2.55007 0.0207839 -8.3165e-20)
(-2.55779 0.018743 0)
(-2.5645 0.0167291 8.07146e-20)
(-2.57019 0.0147319 0)
(-2.57487 0.0127447 -2.34647e-19)
(-2.57857 0.01076 -7.69284e-20)
(-2.58133 0.00876606 -7.56368e-20)
(-2.5832 0.00676339 0)
(-2.58428 0.00477082 0)
(-2.58467 0.00286548 0)
(-2.5844 0.00111168 0)
(-2.58304 -0.000534581 0)
(-2.5806 -0.00214704 -1.34973e-19)
(-2.57703 -0.00372685 -1.32079e-19)
(-2.57233 -0.00528956 0)
(-2.56647 -0.00683069 6.2987e-20)
(-2.55947 -0.00835635 6.14676e-20)
(-2.5513 -0.00986167 0)
(-2.54195 -0.0113503 1.16963e-19)
(-2.53144 -0.0128186 0)
(-2.51973 -0.0142683 -5.54358e-20)
(-2.50684 -0.0156973 0)
(-2.49275 -0.0171052 0)
(-2.47747 -0.0184916 1.00673e-19)
(-2.46097 -0.0198541 0)
(-2.44328 -0.021194 -4.67117e-20)
(-2.42437 -0.0225069 0)
(-2.40426 -0.0237954 0)
(-2.38294 -0.0250539 -4.17159e-20)
(-2.36042 -0.0262857 -3.94257e-20)
(-2.3367 -0.0274842 0)
(-2.31178 -0.0286531 3.60588e-20)
(-2.28569 -0.0297852 0)
(-2.25843 -0.0308842 -3.21046e-20)
(-2.23 -0.0319432 -5.96009e-20)
(-2.20044 -0.0329658 0)
(-2.16975 -0.0339469 0)
(-2.13796 -0.0348891 0)
(-2.10508 -0.035789 0)
(-2.07116 -0.036647 -3.72421e-20)
(-2.03621 -0.0374599 -9.91317e-20)
(-2.00027 -0.0382235 0)
(-1.96336 -0.0389328 0)
(-1.92551 -0.0395954 0)
(-1.88673 -0.0402302 1.31839e-20)
(-1.84706 -0.0408491 0)
(-1.80649 -0.0414514 0)
(-1.76508 -0.0420111 3.27684e-21)
(-1.72291 -0.0424922 6.26233e-21)
(-1.68 -0.042893 1.31977e-20)
(-1.63636 -0.043242 0)
(-1.59206 -0.0435441 0)
(-1.54711 -0.0438126 3.01516e-20)
(-1.50158 -0.0440422 -3.44279e-20)
(-1.45547 -0.0442395 0)
(-1.40882 -0.0443981 0)
(-1.36165 -0.0445244 -5.40467e-20)
(-1.31398 -0.044617 1.79164e-19)
(-1.26583 -0.044684 0)
(-1.21721 -0.0447249 0)
(-1.16816 -0.0447452 7.94817e-20)
(-1.11868 -0.0447412 0)
(-1.06879 -0.0447171 1.83995e-19)
(-1.01853 -0.0446725 -9.80021e-20)
(-0.967906 -0.0446128 0)
(-0.91694 -0.0445408 1.13685e-19)
(-0.865642 -0.0444634 2.40077e-19)
(-0.814019 -0.0443843 0)
(-0.76207 -0.0443101 0)
(-0.709793 -0.0442435 -1.43261e-19)
(-0.657178 -0.0441888 0)
(-0.604215 -0.0441458 3.16068e-19)
(-0.550891 -0.0441142 0)
(-0.4972 -0.0440922 0)
(-0.443132 -0.0440796 0)
(-0.388682 -0.0440778 0)
(-0.33384 -0.0440892 -2.01007e-19)
(-0.278593 -0.0441169 -2.10016e-19)
(-0.222928 -0.0441623 0)
(-0.166829 -0.0442255 0)
(-0.110288 -0.0442991 0)
(-0.0533108 -0.0443665 2.48355e-19)
(0.00407109 -0.0443927 0)
(0.0617991 -0.0443269 -5.17248e-19)
(0.119767 -0.044107 5.18651e-19)
(0.177693 -0.0435974 5.20104e-19)
(0.235498 -0.0424728 5.18496e-19)
(0.290941 -0.0402745 5.24519e-19)
(0.349082 -0.036149 5.26653e-19)
(0.385428 -0.0236591 0)
(0.000292758 0.0233359 0)
(0.000799466 0.0401539 0)
(0.00661541 0.0328082 -2.31278e-18)
(0.0267642 -0.000761404 -1.62424e-18)
(0.0665536 -0.0607688 9.66575e-19)
(0.118153 -0.127014 6.27023e-19)
(0.17108 -0.179464 -3.59055e-22)
(0.21844 -0.209481 0)
(0.257571 -0.21795 0)
(0.288508 -0.210121 0)
(0.312484 -0.191824 0)
(0.330959 -0.167783 0)
(0.34515 -0.141203 -7.17101e-19)
(0.355915 -0.113981 0)
(0.363822 -0.0871309 2.28876e-19)
(0.369246 -0.0611319 2.28345e-19)
(0.372454 -0.0361686 0)
(0.373643 -0.0123133 0)
(0.373068 0.0104665 0)
(0.371054 0.0323402 0)
(0.367862 0.0534444 2.43259e-19)
(0.363662 0.0737014 0)
(0.358363 0.0927284 -2.60797e-19)
(0.351557 0.109754 0)
(0.34254 0.123635 0)
(0.330443 0.132931 0)
(0.314476 0.136139 -6.54207e-19)
(0.294342 0.132061 0)
(0.270637 0.120219 3.89689e-19)
(0.24504 0.101015 -8.71226e-19)
(0.220191 0.0756244 0)
(0.199084 0.0454972 0)
(0.184288 0.0123247 0)
(0.17595 -0.0229063 6.36342e-19)
(0.172504 -0.0564481 5.55452e-19)
(0.167138 -0.0776836 0)
(0.1534 -0.0776693 0)
(0.131409 -0.0597692 -7.62921e-19)
(0.10205 -0.0318819 -7.87773e-19)
(0.0654812 0.00131301 8.78654e-19)
(0.019339 0.0351083 0)
(-0.0468384 0.0667883 0)
(-0.138466 0.105514 0)
(-0.24976 0.154878 0)
(-0.37735 0.209596 -3.99881e-19)
(-0.515642 0.265296 -3.17188e-19)
(-0.657089 0.317971 2.60357e-19)
(-0.795786 0.362759 0)
(-0.927551 0.39813 0)
(-1.04873 0.423052 0)
(-1.15758 0.436558 0)
(-1.25364 0.439185 -1.44629e-19)
(-1.33658 0.432077 0)
(-1.40725 0.416718 0)
(-1.46749 0.394848 -1.20578e-19)
(-1.51955 0.368593 -1.1397e-19)
(-1.56556 0.340277 0)
(-1.60728 0.311665 2.13164e-19)
(-1.64603 0.283894 -1.02441e-19)
(-1.6828 0.257976 9.94979e-20)
(-1.71813 0.234465 0)
(-1.75241 0.213376 0)
(-1.78591 0.194777 0)
(-1.81864 0.178601 0)
(-1.85059 0.164451 8.86138e-20)
(-1.88178 0.152126 1.73987e-19)
(-1.91218 0.14134 8.53434e-20)
(-1.94178 0.131855 -8.38616e-20)
(-1.97054 0.123452 0)
(-1.99844 0.115936 1.62165e-19)
(-2.02548 0.109152 1.59592e-19)
(-2.05165 0.102964 1.57131e-19)
(-2.07692 0.0972646 -1.54764e-19)
(-2.10129 0.091962 0)
(-2.12476 0.0869886 -2.25478e-19)
(-2.14732 0.0822838 0)
(-2.16896 0.0778067 7.2926e-20)
(-2.18968 0.073518 7.20506e-20)
(-2.20947 0.0693939 0)
(-2.22833 0.065409 0)
(-2.24625 0.0615492 1.37961e-19)
(-2.26324 0.0577976 0)
(-2.27928 0.0541455 1.34073e-19)
(-2.29438 0.0505806 0)
(-2.30853 0.0470965 -1.30227e-19)
(-2.32173 0.043684 -2.56701e-19)
(-2.33399 0.0403379 0)
(-2.34529 0.0370516 0)
(-2.35565 0.0338211 0)
(-2.36506 0.030645 -1.20619e-19)
(-2.37352 0.027524 0)
(-2.38103 0.0244552 -1.16741e-19)
(-2.38758 0.0214363 0)
(-2.39318 0.0184641 0)
(-2.39782 0.0155406 2.21652e-19)
(-2.40153 0.0126665 0)
(-2.4043 0.00984994 1.06826e-19)
(-2.40616 0.00709786 0)
(-2.4071 0.00442042 1.02727e-19)
(-2.40707 0.0018038 0)
(-2.40604 -0.00079259 0)
(-2.40394 -0.00338385 0)
(-2.40078 -0.00595025 2.82094e-19)
(-2.39653 -0.00848908 9.17258e-20)
(-2.39118 -0.0109999 0)
(-2.38472 -0.0134826 0)
(-2.37715 -0.0159368 0)
(-2.36844 -0.0183617 0)
(-2.35861 -0.0207571 -8.02437e-20)
(-2.34762 -0.0231214 1.56151e-19)
(-2.33549 -0.0254545 7.54887e-20)
(-2.3222 -0.0277542 -1.46594e-19)
(-2.30775 -0.0300202 -1.41741e-19)
(-2.29212 -0.03225 -6.81703e-20)
(-2.27533 -0.0344427 0)
(-2.25735 -0.0365958 -1.26864e-19)
(-2.2382 -0.0387076 0)
(-2.21786 -0.0407759 1.16664e-19)
(-2.19635 -0.0427983 5.54235e-20)
(-2.17366 -0.0447727 0)
(-2.1498 -0.046696 -1.00898e-19)
(-2.12478 -0.0485663 -4.74012e-20)
(-2.09859 -0.0503796 0)
(-2.07126 -0.0521341 -4.26388e-20)
(-2.04279 -0.0538258 1.17976e-19)
(-2.01321 -0.0554535 0)
(-1.98252 -0.0570136 0)
(-1.95076 -0.0585058 0)
(-1.91793 -0.0599267 0)
(-1.88408 -0.0612756 4.97194e-20)
(-1.84922 -0.062547 4.27158e-20)
(-1.81338 -0.063736 0)
(-1.7766 -0.0648343 0)
(-1.73888 -0.0658415 0)
(-1.70026 -0.0667669 0)
(-1.66078 -0.067619 0)
(-1.62045 -0.0684082 0)
(-1.57932 -0.069146 -2.04891e-21)
(-1.53745 -0.0698118 -1.06617e-21)
(-1.49485 -0.0703833 0)
(-1.45156 -0.0708751 0)
(-1.4076 -0.0712948 -2.79711e-20)
(-1.36303 -0.0716521 0)
(-1.31786 -0.0719473 4.28944e-20)
(-1.27214 -0.0721848 4.87589e-20)
(-1.22587 -0.0723631 0)
(-1.17909 -0.0724871 0)
(-1.13182 -0.0725589 -7.10644e-20)
(-1.08407 -0.0725869 -1.54147e-19)
(-1.03586 -0.0725733 0)
(-0.987207 -0.0725242 0)
(-0.93813 -0.0724375 0)
(-0.888646 -0.0723163 -1.07133e-19)
(-0.838775 -0.072161 1.14454e-19)
(-0.788534 -0.071978 0)
(-0.737939 -0.0717721 2.56107e-19)
(-0.687001 -0.0715529 1.34327e-19)
(-0.635725 -0.0713265 -2.85873e-19)
(-0.584112 -0.0711019 0)
(-0.532159 -0.070884 0)
(-0.479857 -0.0706783 -3.31048e-19)
(-0.427197 -0.0704851 -1.74293e-19)
(-0.374166 -0.0703032 0)
(-0.320755 -0.0701293 0)
(-0.266958 -0.0699622 0)
(-0.212766 -0.0698034 0)
(-0.15817 -0.0696549 -4.23533e-19)
(-0.103159 -0.0695203 0)
(-0.047719 -0.0693998 0)
(0.00816072 -0.0692911 0)
(0.0644908 -0.069181 0)
(0.121274 -0.0690486 0)
(0.17849 -0.0688486 0)
(0.236081 -0.0685162 -4.97006e-19)
(0.293955 -0.0679579 0)
(0.351884 -0.0670059 0)
(0.409854 -0.0653593 -1.03346e-18)
(0.466304 -0.0625137 5.22458e-19)
(0.525113 -0.0574616 -5.33652e-19)
(0.571366 -0.0449199 5.45031e-19)
(-0.00118273 0.0234985 0)
(0.00202072 0.0267678 5.01914e-18)
(0.0238904 -0.015179 0)
(0.072003 -0.0987134 8.6035e-19)
(0.133153 -0.18697 0)
(0.190935 -0.25101 0)
(0.236069 -0.2821 -3.23529e-19)
(0.267324 -0.285247 0)
(0.287519 -0.269958 0)
(0.300304 -0.244609 0)
(0.308578 -0.214703 0)
(0.314173 -0.183293 0)
(0.318072 -0.151907 8.09976e-19)
(0.320728 -0.121248 3.98413e-19)
(0.322304 -0.0916249 -3.9589e-19)
(0.322841 -0.0631747 0)
(0.322353 -0.0359566 0)
(0.320854 -0.0100097 0)
(0.318401 0.0146598 0)
(0.315084 0.0380815 0)
(0.311053 0.0602976 4.28387e-19)
(0.306528 0.0813118 4.40035e-19)
(0.301719 0.10103 -4.56318e-19)
(0.296734 0.11913 4.78509e-19)
(0.291465 0.134961 0)
(0.285552 0.147467 0)
(0.27838 0.155178 5.80256e-19)
(0.269189 0.156364 0)
(0.257403 0.149438 0)
(0.242878 0.133316 7.50151e-19)
(0.226333 0.107814 8.38796e-19)
(0.208936 0.0740356 9.51326e-19)
(0.192095 0.0342842 0)
(0.174728 -0.00657247 0)
(0.149654 -0.03604 -9.55762e-19)
(0.112326 -0.0411151 0)
(0.0645155 -0.0229911 0)
(0.00700702 0.01157 7.61022e-19)
(-0.063392 0.056997 -6.77256e-19)
(-0.149721 0.111478 5.4387e-19)
(-0.250675 0.172533 0)
(-0.365514 0.23577 0)
(-0.490574 0.299596 5.8614e-19)
(-0.620074 0.362697 0)
(-0.74856 0.421343 4.20544e-19)
(-0.87089 0.470423 5.53703e-19)
(-0.982251 0.50779 -4.93876e-19)
(-1.08037 0.533363 2.98667e-19)
(-1.16449 0.546995 0)
(-1.23445 0.549382 0)
(-1.29168 0.541697 2.3721e-19)
(-1.3381 0.525479 1.10622e-19)
(-1.37593 0.502601 0)
(-1.40763 0.474947 0)
(-1.43548 0.444319 9.50362e-20)
(-1.46136 0.412442 1.83792e-19)
(-1.48663 0.380829 0)
(-1.51211 0.350522 -1.69483e-19)
(-1.53821 0.322112 1.65099e-19)
(-1.56508 0.296032 -1.60132e-19)
(-1.59263 0.272455 0)
(-1.62071 0.251314 0)
(-1.64911 0.232491 0)
(-1.67761 0.21582 0)
(-1.70603 0.201029 0)
(-1.73419 0.187893 -1.38339e-19)
(-1.76198 0.176177 0)
(-1.78928 0.165664 0)
(-1.816 0.156162 0)
(-1.84209 0.147501 -2.57178e-19)
(-1.86748 0.139537 -1.26453e-19)