/*--------------------------------*- C++ -*----------------------------------*\
| =========                 |                                                 |
| \\      /  F ield         | OpenFOAM: The Open Source CFD Toolbox           |
|  \\    /   O peration     | Version:  v2012                                 |
|   \\  /    A nd           | Website:  www.openfoam.com                      |
|    \\/     M anipulation  |                                                 |
\*---------------------------------------------------------------------------*/
FoamFile
{
    version     2.0;
    format      ascii;
    class       volScalarField;
    location    "3700";
    object      nut;
}
// * * * * * * * * * * * * * * * * * * * * * * * * * * * * * * * * * * * * * //

dimensions      [0 2 -1 0 0 0 0];


internalField   nonuniform List<scalar> 
12225
(
0.0122671
0.00158819
0.000666128
0.000410104
0.00029404
0.000227808
0.000186418
0.000144348
0.000166368
0.00021571
0.000223838
0.000214196
0.00019517
0.000167532
0.000161399
0.000145527
0.000132317
0.000120123
0.0323823
0.00744532
0.00330638
0.00204329
0.00146802
0.00114429
0.000938661
0.000784866
0.000690383
0.000626893
0.000569548
0.000518714
0.000475213
0.000435566
0.000404974
0.000372249
0.000347116
0.000321092
0.0490123
0.01515
0.00728196
0.00457854
0.00330639
0.00258047
0.00211327
0.00178187
0.00154675
0.0013725
0.00123146
0.00111528
0.00101835
0.000936101
0.00086669
0.00080429
0.000753562
0.000700994
0.063054
0.0237783
0.0122894
0.00788814
0.00573397
0.00448496
0.0036744
0.00310418
0.00268716
0.00236996
0.0021179
0.00191315
0.00174401
0.00160221
0.00148242
0.0013786
0.00129107
0.00120452
0.074932
0.0328517
0.0181452
0.0119262
0.00874549
0.00686412
0.00563086
0.00476129
0.00411868
0.0036257
0.00323515
0.00291874
0.00265799
0.00244004
0.00225596
0.00209832
0.00196334
0.00183979
0.0849536
0.0420208
0.0246655
0.0166359
0.0123325
0.00972587
0.0079954
0.0067674
0.00585403
0.00515004
0.0045919
0.00413982
0.00376742
0.00345634
0.00319351
0.00296906
0.00277612
0.00260656
0.0933822
0.0510219
0.0316642
0.0219415
0.016474
0.0130717
0.0107779
0.00913539
0.00790597
0.00695436
0.00619832
0.00558531
0.00508009
0.00465801
0.00430136
0.00399702
0.00373534
0.00350913
0.0993794
0.0583363
0.0378386
0.0268568
0.0204171
0.0163053
0.0134892
0.011453
0.00991905
0.0087267
0.00777696
0.00700569
0.00636943
0.00583762
0.00538815
0.00500468
0.00467515
0.00439182
0.104023
0.0645454
0.0433804
0.0314239
0.0241571
0.0194092
0.0161097
0.0137018
0.0118767
0.0104523
0.00931473
0.00838939
0.00762524
0.00698615
0.00644586
0.00598491
0.00558899
0.00524916
0.108368
0.0708939
0.0493757
0.0365496
0.0284517
0.0230231
0.0191863
0.0163548
0.0141927
0.0124969
0.0111382
0.0100305
0.00911456
0.00834784
0.00769936
0.00714607
0.00667097
0.00626328
0.112368
0.0772557
0.0557282
0.0421918
0.0332976
0.0271652
0.0227468
0.0194433
0.0168984
0.0148904
0.013275
0.0119546
0.0108606
0.00994396
0.00916815
0.00850607
0.00793759
0.0074494
0.115994
0.0834975
0.0623053
0.0482611
0.0386474
0.0318167
0.026789
0.0229739
0.0200047
0.0176452
0.0157379
0.0141737
0.012875
0.0117851
0.010862
0.0100738
0.0093969
0.00881485
0.119234
0.0894856
0.0689377
0.0546109
0.0443919
0.0369007
0.0312597
0.0269089
0.0234837
0.02074
0.0185097
0.0166735
0.015145
0.0138601
0.0127705
0.0118397
0.0110398
0.010351
0.122086
0.095084
0.075415
0.0610223
0.0503361
0.0422535
0.0360231
0.0311353
0.0272402
0.0240931
0.0215191
0.0193909
0.0176141
0.0161175
0.0148467
0.0137601
0.0128258
0.0120197
0.124546
0.100135
0.0814619
0.0671726
0.056158
0.047577
0.0408126
0.0354174
0.031066
0.0275197
0.0246013
0.0221778
0.0201482
0.018435
0.0169783
0.0157315
0.0146584
0.0137312
0.126578
0.104396
0.0866605
0.0725515
0.0613228
0.0523526
0.0451453
0.0393148
0.0345631
0.0306611
0.0274325
0.024741
0.0224806
0.020569
0.0189413
0.0175468
0.0163455
0.0153062
0.128011
0.107322
0.0902141
0.0762353
0.0648743
0.0556509
0.0481493
0.0420254
0.0370012
0.0328553
0.0294126
0.0265352
0.0241143
0.0220643
0.0203171
0.0188191
0.0175275
0.0164083
0.128006
0.107313
0.0902048
0.0762269
0.0648674
0.0556454
0.048145
0.0420221
0.0369988
0.0328537
0.0294117
0.0265349
0.0241147
0.0220651
0.0203184
0.0188205
0.0175286
0.0164082
0.126509
0.104255
0.0864922
0.0723807
0.0611613
0.052205
0.0450128
0.0391967
0.0344584
0.0305685
0.0273506
0.0246684
0.0224163
0.0205118
0.0188902
0.0175006
0.0163023
0.015263
0.124267
0.0995604
0.0807712
0.0664676
0.0554886
0.0469631
0.0402594
0.0349227
0.0306248
0.0271258
0.0242487
0.0218611
0.0198625
0.0181762
0.0167425
0.0155151
0.0144574
0.0135404
0.12136
0.0936399
0.0737261
0.0593348
0.0487592
0.0408248
0.0347467
0.0300003
0.0262308
0.0231928
0.0207127
0.018665
0.0169572
0.0155197
0.0142998
0.0132566
0.0123582
0.0115797
0.117686
0.0865903
0.0656967
0.0514791
0.0415374
0.0343608
0.0290183
0.0249322
0.0217348
0.0191848
0.0171184
0.0154211
0.0140105
0.0128262
0.0118228
0.0109656
0.0102279
0.00958885
0.11305
0.0784122
0.056921
0.0432687
0.0342296
0.0279652
0.0234365
0.0200435
0.0174263
0.0153598
0.0136966
0.012337
0.0112107
0.0102671
0.00946864
0.00878715
0.00820096
0.00769338
0.107169
0.0691009
0.0476372
0.035029
0.0271566
0.021922
0.0182437
0.0155401
0.0134818
0.0118708
0.0105819
0.00953231
0.00866515
0.00793988
0.00732684
0.00680388
0.00635417
0.00596493
0.0996761
0.0587036
0.0381279
0.0270699
0.0205782
0.0164329
0.0135949
0.0115437
0.00999935
0.00879953
0.00784422
0.00706853
0.0064288
0.00589439
0.00544291
0.0050579
0.00472681
0.00444034
0.0901097
0.0473665
0.0287363
0.0196847
0.0146976
0.0116311
0.0095785
0.0081152
0.0070235
0.0061808
0.00551234
0.00497024
0.00452344
0.0041504
0.00383508
0.00356627
0.00333503
0.00313489
0.0779076
0.0353826
0.0198606
0.0131383
0.00966106
0.00759295
0.00623349
0.0052741
0.00456425
0.00402037
0.00359042
0.00324082
0.00295208
0.002711
0.00250631
0.00233212
0.00218214
0.0020517
0.06238
0.0232554
0.0119461
0.00765493
0.00556337
0.00435253
0.0035672
0.00301615
0.00261331
0.00231035
0.00207203
0.00187472
0.00171019
0.00157274
0.00145387
0.00135309
0.00126655
0.00118898
0.0426105
0.0117794
0.0054693
0.00341385
0.0024607
0.00192004
0.00157266
0.00132942
0.0011583
0.00104122
0.000949602
0.000864879
0.000792452
0.000729136
0.000673689
0.000621454
0.00058258
0.000544873
0.0168348
0.00255985
0.00110002
0.000683429
0.000493725
0.000386811
0.000318009
0.000268388
0.000267508
0.000336008
0.000374959
0.000353058
0.000323713
0.000278731
0.000284776
0.000227357
0.000262423
0.000259317
5.28882e-10
1.01554e-07
1.14789e-06
5.16893e-06
9.86224e-06
1.28045e-05
1.31255e-05
1.11719e-05
8.8499e-06
5.76991e-06
3.39812e-06
1.93993e-06
1.35869e-06
1.47292e-06
2.01024e-06
2.47928e-06
2.41188e-06
1.63505e-06
7.32239e-07
3.70924e-07
4.11299e-07
1.21987e-06
5.51726e-06
2.83752e-05
5.71742e-05
7.49957e-05
9.1386e-05
0.000105181
0.000117322
0.000127436
0.000136295
0.000143909
0.00015057
0.000156372
0.000161435
0.000165904
0.000169865
0.000173405
0.000176578
0.000179429
0.000181987
0.000184274
0.000186309
0.000188108
0.000189685
0.000191052
0.00019222
0.000193196
0.000193977
0.000194561
0.000194823
0.000195072
0.000195121
0.000194993
0.000194693
0.000194246
0.000193646
0.000192898
0.000192004
0.000190964
0.000189782
0.00018846
0.000186999
0.000185402
0.000183673
0.000181812
0.000179821
0.000177703
0.000175459
0.000173093
0.000170606
0.000168
0.000165277
0.000162438
0.000159484
0.000156416
0.000153234
0.000149937
0.000146525
0.000142996
0.000139348
0.000135579
0.000131687
0.000127667
0.000123513
0.000119216
0.000114762
0.000110134
0.000105309
0.000100259
9.49583e-05
8.93801e-05
8.35203e-05
7.7448e-05
7.14432e-05
6.61808e-05
6.24495e-05
6.01241e-05
5.83762e-05
5.67714e-05
5.51954e-05
5.36271e-05
5.20651e-05
5.05109e-05
4.89664e-05
4.74337e-05
4.59154e-05
4.44179e-05
4.29695e-05
4.17367e-05
4.05324e-05
3.9343e-05
3.81708e-05
3.70165e-05
3.58809e-05
3.4765e-05
3.36694e-05
3.25949e-05
3.15421e-05
3.05113e-05
2.95031e-05
2.85179e-05
2.75562e-05
2.66186e-05
2.5705e-05
2.48154e-05
2.39508e-05
2.31416e-05
2.24076e-05
2.16922e-05
2.09916e-05
2.03145e-05
1.96653e-05
1.90301e-05
1.84092e-05
1.78055e-05
1.72197e-05
1.66521e-05
1.61025e-05
1.55707e-05
1.50561e-05
1.45584e-05
1.40771e-05
1.36117e-05
1.31619e-05
1.27273e-05
1.23073e-05
1.19017e-05
1.15101e-05
1.1132e-05
1.07672e-05
1.04153e-05
1.0076e-05
9.74888e-06
9.43368e-06
9.13015e-06
8.83794e-06
8.55687e-06
8.28665e-06
8.02712e-06
7.77804e-06
7.53929e-06
7.31063e-06
7.09194e-06
6.88297e-06
6.68349e-06
6.49317e-06
6.31159e-06
6.13821e-06
5.9723e-06
5.81292e-06
5.659e-06
5.50846e-06
5.36119e-06
5.20782e-06
5.06403e-06
4.86077e-06
4.71893e-06
4.30459e-06
3.68157e-06
3.34187e-09
6.03688e-06
6.15632e-05
0.00013785
0.000181891
0.000206005
0.00021553
0.000214032
0.000205559
0.000188734
0.000167826
0.000147719
0.000137596
0.000143063
0.000156899
0.000165309
0.000167417
0.000168286
0.000173762
0.00018353
0.000199755
0.000218056
0.000235156
0.000251135
0.000262449
0.000272236
0.000281081
0.000294255
0.000313149
0.000327054
0.000339729
0.000350615
0.000360517
0.000369573
0.000377448
0.00038464
0.00039134
0.00039777
0.000404062
0.000410277
0.000416413
0.000422424
0.00042826
0.000433879
0.000439252
0.000444365
0.0004492
0.000453747
0.000458006
0.000461983
0.000465688
0.000469142
0.000472335
0.000475275
0.000477965
0.000480406
0.000482598
0.000484542
0.000486239
0.000487689
0.000488892
0.00048985
0.000490565
0.000491041
0.000491289
0.000491313
0.000491108
0.00049067
0.000490017
0.00048915
0.000488077
0.000486804
0.000485337
0.000483684
0.000481851
0.000479845
0.000477675
0.000475346
0.000472867
0.000470246
0.000467491
0.00046461
0.000461611
0.000458504
0.000455295
0.000451994
0.000448609
0.000445146
0.000441613
0.000438018
0.000434367
0.000430665
0.000426913
0.000423103
0.000419215
0.000415224
0.000411113
0.000406912
0.000402671
0.000398415
0.00039415
0.000389881
0.000385611
0.000381344
0.000377083
0.000372831
0.000368592
0.000364367
0.000360157
0.000355959
0.000351784
0.000347636
0.000343518
0.000339431
0.000335377
0.000331357
0.000327374
0.000323428
0.000319521
0.000315654
0.000311828
0.000308044
0.000304302
0.000300605
0.000296953
0.000293345
0.000289782
0.000286261
0.000282782
0.000279349
0.000275958
0.000272618
0.000269332
0.000266081
0.000262867
0.000259694
0.000256566
0.000253482
0.000250443
0.000247449
0.0002445
0.000241594
0.000238732
0.000235911
0.000233133
0.000230395
0.000227698
0.000225041
0.000222424
0.000219845
0.000217306
0.000214806
0.000212345
0.000209922
0.000207538
0.000205193
0.000202887
0.000200621
0.000198395
0.000196211
0.000194071
0.000191975
0.000189926
0.000187926
0.000185975
0.000184076
0.00018223
0.000180437
0.000178697
0.000177009
0.000175367
0.000173771
0.000172201
0.000170688
0.000169098
0.000167756
0.000165714
0.000165123
0.000162068
0.00016059
7.63219e-08
3.98436e-05
0.000162902
0.00024562
0.000298887
0.000329083
0.000339972
0.000336958
0.000323965
0.000304623
0.000284922
0.000272519
0.000270565
0.000277536
0.000288077
0.000299116
0.000312178
0.000329341
0.000350992
0.000376352
0.000403783
0.000431999
0.00047127
0.000517448
0.000563045
0.000607122
0.000650179
0.000693824
0.000732889
0.000763965
0.000788802
0.000808497
0.000824114
0.00083651
0.000846465
0.00085475
0.000862063
0.000869044
0.000876226
0.000883961
0.000892353
0.000901276
0.000910491
0.000919763
0.000928915
0.000937829
0.000946428
0.000954665
0.000962503
0.000969915
0.000976874
0.00098336
0.000989361
0.000994873
0.000999896
0.00100443
0.00100847
0.00101201
0.00101507
0.00101763
0.00101969
0.00102127
0.00102235
0.00102289
0.00102305
0.00102276
0.00102197
0.00102072
0.00101904
0.00101692
0.00101438
0.00101143
0.00100809
0.00100438
0.00100029
0.000995861
0.000991092
0.000986002
0.000980607
0.00097492
0.000968957
0.000962735
0.000956267
0.000949569
0.000942657
0.000935546
0.000928249
0.000920781
0.000913156
0.000905386
0.000897483
0.000889459
0.000881323
0.000873084
0.000864749
0.000856328
0.000847834
0.000839283
0.000830691
0.000822071
0.000813434
0.000804789
0.000796144
0.000787507
0.000778884
0.000770283
0.00076171
0.000753171
0.000744672
0.000736218
0.000727815
0.000719469
0.000711183
0.000702962
0.000694809
0.000686728
0.000678722
0.000670794
0.000662947
0.000655182
0.000647501
0.000639907
0.000632402
0.000624987
0.000617664
0.000610433
0.000603293
0.000596247
0.000589294
0.000582436
0.000575672
0.000569003
0.000562427
0.000555938
0.000549536
0.000543223
0.000537001
0.000530871
0.000524832
0.000518884
0.000513027
0.000507259
0.000501579
0.000495986
0.000490479
0.000485057
0.000479718
0.000474461
0.000469285
0.000464189
0.000459172
0.000454234
0.000449372
0.000444586
0.000439875
0.000435237
0.000430672
0.000426178
0.000421754
0.000417399
0.000413111
0.000408889
0.00040473
0.000400634
0.000396596
0.000392615
0.000388685
0.000384801
0.000380958
0.000377146
0.000373353
0.000369566
0.000365758
0.000361917
0.000357947
0.000353942
0.000349408
0.000345157
0.000338604
0.00032689
6.16202e-07
8.21596e-05
0.000213018
0.000308838
0.000372272
0.000409354
0.000424642
0.00042486
0.000414764
0.000401437
0.000393601
0.000393032
0.000402627
0.000420119
0.000443108
0.00047109
0.000504649
0.000544057
0.000588478
0.000652269
0.000726369
0.000806322
0.000890199
0.000960465
0.00102263
0.00107853
0.00112874
0.00117346
0.00121254
0.00124627
0.00127539
0.00130062
0.00132267
0.00134216
0.00135966
0.00137565
0.00139056
0.00140472
0.00141837
0.00143172
0.00144489
0.00145794
0.00147089
0.00148375
0.00149644
0.00150889
0.00152102
0.00153272
0.00154391
0.0015545
0.00156445
0.00157372
0.00158229
0.00159015
0.00159728
0.00160369
0.00160936
0.0016143
0.00161849
0.00162195
0.00162467
0.00162665
0.00162781
0.00162824
0.00162811
0.0016272
0.00162557
0.00162325
0.00162025
0.00161659
0.00161229
0.00160737
0.00160185
0.00159574
0.00158908
0.00158189
0.00157418
0.00156598
0.00155731
0.0015482
0.00153867
0.00152874
0.00151843
0.00150778
0.00149679
0.0014855
0.00147392
0.00146208
0.00145001
0.00143771
0.00142521
0.00141252
0.00139967
0.00138667
0.00137354
0.00136029
0.00134694
0.00133351
0.00132002
0.00130648
0.00129292
0.00127935
0.00126578
0.00125222
0.00123868
0.00122518
0.00121173
0.00119832
0.00118499
0.00117172
0.00115853
0.00114543
0.00113243
0.00111952
0.00110673
0.00109404
0.00108147
0.00106902
0.0010567
0.00104451
0.00103244
0.00102051
0.00100872
0.00099707
0.000985559
0.00097419
0.000962965
0.000951884
0.000940949
0.000930159
0.000919516
0.000909019
0.000898665
0.000888451
0.000878375
0.000868438
0.000858643
0.000848988
0.000839475
0.000830102
0.000820868
0.000811772
0.000802812
0.000793987
0.000785295
0.000776733
0.000768301
0.000759995
0.000751816
0.00074376
0.000735826
0.000728013
0.000720318
0.00071274
0.000705276
0.000697926
0.000690687
0.000683557
0.000676534
0.000669615
0.000662799
0.000656083
0.000649464
0.000642938
0.000636501
0.000630148
0.000623874
0.00061767
0.000611528
0.000605435
0.000599374
0.000593325
0.000587257
0.000581136
0.000574888
0.000568488
0.000561656
0.000554653
0.000546198
0.000529942
1.39953e-06
0.000101866
0.000234935
0.000354665
0.00043329
0.000480509
0.000503942
0.000512345
0.000513978
0.000515201
0.000522452
0.000539023
0.000565488
0.000600856
0.00064436
0.000696041
0.000756704
0.000840603
0.000936678
0.00103243
0.0011212
0.00120536
0.00128444
0.00135689
0.00142343
0.00148464
0.00154093
0.00159262
0.00164008
0.00168373
0.00172406
0.00176155
0.00179662
0.00182964
0.00186094
0.00189075
0.00191927
0.00194663
0.00197294
0.00199825
0.0020226
0.002046
0.00206843
0.00208989
0.00211035
0.00212978
0.00214814
0.00216541
0.00218157
0.00219658
0.00221045
0.00222318
0.00223477
0.00224524
0.0022546
0.00226289
0.0022701
0.00227626
0.00228139
0.00228549
0.00228858
0.00229063
0.00229154
0.00229163
0.00229075
0.00228887
0.00228604
0.00228226
0.00227757
0.00227199
0.00226554
0.00225825
0.00225015
0.00224127
0.00223163
0.00222128
0.00221023
0.00219853
0.00218619
0.00217326
0.00215976
0.00214573
0.00213119
0.00211618
0.00210072
0.00208486
0.00206861
0.00205201
0.00203509
0.00201787
0.00200039
0.00198266
0.00196472
0.00194658
0.00192827
0.00190981
0.00189123
0.00187255
0.0018538
0.00183498
0.00181614
0.00179728
0.00177843
0.00175959
0.00174079
0.00172204
0.00170335
0.00168474
0.00166622
0.00164781
0.0016295
0.00161131
0.00159325
0.00157534
0.00155757
0.00153995
0.00152249
0.00150521
0.00148809
0.00147115
0.00145439
0.00143781
0.00142142
0.00140523
0.00138922
0.00137341
0.0013578
0.00134238
0.00132717
0.00131215
0.00129734
0.00128272
0.0012683
0.00125407
0.00124003
0.00122619
0.00121254
0.00119908
0.00118581
0.00117273
0.00115985
0.00114715
0.00113464
0.00112231
0.00111016
0.00109819
0.00108639
0.00107477
0.00106332
0.00105203
0.00104091
0.00102996
0.00101917
0.00100853
0.000998052
0.000987725
0.000977548
0.000967519
0.000957634
0.00094789
0.000938285
0.000928815
0.000919475
0.000910262
0.00090117
0.000892193
0.000883324
0.000874553
0.000865869
0.000857257
0.000848699
0.000840168
0.000831632
0.000823047
0.000814342
0.000805458
0.000796189
0.000786572
0.000776404
0.000756625
2.32581e-06
0.000118226
0.000256261
0.000389875
0.000486691
0.000548394
0.000586145
0.000609634
0.000627568
0.000647204
0.000673744
0.000709777
0.000756005
0.000812695
0.000880393
0.00097131
0.00107671
0.00117836
0.00127746
0.00137272
0.0014632
0.00154898
0.00163001
0.00170627
0.00177805
0.0018457
0.00190957
0.00196999
0.00202729
0.00208179
0.00213383
0.00218368
0.0022316
0.00227779
0.00232241
0.00236559
0.0024074
0.0024479
0.00248714
0.0025251
0.00256179
0.00259719
0.00263127
0.00266399
0.00269532
0.00272521
0.00275363
0.00278053
0.00280589
0.00282965
0.0028518
0.00287232
0.00289119
0.00290839
0.00292392
0.00293779
0.00294999
0.00296053
0.00296942
0.00297669
0.00298234
0.00298642
0.00298885
0.00298975
0.00298928
0.00298731
0.00298397
0.00297926
0.00297326
0.00296601
0.00295756
0.00294796
0.00293727
0.00292554
0.00291282
0.00289915
0.00288459
0.00286917
0.00285294
0.00283595
0.00281823
0.00279984
0.0027808
0.00276117
0.00274098
0.00272026
0.00269907
0.00267744
0.00265541
0.00263301
0.00261027
0.00258724
0.00256395
0.00254042
0.00251668
0.00249277
0.00246871
0.00244454
0.00242028
0.00239596
0.0023716
0.00234723
0.00232286
0.00229853
0.00227425
0.00225003
0.0022259
0.00220187
0.00217796
0.00215418
0.00213055
0.00210707
0.00208376
0.00206063
0.00203769
0.00201494
0.0019924
0.00197008
0.00194797
0.00192609
0.00190444
0.00188303
0.00186185
0.00184092
0.00182023
0.0017998
0.00177961
0.00175967
0.00173999
0.00172055
0.00170137
0.00168245
0.00166377
0.00164534
0.00162716
0.00160922
0.00159152
0.00157407
0.00155686
0.0015399
0.00152317
0.00150668
0.00149042
0.00147439
0.0014586
0.00144302
0.00142767
0.00141254
0.00139762
0.00138291
0.00136842
0.00135413
0.00134004
0.00132615
0.00131245
0.00129895
0.00128563
0.0012725
0.00125956
0.00124679
0.00123419
0.00122177
0.00120951
0.0011974
0.00118546
0.00117366
0.001162
0.00115046
0.00113904
0.00112773
0.00111648
0.0011053
0.00109412
0.00108292
0.00107161
0.00106014
0.00104831
0.00103615
0.00102386
0.00100142
2.7944e-06
0.000126786
0.000269168
0.000407471
0.000526052
0.000607449
0.000663622
0.000705729
0.000743016
0.000782724
0.000829872
0.000887364
0.000956923
0.00104968
0.00115696
0.0012636
0.00136967
0.00147292
0.00157283
0.00166901
0.00176122
0.00184947
0.00193386
0.00201455
0.00209179
0.00216585
0.002237
0.00230552
0.00237165
0.00243563
0.00249768
0.00255796
0.00261663
0.0026738
0.00272956
0.00278396
0.00283704
0.0028888
0.00293925
0.00298836
0.0030361
0.00308244
0.00312733
0.00317072
0.00321256
0.0032528
0.00329138
0.00332826
0.00336337
0.00339668
0.00342815
0.00345772
0.00348537
0.00351107
0.00353479
0.00355652
0.00357622
0.00359391
0.00360956
0.00362318
0.00363478
0.00364437
0.00365194
0.00365756
0.00366122
0.00366283
0.00366275
0.00366076
0.00365699
0.00365147
0.00364426
0.00363542
0.003625
0.00361307
0.00359969
0.00358492
0.00356883
0.00355149
0.00353295
0.0035133
0.0034926
0.00347091
0.0034483
0.00342484
0.00340059
0.00337561
0.00334997
0.00332371
0.0032969
0.0032696
0.00324184
0.00321369
0.00318518
0.00315636
0.00312728
0.00309797
0.00306847
0.00303882
0.00300906
0.00297921
0.00294931
0.00291939
0.00288948
0.0028596
0.00282978
0.00280004
0.0027704
0.00274088
0.00271151
0.00268229
0.00265325
0.0026244
0.00259575
0.00256732
0.00253912
0.00251115
0.00248344
0.00245598
0.00242879
0.00240187
0.00237523
0.00234887
0.0023228
0.00229703
0.00227155
0.00224637
0.00222149
0.00219692
0.00217265
0.00214868
0.00212502
0.00210166
0.0020786
0.00205585
0.00203338
0.00201122
0.00198935
0.00196777
0.00194649
0.00192549
0.00190478
0.00188436
0.00186422
0.00184435
0.00182476
0.00180544
0.00178638
0.00176759
0.00174905
0.00173077
0.00171274
0.00169496
0.00167742
0.00166012
0.00164305
0.00162622
0.00160961
0.00159323
0.00157706
0.00156111
0.00154537
0.00152983
0.0015145
0.00149935
0.0014844
0.00146962
0.00145502
0.00144058
0.00142628
0.00141211
0.00139805
0.00138406
0.00137012
0.00135616
0.00134214
0.00132797
0.00131349
0.00129875
0.0012837
0.00125946
2.93946e-06
0.000128666
0.000270495
0.000406982
0.000537584
0.000641161
0.000718464
0.000780054
0.000836114
0.000894355
0.000962785
0.0010554
0.00116556
0.00128709
0.0014026
0.0015138
0.00162154
0.00172599
0.0018271
0.00192482
0.00201916
0.00211021
0.00219812
0.00228307
0.0023653
0.00244501
0.00252244
0.00259779
0.00267126
0.00274302
0.00281321
0.00288194
0.0029493
0.00301537
0.00308018
0.00314375
0.00320608
0.00326716
0.00332695
0.00338541
0.00344251
0.00349818
0.00355236
0.00360499
0.003656
0.00370534
0.00375293
0.00379871
0.00384262
0.0038846
0.0039246
0.00396256
0.00399844
0.00403219
0.00406379
0.00409318
0.00412036
0.00414529
0.00416796
0.00418836
0.00420649
0.00422234
0.00423592
0.00424725
0.00425634
0.00426321
0.00426793
0.00427039
0.00427082
0.00426918
0.00426551
0.00425987
0.0042523
0.00424287
0.00423164
0.00421867
0.00420402
0.00418777
0.00416997
0.0041507
0.00413004
0.00410805
0.0040848
0.00406037
0.00403483
0.00400825
0.00398071
0.00395227
0.00392299
0.00389296
0.00386223
0.00383087
0.00379894
0.0037665
0.0037336
0.0037003
0.00366666
0.00363273
0.00359855
0.00356418
0.00352965
0.00349502
0.00346032
0.00342559
0.00339086
0.00335616
0.00332153
0.003287
0.00325259
0.00321832
0.00318422
0.00315031
0.00311661
0.00308314
0.00304991
0.00301693
0.00298423
0.0029518
0.00291967
0.00288785
0.00285633
0.00282513
0.00279426
0.00276371
0.00273351
0.00270364
0.00267411
0.00264493
0.0026161
0.00258761
0.00255947
0.00253168
0.00250424
0.00247714
0.00245039
0.00242397
0.0023979
0.00237216
0.00234676
0.00232169
0.00229696
0.00227255
0.00224847
0.00222471
0.00220126
0.00217813
0.00215531
0.00213279
0.00211057
0.00208865
0.00206702
0.00204567
0.00202461
0.00200383
0.00198332
0.00196308
0.0019431
0.00192339
0.00190393
0.00188472
0.00186576
0.00184704
0.00182855
0.00181029
0.00179226
0.00177444
0.00175682
0.0017394
0.00172215
0.00170506
0.00168811
0.00167126
0.00165448
0.00163771
0.0016209
0.00160397
0.00158677
0.00156938
0.00155142
0.00152528
2.7553e-06
0.00012516
0.000263803
0.000395337
0.000519873
0.000632152
0.00072609
0.000807576
0.000891492
0.000987416
0.00109723
0.00122235
0.00135883
0.00148625
0.00160646
0.00172138
0.001832
0.00193865
0.00204167
0.00214142
0.00223811
0.00233195
0.00242314
0.00251189
0.00259839
0.00268286
0.00276549
0.00284645
0.00292589
0.00300394
0.0030807
0.00315626
0.00323068
0.00330398
0.00337618
0.00344726
0.00351722
0.00358601
0.00365358
0.00371987
0.00378483
0.00384837
0.00391044
0.00397094
0.0040298
0.00408694
0.00414229
0.00419577
0.00424731
0.00429683
0.00434428
0.00438959
0.0044327
0.00447357
0.00451215
0.00454839
0.00458227
0.00461375
0.00464281
0.00466943
0.00469361
0.00471534
0.00473462
0.00475145
0.00476585
0.00477784
0.00478745
0.00479468
0.00479962
0.00480219
0.00480257
0.00480076
0.0047968
0.00479073
0.00478263
0.00477255
0.00476055
0.0047467
0.00473106
0.0047137
0.00469469
0.00467411
0.00465202
0.00462849
0.00460361
0.00457744
0.00455005
0.00452153
0.00449193
0.00446134
0.00442981
0.00439743
0.00436426
0.00433035
0.00429578
0.00426062
0.00422491
0.00418873
0.00415212
0.00411515
0.00407787
0.00404033
0.00400258
0.00396466
0.00392662
0.00388851
0.00385035
0.00381219
0.00377407
0.00373601
0.00369805
0.00366021
0.00362253
0.00358502
0.00354771
0.00351062
0.00347377
0.00343718
0.00340086
0.00336483
0.0033291
0.00329369
0.0032586
0.00322384
0.00318943
0.00315536
0.00312164
0.00308829
0.0030553
0.00302268
0.00299043
0.00295855
0.00292704
0.0028959
0.00286513
0.00283473
0.0028047
0.00277505
0.00274575
0.00271683
0.00268827
0.00266007
0.00263222
0.00260473
0.00257759
0.0025508
0.00252435
0.00249824
0.00247247
0.00244702
0.0024219
0.00239711
0.00237263
0.00234846
0.0023246
0.00230105
0.00227779
0.00225483
0.00223216
0.00220977
0.00218766
0.00216583
0.00214426
0.00212296
0.00210191
0.00208111
0.00206054
0.00204019
0.00202005
0.0020001
0.00198031
0.00196065
0.00194108
0.00192155
0.001902
0.00188234
0.00186245
0.00184239
0.00182164
0.0017933
2.33907e-06
0.000117868
0.000252634
0.000380648
0.000503525
0.000620028
0.000731019
0.000840499
0.000955897
0.00108226
0.00122074
0.0013708
0.00151301
0.00164488
0.00176905
0.00188738
0.002001
0.00211054
0.00221639
0.00231876
0.00241805
0.00251465
0.00260884
0.0027009
0.00279103
0.00287946
0.00296637
0.0030519
0.0031362
0.00321937
0.00330149
0.00338262
0.00346281
0.00354205
0.00362035
0.00369767
0.00377398
0.00384922
0.00392332
0.00399622
0.00406784
0.00413808
0.00420687
0.0042741
0.00433969
0.00440355
0.00446559
0.00452572
0.00458386
0.00463993
0.00469386
0.00474557
0.004795
0.00484209
0.00488679
0.00492906
0.00496884
0.00500611
0.00504085
0.00507302
0.00510261
0.00512962
0.00515404
0.00517588
0.00519514
0.00521185
0.00522601
0.00523767
0.00524684
0.00525357
0.00525789
0.00525982
0.00525948
0.00525688
0.00525206
0.0052451
0.00523605
0.00522497
0.00521193
0.00519699
0.00518023
0.00516172
0.00514151
0.0051197
0.00509634
0.00507151
0.00504529
0.00501774
0.00498895
0.00495898
0.00492789
0.00489577
0.00486268
0.00482869
0.00479386
0.00475826
0.00472195
0.004685
0.00464747
0.00460942
0.0045709
0.00453198
0.0044927
0.00445312
0.00441329
0.00437325
0.00433305
0.00429273
0.00425233
0.00421189
0.00417145
0.00413105
0.0040907
0.00405045
0.00401032
0.00397035
0.00393054
0.00389094
0.00385155
0.0038124
0.00377351
0.00373489
0.00369655
0.00365852
0.00362081
0.00358341
0.00354635
0.00350964
0.00347327
0.00343727
0.00340162
0.00336634
0.00333143
0.0032969
0.00326274
0.00322895
0.00319554
0.00316251
0.00312986
0.00309758
0.00306569
0.00303416
0.00300301
0.00297223
0.00294182
0.00291178
0.00288209
0.00285277
0.0028238
0.00279519
0.00276692
0.002739
0.00271142
0.00268418
0.00265727
0.00263068
0.00260443
0.00257849
0.00255287
0.00252755
0.00250255
0.00247784
0.00245343
0.00242931
0.00240547
0.0023819
0.00235859
0.00233552
0.00231269
0.00229007
0.00226764
0.00224536
0.00222319
0.00220108
0.00217897
0.00215677
0.00213436
0.00211179
0.00208848
0.00205781
1.92443e-06
0.000110212
0.000242404
0.000369697
0.000495431
0.000619932
0.000745115
0.00087486
0.00101261
0.00116033
0.00131816
0.00147978
0.00162742
0.00176374
0.00189173
0.00201339
0.00212998
0.00224233
0.00235096
0.00245627
0.00255856
0.00265802
0.00275509
0.00285013
0.00294343
0.00303522
0.0031257
0.00321502
0.00330334
0.00339073
0.00347728
0.00356303
0.00364801
0.00373221
0.00381561
0.00389817
0.00397983
0.00406054
0.0041402
0.00421873
0.00429604
0.00437203
0.00444659
0.00451962
0.00459103
0.0046607
0.00472854
0.00479446
0.00485835
0.00492013
0.00497971
0.00503703
0.005092
0.00514456
0.00519466
0.00524224
0.00528725
0.00532966
0.00536944
0.00540655
0.00544099
0.00547273
0.00550179
0.00552815
0.00555182
0.00557283
0.00559118
0.0056069
0.00562002
0.00563058
0.00563861
0.00564415
0.00564727
0.00564799
0.00564639
0.00564251
0.00563642
0.00562818
0.00561784
0.00560548
0.00559115
0.00557494
0.00555691
0.00553713
0.00551568
0.00549262
0.00546803
0.00544199
0.00541455
0.0053858
0.00535581
0.00532464
0.00529236
0.00525905
0.00522477
0.00518958
0.00515355
0.00511675
0.00507924
0.00504107
0.00500232
0.00496303
0.00492327
0.00488308
0.00484252
0.00480164
0.00476048
0.0047191
0.00467753
0.00463582
0.00459401
0.00455213
0.00451023
0.00446834
0.00442648
0.00438469
0.004343
0.00430143
0.00426002
0.00421877
0.00417773
0.0041369
0.0040963
0.00405595
0.00401587
0.00397607
0.00393657
0.00389737
0.0038585
0.00381994
0.00378173
0.00374385
0.00370633
0.00366915
0.00363234
0.00359589
0.0035598
0.00352408
0.00348873
0.00345375
0.00341915
0.00338491
0.00335105
0.00331756
0.00328444
0.00325169
0.00321931
0.00318729
0.00315564
0.00312434
0.00309341
0.00306283
0.0030326
0.00300271
0.00297318
0.00294398
0.00291513
0.00288661
0.00285842
0.00283055
0.00280301
0.00277579
0.00274888
0.00272227
0.00269597
0.00266995
0.00264422
0.00261875
0.00259354
0.00256855
0.00254377
0.00251916
0.00249468
0.00247028
0.00244589
0.00242143
0.00239681
0.002372
0.00234649
0.00231367
1.53453e-06
0.000102066
0.000231948
0.000358924
0.00048763
0.000619011
0.000755725
0.000899691
0.00105258
0.00121491
0.00138718
0.00155297
0.00170458
0.00184476
0.00197626
0.00210103
0.00222044
0.00233539
0.00244657
0.00255446
0.00265944
0.00276183
0.00286188
0.0029598
0.003056
0.00315078
0.00324438
0.00333697
0.00342871
0.00351969
0.00361
0.00369967
0.00378872
0.00387714
0.00396489
0.00405193
0.00413818
0.00422358
0.00430801
0.00439139
0.00447362
0.00455457
0.00463413
0.0047122
0.00478866
0.00486339
0.00493628
0.00500724
0.00507616
0.00514294
0.00520749
0.00526973
0.00532957
0.00538696
0.00544183
0.00549411
0.00554377
0.00559075
0.00563503
0.00567657
0.00571535
0.00575137
0.00578461
0.00581507
0.00584277
0.0058677
0.0058899
0.00590938
0.00592617
0.00594031
0.00595183
0.00596077
0.00596717
0.0059711
0.00597259
0.00597172
0.00596856
0.00596313
0.00595551
0.00594576
0.00593395
0.00592016
0.00590443
0.00588686
0.00586751
0.00584646
0.00582376
0.00579951
0.00577376
0.0057466
0.00571808
0.00568828
0.00565727
0.00562511
0.00559188
0.00555764
0.00552245
0.00548638
0.00544949
0.00541185
0.00537351
0.00533454
0.00529499
0.00525491
0.00521437
0.0051734
0.00513206
0.0050904
0.00504845
0.00500628
0.00496391
0.0049214
0.00487877
0.00483606