/*--------------------------------*- C++ -*----------------------------------*\
  =========                 |
  \\      /  F ield         | OpenFOAM: The Open Source CFD Toolbox
   \\    /   O peration     | Website:  https://openfoam.org
    \\  /    A nd           | Version:  8
     \\/     M anipulation  |
\*---------------------------------------------------------------------------*/
FoamFile
{
    version     2.0;
    format      ascii;
    class       volScalarField;
    location    "3700";
    object      nut;
}
// * * * * * * * * * * * * * * * * * * * * * * * * * * * * * * * * * * * * * //

dimensions      [0 2 -1 0 0 0 0];

internalField   nonuniform List<scalar> 
12225
(
0.0122671
0.00158819
0.000666129
0.000410105
0.000294025
0.00022806
0.000183261
0.000170805
0.000132697
0.000106844
9.46735e-05
8.80085e-05
7.89856e-05
7.2233e-05
6.77318e-05
6.4507e-05
6.12104e-05
6.46338e-05
0.0323823
0.00744532
0.00330638
0.00204329
0.00146801
0.0011445
0.000936338
0.000799975
0.00067951
0.000577234
0.000506286
0.000452432
0.00041054
0.000378806
0.000350182
0.000327767
0.000311172
0.000292818
0.0490123
0.01515
0.00728196
0.00457854
0.00330639
0.00258054
0.00211233
0.00178913
0.00154181
0.00134762
0.00119772
0.0010787
0.000982056
0.000902481
0.000835978
0.000780909
0.000735546
0.00068717
0.063054
0.0237783
0.0122894
0.00788814
0.00573397
0.00448498
0.00367412
0.00310733
0.00268471
0.00235805
0.00210111
0.00189458
0.00172531
0.00158451
0.00146613
0.00136604
0.00128146
0.00119789
0.074932
0.0328517
0.0181452
0.0119262
0.00874548
0.00686412
0.0056308
0.00476254
0.00411748
0.00362029
0.00322731
0.00290992
0.00264899
0.00243143
0.00224799
0.00209188
0.00195826
0.00183626
0.0849536
0.0420208
0.0246655
0.0166359
0.0123325
0.00972587
0.00799539
0.00676785
0.00585345
0.00514769
0.00458844
0.00413587
0.00376334
0.00345239
0.00318983
0.00296596
0.0027736
0.00260471
0.0933822
0.0510219
0.0316642
0.0219415
0.016474
0.0130717
0.0107778
0.00913551
0.0079057
0.0069534
0.0061969
0.00558367
0.00507837
0.00465632
0.00429976
0.00399561
0.00373414
0.00350818
0.0993794
0.0583363
0.0378386
0.0268568
0.0204171
0.0163053
0.0134891
0.011453
0.00991891
0.00872629
0.00777635
0.00700497
0.00636866
0.00583685
0.0053874
0.00500398
0.00467452
0.00439126
0.104023
0.0645454
0.0433804
0.0314239
0.0241571
0.0194092
0.0161097
0.0137018
0.0118766
0.0104521
0.00931443
0.00838904
0.00762485
0.00698574
0.00644544
0.00598449
0.00558858
0.00524877
0.108368
0.0708939
0.0493756
0.0365496
0.0284517
0.0230231
0.0191863
0.0163547
0.0141926
0.0124968
0.011138
0.0100303
0.00911434
0.00834759
0.0076991
0.00714579
0.00667068
0.00626297
0.112368
0.0772557
0.0557282
0.0421918
0.0332976
0.0271652
0.0227467
0.0194432
0.0168984
0.0148903
0.0132749
0.0119544
0.0108605
0.00994379
0.00916796
0.00850586
0.00793736
0.00744915
0.115994
0.0834975
0.0623053
0.0482611
0.0386474
0.0318167
0.026789
0.0229739
0.0200046
0.0176452
0.0157378
0.0141736
0.0128749
0.011785
0.0108618
0.0100736
0.00939671
0.00881464
0.119234
0.0894856
0.0689377
0.0546109
0.0443919
0.0369007
0.0312597
0.0269088
0.0234836
0.02074
0.0185096
0.0166735
0.0151449
0.01386
0.0127704
0.0118396
0.0110397
0.0103508
0.122086
0.095084
0.075415
0.0610223
0.0503361
0.0422534
0.0360231
0.0311353
0.0272402
0.024093
0.021519
0.0193909
0.017614
0.0161174
0.0148466
0.01376
0.0128257
0.0120196
0.124546
0.100135
0.0814619
0.0671725
0.056158
0.047577
0.0408126
0.0354174
0.031066
0.0275196
0.0246012
0.0221777
0.0201481
0.0184349
0.0169782
0.0157314
0.0146583
0.0137311
0.126578
0.104396
0.0866605
0.0725515
0.0613228
0.0523526
0.0451453
0.0393148
0.0345631
0.0306611
0.0274325
0.0247409
0.0224806
0.020569
0.0189413
0.0175468
0.0163454
0.0153061
0.128011
0.107322
0.0902141
0.0762353
0.0648743
0.0556509
0.0481493
0.0420254
0.0370012
0.0328553
0.0294126
0.0265352
0.0241143
0.0220643
0.0203172
0.0188191
0.0175275
0.0164083
0.128006
0.107313
0.0902048
0.0762269
0.0648674
0.0556454
0.048145
0.0420222
0.0369988
0.0328537
0.0294117
0.0265349
0.0241147
0.0220652
0.0203185
0.0188206
0.0175287
0.0164083
0.126509
0.104255
0.0864922
0.0723807
0.0611613
0.052205
0.0450128
0.0391967
0.0344584
0.0305686
0.0273506
0.0246684
0.0224163
0.0205118
0.0188903
0.0175006
0.0163024
0.0152631
0.124267
0.0995604
0.0807712
0.0664676
0.0554886
0.0469631
0.0402594
0.0349228
0.0306248
0.0271258
0.0242488
0.0218611
0.0198626
0.0181762
0.0167426
0.0155152
0.0144575
0.0135405
0.12136
0.0936399
0.0737261
0.0593348
0.0487592
0.0408249
0.0347467
0.0300003
0.0262308
0.0231928
0.0207127
0.018665
0.0169572
0.0155198
0.0142999
0.0132567
0.0123583
0.0115798
0.117686
0.0865903
0.0656967
0.0514791
0.0415374
0.0343608
0.0290184
0.0249322
0.0217348
0.0191848
0.0171184
0.0154211
0.0140106
0.0128263
0.0118229
0.0109657
0.010228
0.00958895
0.11305
0.0784122
0.056921
0.0432687
0.0342296
0.0279652
0.0234365
0.0200435
0.0174263
0.0153597
0.0136966
0.0123369
0.0112106
0.0102671
0.00946866
0.0087872
0.00820103
0.00769347
0.107169
0.0691009
0.0476372
0.035029
0.0271566
0.021922
0.0182437
0.0155401
0.0134817
0.0118706
0.0105816
0.00953197
0.00866487
0.00793966
0.0073267
0.00680379
0.00635415
0.00596495
0.0996761
0.0587036
0.0381279
0.0270699
0.0205782
0.0164329
0.0135949
0.0115438
0.00999922
0.00879908
0.00784341
0.00706755
0.00642791
0.00589357
0.0054423
0.00505733
0.00472648
0.00444011
0.0901097
0.0473665
0.0287363
0.0196847
0.0146976
0.0116312
0.00957853
0.00811528
0.00702331
0.00617994
0.00551057
0.00496792
0.00452115
0.00414809
0.00383337
0.0035644
0.00333375
0.0031339
0.0779076
0.0353826
0.0198606
0.0131383
0.00966107
0.00759298
0.00623352
0.00527429
0.00456399
0.00401882
0.00358698
0.00323605
0.00294731
0.00270564
0.00250269
0.00232746
0.00217867
0.00204917
0.06238
0.0232554
0.0119461
0.00765493
0.00556337
0.00435256
0.00356724
0.00301639
0.00261307
0.00230792
0.00206663
0.00186697
0.00170276
0.00156309
0.00144892
0.0013453
0.00125985
0.00118502
0.0426105
0.0117794
0.0054693
0.00341385
0.00246071
0.00192005
0.00157275
0.00132885
0.00115943
0.00103843
0.000944192
0.000857063
0.000786427
0.000717886
0.000672587
0.000621656
0.000573112
0.00054086
0.0168348
0.00255985
0.00110002
0.000683428
0.000493724
0.000386803
0.000318219
0.000266306
0.000272636
0.000321836
0.000355141
0.000335067
0.000307992
0.000243785
0.000288124
0.000270219
0.000194303
0.000217891
3.99359e-09
5.91156e-07
2.00087e-06
6.28934e-06
1.08026e-05
1.35318e-05
1.3257e-05
1.1792e-05
9.06405e-06
5.94804e-06
3.52405e-06
2.025e-06
1.40992e-06
1.50291e-06
2.06704e-06
2.56602e-06
2.45448e-06
2.06916e-06
2.54276e-06
8.67649e-06
9.02514e-06
5.5541e-06
6.75106e-06
2.6509e-05
5.67511e-05
7.44241e-05
9.09779e-05
0.000104826
0.000117047
0.000127207
0.000136111
0.000143758
0.000150449
0.000156275
0.000161357
0.000165843
0.000169818
0.000173368
0.000176551
0.00017941
0.000181974
0.000184268
0.000186308
0.000188111
0.000189691
0.000191062
0.000192234
0.000193214
0.000194003
0.000194475
0.000194973
0.000195082
0.000195143
0.000195019
0.00019472
0.000194274
0.000193675
0.000192928
0.000192035
0.000190996
0.000189815
0.000188493
0.000187034
0.000185438
0.000183709
0.00018185
0.00017986
0.000177742
0.000175499
0.000173133
0.000170647
0.000168042
0.000165319
0.000162481
0.000159528
0.000156462
0.000153283
0.00014999
0.000146582
0.000143056
0.00013941
0.000135646
0.000131766
0.00012777
0.000123648
0.00011937
0.000114898
0.000110217
0.000105356
0.000100333
9.50734e-05
8.94802e-05
8.35961e-05
7.75468e-05
7.15366e-05
6.62471e-05
6.24926e-05
6.01483e-05
5.83967e-05
5.67904e-05
5.52143e-05
5.36459e-05
5.20837e-05
5.05294e-05
4.89847e-05
4.74518e-05
4.59333e-05
4.44354e-05
4.29861e-05
4.17491e-05
4.05451e-05
3.93553e-05
3.81828e-05
3.70282e-05
3.58924e-05
3.47761e-05
3.36802e-05
3.26054e-05
3.15523e-05
3.05213e-05
2.95128e-05
2.85273e-05
2.75653e-05
2.66273e-05
2.57135e-05
2.48235e-05
2.39585e-05
2.31464e-05
2.24121e-05
2.16965e-05
2.0996e-05
2.03186e-05
1.96693e-05
1.90345e-05
1.84135e-05
1.78096e-05
1.72238e-05
1.66561e-05
1.61065e-05
1.55745e-05
1.50598e-05
1.45619e-05
1.40804e-05
1.36148e-05
1.31648e-05
1.27299e-05
1.23099e-05
1.19041e-05
1.15124e-05
1.11343e-05
1.07694e-05
1.04174e-05
1.0078e-05
9.75075e-06
9.43547e-06
9.13181e-06
8.83951e-06
8.55833e-06
8.28802e-06
8.02839e-06
7.77924e-06
7.54039e-06
7.31168e-06
7.09291e-06
6.88389e-06
6.68436e-06
6.494e-06
6.31238e-06
6.13896e-06
5.97297e-06
5.81364e-06
5.65935e-06
5.50969e-06
5.35969e-06
5.21393e-06
5.04787e-06
4.89388e-06
4.6475e-06
4.48929e-06
3.59419e-06
1.68167e-07
6.14231e-06
6.38822e-05
0.000139685
0.000183241
0.000207005
0.000216379
0.000214887
0.000206541
0.000189838
0.000169045
0.00014891
0.000138496
0.00014371
0.000157679
0.000166603
0.000169022
0.000170206
0.000175609
0.000185311
0.000200065
0.000217504
0.000234338
0.000250841
0.000262141
0.000272045
0.00028086
0.000293706
0.000312802
0.000326748
0.000339491
0.000350416
0.000360345
0.000369444
0.000377344
0.000384557
0.000391272
0.000397714
0.000404014
0.000410237
0.000416379
0.000422398
0.00042824
0.000433864
0.000439244
0.00044436
0.000449201
0.000453751
0.000458013
0.000461987
0.000465712
0.000469154
0.000472351
0.000475293
0.000477984
0.000480426
0.000482619
0.000484564
0.000486262
0.000487713
0.000488917
0.000489876
0.000490592
0.000491068
0.000491317
0.000491341
0.000491137
0.0004907
0.000490047
0.000489181
0.000488109
0.000486837
0.000485371
0.000483718
0.000481886
0.000479882
0.000477713
0.000475387
0.00047291
0.000470291
0.000467537
0.000464656
0.000461658
0.000458553
0.000455353
0.00045206
0.000448675
0.000445199
0.000441647
0.00043805
0.000434416
0.000430721
0.000426953
0.000423142
0.000419265
0.000415269
0.000411162
0.000406961
0.00040272
0.000398464
0.000394199
0.00038993
0.000385659
0.000381392
0.000377131
0.000372879
0.000368639
0.000364414
0.000360203
0.000356004
0.000351829
0.000347681
0.000343562
0.000339474
0.000335419
0.000331399
0.000327415
0.000323468
0.000319561
0.000315693
0.000311866
0.000308081
0.000304339
0.000300641
0.000296989
0.00029338
0.000289816
0.000286296
0.000282816
0.000279382
0.000275991
0.000272652
0.000269366
0.000266116
0.000262902
0.000259729
0.0002566
0.000253516
0.000250477
0.000247483
0.000244533
0.000241626
0.000238763
0.000235941
0.000233162
0.000230424
0.000227726
0.000225069
0.000222451
0.000219873
0.000217334
0.000214833
0.000212372
0.000209949
0.000207564
0.000205218
0.000202912
0.000200645
0.000198419
0.000196235
0.000194094
0.000191998
0.000189948
0.000187947
0.000185995
0.000184095
0.000182248
0.000180454
0.000178712
0.000177021
0.000175375
0.000173775
0.000172197
0.000170682
0.000169072
0.000167749
0.000165617
0.000164901
0.000162093
0.00016072
7.68584e-07
4.45412e-05
0.000164288
0.000246523
0.000299858
0.00033018
0.000341219
0.00033835
0.000325518
0.000306244
0.000286468
0.000273746
0.000271485
0.000278166
0.000288523
0.000299353
0.000312116
0.00032907
0.00035067
0.000375832
0.000403222
0.000431578
0.000469792
0.000516179
0.000561834
0.00060599
0.000649093
0.000692766
0.000732106
0.000763397
0.000788406
0.000808231
0.000823946
0.000836415
0.00084642
0.000854736
0.000862066
0.000869053
0.000876234
0.000883965
0.000892354
0.000901277
0.000910496
0.000919772
0.00092893
0.000937849
0.000946453
0.000954695
0.000962537
0.000969953
0.000976918
0.000983405
0.000989409
0.000994924
0.000999949
0.00100448
0.00100852
0.00101207
0.00101513
0.00101769
0.00101976
0.00102133
0.00102242
0.00102296
0.00102312
0.00102283
0.00102204
0.0010208
0.00101911
0.00101699
0.00101446
0.00101151
0.00100817
0.00100446
0.00100038
0.000995947
0.00099118
0.000986092
0.000980698
0.000975014
0.000969053
0.000962832
0.000956365
0.000949669
0.000942759
0.000935651
0.000928356
0.000920887
0.000913258
0.000905485
0.000897587
0.000889566
0.000881428
0.000873188
0.000864856
0.000856435
0.000847941
0.00083939
0.000830798
0.000822178
0.000813541
0.000804896
0.00079625
0.000787612
0.000778989
0.000770387
0.000761813
0.000753273
0.000744773
0.000736318
0.000727914
0.000719566
0.000711279
0.000703057
0.000694903
0.00068682
0.000678813
0.000670884
0.000663035
0.000655269
0.000647587
0.000639992
0.000632486
0.00062507
0.000617746
0.000610514
0.000603374
0.000596327
0.000589373
0.000582514
0.000575749
0.00056908
0.000562504
0.000556015
0.000549613
0.0005433
0.000537077
0.000530946
0.000524906
0.000518957
0.000513099
0.000507329
0.000501648
0.000496053
0.000490545
0.000485121
0.00047978
0.000474522
0.000469346
0.000464249
0.000459232
0.000454292
0.000449429
0.000444642
0.00043993
0.000435291
0.000430725
0.00042623
0.000421805
0.000417449
0.00041316
0.000408937
0.000404777
0.00040068
0.000396642
0.00039266
0.000388729
0.000384845
0.000381001
0.000377189
0.000373395
0.000369606
0.000365797
0.000361949
0.00035799
0.000353949
0.000349467
0.000345073
0.000338582
0.000327124
5.07073e-07
8.12893e-05
0.000212971
0.000309206
0.00037299
0.000410403
0.000425977
0.000426368
0.000416357
0.000402953
0.000394796
0.00039396
0.000403187
0.000420398
0.000443154
0.000470909
0.000504262
0.000543573
0.00058803
0.000650267
0.000724131
0.000803923
0.000888186
0.000958847
0.00102128
0.0010774
0.00112782
0.00117272
0.00121199
0.00124587
0.00127511
0.00130045
0.00132257
0.00134211
0.00135965
0.00137567
0.00139059
0.00140476
0.00141842
0.00143177
0.00144494
0.00145799
0.00147095
0.0014838
0.0014965
0.00150896
0.00152109
0.0015328
0.00154399
0.00155459
0.00156454
0.00157381
0.00158239
0.00159025
0.00159739
0.0016038
0.00160947
0.00161441
0.00161861
0.00162207
0.00162479
0.00162677
0.00162793
0.00162836
0.00162824
0.00162733
0.0016257
0.00162338
0.00162038
0.00161673
0.00161243
0.00160751
0.00160199
0.00159589
0.00158923
0.00158204
0.00157433
0.00156613
0.00155747
0.00154836
0.00153883
0.0015289
0.0015186
0.00150794
0.00149696
0.00148567
0.00147409
0.00146226
0.00145018
0.00143788
0.00142538
0.0014127
0.00139985
0.00138685
0.00137372
0.00136046
0.00134711
0.00133368
0.00132019
0.00130666
0.0012931
0.00127953
0.00126595
0.00125239
0.00123886
0.00122536
0.0012119
0.0011985
0.00118516
0.00117189
0.0011587
0.0011456
0.00113259
0.00111968
0.00110689
0.0010942
0.00108163
0.00106918
0.00105685
0.00104466
0.00103259
0.00102066
0.00100887
0.000997213
0.000985701
0.000974331
0.000963105
0.000952023
0.000941086
0.000930296
0.000919652
0.000909154
0.0008988
0.000888584
0.000878507
0.00086857
0.000858773
0.000849117
0.000839602
0.000830227
0.000820991
0.000811892
0.00080293
0.000794102
0.000785407
0.000776843
0.000768408
0.000760101
0.000751919
0.000743862
0.000735926
0.000728111
0.000720414
0.000712834
0.000705369
0.000698016
0.000690775
0.000683643
0.000676618
0.000669698
0.00066288
0.000656163
0.000649542
0.000643015
0.000636577
0.000630223
0.000623948
0.000617744
0.000611601
0.000605507
0.000599445
0.000593395
0.000587327
0.000581203
0.000574959
0.000568539
0.000561762
0.00055457
0.000546327
0.000530136
1.49343e-06
0.000102059
0.000235124
0.000355061
0.000433978
0.000481487
0.000505125
0.000513595
0.00051517
0.000516157
0.000523037
0.0005392
0.000565257
0.000600244
0.000643372
0.000694656
0.000754741
0.000838161
0.000933835
0.00103005
0.00111906
0.00120346
0.00128281
0.00135551
0.00142227
0.00148368
0.00154014
0.001592
0.0016396
0.00168337
0.0017238
0.00176136
0.0017965
0.00182958
0.00186091
0.00189076
0.0019193
0.00194669
0.00197301
0.00199834
0.0020227
0.00204611
0.00206855
0.00209002
0.00211048
0.00212992
0.00214829
0.00216556
0.00218172
0.00219674
0.00221061
0.00222334
0.00223493
0.00224541
0.00225478
0.00226306
0.00227028
0.00227644
0.00228157
0.00228567
0.00228877
0.00229082
0.00229173
0.00229182
0.00229095
0.00228907
0.00228624
0.00228246
0.00227778
0.0022722
0.00226575
0.00225846
0.00225037
0.00224149
0.00223185
0.0022215
0.00221046
0.00219876
0.00218642
0.00217349
0.00216
0.00214597
0.00213143
0.00211642
0.00210097
0.00208511
0.00206886
0.00205226
0.00203534
0.00201813
0.00200064
0.00198292
0.00196498
0.00194684
0.00192853
0.00191007
0.00189149
0.00187281
0.00185406
0.00183525
0.0018164
0.00179754
0.00177868
0.00175985
0.00174105
0.0017223
0.00170361
0.001685
0.00166647
0.00164805
0.00162974
0.00161155
0.00159349
0.00157557
0.0015578
0.00154018
0.00152272
0.00150543
0.00148831
0.00147137
0.00145461
0.00143803
0.00142164
0.00140544
0.00138944
0.00137362
0.00135801
0.00134259
0.00132738
0.00131236
0.00129754
0.00128292
0.0012685
0.00125427
0.00124023
0.00122639
0.00121273
0.00119927
0.001186
0.00117292
0.00116003
0.00114733
0.00113481
0.00112248
0.00111033
0.00109835
0.00108655
0.00107493
0.00106347
0.00105219
0.00104106
0.00103011
0.00101931
0.00100867
0.000998189
0.000987859
0.000977679
0.000967647
0.000957759
0.000948014
0.000938406
0.000928934
0.000919592
0.000910377
0.000901284
0.000892306
0.000883435
0.000874663
0.000865978
0.000857366
0.000848806
0.000840275
0.000831737
0.000823151
0.000814447
0.000805555
0.000796311
0.000786567
0.000776598
0.000756777
2.27169e-06
0.000118202
0.00025637
0.000390154
0.000487244
0.000549163
0.000587027
0.000610492
0.000628251
0.000647577
0.000673721
0.000709335
0.000755152
0.000811448
0.000878626
0.00096913
0.00107427
0.00117599
0.00127521
0.00137071
0.00146141
0.00154741
0.00162865
0.00170511
0.00177707
0.00184489
0.00190891
0.00196946
0.00202687
0.00208148
0.0021336
0.00218353
0.00223151
0.00227776
0.00232242
0.00236564
0.00240749
0.00244802
0.00248728
0.00252527
0.00256198
0.0025974
0.00263149
0.00266422
0.00269556
0.00272547
0.00275389
0.0027808
0.00280616
0.00282993
0.00285209
0.0028726
0.00289147
0.00290868
0.00292421
0.00293808
0.00295028
0.00296082
0.00296971
0.00297698
0.00298263
0.00298671
0.00298914
0.00299004
0.00298957
0.0029876
0.00298426
0.00297956
0.00297356
0.0029663
0.00295786
0.00294826
0.00293758
0.00292585
0.00291313
0.00289947
0.0028849
0.00286949
0.00285327
0.00283628
0.00281856
0.00280017
0.00278114
0.0027615
0.00274131
0.00272061
0.00269942
0.00267779
0.00265576
0.00263336
0.00261063
0.0025876
0.0025643
0.00254077
0.00251704
0.00249313
0.00246907
0.0024449
0.00242064
0.00239631
0.00237195
0.00234758
0.00232322
0.00229888
0.0022746
0.00225038
0.00222625
0.00220221
0.0021783
0.00215452
0.00213088
0.0021074
0.00208409
0.00206095
0.00203801
0.00201526
0.00199272
0.00197039
0.00194828
0.0019264
0.00190475
0.00188333
0.00186215
0.00184122
0.00182053
0.00180009
0.0017799
0.00175996
0.00174028
0.00172084
0.00170166
0.00168273
0.00166405
0.00164562
0.00162744
0.00160949
0.0015918
0.00157434
0.00155713
0.00154016
0.00152343
0.00150693
0.00149067
0.00147464
0.00145883
0.00144325
0.0014279
0.00141276
0.00139784
0.00138313
0.00136863
0.00135433
0.00134024
0.00132634
0.00131264
0.00129913
0.00128582
0.00127268
0.00125973
0.00124696
0.00123436
0.00122193
0.00120967
0.00119756
0.00118562
0.00117381
0.00116215
0.00115062
0.0011392
0.00112788
0.00111663
0.00110544
0.00109427
0.00108306
0.00107176
0.00106028
0.00104846
0.00103624
0.00102406
0.00100158
2.80555e-06
0.000126821
0.000269281
0.000407729
0.000526504
0.000608041
0.000664247
0.000706257
0.000743316
0.000782689
0.000829433
0.000886497
0.000955506
0.00104784
0.00115484
0.00126145
0.00136756
0.00147092
0.001571
0.00166735
0.00175975
0.00184819
0.00193275
0.00201361
0.002091
0.00216519
0.00223647
0.0023051
0.00237134
0.00243541
0.00249754
0.00255789
0.00261663
0.00267386
0.00272967
0.00278411
0.00283723
0.00288903
0.0029395
0.00298864
0.00303641
0.00308277
0.00312768
0.00317109
0.00321295
0.0032532
0.00329179
0.00332867
0.0033638
0.00339711
0.00342858
0.00345816
0.00348581
0.00351152
0.00353524
0.00355696
0.00357667
0.00359435
0.00361001
0.00362363
0.00363523
0.00364481
0.00365239
0.003658
0.00366166
0.00366327
0.00366319
0.0036612
0.00365743
0.00365191
0.0036447
0.00363586
0.00362544
0.00361351
0.00360013
0.00358536
0.00356927
0.00355193
0.0035334
0.00351375
0.00349305
0.00347136
0.00344875
0.00342529
0.00340104
0.00337607
0.00335042
0.00332417
0.00329736
0.00327006
0.0032423
0.00321415
0.00318564
0.00315683
0.00312775
0.00309844
0.00306894
0.00303929
0.00300952
0.00297967
0.00294977
0.00291985
0.00288994
0.00286005
0.00283023
0.00280049
0.00277085
0.00274133
0.00271195
0.00268273
0.00265368
0.00262483
0.00259618
0.00256774
0.00253953
0.00251157
0.00248385
0.00245639
0.00242919
0.00240227
0.00237563
0.00234927
0.0023232
0.00229742
0.00227194
0.00224676
0.00222188
0.0021973
0.00217303
0.00214906
0.0021254
0.00210204
0.00207898
0.00205622
0.00203375
0.00201158
0.00198971
0.00196813
0.00194684
0.00192584
0.00190512
0.00188469
0.00186454
0.00184467
0.00182507
0.00180574
0.00178668
0.00176788
0.00174934
0.00173105
0.00171302
0.00169523
0.00167768
0.00166038
0.0016433
0.00162646
0.00160985
0.00159346
0.00157729
0.00156134
0.00154559
0.00153005
0.00151471
0.00149957
0.00148461
0.00146983
0.00145523
0.00144078
0.00142648
0.00141231
0.00139824
0.00138426
0.00137031
0.00135636
0.00134233
0.00132816
0.00131369
0.00129893
0.00128392
0.00125967
2.94245e-06
0.000128735
0.000270669
0.000407308
0.00053811
0.00064178
0.000719045
0.000780499
0.000836305
0.000894163
0.000961771
0.00105374
0.00116338
0.00128511
0.00140069
0.00151196
0.0016198
0.00172437
0.00182563
0.0019235
0.002018
0.0021092
0.00219726
0.00228235
0.00236471
0.00244454
0.00252208
0.00259754
0.0026711
0.00274294
0.0028132
0.002882
0.00294943
0.00301556
0.00308042
0.00314404
0.00320641
0.00326752
0.00332735
0.00338584
0.00344296
0.00349866
0.00355286
0.00360551
0.00365654
0.00370589
0.00375349
0.00379929
0.00384321
0.0038852
0.0039252
0.00396317
0.00399905
0.00403281
0.0040644
0.0040938
0.00412098
0.00414591
0.00416858
0.00418898
0.00420711
0.00422296
0.00423654
0.00424787
0.00425696
0.00426383
0.00426855
0.004271
0.00427143
0.00426979
0.00426612
0.00426048
0.00425291
0.00424348
0.00423225
0.00421928
0.00420463
0.00418837
0.00417058
0.00415131
0.00413064
0.00410865
0.0040854
0.00406097
0.00403543
0.00400886
0.00398131
0.00395287
0.0039236
0.00389357
0.00386284
0.00383148
0.00379954
0.0037671
0.0037342
0.0037009
0.00366726
0.00363333
0.00359915
0.00356477
0.00353024
0.00349561
0.0034609
0.00342616
0.00339143
0.00335673
0.0033221
0.00328756
0.00325315
0.00321887
0.00318477
0.00315086
0.00311715
0.00308367
0.00305044
0.00301746
0.00298475
0.00295232
0.00292019
0.00288835
0.00285683
0.00282563
0.00279475
0.00276421
0.002734
0.00270413
0.0026746
0.00264542
0.00261658
0.00258809
0.00255995
0.00253216
0.00250471
0.00247761
0.00245085
0.00242443
0.00239835
0.0023726
0.0023472
0.00232212
0.00229738
0.00227297
0.00224888
0.00222511
0.00220166
0.00217852
0.00215568
0.00213316
0.00211093
0.002089
0.00206736
0.00204601
0.00202494
0.00200415
0.00198363
0.00196338
0.0019434
0.00192368
0.00190422
0.001885
0.00186604
0.00184731
0.00182882
0.00181056
0.00179253
0.0017747
0.00175709
0.00173966
0.00172241
0.00170532
0.00168836
0.00167151
0.00165473
0.00163797
0.00162116
0.00160422
0.00158703
0.00156962
0.00155169
0.00152555
2.75939e-06
0.000125268
0.000264044
0.000395769
0.000520541
0.000633074
0.000727062
0.00080827
0.000891337
0.000986687
0.00109594
0.00122064
0.00135705
0.00148457
0.00160488
0.0017199
0.00183062
0.00193739
0.00204054
0.00214042
0.00223725
0.00233122
0.00242254
0.0025114
0.00259802
0.0026826
0.00276532
0.00284637
0.0029259
0.00300402
0.00308086
0.00315649
0.00323097
0.00330432
0.00337657
0.0034477
0.0035177
0.00358653
0.00365413
0.00372046
0.00378544
0.00384902
0.0039111
0.00397162
0.0040305
0.00408766
0.00414302
0.00419652
0.00424806
0.0042976
0.00434505
0.00439037
0.00443349
0.00447436
0.00451294
0.00454918
0.00458306
0.00461454
0.00464361
0.00467023
0.00469441
0.00471614
0.00473541
0.00475225
0.00476665
0.00477864
0.00478824
0.00479548
0.00480041
0.00480298
0.00480336
0.00480155
0.00479758
0.00479152
0.00478342
0.00477334
0.00476134
0.00474748
0.00473184
0.00471448
0.00469547
0.00467489
0.0046528
0.00462927
0.00460438
0.00457821
0.00455083
0.0045223
0.0044927
0.00446211
0.00443058
0.0043982
0.00436502
0.00433111
0.00429654
0.00426137
0.00422567
0.00418948
0.00415287
0.00411589
0.00407861
0.00404106
0.0040033
0.00396538
0.00392734
0.00388922
0.00385106
0.00381289
0.00377476
0.0037367
0.00369873
0.00366089
0.00362319
0.00358568
0.00354836
0.00351127
0.00347441
0.00343782
0.00340149
0.00336546
0.00332973
0.00329431
0.00325921
0.00322445
0.00319003
0.00315596
0.00312224
0.00308888
0.00305589
0.00302326
0.00299101
0.00295912
0.00292761
0.00289646
0.00286569
0.00283528
0.00280525
0.00277558
0.00274628
0.00271735
0.00268878
0.00266057
0.00263272
0.00260522
0.00257807
0.00255127
0.00252481
0.00249869
0.0024729
0.00244745
0.00242232
0.00239752
0.00237303
0.00234885
0.00232499
0.00230142
0.00227816
0.00225519
0.00223251
0.00221012
0.00218801
0.00216617
0.0021446
0.0021233
0.00210224
0.00208144
0.00206087
0.00204052
0.00202037
0.00200042
0.00198063
0.00196097
0.0019414
0.00192187
0.00190232
0.00188266
0.00186277
0.00184271
0.00182196
0.00179363
2.34434e-06
0.000117989
0.000252847
0.000380973
0.000503946
0.000620482
0.000731377
0.000840493
0.000955428
0.00108133
0.00121946
0.00136924
0.00151156
0.00164355
0.00176782
0.00188625
0.00199997
0.00210962
0.00221559
0.00231807
0.00241748
0.00251419
0.00260849
0.00270065
0.00279089
0.00287942
0.00296641
0.00305203
0.0031364
0.00321964
0.00330183
0.00338303
0.00346327
0.00354257
0.00362091
0.00369828
0.00377463
0.00384991
0.00392405
0.00399698
0.00406862
0.00413889
0.0042077
0.00427495
0.00434056
0.00440444
0.00446649
0.00452664
0.00458479
0.00464087
0.0046948
0.00474652
0.00479595
0.00484305
0.00488776
0.00493002
0.00496981
0.00500709
0.00504182
0.00507399
0.00510359
0.0051306
0.00515502
0.00517685
0.00519612
0.00521282
0.00522699
0.00523864
0.00524781
0.00525454
0.00525886
0.00526079
0.00526045
0.00525784
0.00525302
0.00524606
0.005237
0.00522593
0.00521288
0.00519795
0.00518119
0.00516267
0.00514246
0.00512064
0.00509728
0.00507246
0.00504623
0.00501869
0.00498989
0.00495991
0.00492883
0.0048967
0.00486361
0.00482961
0.00479478
0.00475917
0.00472286
0.00468591
0.00464838
0.00461032
0.0045718
0.00453287
0.00449359
0.004454
0.00441416
0.00437411
0.00433391
0.00429358
0.00425317
0.00421273
0.00417228
0.00413186
0.00409151
0.00405125
0.00401112
0.00397113
0.00393132
0.00389171
0.00385231
0.00381316
0.00377426
0.00373563
0.00369729
0.00365925
0.00362153
0.00358413
0.00354707
0.00351035
0.00347398
0.00343796
0.00340231
0.00336703
0.00333211
0.00329757
0.0032634
0.00322961
0.00319619
0.00316315
0.00313049
0.0030982
0.00306629
0.00303475
0.00300359
0.0029728
0.00294238
0.00291232
0.00288263
0.0028533
0.00282432
0.0027957
0.00276742
0.00273949
0.0027119
0.00268465
0.00265773
0.00263114
0.00260487
0.00257893
0.0025533
0.00252798
0.00250297
0.00247826
0.00245384
0.00242972
0.00240587
0.0023823
0.00235899
0.00233592
0.00231309
0.00229047
0.00226804
0.00224576
0.00222359
0.00220148
0.00217936
0.00215716
0.00213476
0.00211218
0.00208888
0.00205822
1.92686e-06
0.000110308
0.000242563
0.000369908
0.00049565
0.000620083
0.000745012
0.000874508
0.00101188
0.00115921
0.00131665
0.00147845
0.00162627
0.00176272
0.00189083
0.00201259
0.00212929
0.00224173
0.00235047
0.00245588
0.00255827
0.00265783
0.002755
0.00285014
0.00294353
0.0030354
0.00312596
0.00321536
0.00330375
0.00339121
0.00347782
0.00356363
0.00364866
0.00373291
0.00381636
0.00389896
0.00398067
0.00406141
0.0041411
0.00421966
0.004297
0.00437301
0.00444759
0.00452065
0.00459207
0.00466176
0.00472962
0.00479554
0.00485944
0.00492123
0.00498083
0.00503815
0.00509313
0.00514569
0.0051958
0.00524338
0.00528839
0.0053308
0.00537058
0.0054077
0.00544213
0.00547388
0.00550293
0.00552929
0.00555297
0.00557397
0.00559232
0.00560804
0.00562116
0.00563172
0.00563975
0.00564529
0.0056484
0.00564912
0.00564752
0.00564364
0.00563755
0.0056293
0.00561896
0.0056066
0.00559227
0.00557606
0.00555803
0.00553825
0.00551679
0.00549373
0.00546914
0.00544309
0.00541565
0.0053869
0.0053569
0.00532573
0.00529345
0.00526014
0.00522585
0.00519066
0.00515462
0.00511782
0.0050803
0.00504213
0.00500337
0.00496407
0.0049243
0.00488411
0.00484354
0.00480265
0.00476149
0.00472009
0.00467852
0.0046368
0.00459498
0.00455309
0.00451118
0.00446928
0.00442741
0.00438561
0.00434391
0.00430234
0.00426091
0.00421966
0.00417861
0.00413777
0.00409716
0.00405681
0.00401672
0.00397691
0.0039374
0.0038982
0.00385931
0.00382075
0.00378253
0.00374465
0.00370711
0.00366993
0.00363311
0.00359664
0.00356055
0.00352482
0.00348946
0.00345447
0.00341985
0.0033856
0.00335173
0.00331822
0.00328509
0.00325233
0.00321994
0.00318791
0.00315624
0.00312493
0.00309399
0.00306339
0.00303315
0.00300326
0.00297372
0.00294451
0.00291565
0.00288712
0.00285893
0.00283106
0.00280351
0.00277628
0.00274937
0.00272276
0.00269645
0.00267043
0.0026447
0.00261923
0.00259401
0.00256902
0.00254424
0.00251963
0.00249515
0.00247075
0.00244636
0.00242191
0.00239729
0.00237248
0.00234698
0.00231416
1.54348e-06
0.000102167
0.000232072
0.000359054
0.000487721
0.000618991
0.000755526
0.000899241
0.00105187
0.00121393
0.00138596
0.00155194
0.00170373
0.00184405
0.00197566
0.00210054
0.00222004
0.0023351
0.00244637
0.00255435
0.00265943
0.0027619
0.00286205
0.00296005
0.00305634
0.0031512
0.00324487
0.00333753
0.00342933
0.00352038
0.00361075
0.00370048
0.00378958
0.00387804
0.00396584
0.00405291
0.0041392
0.00422463
0.00430909
0.0043925
0.00447475
0.00455573
0.00463531
0.0047134
0.00478987
0.00486462
0.00493753
0.0050085
0.00507742
0.00514421
0.00520877
0.00527101
0.00533087
0.00538826
0.00544313
0.00549542
0.00554508
0.00559206
0.00563634
0.00567788
0.00571666
0.00575268
0.00578592
0.00581638
0.00584407
0.00586901
0.0058912
0.00591068
0.00592747
0.00594161
0.00595312
0.00596206
0.00596847
0.00597239
0.00597388
0.00597301
0.00596984
0.00596441
0.00595679
0.00594704
0.00593523
0.00592143
0.00590571
0.00588813
0.00586878
0.00584772
0.00582502
0.00580077
0.00577502
0.00574785
0.00571933
0.00568952
0.00565851
0.00562635
0.00559311
0.00555886
0.00552367
0.00548759
0.0054507
0.00541305
0.00537471
0.00533573
0.00529617
0.00525609
0.00521553
0.00517455
0.0051332
0.00509153
0.00504958
0.0050074
0.00496502
0.00492249
0.00487985
0.00483714
0.00479438
0.00475161
0.00470886
0.00466617
0.00462355
0.00458105
0.00453867
0.00449644
0.0044544
0.00441254
0.0043709
0.00432949
0.00428832
0.00424742
0.00420679
0.00416645
0.0041264
0.00408666