/*--------------------------------*- C++ -*----------------------------------*\
| =========                 |                                                 |
| \\      /  F ield         | OpenFOAM: The Open Source CFD Toolbox           |
|  \\    /   O peration     | Version:  v2012                                 |
|   \\  /    A nd           | Website:  www.openfoam.com                      |
|    \\/     M anipulation  |                                                 |
\*---------------------------------------------------------------------------*/
FoamFile
{
    version     2.0;
    format      ascii;
    class       volScalarField;
    location    "3700";
    object      nuTilda;
}
// * * * * * * * * * * * * * * * * * * * * * * * * * * * * * * * * * * * * * //

dimensions      [0 2 -1 0 0 0 0];


internalField   nonuniform List<scalar> 
12225
(
0.0122671
0.00158833
0.000666932
0.0004122
0.000298016
0.000234158
0.000195366
0.000157557
0.00017709
0.0002227
0.000230389
0.000221272
0.000203463
0.000178139
0.000172628
0.000158586
0.000147173
0.000136886
0.0323823
0.00744532
0.00330641
0.00204337
0.00146819
0.00114457
0.000939066
0.000785446
0.000691131
0.0006278
0.000570645
0.000520034
0.000476782
0.000437429
0.000407122
0.00037478
0.000350014
0.000324456
0.0490123
0.01515
0.00728196
0.00457856
0.00330642
0.00258052
0.00211335
0.00178198
0.0015469
0.00137269
0.0012317
0.00111557
0.00101869
0.000936509
0.000867166
0.000804843
0.000754191
0.00070172
0.063054
0.0237783
0.0122894
0.00788815
0.00573398
0.00448498
0.00367443
0.00310422
0.00268721
0.00237002
0.00211798
0.00191324
0.00174412
0.00160235
0.00148258
0.00137879
0.00129128
0.00120476
0.074932
0.0328517
0.0181452
0.0119262
0.00874549
0.00686413
0.00563087
0.00476131
0.0041187
0.00362573
0.00323518
0.00291878
0.00265804
0.0024401
0.00225603
0.0020984
0.00196343
0.0018399
0.0849536
0.0420208
0.0246655
0.0166359
0.0123325
0.00972587
0.00799541
0.0067674
0.00585404
0.00515005
0.00459191
0.00413984
0.00376744
0.00345637
0.00319355
0.0029691
0.00277616
0.00260661
0.0933822
0.0510219
0.0316642
0.0219415
0.016474
0.0130717
0.0107779
0.00913539
0.00790598
0.00695436
0.00619833
0.00558532
0.0050801
0.00465803
0.00430138
0.00399704
0.00373536
0.00350916
0.0993794
0.0583363
0.0378386
0.0268568
0.0204171
0.0163053
0.0134892
0.011453
0.00991905
0.0087267
0.00777697
0.0070057
0.00636944
0.00583763
0.00538817
0.00500469
0.00467517
0.00439184
0.104023
0.0645454
0.0433804
0.0314239
0.0241571
0.0194092
0.0161097
0.0137018
0.0118767
0.0104523
0.00931473
0.0083894
0.00762525
0.00698616
0.00644587
0.00598492
0.005589
0.00524917
0.108368
0.0708939
0.0493757
0.0365496
0.0284517
0.0230231
0.0191863
0.0163548
0.0141927
0.0124969
0.0111382
0.0100306
0.00911457
0.00834785
0.00769937
0.00714607
0.00667098
0.00626329
0.112368
0.0772557
0.0557282
0.0421918
0.0332976
0.0271652
0.0227468
0.0194433
0.0168984
0.0148904
0.013275
0.0119546
0.0108607
0.00994396
0.00916816
0.00850607
0.00793759
0.0074494
0.115994
0.0834975
0.0623054
0.0482611
0.0386474
0.0318167
0.026789
0.0229739
0.0200047
0.0176453
0.0157379
0.0141737
0.012875
0.0117851
0.010862
0.0100738
0.0093969
0.00881485
0.119234
0.0894856
0.0689377
0.0546109
0.0443919
0.0369007
0.0312597
0.0269089
0.0234837
0.02074
0.0185097
0.0166735
0.015145
0.0138601
0.0127705
0.0118397
0.0110398
0.010351
0.122086
0.095084
0.075415
0.0610223
0.0503361
0.0422535
0.0360231
0.0311353
0.0272402
0.0240931
0.0215191
0.0193909
0.0176141
0.0161175
0.0148467
0.0137601
0.0128258
0.0120198
0.124546
0.100135
0.0814619
0.0671726
0.056158
0.047577
0.0408126
0.0354174
0.031066
0.0275197
0.0246013
0.0221778
0.0201482
0.018435
0.0169783
0.0157315
0.0146584
0.0137312
0.126578
0.104396
0.0866605
0.0725515
0.0613228
0.0523526
0.0451453
0.0393148
0.0345631
0.0306611
0.0274325
0.024741
0.0224806
0.020569
0.0189413
0.0175468
0.0163455
0.0153062
0.128011
0.107322
0.0902141
0.0762353
0.0648743
0.0556509
0.0481493
0.0420254
0.0370012
0.0328553
0.0294126
0.0265352
0.0241143
0.0220643
0.0203171
0.0188191
0.0175275
0.0164083
0.128006
0.107313
0.0902048
0.0762269
0.0648674
0.0556454
0.048145
0.0420221
0.0369988
0.0328537
0.0294117
0.0265349
0.0241147
0.0220651
0.0203184
0.0188205
0.0175286
0.0164082
0.126509
0.104255
0.0864922
0.0723807
0.0611613
0.052205
0.0450128
0.0391967
0.0344584
0.0305685
0.0273506
0.0246684
0.0224163
0.0205118
0.0188902
0.0175006
0.0163023
0.015263
0.124267
0.0995604
0.0807712
0.0664676
0.0554886
0.0469631
0.0402594
0.0349227
0.0306248
0.0271258
0.0242487
0.0218611
0.0198625
0.0181762
0.0167425
0.0155151
0.0144574
0.0135404
0.12136
0.0936399
0.0737261
0.0593348
0.0487592
0.0408248
0.0347467
0.0300003
0.0262308
0.0231928
0.0207127
0.018665
0.0169572
0.0155197
0.0142998
0.0132566
0.0123582
0.0115797
0.117686
0.0865903
0.0656967
0.0514791
0.0415374
0.0343608
0.0290183
0.0249322
0.0217348
0.0191848
0.0171184
0.0154211
0.0140105
0.0128262
0.0118228
0.0109656
0.0102279
0.00958885
0.11305
0.0784122
0.056921
0.0432687
0.0342296
0.0279652
0.0234365
0.0200435
0.0174263
0.0153598
0.0136967
0.012337
0.0112107
0.0102671
0.00946865
0.00878716
0.00820096
0.00769339
0.107169
0.0691009
0.0476372
0.035029
0.0271566
0.021922
0.0182437
0.0155401
0.0134818
0.0118708
0.0105819
0.00953231
0.00866515
0.00793988
0.00732684
0.00680389
0.00635418
0.00596494
0.0996761
0.0587036
0.0381279
0.0270699
0.0205782
0.0164329
0.0135949
0.0115437
0.00999935
0.00879953
0.00784422
0.00706853
0.00642881
0.0058944
0.00544292
0.00505791
0.00472683
0.00444036
0.0901097
0.0473665
0.0287363
0.0196847
0.0146976
0.0116311
0.0095785
0.00811521
0.00702351
0.00618081
0.00551235
0.00497026
0.00452346
0.00415042
0.0038351
0.0035663
0.00333506
0.00313492
0.0779076
0.0353826
0.0198606
0.0131383
0.00966106
0.00759296
0.0062335
0.00527411
0.00456426
0.00402039
0.00359045
0.00324086
0.00295212
0.00271105
0.00250637
0.00233219
0.00218221
0.00205178
0.06238
0.0232554
0.0119461
0.00765493
0.00556338
0.00435255
0.00356723
0.00301619
0.00261336
0.00231041
0.00207212
0.00187482
0.00171031
0.00157288
0.00145404
0.00135329
0.00126677
0.00118924
0.0426105
0.0117794
0.00546931
0.00341388
0.00246076
0.00192014
0.0015728
0.00132962
0.00115856
0.00104155
0.000949998
0.000865357
0.00079302
0.000729808
0.000674475
0.000622377
0.000583629
0.00054607
0.0168348
0.0025599
0.00110031
0.000684193
0.00049518
0.00038916
0.000321436
0.000273103
0.000272253
0.000339093
0.000377454
0.000355862
0.000327025
0.000283126
0.000288998
0.00023373
0.000267339
0.000264342
3.70936e-06
1.3833e-05
2.56093e-05
3.82437e-05
4.60376e-05
4.98344e-05
5.02187e-05
4.7795e-05
4.45863e-05
3.94376e-05
3.40921e-05
2.93637e-05
2.67537e-05
2.73215e-05
2.96402e-05
3.13311e-05
3.11026e-05
2.80764e-05
2.28113e-05
1.91816e-05
1.96913e-05
2.60157e-05
3.89458e-05
6.51318e-05
8.76076e-05
0.000101027
0.000113661
0.000124629
0.000134557
0.000143026
0.000150582
0.000157174
0.000163011
0.000168145
0.00017266
0.000176672
0.000180247
0.000183456
0.000186345
0.000188949
0.000191292
0.000193393
0.000195266
0.000196924
0.000198381
0.000199645
0.000200727
0.000201631
0.000202356
0.000202897
0.000203141
0.000203373
0.000203417
0.000203299
0.000203021
0.000202605
0.000202049
0.000201355
0.000200526
0.000199564
0.000198471
0.000197249
0.000195901
0.00019443
0.00019284
0.000191132
0.000189308
0.000187371
0.000185325
0.000183173
0.000180917
0.000178561
0.000176107
0.000173558
0.000170916
0.000168184
0.000165362
0.000162454
0.000159459
0.000156379
0.000153215
0.000149967
0.000146635
0.00014322
0.00013972
0.00013613
0.000132443
0.000128648
0.000124731
0.000120678
0.00011647
0.000112093
0.00010755
0.000102894
9.83347e-05
9.43673e-05
9.15647e-05
8.98203e-05
8.85093e-05
8.73053e-05
8.61221e-05
8.49434e-05
8.37676e-05
8.25953e-05
8.14274e-05
8.02648e-05
7.91091e-05
7.79643e-05
7.68518e-05
7.59002e-05
7.49661e-05
7.40384e-05
7.31187e-05
7.22072e-05
7.13044e-05
7.04105e-05
6.9526e-05
6.86512e-05
6.77863e-05
6.69316e-05
6.60872e-05
6.52533e-05
6.44304e-05
6.36188e-05
6.28185e-05
6.20293e-05
6.12524e-05
6.05155e-05
5.98384e-05
5.917e-05
5.85066e-05
5.78567e-05
5.72249e-05
5.65979e-05
5.5976e-05
5.53622e-05
5.47575e-05
5.41624e-05
5.3577e-05
5.30012e-05
5.24349e-05
5.18781e-05
5.13304e-05
5.07917e-05
5.0262e-05
4.97411e-05
4.92288e-05
4.87252e-05
4.823e-05
4.77432e-05
4.72648e-05
4.67947e-05
4.63329e-05
4.58795e-05
4.54342e-05
4.49972e-05
4.45686e-05
4.41484e-05
4.37367e-05
4.33337e-05
4.29397e-05
4.25548e-05
4.21792e-05
4.18133e-05
4.14572e-05
4.1111e-05
4.07747e-05
4.04481e-05
4.01308e-05
3.98218e-05
3.95199e-05
3.92234e-05
3.89284e-05
3.86348e-05
3.83235e-05
3.80263e-05
3.75968e-05
3.72902e-05
3.63587e-05
3.484e-05
5.8817e-06
3.99427e-05
9.08997e-05
0.000151922
0.000191204
0.000213573
0.00022253
0.000221118
0.000213156
0.000197502
0.000178405
0.000160505
0.000151702
0.000156437
0.000168613
0.000176137
0.000178036
0.000178819
0.000183781
0.000192708
0.000207731
0.000224915
0.000241157
0.000256463
0.000267364
0.000276829
0.000285408
0.000298225
0.000316679
0.000330303
0.000342749
0.000353457
0.00036321
0.00037214
0.000379912
0.000387014
0.000393636
0.000399995
0.000406219
0.000412371
0.000418447
0.000424402
0.000430185
0.000435755
0.000441084
0.000446155
0.000450953
0.000455465
0.000459693
0.000463642
0.000467321
0.000470752
0.000473923
0.000476844
0.000479517
0.000481942
0.00048412
0.000486052
0.000487739
0.00048918
0.000490376
0.000491328
0.000492039
0.000492512
0.000492758
0.000492783
0.000492579
0.000492144
0.000491494
0.000490632
0.000489566
0.0004883
0.000486843
0.0004852
0.000483378
0.000481385
0.000479228
0.000476915
0.000474452
0.000471849
0.000469112
0.000466251
0.000463273
0.000460187
0.000457003
0.000453726
0.000450367
0.000446931
0.000443426
0.00043986
0.00043624
0.00043257
0.00042885
0.000425074
0.000421223
0.000417269
0.000413199
0.00040904
0.000404843
0.000400632
0.000396414
0.000392194
0.000387974
0.000383759
0.000379551
0.000375354
0.000371172
0.000367005
0.000362855
0.000358719
0.000354607
0.000350525
0.000346474
0.000342456
0.000338473
0.000334525
0.000330616
0.000326746
0.000322917
0.00031913
0.000315386
0.000311685
0.000308029
0.000304419
0.000300856
0.000297339
0.000293868
0.000290443
0.000287061
0.000283726
0.000280436
0.000277199
0.000274017
0.000270873
0.000267768
0.000264706
0.00026169
0.000258721
0.000255799
0.000252923
0.000250094
0.000247311
0.000244572
0.000241878
0.000239227
0.00023662
0.000234054
0.000231531
0.000229048
0.000226607
0.000224207
0.000221848
0.000219529
0.00021725
0.000215011
0.000212812
0.000210655
0.000208538
0.000206463
0.000204431
0.000202443
0.0002005
0.000198604
0.000196756
0.000194958
0.00019321
0.000191515
0.000189872
0.00018828
0.000186738
0.000185242
0.00018379
0.000182364
0.000180992
0.000179553
0.000178341
0.000176501
0.000175969
0.000173227
0.000171905
1.28751e-05
7.44295e-05
0.000173974
0.000251168
0.000302742
0.000332293
0.000342988
0.000340026
0.000327273
0.000308342
0.00028914
0.000277103
0.000275211
0.000281967
0.000292209
0.000302965
0.000315728
0.000332547
0.000353828
0.00037883
0.000405943
0.000433892
0.000472865
0.000518774
0.000564167
0.000608088
0.000651022
0.000694565
0.000733554
0.000764577
0.000789376
0.000809043
0.00082464
0.00083702
0.000846964
0.000855239
0.000862544
0.000869517
0.000876692
0.000884419
0.000892801
0.000901716
0.000910922
0.000920185
0.000929329
0.000938235
0.000946827
0.000955057
0.000962889
0.000970295
0.000977249
0.00098373
0.000989726
0.000995235
0.00100025
0.00100478
0.00100882
0.00101236
0.00101541
0.00101797
0.00102004
0.00102161
0.00102269
0.00102324
0.00102339
0.0010231
0.00102231
0.00102107
0.00101938
0.00101726
0.00101472
0.00101178
0.00100845
0.00100473
0.00100065
0.000996221
0.000991456
0.00098637
0.000980978
0.000975296
0.000969338
0.00096312
0.000956658
0.000949966
0.00094306
0.000935954
0.000928664
0.000921203
0.000913585
0.000905822
0.000897927
0.000889911
0.000881783
0.000873553
0.000865227
0.000856815
0.000848331
0.00083979
0.000831208
0.000822599
0.000813974
0.000805341
0.000796708
0.000788083
0.000779473
0.000770885
0.000762325
0.000753801
0.000745316
0.000736877
0.000728489
0.000720158
0.000711888
0.000703684
0.000695548
0.000687485
0.000679497
0.000671587
0.000663758
0.000656012
0.000648352
0.000640778
0.000633293
0.000625899
0.000618598
0.000611389
0.000604272
0.000597249
0.00059032
0.000583485
0.000576746
0.000570102
0.000563551
0.000557089
0.000550714
0.000544428
0.000538234
0.000532132
0.000526122
0.000520203
0.000514376
0.000508639
0.00050299
0.000497429
0.000491954
0.000486564
0.000481258
0.000476035
0.000470894
0.000465833
0.000460852
0.000455949
0.000451124
0.000446375
0.000441702
0.000437103
0.000432576
0.000428122
0.000423738
0.000419424
0.000415177
0.000410997
0.000406881
0.000402827
0.000398834
0.000394896
0.000391012
0.000387174
0.000383378
0.000379614
0.00037587
0.000372133
0.000368376
0.00036459
0.000360678
0.000356732
0.000352269
0.000348086
0.000341643
0.000330142
2.18265e-05
0.000106502
0.000220162
0.000312461
0.000374802
0.000411457
0.0004266
0.000426816
0.000416814
0.000403622
0.000395872
0.000395309
0.000404799
0.000422118
0.000444909
0.000472686
0.000506043
0.000545258
0.000589506
0.000653107
0.000727046
0.000806872
0.00089065
0.000960852
0.00102297
0.00107884
0.00112902
0.00117372
0.00121278
0.0012465
0.00127561
0.00130084
0.00132287
0.00134236
0.00135985
0.00137584
0.00139075
0.0014049
0.00141855
0.0014319
0.00144506
0.0014581
0.00147106
0.00148391
0.0014966
0.00150905
0.00152118
0.00153287
0.00154406
0.00155465
0.0015646
0.00157387
0.00158244
0.00159029
0.00159743
0.00160383
0.0016095
0.00161443
0.00161863
0.00162209
0.00162481
0.00162679
0.00162794
0.00162838
0.00162825
0.00162733
0.00162571
0.00162338
0.00162039
0.00161673
0.00161243
0.00160751
0.00160199
0.00159588
0.00158923
0.00158203
0.00157432
0.00156613
0.00155746
0.00154835
0.00153882
0.00152889
0.00151859
0.00150793
0.00149695
0.00148566
0.00147409
0.00146225
0.00145018
0.00143788
0.00142538
0.0014127
0.00139985
0.00138686
0.00137373
0.00136048
0.00134713
0.00133371
0.00132022
0.00130669
0.00129314
0.00127957
0.001266
0.00125245
0.00123892
0.00122542
0.00121197
0.00119857
0.00118524
0.00117198
0.0011588
0.00114571
0.00113271
0.00111981
0.00110702
0.00109434
0.00108178
0.00106934
0.00105702
0.00104483
0.00103278
0.00102086
0.00100907
0.000997429
0.000985927
0.000974567
0.00096335
0.000952279
0.000941352
0.000930572
0.000919939
0.000909452
0.000899108
0.000888903
0.000878838
0.000868912
0.000859127
0.000849484
0.000839982
0.00083062
0.000821398
0.000812314
0.000803366
0.000794554
0.000785874
0.000777325
0.000768906
0.000760613
0.000752447
0.000744405
0.000736485
0.000728686
0.000721006
0.000713442
0.000705994
0.000698659
0.000691435
0.00068432
0.000677313
0.000670411
0.000663611
0.000656911
0.000650309
0.0006438
0.00063738
0.000631046
0.000624789
0.000618604
0.000612481
0.000606406
0.000600365
0.000594336
0.000588289
0.00058219
0.000575965
0.000569589
0.000562783
0.000555809
0.00054739
0.000531208
2.69605e-05
0.000121963
0.000240946
0.000357445
0.000435172
0.000482045
0.00050534
0.000513698
0.000515323
0.000516539
0.000523753
0.000540247
0.000566601
0.000601842
0.000645219
0.000696778
0.000757328
0.000841108
0.000937085
0.00103276
0.00112148
0.00120561
0.00128466
0.00135708
0.0014236
0.0014848
0.00154108
0.00159277
0.00164021
0.00168386
0.00172418
0.00176166
0.00179673
0.00182975
0.00186104
0.00189085
0.00191936
0.00194672
0.00197303
0.00199834
0.00202269
0.00204608
0.00206852
0.00208997
0.00211043
0.00212985
0.00214822
0.00216549
0.00218164
0.00219666
0.00221053
0.00222325
0.00223484
0.00224531
0.00225467
0.00226296
0.00227017
0.00227633
0.00228146
0.00228556
0.00228865
0.0022907
0.00229161
0.0022917
0.00229082
0.00228894
0.0022861
0.00228233
0.00227764
0.00227206
0.00226561
0.00225832
0.00225022
0.00224134
0.00223171
0.00222135
0.00221031
0.0021986
0.00218627
0.00217334
0.00215984
0.00214581
0.00213127
0.00211626
0.0021008
0.00208494
0.00206869
0.0020521
0.00203517
0.00201796
0.00200048
0.00198275
0.00196481
0.00194667
0.00192837
0.00190991
0.00189133
0.00187265
0.0018539
0.00183509
0.00181625
0.00179739
0.00177854
0.00175971
0.00174091
0.00172216
0.00170348
0.00168487
0.00166635
0.00164794
0.00162963
0.00161145
0.00159339
0.00157548
0.00155771
0.0015401
0.00152265
0.00150536
0.00148825
0.00147131
0.00145456
0.00143798
0.0014216
0.00140541
0.00138941
0.0013736
0.00135799
0.00134258
0.00132737
0.00131236
0.00129755
0.00128293
0.00126852
0.00125429
0.00124026
0.00122643
0.00121278
0.00119933
0.00118606
0.00117299
0.00116011
0.00114742
0.00113491
0.00112259
0.00111045
0.00109848
0.00108669
0.00107508
0.00106363
0.00105236
0.00104124
0.0010303
0.00101951
0.00100888
0.000998411
0.000988091
0.000977922
0.000967901
0.000958024
0.000948288
0.000938691
0.000929229
0.000919898
0.000910694
0.00090161
0.000892642
0.000883782
0.00087502
0.000866346
0.000857744
0.000849195
0.000840674
0.000832148
0.000823574
0.000814881
0.000806008
0.000796752
0.000787149
0.000776996
0.000757249
3.08043e-05
0.000135307
0.000261397
0.000392188
0.000488188
0.000549576
0.000587181
0.000610593
0.000628473
0.000648055
0.00067453
0.000710485
0.00075663
0.000813236
0.000880854
0.000971688
0.00107702
0.00117862
0.00127768
0.00137291
0.00146337
0.00154913
0.00163015
0.00170639
0.00177816
0.00184581
0.00190967
0.00197008
0.00202737
0.00208188
0.00213391
0.00218376
0.00223167
0.00227786
0.00232248
0.00236565
0.00240746
0.00244796
0.00248719
0.00252516
0.00256185
0.00259724
0.00263132
0.00266404
0.00269537
0.00272526
0.00275368
0.00278058
0.00280593
0.0028297
0.00285185
0.00287236
0.00289123
0.00290843
0.00292397
0.00293783
0.00295003
0.00296057
0.00296946
0.00297673
0.00298238
0.00298646
0.00298889
0.00298979
0.00298932
0.00298735
0.00298401
0.0029793
0.0029733
0.00296605
0.0029576
0.002948
0.00293732
0.00292559
0.00291286
0.0028992
0.00288463
0.00286921
0.00285299
0.00283599
0.00281828
0.00279988
0.00278085
0.00276121
0.00274102
0.00272031
0.00269912
0.00267749
0.00265546
0.00263306
0.00261033
0.0025873
0.002564
0.00254047
0.00251674
0.00249283
0.00246877
0.0024446
0.00242034
0.00239602
0.00237166
0.00234729
0.00232293
0.0022986
0.00227432
0.0022501
0.00222597
0.00220195
0.00217804
0.00215426
0.00213062
0.00210715
0.00208384
0.00206071
0.00203777
0.00201503
0.00199249
0.00197017
0.00194807
0.00192619
0.00190454
0.00188313
0.00186196
0.00184103
0.00182034
0.00179991
0.00177972
0.00175979
0.0017401
0.00172067
0.0017015
0.00168257
0.0016639
0.00164547
0.00162729
0.00160936
0.00159166
0.00157422
0.00155701
0.00154005
0.00152332
0.00150684
0.00149058
0.00147456
0.00145876
0.00144319
0.00142785
0.00141272
0.0013978
0.0013831
0.00136861
0.00135432
0.00134024
0.00132635
0.00131266
0.00129916
0.00128585
0.00127273
0.00125978
0.00124702
0.00123443
0.00122201
0.00120975
0.00119765
0.00118571
0.00117392
0.00116226
0.00115073
0.00113932
0.00112801
0.00111677
0.00110559
0.00109442
0.00108322
0.00107192
0.00106045
0.00104864
0.00103649
0.00102421
0.00100177
3.23464e-05
0.000142476
0.000273859
0.000409593
0.000527336
0.000608414
0.000664432
0.000706445
0.000743662
0.000783307
0.000830391
0.000887818
0.000957314
0.00105
0.00115723
0.00126382
0.00136986
0.00147308
0.00157298
0.00166914
0.00176133
0.00184957
0.00193396
0.00201464
0.00209187
0.00216592
0.00223707
0.00230558
0.00237171
0.00243569
0.00249773
0.00255801
0.00261668
0.00267385
0.00272961
0.00278401
0.00283708
0.00288884
0.00293929
0.0029884
0.00303614
0.00308248
0.00312736
0.00317076
0.0032126
0.00325283
0.00329142
0.00332829
0.0033634
0.00339671
0.00342818
0.00345775
0.0034854
0.0035111
0.00353482
0.00355654
0.00357625
0.00359393
0.00360959
0.00362321
0.00363481
0.00364439
0.00365197
0.00365759
0.00366124
0.00366286
0.00366278
0.00366079
0.00365701
0.0036515
0.00364429
0.00363545
0.00362503
0.0036131
0.00359972
0.00358495
0.00356886
0.00355151
0.00353298
0.00351333
0.00349263
0.00347094
0.00344833
0.00342487
0.00340062
0.00337564
0.00335
0.00332374
0.00329694
0.00326963
0.00324188
0.00321372
0.00318522
0.0031564
0.00312732
0.00309801
0.00306851
0.00303886
0.0030091
0.00297925
0.00294935
0.00291943
0.00288952
0.00285964
0.00282982
0.00280008
0.00277045
0.00274093
0.00271156
0.00268234
0.0026533
0.00262445
0.0025958
0.00256737
0.00253917
0.00251121
0.00248349
0.00245604
0.00242885
0.00240193
0.00237529
0.00234894
0.00232287
0.0022971
0.00227162
0.00224644
0.00222157
0.00219699
0.00217272
0.00214876
0.0021251
0.00210174
0.00207869
0.00205593
0.00203347
0.00201131
0.00198944
0.00196786
0.00194658
0.00192559
0.00190488
0.00188446
0.00186432
0.00184446
0.00182487
0.00180555
0.00178649
0.0017677
0.00174917
0.00173089
0.00171286
0.00169509
0.00167755
0.00166025
0.00164319
0.00162636
0.00160975
0.00159337
0.00157721
0.00156126
0.00154552
0.00152999
0.00151465
0.00149951
0.00148456
0.00146979
0.00145519
0.00144075
0.00142645
0.00141229
0.00139823
0.00138425
0.00137031
0.00135636
0.00134234
0.00132817
0.0013137
0.00129897
0.00128392
0.00125968
3.27875e-05
0.000144067
0.000275143
0.000409109
0.000538814
0.000642028
0.000719155
0.000780641
0.000836625
0.000894802
0.000963171
0.00105572
0.00116582
0.00128731
0.00140278
0.00151396
0.00162167
0.00172611
0.00182721
0.00192492
0.00201925
0.00211029
0.00219819
0.00228314
0.00236536
0.00244507
0.0025225
0.00259785
0.00267131
0.00274307
0.00281325
0.00288198
0.00294935
0.00301541
0.00308022
0.00314379
0.00320612
0.00326719
0.00332698
0.00338545
0.00344254
0.0034982
0.00355238
0.00360501
0.00365603
0.00370536
0.00375295
0.00379873
0.00384264
0.00388463
0.00392462
0.00396258
0.00399846
0.00403222
0.00406381
0.0040932
0.00412038
0.00414531
0.00416798
0.00418838
0.00420651
0.00422236
0.00423594
0.00424727
0.00425636
0.00426323
0.00426795
0.00427041
0.00427084
0.0042692
0.00426553
0.00425989
0.00425232
0.00424289
0.00423166
0.00421869
0.00420404
0.00418779
0.00416999
0.00415072
0.00413006
0.00410807
0.00408482
0.00406039
0.00403485
0.00400827
0.00398073
0.00395229
0.00392302
0.00389299
0.00386226
0.0038309
0.00379897
0.00376652
0.00373363
0.00370033
0.00366669
0.00363276
0.00359858
0.00356421
0.00352968
0.00349505
0.00346035
0.00342562
0.00339089
0.00335619
0.00332157
0.00328703
0.00325262
0.00321836
0.00318426
0.00315035
0.00311665
0.00308318
0.00304995
0.00301697
0.00298427
0.00295184
0.00291972
0.00288789
0.00285637
0.00282517
0.0027943
0.00276376
0.00273355
0.00270369
0.00267416
0.00264498
0.00261615
0.00258767
0.00255953
0.00253174
0.0025043
0.0024772
0.00245045
0.00242403
0.00239796
0.00237222
0.00234682
0.00232176
0.00229703
0.00227262
0.00224854
0.00222478
0.00220134
0.00217821
0.00215539
0.00213287
0.00211065
0.00208873
0.0020671
0.00204576
0.0020247
0.00200392
0.00198341
0.00196317
0.0019432
0.00192348
0.00190402
0.00188482
0.00186586
0.00184714
0.00182866
0.0018104
0.00179237
0.00177455
0.00175694
0.00173951
0.00172227
0.00170518
0.00168823
0.00167139
0.00165461
0.00163785
0.00162104
0.00160411
0.00158691
0.00156952
0.00155157
0.00152544
3.22248e-05
0.000141104
0.000268671
0.000397588
0.000521187
0.000633044
0.000726767
0.000808123
0.000891941
0.000987783
0.00109753
0.00122259
0.00135903
0.00148641
0.0016066
0.0017215
0.0018321
0.00193875
0.00204176
0.0021415
0.00223819
0.00233202
0.0024232
0.00251194
0.00259844
0.00268291
0.00276554
0.00284649
0.00292593
0.00300398
0.00308074
0.0031563
0.00323071
0.00330401
0.00337621
0.00344729
0.00351725
0.00358603
0.0036536
0.0037199
0.00378485
0.0038484
0.00391046
0.00397096
0.00402982
0.00408696
0.00414231
0.00419579
0.00424733
0.00429685
0.0043443
0.00438961
0.00443272
0.00447359
0.00451216
0.00454841
0.00458228
0.00461376
0.00464282
0.00466945
0.00469363
0.00471535
0.00473463
0.00475146
0.00476587
0.00477786
0.00478746
0.0047947
0.00479963
0.0048022
0.00480259
0.00480077
0.00479681
0.00479075
0.00478265
0.00477257
0.00476057
0.00474672
0.00473108
0.00471372
0.00469471
0.00467413
0.00465203
0.00462851
0.00460363
0.00457745
0.00455007
0.00452154
0.00449195
0.00446136
0.00442983
0.00439745
0.00436427
0.00433037
0.0042958
0.00426064
0.00422493
0.00418875
0.00415214
0.00411517
0.00407789
0.00404035
0.0040026
0.00396468
0.00392665
0.00388853
0.00385037
0.00381222
0.00377409
0.00373604
0.00369807
0.00366024
0.00362255
0.00358504
0.00354774
0.00351065
0.0034738
0.00343721
0.00340089
0.00336486
0.00332914
0.00329372
0.00325863
0.00322388
0.00318946
0.00315539
0.00312168
0.00308833
0.00305534
0.00302272
0.00299047
0.00295859
0.00292708
0.00289594
0.00286517
0.00283478
0.00280475
0.00277509
0.0027458
0.00271688
0.00268832
0.00266012
0.00263227
0.00260479
0.00257765
0.00255086
0.00252441
0.0024983
0.00247253
0.00244708
0.00242197
0.00239717
0.00237269
0.00234853
0.00232467
0.00230111
0.00227786
0.0022549
0.00223223
0.00220984
0.00218774
0.0021659
0.00214434
0.00212304
0.00210199
0.00208119
0.00206062
0.00204028
0.00202014
0.00200019
0.0019804
0.00196074
0.00194117
0.00192165
0.0019021
0.00188244
0.00186256
0.0018425
0.00182174
0.00179341
3.08507e-05
0.00013501
0.000257905
0.000383072
0.000504925
0.000620955
0.000731686
0.000841004
0.000956288
0.00108257
0.00122098
0.00137099
0.00151316
0.00164502
0.00176916
0.00188748
0.00200109
0.00211062
0.00221646
0.00231883
0.00241812
0.0025147
0.0026089
0.00270094
0.00279108
0.00287951
0.00296641
0.00305194
0.00313623
0.0032194
0.00330152
0.00338266
0.00346284
0.00354208
0.00362037
0.00369769
0.003774
0.00384924
0.00392335
0.00399625
0.00406786
0.0041381
0.00420689
0.00427412
0.00433971
0.00440357
0.00446561
0.00452574
0.00458388
0.00463995
0.00469387
0.00474558
0.00479501
0.00484211
0.00488681
0.00492907
0.00496886
0.00500613
0.00504086
0.00507303
0.00510262
0.00512963
0.00515405
0.00517589
0.00519515
0.00521186
0.00522603
0.00523768
0.00524686
0.00525358
0.0052579
0.00525984
0.0052595
0.00525689
0.00525207
0.00524511
0.00523606
0.00522498
0.00521194
0.00519701
0.00518025
0.00516173
0.00514153
0.00511971
0.00509635
0.00507152
0.0050453
0.00501776
0.00498896
0.00495899
0.00492791
0.00489579
0.0048627
0.0048287
0.00479387
0.00475827
0.00472197
0.00468502
0.00464749
0.00460944
0.00457092
0.004532
0.00449272
0.00445314
0.00441331
0.00437327
0.00433307
0.00429275
0.00425235
0.00421191
0.00417147
0.00413107
0.00409072
0.00405047
0.00401035
0.00397037
0.00393057
0.00389096
0.00385157
0.00381242
0.00377353
0.00373491
0.00369658
0.00365855
0.00362083
0.00358344
0.00354638
0.00350967
0.0034733
0.0034373
0.00340165
0.00336637
0.00333147
0.00329693
0.00326277
0.00322899
0.00319558
0.00316255
0.0031299
0.00309762
0.00306572
0.0030342
0.00300305
0.00297227
0.00294186
0.00291182
0.00288214
0.00285281
0.00282385
0.00279523
0.00276697
0.00273905
0.00271147
0.00268423
0.00265732
0.00263074
0.00260448
0.00257854
0.00255292
0.00252761
0.0025026
0.0024779
0.00245349
0.00242937
0.00240553
0.00238196
0.00235865
0.00233559
0.00231276
0.00229014
0.00226771
0.00224543
0.00222326
0.00220116
0.00217904
0.00215684
0.00213444
0.00211187
0.00208856
0.00205789
2.93018e-05
0.000128711
0.000248086
0.000372262
0.000496876
0.000620859
0.000745758
0.000875327
0.00101296
0.00116059
0.00131836
0.00147994
0.00162755
0.00176385
0.00189183
0.00201348
0.00213006
0.0022424
0.00235103
0.00245633
0.00255862
0.00265807
0.00275514
0.00285018
0.00294347
0.00303526
0.00312573
0.00321506
0.00330337
0.00339076
0.00347731
0.00356306
0.00364804
0.00373223
0.00381563
0.00389819
0.00397986
0.00406056
0.00414022
0.00421875
0.00429606
0.00437205
0.00444661
0.00451964
0.00459105
0.00466072
0.00472856
0.00479447
0.00485836
0.00492014
0.00497973
0.00503704
0.00509201
0.00514458
0.00519467
0.00524225
0.00528726
0.00532967
0.00536945
0.00540656
0.005441
0.00547275
0.0055018
0.00552816
0.00555183
0.00557284
0.00559119
0.00560691
0.00562003
0.00563059
0.00563862
0.00564417
0.00564728
0.005648
0.0056464
0.00564252
0.00563643
0.00562819
0.00561785
0.00560549
0.00559117
0.00557495
0.00555692
0.00553714
0.00551569
0.00549263
0.00546804
0.005442
0.00541456
0.00538582
0.00535582
0.00532465
0.00529238
0.00525906
0.00522478
0.00518959
0.00515357
0.00511676
0.00507925
0.00504109
0.00500233
0.00496305
0.00492328
0.00488309
0.00484253
0.00480165
0.0047605
0.00471911
0.00467755
0.00463584
0.00459403
0.00455215
0.00451025
0.00446835
0.0044265
0.00438471
0.00434302
0.00430145
0.00426004
0.00421879
0.00417775
0.00413692
0.00409632
0.00405597
0.00401589
0.0039761
0.00393659
0.0038974
0.00385852
0.00381997
0.00378175
0.00374388
0.00370635
0.00366918
0.00363237
0.00359591
0.00355983
0.00352411
0.00348876
0.00345378
0.00341918
0.00338494
0.00335108
0.00331759
0.00328448
0.00325173
0.00321934
0.00318733
0.00315567
0.00312438
0.00309344
0.00306286
0.00303263
0.00300275
0.00297322
0.00294402
0.00291517
0.00288665
0.00285846
0.0028306
0.00280306
0.00277584
0.00274893
0.00272232
0.00269602
0.00267
0.00264427
0.0026188
0.00259359
0.0025686
0.00254382
0.00251921
0.00249473
0.00247033
0.00244595
0.00242149
0.00239687
0.00237207
0.00234656
0.00231374
2.7615e-05
0.000122123
0.000238099
0.00036164
0.000489121
0.00061994
0.00075635
0.000900132
0.0010529
0.00121515
0.00138737
0.00155312
0.00170471
0.00184487
0.00197635
0.00210111
0.00222051
0.00233546
0.00244663
0.00255451
0.00265949
0.00276187
0.00286193
0.00295984
0.00305604
0.00315082
0.00324441
0.003337
0.00342874
0.00351972
0.00361003
0.0036997
0.00378875
0.00387717
0.00396492
0.00405195
0.00413821
0.0042236
0.00430803
0.00439141
0.00447363
0.00455458
0.00463415
0.00471222
0.00478867
0.0048634
0.0049363
0.00500725
0.00507617
0.00514295
0.0052075
0.00526974
0.00532959
0.00538698
0.00544184
0.00549413
0.00554378
0.00559076
0.00563504
0.00567658
0.00571536
0.00575138
0.00578462
0.00581508
0.00584278
0.00586771
0.00588991
0.00590939
0.00592618
0.00594032
0.00595184
0.00596078
0.00596718
0.00597111
0.0059726
0.00597173
0.00596857
0.00596314
0.00595552
0.00594577
0.00593396
0.00592017
0.00590445
0.00588687
0.00586752
0.00584647
0.00582378
0.00579952
0.00577377
0.00574661
0.00571809
0.00568829
0.00565728
0.00562512
0.00559189
0.00555765
0.00552246
0.00548639
0.0054495
0.00541186
0.00537352
0.00533455
0.005295
0.00525493
0.00521438
0.00517341
0.00513207
0.00509041
0.00504847
0.00500629
0.00496393
0.00492141
0.00487878
0.00483608
0.00479333