/*--------------------------------*- C++ -*----------------------------------*\
| =========                 |                                                 |
| \\      /  F ield         | OpenFOAM: The Open Source CFD Toolbox           |
|  \\    /   O peration     | Version:  v2012                                 |
|   \\  /    A nd           | Website:  www.openfoam.com                      |
|    \\/     M anipulation  |                                                 |
\*---------------------------------------------------------------------------*/
FoamFile
{
    version     2.0;
    format      ascii;
    class       volScalarField;
    location    "3700";
    object      p;
}
// * * * * * * * * * * * * * * * * * * * * * * * * * * * * * * * * * * * * * //

dimensions      [0 2 -2 0 0 0 0];


internalField   nonuniform List<scalar> 
12225
(
514.683
55.5356
2.37153
0.289929
-1.88997
-3.36554
-3.80639
-4.00888
-4.21671
-4.36633
-4.40887
-4.4096
-4.41045
-4.4401
-4.49394
-4.56783
-4.72343
-4.93808
-122.172
0.24625
-2.71075
-0.756917
-2.20773
-3.51606
-3.94249
-4.12825
-4.26628
-4.35754
-4.42912
-4.48998
-4.54606
-4.5856
-4.61638
-4.64882
-4.72481
-4.84812
-200.638
-16.1411
-2.33885
-0.350222
-1.89217
-3.2358
-3.76107
-4.01519
-4.18678
-4.30305
-4.3967
-4.46644
-4.51712
-4.54574
-4.56656
-4.58598
-4.62455
-4.62154
-110.609
-10.9669
-2.16965
-0.42405
-1.77923
-3.01979
-3.59065
-3.90209
-4.11493
-4.25969
-4.36332
-4.43376
-4.48143
-4.51048
-4.53032
-4.54049
-4.54277
-4.47745
-61.5659
-8.13878
-3.61521
-1.20218
-2.0069
-2.98946
-3.51948
-3.84334
-4.07059
-4.22649
-4.33492
-4.40871
-4.45869
-4.48956
-4.50609
-4.50493
-4.47994
-4.39006
-45.724
-8.77832
-5.25155
-2.1927
-2.42187
-3.09255
-3.52783
-3.82836
-4.04844
-4.20383
-4.31377
-4.39014
-4.44172
-4.47237
-4.48454
-4.47447
-4.43448
-4.33917
-35.7879
-9.26967
-6.37347
-3.11734
-2.91416
-3.28192
-3.59609
-3.84993
-4.04861
-4.19542
-4.30244
-4.3783
-4.42945
-4.45895
-4.46808
-4.45359
-4.40911
-4.32077
-27.7715
-8.9006
-6.96713
-3.79589
-3.35462
-3.4913
-3.69383
-3.89569
-4.06762
-4.20139
-4.30221
-4.37524
-4.42496
-4.45365
-4.46202
-4.44758
-4.4059
-4.32986
-21.6836
-8.5137
-7.12805
-4.30406
-3.72235
-3.69951
-3.81038
-3.96057
-4.10281
-4.22037
-4.31244
-4.38095
-4.42844
-4.45635
-4.46502
-4.45281
-4.41712
-4.35491
-16.6065
-8.13454
-7.08194
-4.74927
-4.07709
-3.92845
-3.95393
-4.04876
-4.15655
-4.25382
-4.33417
-4.39629
-4.44071
-4.46792
-4.47804
-4.47026
-4.44368
-4.39819
-12.6329
-7.67489
-6.90017
-5.09587
-4.4011
-4.1649
-4.11706
-4.15764
-4.22889
-4.30312
-4.36946
-4.4237
-4.46443
-4.4913
-4.5042
-4.50305
-4.48824
-4.46124
-9.69315
-7.14295
-6.62346
-5.32096
-4.67328
-4.39206
-4.28988
-4.28291
-4.31887
-4.36922
-4.42035
-4.46582
-4.50272
-4.52983
-4.54689
-4.55422
-4.55286
-4.54496
-7.66035
-6.59905
-6.30041
-5.42614
-4.87798
-4.59245
-4.45924
-4.41664
-4.4225
-4.45082
-4.48727
-4.52424
-4.55774
-4.58599
-4.60841
-4.6254
-4.6381
-4.64854
-6.36536
-6.1075
-5.98026
-5.43503
-5.01078
-4.75285
-4.61174
-4.54849
-4.5329
-4.54388
-4.56831
-4.59842
-4.62985
-4.66032
-4.68903
-4.71607
-4.74239
-4.76937
-5.6172
-5.71693
-5.70366
-5.38562
-5.08087
-4.86817
-4.73721
-4.66795
-4.64124
-4.64172
-4.65861
-4.6849
-4.71629
-4.75034
-4.78592
-4.82282
-4.8614
-4.90247
-5.23794
-5.45479
-5.5028
-5.32236
-5.10998
-4.94309
-4.831
-4.76622
-4.73773
-4.73505
-4.74986
-4.77625
-4.81024
-4.84939
-4.8923
-4.93837
-4.98748
-5.03984
-5.09673
-5.3389
-5.41166
-5.29375
-5.12986
-4.99087
-4.89336
-4.83558
-4.81059
-4.81049
-4.8284
-4.85903
-4.89862
-4.94463
-4.99545
-5.05013
-5.10816
-5.16933
-5.13437
-5.39465
-5.46882
-5.3428
-5.16907
-5.02349
-4.92332
-4.86622
-4.84435
-4.84925
-4.87343
-4.91125
-4.95855
-5.01257
-5.07136
-5.13377
-5.199
-5.26669
-5.3865
-5.64893
-5.68474
-5.46972
-5.22068
-5.03045
-4.90951
-4.84654
-4.82758
-4.83986
-4.87348
-4.92123
-4.97825
-5.0413
-5.10831
-5.17793
-5.24941
-5.32227
-5.99561
-6.13054
-6.03643
-5.6291
-5.24133
-4.98184
-4.83557
-4.77083
-4.76145
-4.78786
-4.83636
-4.89806
-4.96737
-5.04094
-5.11672
-5.19357
-5.27082
-5.3483
-7.243
-6.88295
-6.48774
-5.75566
-5.17722
-4.84753
-4.69129
-4.64151
-4.65566
-4.70632
-4.77651
-4.8563
-4.94026
-5.02536
-5.1102
-5.19402
-5.27662
-5.35812
-9.63428
-7.95779
-6.97594
-5.76548
-4.9736
-4.60676
-4.47715
-4.46934
-4.52467
-4.61028
-4.70805
-4.8089
-4.90843
-5.00507
-5.09832
-5.18835
-5.27545
-5.36016
-13.9753
-9.3841
-7.3963
-5.56296
-4.58871
-4.25889
-4.2104
-4.27571
-4.38843
-4.51651
-4.64477
-4.76692
-4.88115
-4.98774
-5.08778
-5.18248
-5.27283
-5.35971
-20.8828
-10.9469
-7.54716
-5.05049
-4.00971
-3.83048
-3.92548
-4.09027
-4.26935
-4.44099
-4.59781
-4.73861
-4.86467
-4.97838
-5.08265
-5.17989
-5.27193
-5.35975
-29.7294
-11.9422
-7.02636
-4.11923
-3.25775
-3.37256
-3.66647
-3.94311
-4.18626
-4.3955
-4.57446
-4.72841
-4.86157
-4.97903
-5.08466
-5.18217
-5.27423
-5.36176
-43.0993
-12.6068
-5.46555
-2.72195
-2.40681
-2.95782
-3.47961
-3.85814
-4.14994
-4.38424
-4.57653
-4.73626
-4.87078
-4.98775
-5.09232
-5.1884
-5.27953
-5.36612
-84.5923
-17.3663
-3.6568
-1.25833
-1.68942
-2.71601
-3.4312
-3.86486
-4.16776
-4.40413
-4.60081
-4.76292
-4.89358
-5.00431
-5.10285
-5.1954
-5.28605
-5.37114
-177.879
-26.8424
-3.67284
-0.763065
-1.52839
-2.83703
-3.60896
-4.00894
-4.26048
-4.45567
-4.64079
-4.80893
-4.94252
-5.04703
-5.13073
-5.21136
-5.29968
-5.38185
-154.783
-9.62011
-3.26511
-1.06115
-1.83636
-3.21472
-3.90822
-4.21771
-4.40617
-4.54509
-4.68855
-4.84527
-4.99304
-5.11788
-5.2057
-5.27541
-5.35907
-5.4442
428.064
66.6127
7.0632
1.60652
-0.908886
-2.85074
-3.64637
-3.98769
-4.30448
-4.57384
-4.69849
-4.73494
-4.78699
-4.8816
-5.01438
-5.14552
-5.23648
-5.32018
-8.50477
-8.49197
-8.4819
-8.52381
-8.61671
-8.71967
-8.79861
-8.83753
-8.84028
-8.82211
-8.79449
-8.76595
-8.74449
-8.73592
-8.74099
-8.75331
-8.76404
-8.7688
-8.7704
-8.77554
-8.78691
-8.81959
-8.90975
-9.08346
-9.33823
-9.65737
-10.0296
-10.4439
-10.8849
-11.3365
-11.7837
-12.2146
-12.62
-12.9936
-13.3309
-13.6296
-13.8887
-14.1083
-14.2891
-14.432
-14.5384
-14.6095
-14.6467
-14.6515
-14.625
-14.5687
-14.4841
-14.3736
-14.2384
-14.0762
-13.8845
-13.6646
-13.4192
-13.15
-12.8583
-12.5451
-12.2115
-11.8585
-11.4871
-11.0984
-10.6934
-10.2733
-9.83917
-9.39221
-8.93358
-8.46447
-7.98608
-7.49961
-7.00625
-6.50719
-6.00359
-5.49658
-4.9873
-4.47681
-3.96615
-3.45633
-2.94831
-2.443
-1.94126
-1.44389
-0.951653
-0.46525
0.014673
0.487525
0.952771
1.40993
1.85858
2.29834
2.7289
3.15
3.56145
3.96305
4.35464
4.73619
5.10796
5.46994
5.82166
6.16274
6.49318
6.81319
7.12303
7.4229
7.71299
7.99347
8.26454
8.52639
8.77923
9.02329
9.25877
9.48589
9.70487
9.91595
10.1194
10.3154
10.5043
10.6863
10.8615
11.0304
11.193
11.3497
11.5006
11.6459
11.786
11.9209
12.0509
12.1762
12.297
12.4135
12.5258
12.6342
12.7387
12.8397
12.9375
13.0321
13.1234
13.2116
13.2968
13.3792
13.4588
13.5359
13.6105
13.6827
13.7526
13.8204
13.886
13.9497
14.0114
14.0713
14.1293
14.1856
14.2402
14.2932
14.3446
14.3945
14.4429
14.4898
14.5352
14.5793
14.6219
14.6632
14.7032
14.7418
14.7791
14.8151
14.8498
14.8833
14.9156
14.9467
14.9768
15.0058
15.0341
15.0617
15.0891
15.1167
15.1454
15.1761
15.2115
15.2532
15.3111
15.3717
-8.56265
-8.594
-8.66815
-8.7616
-8.86451
-8.95595
-9.01634
-9.03985
-9.02183
-8.96045
-8.87023
-8.77359
-8.69272
-8.64239
-8.6209
-8.61797
-8.62796
-8.65473
-8.69409
-8.71573
-8.7376
-8.81715
-8.98245
-9.22589
-9.53539
-9.90842
-10.3353
-10.7957
-11.2681
-11.7351
-12.1841
-12.606
-12.9944
-13.3455
-13.6578
-13.9308
-14.1651
-14.3616
-14.5215
-14.646
-14.7362
-14.7933
-14.8181
-14.8117
-14.7748
-14.708
-14.6118
-14.4861
-14.3316
-14.1514
-13.9491
-13.725
-13.4781
-13.2087
-12.9173
-12.6048
-12.2719
-11.9197
-11.5491
-11.1611
-10.7569
-10.3374
-9.90387
-9.45743
-8.99925
-8.5305
-8.05239
-7.56612
-7.07289
-6.57386
-6.07021
-5.56308
-5.05358
-4.5428
-4.03177
-3.52151
-3.01297
-2.50705
-2.00464
-1.50654
-1.0135
-0.526233
-0.0453929
0.428425
0.894677
1.35287
1.80257
2.24337
2.67493
3.09695
3.50916
3.91132
4.30321
4.68473
5.05597
5.41712
5.7684
6.10983
6.44124
6.76255
7.07378
7.37507
7.66657
7.94845
8.22089
8.48408
8.73823
8.98357
9.22031
9.44869
9.66894
9.88128
10.0859
10.2832
10.4732
10.6563
10.8327
11.0027
11.1664
11.3241
11.476
11.6224
11.7634
11.8993
12.0304
12.1568
12.2787
12.3962
12.5096
12.619
12.7247
12.8264
12.9243
13.019
13.1104
13.1988
13.2843
13.3669
13.4468
13.5242
13.5991
13.6716
13.7418
13.8099
13.8759
13.9398
14.0018
14.062
14.1203
14.1769
14.2318
14.285
14.3367
14.3868
14.4354
14.4825
14.5281
14.5724
14.6152
14.6567
14.6968
14.7356
14.7731
14.8093
14.8442
14.8778
14.9102
14.9415
14.9716
15.0008
15.0292
15.0569
15.0844
15.1121
15.1408
15.1715
15.2063
15.2459
15.2996
15.3495
-8.68998
-8.77158
-8.88933
-8.99471
-9.07695
-9.13008
-9.14997
-9.13538
-9.08499
-9.0012
-8.89324
-8.77799
-8.67907
-8.61573
-8.58792
-8.58387
-8.60425
-8.66395
-8.77229
-8.92245
-9.11293
-9.35439
-9.6501
-9.99054
-10.3636
-10.7599
-11.1695
-11.5804
-11.9823
-12.3681
-12.7332
-13.0737
-13.3871
-13.6718
-13.9266
-14.1512
-14.3453
-14.5091
-14.6427
-14.7465
-14.8208
-14.866
-14.8826
-14.8709
-14.8314
-14.7646
-14.6708
-14.55
-14.4021
-14.2282
-14.0296
-13.8075
-13.5623
-13.2945
-13.0049
-12.6941
-12.3631
-12.0127
-11.6439
-11.2576
-10.8549
-10.4369
-10.0047
-9.55941
-9.10227
-8.63441
-8.15705
-7.67139
-7.1786
-6.67989
-6.17641
-5.66931
-5.15971
-4.6487
-4.13732
-3.62658
-3.11746
-2.61086
-2.10766
-1.60867
-1.11467
-0.626363
-0.144405
0.330598
0.7981
1.25761
1.70867
2.15092
2.584
3.00763
3.42157
3.82561
4.21962
4.60351
4.97724
5.34083
5.6943
6.03767
6.37091
6.69401
7.00706
7.31016
7.60346
7.88712
8.16133
8.42627
8.68214
8.92917
9.16758
9.39759
9.61942
9.83331
10.0395
10.2382
10.4297
10.6142
10.792
10.9633
11.1283
11.2873
11.4405
11.588
11.7302
11.8672
11.9992
12.1264
12.2491
12.3674
12.4815
12.5915
12.6977
12.8002
12.8991
12.9948
13.0873
13.1767
13.263
13.3465
13.4273
13.5054
13.581
13.6542
13.7252
13.7938
13.8604
13.9249
13.9875
14.0481
14.1069
14.164
14.2193
14.273
14.325
14.3755
14.4245
14.4719
14.5179
14.5625
14.6057
14.6474
14.6878
14.7269
14.7646
14.801
14.8361
14.87
14.9026
14.934
14.9643
14.9937
15.0221
15.0499
15.0775
15.1051
15.1335
15.1636
15.1971
15.2337
15.2811
15.3147
-8.72786
-8.8249
-8.92591
-9.01218
-9.07626
-9.11551
-9.12746
-9.10952
-9.06177
-8.98937
-8.90372
-8.82179
-8.7617
-8.73612
-8.74969
-8.80454
-8.90469
-9.05398
-9.25306
-9.4962
-9.77394
-10.0793
-10.4067
-10.7498
-11.1034
-11.4622
-11.8208
-12.1741
-12.5175
-12.8469
-13.1592
-13.4515
-13.7219
-13.9687
-14.1905
-14.3866
-14.5564
-14.6993
-14.8153
-14.9043
-14.9664
-15.0014
-15.0097
-14.9912
-14.9462
-14.8748
-14.7774
-14.6542
-14.5058
-14.3327
-14.1356
-13.915
-13.6714
-13.4053
-13.1173
-12.8083
-12.479
-12.1302
-11.7628
-11.378
-10.9766
-10.5597
-10.1285
-9.68413
-9.22768
-8.76038
-8.28341
-7.79798
-7.30527
-6.80646
-6.30274
-5.79525
-5.28512
-4.77342
-4.26123
-3.74956
-3.23937
-2.73159
-2.2271
-1.72672
-1.23124
-0.741352
-0.257738
0.218997
0.688299
1.14967
1.60266
2.04687
2.48197
2.90767
3.32372
3.72994
4.12617
4.51234
4.8884
5.2543
5.61003
5.95557
6.29091
6.61611
6.93123
7.23639
7.53174
7.81744
8.09365
8.36057
8.61839
8.86734
9.10762
9.33946
9.56309
9.77874
9.98664
10.1871
10.3802
10.5664
10.7457
10.9185
11.085
11.2453
11.3999
11.5487
11.6922
11.8304
11.9636
12.0921
12.2159
12.3353
12.4504
12.5615
12.6687
12.7722
12.8723
12.969
13.0624
13.1527
13.24
13.3243
13.4059
13.4848
13.5612
13.6351
13.7067
13.7761
13.8433
13.9084
13.9715
14.0327
14.092
14.1496
14.2054
14.2595
14.312
14.363
14.4123
14.4602
14.5066
14.5515
14.595
14.6371
14.6778
14.7171
14.7551
14.7918
14.8271
14.8612
14.894
14.9256
14.956
14.9854
15.0139
15.0417
15.0691
15.0964
15.1242
15.1531
15.1844
15.2169
15.2563
15.2749
-8.51429
-8.59911
-8.69921
-8.79623
-8.87339
-8.92585
-8.95265
-8.9547
-8.93659
-8.90672
-8.87728
-8.86225
-8.87437
-8.92311
-9.01455
-9.15173
-9.33464
-9.55861
-9.81516
-10.0962
-10.3963
-10.7112
-11.0367
-11.3676
-11.6997
-12.0292
-12.3529
-12.6675
-12.9704
-13.2592
-13.5319
-13.7868
-14.0224
-14.2377
-14.4315
-14.6031
-14.7516
-14.8767
-14.9778
-15.0545
-15.1066
-15.1338
-15.136
-15.1131
-15.065
-14.9918
-14.8936
-14.7704
-14.6226
-14.4505
-14.2547
-14.0354
-13.7931
-13.5285
-13.2421
-12.9345
-12.6067
-12.2593
-11.8933
-11.5096
-11.1093
-10.6934
-10.2631
-9.81936
-9.36346
-8.89656
-8.41985
-7.93451
-7.44175
-6.94275
-6.43869
-5.93071
-5.41995
-4.90751
-4.39443
-3.88174
-3.37043
-2.86141
-2.35558
-1.85376
-1.35673
-0.865218
-0.37989
0.0986385
0.569808
1.03311
1.4881
1.93438
2.3716
2.79947
3.21774
3.62622
4.02475
4.41322
4.79158
5.15977
5.51776
5.86553
6.20311
6.53053
6.84787
7.15525
7.4528
7.74067
8.01904
8.28808
8.54801
8.79903
9.04135
9.27522
9.50083
9.71842
9.92823
10.1305
10.3254
10.5133
10.6944
10.8688
11.0369
11.1989
11.355
11.5054
11.6503
11.79
11.9246
12.0544
12.1795
12.3002
12.4166
12.5289
12.6373
12.742
12.8431
12.9408
13.0352
13.1264
13.2146
13.2999
13.3823
13.462
13.5392
13.6139
13.6862
13.7563
13.8242
13.89
13.9537
14.0155
14.0755
14.1336
14.19
14.2446
14.2976
14.349
14.3988
14.4471
14.4939
14.5392
14.5831
14.6256
14.6666
14.7063
14.7446
14.7815
14.8171
14.8514
14.8844
14.9162
14.9468
14.9762
15.0047
15.0324
15.0594
15.0861
15.113
15.1403
15.1688
15.1966
15.2282
15.2344
-8.09365
-8.18215
-8.30324
-8.42601
-8.53122
-8.61158
-8.66991
-8.71217
-8.74608
-8.78147
-8.82932
-8.89986
-9.00105
-9.13762
-9.31164
-9.52205
-9.76412
-10.0322
-10.321
-10.6249
-10.9382
-11.2563
-11.5754
-11.8918
-12.203
-12.5066
-12.801
-13.0844
-13.3554
-13.6127
-13.8552
-14.0817
-14.2911
-14.4825
-14.6549
-14.8077
-14.9398
-15.0508
-15.1399
-15.2067
-15.2506
-15.2713
-15.2684
-15.2416
-15.1908
-15.1159
-15.0166
-14.8932
-14.7457
-14.5744
-14.3795
-14.1613
-13.9204
-13.6571
-13.3721
-13.066
-12.7395
-12.3935
-12.0288
-11.6464
-11.2473
-10.8324
-10.4029
-9.95995
-9.50465
-9.0382
-8.56179
-8.07661
-7.58384
-7.08469
-6.58032
-6.0719
-5.56055
-5.04737
-4.53343
-4.01976
-3.50734
-2.99711
-2.48995
-1.9867
-1.48814
-0.995013
-0.50798
-0.0276645
0.445368
0.910609
1.3676
1.81595
2.25529
2.68534
3.10583
3.51657
3.91739
4.30817
4.68884
5.05933
5.41961
5.76967
6.10953
6.43923
6.75885
7.06851
7.36832
7.65844
7.93905
8.21032
8.47245
8.72563
8.97008
9.20603
9.43369
9.65329
9.86508
10.0693
10.2662
10.4559
10.6388
10.8151
10.9849
11.1486
11.3063
11.4583
11.6049
11.7461
11.8822
12.0134
12.14
12.2621
12.3798
12.4934
12.6031
12.7089
12.8112
12.91
13.0055
13.0977
13.1869
13.2731
13.3565
13.4371
13.5152
13.5907
13.6639
13.7347
13.8034
13.8699
13.9344
13.9969
14.0574
14.1162
14.1731
14.2284
14.2819
14.3338
14.3842
14.433
14.4802
14.526
14.5703
14.6132
14.6546
14.6946
14.7333
14.7705
14.8064
14.841
14.8742
14.9061
14.9367
14.9662
14.9946
15.022
15.0486
15.0746
15.1002
15.1255
15.151
15.174
15.1983
15.1937
-7.62951
-7.72828
-7.87051
-8.01946
-8.15754
-8.27637
-8.3796
-8.47665
-8.57694
-8.68938
-8.82152
-8.97818
-9.16201
-9.37342
-9.61066
-9.87157
-10.1531
-10.4507
-10.759
-11.0729
-11.3882
-11.7014
-12.0099
-12.3116
-12.6049
-12.8886
-13.1616
-13.4231
-13.6722
-13.9079
-14.1296
-14.3363
-14.5273
-14.7016
-14.8585
-14.9972
-15.1169
-15.217
-15.2966
-15.3552
-15.3923
-15.4073
-15.3998
-15.3694
-15.3158
-15.2387
-15.1381
-15.0139
-14.866
-14.6947
-14.5001
-14.2826
-14.0424
-13.78
-13.4961
-13.1911
-12.8658
-12.521
-12.1575
-11.7763
-11.3783
-10.9645
-10.5361
-10.094
-9.63957
-9.17386
-8.69807
-8.21339
-7.72101
-7.22211
-6.71787
-6.20944
-5.69794
-5.18449
-4.67014
-4.15592
-3.64283
-3.13179
-2.62371
-2.11941
-1.6197
-1.12529
-0.636876
-0.155079
0.319533
0.786445
1.2452
1.69538
2.13664
2.56866
2.9912
3.40403
3.80698
4.19994
4.5828
4.95549
5.31798
5.67026
6.01235
6.3443
6.66617
6.97808
7.28015
7.57251
7.85535
8.12883
8.39315
8.64851
8.89511
9.13318
9.36294
9.58462
9.79845
10.0047
10.2035
10.3952
10.58
10.7581
10.9298
11.0952
11.2547
11.4084
11.5566
11.6994
11.8371
11.9699
12.0979
12.2214
12.3406
12.4555
12.5665
12.6736
12.7771
12.8771
12.9737
13.0671
13.1573
13.2446
13.329
13.4106
13.4896
13.5661
13.6401
13.7118
13.7812
13.8485
13.9138
13.977
14.0383
14.0977
14.1553
14.2111
14.2653
14.3178
14.3687
14.418
14.4658
14.512
14.5568
14.6001
14.6419
14.6824
14.7214
14.7589
14.7951
14.8299
14.8633
14.8954
14.9261
14.9556
14.9838
15.0109
15.0369
15.062
15.0862
15.1093
15.1315
15.1496
15.1673
15.1535
-7.27607
-7.36941
-7.52162
-7.68757
-7.85466
-8.01603
-8.17121
-8.32809
-8.49485
-8.67726
-8.87933
-9.10217
-9.34432
-9.60493
-9.88339
-10.1774
-10.483
-10.7961
-11.1122
-11.428
-11.7404
-12.0472
-12.3466
-12.6373
-12.9182
-13.1885
-13.4475
-13.6945
-13.9291
-14.1505
-14.3582
-14.5515
-14.7297
-14.8921
-15.0379
-15.1665
-15.2771
-15.3689
-15.4413
-15.4935
-15.5251
-15.5354
-15.5238
-15.4901
-15.4337
-15.3545
-15.2521
-15.1266
-14.9778
-14.8058
-14.6109
-14.3931
-14.1529
-13.8908
-13.6071
-13.3025
-12.9778
-12.6336
-12.2707
-11.8902
-11.493
-11.08
-10.6524
-10.2112
-9.75755
-9.29264
-8.81761
-8.33366
-7.84195
-7.34368
-6.83999
-6.33204
-5.82095
-5.30781
-4.79367
-4.27957
-3.76648
-3.25534
-2.74703
-2.2424
-1.74222
-1.24724
-0.758132
-0.275522
0.200017
0.667969
1.12787
1.5793
2.02192
2.45539
2.87946
3.29391
3.69855
4.09324
4.4779
4.85243
5.2168
5.571
5.91504
6.24898
6.57287
6.88682
7.19095
7.48539
7.77032
8.04589
8.3123
8.56974
8.81842
9.05855
9.29036
9.51407
9.72991
9.9381
10.1389
10.3325
10.5192
10.6992
10.8727
11.0399
11.2012
11.3566
11.5064
11.6509
11.7902
11.9245
12.0541
12.1791
12.2997
12.416
12.5284
12.6368
12.7416
12.8428
12.9406
13.0351
13.1265
13.2148
13.3003
13.3829
13.4629
13.5403
13.6153
13.6878
13.7582
13.8263
13.8923
13.9563
14.0183
14.0784
14.1367
14.1932
14.248
14.3011
14.3526
14.4025
14.4508
14.4975
14.5428
14.5866
14.6289
14.6697
14.7091
14.747
14.7835
14.8186
14.8522
14.8844
14.9152
14.9446
14.9726
14.9993
15.0246
15.0487
15.0713
15.0921
15.1109
15.1243
15.136
15.114
-7.08821
-7.17435
-7.32868
-7.50126
-7.68495
-7.87766
-8.07603
-8.28204
-8.50015
-8.7327
-8.97999
-9.24199
-9.51859
-9.80939
-10.1125
-10.4245
-10.742
-11.0614
-11.3799
-11.6947
-12.0038
-12.3056
-12.5986
-12.8819
-13.1547
-13.4165
-13.6665
-13.9045
-14.1299
-14.3423
-14.541
-14.7257
-14.8956
-15.0501
-15.1886
-15.3102
-15.4144
-15.5004
-15.5675
-15.615
-15.6423
-15.6488
-15.634
-15.5973
-15.5385
-15.457
-15.3528
-15.2257
-15.0756
-14.9026
-14.7067
-14.4883
-14.2475
-13.9849
-13.701
-13.3963
-13.0715
-12.7273
-12.3647
-11.9844
-11.5875
-11.175
-10.7478
-10.3072
-9.85415
-9.3899
-8.91557
-8.43234
-7.94138
-7.44385
-6.94092
-6.43371
-5.92334
-5.41088
-4.8974
-4.38389
-3.87134
-3.36066
-2.85275
-2.34842
-1.84846
-1.3536
-0.864503
-0.381803
0.0939344
0.562193
1.02251
1.47446
1.9177
2.3519
2.7768
3.19217
3.59783
3.99364
4.37948
4.75529
5.121
5.47662
5.82214
6.15761
6.48309
6.79869
7.10451
7.40068
7.68737
7.96474
8.23296
8.49223
8.74276
8.98474
9.2184
9.44397
9.66165
9.87169
10.0743
10.2697
10.4582
10.64
10.8152
10.9842
11.1471
11.3042
11.4557
11.6018
11.7427
11.8785
12.0096
12.136
12.2581
12.3758
12.4895
12.5993
12.7054
12.8078
12.9068
13.0025
13.095
13.1844
13.2709
13.3546
13.4356
13.514
13.5899
13.6634
13.7346
13.8035
13.8703
13.9351
13.9979
14.0587
14.1177
14.1749
14.2304
14.2841
14.3362
14.3867
14.4355
14.4828
14.5286
14.5729
14.6156
14.6569
14.6967
14.735
14.7718
14.8071
14.8409
14.8733
14.9041
14.9334
14.9612
14.9874
15.012
15.0348
15.0558
15.0742
15.0896
15.0985
15.1047
15.0757
-7.06296
-7.15
-7.2978
-7.46675
-7.65375
-7.85865
-8.07829
-8.31069
-8.55609
-8.81503
-9.08695
-9.37099
-9.66691
-9.97349
-10.288
-10.6076
-10.9292
-11.2502
-11.5682
-11.8811
-12.1873
-12.4853
-12.7742
-13.053
-13.321
-13.5779
-13.823
-14.0559
-14.2762
-14.4835
-14.6773
-14.8571
-15.0222
-15.1721
-15.306
-15.4234
-15.5236
-15.6058
-15.6693
-15.7135
-15.7377
-15.7413
-15.7239
-15.6848
-15.6237
-15.5403
-15.4343
-15.3056
-15.154
-14.9797
-14.7826
-14.5631
-14.3215
-14.0582
-13.7736
-13.4684
-13.1433
-12.7989
-12.4362
-12.056
-11.6592
-11.247
-10.8202
-10.38
-9.92757
-9.46399
-8.99041
-8.50801
-8.01793
-7.52134
-7.01938
-6.51317
-6.00381
-5.49238
-4.97991
-4.46741
-3.95582
-3.44608
-2.93905
-2.43554
-1.93634
-1.44217
-0.953687
-0.471511
0.00379765
0.471727
0.931818
1.38366
1.82689
2.2612
2.68632
3.102
3.50808
3.9044
4.29085
4.66735
5.03385
5.39033
5.7368
6.07331
6.3999
6.71667
7.02374
7.32122
7.60927
7.88804
8.15772
8.41848
8.67053
8.91406
9.1493
9.37645
9.59574
9.80739
10.0116
10.2087
10.3988
10.5821
10.759
10.9295
11.094
11.2527
11.4057
11.5533
11.6956
11.833
11.9655
12.0933
12.2167
12.3359
12.4509
12.5619
12.6692
12.7729
12.8731
12.9699
13.0635
13.154
13.2416
13.3263
13.4083
13.4876
13.5645
13.6389
13.7109
13.7807
13.8484
13.9139
13.9775
14.0391
14.0988
14.1567
14.2128
14.2671
14.3198
14.3709
14.4203
14.4682
14.5145
14.5593
14.6025
14.6442
14.6844
14.723
14.7602
14.7958
14.8298
14.8622
14.8931
14.9223
14.9497
14.9754
14.9992
15.0208
15.04
15.056
15.0682
15.0728
15.0741
15.039
-7.17633
-7.25471
-7.38565
-7.54163
-7.72045
-7.9218
-8.14293
-8.38128
-8.63518
-8.90328
-9.18385
-9.47579
-9.77813
-10.0889
-10.4056
-10.7257
-11.0466
-11.3661
-11.6821
-11.9927
-12.2965
-12.5922
-12.8787
-13.1553
-13.4213
-13.6762
-13.9193
-14.1504
-14.3688
-14.5742
-14.7661
-14.9438
-15.1068
-15.2546
-15.3865
-15.5017
-15.5997
-15.6797
-15.741
-15.7831
-15.8052
-15.8068
-15.7874
-15.7464
-15.6835
-15.5983
-15.4906
-15.3603
-15.2073
-15.0316
-14.8333
-14.6127
-14.3701
-14.106
-13.8207
-13.515
-13.1894
-12.8449
-12.4821
-12.1019
-11.7054
-11.2935
-10.8672
-10.4278
-9.97611
-9.51344
-9.0409
-8.55964
-8.07079
-7.57552
-7.07493
-6.57015
-6.06226
-5.55233
-5.04138
-4.53039
-4.02031
-3.51204
-3.00644
-2.50432
-2.00643
-1.5135
-1.02617
-0.545056
-0.0707183
0.396339
0.855659
1.30684
1.74951
2.18337
2.60815
3.02361
3.42956
3.82587
4.21241
4.5891
4.9559
5.31277
5.65973
5.99682
6.32409
6.64162
6.94952
7.24792
7.53696
7.81678
8.08756
8.34949
8.60275
8.84753
9.08406
9.31253
9.53317
9.74619
9.95182
10.1503
10.3418
10.5266
10.7048
10.8768
11.0427
11.2028
11.3572
11.5062
11.6499
11.7886
11.9225
12.0516
12.1763
12.2967
12.413
12.5253
12.6338
12.7386
12.8399
12.9378
13.0325
13.1241
13.2127
13.2984
13.3814
13.4616
13.5394
13.6147
13.6876
13.7582
13.8267
13.893
13.9573
14.0196
14.08
14.1386
14.1954
14.2504
14.3037
14.3554
14.4054
14.4538
14.5007
14.5459
14.5896
14.6318
14.6724
14.7114
14.7489
14.7847
14.8189
14.8515
14.8823
14.9114
14.9385
14.9637
14.9866
15.0069
15.0244
15.038
15.047
15.0477
15.0445
15.0042
-7.35431
-7.41885
-7.52974
-7.66823
-7.83218
-8.02109
-8.23261
-8.46405
-8.71293
-8.9769
-9.25374
-9.54224
-9.84116
-10.1483
-10.4612
-10.7775
-11.0949
-11.4112
-11.7244
-12.0329
-12.335
-12.6297
-12.9157
-13.1921
-13.4583
-13.7136
-13.9573
-14.1889
-14.4079
-14.6138
-14.806
-14.984
-15.1471
-15.2947
-15.4262
-15.5409
-15.6381
-15.7172
-15.7775
-15.8184
-15.8392
-15.8394
-15.8185
-15.776
-15.7115
-15.6249
-15.5157
-15.384
-15.2296
-15.0527
-14.8533
-14.6317
-14.3883
-14.1234
-13.8376
-13.5316
-13.2059
-12.8613
-12.4987
-12.119
-11.723
-11.3119
-10.8867
-10.4483
-9.99796
-9.53674
-9.06579
-8.58623
-8.09921
-7.60584
-7.10725
-6.60452
-6.09872
-5.59091
-5.08208
-4.57322
-4.06526
-3.55908
-3.05553
-2.55539
-2.05943
-1.56835
-1.08278
-0.603343
-0.130575
0.335022
0.792997
1.24295
1.68451
2.11739
2.5413
2.95602
3.36136
3.75718
4.14334
4.51978
4.88643
5.24328
5.59032
5.9276
6.25516
6.57309
6.88148
7.18046
7.47015
7.75071
8.02231
8.28511
8.53931
8.78509
9.02266
9.25222
9.47399
9.68817
9.89499
10.0947
10.2874
10.4734
10.653
10.8262
10.9934
11.1548
11.3105
11.4607
11.6057
11.7457
11.8808
12.0112
12.1371
12.2587
12.3761
12.4896
12.5992
12.7051
12.8075
12.9065
13.0022
13.0948
13.1844
13.2711
13.355
13.4362
13.5148
13.591
13.6647
13.7362
13.8054
13.8725
13.9376
14.0006
14.0617
14.121
14.1784
14.2341
14.288
14.3403
14.3909
14.4399
14.4872
14.533
14.5772
14.6198
14.6608
14.7002
14.738
14.7741
14.8086
14.8412
14.872
14.9009
14.9277
14.9523
14.9743
14.9934
15.0091
15.0204
15.0265
15.0235
15.0162
14.9715
-7.52885
-7.58031
-7.67288
-7.79352
-7.94024
-8.11251
-8.30825
-8.52506
-8.76048
-9.01193
-9.27741
-9.55577
-9.84561
-10.1447
-10.4506
-10.7609
-11.0734
-11.3859
-11.6965
-12.0034
-12.305
-12.6
-12.887
-13.1652
-13.4335
-13.6911
-13.9374
-14.1716
-14.3932
-14.6014
-14.7958
-14.9757
-15.1404
-15.2892
-15.4217
-15.537
-15.6345
-15.7135
-15.7735
-15.8139
-15.8339
-15.8332
-15.8113
-15.7677
-15.7021
-15.6142
-15.5039
-15.371
-15.2156
-15.0377
-14.8375
-14.6152
-14.3713
-14.1061
-13.8202
-13.5142
-13.1889
-12.8449
-12.4831
-12.1043
-11.7096
-11.2999
-10.8763
-10.4398
-9.99141
-9.53237
-9.06374
-8.58665
-8.1022
-7.61152
-7.11569
-6.61579
-6.11287
-5.60796
-5.10204
-4.59608
-4.09099
-3.58766
-3.08689
-2.58947
-2.09614
-1.60759
-1.12446
-0.647345
-0.176778
0.286745
0.742778
1.19092
1.63083
2.06218
2.48471
2.89819
3.30243
3.69729
4.08264
4.45839
4.8245
5.18092
5.52768
5.86479
6.1923
6.51029
6.81886
7.11811
7.40818
7.68921
7.96136
8.22479
8.47969
8.72625
8.96465
9.1951
9.4178
9.63297
9.84082
10.0415
10.2354
10.4225
10.6032
10.7776
10.946
11.1085
11.2654
11.4168
11.563
11.7041
11.8403
11.9719
12.099
12.2217
12.3403
12.4548
12.5655
12.6725
12.7759
12.876
12.9727
13.0663
13.1568
13.2444
13.3292
13.4113
13.4908
13.5678
13.6424
13.7147
13.7847
13.8525
13.9183
13.9821
14.0439
14.1038
14.1619
14.2182
14.2728
14.3257
14.3768
14.4264
14.4743
14.5206
14.5652
14.6083
14.6498
14.6895
14.7277
14.7641
14.7987
14.8315
14.8623
14.891
14.9175
14.9414
14.9626
14.9805
14.9945
15.0036
15.0069
15.0006
14.9896
14.9411
-7.65569
-7.69788
-7.77507
-7.87904
-8.00835
-8.16251
-8.33977
-8.53817
-8.75566
-8.99006
-9.23999
-9.50471
-9.78277
-10.0719
-10.3695
-10.6734
-10.9811
-11.2904
-11.5992
-11.9057
-12.2081
-12.5049
-12.7946
-13.0761
-13.3482
-13.61
-13.8604
-14.0988
-14.3244
-14.5364
-14.7342
-14.9171
-15.0844
-15.2354
-15.3695
-15.4861
-15.5845
-15.6641
-15.7243
-15.7645
-15.7842
-15.7829
-15.7602
-15.7158
-15.6493
-15.5606
-15.4494
-15.3157
-15.1597
-14.9812
-14.7807
-14.5583
-14.3144
-14.0495
-13.7642
-13.459
-13.1347
-12.792
-12.4318
-12.0549
-11.6623
-11.255
-10.8339
-10.4002
-9.95479
-9.4989
-9.03358
-8.55993
-8.07905
-7.59202
-7.09991
-6.60379
-6.10469
-5.6036
-5.1015
-4.59933
-4.09797
-3.59831
-3.10114
-2.60724
-2.11731
-1.63204
-1.15206
-0.677959
-0.21026
0.250547
0.704024
1.14977
1.58744
2.01673
2.43736
2.8491
3.25178
3.64522
4.02932
4.40398
4.76915
5.12479
5.4709
5.8075
6.13465
6.45241
6.76087
7.06013
7.35032
7.63157
7.90404
8.16789
8.42329
8.67042
8.90947
9.14064
9.36413
9.58013
9.78885
9.99051
10.1853
10.3734
10.5551
10.7306
10.9
11.0636
11.2216
11.3741
11.5214
11.6636
11.801
11.9337
12.0618
12.1856
12.3052
12.4208
12.5326
12.6406
12.7451
12.8461
12.9438
13.0383
13.1298
13.2183
13.304
13.387
13.4674
13.5452
13.6206
13.6936
13.7644
13.833
13.8995
13.964
14.0265
14.0871
14.1459
14.2028
14.258
14.3115
14.3632
14.4134
14.4618
14.5086
14.5538
14.5973
14.6392
14.6794
14.7179
14.7546
14.7894
14.8223
14.8531
14.8817
14.9078
14.9313
14.9516
14.9683
14.9807
14.9877
14.9884
14.9792
14.9649
14.9131
-7.71086
-7.74903
-7.81456
-7.90357
-8.01585
-8.15134
-8.30898
-8.48743
-8.68514
-8.90055
-9.13319
-9.38293
-9.64841
-9.92723
-10.2168
-10.5147
-10.8183
-11.1254
-11.4338
-11.7413
-12.0459
-12.346
-12.6398
-12.926
-13.2032
-13.4702
-13.726
-13.9696
-14.2001
-14.4167
-14.6186
-14.8051
-14.9755
-15.1292
-15.2654
-15.3836
-15.4832
-15.5635
-15.6241
-15.6644
-15.684
-15.6824
-15.6593
-15.6144
-15.5474
-15.4582
-15.3467
-15.2128
-15.0567
-14.8784
-14.6782
-14.4564
-14.2135
-13.9498
-13.6659
-13.3625
-13.0403
-12.7001
-12.3425
-11.9686
-11.5793
-11.1754
-10.7581
-10.3283
-9.88708
-9.4355
-8.97465
-8.5056
-8.02941
-7.54716
-7.05989
-6.56863
-6.0744
-5.57817
-5.08089
-4.58347
-4.0868
-3.59171
-3.09902
-2.60947
-2.12377
-1.64257
-1.16649
-0.696118
-0.231974
0.225462
0.675754
1.11851
1.55338
1.98005
2.39827
2.80779
3.20843
3.60003
3.98246
4.35564
4.71949
5.07399
5.41913
5.75493
6.08142
6.39866
6.70675
7.00578
7.29585
7.57712
7.8497
8.11378
8.3695
8.61704
8.85659
9.08833
9.31246
9.52916
9.73865
9.94112
10.1368
10.3258
10.5084
10.6849
10.8553
11.0199
11.1789
11.3324
11.4808
11.6241
11.7625
11.8962
12.0254
12.1502
12.2709
12.3875
12.5003
12.6093
12.7148
12.8167
12.9154
13.0109
13.1033
13.1927
13.2793
13.3632
13.4443
13.523
13.5992
13.673
13.7445
13.8139
13.8811
13.9463
14.0095
14.0708
14.1302
14.1878
14.2437
14.2977
14.3501
14.4008
14.4498
14.4971
14.5428
14.5869
14.6292
14.6698
14.7086
14.7456
14.7807
14.8138
14.8446
14.8731
14.8989
14.9218
14.9414
14.957
14.9679
14.9729
14.9713
14.9594
14.9421
14.8877
-7.69622
-7.73028
-7.78696
-7.86217
-7.95726
-8.07306
-8.20956
-8.3664
-8.54281
-8.73807
-8.95266
-9.18704
-9.43998
-9.709
-9.99139
-10.2845
-10.5856
-10.8921
-11.2016
-11.5116
-11.8201
-12.1248
-12.4241
-12.7161
-12.9993
-13.2724
-13.5341
-13.7833
-14.0191
-14.2405
-14.4466
-14.6368
-14.8103
-14.9665
-15.1048
-15.2246
-15.3253
-15.4064
-15.4675
-15.5081
-15.5278
-15.5262
-15.5031
-15.4581
-15.3912
-15.3022
-15.191
-15.0577
-14.9023
-14.7251
-14.5262
-14.3061
-14.0652
-13.8039
-13.5227
-13.2224
-12.9036
-12.567
-12.2135
-11.8439
-11.4592
-11.0602
-10.648
-10.2235
-9.7878
-9.3419
-8.88684
-8.42368
-7.95347
-7.47724
-6.99602
-6.51081
-6.02259
-5.53232
-5.04093
-4.54931
-4.05832
-3.56878
-3.08147
-2.59714
-2.1165
-1.64019
-1.16879
-0.702879
-0.242978
0.210433
0.656919
1.09609
1.5276
1.95113
2.36643
2.77325
3.17141
3.56074
3.94112
4.31244
4.67464
5.02768
5.37154
5.70624
6.03181
6.3483
6.65578
6.95435
7.24411
7.52519
7.79773
8.06186
8.31775
8.56556
8.80547
9.03766
9.26232
9.47962
9.68977
9.89296
10.0894
10.2793
10.4627
10.6401
10.8114
10.977
11.1369
11.2915
11.4408
11.5851
11.7246
11.8593
11.9895
12.1154
12.2371
12.3547
12.4685
12.5785
12.6849
12.7878
12.8874
12.9839
13.0772
13.1675
13.255
13.3397
13.4217
13.5011
13.5781
13.6527
13.725
13.7952
13.8631
13.929
13.9929
14.0549
14.115
14.1732
14.2297
14.2844
14.3374
14.3886
14.4382
14.4861
14.5324
14.5769
14.6197
14.6607
14.7
14.7373
14.7726
14.8059
14.8368
14.8652
14.8908
14.9132
14.9321
14.9466
14.9562
14.9595
14.9557
14.9414
14.9213
14.8649
-7.63157
-7.65667
-7.70279
-7.76142
-7.83617
-7.92909
-8.04141
-8.17398
-8.32704
-8.50087
-8.69687
-8.91606
-9.1572
-9.4176
-9.69428
-9.98424
-10.2845
-10.5922
-10.9044
-11.2186
-11.532
-11.8425