/*--------------------------------*- C++ -*----------------------------------*\
| =========                 |                                                 |
| \\      /  F ield         | OpenFOAM: The Open Source CFD Toolbox           |
|  \\    /   O peration     | Version:  v2012                                 |
|   \\  /    A nd           | Website:  www.openfoam.com                      |
|    \\/     M anipulation  |                                                 |
\*---------------------------------------------------------------------------*/
FoamFile
{
    version     2.0;
    format      ascii;
    class       surfaceScalarField;
    location    "3700";
    object      phi;
}
// * * * * * * * * * * * * * * * * * * * * * * * * * * * * * * * * * * * * * //

dimensions      [0 3 -1 0 0 0 0];
oriented        oriented;


internalField   nonuniform List<scalar> 
24170
(
3.92539e-06
-7.91497e-07
3.76461e-06
1.60756e-07
3.63337e-06
1.31208e-07
3.43319e-06
2.00139e-07
3.28008e-06
1.53079e-07
3.18942e-06
9.06274e-08
3.12906e-06
6.0244e-08
3.08117e-06
4.76049e-08
3.04128e-06
3.94649e-08
3.00439e-06
3.63569e-08
2.9698e-06
3.40942e-08
2.9378e-06
3.15383e-08
2.90852e-06
2.89144e-08
2.88201e-06
2.6222e-08
2.85827e-06
2.35465e-08
2.8387e-06
1.9508e-08
2.83065e-06
8.14438e-09
-9.34131e-09
2.84012e-06
3.58444e-06
-9.19498e-07
3.80423e-06
-5.90409e-08
3.7428e-06
1.9262e-07
3.69054e-06
2.52363e-07
3.63725e-06
2.06336e-07
3.58984e-06
1.37982e-07
3.55258e-06
9.73812e-08
3.52379e-06
7.61725e-08
3.50039e-06
6.25338e-08
3.48091e-06
5.53918e-08
3.46384e-06
5.06875e-08
3.44835e-06
4.65611e-08
3.43406e-06
4.27938e-08
3.42059e-06
3.93341e-08
3.40798e-06
3.58867e-08
3.39619e-06
3.11165e-08
3.38453e-06
1.9754e-08
3.89565e-09
3.37103e-06
3.68518e-06
-7.92482e-07
3.83638e-06
-2.10251e-07
3.91492e-06
1.14075e-07
3.94499e-06
2.22288e-07
3.94406e-06
2.07263e-07
3.92721e-06
1.54824e-07
3.9078e-06
1.16802e-07
3.89027e-06
9.37505e-08
3.87466e-06
7.82388e-08
3.86142e-06
6.87583e-08
3.84986e-06
6.23623e-08
3.83926e-06
5.72382e-08
3.8293e-06
5.27911e-08
3.81988e-06
4.87359e-08
3.81116e-06
4.45484e-08
3.80305e-06
3.91427e-08
3.7932e-06
2.95149e-08
1.76346e-08
3.77918e-06
4.05359e-06
-6.41511e-07
4.11459e-06
-2.71265e-07
4.20798e-06
2.06779e-08
4.26634e-06
1.63916e-07
4.29068e-06
1.82905e-07
4.29272e-06
1.52751e-07
4.28601e-06
1.2349e-07
4.27703e-06
1.02745e-07
4.26759e-06
8.77595e-08
4.25883e-06
7.76343e-08
4.25083e-06
7.0452e-08
4.24331e-06
6.48027e-08
4.23611e-06
5.99971e-08
4.22913e-06
5.56584e-08
4.22235e-06
5.12386e-08
4.21537e-06
4.60068e-08
4.20614e-06
3.86013e-08
3.04253e-08
4.19308e-06
4.50491e-06
-5.09116e-07
4.51536e-06
-2.81713e-07
4.58528e-06
-4.92457e-08
4.64664e-06
1.02553e-07
4.68256e-06
1.46981e-07
4.6968e-06
1.38517e-07
4.69972e-06
1.20604e-07
4.69774e-06
1.04793e-07
4.69352e-06
9.20975e-08
4.6886e-06
8.26914e-08
4.68358e-06
7.56144e-08
4.67853e-06
6.99707e-08
4.67341e-06
6.51931e-08
4.66816e-06
6.09317e-08
4.66263e-06
5.67504e-08
4.65632e-06
5.22589e-08
4.6478e-06
4.70286e-08
4.21831e-08
4.63587e-06
5.00014e-06
-3.94666e-07
4.98614e-06
-2.67712e-07
5.03068e-06
-9.37958e-08
5.08505e-06
4.81759e-08
5.12452e-06
1.07493e-07
5.14606e-06
1.16957e-07
5.15605e-06
1.10618e-07
5.15976e-06
1.01112e-07
5.16001e-06
9.19224e-08
5.15853e-06
8.4272e-08
5.15617e-06
7.80712e-08
5.15326e-06
7.29577e-08
5.14989e-06
6.86029e-08
5.14604e-06
6.47741e-08
5.14154e-06
6.12099e-08
5.13595e-06
5.77884e-08
5.12834e-06
5.45501e-08
5.24083e-08
5.11794e-06
5.54382e-06
-2.97478e-07
5.51664e-06
-2.40535e-07
5.54055e-06
-1.17699e-07
5.58387e-06
4.85266e-09
5.62165e-06
6.97158e-08
5.64657e-06
9.20461e-08
5.66123e-06
9.59804e-08
5.6693e-06
9.30818e-08
5.67327e-06
8.80171e-08
5.6748e-06
8.28185e-08
5.67484e-06
7.81079e-08
5.67386e-06
7.39981e-08
5.67207e-06
7.04354e-08
5.66951e-06
6.73511e-08
5.66604e-06
6.46687e-08
5.66135e-06
6.24427e-08
5.65492e-06
6.09083e-08
6.08274e-08
5.64644e-06
4.34788e-06
-2.39245e-07
4.32251e-06
-2.15172e-07
4.33078e-06
-1.2597e-07
4.35419e-06
-1.85624e-08
4.3784e-06
4.54965e-08
4.39647e-06
7.39635e-08
4.40846e-06
8.39906e-08
4.41604e-06
8.55163e-08
4.42063e-06
8.34581e-08
4.42326e-06
8.02314e-08
4.42457e-06
7.68394e-08
4.42493e-06
7.36703e-08
4.42454e-06
7.0854e-08
4.42345e-06
6.84459e-08
4.42162e-06
6.64853e-08
4.41893e-06
6.51157e-08
4.41518e-06
6.46354e-08
6.56065e-08
4.41033e-06
5.08622e-06
-1.85603e-07
5.05777e-06
-1.86727e-07
5.0584e-06
-1.26597e-07
5.07686e-06
-3.70297e-08
5.09918e-06
2.31808e-08
5.11774e-06
5.5403e-08
5.13129e-06
7.0451e-08
5.14065e-06
7.61701e-08
5.14691e-06
7.72253e-08
5.15097e-06
7.6197e-08
5.15347e-06
7.43643e-08
5.1548e-06
7.23514e-08
5.15521e-06
7.04645e-08
5.15477e-06
6.88808e-08
5.1535e-06
6.77449e-08
5.15134e-06
6.72601e-08
5.14822e-06
6.77126e-08
6.95647e-08
5.14425e-06
5.94839e-06
-1.38198e-07
5.91832e-06
-1.5666e-07
5.91161e-06
-1.19888e-07
5.924e-06
-4.94293e-08
5.94286e-06
4.31684e-09
5.9606e-06
3.76657e-08
5.97484e-06
5.62101e-08
5.98552e-06
6.54976e-08
5.99325e-06
6.95146e-08
5.9987e-06
7.07534e-08
6.00245e-06
7.0628e-08
6.00488e-06
6.99324e-08
6.00623e-06
6.91155e-08
6.00664e-06
6.84729e-08
6.00616e-06
6.82214e-08
6.00482e-06
6.8592e-08
6.00267e-06
6.98571e-08
7.22934e-08
5.99991e-06
6.95439e-06
-9.83182e-08
6.92401e-06
-1.26289e-07
6.91113e-06
-1.07008e-07
6.9168e-06
-5.5103e-08
6.93088e-06
-9.76077e-09
6.94637e-06
2.21721e-08
6.96019e-06
4.23932e-08
6.97145e-06
5.42431e-08
6.98022e-06
6.07549e-08
6.98688e-06
6.41007e-08
6.99183e-06
6.56778e-08
6.99541e-06
6.63534e-08
6.99784e-06
6.66847e-08
6.99929e-06
6.70256e-08
6.99985e-06
6.76557e-08
6.99964e-06
6.88069e-08
6.9988e-06
7.06838e-08
7.34944e-08
6.99759e-06
8.12719e-06
-6.64934e-08
8.09793e-06
-9.70326e-08
8.08056e-06
-8.96355e-08
8.07955e-06
-5.41005e-08
8.08794e-06
-1.81474e-08
8.09987e-06
1.02426e-08
8.11202e-06
3.02464e-08
8.1229e-06
4.33671e-08
8.13206e-06
5.15947e-08
8.13954e-06
5.663e-08
8.14551e-06
5.97007e-08
8.15021e-06
6.16643e-08
8.1538e-06
6.30824e-08
8.15646e-06
6.43676e-08
8.15833e-06
6.57926e-08
8.15955e-06
6.75823e-08
8.16034e-06
6.98997e-08
7.28446e-08
8.16096e-06
9.49368e-06
-4.24456e-08
9.4668e-06
-7.01557e-08
9.44683e-06
-6.96702e-08
9.43991e-06
-4.71787e-08
9.44229e-06
-2.05344e-08
9.44967e-06
2.86655e-09
9.45898e-06
2.09453e-08
9.46843e-06
3.39141e-08
9.47719e-06
4.28431e-08
9.48493e-06
4.88898e-08
9.49161e-06
5.30298e-08
9.49728e-06
5.59884e-08
9.50206e-06
5.831e-08
9.50606e-06
6.03585e-08
9.50944e-06
6.24158e-08
9.51236e-06
6.46547e-08
9.51504e-06
6.72117e-08
7.01237e-08
9.51775e-06
1.10854e-05
-2.51667e-08
1.10618e-05
-4.65168e-08
1.1041e-05
-4.88392e-08
1.10294e-05
-3.56024e-08
1.10261e-05
-1.72399e-08
1.10284e-05
5.10813e-10
1.1034e-05
1.53533e-08
1.10411e-05
2.68181e-08
1.10487e-05
3.53051e-08
1.10561e-05
4.14957e-08
1.1063e-05
4.60579e-08
1.10695e-05
4.95538e-08
1.10754e-05
5.24079e-08
1.10808e-05
5.49408e-08
1.10858e-05
5.73667e-08
1.10906e-05
5.98388e-08
1.10954e-05
6.24294e-08
6.51739e-08
1.11004e-05
1.29396e-05
-1.31266e-08
1.29194e-05
-2.62933e-08
1.28988e-05
-2.82846e-08
1.28839e-05
-2.07388e-08
1.28758e-05
-9.0676e-09
1.28732e-05
3.05077e-09
1.28748e-05
1.38199e-08
1.2879e-05
2.26397e-08
1.28847e-05
2.95653e-08
1.28913e-05
3.49328e-08
1.28982e-05
3.91406e-08
1.29052e-05
4.25524e-08
1.29121e-05
4.54603e-08
1.2919e-05
4.8083e-08
1.29258e-05
5.05697e-08
1.29326e-05
5.30139e-08
1.29395e-05
5.54591e-08
5.79087e-08
1.29468e-05
1.50998e-05
-4.49072e-09
1.50822e-05
-8.69148e-09
1.50621e-05
-8.14581e-09
1.50448e-05
-3.50923e-09
1.50327e-05
3.04009e-09
1.50259e-05
9.84581e-09
1.50237e-05
1.60454e-08
1.5025e-05
2.13208e-08
1.50289e-05
2.56828e-08
1.50346e-05
2.92854e-08
1.50414e-05
3.23262e-08
1.50489e-05
3.49855e-08
1.5057e-05
3.74075e-08
1.50654e-05
3.96944e-08
1.5074e-05
4.19093e-08
1.50829e-05
4.40829e-08
1.50922e-05
4.62183e-08
4.82963e-08
1.51018e-05
1.76171e-05
2.88561e-09
1.75999e-05
8.5054e-09
1.75787e-05
1.29945e-08
1.7559e-05
1.62298e-08
1.75436e-05
1.84027e-08
1.75336e-05
1.98721e-08
1.75287e-05
2.09418e-08
1.75282e-05
2.18637e-08
1.75311e-05
2.27827e-08
1.75365e-05
2.38061e-08
1.75439e-05
2.49707e-08
1.75526e-05
2.6298e-08
1.75622e-05
2.77711e-08
1.75725e-05
2.93705e-08
1.75834e-05
3.10559e-08
1.75947e-05
3.27909e-08
1.76064e-05
3.45261e-08
3.62194e-08
1.76184e-05
1.78181e-05
1.09939e-08
1.77994e-05
2.71878e-08
1.77768e-05
3.55893e-08
1.7756e-05
3.70062e-08
1.77402e-05
3.42655e-08
1.77302e-05
2.98663e-08
1.77257e-05
2.54087e-08
1.77259e-05
2.1664e-08
1.77298e-05
1.89464e-08
1.77363e-05
1.72462e-08
1.77449e-05
1.646e-08
1.77547e-05
1.64058e-08
1.77656e-05
1.69254e-08
1.77771e-05
1.78519e-08
1.77891e-05
1.90636e-08
1.78015e-05
2.04371e-08
1.78141e-05
2.18941e-08
2.33467e-08
1.7827e-05
1.58702e-05
2.21273e-08
1.58478e-05
4.95549e-08
1.58233e-05
6.00938e-08
1.58032e-05
5.71873e-08
1.57899e-05
4.75503e-08
1.57834e-05
3.63056e-08
1.57827e-05
2.61214e-08
1.57863e-05
1.80613e-08
1.5793e-05
1.22638e-08
1.58018e-05
8.49642e-09
1.58119e-05
6.35927e-09
1.58229e-05
5.47076e-09
1.58343e-05
5.4839e-09
1.5846e-05
6.12957e-09
1.58579e-05
7.18324e-09
1.58699e-05
8.48799e-09
1.58818e-05
9.90842e-09
1.13628e-08
1.58938e-05
1.41313e-05
3.9534e-08
1.41021e-05
7.86806e-08
1.40745e-05
8.77498e-08
1.40557e-05
7.59895e-08
1.40469e-05
5.63592e-08
1.40462e-05
3.69857e-08
1.40512e-05
2.11496e-08
1.40597e-05
9.52269e-09
1.40703e-05
1.69189e-09
1.40819e-05
-3.12414e-09
1.4094e-05
-5.69615e-09
1.41062e-05
-6.6754e-09
1.41182e-05
-6.55617e-09
1.41301e-05
-5.72517e-09
1.41417e-05
-4.44552e-09
1.41531e-05
-2.92313e-09
1.41643e-05
-1.2869e-09
3.57618e-10
1.41753e-05
1.25772e-05
6.73516e-08
1.25392e-05
1.16715e-07
1.25091e-05
1.17854e-07
1.24942e-05
9.08446e-08
1.24928e-05
5.77648e-08
1.25002e-05
2.96333e-08
1.25122e-05
9.09808e-09
1.25263e-05
-4.54608e-09
1.25409e-05
-1.28601e-08
1.25552e-05
-1.73756e-08
1.25688e-05
-1.93168e-08
1.25817e-05
-1.95635e-08
1.25939e-05
-1.87506e-08
1.26055e-05
-1.72806e-08
1.26165e-05
-1.54654e-08
1.26271e-05
-1.34796e-08
1.26372e-05
-1.14632e-08
-9.48639e-09
1.26471e-05
1.11862e-05
1.10913e-07
1.11384e-05
1.6455e-07
1.11088e-05
1.47487e-07
1.11022e-05
9.74416e-08
1.11117e-05
4.82669e-08
1.1129e-05
1.23696e-08
1.11486e-05
-1.0503e-08
1.11678e-05
-2.37317e-08
1.11855e-05
-3.05173e-08
1.12013e-05
-3.32425e-08
1.12156e-05
-3.35091e-08
1.12283e-05
-3.23327e-08
1.124e-05
-3.03419e-08
1.12506e-05
-2.79405e-08
1.12606e-05
-2.53699e-08
1.12699e-05
-2.28098e-08
1.12787e-05
-2.03235e-08
-1.79705e-08
1.12872e-05
9.93908e-06
1.7645e-07
9.88248e-06
2.21147e-07
9.85874e-06
1.71234e-07
9.86595e-06
9.02342e-08
9.88964e-06
2.45942e-08
9.91762e-06
-1.56019e-08
9.94395e-06
-3.6795e-08
9.96669e-06
-4.64327e-08
9.98575e-06
-4.95111e-08
1.00016e-05
-4.91395e-08
1.00151e-05
-4.69605e-08
1.00267e-05
-4.39234e-08
1.00369e-05
-4.0485e-08
1.0046e-05
-3.70103e-08
1.00543e-05
-3.36553e-08
1.0062e-05
-3.05084e-08
1.00693e-05
-2.75877e-08
-2.4889e-08
1.00762e-05
8.81963e-06
2.69915e-07
8.75785e-06
2.82933e-07
8.74788e-06
1.812e-07
8.77483e-06
6.32837e-08
8.81462e-06
-1.51819e-08
8.85217e-06
-5.3126e-08
8.8827e-06
-6.72741e-08
8.90631e-06
-6.99681e-08
8.92434e-06
-6.75726e-08
8.93839e-06
-6.31278e-08
8.94964e-06
-5.81625e-08
8.95901e-06
-5.31028e-08
8.96697e-06
-4.83899e-08
8.97395e-06
-4.3933e-08
8.98021e-06
-3.98816e-08
8.986e-06
-3.62663e-08
8.99143e-06
-3.30207e-08
-3.00912e-08
8.9966e-06
7.81391e-06
3.96675e-07
7.7539e-06
3.42935e-07
7.76868e-06
1.66418e-07
7.82055e-06
1.14199e-08
7.87571e-06
-7.03318e-08
7.91917e-06
-9.65716e-08
7.94974e-06
-9.78305e-08
7.97063e-06
-9.07857e-08
7.98501e-06
-8.17533e-08
7.99521e-06
-7.32562e-08
8.00296e-06
-6.57534e-08
8.00906e-06
-5.92307e-08
8.01419e-06
-5.33488e-08
8.01854e-06
-4.82092e-08
8.02238e-06
-4.36563e-08
8.02592e-06
-3.98322e-08
8.0293e-06
-3.6468e-08
-3.33874e-08
8.03259e-06
6.90424e-06
5.66768e-07
6.86137e-06
3.85802e-07
6.91717e-06
1.10612e-07
6.99676e-06
-6.81782e-08
7.06257e-06
-1.3615e-07
7.10536e-06
-1.39366e-07
7.13033e-06
-1.22682e-07
7.14451e-06
-1.04921e-07
7.15244e-06
-8.96722e-08
7.15707e-06
-7.77482e-08
7.16009e-06
-6.86635e-08
7.16229e-06
-6.11669e-08
7.16391e-06
-5.49337e-08
7.16524e-06
-4.95393e-08
7.16626e-06
-4.47198e-08
7.16728e-06
-4.09197e-08
7.16845e-06
-3.76331e-08
-3.46412e-08
7.16958e-06
6.07162e-06
7.97663e-07
6.08525e-06
3.7216e-07
6.19865e-06
-2.79219e-09
6.29991e-06
-1.6944e-07
6.3653e-06
-2.01543e-07
6.3976e-06
-1.71647e-07
6.41008e-06
-1.35275e-07
6.41332e-06
-1.07869e-07
6.41231e-06
-8.87138e-08
6.40988e-06
-7.52958e-08
6.40735e-06
-6.60861e-08
6.40484e-06
-5.87223e-08
6.40235e-06
-5.26208e-08
6.40013e-06
-4.72186e-08
6.39788e-06
-4.25095e-08
6.39604e-06
-3.91215e-08
6.39463e-06
-3.63211e-08
-3.32648e-08
6.39334e-06
5.35805e-06
1.05451e-06
5.50649e-06
2.23712e-07
5.64777e-06
-1.44089e-07
5.73566e-06
-2.57337e-07
5.7765e-06
-2.42399e-07
5.7833e-06
-1.78556e-07
5.77504e-06
-1.26879e-07
5.76263e-06
-9.55406e-08
5.75013e-06
-7.63802e-08
5.73923e-06
-6.46442e-08
5.73033e-06
-5.73529e-08
5.72235e-06
-5.10311e-08
5.71479e-06
-4.52875e-08
5.70785e-06
-4.0454e-08
5.7015e-06
-3.62043e-08
5.69609e-06
-3.37575e-08
5.69175e-06
-3.19231e-08
-2.85942e-08
5.68708e-06
5.04576e-06
1.01105e-06
5.36491e-06
-9.5459e-08
5.35252e-06
-1.31739e-07
5.33288e-06
-2.37717e-07
5.29605e-06
-2.05632e-07
5.25015e-06
-1.32742e-07
5.20833e-06
-8.50793e-08
5.17426e-06
-6.16078e-08
5.14685e-06
-4.93124e-08
5.12476e-06
-4.29529e-08
5.10679e-06
-3.9729e-08
5.09092e-06
-3.56516e-08
5.07608e-06
-3.0944e-08
5.06247e-06
-2.70801e-08
5.05038e-06
-2.42114e-08
5.04003e-06
-2.34327e-08
5.03131e-06
-2.31613e-08
-2.00835e-08
5.02286e-06
5.4676e-06
5.37214e-06
5.2404e-06
5.00267e-06
4.79703e-06
4.66428e-06
4.57919e-06
4.51753e-06
4.46814e-06
4.42513e-06
4.38531e-06
4.34955e-06
4.31854e-06
4.29144e-06
4.26721e-06
4.24379e-06
4.22065e-06
4.20059e-06
2.47579e-08
-2.47757e-08
2.38611e-07
-2.1384e-07
4.89932e-07
-2.51358e-07
7.09235e-07
-2.19306e-07
8.75925e-07
-1.66722e-07
9.86047e-07
-1.10125e-07
1.0406e-06
-5.45811e-08
1.04189e-06
-1.29169e-09
9.9528e-07
4.6587e-08
9.11115e-07
8.41889e-08
8.04701e-07
1.06404e-07
6.95447e-07
1.09319e-07
6.03005e-07
9.25092e-08
5.36876e-07
6.60688e-08
4.85391e-07
5.15962e-08
4.24121e-07
6.09495e-08
3.36402e-07
8.78349e-08
2.08048e-07
1.28262e-07
3.17221e-08
1.76468e-07
-2.13674e-07
2.45706e-07
-5.18603e-07
3.04991e-07
-8.59839e-07
3.41381e-07
-1.22335e-06
3.63493e-07
-1.59989e-06
3.76556e-07
-1.98067e-06
3.80732e-07
-2.35558e-06
3.74897e-07
-2.71668e-06
3.61066e-07
-3.05875e-06
3.42055e-07
-3.37803e-06
3.19255e-07
-3.67218e-06
2.94148e-07
-3.94041e-06
2.68218e-07
-4.18304e-06
2.42625e-07
-4.40112e-06
2.18068e-07
-4.59611e-06
1.94994e-07
-4.76974e-06
1.73625e-07
-4.92378e-06
1.5404e-07
-5.05998e-06
1.36198e-07
-5.17996e-06
1.19981e-07
-5.28518e-06
1.05227e-07
-5.37694e-06
9.17563e-08
-5.45633e-06
7.93879e-08
-5.52427e-06
6.79503e-08
-5.58156e-06
5.72884e-08
-5.62883e-06
4.72697e-08
-5.66661e-06
3.77852e-08
-5.69536e-06
2.87491e-08
-5.71545e-06
2.009e-08
-5.72723e-06
1.17793e-08
-5.73118e-06
3.9523e-09
-5.72816e-06
-3.0197e-09
-5.71926e-06
-8.89715e-09
-5.70526e-06
-1.40036e-08
-5.68654e-06
-1.87243e-08
-5.66335e-06
-2.31871e-08
-5.63587e-06
-2.74806e-08
-5.60423e-06
-3.16319e-08
-5.56858e-06
-3.56558e-08
-5.52902e-06
-3.95588e-08
-5.48568e-06
-4.33421e-08
-5.43867e-06
-4.70041e-08
-5.38813e-06
-5.05428e-08
-5.33418e-06
-5.39542e-08
-5.27694e-06
-5.72351e-08
-5.21656e-06
-6.03821e-08
-5.15317e-06
-6.33929e-08
-5.0869e-06
-6.62642e-08
-5.01791e-06
-6.89926e-08
-4.94633e-06
-7.15757e-08
-4.87232e-06
-7.4012e-08
-4.79602e-06
-7.63002e-08
-4.71758e-06
-7.84396e-08
-4.63715e-06
-8.04297e-08
-4.55488e-06
-8.2271e-08
-4.47092e-06
-8.3964e-08
-4.38541e-06
-8.551e-08
-4.2985e-06
-8.69105e-08
-4.21033e-06
-8.81678e-08
-4.12105e-06
-8.92844e-08
-4.03078e-06
-9.02631e-08
-3.93968e-06
-9.11075e-08
-3.84786e-06
-9.18213e-08
-3.75545e-06
-9.2409e-08
-3.66257e-06
-9.28754e-08
-3.56935e-06
-9.32262e-08
-3.47588e-06
-9.3468e-08
-3.38227e-06
-9.3608e-08
-3.28861e-06
-9.36551e-08
-3.19499e-06
-9.36197e-08
-3.10148e-06
-9.35144e-08
-3.00813e-06
-9.33546e-08
-2.91496e-06
-9.31614e-08
-2.822e-06
-9.29596e-08
-2.72924e-06
-9.27674e-08
-2.63667e-06
-9.25637e-08
-2.54441e-06
-9.22623e-08
-2.45265e-06
-9.17619e-08
-2.36167e-06
-9.0978e-08
-2.27174e-06
-8.99306e-08
-2.18296e-06
-8.87772e-08
-2.09534e-06
-8.76231e-08
-2.00887e-06
-8.64673e-08
-1.92358e-06
-8.5294e-08
-1.83948e-06
-8.4096e-08
-1.75661e-06
-8.28726e-08
-1.67498e-06
-8.16262e-08
-1.59462e-06
-8.03607e-08
-1.51554e-06
-7.90798e-08
-1.43776e-06
-7.77863e-08
-1.36128e-06
-7.6478e-08
-1.28614e-06
-7.51337e-08
-1.21238e-06
-7.37663e-08
-1.13997e-06
-7.24038e-08
-1.06893e-06
-7.10403e-08
-9.99255e-07
-6.96774e-08
-9.30939e-07
-6.83159e-08
-8.63981e-07
-6.69575e-08
-7.98376e-07
-6.56043e-08
-7.34116e-07
-6.42593e-08
-6.71192e-07
-6.29238e-08
-6.09594e-07
-6.15977e-08
-5.49313e-07
-6.02814e-08
-4.90335e-07
-5.8978e-08
-4.32642e-07
-5.76935e-08
-3.76209e-07
-5.64339e-08
-3.21017e-07
-5.51941e-08
-2.67047e-07
-5.39714e-08
-2.14279e-07
-5.27695e-08
-1.62694e-07
-5.15875e-08
-1.12284e-07
-5.04129e-08
-6.30382e-08
-4.92467e-08
-1.5086e-08
-4.795e-08
3.17166e-08
-4.67993e-08
7.76687e-08
-4.5952e-08
1.2265e-07
-4.49852e-08
1.66568e-07
-4.39239e-08
2.09422e-07
-4.28601e-08
2.51234e-07
-4.18124e-08
2.92029e-07
-4.07947e-08
3.31834e-07
-3.98083e-08
3.70679e-07
-3.88534e-08
4.08594e-07
-3.79273e-08
4.4561e-07
-3.70297e-08
4.81755e-07
-3.61576e-08
5.17054e-07
-3.53116e-08
5.51535e-07
-3.44896e-08
5.85222e-07
-3.36928e-08
6.18144e-07
-3.29177e-08
6.50321e-07
-3.21668e-08
6.81774e-07
-3.14384e-08
7.12522e-07
-3.07347e-08
7.4259e-07
-3.00548e-08
7.72e-07
-2.94003e-08
8.0078e-07
-2.87692e-08
8.2895e-07
-2.81634e-08
8.56538e-07
-2.75809e-08
8.83565e-07
-2.70236e-08
9.10058e-07
-2.64892e-08
9.36038e-07
-2.59795e-08
9.61532e-07
-2.54919e-08
9.86557e-07
-2.50275e-08
1.01114e-06
-2.4583e-08
1.0353e-06
-2.41582e-08
1.05904e-06
-2.37487e-08
1.08239e-06
-2.33518e-08
1.10535e-06
-2.29605e-08
1.12791e-06
-2.25679e-08
1.15006e-06
-2.21618e-08
1.17178e-06
-2.17271e-08
1.19301e-06
-2.12417e-08
1.21367e-06
-2.06743e-08
1.23363e-06
-1.99817e-08
1.25271e-06
-1.90988e-08
1.27063e-06
-1.79298e-08
1.28693e-06
-1.6328e-08
1.30094e-06
-1.4022e-08
1.31151e-06
-1.05921e-08
1.31602e-06
-4.52978e-09
1.3091e-06
6.90043e-09
1.27947e-06
2.96154e-08
7.2456e-08
1.20701e-06
2.53691e-07
-2.78476e-07
4.88922e-07
-4.4907e-07
6.38093e-07
-4.00543e-07
7.22276e-07
-3.03492e-07
7.61251e-07
-2.05711e-07
7.66633e-07
-1.1551e-07
7.45146e-07
-3.31082e-08
7.02481e-07
4.13726e-08
6.41604e-07
1.07454e-07
5.62473e-07
1.63326e-07
4.64297e-07
2.04579e-07
3.45385e-07
2.28235e-07
1.99491e-07
2.3843e-07
1.48329e-08
2.50669e-07
-2.18989e-07
2.85424e-07
-5.06231e-07
3.48118e-07
-8.44874e-07
4.26478e-07
-1.22372e-06
5.07126e-07
-1.62886e-06
5.81638e-07
-2.02921e-06
6.46114e-07
-2.41705e-06
6.92854e-07
-2.79194e-06
7.163e-07
-3.1468e-06
7.18359e-07
-3.47355e-06
7.03304e-07
-3.76734e-06
6.7451e-07
-4.02737e-06
6.34917e-07
-4.25418e-06
5.87871e-07
-4.44917e-06
5.37033e-07
-4.61528e-06
4.85354e-07
-4.75601e-06
4.34875e-07
-4.87473e-06
3.86935e-07
-4.9746e-06
3.42488e-07
-5.05847e-06
3.01938e-07
-5.12884e-06
2.65364e-07
-5.18782e-06
2.32599e-07
-5.23712e-06
2.0334e-07
-5.27814e-06
1.77216e-07
-5.31199e-06
1.53838e-07
-5.33959e-06
1.32826e-07
-5.36166e-06
1.13829e-07
-5.37881e-06
9.65392e-08
-5.39155e-06
8.06921e-08
-5.40033e-06
6.60674e-08
-5.40555e-06
5.24847e-08
-5.40756e-06
3.97983e-08
-5.4067e-06
2.78944e-08
-5.40331e-06
1.66961e-08
-5.3977e-06
6.16954e-09
-5.39002e-06
-3.72956e-09
-5.37984e-06
-1.31947e-08
-5.36628e-06
-2.24598e-08
-5.34873e-06
-3.1553e-08
-5.32704e-06
-4.04129e-08
-5.30119e-06
-4.90321e-08
-5.27126e-06
-5.7418e-08
-5.23731e-06
-6.5577e-08
-5.19945e-06
-7.35118e-08
-5.15779e-06
-8.12216e-08
-5.11243e-06
-8.87033e-08
-5.06348e-06
-9.5951e-08
-5.01107e-06
-1.02958e-07
-4.95531e-06
-1.09716e-07
-4.89632e-06
-1.16218e-07
-4.83425e-06
-1.22457e-07
-4.76921e-06
-1.28428e-07
-4.70135e-06
-1.34124e-07
-4.63081e-06
-1.39537e-07
-4.55772e-06
-1.44664e-07
-4.48223e-06
-1.49501e-07
-4.40449e-06
-1.54046e-07
-4.32463e-06
-1.58297e-07
-4.2428e-06
-1.62254e-07
-4.15916e-06
-1.65916e-07
-4.07384e-06
-1.69285e-07
-3.98698e-06
-1.72364e-07
-3.89874e-06
-1.75155e-07
-3.80924e-06
-1.77664e-07
-3.71863e-06
-1.79895e-07
-3.62704e-06
-1.81854e-07
-3.5346e-06
-1.83547e-07
-3.44144e-06
-1.84983e-07
-3.34768e-06
-1.8617e-07
-3.25344e-06
-1.87116e-07
-3.15883e-06
-1.87833e-07
-3.06397e-06
-1.88331e-07
-2.96896e-06
-1.88621e-07
-2.8739e-06
-1.88715e-07
-2.77889e-06
-1.88627e-07
-2.68404e-06
-1.88369e-07
-2.58944e-06
-1.87955e-07
-2.4952e-06
-1.87394e-07
-2.40147e-06
-1.86695e-07
-2.30838e-06
-1.85853e-07
-2.2161e-06
-1.84839e-07
-2.12476e-06
-1.83609e-07
-2.03439e-06
-1.82134e-07
-1.94495e-06
-1.80411e-07
-1.8564e-06
-1.78481e-07
-1.76876e-06
-1.76422e-07
-1.6821e-06
-1.74287e-07
-1.59647e-06
-1.72088e-07
-1.51194e-06
-1.69827e-07
-1.42853e-06
-1.67506e-07
-1.34628e-06
-1.65127e-07
-1.26521e-06
-1.62697e-07
-1.18535e-06
-1.6022e-07
-1.10672e-06
-1.57703e-07
-1.02936e-06
-1.55149e-07
-9.53281e-07
-1.52559e-07
-8.7848e-07
-1.49934e-07
-8.04959e-07
-1.47288e-07
-7.3273e-07
-1.44633e-07
-6.61796e-07
-1.41973e-07
-5.92161e-07
-1.39312e-07
-5.23823e-07
-1.36654e-07
-4.5678e-07
-1.34e-07
-3.91029e-07
-1.31355e-07
-3.26565e-07
-1.28723e-07
-2.63377e-07
-1.26111e-07
-2.01456e-07
-1.23519e-07
-1.40791e-07
-1.20946e-07
-8.13731e-08
-1.18396e-07
-2.31945e-08
-1.15872e-07
3.37586e-08
-1.13387e-07
8.95141e-08
-1.1095e-07
1.44089e-07
-1.08547e-07
1.97493e-07
-1.06174e-07
2.49743e-07
-1.03838e-07
3.00865e-07
-1.01536e-07
3.5089e-07
-9.92697e-08
3.99981e-07
-9.7039e-08
4.481e-07
-9.49158e-08
4.95029e-07
-9.288e-08
5.40845e-07
-9.08022e-08
5.85622e-07
-8.87032e-08
6.29394e-07
-8.6632e-08
6.7219e-07
-8.46074e-08
7.14033e-07
-8.26358e-08
7.54944e-07
-8.07196e-08
7.94945e-07
-7.88579e-08
8.34061e-07
-7.70492e-08
8.72317e-07
-7.52916e-08
9.09738e-07
-7.35834e-08
9.46346e-07
-7.19239e-08
9.82165e-07
-7.03118e-08
1.01722e-06
-6.87462e-08
1.05153e-06
-6.72263e-08
1.08513e-06
-6.57521e-08
1.11802e-06
-6.43243e-08
1.15024e-06
-6.29434e-08
1.1818e-06
-6.16102e-08
1.21273e-06
-6.03243e-08
1.24306e-06
-5.90858e-08
1.27279e-06
-5.78945e-08
1.30196e-06
-5.675e-08
1.33059e-06
-5.56525e-08
1.35871e-06
-5.46009e-08
1.38632e-06
-5.35951e-08
1.41346e-06
-5.2633e-08
1.44014e-06
-5.17137e-08
1.46639e-06
-5.08333e-08
1.49222e-06
-4.99891e-08
1.51764e-06
-4.91738e-08
1.54266e-06
-4.83813e-08
1.56729e-06
-4.75986e-08
1.59153e-06
-4.68127e-08
1.61536e-06
-4.59998e-08
1.63875e-06
-4.51334e-08
1.66167e-06
-4.41698e-08
1.68403e-06
-4.30547e-08
1.70574e-06
-4.17035e-08
1.72662e-06
-4.00013e-08
1.74644e-06
-3.77681e-08
1.76483e-06
-3.47373e-08
1.78123e-06
-3.04452e-08
1.79476e-06
-2.41375e-08
1.80444e-06
-1.42335e-08
1.80926e-06
2.06042e-09
1.80734e-06
3.15244e-08
8.81827e-08
1.79161e-06
2.45038e-07
-5.23518e-07
3.40247e-07
-5.44279e-07
3.56018e-07
-4.16323e-07
3.44665e-07
-2.92137e-07
3.16635e-07
-1.77691e-07
2.7219e-07
-7.10635e-08
2.10593e-07
2.84785e-08
1.30828e-07
1.21139e-07
3.17874e-08
2.06486e-07
-8.87113e-08
2.83823e-07
-2.36506e-07
3.52369e-07
-4.22242e-07
4.1396e-07
-6.59277e-07
4.75463e-07
-9.54106e-07
5.45471e-07
-1.29594e-06
6.27255e-07
-1.66289e-06
7.15047e-07
-2.03431e-06
7.97909e-07
-2.39374e-06
8.66568e-07
-2.72786e-06
9.15771e-07
-3.02525e-06
9.43527e-07
-3.28153e-06
9.49154e-07
-3.49872e-06
9.33495e-07
-3.68024e-06
8.99887e-07
-3.8299e-06
8.52961e-07
-3.95234e-06
7.96949e-07
-4.05294e-06
7.35519e-07
-4.13701e-06
6.71935e-07
-4.2089e-06
6.08921e-07
-4.27203e-06
5.48475e-07
-4.32898e-06
4.91824e-07
-4.38161e-06
4.39561e-07
-4.43103e-06
3.9191e-07
-4.47787e-06
3.48779e-07
-4.52239e-06
3.09885e-07
-4.56463e-06
2.74836e-07
-4.60448e-06
2.43195e-07
-4.64179e-06
2.14522e-07
-4.67635e-06
1.88404e-07
-4.70799e-06
1.64466e-07
-4.73654e-06
1.42379e-07
-4.76187e-06
1.21863e-07
-4.78385e-06
1.02682e-07
-4.80243e-06
8.46384e-08
-4.81751e-06
6.75684e-08
-4.82904e-06
5.13333e-08
-4.83696e-06
3.58146e-08
-4.84118e-06
2.09113e-08
-4.84154e-06
6.52982e-09
-4.83783e-06
-7.43633e-09
-4.82992e-06
-2.1101e-08
-4.81786e-06
-3.45222e-08
-4.80173e-06
-4.76869e-08
-4.78157e-06
-6.05735e-08
-4.75742e-06
-7.31732e-08
-4.72936e-06
-8.54793e-08
-4.69745e-06
-9.74859e-08
-4.66178e-06
-1.09186e-07
-4.62243e-06
-1.20571e-07
-4.5795e-06
-1.3163e-07
-4.5331e-06
-1.42352e-07
-4.48333e-06
-1.52725e-07
-4.43031e-06
-1.62736e-07
-4.37416e-06
-1.7237e-07
-4.315e-06
-1.81617e-07
-4.25296e-06
-1.9047e-07
-4.18816e-06
-1.98918e-07
-4.12075e-06
-2.0695e-07
-4.05086e-06
-2.14559e-07
-3.97862e-06
-2.2174e-07
-3.90418e-06
-2.28489e-07
-3.82767e-06
-2.34802e-07
-3.74924e-06
-2.4068e-07
-3.66904e-06
-2.46122e-07
-3.58719e-06
-2.5113e-07
-3.50385e-06
-2.55707e-07
-3.41915e-06
-2.59859e-07
-3.33322e-06
-2.6359e-07
-3.24621e-06
-2.66908e-07
-3.15824e-06
-2.69821e-07
-3.06945e-06
-2.7234e-07
-2.97996e-06
-2.74474e-07
-2.88989e-06
-2.76236e-07
-2.79937e-06
-2.77637e-07
-2.70851e-06
-2.78692e-07
-2.61743e-06
-2.79414e-07
-2.52623e-06
-2.79818e-07
-2.43503e-06
-2.79919e-07
-2.34392e-06
-2.79732e-07
-2.25302e-06
-2.79271e-07
-2.16243e-06
-2.78549e-07
-2.07224e-06
-2.77578e-07
-1.98258e-06
-2.76363e-07
-1.89352e-06
-2.74904e-07
-1.80518e-06
-2.73187e-07
-1.71759e-06
-2.71199e-07
-1.63079e-06
-2.68935e-07
-1.54478e-06
-2.66413e-07
-1.4596e-06
-2.63669e-07
-1.37527e-06
-2.60749e-07
-1.29187e-06
-2.57687e-07
-1.20946e-06
-2.54504e-07
-1.12807e-06
-2.51211e-07
-1.04776e-06
-2.47819e-07
-9.68551e-07
-2.44336e-07
-8.90475e-07
-2.40772e-07
-8.13559e-07
-2.37136e-07
-7.37826e-07
-2.33437e-07
-6.63294e-07
-2.2968e-07
-5.89978e-07
-2.25875e-07
-5.17883e-07
-2.22029e-07
-4.47018e-07
-2.18153e-07
-3.77393e-07
-2.14258e-07
-3.09014e-07
-2.10352e-07
-2.41883e-07
-2.06443e-07
-1.76e-07
-2.02537e-07
-1.11363e-07
-1.98637e-07
-4.79678e-08
-1.9475e-07
1.41911e-08
-1.90882e-07
7.51183e-08
-1.87039e-07
1.34822e-07
-1.83223e-07
1.93315e-07
-1.79439e-07
2.50609e-07
-1.75691e-07
3.0672e-07
-1.71985e-07
3.6166e-07
-1.68328e-07
4.15434e-07
-1.64725e-07
4.68059e-07
-1.61173e-07
5.19554e-07
-1.57671e-07
5.69939e-07
-1.54223e-07
6.19235e-07
-1.50833e-07
6.67474e-07
-1.47508e-07
7.14697e-07
-1.44261e-07
7.60884e-07
-1.41103e-07
8.06002e-07
-1.37999e-07
8.50102e-07
-1.34904e-07
8.93227e-07
-1.31831e-07
9.35401e-07
-1.28807e-07
9.76642e-07
-1.25849e-07
1.01697e-06
-1.22963e-07
1.0564e-06
-1.20152e-07
1.09495e-06
-1.17416e-07
1.13265e-06
-1.14755e-07
1.16952e-06
-1.12166e-07
1.20558e-06
-1.09648e-07
1.24085e-06
-1.07201e-07
1.27536e-06
-1.04823e-07
1.30913e-06
-1.02513e-07
1.34217e-06
-1.00271e-07
1.37452e-06
-9.80964e-08
1.40619e-06
-9.59902e-08
1.43721e-06
-9.39535e-08
1.46759e-06
-9.19863e-08
1.49735e-06
-9.00889e-08
1.52653e-06
-8.82606e-08
1.55514e-06
-8.65019e-08
1.58321e-06
-8.48118e-08
1.61075e-06
-8.31905e-08
1.63778e-06
-8.16366e-08
1.66434e-06
-8.01498e-08
1.69043e-06
-7.87272e-08
1.71609e-06
-7.73671e-08
1.74132e-06
-7.60644e-08
1.76614e-06
-7.48144e-08
1.79058e-06
-7.36078e-08
1.81463e-06
-7.24348e-08
1.83831e-06
-7.1278e-08
1.86162e-06
-7.01177e-08
1.88454e-06
-6.89223e-08
1.90705e-06
-6.76527e-08
1.92913e-06
-6.62497e-08
1.95071e-06
-6.46359e-08
1.97169e-06
-6.26958e-08
1.99196e-06
-6.02693e-08
2.0113e-06
-5.71127e-08
2.02942e-06
-5.28657e-08
2.0459e-06
-4.69335e-08
2.06014e-06
-3.83789e-08
2.07134e-06
-2.54451e-08
2.07866e-06
-5.25953e-09
2.08253e-06
2.76498e-08
8.56626e-08
2.08505e-06
9.2376e-08
-6.15896e-07
6.09633e-08
-5.12862e-07
1.19494e-08
-3.67314e-07
-4.56812e-08
-2.34501e-07
-1.15729e-07
-1.07648e-07
-2.01656e-07
1.48664e-08
-3.06478e-07
1.33296e-07
-4.32609e-07
2.47269e-07
-5.8265e-07
3.56523e-07
-7.60001e-07
4.61168e-07
-9.69423e-07
5.61791e-07
-1.21516e-06
6.59682e-07
-1.4957e-06
7.56008e-07
-1.8e-06
8.49754e-07
-2.10923e-06
9.36486e-07
-2.40398e-06
1.0098e-06
-2.67006e-06
1.064e-06
-2.89946e-06
1.09598e-06
-3.08901e-06
1.10533e-06
-3.2393e-06
1.09383e-06
-3.35462e-06
1.06449e-06
-3.44179e-06
1.02066e-06
-3.50805e-06
9.66151e-07
-3.55986e-06
9.04775e-07
-3.60264e-06
8.39729e-07
-3.64075e-06
7.73631e-07
-3.67739e-06
7.08572e-07
-3.71455e-06
6.46077e-07
-3.75321e-06
5.87129e-07
-3.79361e-06
5.32233e-07
-3.83559e-06
4.81534e-07
-3.87863e-06
4.34949e-07
-3.92209e-06
3.92241e-07
-3.96529e-06
3.53088e-07
-4.00758e-06
3.1713e-07
-4.04838e-06
2.83995e-07
-4.08719e-06
2.5333e-07
-4.12359e-06
2.24803e-07
-4.15724e-06
1.98118e-07
-4.18787e-06
1.7301e-07
-4.21526e-06
1.49252e-07
-4.23923e-06
1.26649e-07
-4.25963e-06
1.05035e-07
-4.27633e-06
8.42695e-08
-4.28923e-06
6.42342e-08
-4.29824e-06
4.48279e-08
-4.30329e-06
2.5965e-08
-4.30433e-06
7.56896e-09
-4.30133e-06
-1.04334e-08
-4.29433e-06
-2.81027e-08
-4.28339e-06
-4.54662e-08
-4.26855e-06
-6.25201e-08
-4.24988e-06
-7.92519e-08
-4.2274e-06
-9.56485e-08
-4.20118e-06
-1.11696e-07
-4.17129e-06
-1.27381e-07
-4.13779e-06
-1.42687e-07
-4.10076e-06
-1.57596e-07
-4.0603e-06
-1.72092e-07
-4.01649e-06
-1.86157e-07
-3.96945e-06
-1.99771e-07
-3.91927e-06
-2.12917e-07
-3.86606e-06
-2.25574e-07
-3.80995e-06
-2.37727e-07
-3.75106e-06
-2.49364e-07
-3.68951e-06
-2.60472e-07
-3.62542e-06
-2.71036e-07
-3.55893e-06
-2.81048e-07
-3.49017e-06
-2.90498e-07
-3.41928e-06
-2.99381e-07
-3.34639e-06
-3.07694e-07
-3.27164e-06
-3.15434e-07
-3.19516e-06
-3.22602e-07
-3.11709e-06
-3.29199e-07
-3.03757e-06
-3.3523e-07
-2.95673e-06
-3.40701e-07
-2.8747e-06
-3.45618e-07
-2.79161e-06
-3.49992e-07
-2.7076e-06
-3.53832e-07
-2.62279e-06
-3.57151e-07
-2.5373e-06
-3.59962e-07
-2.45126e-06
-3.6228e-07
-2.36477e-06
-3.64121e-07
-2.27797e-06
-3.655e-07
-2.19094e-06
-3.66436e-07
-2.10382e-06
-3.66945e-07
-2.01669e-06
-3.67047e-07
-1.92966e-06
-3.66758e-07
-1.84284e-06
-3.66096e-07
-1.75631e-06
-3.65077e-07
-1.67017e-06
-3.63714e-07
-1.58452e-06
-3.62018e-07
-1.49942e-06
-3.59996e-07
-1.41496e-06
-3.57651e-07
-1.33118e-06
-3.54983e-07
-1.24811e-06
-3.52004e-07
-1.16579e-06
-3.48732e-07
-1.08426e-06
-3.452e-07
-1.00356e-06
-3.41443e-07
-9.23761e-07
-3.3749e-07
-8.44899e-07
-3.33366e-07
-7.67021e-07
-3.29089e-07
-6.90167e-07
-3.24673e-07
-6.14368e-07
-3.20135e-07
-5.39654e-07
-3.15486e-07
-4.6605e-07
-3.1074e-07
-3.93578e-07