/*--------------------------------*- C++ -*----------------------------------*\
  =========                 |
  \\      /  F ield         | OpenFOAM: The Open Source CFD Toolbox
   \\    /   O peration     | Website:  https://openfoam.org
    \\  /    A nd           | Version:  8
     \\/     M anipulation  |
\*---------------------------------------------------------------------------*/
FoamFile
{
    version     2.0;
    format      ascii;
    class       surfaceScalarField;
    location    "3700";
    object      phi;
}
// * * * * * * * * * * * * * * * * * * * * * * * * * * * * * * * * * * * * * //

dimensions      [0 3 -1 0 0 0 0];

internalField   nonuniform List<scalar> 
24170
(
3.92539e-06
-7.91498e-07
3.76465e-06
1.6075e-07
3.63345e-06
1.31209e-07
3.43331e-06
2.00144e-07
3.28028e-06
1.53027e-07
3.18901e-06
9.11906e-08
3.13091e-06
5.81105e-08
3.08609e-06
4.58914e-08
3.04612e-06
4.23237e-08
3.01059e-06
3.8163e-08
2.97876e-06
3.38027e-08
2.94904e-06
3.07706e-08
2.92187e-06
2.7378e-08
2.89642e-06
2.52001e-08
2.87227e-06
2.36053e-08
2.85193e-06
1.94837e-08
2.84097e-06
9.85653e-09
-6.37743e-09
2.84668e-06
3.58445e-06
-9.19499e-07
3.80424e-06
-5.90413e-08
3.74282e-06
1.92629e-07
3.6906e-06
2.52375e-07
3.63729e-06
2.06333e-07
3.59023e-06
1.3828e-07
3.55289e-06
9.55997e-08
3.52309e-06
7.566e-08
3.49853e-06
6.657e-08
3.47732e-06
5.92156e-08
3.45871e-06
5.25298e-08
3.44253e-06
4.7265e-08
3.42795e-06
4.23382e-08
3.41466e-06
3.87866e-08
3.40269e-06
3.57304e-08
3.39122e-06
3.10523e-08
3.38036e-06
2.08417e-08
4.78025e-09
3.36944e-06
3.68518e-06
-7.92482e-07
3.83639e-06
-2.10251e-07
3.91494e-06
1.14082e-07
3.94502e-06
2.22293e-07
3.94408e-06
2.07264e-07
3.92749e-06
1.54897e-07
3.90755e-06
1.15615e-07
3.88932e-06
9.36448e-08
3.874e-06
8.1197e-08
3.86056e-06
7.19164e-08
3.84834e-06
6.42565e-08
3.83728e-06
5.81358e-08
3.82691e-06
5.27796e-08
3.8174e-06
4.84755e-08
3.80891e-06
4.4434e-08
3.80097e-06
3.92539e-08
3.79195e-06
3.02076e-08
1.77971e-08
3.77944e-06
4.05359e-06
-6.4151e-07
4.1146e-06
-2.71259e-07
4.20799e-06
2.06916e-08
4.26635e-06
1.63932e-07
4.29069e-06
1.82926e-07
4.29287e-06
1.52749e-07
4.28571e-06
1.22819e-07
4.27631e-06
1.02844e-07
4.26727e-06
8.96867e-08
4.25873e-06
7.98181e-08
4.25056e-06
7.19503e-08
4.24283e-06
6.56354e-08
4.23535e-06
6.02469e-08
4.22824e-06
5.56938e-08
4.22149e-06
5.1353e-08
4.21464e-06
4.6346e-08
4.20599e-06
3.91844e-08
3.066e-08
4.19351e-06
4.50491e-06
-5.09114e-07
4.51536e-06
-2.81708e-07
4.58529e-06
-4.92341e-08
4.64665e-06
1.02566e-07
4.68258e-06
1.46992e-07
4.69688e-06
1.38473e-07
4.69946e-06
1.20237e-07
4.69723e-06
1.04926e-07
4.69331e-06
9.32556e-08
4.68868e-06
8.40579e-08
4.68367e-06
7.66426e-08
4.67851e-06
7.06088e-08
4.67321e-06
6.54952e-08
4.66783e-06
6.11066e-08
4.66227e-06
5.70058e-08
4.65606e-06
5.27041e-08
4.64786e-06
4.75918e-08
4.26059e-08
4.63612e-06
5.00014e-06
-3.94663e-07
4.98614e-06
-2.67704e-07
5.03069e-06
-9.37789e-08
5.08506e-06
4.8198e-08
5.12454e-06
1.07517e-07
5.14608e-06
1.16941e-07
5.15584e-06
1.10489e-07
5.1594e-06
1.01286e-07
5.15985e-06
9.26084e-08
5.15859e-06
8.50843e-08
5.15629e-06
7.87437e-08
5.15333e-06
7.34435e-08
5.14984e-06
6.89346e-08
5.14589e-06
6.50646e-08
5.14136e-06
6.15877e-08
5.13584e-06
5.83105e-08
5.12839e-06
5.51496e-08
5.30523e-08
5.11808e-06
5.54382e-06
-2.97475e-07
5.51664e-06
-2.40529e-07
5.54055e-06
-1.17686e-07
5.58388e-06
4.87044e-09
5.62166e-06
6.97345e-08
5.64656e-06
9.20464e-08
5.66107e-06
9.59687e-08
5.66906e-06
9.32476e-08
5.67315e-06
8.84249e-08
5.67481e-06
8.33018e-08
5.67491e-06
7.85526e-08
5.6739e-06
7.43764e-08
5.67204e-06
7.07667e-08
5.6694e-06
6.76968e-08
5.66591e-06
6.51007e-08
5.66127e-06
6.29892e-08
5.65494e-06
6.15483e-08
6.15334e-08
5.6465e-06
4.34788e-06
-2.39242e-07
4.32251e-06
-2.15162e-07
4.33078e-06
-1.25951e-07
4.35419e-06
-1.85362e-08
4.3784e-06
4.55261e-08
4.39646e-06
7.39851e-08
4.40841e-06
8.40231e-08
4.41597e-06
8.56741e-08
4.42059e-06
8.37683e-08
4.42325e-06
8.05983e-08
4.42456e-06
7.71973e-08
4.4249e-06
7.40036e-08
4.42446e-06
7.11809e-08
4.42334e-06
6.88112e-08
4.42151e-06
6.69379e-08
4.41885e-06
6.5672e-08
4.41514e-06
6.527e-08
6.63501e-08
4.41035e-06
5.08621e-06
-1.85599e-07
5.05777e-06
-1.86718e-07
5.0584e-06
-1.26578e-07
5.07686e-06
-3.70022e-08
5.09918e-06
2.32142e-08
5.11773e-06
5.54364e-08
5.13124e-06
7.05074e-08
5.14059e-06
7.63172e-08
5.14686e-06
7.74761e-08
5.15094e-06
7.64978e-08
5.15344e-06
7.46769e-08
5.15477e-06
7.26671e-08
5.15514e-06
7.07976e-08
5.15468e-06
6.92651e-08
5.15341e-06
6.8211e-08
5.15128e-06
6.78143e-08
5.14821e-06
6.83515e-08
7.02731e-08
5.14429e-06
5.94839e-06
-1.38193e-07
5.91832e-06
-1.56649e-07
5.91161e-06
-1.19866e-07
5.924e-06
-4.93966e-08
5.94286e-06
4.35885e-09
5.96058e-06
3.77171e-08
5.97479e-06
5.62915e-08
5.98546e-06
6.56469e-08
5.9932e-06
6.97362e-08
5.99867e-06
7.10179e-08
6.00242e-06
7.09161e-08
6.00484e-06
7.02404e-08
6.00618e-06
6.94587e-08
6.00657e-06
6.88679e-08
6.0061e-06
6.86885e-08
6.00478e-06
6.91362e-08
6.00267e-06
7.04623e-08
7.29762e-08
5.99997e-06
6.95439e-06
-9.83129e-08
6.92401e-06
-1.26278e-07
6.91113e-06
-1.06984e-07
6.9168e-06
-5.50655e-08
6.93087e-06
-9.7102e-09
6.94635e-06
2.22397e-08
6.96015e-06
4.24932e-08
6.9714e-06
5.43967e-08
6.98017e-06
6.0962e-08
6.98684e-06
6.43482e-08
6.9918e-06
6.59558e-08
6.99537e-06
6.66652e-08
6.9978e-06
6.7031e-08
6.99924e-06
6.74245e-08
6.99982e-06
6.81137e-08
6.99963e-06
6.93247e-08
6.99883e-06
7.12678e-08
7.41295e-08
6.99768e-06
8.12719e-06
-6.64877e-08
8.09793e-06
-9.7021e-08
8.08056e-06
-8.96088e-08
8.07955e-06
-5.40585e-08
8.08793e-06
-1.80891e-08
8.09985e-06
1.03232e-08
8.11198e-06
3.03593e-08
8.12286e-06
4.35226e-08
8.13202e-06
5.17959e-08
8.1395e-06
5.68683e-08
8.14548e-06
5.9976e-08
8.15018e-06
6.19705e-08
8.15378e-06
6.34317e-08
8.15644e-06
6.47574e-08
8.15832e-06
6.62338e-08
8.15958e-06
6.80744e-08
8.1604e-06
7.04411e-08
7.34391e-08
8.16109e-06
9.49368e-06
-4.24386e-08
9.4668e-06
-7.01427e-08
9.44683e-06
-6.96401e-08
9.43991e-06
-4.71316e-08
9.44229e-06
-2.04676e-08
9.44965e-06
2.95581e-09
9.45895e-06
2.10649e-08
9.4684e-06
3.4071e-08
9.47716e-06
4.30368e-08
9.48491e-06
4.91212e-08
9.49159e-06
5.32941e-08
9.49727e-06
5.6292e-08
9.50205e-06
5.86467e-08
9.50607e-06
6.07386e-08
9.50947e-06
6.28345e-08
9.51243e-06
6.51204e-08
9.51515e-06
6.77147e-08
7.06707e-08
9.51792e-06
1.10854e-05
-2.5159e-08
1.10618e-05
-4.65025e-08
1.1041e-05
-4.88066e-08
1.10294e-05
-3.55514e-08
1.10261e-05
-1.71695e-08
1.10284e-05
6.0529e-10
1.1034e-05
1.54751e-08
1.10411e-05
2.69713e-08
1.10487e-05
3.54923e-08
1.10561e-05
4.17162e-08
1.1063e-05
4.63138e-08
1.10695e-05
4.98433e-08
1.10754e-05
5.27351e-08
1.10808e-05
5.53032e-08
1.10859e-05
5.77679e-08
1.10908e-05
6.0273e-08
1.10956e-05
6.28989e-08
6.56689e-08
1.11006e-05
1.29396e-05
-1.31186e-08
1.29194e-05
-2.62786e-08
1.28988e-05
-2.82518e-08
1.28839e-05
-2.06874e-08
1.28758e-05
-8.99552e-09
1.28732e-05
3.1452e-09
1.28748e-05
1.39404e-08
1.28789e-05
2.27889e-08
1.28847e-05
2.9745e-08
1.28913e-05
3.51437e-08
1.28982e-05
3.93839e-08
1.29052e-05
4.28287e-08
1.29122e-05
4.57702e-08
1.29191e-05
4.84254e-08
1.29259e-05
5.09434e-08
1.29327e-05
5.34157e-08
1.29398e-05
5.58855e-08
5.83558e-08
1.29471e-05
1.50998e-05
-4.48304e-09
1.50822e-05
-8.67602e-09
1.50621e-05
-8.1135e-09
1.50448e-05
-3.45812e-09
1.50327e-05
3.10977e-09
1.50259e-05
9.9388e-09
1.50237e-05
1.6162e-08
1.5025e-05
2.14645e-08
1.50289e-05
2.58535e-08
1.50346e-05
2.9485e-08
1.50414e-05
3.25548e-08
1.5049e-05
3.52435e-08
1.50571e-05
3.76942e-08
1.50655e-05
4.00082e-08
1.50742e-05
4.22481e-08
1.50832e-05
4.44432e-08
1.50925e-05
4.65962e-08
4.86886e-08
1.51021e-05
1.76171e-05
2.89316e-09
1.75999e-05
8.52299e-09
1.75787e-05
1.30295e-08
1.7559e-05
1.62777e-08
1.75436e-05
1.84722e-08
1.75336e-05
1.99573e-08
1.75287e-05
2.10518e-08
1.75282e-05
2.19931e-08
1.75311e-05
2.29392e-08
1.75366e-05
2.39852e-08
1.7544e-05
2.51771e-08
1.75527e-05
2.65281e-08
1.75624e-05
2.80265e-08
1.75727e-05
2.96472e-08
1.75836e-05
3.13532e-08
1.7595e-05
3.31038e-08
1.76067e-05
3.48528e-08
3.65556e-08
1.76188e-05
1.78181e-05
1.10003e-08
1.77994e-05
2.72123e-08
1.77768e-05
3.56238e-08
1.7756e-05
3.7058e-08
1.77402e-05
3.43254e-08
1.77302e-05
2.99454e-08
1.77257e-05
2.54988e-08
1.7726e-05
2.17765e-08
1.77298e-05
1.90735e-08
1.77364e-05
1.73986e-08
1.7745e-05
1.66316e-08
1.77549e-05
1.66031e-08
1.77658e-05
1.71421e-08
1.77773e-05
1.80907e-08
1.77894e-05
1.93169e-08
1.78018e-05
2.07067e-08
1.78144e-05
2.21707e-08
2.3633e-08
1.78274e-05
1.58702e-05
2.21334e-08
1.58478e-05
4.95811e-08
1.58233e-05
6.01319e-08
1.58032e-05
5.72339e-08
1.57899e-05
4.76094e-08
1.57834e-05
3.637e-08
1.57827e-05
2.61955e-08
1.57864e-05
1.81442e-08
1.57931e-05
1.23627e-08
1.58019e-05
8.61012e-09
1.5812e-05
6.49531e-09
1.5823e-05
5.62871e-09
1.58345e-05
5.6664e-09
1.58462e-05
6.33253e-09
1.58581e-05
7.40572e-09
1.58701e-05
8.72224e-09
1.58821e-05
1.01533e-08
1.16099e-08
1.58942e-05
1.41313e-05
3.95386e-08
1.41021e-05
7.87067e-08
1.40745e-05
8.77874e-08
1.40557e-05
7.60377e-08
1.40469e-05
5.64122e-08
1.40462e-05
3.7038e-08
1.40512e-05
2.12081e-08
1.40597e-05
9.57963e-09
1.40704e-05
1.75977e-09
1.4082e-05
-3.0513e-09
1.40941e-05
-5.60567e-09
1.41063e-05
-6.56013e-09
1.41184e-05
-6.41157e-09
1.41303e-05
-5.55158e-09
1.41419e-05
-4.25026e-09
1.41534e-05
-2.70903e-09
1.41646e-05
-1.06537e-09
5.83553e-10
1.41756e-05
1.25772e-05
6.73555e-08
1.25392e-05
1.16739e-07
1.25091e-05
1.17888e-07
1.24942e-05
9.08903e-08
1.24928e-05
5.78127e-08
1.25002e-05
2.96814e-08
1.25122e-05
9.12883e-09
1.25264e-05
-4.49918e-09
1.25409e-05
-1.28384e-08
1.25552e-05
-1.73501e-08
1.25689e-05
-1.92845e-08
1.25819e-05
-1.94973e-08
1.25941e-05
-1.86481e-08
1.26057e-05
-1.71433e-08
1.26167e-05
-1.52901e-08
1.26273e-05
-1.32825e-08
1.26375e-05
-1.12493e-08
-9.27383e-09
1.26473e-05
1.11862e-05
1.10916e-07
1.11384e-05
1.6457e-07
1.11088e-05
1.4752e-07
1.11022e-05
9.74842e-08
1.11117e-05
4.83121e-08
1.11289e-05
1.24002e-08
1.11486e-05
-1.04632e-08
1.11678e-05
-2.373e-08
1.11855e-05
-3.05108e-08
1.12014e-05
-3.32931e-08
1.12157e-05
-3.35551e-08
1.12285e-05
-3.23564e-08
1.12402e-05
-3.0295e-08
1.12509e-05
-2.78383e-08
1.12608e-05
-2.52236e-08
1.12701e-05
-2.26141e-08
1.1279e-05
-2.01126e-08
-1.7751e-08
1.12875e-05
9.93908e-06
1.76452e-07
9.88248e-06
2.21163e-07
9.85873e-06
1.71262e-07
9.86593e-06
9.02753e-08
9.8896e-06
2.46383e-08
9.9176e-06
-1.55565e-08
9.94391e-06
-3.67965e-08
9.96668e-06
-4.64122e-08
9.98571e-06
-4.96144e-08
1.00017e-05
-4.92914e-08
1.00153e-05
-4.71293e-08
1.00269e-05
-4.39973e-08
1.00371e-05
-4.05281e-08
1.00463e-05
-3.6983e-08
1.00546e-05
-3.354e-08
1.00623e-05
-3.0318e-08
1.00696e-05
-2.73584e-08
-2.46624e-08
1.00764e-05
8.81963e-06
2.69916e-07
8.75785e-06
2.82944e-07
8.74788e-06
1.81226e-07
8.77481e-06
6.33229e-08
8.81458e-06
-1.51292e-08
8.85212e-06
-5.30923e-08
8.88268e-06
-6.72306e-08
8.90623e-06
-7.00289e-08
8.92427e-06
-6.76222e-08
8.93843e-06
-6.33783e-08
8.94985e-06
-5.84097e-08
8.95927e-06
-5.33441e-08
8.96727e-06
-4.84774e-08
8.97429e-06
-4.39768e-08
8.98055e-06
-3.98163e-08
8.98629e-06
-3.60591e-08
8.99168e-06
-3.27847e-08
-2.98469e-08
8.99685e-06
7.81391e-06
3.96675e-07
7.75391e-06
3.42943e-07
7.76868e-06
1.6644e-07
7.82053e-06
1.14612e-08
7.87567e-06
-7.0274e-08
7.91912e-06
-9.64913e-08
7.94967e-06
-9.78365e-08
7.97057e-06
-9.06528e-08
7.98484e-06
-8.15953e-08
7.99525e-06
-7.35624e-08
8.00317e-06
-6.61257e-08
8.0094e-06
-5.94288e-08
8.0145e-06
-5.3338e-08
8.01892e-06
-4.82118e-08
8.02279e-06
-4.36673e-08
8.02626e-06
-3.96046e-08
8.0296e-06
-3.62068e-08
-3.32009e-08
8.0329e-06
6.90424e-06
5.66768e-07
6.86137e-06
3.85804e-07
6.91716e-06
1.10635e-07
6.99674e-06
-6.81328e-08
7.06253e-06
-1.36071e-07
7.10529e-06
-1.39268e-07
7.13032e-06
-1.2255e-07
7.14447e-06
-1.04621e-07
7.15207e-06
-8.89987e-08
7.15709e-06
-7.58185e-08
7.16038e-06
-6.66916e-08
7.16271e-06
-5.95589e-08
7.16421e-06
-5.4152e-08
7.16558e-06
-4.94554e-08
7.16675e-06
-4.49736e-08
7.16771e-06
-4.08465e-08
7.1688e-06
-3.7639e-08
-3.51285e-08
7.17004e-06
6.07162e-06
7.97662e-07
6.08526e-06
3.72164e-07
6.19865e-06
-2.77323e-09
6.29989e-06
-1.69397e-07
6.36526e-06
-2.01462e-07
6.39754e-06
-1.71503e-07
6.41011e-06
-1.35218e-07
6.41342e-06
-1.0695e-07
6.41239e-06
-8.58106e-08
6.40989e-06
-7.40382e-08
6.40749e-06
-6.45255e-08
6.40488e-06
-5.75993e-08
6.40237e-06
-5.13286e-08
6.40035e-06
-4.7012e-08
6.3984e-06
-4.30815e-08
6.39641e-06
-3.91724e-08
6.39475e-06
-3.6921e-08
-3.47321e-08
6.39408e-06
5.35805e-06
1.05451e-06
5.50649e-06
2.23716e-07
5.64777e-06
-1.44085e-07
5.73564e-06
-2.57314e-07
5.77646e-06
-2.42346e-07
5.78324e-06
-1.78423e-07
5.77527e-06
-1.26643e-07
5.76327e-06
-9.40069e-08
5.74975e-06
-7.56674e-08
5.73931e-06
-6.39913e-08
5.73029e-06
-5.6562e-08
5.72235e-06
-4.99796e-08
5.71442e-06
-4.46742e-08
5.70782e-06
-4.05657e-08
5.70185e-06
-3.69857e-08
5.69607e-06
-3.35172e-08
5.69145e-06
-3.16796e-08
-3.13867e-08
5.68767e-06
5.04576e-06
1.01105e-06
5.36491e-06
-9.545e-08
5.35251e-06
-1.31767e-07
5.33285e-06
-2.37745e-07
5.296e-06
-2.05651e-07
5.25016e-06
-1.32588e-07
5.20891e-06
-8.47342e-08
5.17485e-06
-6.08245e-08
5.14636e-06
-4.98266e-08
5.12485e-06
-4.29234e-08
5.10673e-06
-3.93774e-08
5.09051e-06
-3.57034e-08
5.07531e-06
-3.14404e-08
5.06199e-06
-2.76023e-08
5.04966e-06
-2.44277e-08
5.0389e-06
-2.20366e-08
5.02966e-06
-2.20883e-08
-2.3382e-08
5.02214e-06
5.4676e-06
5.37215e-06
5.24037e-06
5.0026e-06
4.79694e-06
4.66444e-06
4.57967e-06
4.51835e-06
4.46848e-06
4.42538e-06
4.38566e-06
4.34948e-06
4.31793e-06
4.29038e-06
4.26609e-06
4.2442e-06
4.2223e-06
4.19948e-06
2.31258e-08
-2.31235e-08
2.37204e-07
-2.14079e-07
4.8933e-07
-2.52094e-07
7.09597e-07
-2.20245e-07
8.77313e-07
-1.67696e-07
9.88442e-07
-1.11118e-07
1.0441e-06
-5.56507e-08
1.04652e-06
-2.42014e-09
1.00102e-06
4.55146e-08
9.17745e-07
8.32694e-08
8.11943e-07
1.05812e-07
7.02754e-07
1.09177e-07
6.09969e-07
9.27814e-08
5.43682e-07
6.62986e-08
4.92538e-07
5.1162e-08
4.33359e-07
5.98814e-08
3.47052e-07
8.61687e-08
2.21952e-07
1.25873e-07
4.36461e-08
1.77889e-07
-2.01818e-07
2.44835e-07
-5.04355e-07
3.02281e-07
-8.45345e-07
3.40739e-07
-1.20969e-06
3.64347e-07
-1.58708e-06
3.77405e-07
-1.96868e-06
3.81639e-07
-2.34451e-06
3.7585e-07
-2.70654e-06
3.62056e-07
-3.04962e-06
3.43086e-07
-3.36991e-06
3.20304e-07
-3.66508e-06
2.95176e-07
-3.93427e-06
2.69192e-07
-4.17779e-06
2.43525e-07
-4.39667e-06
2.18884e-07
-4.59239e-06
1.95723e-07
-4.76666e-06
1.74268e-07
-4.92126e-06
1.54601e-07
-5.05795e-06
1.36685e-07
-5.17835e-06
1.20401e-07
-5.28394e-06
1.05589e-07
-5.376e-06
9.2068e-08
-5.45566e-06
7.96567e-08
-5.52384e-06
6.81823e-08
-5.58133e-06
5.74898e-08
-5.62878e-06
4.74449e-08
-5.66672e-06
3.79389e-08
-5.6956e-06
2.88843e-08
-5.71581e-06
2.02098e-08
-5.7277e-06
1.18856e-08
-5.73174e-06
4.03973e-09
-5.7288e-06
-2.9398e-09
-5.71996e-06
-8.83825e-09
-5.70599e-06
-1.39649e-08
-5.68731e-06
-1.86812e-08
-5.66416e-06
-2.31486e-08
-5.63672e-06
-2.74451e-08
-5.60512e-06
-3.15989e-08
-5.5695e-06
-3.56246e-08
-5.52997e-06
-3.95293e-08
-5.48665e-06
-4.33138e-08
-5.43968e-06
-4.69772e-08
-5.38916e-06
-5.05168e-08
-5.33523e-06
-5.39292e-08
-5.27802e-06
-5.7211e-08
-5.21766e-06
-6.03589e-08
-5.15429e-06
-6.33704e-08
-5.08805e-06
-6.62424e-08
-5.01907e-06
-6.89715e-08
-4.94752e-06
-7.15553e-08
-4.87353e-06
-7.39923e-08
-4.79725e-06
-7.62811e-08
-4.71882e-06
-7.84211e-08
-4.63841e-06
-8.04119e-08
-4.55616e-06
-8.22537e-08
-4.47221e-06
-8.39473e-08
-4.38672e-06
-8.54938e-08
-4.29982e-06
-8.68949e-08
-4.21167e-06
-8.81528e-08
-4.1224e-06
-8.92701e-08
-4.03215e-06
-9.02496e-08
-3.94105e-06
-9.10951e-08
-3.84924e-06
-9.18097e-08
-3.75684e-06
-9.23979e-08
-3.66398e-06
-9.28645e-08
-3.57076e-06
-9.32156e-08
-3.4773e-06
-9.34593e-08
-3.3837e-06
-9.36033e-08
-3.29005e-06
-9.36545e-08
-3.19643e-06
-9.36197e-08
-3.10292e-06
-9.35091e-08
-3.00957e-06
-9.3344e-08
-2.91642e-06
-9.31524e-08
-2.82346e-06
-9.29547e-08
-2.7307e-06
-9.27599e-08
-2.63815e-06
-9.25535e-08
-2.54589e-06
-9.22556e-08
-2.45413e-06
-9.17591e-08
-2.36315e-06
-9.09792e-08
-2.27322e-06
-8.99349e-08
-2.18443e-06
-8.87815e-08
-2.09681e-06
-8.76268e-08
-2.01034e-06
-8.64707e-08
-1.92504e-06
-8.52973e-08
-1.84094e-06
-8.40992e-08
-1.75806e-06
-8.28757e-08
-1.67643e-06
-8.16292e-08
-1.59607e-06
-8.03633e-08
-1.51699e-06
-7.90821e-08
-1.4392e-06
-7.77881e-08
-1.36272e-06
-7.64793e-08
-1.28758e-06
-7.51349e-08
-1.21382e-06
-7.37671e-08
-1.14141e-06
-7.24036e-08
-1.07037e-06
-7.10393e-08
-1.0007e-06
-6.96754e-08
-9.32382e-07
-6.8313e-08
-8.65427e-07
-6.69536e-08
-7.99827e-07
-6.55994e-08
-7.35573e-07
-6.42531e-08
-6.72655e-07
-6.29166e-08
-6.11065e-07
-6.15893e-08
-5.50791e-07
-6.02719e-08
-4.91823e-07
-5.89672e-08
-4.3414e-07
-5.76812e-08
-3.77719e-07
-5.64194e-08
-3.22539e-07
-5.51779e-08
-2.68584e-07
-5.39531e-08
-2.15832e-07
-5.27492e-08
-1.64265e-07
-5.15651e-08
-1.13873e-07
-5.03892e-08
-6.46496e-08
-4.92213e-08
-1.67153e-08
-4.79316e-08
3.00608e-08
-4.67733e-08
7.5986e-08
-4.59223e-08
1.20955e-07
-4.49657e-08
1.64864e-07
-4.3906e-08
2.07709e-07
-4.28423e-08
2.49508e-07
-4.17959e-08
2.90291e-07
-4.07792e-08
3.30088e-07
-3.97945e-08
3.68932e-07
-3.88402e-08
4.0685e-07
-3.79146e-08
4.43869e-07
-3.70161e-08
4.80015e-07
-3.61439e-08
5.15314e-07
-3.5297e-08
5.49791e-07
-3.44751e-08
5.8347e-07
-3.36776e-08
6.16375e-07
-3.29045e-08
6.4853e-07
-3.21553e-08
6.7996e-07
-3.14302e-08
7.10689e-07
-3.07291e-08
7.40741e-07
-3.00519e-08
7.70139e-07
-2.93987e-08
7.98908e-07
-2.87696e-08
8.27072e-07
-2.81645e-08
8.54654e-07
-2.75835e-08
8.8168e-07
-2.70265e-08
9.08172e-07
-2.64934e-08
9.34154e-07
-2.59838e-08
9.5965e-07
-2.54974e-08
9.84682e-07
-2.50332e-08
1.00927e-06
-2.45901e-08
1.03343e-06
-2.4166e-08
1.05719e-06
-2.37583e-08
1.08055e-06
-2.33628e-08
1.10352e-06
-2.29739e-08
1.12611e-06
-2.25833e-08
1.14829e-06
-2.21798e-08
1.17003e-06
-2.17476e-08
1.19129e-06
-2.12645e-08
1.21199e-06
-2.06994e-08
1.232e-06
-2.00082e-08
1.25112e-06
-1.9127e-08
1.26908e-06
-1.79585e-08
1.28544e-06
-1.63584e-08
1.29949e-06
-1.40514e-08
1.31012e-06
-1.06273e-08
1.31468e-06
-4.5627e-09
1.30784e-06
6.85295e-09
1.2783e-06
2.9535e-08
7.23296e-08
1.20596e-06
2.54188e-07
-2.77331e-07
4.90089e-07
-4.49976e-07
6.39675e-07
-4.01676e-07
7.24308e-07
-3.04876e-07
7.63823e-07
-2.07201e-07
7.69769e-07
-1.17069e-07
7.48838e-07
-3.47128e-08
7.06656e-07
3.97546e-08
6.46296e-07
1.0588e-07
5.67669e-07
1.61888e-07
4.70055e-07
2.03433e-07
3.51785e-07
2.27436e-07
2.06823e-07
2.3775e-07
2.36251e-08
2.49512e-07
-2.08593e-07
2.83387e-07
-4.94236e-07
3.45618e-07
-8.32198e-07
4.2422e-07
-1.21206e-06
5.05748e-07
-1.61588e-06
5.81666e-07
-2.01732e-06
6.46223e-07
-2.40734e-06
6.92254e-07
-2.78282e-06
7.16202e-07
-3.13776e-06
7.1929e-07
-3.46519e-06
7.04833e-07
-3.75995e-06
6.76405e-07
-4.02109e-06
6.36998e-07
-4.24903e-06
5.9e-07
-4.44504e-06
5.39104e-07
-4.61204e-06
4.873e-07
-4.75352e-06
4.36662e-07
-4.87286e-06
3.88538e-07
-4.97324e-06
3.43902e-07
-5.05752e-06
3.03169e-07
-5.12822e-06
2.66424e-07
-5.18746e-06
2.33506e-07
-5.23697e-06
2.04112e-07
-5.27816e-06
1.77872e-07
-5.31215e-06
1.54395e-07
-5.33986e-06
1.33298e-07
-5.36203e-06
1.14231e-07
-5.37925e-06
9.68823e-08
-5.39206e-06
8.09858e-08
-5.40089e-06
6.63197e-08
-5.40614e-06
5.27024e-08
-5.40819e-06
3.9987e-08
-5.40737e-06
2.80585e-08
-5.40399e-06
1.68392e-08
-5.3984e-06
6.29429e-09
-5.39074e-06
-3.62026e-09
-5.38059e-06
-1.30942e-08
-5.36706e-06
-2.23676e-08
-5.34956e-06
-3.14698e-08
-5.3279e-06
-4.03348e-08
-5.30209e-06
-4.89593e-08
-5.27219e-06
-5.73499e-08
-5.23827e-06
-6.55129e-08
-5.20045e-06
-7.3451e-08
-5.15881e-06
-8.11638e-08
-5.11348e-06
-8.86481e-08
-5.06456e-06
-9.5898e-08
-5.01217e-06
-1.02907e-07
-4.95643e-06
-1.09667e-07
-4.89747e-06
-1.16171e-07
-4.83542e-06
-1.22411e-07
-4.7704e-06
-1.28383e-07
-4.70256e-06
-1.34081e-07
-4.63204e-06
-1.39496e-07
-4.55897e-06
-1.44624e-07
-4.4835e-06
-1.49463e-07
-4.40577e-06
-1.54009e-07
-4.32593e-06
-1.58261e-07
-4.24413e-06
-1.62219e-07
-4.1605e-06
-1.65882e-07
-4.07519e-06
-1.69253e-07
-3.98835e-06
-1.72333e-07
-3.90012e-06
-1.75126e-07
-3.81064e-06
-1.77636e-07
-3.72004e-06
-1.79868e-07
-3.62846e-06
-1.81828e-07
-3.53603e-06
-1.83524e-07
-3.44288e-06
-1.84961e-07
-3.34913e-06
-1.86149e-07
-3.25489e-06
-1.87097e-07
-3.16029e-06
-1.87816e-07
-3.06544e-06
-1.88315e-07
-2.97043e-06
-1.88608e-07
-2.87538e-06
-1.88705e-07
-2.78038e-06
-1.88617e-07
-2.68553e-06
-1.88358e-07
-2.59094e-06
-1.87943e-07
-2.4967e-06
-1.87384e-07
-2.40297e-06
-1.86688e-07
-2.30988e-06
-1.85846e-07
-2.2176e-06
-1.84833e-07
-2.12625e-06
-1.83606e-07
-2.03588e-06
-1.82134e-07
-1.94644e-06
-1.80414e-07
-1.85789e-06
-1.78486e-07
-1.77024e-06
-1.76428e-07
-1.68358e-06
-1.74293e-07
-1.59795e-06
-1.72094e-07
-1.51342e-06
-1.69833e-07
-1.43e-06
-1.67511e-07
-1.34775e-06
-1.65133e-07
-1.26667e-06
-1.62702e-07
-1.18681e-06
-1.60225e-07
-1.10819e-06
-1.57707e-07
-1.03082e-06
-1.55152e-07
-9.54739e-07
-1.52562e-07
-8.79937e-07
-1.49936e-07
-8.06416e-07
-1.47288e-07
-7.34187e-07
-1.44632e-07
-6.63255e-07
-1.4197e-07
-5.93622e-07
-1.39308e-07
-5.25287e-07
-1.36648e-07
-4.58248e-07
-1.33992e-07
-3.92502e-07
-1.31345e-07
-3.28044e-07
-1.28711e-07
-2.64863e-07
-1.26097e-07
-2.02949e-07
-1.23503e-07
-1.42293e-07
-1.20927e-07
-8.28836e-08
-1.18375e-07
-2.47143e-08
-1.15849e-07
3.22288e-08
-1.13361e-07
8.79737e-08
-1.10922e-07
1.42538e-07
-1.08516e-07
1.95931e-07
-1.06142e-07
2.4817e-07
-1.03803e-07
2.9928e-07
-1.01499e-07
3.49292e-07
-9.92317e-08
3.98362e-07
-9.70011e-08
4.46466e-07
-9.48761e-08
4.93387e-07
-9.28418e-08
5.39191e-07
-9.07691e-08
5.83958e-07
-8.86712e-08
6.27717e-07
-8.6601e-08
6.705e-07
-8.45775e-08
7.1233e-07
-8.26077e-08
7.5323e-07
-8.0693e-08
7.93223e-07
-7.88321e-08
8.32334e-07
-7.70235e-08
8.70585e-07
-7.52655e-08
9.07999e-07
-7.3557e-08
9.446e-07
-7.1897e-08
9.8041e-07
-7.02849e-08
1.01545e-06
-6.87203e-08
1.04975e-06
-6.72028e-08
1.08333e-06
-6.57321e-08
1.11621e-06
-6.43083e-08
1.14841e-06
-6.29312e-08
1.17996e-06
-6.16008e-08
1.21088e-06
-6.03173e-08
1.24119e-06
-5.90805e-08
1.27091e-06
-5.78906e-08
1.30008e-06
-5.67473e-08
1.3287e-06
-5.56506e-08
1.3568e-06
-5.46e-08
1.38441e-06
-5.35948e-08
1.41155e-06
-5.26337e-08
1.43823e-06
-5.17151e-08
1.46448e-06
-5.08363e-08
1.4903e-06
-4.99934e-08
1.51572e-06
-4.91809e-08
1.54075e-06
-4.83907e-08
1.56539e-06
-4.76119e-08
1.58963e-06
-4.68291e-08
1.61347e-06
-4.6021e-08
1.63688e-06
-4.51581e-08
1.65982e-06
-4.41993e-08
1.6822e-06
-4.30871e-08
1.70393e-06
-4.17399e-08
1.72485e-06
-4.00395e-08
1.7447e-06
-3.78094e-08
1.76312e-06
-3.478e-08
1.77955e-06
-3.04907e-08
1.79312e-06
-2.4189e-08
1.80284e-06
-1.42811e-08
1.8077e-06
1.9908e-09
1.80582e-06
3.1419e-08
8.80293e-08
1.79011e-06
2.46013e-07
-5.23363e-07
3.42329e-07
-5.46295e-07
3.58617e-07
-4.17961e-07
3.47573e-07
-2.93822e-07
3.19872e-07
-1.79494e-07
2.7579e-07
-7.29853e-08
2.14614e-07
2.64658e-08
1.35295e-07
1.1907e-07
3.6771e-08
2.04406e-07
-8.31209e-08
2.81777e-07
-2.30086e-07
3.504e-07
-4.14645e-07
4.11995e-07
-6.50209e-07
4.73311e-07
-9.43697e-07
5.43005e-07
-1.28495e-06
6.24637e-07
-1.65205e-06
7.12719e-07
-2.02416e-06
7.96325e-07
-2.38441e-06
8.65992e-07
-2.71893e-06
9.16162e-07
-3.01715e-06
9.44433e-07
-3.27522e-06
9.50321e-07
-3.49411e-06
9.35102e-07
-3.67682e-06
9.02e-07
-3.82737e-06
8.55398e-07
-3.95051e-06
7.99548e-07
-4.05165e-06
7.38132e-07
-4.1361e-06
6.74453e-07
-4.20827e-06
6.1127e-07
-4.27158e-06
5.50615e-07
-4.32866e-06
4.93741e-07
-4.38137e-06
4.41255e-07
-4.43086e-06
3.93392e-07
-4.47776e-06
3.50066e-07
-4.52234e-06
3.10998e-07
-4.56463e-06
2.75796e-07
-4.60454e-06
2.44022e-07
-4.6419e-06
2.15234e-07
-4.67652e-06
1.89018e-07
-4.70822e-06
1.64997e-07
-4.73683e-06
1.4284e-07
-4.76221e-06
1.22263e-07
-4.78425e-06
1.03031e-07
-4.80288e-06
8.49435e-08
-4.81801e-06
6.78363e-08
-4.8296e-06
5.15696e-08
-4.83756e-06
3.60242e-08
-4.84182e-06
2.10982e-08
-4.84222e-06
6.69779e-09
-4.83856e-06
-7.28369e-09
-4.83069e-06
-2.09605e-08
-4.81867e-06
-3.43924e-08
-4.80257e-06
-4.75669e-08
-4.78245e-06
-6.04617e-08
-4.75834e-06
-7.30685e-08
-4.73031e-06
-8.53808e-08
-4.69843e-06
-9.73928e-08
-4.66278e-06
-1.09098e-07
-4.62346e-06
-1.20487e-07
-4.58055e-06
-1.3155e-07
-4.53418e-06
-1.42275e-07
-4.48443e-06
-1.52651e-07
-4.43144e-06
-1.62664e-07
-4.37531e-06
-1.723e-07
-4.31617e-06
-1.8155e-07
-4.25415e-06
-1.90405e-07
-4.18937e-06
-1.98856e-07
-4.12198e-06
-2.0689e-07
-4.0521e-06
-2.145e-07
-3.97988e-06
-2.21683e-07
-3.90545e-06
-2.28434e-07
-3.82897e-06
-2.3475e-07
-3.75056e-06
-2.40629e-07
-3.67036e-06
-2.46073e-07
-3.58853e-06
-2.51083e-07
-3.5052e-06
-2.55663e-07
-3.42051e-06
-2.59816e-07
-3.3346e-06
-2.63549e-07
-3.2476e-06
-2.6687e-07
-3.15964e-06
-2.69785e-07
-3.07086e-06
-2.72306e-07
-2.98138e-06
-2.74443e-07
-2.89132e-06
-2.76207e-07
-2.8008e-06
-2.7761e-07
-2.70995e-06
-2.78667e-07
-2.61888e-06
-2.79392e-07
-2.52768e-06
-2.79799e-07
-2.43649e-06
-2.79902e-07
-2.34539e-06
-2.79717e-07
-2.25449e-06
-2.79257e-07
-2.16389e-06
-2.78537e-07
-2.07371e-06
-2.77568e-07
-1.98404e-06
-2.76355e-07
-1.89499e-06
-2.74898e-07
-1.80664e-06
-2.73184e-07
-1.71905e-06
-2.71198e-07
-1.63225e-06
-2.68937e-07
-1.54624e-06
-2.66417e-07
-1.46105e-06
-2.63675e-07
-1.37672e-06
-2.60756e-07
-1.29332e-06
-2.57695e-07
-1.2109e-06
-2.54512e-07
-1.12952e-06
-2.51219e-07
-1.0492e-06
-2.47827e-07
-9.69991e-07
-2.44344e-07
-8.91912e-07
-2.4078e-07
-8.14994e-07
-2.37143e-07
-7.39258e-07
-2.33443e-07
-6.64724e-07
-2.29685e-07
-5.91407e-07
-2.25879e-07
-5.19312e-07
-2.22031e-07
-4.48447e-07
-2.18153e-07
-3.78822e-07
-2.14256e-07
-3.10444e-07
-2.10348e-07
-2.43315e-07
-2.06437e-07
-1.77435e-07
-2.02528e-07
-1.12801e-07
-1.98625e-07
-4.9411e-08
-1.94735e-07
1.27428e-08
-1.90864e-07
7.36642e-08
-1.87018e-07
1.33361e-07
-1.83199e-07
1.91847e-07
-1.79412e-07
2.49133e-07
-1.75661e-07
3.05236e-07
-1.71952e-07
3.60167e-07
-1.68292e-07
4.13932e-07
-1.64686e-07
4.66547e-07
-1.61131e-07
5.18033e-07
-1.57626e-07
5.68407e-07
-1.54176e-07
6.17693e-07
-1.50784e-07
6.65919e-07
-1.47458e-07
7.13129e-07
-1.4421e-07
7.59305e-07
-1.41052e-07
8.04413e-07
-1.3795e-07
8.48502e-07
-1.34858e-07
8.91617e-07
-1.31785e-07
9.3378e-07
-1.28763e-07
9.75009e-07
-1.25807e-07
1.01532e-06
-1.22922e-07
1.05474e-06
-1.20113e-07
1.09329e-06
-1.17377e-07
1.13098e-06
-1.14715e-07
1.16784e-06
-1.12126e-07
1.2039e-06
-1.09608e-07
1.23916e-06
-1.0716e-07
1.27366e-06
-1.04783e-07
1.30741e-06
-1.02475e-07
1.34044e-06
-1.00236e-07
1.37278e-06
-9.80657e-08
1.40443e-06
-9.59645e-08
1.43543e-06
-9.39321e-08
1.4658e-06
-9.19685e-08
1.49556e-06
-9.00737e-08
1.52472e-06
-8.82478e-08
1.55332e-06
-8.64906e-08
1.58138e-06
-8.48021e-08
1.60891e-06
-8.31819e-08
1.63594e-06
-8.16294e-08
1.66249e-06
-8.01434e-08
1.68857e-06
-7.87222e-08
1.71422e-06
-7.73633e-08
1.73945e-06
-7.60628e-08
1.76427e-06
-7.4815e-08
1.7887e-06
-7.3612e-08
1.81275e-06
-7.24425e-08
1.83643e-06
-7.12909e-08
1.85973e-06
-7.01356e-08
1.88266e-06
-6.89466e-08
1.90518e-06
-6.76826e-08
1.92727e-06
-6.62863e-08
1.94886e-06
-6.46775e-08
1.96986e-06
-6.27432e-08
1.99014e-06
-6.03205e-08
2.0095e-06
-5.71688e-08
2.02765e-06
-5.29249e-08
2.04415e-06
-4.6998e-08
2.05841e-06
-3.84484e-08
2.06965e-06
-2.55164e-08
2.07699e-06
-5.35788e-09
2.08089e-06
2.75158e-08
8.54887e-08
2.08343e-06
9.37375e-08
-6.1711e-07
6.23951e-08
-5.14964e-07
1.39125e-08
-3.6947e-07
-4.31779e-08
-2.36724e-07
-1.12674e-07
-1.09991e-07
-1.98045e-07
1.23905e-08
-3.02275e-07
1.30698e-07
-4.2778e-07
2.44575e-07
-5.77136e-07
3.53761e-07
-7.53726e-07
4.58368e-07
-9.62309e-07
5.5898e-07
-1.2072e-06
6.56888e-07
-1.48719e-06
7.53297e-07
-1.79148e-06
8.47289e-07
-2.10137e-06
9.34516e-07
-2.39722e-06
1.00856e-06
-2.66456e-06
1.06365e-06
-2.89511e-06
1.09653e-06
-3.08561e-06
1.10665e-06
-3.23687e-06
1.09569e-06
-3.35325e-06
1.0667e-06
-3.44129e-06
1.02315e-06
-3.5081e-06
9.68821e-07
-3.56022e-06
9.07518e-07
-3.60312e-06
8.42449e-07
-3.64123e-06
7.76248e-07
-3.67781e-06
7.11028e-07
-3.71487e-06
6.48337e-07
-3.75344e-06
5.89177e-07
-3.79376e-06
5.34069e-07
-3.83568e-06
4.83168e-07
-3.87868e-06
4.36394e-07
-3.92213e-06
3.93514e-07
-3.96534e-06
3.54207e-07
-4.00765e-06
3.18112e-07
-4.04849e-06
2.84857e-07
-4.08734e-06
2.54087e-07
-4.12379e-06
2.25468e-07
-4.1575e-06
1.98703e-07
-4.18818e-06
1.73525e-07
-4.21562e-06
1.49707e-07
-4.23965e-06
1.27052e-07
-4.2601e-06
1.05393e-07
-4.27685e-06
8.45885e-08
-4.2898e-06
6.45196e-08
-4.29886e-06
4.50844e-08
-4.30396e-06
2.61967e-08
-4.30504e-06
7.77958e-09
-4.30208e-06
-1.02406e-08
-4.29512e-06
-2.79249e-08
-4.28421e-06
-4.53014e-08
-4.26941e-06
-6.23668e-08
-4.25076e-06
-7.91086e-08
-4.22832e-06
-9.55139e-08
-4.20213e-06
-1.11569e-07
-4.17226e-06
-1.27261e-07
-4.13879e-06
-1.42572e-07
-4.10179e-06
-1.57487e-07
-4.06135e-06
-1.71988e-07
-4.01757e-06
-1.86056e-07
-3.97054e-06
-1.99674e-07
-3.92038e-06
-2.12823e-07
-3.8672e-06
-2.25483e-07
-3.81111e-06
-2.37639e-07
-3.75224e-06
-2.49279e-07
-3.6907e-06
-2.6039e-07
-3.62664e-06
-2.70957e-07
-3.56016e-06
-2.80971e-07
-3.49142e-06
-2.90424e-07
-3.42055e-06
-2.9931e-07
-3.34767e-06
-3.07625e-07
-3.27293e-06
-3.15368e-07
-3.19647e-06
-3.22538e-07
-3.11841e-06
-3.29139e-07
-3.0389e-06
-3.35173e-07
-2.95807e-06
-3.40646e-07
-2.87606e-06
-3.45567e-07
-2.79298e-06
-3.49943e-07
-2.70898e-06
-3.53786e-07
-2.62418e-06
-3.57108e-07
-2.5387e-06
-3.59923e-07
-2.45266e-06
-3.62244e-07
-2.36618e-06
-3.64087e-07
-2.27938e-06
-3.6547e-07
-2.19237e-06
-3.66409e-07
-2.10524e-06
-3.66922e-07
-2.01812e-06
-3.67026e-07
-1.93109e-06
-3.6674e-07
-1.84427e-06
-3.6608e-07
-1.75774e-06
-3.65064e-07
-1.67161e-06
-3.63703e-07
-1.58595e-06
-3.6201e-07
-1.50086e-06
-3.59991e-07
-1.41639e-06
-3.57649e-07
-1.33261e-06
-3.54984e-07
-1.24954e-06
-3.52007e-07
-1.16721e-06
-3.48738e-07
-1.08568e-06
-3.45208e-07
-1.00499e-06
-3.41452e-07
-9.2518e-07
-3.375e-07
-8.46315e-07
-3.33377e-07
-7.68434e-07
-3.291e-07
-6.91576e-07
-3.24684e-07
-6.15775e-07
-3.20145e-07
-5.41058e-07
-3.15496e-07
-4.67451e-07
-3.1075e-07
-3.94977e-07
-3.05917e-07
-3.23653e-07
-3.01009e-07
-2.53493e-07
-2.96039e-07
-1.84506e-07
-2.91017e-07
-1.16703e-07
-2.85956e-07
-5.00906e-08
-2.80868e-07
1.53245e-08
-2.75763e-07
7.95379e-08
-2.7065e-07
1.42548e-07
-2.65538e-07