/*--------------------------------*- C++ -*----------------------------------*\
  =========                 |
  \\      /  F ield         | OpenFOAM: The Open Source CFD Toolbox
   \\    /   O peration     | Website:  https://openfoam.org
    \\  /    A nd           | Version:  8
     \\/     M anipulation  |
\*---------------------------------------------------------------------------*/
FoamFile
{
    version     2.0;
    format      ascii;
    class       volVectorField;
    location    "3700";
    object      U;
}
// * * * * * * * * * * * * * * * * * * * * * * * * * * * * * * * * * * * * * //

dimensions      [0 1 -1 0 0 0 0];

internalField   nonuniform List<vector> 
12225
(
(9.2745 -4.73371 0)
(13.1094 -1.71343 0)
(12.4778 -0.395198 0)
(11.2771 -0.0422041 0)
(10.6314 0.0141385 0)
(10.2979 -9.39353e-05 0)
(10.0776 -0.0165233 0)
(9.91227 -0.00288817 0)
(9.77909 0.0348747 0)
(9.66231 0.0428928 0)
(9.55574 0.0248832 0)
(9.45767 0.00214217 0)
(9.36676 -0.0227918 0)
(9.28211 -0.0302252 0)
(9.20232 -0.0217879 0)
(9.13253 -0.0212277 0)
(9.07016 -0.0210401 0)
(9.08962 -0.0276959 0)
(10.2592 0.0928019 0)
(10.7814 0.199339 0)
(10.9594 0.245656 0)
(10.7469 0.229144 0)
(10.5875 0.172969 0)
(10.4527 0.115535 0)
(10.33 0.0823315 0)
(10.2327 0.0647301 0)
(10.155 0.0524768 0)
(10.0894 0.0472339 0)
(10.0323 0.0469929 0)
(9.98212 0.0489905 0)
(9.93785 0.0517978 0)
(9.89833 0.0519426 0)
(9.86151 0.048325 0)
(9.82886 0.043843 0)
(9.79429 0.0300801 0)
(9.76827 0.0102844 0)
(9.87768 -0.24504 0)
(9.74285 0.00579115 0)
(10.1971 0.125744 0)
(10.3245 0.179364 0)
(10.3564 0.161548 0)
(10.3311 0.120077 0)
(10.2777 0.0904942 0)
(10.2252 0.0746659 0)
(10.1812 0.0658754 0)
(10.1438 0.0600291 0)
(10.1103 0.0562087 0)
(10.0799 0.0536513 0)
(10.052 0.0511366 0)
(10.026 0.0487623 0)
(10.0023 0.0460754 0)
(9.98118 0.0417679 0)
(9.95915 0.0316705 0)
(9.93459 0.0135784 0)
(9.83416 -0.443933 0)
(9.57654 -0.163146 0)
(9.91603 0.0336708 0)
(10.0933 0.134225 0)
(10.1892 0.145473 0)
(10.2168 0.120739 0)
(10.205 0.0978953 0)
(10.1824 0.0839096 0)
(10.1599 0.0756298 0)
(10.1389 0.0697125 0)
(10.119 0.0651347 0)
(10.1001 0.0616378 0)
(10.0821 0.0586134 0)
(10.0648 0.0562294 0)
(10.0483 0.0538548 0)
(10.0325 0.0501449 0)
(10.0148 0.0424187 0)
(9.99178 0.0306141 0)
(9.87825 -0.387476 0)
(9.61653 -0.196147 0)
(9.81623 -0.01867 0)
(9.96136 0.0916132 0)
(10.0698 0.122197 0)
(10.1219 0.113628 0)
(10.1354 0.0992644 0)
(10.1332 0.0884212 0)
(10.1257 0.0809486 0)
(10.1162 0.0753968 0)
(10.1056 0.0711244 0)
(10.0946 0.0678821 0)
(10.0833 0.0652544 0)
(10.0718 0.0631567 0)
(10.0601 0.0610448 0)
(10.0477 0.0581068 0)
(10.0328 0.0530815 0)
(10.0125 0.0469041 0)
(9.91439 -0.28804 0)
(9.68304 -0.185176 0)
(9.78717 -0.0532072 0)
(9.88917 0.0509995 0)
(9.98796 0.0936802 0)
(10.0476 0.0992041 0)
(10.0751 0.0938745 0)
(10.0861 0.0875183 0)
(10.0892 0.0821207 0)
(10.0879 0.0777647 0)
(10.0842 0.074351 0)
(10.0789 0.0717604 0)
(10.0726 0.069742 0)
(10.0654 0.0681722 0)
(10.0572 0.0667261 0)
(10.0476 0.0650436 0)
(10.0354 0.0627837 0)
(10.0185 0.0611714 0)
(9.93763 -0.214041 0)
(9.74856 -0.167535 0)
(9.79244 -0.0752152 0)
(9.85608 0.0162208 0)
(9.93595 0.0644223 0)
(9.99281 0.0805955 0)
(10.0261 0.0835615 0)
(10.0447 0.0822437 0)
(10.0546 0.0797796 0)
(10.0593 0.0772877 0)
(10.0606 0.0751761 0)
(10.0596 0.0735593 0)
(10.057 0.0723896 0)
(10.053 0.0716356 0)
(10.0477 0.071191 0)
(10.0407 0.0710163 0)
(10.0312 0.0712787 0)
(10.0182 0.073153 0)
(9.95263 -0.167334 0)
(9.79947 -0.149676 0)
(9.81177 -0.0846411 0)
(9.84959 -0.00620999 0)
(9.9114 0.0419323 0)
(9.96107 0.0638974 0)
(9.99432 0.0725502 0)
(10.0156 0.0752864 0)
(10.0288 0.0755301 0)
(10.0367 0.0749038 0)
(10.041 0.0741481 0)
(10.0427 0.073582 0)
(10.0425 0.0733234 0)
(10.0408 0.0734489 0)
(10.0375 0.0740062 0)
(10.0325 0.0751368 0)
(10.0254 0.0772053 0)
(10.0157 0.0812052 0)
(9.96406 -0.132089 0)
(9.84003 -0.131988 0)
(9.83337 -0.0876897 0)
(9.85306 -0.0213324 0)
(9.89927 0.0244159 0)
(9.94102 0.0495133 0)
(9.97207 0.0621237 0)
(9.99385 0.0680771 0)
(10.0086 0.0706963 0)
(10.0184 0.0717949 0)
(10.0246 0.0723179 0)
(10.0282 0.0727539 0)
(10.0298 0.0733608 0)
(10.0297 0.0743194 0)
(10.028 0.0757875 0)
(10.0248 0.0780082 0)
(10.0197 0.0814114 0)
(10.0129 0.0868085 0)
(9.97418 -0.100205 0)
(9.87757 -0.11239 0)
(9.85857 -0.085366 0)
(9.86387 -0.0323326 0)
(9.89487 0.00892925 0)
(9.92743 0.0352244 0)
(9.95439 0.0507174 0)
(9.97502 0.0594973 0)
(9.99014 0.0644445 0)
(10.0009 0.0673597 0)
(10.0085 0.0692985 0)
(10.0135 0.0708783 0)
(10.0166 0.0724769 0)
(10.018 0.0743696 0)
(10.0179 0.0768023 0)
(10.0164 0.0800768 0)
(10.0136 0.0846185 0)
(10.0095 0.0910438 0)
(9.98253 -0.0727091 0)
(9.91035 -0.0921962 0)
(9.88507 -0.078244 0)
(9.88001 -0.0386072 0)
(9.89746 -0.00337355 0)
(9.92043 0.0221694 0)
(9.94196 0.0391848 0)
(9.95999 0.0500816 0)
(9.97425 0.0570568 0)
(9.98518 0.0617056 0)
(9.99339 0.0650801 0)
(9.99941 0.0678641 0)
(10.0037 0.070517 0)
(10.0064 0.0733852 0)
(10.0078 0.0767705 0)
(10.0081 0.0809926 0)
(10.0073 0.0864252 0)
(10.0058 0.0935043 0)
(9.98894 -0.0502566 0)
(9.93733 -0.072378 0)
(9.91073 -0.0674478 0)
(9.89917 -0.0399824 0)
(9.90566 -0.0116493 0)
(9.91955 0.0114528 0)
(9.93496 0.0285313 0)
(9.94934 0.0405811 0)
(9.96169 0.0490253 0)
(9.97188 0.0551124 0)
(9.98009 0.0597806 0)
(9.98659 0.0637037 0)
(9.99163 0.0673722 0)
(9.99544 0.0711653 0)
(9.9982 0.0754042 0)
(10.0001 0.0803914 0)
(10.0013 0.0864272 0)
(10.0021 0.0937948 0)
(9.99348 -0.0329085 0)
(9.9582 -0.0538108 0)
(9.93368 -0.0542832 0)
(9.91898 -0.0367868 0)
(9.91755 -0.0154528 0)
(9.92366 0.00399565 0)
(9.93301 0.0197764 0)
(9.94318 0.0318776 0)
(9.9529 0.0410117 0)
(9.96163 0.0480216 0)
(9.96922 0.0536485 0)
(9.9757 0.0584848 0)
(9.98118 0.0629935 0)
(9.98578 0.0675425 0)
(9.98965 0.0724355 0)
(9.99294 0.0779323 0)
(9.99587 0.084255 0)
(9.9987 0.0915749 0)
(9.99643 -0.0202024 0)
(9.97327 -0.0372096 0)
(9.95261 -0.0400449 0)
(9.93731 -0.02981 0)
(9.93089 -0.0148228 0)
(9.93102 0.000367447 0)
(9.93504 0.0137753 0)
(9.94104 0.0248439 0)
(9.94782 0.0337601 0)
(9.95465 0.0409924 0)
(9.96117 0.0470511 0)
(9.96724 0.0523962 0)
(9.97281 0.0574129 0)
(9.9779 0.0624164 0)
(9.98261 0.0676606 0)
(9.98704 0.0733479 0)
(9.99135 0.0796289 0)
(9.99573 0.0865971 0)
(9.99816 -0.0112875 0)
(9.9833 -0.0229302 0)
(9.96682 -0.0257621 0)
(9.95243 -0.020076 0)
(9.94344 -0.0102409 0)
(9.93952 0.000676029 0)
(9.9394 0.0110312 0)
(9.94183 0.0201452 0)
(9.94582 0.0279265 0)
(9.95069 0.0345732 0)
(9.95597 0.0403871 0)
(9.96139 0.0456777 0)
(9.96681 0.0507233 0)
(9.97216 0.0557558 0)
(9.97744 0.0609592 0)
(9.9827 0.0664701 0)
(9.98803 0.0723779 0)
(9.99354 0.0787231 0)
(9.99906 -0.00508066 0)
(9.98922 -0.0107804 0)
(9.97612 -0.0119162 0)
(9.96309 -0.00848187 0)
(9.9531 -0.00243361 0)
(9.94685 0.00457986 0)
(9.94399 0.0115588 0)
(9.94384 0.0180221 0)
(9.9457 0.0238405 0)
(9.94896 0.0290824 0)
(9.95317 0.0339033 0)
(9.95799 0.0384799 0)
(9.96321 0.0429769 0)
(9.96868 0.0475317 0)
(9.97435 0.0522484 0)
(9.98019 0.0571969 0)
(9.98623 0.0624123 0)
(9.99249 0.0678973 0)
(9.99942 -0.00036702 0)
(9.99181 0.000152198 0)
(9.98042 0.00183309 0)
(9.96821 0.00459469 0)
(9.9579 0.00792132 0)
(9.95061 0.011403 0)
(9.94642 0.0148183 0)
(9.94498 0.0180903 0)
(9.94576 0.0212357 0)
(9.94825 0.0243208 0)
(9.95198 0.0274266 0)
(9.95661 0.0306304 0)
(9.96186 0.0339943 0)
(9.96757 0.0375625 0)
(9.97362 0.0413587 0)
(9.97993 0.0453877 0)
(9.98648 0.0496351 0)
(9.99325 0.0540714 0)
(9.99935 0.00408501 0)
(9.9911 0.0111737 0)
(9.97897 0.0161342 0)
(9.96616 0.0187378 0)
(9.95552 0.0196142 0)
(9.94819 0.019548 0)
(9.94419 0.0191614 0)
(9.94312 0.0188644 0)
(9.94438 0.0188974 0)
(9.94741 0.0193778 0)
(9.95174 0.0203463 0)
(9.95699 0.0217975 0)
(9.96287 0.0237007 0)
(9.96919 0.0260109 0)
(9.97583 0.0286766 0)
(9.9827 0.031641 0)
(9.98974 0.0348463 0)
(9.99692 0.0382316 0)
(9.99882 0.00972994 0)
(9.98675 0.0240493 0)
(9.97122 0.0318475 0)
(9.95641 0.033295 0)
(9.94558 0.0307056 0)
(9.93942 0.0263518 0)
(9.93734 0.0217493 0)
(9.93845 0.0177406 0)
(9.94186 0.0146965 0)
(9.94687 0.0127125 0)
(9.95292 0.011733 0)
(9.95963 0.0116392 0)
(9.96674 0.0122917 0)
(9.97408 0.0135548 0)
(9.98155 0.015303 0)
(9.98908 0.0174265 0)
(9.99665 0.0198284 0)
(10.0042 0.0224251 0)
(9.99757 0.0182101 0)
(9.97773 0.0404558 0)
(9.95664 0.0495784 0)
(9.93945 0.04748 0)
(9.92961 0.0394253 0)
(9.92659 0.0296487 0)
(9.92848 0.0204919 0)
(9.93357 0.0129682 0)
(9.94055 0.00734998 0)
(9.94856 0.00351909 0)
(9.95704 0.00122475 0)
(9.96568 0.00017706 0)
(9.97428 0.000112583 0)
(9.98276 0.000797653 0)
(9.99109 0.00204508 0)
(9.99925 0.00370192 0)
(10.0073 0.00564507 0)
(10.0151 0.00777802 0)
(9.99502 0.0318146 0)
(9.96177 0.0621342 0)
(9.93372 0.0695523 0)
(9.91534 0.0601161 0)
(9.90932 0.0439522 0)
(9.91249 0.0276616 0)
(9.92084 0.013995 0)
(9.93162 0.00364008 0)
(9.94323 -0.00364166 0)
(9.9548 -0.00837348 0)
(9.96595 -0.0111294 0)
(9.97653 -0.012391 0)
(9.98651 -0.0125648 0)
(9.99595 -0.011951 0)
(10.0049 -0.0107857 0)
(10.0135 -0.00924439 0)
(10.0217 -0.00745688 0)
(10.0296 -0.00552238 0)
(9.99018 0.0534619 0)
(9.93561 0.0901523 0)
(9.90098 0.0906284 0)
(9.88515 0.0687577 0)
(9.8878 0.0418199 0)
(9.90121 0.0186594 0)
(9.91856 0.00141791 0)
(9.93627 -0.0103961 0)
(9.95285 -0.0179412 0)
(9.96786 -0.0223935 0)
(9.98129 -0.0246483 0)
(9.99333 -0.0253872 0)
(10.0042 -0.0250882 0)
(10.0141 -0.0241085 0)
(10.0232 -0.0226858 0)
(10.0318 -0.0209902 0)
(10.0399 -0.0191448 0)
(10.0475 -0.0172226 0)
(9.9819 0.0862471 0)
(9.89548 0.124258 0)
(9.85817 0.109884 0)
(9.85209 0.0697745 0)
(9.87033 0.0303387 0)
(9.89842 0.00144939 0)
(9.92658 -0.0172042 0)
(9.95135 -0.028321 0)
(9.9722 -0.0344207 0)
(9.9896 -0.0373306 0)
(10.0043 -0.0382063 0)
(10.0168 -0.0377973 0)
(10.0276 -0.0366098 0)
(10.0372 -0.0349682 0)
(10.0459 -0.0330716 0)
(10.0539 -0.0310687 0)
(10.0613 -0.0290508 0)
(10.0683 -0.0270599 0)
(9.96925 0.13399 0)
(9.83823 0.163089 0)
(9.80793 0.122591 0)
(9.82311 0.0588004 0)
(9.86512 0.00730868 0)
(9.91138 -0.0240261 0)
(9.95035 -0.0405906 0)
(9.98048 -0.0483718 0)
(10.0034 -0.0512367 0)
(10.0212 -0.0515393 0)
(10.0354 -0.0504166 0)
(10.0469 -0.0485106 0)
(10.0565 -0.0462494 0)
(10.0649 -0.0438485 0)
(10.0723 -0.0414108 0)
(10.079 -0.0390532 0)
(10.0852 -0.0368648 0)
(10.0911 -0.0348083 0)
(9.94951 0.207141 0)
(9.76128 0.207022 0)
(9.75726 0.123478 0)
(9.81042 0.0320114 0)
(9.88382 -0.0278605 0)
(9.94874 -0.0559945 0)
(9.99526 -0.0660728 0)
(10.0266 -0.0678022 0)
(10.048 -0.0659741 0)
(10.063 -0.0631946 0)
(10.0743 -0.0598869 0)
(10.083 -0.0564934 0)
(10.09 -0.053144 0)
(10.0959 -0.0501198 0)
(10.1011 -0.0472751 0)
(10.1056 -0.0446414 0)
(10.1099 -0.0423612 0)
(10.114 -0.0402918 0)
(9.91094 0.322718 0)
(9.65923 0.254545 0)
(9.71887 0.107407 0)
(9.83329 -0.0119228 0)
(9.94173 -0.0726521 0)
(10.0199 -0.0901622 0)
(10.0662 -0.0893224 0)
(10.0917 -0.0831393 0)
(10.1058 -0.0760393 0)
(10.1141 -0.0696206 0)
(10.1198 -0.0644973 0)
(10.1236 -0.0600787 0)
(10.1262 -0.0563766 0)
(10.1281 -0.0532566 0)
(10.1299 -0.0503076 0)
(10.1313 -0.0475392 0)
(10.1327 -0.0454147 0)
(10.1343 -0.0437095 0)
(9.84404 0.43511 0)
(9.53798 0.261026 0)
(9.7269 0.0591351 0)
(9.92367 -0.0731152 0)
(10.0584 -0.121552 0)
(10.1344 -0.120191 0)
(10.1664 -0.10528 0)
(10.1758 -0.0906182 0)
(10.1759 -0.078483 0)
(10.1726 -0.0703796 0)
(10.1686 -0.0644379 0)
(10.1647 -0.0597637 0)
(10.1605 -0.0556903 0)
(10.1569 -0.0526447 0)
(10.1537 -0.0498185 0)
(10.1504 -0.0470669 0)
(10.1474 -0.0455497 0)
(10.1458 -0.0445229 0)
(9.83598 0.319666 0)
(9.55021 0.0912513 0)
(9.91739 -0.0687253 0)
(10.1507 -0.160112 0)
(10.2634 -0.172136 0)
(10.3032 -0.142726 0)
(10.2978 -0.112095 0)
(10.276 -0.0899557 0)
(10.2516 -0.0753884 0)
(10.2302 -0.0674587 0)
(10.2132 -0.0619464 0)
(10.1984 -0.0574657 0)
(10.1843 -0.0528836 0)
(10.1714 -0.0489134 0)
(10.1601 -0.0449559 0)
(10.1492 -0.0416356 0)
(10.1401 -0.0411326 0)
(10.133 -0.040593 0)
(10.2049 -0.0633775 0)
(10.4095 -0.191706 0)
(10.7164 -0.282558 0)
(10.6879 -0.282287 0)
(10.6191 -0.230103 0)
(10.5417 -0.163668 0)
(10.4545 -0.117044 0)
(10.3763 -0.0925014 0)
(10.3137 -0.0798687 0)
(10.2654 -0.0678693 0)
(10.2262 -0.0589187 0)
(10.1917 -0.0543241 0)
(10.1604 -0.053715 0)
(10.1329 -0.0526847 0)
(10.1064 -0.0517451 0)
(10.0822 -0.0506229 0)
(10.065 -0.0449214 0)
(10.047 -0.0399317 0)
(9.41631 4.45107 0)
(12.7294 2.07612 0)
(12.5649 0.621213 0)
(11.569 0.127658 0)
(10.9309 0.00343499 0)
(10.5866 -0.00206732 0)
(10.3638 0.0123106 0)
(10.2022 0.0302357 0)
(10.0795 0.041206 0)
(9.97727 0.0358132 0)
(9.88482 0.0251218 0)
(9.79873 0.0219466 0)
(9.72289 0.0252792 0)
(9.65533 0.0212708 0)
(9.59834 0.0166201 0)
(9.5506 0.0157799 0)
(9.49778 -0.00227287 0)
(9.44717 -0.0272081 0)
(-0.0275209 0.0934419 0)
(0.137019 -0.183505 0)
(0.324987 -0.305894 0)
(0.525475 -0.315116 0)
(0.702952 -0.272071 0)
(0.833501 -0.211078 0)
(0.90982 -0.146338 -8.60183e-20)
(0.940401 -0.0824929 8.66425e-20)
(0.919528 -0.0201698 0)
(0.858843 0.034541 9.1863e-20)
(0.771685 0.0739642 0)
(0.672421 0.0920094 0)
(0.578496 0.0877276 0)
(0.505693 0.0666664 -1.43203e-19)
(0.45574 0.0377126 0)
(0.412397 0.00997586 0)
(0.352865 -0.0089717 1.8793e-19)
(0.262709 -0.008679 0)
(0.135167 0.0293044 0)
(-0.0448174 0.112946 0)
(-0.300527 0.18649 -1.64813e-19)
(-0.594226 0.23526 0)
(-0.915648 0.266818 -7.6238e-20)
(-1.2519 0.296036 0)
(-1.59133 0.323654 0)
(-1.93107 0.336463 -4.13219e-20)
(-2.26349 0.335615 0)
(-2.5806 0.326492 3.45402e-20)
(-2.87938 0.310354 0)
(-3.15639 0.289554 -3.13412e-20)
(-3.41074 0.266418 0)
(-3.64204 0.242538 0)
(-3.85101 0.218947 0)
(-4.03875 0.196353 0)
(-4.2067 0.175132 0)
(-4.35642 0.155489 2.82295e-20)
(-4.48949 0.137461 0)
(-4.6074 0.120977 -5.55705e-20)
(-4.71153 0.105908 0)
(-4.8031 0.0920958 5.47719e-20)
(-4.88316 0.0793782 0)
(-4.95261 0.0676032 0)
(-5.01221 0.0566427 -5.35499e-20)
(-5.06258 0.0464002 0)
(-5.10421 0.0368162 -5.26582e-20)
(-5.13753 0.0278738 5.21803e-20)
(-5.16293 0.0196171 0)
(-5.1808 0.0121939 5.11535e-20)
(-5.19141 0.0058522 5.06011e-20)
(-5.19493 0.000802409 0)
(-5.19261 -0.00315122 0)
(-5.1857 -0.00644958 0)
(-5.17431 -0.00937208 0)
(-5.15879 -0.0120828 0)
(-5.13929 -0.0146515 -4.61816e-20)
(-5.11595 -0.0170916 0)
(-5.08888 -0.0194146 4.43164e-20)
(-5.05818 -0.0216293 0)
(-5.02396 -0.0237381 0)
(-4.98633 -0.0257428 -4.11384e-20)
(-4.94538 -0.0276438 0)
(-4.90121 -0.0294411 3.87627e-20)
(-4.85395 -0.0311344 0)
(-4.80371 -0.0327238 0)
(-4.7506 -0.0342093 0)
(-4.69473 -0.0355906 -3.33833e-20)
(-4.63625 -0.0368682 0)
(-4.57526 -0.0380431 0)
(-4.51189 -0.0391157 -2.87859e-20)
(-4.44629 -0.0400869 0)
(-4.37857 -0.040958 -2.54446e-20)
(-4.30887 -0.0417303 0)
(-4.23732 -0.0424056 0)
(-4.16405 -0.0429855 0)
(-4.08919 -0.0434721 1.80672e-20)
(-4.01288 -0.0438677 0)
(-3.93523 -0.0441746 0)
(-3.85639 -0.0443955 1.18852e-20)
(-3.77647 -0.0445325 9.69144e-21)
(-3.69559 -0.044588 0)
(-3.61388 -0.0445636 5.08969e-21)
(-3.53144 -0.044462 0)
(-3.4484 -0.0442878 3.63584e-22)
(-3.36486 -0.0440491 0)
(-3.28092 -0.0437579 -1.01261e-20)
(-3.19667 -0.0434257 0)
(-3.1122 -0.043059 2.13694e-20)
(-3.0276 -0.0426627 0)
(-2.94294 -0.0422581 0)
(-2.85827 -0.0419043 0)
(-2.77364 -0.0416858 -4.6561e-20)
(-2.68906 -0.0416747 0)
(-2.60454 -0.0419341 6.08359e-20)
(-2.52005 -0.0425314 0)
(-2.43556 -0.0434246 -7.6506e-20)
(-2.35131 -0.0443283 -8.48844e-20)
(-2.26755 -0.0447818 -9.35928e-20)
(-2.18453 -0.0445748 0)
(-2.10241 -0.0439696 0)
(-2.02123 -0.0432714 0)
(-1.94099 -0.0425663 0)
(-1.86171 -0.0418661 0)
(-1.78339 -0.0411716 0)
(-1.70608 -0.0404846 0)
(-1.62979 -0.0398089 0)
(-1.55455 -0.0391501 1.92704e-19)
(-1.48038 -0.0385155 2.07024e-19)
(-1.40728 -0.0379104 0)
(-1.33527 -0.0373238 0)
(-1.26438 -0.0366985 0)
(-1.19465 -0.0360408 2.74292e-19)
(-1.12608 -0.0354067 0)
(-1.05866 -0.034791 0)
(-0.992416 -0.0341953 0)
(-0.927333 -0.0336212 0)
(-0.863415 -0.0330706 -3.9093e-19)
(-0.800662 -0.0325462 0)
(-0.739068 -0.032051 0)
(-0.678627 -0.0315887 4.89107e-19)
(-0.619333 -0.0311606 -5.28804e-19)
(-0.561179 -0.0307703 0)
(-0.504157 -0.0304283 -6.22412e-19)
(-0.448254 -0.0301584 0)
(-0.393451 -0.0300051 7.41387e-19)
(-0.339727 -0.0299795 0)
(-0.287067 -0.030043 0)
(-0.235458 -0.0301827 0)
(-0.18487 -0.0304094 0)
(-0.135277 -0.0307387 0)
(-0.0867241 -0.0311894 -2.84645e-18)
(-0.0394222 -0.0316436 -3.27711e-18)
(0.00668129 -0.0313449 0)
(0.0520966 -0.0298481 0)
(0.0968351 -0.0279978 0)
(0.140755 -0.0262799 2.68502e-18)
(0.183764 -0.024747 0)
(0.22584 -0.0233736 0)
(0.267007 -0.0221361 0)
(0.307297 -0.0210147 2.04008e-18)
(0.34674 -0.019992 -1.93379e-18)
(0.385365 -0.019054 0)
(0.423199 -0.0181891 0)
(0.460265 -0.0173883 -1.68699e-18)
(0.496588 -0.0166438 -1.62232e-18)
(0.532191 -0.0159497 0)
(0.567097 -0.0153008 0)
(0.601329 -0.0146927 1.46402e-18)
(0.634909 -0.0141218 -1.42053e-18)
(0.667861 -0.0135849 0)
(0.700205 -0.0130795 0)
(0.731967 -0.0126032 -1.31023e-18)
(0.763167 -0.0121541 0)
(0.79383 -0.0117303 0)
(0.823977 -0.0113303 -1.2227e-18)
(0.853632 -0.0109527 0)
(0.882819 -0.0105963 -1.17361e-18)
(0.91156 -0.01026 0)
(0.939879 -0.00994252 0)
(0.9678 -0.00964298 0)
(0.995343 -0.00936023 1.0916e-18)
(1.02253 -0.0090932 0)
(1.04938 -0.00884058 0)
(1.07592 -0.00860096 0)
(1.10216 -0.0083725 0)
(1.1281 -0.00815299 0)
(1.15375 -0.00793946 0)
(1.1791 -0.00772809 9.82776e-19)
(1.20414 -0.00751369 9.69853e-19)
(1.22881 -0.0072893 0)
(1.25306 -0.00704537 0)
(1.27678 -0.00676838 0)
(1.2998 -0.00643975 -9.24502e-19)
(1.32188 -0.00602975 0)
(1.34262 -0.00549964 1.81389e-18)
(1.36156 -0.00476242 -1.80052e-18)
(1.37731 -0.00372662 -1.79179e-18)
(1.38989 -0.00195516 1.79008e-18)
(1.39031 0.00132663 -1.79546e-18)
(1.38762 0.00807481 1.80878e-18)
(1.30835 0.0198888 0)
(0.0963189 -0.26898 0)
(0.334076 -0.681274 0)
(0.514183 -0.706527 1.57358e-19)
(0.611824 -0.57135 0)
(0.662822 -0.4089 -1.11138e-19)
(0.683262 -0.253827 -1.08104e-19)
(0.677237 -0.112175 -5.62546e-20)
(0.646864 0.0155848 -5.61997e-20)
(0.603888 0.125405 0)
(0.544694 0.211927 -6.08081e-20)
(0.467884 0.267406 0)
(0.3734 0.283209 0)
(0.257599 0.256442 1.70492e-19)
(0.110269 0.21144 9.82847e-20)
(-0.0747569 0.206283 -1.84466e-19)
(-0.301025 0.271829 -1.43801e-19)
(-0.579003 0.383402 -5.7191e-20)
(-0.904932 0.513238 0)
(-1.25852 0.642602 0)
(-1.61662 0.756432 0)
(-1.97224 0.841989 -2.85756e-20)
(-2.31783 0.895558 0)
(-2.64773 0.919044 6.90641e-20)
(-2.95445 0.915464 0)
(-3.23395 0.889029 0)
(-3.48459 0.844863 1.98198e-20)
(-3.70497 0.788296 0)
(-3.89592 0.724862 -1.9762e-20)
(-4.05931 0.658788 -4.17983e-20)
(-4.19869 0.592787 2.01689e-20)
(-4.31699 0.528961 0)
(-4.41709 0.469093 0)
(-4.5017 0.414014 0)
(-4.57323 0.364074 -4.42598e-20)
(-4.63374 0.319236 -4.47661e-20)
(-4.68492 0.279226 -2.21903e-20)
(-4.72815 0.243634 0)
(-4.76454 0.211979 4.53083e-20)
(-4.79498 0.183762 0)
(-4.82019 0.158502 -4.588e-20)
(-4.84075 0.135758 0)
(-4.85716 0.115137 0)
(-4.86983 0.0962977 4.60905e-20)
(-4.87915 0.0789492 0)
(-4.88546 0.0628512 1.38172e-19)
(-4.88905 0.0478093 -4.5611e-20)
(-4.89023 0.0336882 0)
(-4.88921 0.0204574 -4.49418e-20)
(-4.88628 0.00823312 -4.44851e-20)
(-4.88169 -0.00282257 0)
(-4.87455 -0.0127655 0)
(-4.86372 -0.0218916 0)
(-4.84921 -0.0304439 0)
(-4.83092 -0.038537 0)
(-4.80888 -0.0462406 4.02192e-20)
(-4.78314 -0.0535916 7.91687e-20)
(-4.75378 -0.060611 -3.84419e-20)
(-4.72089 -0.0673103 0)
(-4.68456 -0.0736952 7.34904e-20)
(-4.64487 -0.0797683 -3.59689e-20)
(-4.60193 -0.0855303 0)
(-4.55584 -0.0909809 -3.32688e-20)
(-4.5067 -0.0961201 0)
(-4.45462 -0.100949 0)
(-4.39972 -0.10547 -5.98959e-20)
(-4.34211 -0.109683 2.83873e-20)
(-4.28191 -0.113587 -5.47042e-20)
(-4.21925 -0.117186 5.19854e-20)
(-4.15424 -0.120484 2.42956e-20)
(-4.08701 -0.123485 0)
(-4.01769 -0.126194 2.13626e-20)
(-3.94641 -0.128617 0)
(-3.87329 -0.130761 0)
(-3.79847 -0.132633 0)
(-3.72207 -0.134241 1.56361e-20)
(-3.64422 -0.135593 0)
(-3.56504 -0.136699 2.37693e-20)
(-3.48465 -0.13757 -2.99781e-20)
(-3.40319 -0.138214 -7.94298e-21)
(-3.32076 -0.138643 0)
(-3.23749 -0.138868 -4.1423e-21)
(-3.15348 -0.138901 0)
(-3.06884 -0.138754 -2.93737e-22)
(-2.98369 -0.138438 0)
(-2.89811 -0.137966 8.11222e-21)
(-2.81221 -0.137348 -2.35667e-20)
(-2.72609 -0.136595 -1.69658e-20)
(-2.63984 -0.135721 0)
(-2.55354 -0.134733 0)
(-2.46729 -0.133638 0)
(-2.38118 -0.132434 3.61838e-20)
(-2.29532 -0.131109 0)
(-2.20986 -0.129638 -4.66555e-20)
(-2.12494 -0.127967 0)
(-2.0407 -0.126041 1.7188e-19)
(-1.95721 -0.123886 6.36319e-20)
(-1.87449 -0.121603 6.96634e-20)
(-1.79247 -0.119298 0)
(-1.71114 -0.117029 0)
(-1.63055 -0.114795 0)
(-1.55076 -0.112573 0)
(-1.47184 -0.110348 0)
(-1.3938 -0.108117 2.19493e-19)
(-1.3167 -0.105881 2.34985e-19)
(-1.24056 -0.103641 0)
(-1.16541 -0.101402 -1.34761e-19)
(-1.09127 -0.0991664 -1.43541e-19)
(-1.01817 -0.0969354 0)
(-0.946127 -0.0947112 -3.23036e-19)
(-0.875166 -0.0924983 0)
(-0.805277 -0.0903102 1.81323e-19)
(-0.736468 -0.0881527 0)
(-0.668752 -0.0860261 0)
(-0.602132 -0.0839326 -4.34449e-19)
(-0.53661 -0.0818738 0)
(-0.472189 -0.0798513 2.44831e-19)
(-0.408867 -0.077868 0)
(-0.346643 -0.0759295 0)
(-0.285511 -0.0740449 2.89767e-19)
(-0.225463 -0.072212 3.09071e-19)
(-0.166492 -0.0704256 0)
(-0.108591 -0.0686885 -3.46365e-19)
(-0.0517668 -0.067001 0)
(0.00398461 -0.0653544 3.82639e-19)
(0.0587045 -0.063742 7.66207e-19)
(0.112426 -0.062175 0)
(0.165151 -0.0606681 0)
(0.216878 -0.0592258 0)
(0.267623 -0.057846 0)
(0.317418 -0.0565307 7.09254e-19)
(0.366333 -0.055269 2.09649e-18)
(0.414456 -0.0538909 0)
(0.461698 -0.0522459 0)
(0.507919 -0.0504721 0)
(0.553188 -0.0487255 -6.6564e-19)
(0.597588 -0.0470581 0)
(0.641146 -0.0454781 0)
(0.68388 -0.0439832 1.28795e-18)
(0.725811 -0.0425668 6.36958e-19)
(0.76696 -0.0412215 6.32433e-19)
(0.807349 -0.0399408 0)
(0.846998 -0.0387191 0)
(0.88593 -0.0375519 6.15888e-19)
(0.924166 -0.0364358 -6.09651e-19)
(0.961727 -0.0353676 0)
(0.998635 -0.0343449 0)
(1.03491 -0.0333654 -5.96791e-19)
(1.07057 -0.0324274 1.77639e-18)
(1.10565 -0.0315292 0)
(1.14016 -0.0306693 0)
(1.17412 -0.0298466 5.80321e-19)
(1.20755 -0.0290598 0)
(1.24049 -0.0283079 1.14493e-18)
(1.27294 -0.0275899 -5.68535e-19)
(1.30494 -0.0269047 0)
(1.3365 -0.0262515 5.62421e-19)
(1.36764 -0.0256292 1.11756e-18)
(1.39839 -0.0250367 0)
(1.42877 -0.0244728 0)
(1.4588 -0.0239359 -5.49586e-19)
(1.4885 -0.0234244 0)
(1.51789 -0.0229359 1.08646e-18)
(1.54698 -0.0224677 0)
(1.57578 -0.0220157 0)
(1.60431 -0.0215752 0)
(1.63256 -0.0211393 0)
(1.66053 -0.0206992 -5.29011e-19)
(1.6882 -0.0202428 -5.26243e-19)
(1.71553 -0.0197537 0)
(1.74246 -0.0192092 0)
(1.76891 -0.0185778 0)
(1.79473 -0.0178138 5.1615e-19)
(1.81971 -0.0168502 0)
(1.84353 -0.0155838 -1.02488e-18)
(1.86577 -0.0138378 1.02262e-18)
(1.8855 -0.0113275 1.02224e-18)
(1.9023 -0.00731229 1.02333e-18)
(1.91251 -0.000521353 1.0285e-18)
(1.92481 0.0124231 1.02039e-18)
(1.90525 0.0361858 0)
(0.116443 -0.859717 0)
(0.269019 -1.05684 0)
(0.316113 -0.826016 -1.26329e-19)
(0.315421 -0.584242 -1.08168e-19)
(0.297991 -0.373776 1.00488e-19)
(0.266783 -0.188647 1.00669e-19)
(0.220601 -0.0231857 -6.44968e-22)
(0.158706 0.124559 0)
(0.0809705 0.255103 0)
(-0.0138421 0.366022 0)
(-0.129288 0.451734 0)
(-0.273433 0.512796 0)
(-0.459192 0.56662 -2.67334e-19)
(-0.697053 0.641354 0)
(-0.983279 0.75391 6.62766e-20)
(-1.30201 0.895877 5.71756e-20)
(-1.6353 1.04399 0)
(-1.96624 1.178 0)
(-2.27957 1.28538 0)
(-2.56346 1.35909 0)
(-2.81258 1.39484 3.4904e-20)
(-3.02651 1.39239 0)
(-3.20666 1.35643 -3.23468e-20)
(-3.35585 1.29419 0)
(-3.47856 1.21298 0)
(-3.57938 1.11922 0)
(-3.66313 1.01897 -6.85884e-20)
(-3.73417 0.917577 0)
(-3.79604 0.81917 3.31178e-20)
(-3.8515 0.726546 -7.0702e-20)
(-3.90248 0.641217 0)
(-3.95027 0.563921 0)
(-3.99563 0.494707 0)
(-4.03892 0.433193 3.65649e-20)
(-4.08026 0.378728 3.71523e-20)
(-4.11959 0.330539 0)
(-4.15679 0.287832 0)
(-4.19168 0.249845 -7.78017e-20)
(-4.22407 0.215884 -7.81946e-20)
(-4.25381 0.185339 7.84276e-20)
(-4.28076 0.15769 0)
(-4.30479 0.132509 0)
(-4.32582 0.109448 0)
(-4.34378 0.0882222 0)
(-4.35859 0.0685982 -7.70112e-20)
(-4.37022 0.050376 -7.69131e-20)
(-4.37859 0.0333714 7.62702e-20)
(-4.38355 0.0173836 0)
(-4.38495 0.00215618 0)
(-4.38262 -0.0125973 0)
(-4.3765 -0.0270099 0)
(-4.36665 -0.040995 -7.11066e-20)
(-4.35313 -0.0544608 0)
(-4.33597 -0.0673959 0)
(-4.31522 -0.0798046 -6.69949e-20)
(-4.29092 -0.0916957 -6.49692e-20)
(-4.26314 -0.103077 0)
(-4.23196 -0.113951 1.2457e-19)
(-4.19744 -0.124322 -6.00313e-20)
(-4.15968 -0.134189 5.82547e-20)
(-4.11876 -0.14355 0)
(-4.07478 -0.152402 0)
(-4.02784 -0.160745 0)
(-3.97804 -0.168577 0)
(-3.92549 -0.175901 4.84231e-20)
(-3.8703 -0.18272 9.37771e-20)
(-3.81258 -0.189031 4.40578e-20)
(-3.75246 -0.194838 -4.17856e-20)
(-3.69005 -0.200148 0)
(-3.62547 -0.204967 7.54259e-20)
(-3.55885 -0.209303 7.05428e-20)
(-3.49031 -0.213165 6.55434e-20)
(-3.41998 -0.216563 -6.04282e-20)
(-3.34798 -0.219509 0)
(-3.27444 -0.222015 -7.41008e-20)
(-3.19948 -0.224096 0)
(-3.12322 -0.225764 2.00959e-20)
(-3.04578 -0.227037 1.58729e-20)
(-2.96729 -0.227929 0)
(-2.88786 -0.228458 0)
(-2.80761 -0.228641 1.53628e-20)
(-2.72665 -0.228495 0)
(-2.64509 -0.228039 2.92839e-21)
(-2.56303 -0.227292 0)
(-2.48058 -0.226273 9.9943e-21)
(-2.39785 -0.225001 3.47161e-20)
(-2.31493 -0.223495 0)
(-2.23192 -0.221775 0)
(-2.14892 -0.219858 0)
(-2.06601 -0.217763 4.45784e-20)
(-1.9833 -0.215505 0)
(-1.90088 -0.213096 5.93998e-20)
(-1.81885 -0.210536 0)
(-1.7373 -0.207811 0)
(-1.65631 -0.204895 -1.67044e-19)
(-1.5759 -0.201772 0)
(-1.49609 -0.198455 -9.93082e-20)
(-1.41689 -0.19499 0)
(-1.33833 -0.191431 -1.16587e-19)
(-1.26047 -0.18782 0)
(-1.18336 -0.184172 0)
(-1.10706 -0.180495 0)
(-1.03161 -0.176797 -4.62673e-19)
(-0.957045 -0.173083 -1.65037e-19)
(-0.883391 -0.169361 0)
(-0.810679 -0.165636 0)
(-0.738933 -0.161916 0)
(-0.668175 -0.158205 0)
(-0.598422 -0.154507 2.18831e-19)
(-0.529686 -0.150828 -4.5845e-19)
(-0.461974 -0.147177 -2.42663e-19)
(-0.395296 -0.143564 5.0764e-19)
(-0.329663 -0.139993 5.33437e-19)
(-0.26508 -0.13647 2.81368e-19)
(-0.20155 -0.132998 0)
(-0.139074 -0.129577 6.16201e-19)
(-0.0776529 -0.126211 0)
(-0.0172884 -0.122901 -6.73538e-19)
(0.0420257 -0.11965 -3.45156e-19)
(0.100303 -0.116459 0)
(0.15755 -0.11333 6.9312e-19)
(0.213772 -0.110267 3.48829e-19)
(0.268979 -0.10727 0)
(0.323182 -0.104329 3.48723e-19)
(0.37639 -0.101433 -1.05281e-18)
(0.42861 -0.0985915 0)
(0.479857 -0.0958148 0)
(0.530147 -0.0931056 0)
(0.579498 -0.0904647 0)
(0.627933 -0.0878966 -7.07748e-19)
(0.675486 -0.0854084 -7.1024e-19)
(0.722178 -0.083015 0)
(0.767979 -0.0807038 0)
(0.812871 -0.0784355 0)
(0.856908 -0.0762089 0)
(0.900132 -0.0740401 0)
(0.94256 -0.0719378 0)
(0.984205 -0.0699047 -7.14017e-19)
(1.02508 -0.0679404 -1.0887e-21)
(1.06521 -0.0660435 0)
(1.10461 -0.064212 0)
(1.14331 -0.0624437 -7.13851e-19)
(1.18131 -0.060737 0)
(1.21864 -0.0590902 7.14899e-19)
(1.25532 -0.0575018 7.14038e-19)
(1.29138 -0.0559704 0)
(1.32682 -0.0544949 0)
(1.36168 -0.053074 -7.14571e-19)
(1.39597 -0.0517068 -1.42735e-18)
(1.42972 -0.0503922 0)
(1.46294 -0.0491293 0)
(1.49566 -0.0479171 0)
(1.5279 -0.0467548 -7.13265e-19)
(1.55968 -0.0456413 7.12884e-19)
(1.59102 -0.0445758 0)
(1.62194 -0.0435572 1.42289e-18)
(1.65246 -0.0425843 7.10428e-19)
(1.68261 -0.0416557 -1.42084e-18)
(1.7124 -0.0407698 0)
(1.74186 -0.0399246 0)
(1.771 -0.0391174 -1.41704e-18)
(1.79985 -0.0383451 -7.0823e-19)
(1.82842 -0.0376033 0)
(1.85672 -0.0368861 0)
(1.88476 -0.0361862 0)
(1.91255 -0.0354932 0)
(1.94008 -0.0347938 -1.40691e-18)
(1.96733 -0.0340695 0)
(1.99429 -0.0332954 0)
(2.0209 -0.0324374 0)
(2.04709 -0.0314474 0)
(2.07273 -0.0302572 0)
(2.09766 -0.028766 0)
(2.12162 -0.0268222 -1.39758e-18)
(2.14427 -0.0241744 0)
(2.16494 -0.0204174 0)
(2.1834 -0.0147586 -2.81638e-18)
(2.19684 -0.00588068 1.41821e-18)
(2.21153 0.00887415 -1.41633e-18)
(2.20644 0.0362538 1.41178e-18)
(0.0333223 -1.16608 0)
(0.0696842 -1.02977 3.59934e-19)
(0.0339313 -0.746807 0)
(-0.0105256 -0.506328 1.10878e-19)
(-0.0658608 -0.283606 0)
(-0.133726 -0.0740162 0)
(-0.216972 0.122839 -8.28069e-20)
(-0.317971 0.306223 0)
(-0.43885 0.475694 0)
(-0.582213 0.631809 0)
(-0.751916 0.777104 0)
(-0.95317 0.91768 0)
(-1.18861 1.06165 2.04194e-19)
(-1.45263 1.21242 9.24347e-20)
(-1.73078 1.36375 -8.36868e-20)
(-2.00468 1.50227 0)
(-2.2586 1.61417 0)
(-2.48248 1.6901 0)
(-2.67155 1.72634 0)
(-2.82438 1.72415 0)
(-2.94353 1.6874 6.01622e-20)
(-3.03455 1.62132 5.88456e-20)
(-3.10355 1.53276 -5.79927e-20)
(-3.15685 1.42938 5.76913e-20)
(-3.19984 1.31789 0)
(-3.23687 1.20368 0)
(-3.2714 1.09112 5.58444e-20)
(-3.30579 0.983486 0)
(-3.3413 0.882908 0)
(-3.37847 0.790423 5.86988e-20)
(-3.41727 0.706273 6.15168e-20)
(-3.45739 0.630231 6.22285e-20)
(-3.49827 0.561767 0)
(-3.53931 0.500184 0)
(-3.5799 0.444723 -6.40387e-20)
(-3.61946 0.394626 0)
(-3.65751 0.349183 0)
(-3.69363 0.307751 6.43116e-20)
(-3.72748 0.269764 -6.60317e-20)
(-3.75878 0.234735 6.60422e-20)
(-3.78731 0.202249 0)
(-3.81287 0.171955 0)
(-3.83533 0.143556 1.30017e-19)
(-3.85454 0.116803 0)
(-3.8704 0.0914831 1.28629e-19)
(-3.88282 0.0674202 1.9104e-19)
(-3.89173 0.0444705 -1.89399e-19)
(-3.89704 0.0225136 1.25331e-19)
(-3.89873 0.00143242 0)
(-3.89678 -0.0188889 0)
(-3.89124 -0.0385286 1.19875e-19)
(-3.88216 -0.0575054 5.84067e-20)
(-3.86958 -0.0758156 0)
(-3.85352 -0.0934577 0)
(-3.83403 -0.110431 5.49005e-20)
(-3.81116 -0.126736 1.08251e-19)
(-3.78496 -0.14237 0)
(-3.75548 -0.15733 -1.01799e-19)
(-3.72281 -0.171613 9.99692e-20)
(-3.68702 -0.185214 -9.69973e-20)
(-3.64819 -0.198129 0)
(-3.60641 -0.210351 0)
(-3.56177 -0.221876 0)
(-3.51437 -0.232701 0)
(-3.46431 -0.242831 0)
(-3.41171 -0.252265 -7.59244e-20)
(-3.35666 -0.261002 0)
(-3.29927 -0.269048 0)
(-3.23968 -0.27641 0)
(-3.17798 -0.283096 -1.22625e-19)
(-3.11431 -0.289117 -5.6705e-20)
(-3.04878 -0.294485 -5.26038e-20)
(-2.9815 -0.299214 9.80425e-20)
(-2.91261 -0.30332 -4.53637e-20)
(-2.84222 -0.306819 3.98118e-20)
(-2.77045 -0.30973 0)
(-2.69742 -0.312073 -3.08892e-20)
(-2.62325 -0.313868 0)
(-2.54806 -0.315138 0)
(-2.47195 -0.315904 0)
(-2.39505 -0.31619 -2.5492e-20)
(-2.31745 -0.31602 8.48612e-21)
(-2.23928 -0.315418 4.76867e-21)
(-2.16063 -0.314408 -2.9798e-21)