/*--------------------------------*- C++ -*----------------------------------*\
  =========                 |
  \\      /  F ield         | OpenFOAM: The Open Source CFD Toolbox
   \\    /   O peration     | Website:  https://openfoam.org
    \\  /    A nd           | Version:  8
     \\/     M anipulation  |
\*---------------------------------------------------------------------------*/
FoamFile
{
    version     2.0;
    format      ascii;
    class       volScalarField;
    location    "2300";
    object      nuTilda;
}
// * * * * * * * * * * * * * * * * * * * * * * * * * * * * * * * * * * * * * //

dimensions      [0 2 -1 0 0 0 0];

internalField   nonuniform List<scalar> 
12225
(
0.0122671
0.00158833
0.000666932
0.000412201
0.000298001
0.000234418
0.000192049
0.000186517
0.000141364
0.000110263
9.73201e-05
9.07192e-05
8.20032e-05
7.63422e-05
7.17075e-05
7.01733e-05
6.81333e-05
7.40038e-05
0.0323823
0.00744533
0.00330642
0.00204338
0.00146818
0.00114477
0.000936743
0.000800567
0.000680243
0.00057806
0.000507247
0.000453561
0.000411867
0.000380373
0.000352022
0.000329996
0.000313757
0.000295888
0.0490123
0.01515
0.00728196
0.00457856
0.00330642
0.00258059
0.00211241
0.00178924
0.00154196
0.00134781
0.00119795
0.00107898
0.000982391
0.000902877
0.000836442
0.000781452
0.000736168
0.000687898
0.063054
0.0237783
0.0122894
0.00788815
0.00573398
0.004485
0.00367415
0.00310736
0.00268476
0.00235811
0.00210119
0.00189468
0.00172543
0.00158465
0.0014663
0.00136624
0.00128168
0.00119816
0.074932
0.0328517
0.0181452
0.0119262
0.00874549
0.00686413
0.00563081
0.00476256
0.0041175
0.00362032
0.00322735
0.00290997
0.00264905
0.0024315
0.00224807
0.00209197
0.00195837
0.00183639
0.0849536
0.0420208
0.0246655
0.0166359
0.0123325
0.00972587
0.0079954
0.00676786
0.00585346
0.00514771
0.00458846
0.00413589
0.00376337
0.00345243
0.00318987
0.00296601
0.00277366
0.00260479
0.0933822
0.0510219
0.0316642
0.0219415
0.016474
0.0130717
0.0107779
0.00913552
0.00790571
0.00695341
0.00619691
0.00558369
0.00507839
0.00465635
0.00429979
0.00399564
0.00373419
0.00350824
0.0993794
0.0583363
0.0378386
0.0268568
0.0204171
0.0163053
0.0134892
0.011453
0.00991892
0.0087263
0.00777636
0.00700499
0.00636868
0.00583687
0.00538743
0.00500401
0.00467455
0.00439131
0.104023
0.0645454
0.0433804
0.0314239
0.0241571
0.0194092
0.0161097
0.0137018
0.0118766
0.0104521
0.00931444
0.00838905
0.00762487
0.00698576
0.00644546
0.00598452
0.00558861
0.0052488
0.108368
0.0708939
0.0493756
0.0365496
0.0284517
0.0230231
0.0191863
0.0163547
0.0141926
0.0124968
0.011138
0.0100304
0.00911435
0.00834761
0.00769912
0.00714581
0.00667071
0.00626301
0.112368
0.0772557
0.0557282
0.0421918
0.0332976
0.0271652
0.0227468
0.0194432
0.0168984
0.0148903
0.0132749
0.0119544
0.0108605
0.0099438
0.00916798
0.00850588
0.00793738
0.00744917
0.115994
0.0834975
0.0623053
0.0482611
0.0386474
0.0318167
0.026789
0.0229739
0.0200046
0.0176452
0.0157379
0.0141736
0.0128749
0.011785
0.0108618
0.0100736
0.00939673
0.00881466
0.119234
0.0894856
0.0689377
0.0546109
0.0443919
0.0369007
0.0312597
0.0269088
0.0234836
0.02074
0.0185096
0.0166735
0.0151449
0.01386
0.0127704
0.0118396
0.0110397
0.0103508
0.122086
0.095084
0.075415
0.0610223
0.0503361
0.0422534
0.0360231
0.0311353
0.0272402
0.024093
0.021519
0.0193909
0.017614
0.0161174
0.0148466
0.0137601
0.0128257
0.0120196
0.124546
0.100135
0.0814619
0.0671725
0.056158
0.047577
0.0408126
0.0354174
0.031066
0.0275196
0.0246012
0.0221777
0.0201481
0.0184349
0.0169782
0.0157314
0.0146583
0.0137312
0.126578
0.104396
0.0866605
0.0725515
0.0613228
0.0523526
0.0451453
0.0393148
0.0345631
0.0306611
0.0274325
0.0247409
0.0224806
0.020569
0.0189413
0.0175468
0.0163454
0.0153061
0.128011
0.107322
0.0902141
0.0762353
0.0648743
0.0556509
0.0481493
0.0420254
0.0370012
0.0328553
0.0294126
0.0265352
0.0241143
0.0220643
0.0203172
0.0188191
0.0175275
0.0164083
0.128006
0.107313
0.0902048
0.0762269
0.0648674
0.0556454
0.048145
0.0420222
0.0369988
0.0328537
0.0294117
0.0265349
0.0241147
0.0220652
0.0203185
0.0188206
0.0175287
0.0164083
0.126509
0.104255
0.0864922
0.0723807
0.0611613
0.052205
0.0450128
0.0391967
0.0344584
0.0305686
0.0273506
0.0246684
0.0224163
0.0205118
0.0188903
0.0175006
0.0163024
0.0152631
0.124267
0.0995604
0.0807712
0.0664676
0.0554886
0.0469631
0.0402594
0.0349228
0.0306248
0.0271258
0.0242488
0.0218611
0.0198626
0.0181762
0.0167426
0.0155152
0.0144575
0.0135405
0.12136
0.0936399
0.0737261
0.0593348
0.0487592
0.0408249
0.0347467
0.0300003
0.0262308
0.0231928
0.0207127
0.018665
0.0169572
0.0155198
0.0142999
0.0132567
0.0123583
0.0115798
0.117686
0.0865903
0.0656967
0.0514791
0.0415374
0.0343608
0.0290184
0.0249322
0.0217348
0.0191848
0.0171184
0.0154211
0.0140106
0.0128263
0.0118229
0.0109657
0.010228
0.00958894
0.11305
0.0784122
0.056921
0.0432687
0.0342296
0.0279652
0.0234365
0.0200435
0.0174263
0.0153597
0.0136966
0.0123369
0.0112106
0.0102671
0.00946866
0.00878719
0.00820102
0.00769346
0.107169
0.0691009
0.0476372
0.035029
0.0271566
0.021922
0.0182437
0.0155401
0.0134817
0.0118706
0.0105816
0.00953197
0.00866487
0.00793966
0.00732669
0.00680379
0.00635414
0.00596494
0.0996761
0.0587036
0.0381279
0.0270699
0.0205782
0.016433
0.0135949
0.0115438
0.00999923
0.00879908
0.00784341
0.00706756
0.00642791
0.00589359
0.00544227
0.00505737
0.00472647
0.00444012
0.0901097
0.0473665
0.0287363
0.0196847
0.0146976
0.0116312
0.00957853
0.00811528
0.00702332
0.00617995
0.00551058
0.00496795
0.00452115
0.00414818
0.00383325
0.0035645
0.00333377
0.00313395
0.0779076
0.0353826
0.0198606
0.0131383
0.00966107
0.00759298
0.00623353
0.00527431
0.00456401
0.00401885
0.00358701
0.00323613
0.00294724
0.002706
0.00250225
0.0023277
0.00217882
0.00204922
0.06238
0.0232554
0.0119461
0.00765494
0.00556339
0.00435258
0.00356726
0.00301643
0.00261312
0.00230801
0.00206667
0.00186726
0.00170237
0.00156455
0.00144704
0.00134594
0.00126077
0.00118463
0.0426105
0.0117794
0.00546931
0.00341388
0.00246077
0.00192015
0.0015729
0.00132905
0.0011597
0.00103888
0.000944477
0.000858529
0.000784888
0.000724842
0.000663028
0.000623779
0.000578366
0.000538736
0.0168348
0.0025599
0.00110031
0.000684192
0.000495179
0.000389151
0.00032166
0.000270753
0.000280892
0.000339027
0.000384414
0.000374517
0.000341443
0.000323235
0.000255481
0.000333321
0.000269883
0.000234124
3.7828e-06
1.43238e-05
2.60309e-05
3.8541e-05
4.60179e-05
4.96738e-05
5.01617e-05
4.78383e-05
4.46475e-05
3.95788e-05
3.42402e-05
2.9462e-05
2.6759e-05
2.74191e-05
2.95917e-05
3.14338e-05
3.1281e-05
2.84065e-05
2.36579e-05
1.94765e-05
1.94416e-05
2.62708e-05
3.92491e-05
6.37026e-05
8.71433e-05
0.000100544
0.000113283
0.000124296
0.00013429
0.000142798
0.000150395
0.000157018
0.000162883
0.000168041
0.000172576
0.000176604
0.000180193
0.000183413
0.000186311
0.000188923
0.000191273
0.00019338
0.000195258
0.000196921
0.000198382
0.00019965
0.000200736
0.000201644
0.000202377
0.000202801
0.000203293
0.000203376
0.000203435
0.000203319
0.000203042
0.000202628
0.000202073
0.00020138
0.000200552
0.000199591
0.000198498
0.000197277
0.00019593
0.00019446
0.000192871
0.000191164
0.000189341
0.000187405
0.00018536
0.000183209
0.000180954
0.0001786
0.000176148
0.000173601
0.000170961
0.000168232
0.000165414
0.00016251
0.00015952
0.000156445
0.000153286
0.000150043
0.000146716
0.000143304
0.000139802
0.000136208
0.000132514
0.000128714
0.000124797
0.000120745
0.000116536
0.000112159
0.000107619
0.000102965
9.83999e-05
9.4418e-05
9.15949e-05
8.98383e-05
8.8524e-05
8.73192e-05
8.61359e-05
8.49571e-05
8.37812e-05
8.26088e-05
8.14408e-05
8.02781e-05
7.91222e-05
7.79772e-05
7.68641e-05
7.59095e-05
7.49755e-05
7.40476e-05
7.31277e-05
7.2216e-05
7.1313e-05
7.0419e-05
6.95343e-05
6.86593e-05
6.77943e-05
6.69394e-05
6.60948e-05
6.52608e-05
6.44377e-05
6.36259e-05
6.28253e-05
6.20359e-05
6.12588e-05
6.05193e-05
5.98421e-05
5.91735e-05
5.85102e-05
5.78601e-05
5.72283e-05
5.66016e-05
5.59797e-05
5.53659e-05
5.47611e-05
5.4166e-05
5.35806e-05
5.30048e-05
5.24384e-05
5.18814e-05
5.13335e-05
5.07947e-05
5.02648e-05
4.97437e-05
4.92314e-05
4.87276e-05
4.82324e-05
4.77456e-05
4.72672e-05
4.67971e-05
4.63353e-05
4.58817e-05
4.54364e-05
4.49993e-05
4.45706e-05
4.41503e-05
4.37386e-05
4.33356e-05
4.29415e-05
4.25566e-05
4.2181e-05
4.1815e-05
4.14589e-05
4.11126e-05
4.07763e-05
4.04498e-05
4.01324e-05
3.98235e-05
3.95212e-05
3.92257e-05
3.89279e-05
3.86413e-05
3.83124e-05
3.80567e-05
3.75489e-05
3.73541e-05
3.63034e-05
3.49092e-05
5.89539e-06
4.05837e-05
9.24527e-05
0.000153693
0.000192557
0.000214581
0.000223393
0.000221978
0.000214151
0.000198599
0.000179572
0.00016157
0.000152394
0.00015682
0.00016907
0.000177028
0.000179115
0.000180198
0.000185099
0.000193802
0.000208053
0.000224371
0.000240281
0.000256122
0.000267016
0.000276606
0.000285155
0.000297605
0.000316283
0.000329953
0.000342476
0.000353227
0.000363011
0.000371989
0.00037979
0.000386916
0.000393554
0.000399926
0.000406159
0.00041232
0.000418403
0.000424366
0.000430156
0.000435733
0.000441068
0.000446145
0.000450948
0.000455464
0.000459696
0.000463641
0.000467341
0.000470759
0.000473935
0.000476858
0.000479532
0.000481958
0.000484138
0.000486071
0.000487759
0.000489201
0.000490398
0.000491351
0.000492062
0.000492536
0.000492783
0.000492808
0.000492605
0.000492171
0.000491522
0.000490661
0.000489595
0.000488331
0.000486874
0.000485233
0.000483412
0.000481421
0.000479266
0.000476955
0.000474495
0.000471895
0.00046916
0.000466301
0.000463325
0.00046024
0.000457054
0.000453776
0.000450414
0.000446975
0.00044347
0.000439903
0.000436282
0.000432611
0.000428892
0.000425117
0.000421266
0.000417314
0.000413245
0.000409087
0.00040489
0.000400679
0.000396461
0.000392241
0.000388021
0.000383805
0.000379597
0.000375399
0.000371216
0.000367049
0.000362899
0.000358762
0.00035465
0.000350567
0.000346515
0.000342496
0.000338512
0.000334564
0.000330654
0.000326783
0.000322954
0.000319166
0.00031542
0.000311719
0.000308062
0.000304451
0.000300888
0.00029737
0.000293899
0.000290473
0.000287091
0.000283756
0.000280466
0.000277229
0.000274047
0.000270903
0.000267798
0.000264735
0.000261719
0.00025875
0.000255828
0.000252952
0.000250122
0.000247338
0.000244599
0.000241904
0.000239252
0.000236644
0.000234078
0.000231554
0.000229072
0.000226631
0.000224231
0.000221871
0.000219552
0.000217273
0.000215034
0.000212835
0.000210677
0.000208561
0.000206486
0.000204453
0.000202465
0.000200521
0.000198625
0.000196776
0.000194977
0.00019323
0.000191533
0.000189889
0.000188295
0.000186751
0.00018525
0.000183796
0.00018236
0.000180997
0.000179513
0.000178389
0.000176294
0.00017597
0.000172991
0.000172129
1.28727e-05
7.40501e-05
0.000174292
0.000251889
0.0003037
0.000333433
0.000344306
0.000341502
0.000328911
0.000310023
0.000290691
0.000278244
0.000275979
0.000282395
0.000292432
0.00030297
0.000315427
0.000332053
0.000353321
0.000378185
0.000405319
0.000433398
0.000471164
0.000517306
0.000562767
0.000606779
0.000649766
0.000693342
0.000732646
0.000763915
0.000788912
0.000808729
0.000824438
0.000836902
0.000846901
0.000855213
0.000862536
0.000869515
0.000876688
0.00088441
0.00089279
0.000901704
0.000910913
0.000920182
0.000929332
0.000938244
0.000946841
0.000955077
0.000962913
0.000970323
0.000977284
0.000983766
0.000989766
0.000995277
0.0010003
0.00100483
0.00100887
0.00101241
0.00101547
0.00101803
0.0010201
0.00102167
0.00102275
0.0010233
0.00102345
0.00102317
0.00102238
0.00102113
0.00101945
0.00101733
0.0010148
0.00101186
0.00100852
0.00100481
0.00100073
0.000996303
0.000991539
0.000986456
0.000981066
0.000975386
0.00096943
0.000963214
0.000956754
0.000950063
0.000943158
0.000936053
0.000928763
0.000921302
0.000913684
0.000905921
0.000898027
0.000890012
0.000881885
0.000873655
0.000865329
0.000856919
0.000848435
0.000839894
0.000831312
0.000822703
0.000814077
0.000805444
0.00079681
0.000788184
0.000779574
0.000770985
0.000762424
0.000753899
0.000745413
0.000736972
0.000728583
0.000720251
0.00071198
0.000703774
0.000695637
0.000687572
0.000679582
0.000671671
0.000663841
0.000656094
0.000648432
0.000640857
0.000633371
0.000625976
0.000618674
0.000611463
0.000604346
0.000597322
0.000590392
0.000583557
0.000576816
0.000570172
0.000563622
0.000557159
0.000550783
0.000544497
0.000538302
0.0005322
0.000526189
0.00052027
0.000514441
0.000508702
0.000503052
0.000497489
0.000492013
0.000486622
0.000481315
0.000476091
0.000470949
0.000465888
0.000460907
0.000456004
0.000451178
0.000446429
0.000441755
0.000437155
0.000432628
0.000428173
0.000423789
0.000419474
0.000415227
0.000411047
0.000406931
0.000402877
0.000398883
0.000394946
0.000391061
0.000387223
0.000383427
0.000379662
0.000375918
0.000372179
0.000368423
0.00036463
0.000360728
0.00035675
0.00035233
0.000348029
0.000341571
0.00033042
2.17684e-05
0.000106428
0.000220249
0.000312862
0.000375565
0.000412572
0.000428019
0.00042841
0.000418477
0.000405169
0.000397032
0.000396157
0.000405234
0.000422252
0.000444803
0.000472355
0.00050551
0.000544641
0.000588944
0.000650794
0.000724463
0.000804091
0.000888309
0.000958965
0.00102139
0.00107751
0.00112793
0.00117284
0.00121212
0.00124602
0.00127527
0.00130061
0.00132273
0.00134228
0.00135981
0.00137583
0.00139076
0.00140492
0.00141858
0.00143193
0.00144509
0.00145814
0.0014711
0.00148395
0.00149664
0.0015091
0.00152123
0.00153293
0.00154412
0.00155472
0.00156467
0.00157395
0.00158252
0.00159038
0.00159752
0.00160392
0.0016096
0.00161453
0.00161873
0.00162219
0.00162492
0.00162689
0.00162805
0.00162849
0.00162836
0.00162745
0.00162583
0.00162351
0.00162051
0.00161685
0.00161256
0.00160764
0.00160212
0.00159602
0.00158936
0.00158217
0.00157447
0.00156627
0.00155761
0.0015485
0.00153897
0.00152905
0.00151875
0.00150809
0.00149711
0.00148582
0.00147425
0.00146242
0.00145034
0.00143805
0.00142555
0.00141287
0.00140003
0.00138703
0.0013739
0.00136065
0.00134731
0.00133388
0.00132039
0.00130687
0.00129331
0.00127974
0.00126617
0.00125262
0.00123908
0.00122559
0.00121214
0.00119874
0.0011854
0.00117214
0.00115896
0.00114586
0.00113286
0.00111996
0.00110717
0.00109449
0.00108192
0.00106948
0.00105716
0.00104497
0.00103292
0.00102099
0.00100921
0.000997563
0.000986059
0.000974697
0.00096348
0.000952407
0.000941479
0.000930698
0.000920064
0.000909576
0.000899231
0.000889026
0.000878959
0.000869033
0.000859247
0.000849602
0.000840098
0.000830735
0.000821511
0.000812425
0.000803475
0.00079466
0.000785978
0.000777427
0.000769006
0.000760712
0.000752545
0.000744502
0.000736581
0.00072878
0.000721099
0.000713534
0.000706085
0.000698748
0.000691523
0.000684408
0.0006774
0.000670496
0.000663696
0.000656996
0.000650393
0.000643884
0.000637464
0.000631129
0.000624873
0.000618688
0.000612565
0.00060649
0.000600449
0.000594419
0.000588372
0.000582271
0.00057605
0.000569655
0.000562904
0.000555743
0.000547523
0.000531426
2.69683e-05
0.000122007
0.000241117
0.000357857
0.0004359
0.00048308
0.000506585
0.000514996
0.000516536
0.000517472
0.00052426
0.000540295
0.0005662
0.000601026
0.000643992
0.000695117
0.000755027
0.000838271
0.000933791
0.00103
0.001119
0.00120338
0.00128274
0.00135545
0.00142223
0.00148365
0.00154013
0.001592
0.00163961
0.00168339
0.00172383
0.00176141
0.00179655
0.00182963
0.00186097
0.00189081
0.00191936
0.00194674
0.00197307
0.0019984
0.00202276
0.00204617
0.00206861
0.00209008
0.00211054
0.00212997
0.00214834
0.00216562
0.00218178
0.0021968
0.00221067
0.0022234
0.00223499
0.00224546
0.00225483
0.00226311
0.00227033
0.0022765
0.00228162
0.00228573
0.00228882
0.00229087
0.00229179
0.00229188
0.002291
0.00228912
0.00228629
0.00228252
0.00227783
0.00227225
0.00226581
0.00225852
0.00225042
0.00224155
0.00223192
0.00222156
0.00221052
0.00219882
0.00218649
0.00217356
0.00216007
0.00214604
0.0021315
0.00211649
0.00210104
0.00208518
0.00206894
0.00205234
0.00203542
0.00201821
0.00200073
0.001983
0.00196506
0.00194693
0.00192862
0.00191017
0.00189159
0.00187291
0.00185415
0.00183535
0.0018165
0.00179764
0.00177879
0.00175996
0.00174116
0.00172241
0.00170372
0.00168511
0.00166659
0.00164817
0.00162987
0.00161168
0.00159362
0.00157571
0.00155794
0.00154032
0.00152287
0.00150558
0.00148846
0.00147152
0.00145476
0.00143819
0.0014218
0.00140561
0.00138961
0.0013738
0.00135819
0.00134278
0.00132757
0.00131255
0.00129774
0.00128312
0.00126871
0.00125448
0.00124045
0.00122661
0.00121296
0.00119951
0.00118624
0.00117317
0.00116029
0.00114759
0.00113508
0.00112275
0.00111061
0.00109864
0.00108685
0.00107523
0.00106378
0.0010525
0.00104139
0.00103044
0.00101965
0.00100902
0.000998548
0.000988227
0.000978056
0.000968033
0.000958154
0.000948418
0.00093882
0.000929357
0.000920025
0.00091082
0.000901736
0.000892768
0.000883908
0.000875146
0.000866472
0.000857869
0.00084932
0.0008408
0.000832274
0.000823698
0.000815006
0.000806127
0.000796896
0.000787167
0.000777211
0.000757426
3.07977e-05
0.000135318
0.000261511
0.000392487
0.000488774
0.000550386
0.000588098
0.000611464
0.000629133
0.000648356
0.000674382
0.000709867
0.000755555
0.000811723
0.000878759
0.000969131
0.00107416
0.00117584
0.00127504
0.00137055
0.00146126
0.00154727
0.00162853
0.001705
0.00177698
0.00184481
0.00190884
0.00196941
0.00202683
0.00208145
0.00213358
0.00218351
0.0022315
0.00227775
0.00232242
0.00236564
0.00240749
0.00244803
0.00248729
0.00252528
0.00256199
0.00259741
0.0026315
0.00266424
0.00269558
0.00272548
0.00275391
0.00278082
0.00280618
0.00282995
0.0028521
0.00287262
0.00289149
0.0029087
0.00292423
0.0029381
0.0029503
0.00296084
0.00296973
0.002977
0.00298265
0.00298673
0.00298916
0.00299006
0.0029896
0.00298763
0.00298428
0.00297958
0.00297358
0.00296633
0.00295788
0.00294829
0.00293761
0.00292588
0.00291316
0.0028995
0.00288493
0.00286952
0.0028533
0.00283631
0.0028186
0.0028002
0.00278117
0.00276154
0.00274135
0.00272064
0.00269946
0.00267783
0.0026558
0.0026334
0.00261067
0.00258764
0.00256435
0.00254082
0.00251708
0.00249318
0.00246912
0.00244495
0.00242069
0.00239637
0.00237201
0.00234763
0.00232327
0.00229894
0.00227465
0.00225044
0.00222631
0.00220228
0.00217836
0.00215458
0.00213095
0.00210747
0.00208415
0.00206102
0.00203808
0.00201533
0.00199279
0.00197047
0.00194836
0.00192648
0.00190483
0.00188341
0.00186224
0.00184131
0.00182062
0.00180018
0.00177999
0.00176006
0.00174037
0.00172094
0.00170177
0.00168284
0.00166416
0.00164573
0.00162755
0.00160961
0.00159192
0.00157447
0.00155726
0.00154029
0.00152356
0.00150707
0.00149081
0.00147479
0.00145899
0.00144341
0.00142806
0.00141293
0.00139801
0.00138331
0.00136881
0.00135452
0.00134043
0.00132654
0.00131285
0.00129935
0.00128604
0.00127291
0.00125996
0.0012472
0.00123461
0.00122218
0.00120993
0.00119783
0.00118589
0.00117409
0.00116244
0.00115091
0.00113949
0.00112818
0.00111695
0.00110576
0.00109459
0.00108339
0.0010721
0.00106062
0.00104882
0.00103661
0.00102443
0.00100197
3.23485e-05
0.000142505
0.000273982
0.00040988
0.000527825
0.000609041
0.000665077
0.000706966
0.000743914
0.000783173
0.000829797
0.00088674
0.000955613
0.00104782
0.00115473
0.00126129
0.00136737
0.00147073
0.0015708
0.00166717
0.00175958
0.00184803
0.00193261
0.00201348
0.00209088
0.00216509
0.00223638
0.00230503
0.00237127
0.00243535
0.00249749
0.00255785
0.00261659
0.00267382
0.00272964
0.00278409
0.00283721
0.00288901
0.00293949
0.00298863
0.0030364
0.00308276
0.00312767
0.00317108
0.00321294
0.00325319
0.00329179
0.00332867
0.00336379
0.00339711
0.00342858
0.00345816
0.00348581
0.00351152
0.00353524
0.00355696
0.00357667
0.00359435
0.00361001
0.00362363
0.00363523
0.00364481
0.00365239
0.00365801
0.00366166
0.00366328
0.00366319
0.0036612
0.00365743
0.00365191
0.00364471
0.00363587
0.00362545
0.00361352
0.00360014
0.00358537
0.00356928
0.00355194
0.00353341
0.00351376
0.00349306
0.00347137
0.00344877
0.00342531
0.00340106
0.00337609
0.00335044
0.00332419
0.00329738
0.00327008
0.00324232
0.00321417
0.00318567
0.00315685
0.00312777
0.00309846
0.00306896
0.00303931
0.00300955
0.0029797
0.0029498
0.00291988
0.00288997
0.00286008
0.00283026
0.00280052
0.00277088
0.00274136
0.00271198
0.00268276
0.00265372
0.00262486
0.00259621
0.00256778
0.00253957
0.00251161
0.00248389
0.00245643
0.00242923
0.00240231
0.00237567
0.00234931
0.00232324
0.00229747
0.00227199
0.00224681
0.00222193
0.00219735
0.00217308
0.00214911
0.00212545
0.00210209
0.00207903
0.00205628
0.00203381
0.00201165
0.00198977
0.0019682
0.00194691
0.00192591
0.0019052
0.00188477
0.00186462
0.00184476
0.00182516
0.00180584
0.00178678
0.00176798
0.00174945
0.00173116
0.00171313
0.00169535
0.00167781
0.00166051
0.00164344
0.00162661
0.00161
0.00159361
0.00157745
0.0015615
0.00154576
0.00153022
0.00151489
0.00149975
0.00148479
0.00147002
0.00145542
0.00144098
0.00142669
0.00141252
0.00139846
0.00138448
0.00137054
0.00135659
0.00134257
0.0013284
0.00131393
0.00129918
0.00128417
0.00125993
3.27977e-05
0.000144135
0.000275338
0.000409479
0.000539409
0.000642711
0.000719777
0.000781094
0.00083678
0.000894517
0.000961946
0.00105376
0.00116327
0.00128497
0.00140052
0.00151178
0.0016196
0.00172418
0.00182544
0.00192332
0.00201783
0.00210905
0.00219712
0.00228222
0.00236459
0.00244443
0.00252198
0.00259745
0.00267102
0.00274287
0.00281314
0.00288194
0.00294938
0.00301551
0.00308038
0.003144
0.00320637
0.00326749
0.00332732
0.00338582
0.00344294
0.00349863
0.00355284
0.00360549
0.00365652
0.00370587
0.00375348
0.00379927
0.00384319
0.00388518
0.00392519
0.00396316
0.00399904
0.0040328
0.00406439
0.00409379
0.00412097
0.0041459
0.00416857
0.00418897
0.0042071
0.00422295
0.00423653
0.00424786
0.00425695
0.00426382
0.00426854
0.00427099
0.00427143
0.00426978
0.00426611
0.00426047
0.00425291
0.00424348
0.00423225
0.00421927
0.00420463
0.00418837
0.00417058
0.00415131
0.00413064
0.00410865
0.00408541
0.00406098
0.00403544
0.00400886
0.00398132
0.00395288
0.00392361
0.00389357
0.00386285
0.00383149
0.00379955
0.00376711
0.00373421
0.00370091
0.00366727
0.00363334
0.00359916
0.00356478
0.00353026
0.00349562
0.00346092
0.00342618
0.00339144
0.00335675
0.00332212
0.00328758
0.00325316
0.00321889
0.00318479
0.00315087
0.00311717
0.00308369
0.00305045
0.00301748
0.00298477
0.00295234
0.0029202
0.00288837
0.00285685
0.00282565
0.00279478
0.00276423
0.00273402
0.00270415
0.00267462
0.00264544
0.0026166
0.00258812
0.00255998
0.00253218
0.00250474
0.00247764
0.00245088
0.00242446
0.00239838
0.00237264
0.00234724
0.00232217
0.00229743
0.00227301
0.00224893
0.00222516
0.00220171
0.00217857
0.00215575
0.00213322
0.002111
0.00208907
0.00206744
0.00204609
0.00202503
0.00200424
0.00198373
0.00196348
0.00194351
0.00192379
0.00190433
0.00188512
0.00186616
0.00184744
0.00182896
0.0018107
0.00179267
0.00177485
0.00175723
0.00173981
0.00172256
0.00170547
0.00168852
0.00167168
0.0016549
0.00163814
0.00162133
0.0016044
0.00158721
0.00156981
0.00155188
0.00152574
3.22402e-05
0.000141211
0.000268941
0.00039808
0.000521951
0.000634094
0.000727864
0.000808889
0.00089172
0.000986899
0.00109599
0.00122058
0.00135692
0.00148442
0.00160471
0.00171973
0.00183044
0.00193722
0.00204037
0.00214026
0.0022371
0.00233108
0.0024224
0.00251128
0.00259791
0.00268249
0.00276523
0.00284629
0.00292582
0.00300395
0.0030808
0.00315643
0.00323091
0.00330427
0.00337652
0.00344766
0.00351766
0.00358649
0.0036541
0.00372043
0.00378541
0.00384899
0.00391107
0.00397159
0.00403047
0.00408764
0.004143
0.00419649
0.00424804
0.00429757
0.00434503
0.00439035
0.00443347
0.00447434
0.00451292
0.00454916
0.00458304
0.00461452
0.00464359
0.00467021
0.00469439
0.00471612
0.0047354
0.00475223
0.00476663
0.00477862
0.00478823
0.00479546
0.0048004
0.00480296
0.00480335
0.00480154
0.00479757
0.00479151
0.00478341
0.00477333
0.00476133
0.00474747
0.00473183
0.00471447
0.00469547
0.00467488
0.00465279
0.00462927
0.00460438
0.00457821
0.00455082
0.0045223
0.0044927
0.00446211
0.00443058
0.0043982
0.00436502
0.00433111
0.00429654
0.00426137
0.00422567
0.00418948
0.00415287
0.0041159
0.00407861
0.00404106
0.00400331
0.00396539
0.00392734
0.00388922
0.00385106
0.0038129
0.00377477
0.0037367
0.00369873
0.00366089
0.0036232
0.00358568
0.00354837
0.00351127
0.00347442
0.00343782
0.0034015
0.00336546
0.00332973
0.00329431
0.00325922
0.00322446
0.00319004
0.00315596
0.00312225
0.00308889
0.0030559
0.00302327
0.00299102
0.00295913
0.00292762
0.00289647
0.0028657
0.0028353
0.00280527
0.0027756
0.0027463
0.00271737
0.0026888
0.0026606
0.00263274
0.00260525
0.0025781
0.00255131
0.00252485
0.00249873
0.00247295
0.0024475
0.00242238
0.00239758
0.00237309
0.00234892
0.00232506
0.0023015
0.00227824
0.00225528
0.0022326
0.00221021
0.00218811
0.00216627
0.00214471
0.0021234
0.00210235
0.00208155
0.00206098
0.00204064
0.0020205
0.00200055
0.00198076
0.0019611
0.00194153
0.00192201
0.00190246
0.0018828
0.00186292
0.00184286
0.00182211
0.00179379
3.08713e-05
0.000135126
0.000258141
0.000383439
0.0005054
0.000621463
0.000732077
0.000840968
0.000955712
0.00108146
0.00121946
0.00136915
0.00151143
0.00164341
0.00176767
0.0018861
0.00199982
0.00210947
0.00221544
0.00231793
0.00241735
0.00251406
0.00260838
0.00270054
0.00279079
0.00287933
0.00296633
0.00305195
0.00313633
0.00321958
0.00330177
0.00338297
0.00346322
0.00354252
0.00362086
0.00369823
0.00377459
0.00384987
0.00392401
0.00399694
0.00406859
0.00413886
0.00420767
0.00427492
0.00434053
0.00440441
0.00446646
0.00452661
0.00458476
0.00464084
0.00469477
0.00474649
0.00479593
0.00484303
0.00488773
0.00493
0.00496979
0.00500706
0.0050418
0.00507397
0.00510356
0.00513057
0.00515499
0.00517683
0.00519609
0.0052128
0.00522696
0.00523862
0.00524779
0.00525452
0.00525884
0.00526077
0.00526043
0.00525782
0.00525301
0.00524604
0.00523699
0.00522591
0.00521287
0.00519793
0.00518117
0.00516265
0.00514245
0.00512063
0.00509727
0.00507245
0.00504622
0.00501868
0.00498988
0.0049599
0.00492882
0.0048967
0.0048636
0.0048296
0.00479477
0.00475917
0.00472286
0.00468591
0.00464837
0.00461031
0.00457179
0.00453287
0.00449358
0.004454
0.00441416
0.00437411
0.0043339
0.00429357
0.00425317
0.00421272
0.00417227
0.00413186
0.00409151
0.00405125
0.00401111
0.00397113
0.00393132
0.0038917
0.00385231
0.00381315
0.00377425
0.00373562
0.00369729
0.00365925
0.00362152
0.00358413
0.00354706
0.00351034
0.00347397
0.00343796
0.00340231
0.00336702
0.00333211
0.00329757
0.0032634
0.00322961
0.00319619
0.00316315
0.00313049
0.00309821
0.0030663
0.00303477
0.00300361
0.00297282
0.0029424
0.00291235
0.00288266
0.00285333
0.00282436
0.00279574
0.00276746
0.00273954
0.00271195
0.0026847
0.00265779
0.0026312
0.00260494
0.002579
0.00255337
0.00252806
0.00250305
0.00247834
0.00245393
0.00242981
0.00240597
0.0023824
0.00235909
0.00233602
0.0023132
0.00229058
0.00226814
0.00224587
0.0022237
0.00220159
0.00217948
0.00215728
0.00213488
0.0021123
0.002089
0.00205834
2.93199e-05
0.000128803
0.00024826
0.000372497
0.000497117
0.000621017
0.000745618
0.000874894
0.00101209
0.00115927
0.00131659
0.00147836
0.00162616
0.00176261
0.00189071
0.00201247
0.00212917
0.00224161
0.00235035
0.00245577
0.00255816
0.00265773
0.00275491
0.00285005
0.00294344
0.00303532
0.00312589
0.0032153
0.00330369
0.00339115
0.00347777
0.00356358
0.00364862
0.00373287
0.00381632
0.00389892
0.00398063
0.00406137
0.00414106
0.00421963
0.00429697
0.00437298
0.00444756
0.00452062
0.00459204
0.00466173
0.00472959
0.00479551
0.00485941
0.0049212
0.0049808
0.00503812
0.0050931
0.00514567
0.00519577
0.00524335
0.00528836
0.00533078
0.00537055
0.00540767
0.00544211
0.00547385
0.00550291
0.00552927
0.00555294
0.00557394
0.00559229
0.00560802
0.00562114
0.00563169
0.00563972
0.00564527
0.00564838
0.0056491
0.0056475
0.00564362
0.00563753
0.00562928
0.00561894
0.00560658
0.00559226
0.00557604
0.00555801
0.00553823
0.00551677
0.00549371
0.00546912
0.00544307
0.00541564
0.00538689
0.00535689
0.00532572
0.00529344
0.00526012
0.00522584
0.00519064
0.00515461
0.00511781
0.00508029
0.00504212
0.00500336
0.00496406
0.00492429
0.0048841
0.00484353
0.00480264
0.00476147
0.00472008
0.00467851
0.00463679
0.00459497
0.00455308
0.00451117
0.00446926
0.0044274
0.0043856
0.0043439
0.00430232
0.0042609
0.00421965
0.00417859
0.00413775
0.00409715
0.00405679
0.00401671
0.0039769
0.00393739
0.00389819
0.0038593
0.00382074
0.00378252
0.00374464
0.0037071
0.00366992
0.0036331
0.00359664
0.00356054
0.00352481
0.00348945
0.00345447
0.00341985
0.00338561
0.00335174
0.00331824
0.00328511
0.00325235
0.00321996
0.00318793
0.00315627
0.00312496
0.00309402
0.00306343
0.0030332
0.00300331
0.00297377
0.00294457
0.00291571
0.00288718
0.00285899
0.00283112
0.00280358
0.00277635
0.00274944
0.00272284
0.00269653
0.00267052
0.00264478
0.00261932
0.0025941
0.00256911
0.00254433
0.00251972
0.00249525
0.00247085
0.00244646
0.00242201
0.00239738
0.00237258
0.00234708
0.00231426
2.76258e-05
0.000122202
0.000238229
0.00036178
0.000489214
0.000619901
0.000756099
0.000899587
0.00105205
0.00121399
0.00138591
0.00155187
0.00170366
0.00184397
0.00197558
0.00210045
0.00221995
0.00233501
0.00244628
0.00255427
0.00265935
0.00276183
0.00286198
0.00295999
0.00305628
0.00315114
0.00324481
0.00333748
0.00342929
0.00352034
0.00361071
0.00370044
0.00378954
0.003878
0.0039658
0.00405288
0.00413917
0.0042246
0.00430906
0.00439247
0.00447472
0.0045557
0.00463528
0.00471337
0.00478984
0.00486459
0.0049375
0.00500847
0.00507739
0.00514418
0.00520874
0.00527098
0.00533084
0.00538823
0.0054431
0.00549539
0.00554505
0.00559203
0.00563631
0.00567785
0.00571663
0.00575265
0.00578589
0.00581635
0.00584405
0.00586898
0.00589118
0.00591066
0.00592745
0.00594158
0.0059531
0.00596204
0.00596844
0.00597237
0.00597386
0.00597299
0.00596982
0.00596439
0.00595677
0.00594702
0.00593521
0.00592141
0.00590569
0.00588811
0.00586876
0.0058477
0.00582501
0.00580075
0.005775
0.00574783
0.00571931
0.00568951
0.00565849
0.00562633
0.00559309
0.00555884
0.00552365
0.00548757
0.00545068
0.00541303
0.00537469
0.00533571
0.00529615
0.00525607
0.00521551
0.00517454
0.00513319
0.00509152
0.00504957
0.00500738
0.00496501
0.00492248
0.00487984
0.00483712
0.00479436
0.00475159
0.00470885
0.00466615
0.00462354
0.00458103
0.00453865
0.00449643
0.00445438
0.00441252
0.00437088
0.00432947
0.00428831
0.0042474
0.00420677
0.00416643