/*--------------------------------*- C++ -*----------------------------------*\
  =========                 |
  \\      /  F ield         | OpenFOAM: The Open Source CFD Toolbox
   \\    /   O peration     | Website:  https://openfoam.org
    \\  /    A nd           | Version:  8
     \\/     M anipulation  |
\*---------------------------------------------------------------------------*/
FoamFile
{
    version     2.0;
    format      ascii;
    class       volScalarField;
    location    "1400";
    object      k;
}
// * * * * * * * * * * * * * * * * * * * * * * * * * * * * * * * * * * * * * //

dimensions      [0 2 -2 0 0 0 0];

internalField   nonuniform List<scalar> 
12225
(
0.292982
2.05641
1.94622
1.81309
1.72408
1.63878
2.25709
2.44639
2.98776
3.31189
2.91577
2.67053
2.26408
2.64256
2.6677
2.93436
2.78138
2.18719
0.195269
0.289613
0.350332
0.424835
0.464494
0.515351
0.581632
0.59639
0.637342
0.690973
0.752045
0.783331
0.792388
0.807087
0.812343
0.851986
0.875714
0.882081
0.197786
0.204082
0.211406
0.217888
0.223261
0.226535
0.232939
0.233825
0.236315
0.239333
0.241815
0.250184
0.25452
0.259801
0.261912
0.26687
0.270396
0.278362
0.198589
0.198606
0.199301
0.199894
0.200468
0.200183
0.200008
0.199133
0.197967
0.196889
0.195753
0.195047
0.194113
0.19315
0.191799
0.19063
0.189217
0.188251
0.199201
0.198057
0.19738
0.19667
0.196134
0.195387
0.194829
0.193985
0.193229
0.1923
0.191448
0.190506
0.189602
0.188563
0.187547
0.186384
0.185292
0.184114
0.199376
0.198132
0.197125
0.196095
0.195251
0.194351
0.19362
0.192793
0.192072
0.191269
0.190537
0.189742
0.189003
0.188192
0.187435
0.186594
0.185821
0.184985
0.199395
0.198172
0.197089
0.196009
0.195049
0.194098
0.193254
0.192413
0.191647
0.190877
0.19016
0.189437
0.188756
0.188064
0.187409
0.186736
0.186104
0.185461
0.19939
0.198177
0.197067
0.195988
0.194993
0.19403
0.193143
0.192287
0.191489
0.190716
0.189988
0.189281
0.18861
0.187954
0.187329
0.186715
0.18613
0.185557
0.199383
0.198176
0.197051
0.195974
0.194965
0.193998
0.193092
0.192227
0.191411
0.190631
0.189892
0.189185
0.188512
0.187866
0.187249
0.186656
0.186089
0.185543
0.199379
0.198173
0.197038
0.19596
0.194942
0.193973
0.193057
0.192185
0.191359
0.190573
0.189825
0.189113
0.188435
0.187789
0.187172
0.186583
0.18602
0.185483
0.199376
0.198169
0.197028
0.195947
0.194923
0.193951
0.193029
0.192154
0.191321
0.19053
0.189777
0.18906
0.188377
0.187727
0.187107
0.186516
0.18595
0.185413
0.199375
0.198166
0.197021
0.195937
0.194909
0.193934
0.193008
0.192128
0.191292
0.190497
0.189739
0.189019
0.188332
0.187679
0.187054
0.18646
0.185891
0.185351
0.199374
0.198163
0.197016
0.195929
0.194898
0.19392
0.192991
0.192108
0.191269
0.190471
0.18971
0.188986
0.188296
0.18764
0.187013
0.186415
0.185844
0.1853
0.199374
0.198162
0.197012
0.195923
0.19489
0.19391
0.192978
0.192093
0.191251
0.19045
0.189687
0.188961
0.188269
0.187609
0.18698
0.18638
0.185807
0.185261
0.199373
0.19816
0.19701
0.195919
0.194884
0.193902
0.192969
0.192081
0.191238
0.190435
0.18967
0.188942
0.188248
0.187587
0.186956
0.186354
0.185779
0.185231
0.199373
0.19816
0.197009
0.195917
0.194881
0.193897
0.192963
0.192074
0.191229
0.190425
0.189659
0.18893
0.188235
0.187572
0.18694
0.186337
0.185762
0.185212
0.199373
0.198159
0.197008
0.195916
0.19488
0.193896
0.192961
0.192072
0.191226
0.190422
0.189655
0.188926
0.18823
0.187567
0.186935
0.186331
0.185755
0.185206
0.199373
0.198159
0.197008
0.195916
0.194879
0.193895
0.192959
0.19207
0.191224
0.190419
0.189652
0.188922
0.188226
0.187562
0.186929
0.186326
0.185749
0.185199
0.199373
0.198159
0.197008
0.195915
0.194879
0.193894
0.192958
0.192068
0.191222
0.190416
0.189649
0.188918
0.188222
0.187557
0.186924
0.18632
0.185743
0.185192
0.199373
0.19816
0.197009
0.195917
0.19488
0.193896
0.19296
0.192071
0.191225
0.19042
0.189653
0.188922
0.188225
0.187561
0.186928
0.186324
0.185747
0.185197
0.199374
0.198161
0.19701
0.195919
0.194884
0.1939
0.192966
0.192077
0.191232
0.190428
0.189662
0.188932
0.188236
0.187573
0.18694
0.186337
0.185761
0.185211
0.199374
0.198162
0.197013
0.195923
0.194889
0.193907
0.192974
0.192087
0.191243
0.19044
0.189675
0.188947
0.188253
0.187591
0.18696
0.186357
0.185783
0.185234
0.199375
0.198164
0.197016
0.195929
0.194896
0.193916
0.192985
0.1921
0.191259
0.190458
0.189696
0.188971
0.188279
0.18762
0.186992
0.186392
0.185821
0.185275
0.199377
0.198168
0.197021
0.195937
0.194905
0.193929
0.193001
0.192122
0.191287
0.190494
0.18974
0.189024
0.188341
0.187691
0.187071
0.186479
0.185914
0.185372
0.199391
0.198168
0.197015
0.19594
0.194915
0.19396
0.193051
0.192201
0.191393
0.190633
0.189909
0.189223
0.188565
0.187937
0.187331
0.186749
0.186188
0.185644
0.199452
0.198089
0.196946
0.195946
0.195018
0.194201
0.193406
0.192689
0.191982
0.19133
0.190679
0.19006
0.189437
0.188826
0.188218
0.187613
0.187018
0.18642
0.199502
0.197641
0.196846
0.196513
0.19626
0.196046
0.195753
0.19547
0.195081
0.194691
0.194192
0.193674
0.193061
0.192413
0.191728
0.19099
0.190277
0.189484
0.198344
0.197558
0.199384
0.203022
0.206312
0.208727
0.210844
0.212183
0.213326
0.213905
0.214374
0.214476
0.214455
0.214399
0.214361
0.214277
0.214326
0.214206
0.194056
0.208612
0.242478
0.274555
0.306013
0.332947
0.357918
0.37711
0.396364
0.410889
0.426652
0.43872
0.452999
0.464227
0.478208
0.489523
0.50393
0.515654
0.304296
0.724966
1.1335
1.35388
1.46242
1.51612
1.52042
1.5115
1.4918
1.46142
1.42909
1.39697
1.36623
1.33758
1.31117
1.28727
1.26546
1.24608
1.72627e-08
4.2647e-07
2.17429e-06
8.55581e-06
2.86143e-05
8.71976e-05
0.000228247
0.000454346
0.000737304
0.00103611
0.00130504
0.00151394
0.00165432
0.00170668
0.00168519
0.00161622
0.00148591
0.00126751
0.00107908
0.000917122
0.000763749
0.000614616
0.000470791
0.00033725
0.000219
0.000127959
6.79641e-05
3.43595e-05
1.75862e-05
9.61492e-06
5.85026e-06
4.45588e-06
4.87342e-06
1.03943e-05
2.27053e-05
0.000136921
0.000319746
0.000704824
0.001066
0.00117099
0.00107604
0.000863897
0.000714644
0.0006904
0.000752889
0.000996209
0.00131845
0.0025484
0.00571769
0.0172865
0.0481035
0.0893474
0.125242
0.136439
0.137366
0.127019
0.113831
0.138062
0.131677
0.142733
0.167546
0.177902
0.144673
0.170979
0.174105
0.184633
0.192407
0.200413
0.208608
0.216128
0.223994
0.231389
0.238931
0.246216
0.253519
0.260676
0.267795
0.274815
0.281772
0.288648
0.295451
0.302177
0.308825
0.315392
0.321876
0.328273
0.334581
0.340791
0.346902
0.352905
0.358793
0.36456
0.370195
0.37569
0.381035
0.386219
0.391237
0.39608
0.400759
0.405291
0.409736
0.414064
0.41824
0.422281
0.426186
0.429945
0.433563
0.437029
0.440347
0.443509
0.446514
0.44936
0.452042
0.454561
0.456912
0.459097
0.461108
0.462951
0.464618
0.466115
0.467434
0.468582
0.469552
0.470351
0.470972
0.471422
0.471696
0.4718
0.471766
0.471643
0.471193
0.470817
0.469924
0.469157
0.468174
0.467168
0.465994
0.464648
0.463016
0.461297
0.459409
0.45741
0.455288
0.453053
0.450712
0.448265
0.445724
0.443086
0.440359
0.437546
0.434656
0.431696
0.428669
0.425582
0.422446
0.419267
0.416059
0.412829
0.409588
0.406343
0.403103
0.399874
0.39666
0.393463
0.390288
0.387138
0.384021
0.38094
0.377904
0.374916
0.371977
0.369084
0.366222
0.363371
0.36048
0.357463
0.354205
0.350374
0.34541
0.330478
8.09846e-08
2.28723e-06
1.54311e-05
6.62397e-05
0.000245031
0.000713321
0.00165979
0.00301314
0.00458949
0.00621454
0.00770421
0.0089331
0.00984182
0.0104251
0.0106996
0.0106658
0.0104903
0.0101626
0.00957996
0.0087814
0.0077709
0.00659603
0.00531696
0.00401859
0.00278099
0.00183616
0.00116194
0.000716752
0.000433956
0.000264802
0.00016945
0.000126388
9.57157e-05
0.000162486
0.000205112
0.00144749
0.00327592
0.00676399
0.00984058
0.0115731
0.0115381
0.0111141
0.010959
0.0120823
0.0155539
0.0207177
0.029745
0.0456195
0.0714158
0.0963445
0.122383
0.143756
0.160569
0.172979
0.182654
0.195281
0.21292
0.229273
0.246125
0.265479
0.283571
0.302157
0.319603
0.34
0.35853
0.376979
0.395395
0.413281
0.431181
0.448738
0.466236
0.48354
0.500765
0.517874
0.534908
0.551862
0.568748
0.585566
0.602319
0.619005
0.63562
0.652162
0.668624
0.685003
0.701289
0.717476
0.733554
0.749512
0.765341
0.781023
0.796549
0.811902
0.827067
0.842028
0.856763
0.87125
0.885461
0.899367
0.912931
0.926116
0.938891
0.951362
0.963608
0.975585
0.987307
0.998753
1.00992
1.02079
1.03136
1.04162
1.05155
1.06116
1.07042
1.07933
1.08789
1.09608
1.10389
1.11132
1.11837
1.12502
1.13127
1.13711
1.14254
1.14755
1.15214
1.15631
1.16006
1.16338
1.16627
1.16875
1.17079
1.17244
1.17354
1.17431
1.17465
1.17481
1.17467
1.1742
1.1736
1.17257
1.17115
1.16936
1.16722
1.16473
1.16191
1.15875
1.15528
1.1515
1.14741
1.14303
1.13837
1.13345
1.12826
1.12283
1.11717
1.1113
1.10525
1.09904
1.09268
1.0862
1.07961
1.07294
1.06619
1.05937
1.05248
1.04554
1.03855
1.03154
1.02451
1.01748
1.01045
1.00342
0.996368
0.989262
0.982026
0.97453
0.966577
0.957804
0.946349
0.920967
2.06996e-07
6.16772e-06
4.69001e-05
0.000217154
0.000745295
0.00193941
0.00394866
0.00628916
0.00864251
0.0107801
0.0125679
0.0139458
0.0149132
0.0154947
0.0157458
0.0157112
0.0155312
0.0151791
0.0146502
0.0139895
0.0131912
0.0122493
0.0111426
0.00988438
0.00846629
0.00686757
0.00522551
0.00376906
0.00250941
0.00166323
0.00114223
0.000854238
0.000647309
0.000928896
0.00149023
0.00620329
0.013522
0.0217948
0.0278836
0.0314355
0.0327938
0.0350031
0.0416204
0.0562693
0.0733826
0.0911295
0.111159
0.132493
0.152243
0.173185
0.193803
0.214392
0.235533
0.258011
0.28419
0.310593
0.337605
0.367267
0.395202
0.423165
0.450602
0.477653
0.504122
0.53014
0.55546
0.580238
0.604622
0.62857
0.652229
0.67559
0.69874
0.721691
0.744487
0.767143
0.789681
0.812108
0.834433
0.856659
0.878786
0.900811
0.922731
0.94454
0.96623
0.987793
1.00922
1.0305
1.05162
1.07258
1.09335
1.11392
1.13428
1.15442
1.17432
1.19396
1.21335
1.23246
1.25128
1.2698
1.28802
1.30594
1.32354
1.34084
1.35781
1.37443
1.39068
1.40656
1.42204
1.43712
1.45178
1.466
1.47978
1.49311
1.50596
1.51833
1.53021
1.54159
1.55245
1.5628
1.57261
1.58188
1.5906
1.59877
1.60638
1.61342
1.61989
1.62579
1.63112
1.63586
1.64003
1.64362
1.64663
1.64907
1.65092
1.65223
1.65291
1.65321
1.65306
1.65232
1.6511
1.64934
1.64706
1.64426
1.64097
1.6372
1.63296
1.62825
1.6231
1.61752
1.61152
1.60511
1.59831
1.59113
1.5836
1.57572
1.56752
1.55903
1.55027
1.54127
1.53206
1.52266
1.51311
1.50341
1.4936
1.48367
1.47364
1.46353
1.45335
1.44312
1.43285
1.42257
1.4123
1.40203
1.39177
1.38148
1.37112
1.36059
1.34971
1.33821
1.32419
1.30043
7.79246e-07
2.34529e-05
0.000184395
0.000726518
0.00223658
0.0051773
0.00873901
0.0122103
0.0152283
0.0176171
0.019342
0.020441
0.0210221
0.0211357
0.0210099
0.0206683
0.0201176
0.0194533
0.0187057
0.0178898
0.0170071
0.0160538
0.0150124
0.013863
0.012586
0.011161
0.00961073
0.00799413
0.00648804
0.00498704
0.00391974
0.00286659
0.00295077
0.00443724
0.0109547
0.0248805
0.0388996
0.049995
0.0583401
0.066087
0.075747
0.0885148
0.103746
0.118925
0.134552
0.151278
0.170861
0.19192
0.214468
0.239382
0.265725
0.293959
0.323769
0.355087
0.387571
0.420369
0.453433
0.486489
0.51895
0.551063
0.582637
0.613633
0.644051
0.673902
0.703218
0.732072
0.760544
0.788676
0.816533
0.844155
0.871587
0.898858
0.925995
0.953016
0.979934
1.00676
1.03348
1.06012
1.08665
1.11308
1.1394
1.1656
1.19167
1.21759
1.24336
1.26895
1.29437
1.31959
1.34459
1.36937
1.39391
1.41819
1.4422
1.46593
1.48937
1.51251
1.53533
1.55783
1.57998
1.60179
1.62322
1.64426
1.66489
1.6851
1.70485
1.72413
1.74293
1.76123
1.77901
1.79625
1.81295
1.82908
1.84463
1.85959
1.87395
1.88769
1.90079
1.91326
1.92508
1.93623
1.94672
1.95652
1.96564
1.97407
1.98181
1.98884
1.99518
2.00081
2.00573
2.00995
2.01346
2.01627
2.01839
2.01979
2.02045
2.02062
2.02014
2.01896
2.01713
2.01465
2.01155
2.00783
2.00351
1.99859
1.9931
1.98705
1.98046
1.97334
1.9657
1.95758
1.94898
1.93992
1.93043
1.92052
1.91022
1.89956
1.88856
1.87726
1.8657
1.8539
1.8419
1.82971
1.81737
1.80488
1.79227
1.77955
1.76673
1.75385
1.74092
1.72798
1.71504
1.70213
1.68924
1.67637
1.66351
1.65061
1.63752
1.62406
1.60861
1.58643
2.62326e-06
7.86312e-05
0.000585135
0.00227004
0.00618125
0.0115178
0.016491
0.0204682
0.0232928
0.0250602
0.0259791
0.026242
0.026101
0.025677
0.0249911
0.024182
0.023302
0.022388
0.0214614
0.0205303
0.0195905
0.0186325
0.017638
0.0165846
0.0154465
0.0141943
0.0128259
0.0113896
0.00999313
0.00858513
0.0071436
0.00741936
0.0109355
0.0225034
0.0422555
0.061248
0.0770907
0.0894851
0.100017
0.110416
0.121596
0.133748
0.146875
0.161719
0.17959
0.200328
0.223754
0.249804
0.277938
0.308077
0.339654
0.372579
0.406464
0.441087
0.476132
0.511312
0.546548
0.581637
0.616451
0.650983
0.685153
0.718915
0.752273
0.785234
0.81783
0.850101
0.882094
0.913848
0.945407
0.976804
1.00807
1.03923
1.07031
1.10131
1.13224
1.16311
1.1939
1.22462
1.25525
1.28579
1.31622
1.34653
1.3767
1.40672
1.43657
1.46624
1.4957
1.52495
1.55397
1.58273
1.61122
1.63943
1.66734
1.69493
1.7222
1.74912
1.77568
1.80186
1.82764
1.853
1.87792
1.90238
1.92634
1.9498
1.97273
1.99511
2.01692
2.03814
2.05874
2.07872
2.09805
2.11671
2.1347
2.15198
2.16856
2.18441
2.19953
2.21389
2.22749
2.24031
2.25235
2.26359
2.27403
2.28366
2.29248
2.30049
2.30767
2.31403
2.31957
2.32429
2.32818
2.33126
2.33353
2.33491
2.33548
2.33546
2.33461
2.33297
2.33056
2.32741
2.32353
2.31894
2.31364
2.30766
2.30101
2.29371
2.28578
2.27724
2.2681
2.25839
2.24814
2.23735
2.22607
2.2143
2.20207
2.18941
2.17637
2.16297
2.14925
2.13526
2.12101
2.10654
2.09188
2.07705
2.06207
2.04695
2.03173
2.01641
2.00105
1.98566
1.97028
1.95494
1.93965
1.92443
1.90929
1.89422
1.87913
1.86389
1.84716
1.82543
8.38713e-06
0.000245408
0.00175215
0.00619843
0.0139493
0.0207696
0.0256214
0.0286091
0.0301719
0.030757
0.0306881
0.0302636
0.0294549
0.0284679
0.0273854
0.0262698
0.0251639
0.0240935
0.0230703
0.0220934
0.0211528
0.0202326
0.0193082
0.0183493
0.0173286
0.0161843
0.0148616
0.013313
0.0117061
0.0115098
0.0134843
0.0213599
0.0385164
0.0617936
0.0841884
0.102382
0.115782
0.125641
0.134164
0.143095
0.153339
0.166216
0.182339
0.201611
0.224253
0.249938
0.278098
0.308248
0.339873
0.372743
0.406556
0.441159
0.476368
0.512058
0.548089
0.584346
0.620766
0.657241
0.693699
0.730082
0.766332
0.802406
0.838293
0.873985
0.909492
0.944831
0.980028
1.01511
1.0501
1.08502
1.1199
1.15476
1.18959
1.22441
1.25921
1.29399
1.32874
1.36345
1.39809
1.43266
1.46713
1.50148
1.5357
1.56976
1.60365
1.63734
1.67082
1.70406
1.73704
1.76975
1.80216
1.83425
1.86601
1.89742
1.92845
1.95909
1.98932
2.01911
2.04843
2.07727
2.1056
2.13338
2.16061
2.18725
2.21328
2.23868
2.26342
2.28748
2.31083
2.33347
2.35536
2.37649
2.39683
2.41638
2.43511
2.45301
2.47007
2.48626
2.50157
2.516
2.52953
2.54215
2.55385
2.56463
2.57448
2.5834
2.59138
2.59842
2.60452
2.60969
2.61391
2.61721
2.61958
2.62093
2.62142
2.62113
2.61992
2.61781
2.61483
2.61101
2.60636
2.6009
2.59465
2.58762
2.57984
2.57132
2.56208
2.55215
2.54155
2.53031
2.51844
2.50598
2.49295
2.47937
2.46527
2.45069
2.43566
2.42023
2.40443
2.38831
2.37189
2.35522
2.33833
2.32123
2.30396
2.28652
2.26896
2.2513
2.23357
2.21582
2.19807
2.18038
2.16277
2.14528
2.12792
2.11071
2.09363
2.07658
2.0584
2.03627
2.68457e-05
0.000736005
0.00475295
0.0145331
0.0238446
0.0297975
0.0330723
0.0346169
0.0350559
0.0348213
0.034096
0.0329871
0.0316848
0.0302926
0.0288899
0.0275331
0.0262577
0.0250804
0.0240026
0.0230131
0.0220935
0.0212157
0.0203459
0.0194372
0.0185235
0.0176834
0.017085
0.0171601
0.0190165
0.0246114
0.0369219
0.0577521
0.0814271
0.10358
0.121468
0.134025
0.14264
0.149735
0.157367
0.167589
0.181288
0.198496
0.219272
0.243328
0.270246
0.299357
0.33006
0.361959
0.394797
0.42844
0.46277
0.497722
0.533236
0.569268
0.605765
0.642674
0.67994
0.717488
0.755256
0.793185
0.831222
0.86932
0.907453
0.9456
0.983754
1.02192
1.0601
1.0983
1.13656
1.17486
1.21323
1.25168
1.29019
1.32878
1.36742
1.4061
1.4448
1.4835
1.52218
1.5608
1.59935
1.63778
1.67609
1.71424
1.75222
1.78998
1.82752
1.8648
1.9018
1.9385
1.97488
2.0109
2.04655
2.0818
2.11664
2.15103
2.18495
2.21837
2.25127
2.28361
2.31536
2.34651
2.37701
2.40685
2.436
2.46443
2.49212
2.51903
2.54515
2.57045
2.59491
2.6185
2.64121
2.66301
2.6839
2.70384
2.72282
2.74083
2.75785
2.77386
2.78887
2.80284
2.81578
2.82769
2.83854
2.84835
2.8571
2.86479
2.87143
2.87702
2.88155
2.88503
2.88748
2.88878
2.88914
2.88857
2.88697
2.88438
2.88082
2.87631
2.87088
2.86454
2.85732
2.84923
2.8403
2.83055
2.82
2.80868
2.79661
2.78382
2.77034
2.7562
2.74142
2.72604
2.71008
2.69357
2.67657
2.65912
2.64126
2.62302
2.60446
2.5856
2.56648
2.54714
2.52759
2.50785
2.48797
2.46797
2.4479
2.4278
2.40771
2.38768
2.36776
2.34798
2.32839
2.30903
2.28989
2.27092
2.25108
2.22793
8.04991e-05
0.00202615
0.0112609
0.0244939
0.0326171
0.0369018
0.0389065
0.0394902
0.0391895
0.0382526
0.0368467
0.0351966
0.0334382
0.0316786
0.0299965
0.0284438
0.0270468
0.02581
0.0247231
0.0237652
0.0229088
0.0221187
0.0213199
0.0205498
0.0200115
0.0200807
0.0217399
0.0266086
0.0372441
0.0545436
0.0758687
0.0974203
0.117321
0.13342
0.144836
0.152677
0.159335
0.167417
0.178398
0.192946
0.211198
0.232884
0.257631
0.28486
0.313962
0.344375
0.375747
0.407898
0.440748
0.474265
0.508432
0.54325
0.578719
0.614839
0.65159
0.688938
0.726842
0.765251
0.804111
0.843367
0.882966
0.922863
0.96302
1.00341
1.04401
1.08482
1.12583
1.16703
1.20843
1.25004
1.29185
1.33385
1.37604
1.4184
1.4609
1.50353
1.54625
1.58902
1.63181
1.67457
1.71728
1.7599
1.80239
1.84473
1.88688
1.92882
1.97051
2.01192
2.05303
2.09381
2.13423
2.17426
2.21387
2.25305
2.29175
2.32996
2.36764
2.40476
2.44128
2.47718
2.51242
2.54698
2.58082
2.6139
2.64621
2.67771
2.70838
2.73818
2.76708
2.79507
2.82211
2.84817
2.87325
2.89731
2.92034
2.94231
2.96321
2.98303
3.00174
3.01933
3.03578
3.0511
3.06525
3.07825
3.09008
3.10074
3.11022
3.11854
3.12568
3.13164
3.13644
3.14007
3.14255
3.14377
3.14397
3.14307
3.14105
3.13794
3.13375
3.12852
3.12227
3.11502
3.10679
3.09761
3.0875
3.07649
3.0646
3.05187
3.03831
3.02395
3.00884
2.993
2.97645
2.95924
2.9414
2.92296
2.90398
2.88449
2.86456
2.84421
2.82349
2.80244
2.7811
2.7595
2.73767
2.71563
2.69342
2.67109
2.64867
2.62622
2.60377
2.5814
2.55914
2.53706
2.5152
2.49362
2.47234
2.45132
2.42961
2.40498
0.000208933
0.00479009
0.0205849
0.033414
0.0400029
0.0430955
0.0441891
0.0440245
0.0430375
0.0414186
0.0394456
0.0372986
0.0351261
0.0330452
0.0311394
0.0294593
0.0280298
0.0268551
0.0259281
0.0252274
0.024774
0.0246521
0.0249456
0.0260516
0.0283475
0.0326931
0.0407688
0.0539408
0.0706046
0.0892267
0.107988
0.124925
0.138845
0.14941
0.157554
0.165172
0.174307
0.18629
0.201742
0.220655
0.242727
0.26747
0.294355
0.322825
0.352415
0.382817
0.413889
0.445597
0.47795
0.51098
0.544723
0.579216
0.614491
0.650559
0.68742
0.72506
0.763455
0.802566
0.842352
0.882763
0.923752
0.965274
1.00729
1.04977
1.09269
1.13602
1.17975
1.22387
1.26838
1.31326
1.35849
1.40408
1.44998
1.49617
1.54262
1.58928
1.63611
1.68306
1.73007
1.7771
1.8241
1.87101
1.91781
1.96444
2.01088
2.0571
2.10305
2.1487
2.19401
2.23895
2.2835
2.32762
2.37128
2.41445
2.4571
2.49919
2.54068
2.58155
2.62176
2.66127
2.70004
2.73805
2.77525
2.81161
2.8471
2.88168
2.91533
2.94802
2.97971
3.01037
3.03998
3.0685
3.09592
3.12222
3.14736
3.17134
3.19412
3.2157
3.23606
3.25518
3.27304
3.28963
3.30495
3.31898
3.33173
3.34318
3.35334
3.36221
3.36978
3.37606
3.38105
3.38478
3.38721
3.3883
3.38826
3.38698
3.38448
3.38079
3.37592
3.36991
3.36278
3.35457
3.34528
3.33496
3.32363
3.31132
3.29805
3.28386
3.26877
3.25283
3.23605
3.21848
3.20014
3.18108
3.16133
3.14094
3.11996
3.09843
3.07642
3.05395
3.03107
3.00783
2.98426
2.9604
2.93628
2.91193
2.88739
2.86271
2.83794
2.81313
2.78833
2.7636
2.73899
2.71457
2.69041
2.66656
2.64306
2.61989
2.59615
2.56972
0.000464432
0.00967726
0.0300021
0.0414278
0.0467877
0.0490256
0.0494213
0.0486235
0.0469765
0.0447884
0.0422986
0.0397129
0.0372023
0.0348993
0.0328959
0.0312466
0.0299809
0.0290716
0.0285864
0.0284349
0.0287484
0.0298434
0.0322773
0.0368441
0.0442449
0.0548051
0.068083
0.0829788
0.0988053
0.114385
0.128577
0.14069
0.150781
0.159566
0.168425
0.178831
0.191896
0.208061
0.227296
0.249264
0.273522
0.299593
0.32703
0.355454
0.384606
0.414362
0.444704
0.475666
0.507309
0.539699
0.572903
0.606976
0.641955
0.677873
0.714745
0.752575
0.791352
0.831052
0.871644
0.913091
0.955353
0.998391
1.04217
1.08665
1.1318
1.1776
1.22403
1.27106
1.31868
1.36686
1.41558
1.46481
1.51451
1.56464
1.61514
1.66596
1.71702
1.76828
1.81964
1.87106
1.92247
1.97381
2.02502
2.07607
2.12691
2.1775
2.2278
2.27777
2.32737
2.37656
2.4253
2.47357
2.52133
2.56854
2.61517
2.66118
2.70652
2.75117
2.79507
2.8382
2.88051
2.92196
2.9625
3.00212
3.04076
3.07839
3.11499
3.15052
3.18494
3.21822
3.25034
3.28125
3.31095
3.3394
3.36658
3.39247
3.41706
3.44031
3.46223
3.48277
3.50194
3.51972
3.5361
3.55107
3.56463
3.57678
3.58751
3.59683
3.60474
3.61123
3.61633
3.62003
3.62233
3.62323
3.62284
3.6211
3.61803
3.61367
3.60804
3.60118
3.5931
3.58385
3.57344
3.56191
3.5493
3.53563
3.52093
3.50524
3.48859
3.47101
3.45254
3.4332
3.41305
3.39211
3.37043
3.34807
3.32507
3.3015
3.2774
3.2528
3.22777
3.20233
3.17653
3.15041
3.124
3.09734
3.07048
3.04346
3.01634
2.98917
2.962
2.93491
2.90794
2.88117
2.85467
2.8285
2.80272
2.77732
2.75148
2.72336
0.000881931
0.016656
0.0382347
0.0486988
0.0533826
0.0550602
0.0549397
0.0535932
0.0514289
0.0487688
0.0458864
0.0430179
0.0403596
0.0380626
0.0362394
0.0349521
0.0343272
0.0342283
0.0348049
0.0362959
0.0390015
0.0432736
0.0493931
0.0575082
0.0675602
0.0792709
0.0920842
0.105247
0.118098
0.130084
0.140946
0.150799
0.16026
0.170306
0.181953
0.195928
0.212552
0.231753
0.253247
0.276654
0.301594
0.327715
0.354728
0.382424
0.410693
0.439515
0.468934
0.499021
0.529865
0.561552
0.594159
0.62775
0.662381
0.698098
0.734931
0.772897
0.812
0.852234
0.893581
0.936016
0.979512
1.02403
1.06955
1.11603
1.16343
1.21174
1.26091
1.31092
1.36173
1.41331
1.46563
1.51864
1.57227
1.62647
1.68116
1.73626
1.7917
1.84738
1.90324
1.95917
2.01511
2.07098
2.12671
2.18227
2.23759
2.29263
2.34735
2.4017
2.45562
2.50908
2.56204
2.61447
2.66633
2.71758
2.76817
2.81807
2.86723
2.9156
2.96315
3.00983
3.0556
3.10042
3.14423
3.187
3.22869
3.26926
3.30869
3.34693
3.38395
3.41973
3.45421
3.48737
3.51919
3.54965
3.57871
3.60636
3.63258
3.65736
3.68066
3.70248
3.72279
3.7416
3.75887
3.77463
3.78884
3.80153
3.81268
3.82231
3.8304
3.83696
3.84202
3.84557
3.84761
3.84818
3.84732
3.84499
3.84125
3.83612
3.82963
3.82181
3.8127
3.80232
3.79071
3.77791
3.76394
3.74885
3.73267
3.71544
3.69718
3.67793
3.65773
3.63661
3.61461
3.59178
3.56816
3.54382
3.51881
3.49319
3.46701
3.44032
3.41314
3.38553
3.35752
3.32916
3.30047
3.27152
3.24234
3.21301
3.18356
3.15406
3.12455
3.09511
3.06579
3.03667
3.00781
2.97931
2.95121
2.92354
2.89552
2.86555
0.00140931
0.0238494
0.0460558
0.0560445
0.0602744
0.0615269
0.0610021
0.0592361
0.0566903
0.0537419
0.05071
0.0478618
0.0454191
0.0435585
0.0424974
0.0421761
0.0426129
0.0439753
0.0463848
0.0499911
0.0549212
0.0612492
0.0689568
0.0779264
0.0879284
0.0986008
0.109523
0.120324
0.130794
0.140869
0.150732
0.160866
0.171935
0.184555
0.199168
0.215942
0.234807
0.255532
0.277829
0.301406
0.326008
0.351422
0.377493
0.404132
0.431318
0.459086
0.487512
0.516692
0.546723
0.577699
0.609708
0.642827
0.677126
0.71266
0.749475
0.787603
0.827065
0.867868
0.910015
0.953495
0.998293
1.04438
1.09174
1.14032
1.1901
1.24104
1.2931
1.34624
1.40042
1.45559
1.5117
1.56867
1.62643
1.68487
1.74392
1.80346
1.86341
1.92366
1.98411
2.04466
2.1052
2.16567
2.22599
2.28609
2.34593
2.40545
2.46458
2.52328
2.58149
2.63917
2.69628
2.7528
2.80867
2.86387
2.91832
2.97199
3.02482
3.07678
3.12782
3.17789
3.22694
3.27493
3.32181
3.36753
3.41206
3.45535
3.49738
3.5381
3.57749
3.6155
3.65211
3.68727
3.72096
3.75317
3.78386
3.81301
3.84062
3.86665
3.8911
3.91394
3.93515
3.95474
3.97268
3.98898
4.00362
4.01663
4.02798
4.03769
4.04577
4.05221
4.05703
4.06024
4.06186
4.06192
4.06045
4.05739
4.05282
4.04679
4.03931
4.03042
4.02016
4.00857
3.99567
3.9815
3.96611
3.94954
3.93182
3.91299
3.89309
3.87215
3.85021
3.82729
3.80343
3.7787
3.75315
3.72685
3.69986
3.67223
3.644
3.61524
3.58596
3.55622
3.52605
3.49549
3.46458
3.43337
3.40194
3.37034
3.33862
3.30684
3.27504
3.2433
3.21166
3.18021
3.14903
3.1182
3.08778
3.05784
3.02763
2.99575
0.00210011
0.0303701
0.0533675
0.0633871
0.0674569
0.0684821
0.0676711
0.0655961
0.0628251
0.0598244
0.0569658
0.0545337
0.0527312
0.0518444
0.0516822
0.0524423
0.0541852
0.0569431
0.060747
0.0656094
0.0715115
0.0783901
0.0861272
0.0945637
0.103507
0.112773
0.12222
0.131775
0.141481
0.151539
0.162283
0.174113
0.187374
0.202286
0.218917
0.237188
0.256933
0.277942
0.300012
0.322962
0.346652
0.370977
0.395879
0.421343
0.447402
0.474124
0.5016
0.529932
0.559226
0.589583
0.621099
0.653863
0.687956
0.723448
0.760397
0.798844
0.838829
0.880378
0.92351
0.968229
1.01453
1.06241
1.11183
1.16277
1.2152
1.26907
1.32434
1.38093
1.4388
1.49786
1.55806
1.61928
1.68142
1.74433
1.80791
1.87202
1.93656
2.00142
2.06649
2.13165
2.1968
2.26184
2.3267
2.39131
2.4556
2.5195
2.58295
2.64587
2.70821
2.76995
2.83103
2.89144
2.95112
3.01002
3.06809
3.12528
3.18152
3.23677
3.29099
3.34413
3.39615
3.44698
3.49658
3.5449
3.5919
3.63754
3.6818
3.72463
3.766
3.80587
3.84421
3.88099
3.91617
3.94974
3.98168
4.01197
4.04058
4.06751
4.09274
4.11624
4.13801
4.15804
4.17631
4.19283
4.2076
4.22061
4.23188
4.2414
4.24918
4.25524
4.25958
4.26223
4.26319
4.26255
4.26024
4.25626
4.25071
4.24361
4.235
4.22491
4.21339
4.20046
4.18617
4.17056
4.15367
4.13555
4.11623
4.09577
4.07421
4.05156
4.02788
4.00317
3.97747
3.95086
3.92342
3.8952
3.86628
3.83669
3.80649
3.77572
3.74442
3.71264
3.68038
3.64769
3.61463
3.58127
3.54767
3.5139
3.48
3.44602
3.41202
3.37806
3.34418
3.31048
3.27702
3.24392
3.21124
3.17905
3.14668
3.11293
0.00291815
0.0362637
0.0607421
0.0709612
0.0749375
0.0757972
0.0747602
0.0724439
0.0695289
0.0666514
0.0642611
0.0626026
0.0618165
0.0616888
0.062488
0.0642619
0.0669513
0.0705248
0.0749506
0.0801896
0.0861792
0.0928454
0.100103
0.107879
0.116116
0.124779
0.133878
0.143506
0.153816
0.165009
0.177292
0.190832
0.205714
0.221935
0.239426
0.258063
0.277707
0.298224
0.319499
0.341446
0.364008
0.387159
0.410907
0.435284
0.460355
0.486207
0.512943
0.540665
0.569476
0.59948
0.630781
0.663477
0.69766
0.733411
0.770804
0.809902
0.850765
0.893438
0.937958
0.984348
1.03261
1.08275
1.13474
1.18856
1.24417
1.3015
1.36049
1.42107
1.48311
1.54653
1.6112
1.67699
1.74376
1.81131
1.8795
1.94818
2.01723
2.08657
2.15609
2.22569
2.29525
2.36467
2.43387
2.50278
2.57131
2.63937
2.70685
2.77368
2.83983
2.90528
2.96999
3.03391
3.097
3.15921
3.22046
3.28071
3.33989
3.39796
3.45486
3.51057
3.56502
3.61816
3.66993
3.7203
3.76922
3.81665
3.86257
3.90694
3.94974
3.99091
4.03044
4.06828
4.1044
4.1388
4.17145
4.20234
4.23145
4.25877
4.28429
4.30798
4.32984
4.34985
4.36802
4.38434
4.39881
4.41145
4.42225
4.43122
4.43837
4.44371
4.44727
4.44906
4.44911
4.44753
4.44411
4.439
4.43225
4.42391
4.414
4.40257
4.38964
4.37527
4.35949
4.34235
4.32389
4.30416
4.28321
4.26109
4.23784
4.2135
4.1881
4.16163
4.13413
4.10571
4.07645
4.04641
4.01564
3.98419
3.95211
3.91945
3.88624
3.85253
3.81831
3.78361
3.74854
3.71315
3.67752
3.64171
3.60576
3.56973
3.53366
3.4976
3.4616
3.42575
3.39014
3.35487
3.32001
3.28568
3.25121
3.21572
0.00380354
0.0423849
0.067966
0.0784657
0.0824173
0.0831414
0.081758
0.0791484
0.0762857
0.0738448
0.0721996
0.0714511
0.0713195
0.0719601
0.0735166
0.0759259
0.0791223
0.0830557
0.0876834
0.0929713
0.098883
0.105399
0.1125
0.120184
0.128468
0.137404
0.147071
0.157559
0.168973
0.181409
0.194913
0.209502
0.225146
0.241774
0.259305
0.277646
0.296722
0.316469
0.336849
0.357842
0.379456
0.401709
0.42465
0.448349
0.472874
0.498308
0.52476
0.55234
0.581158
0.611328
0.642959
0.676161
0.71104
0.747691
0.786206
0.826667
0.869149
0.913721
0.960438
1.00933
1.06042
1.11368
1.16909
1.22662
1.28621
1.34779
1.41125
1.47647
1.54328
1.61152
1.68098
1.75152
1.82294
1.89506
1.96769
2.04062
2.11374
2.18706
2.26051
2.33407
2.40755
2.48086
2.55393
2.62666
2.69893
2.77062
2.84162
2.91185
2.98132
3.04997
3.11775
3.18462
3.25053
3.31542
3.37921
3.44186
3.50329
3.56347
3.62234
3.67987
3.736
3.79069
3.84389
3.89554
3.9456
3.99405
4.04085
4.086
4.12945
4.17117
4.21112
4.24928
4.28561
4.32011
4.35277
4.38356
4.41249
4.43954
4.46469
4.48795
4.50928
4.5287
4.54619
4.56177
4.57543
4.58718
4.59704
4.60501
4.61109
4.61532
4.61771
4.61829
4.61717
4.61421
4.60942
4.60292
4.59475
4.58494
4.57353
4.56056
4.54607
4.53011
4.51271
4.49393
4.47381
4.4524
4.42975
4.40592
4.38094
4.35488
4.32775
4.29958
4.2704
4.2403
4.20935
4.17761
4.14512
4.11195
4.07812
4.04371
4.00875
3.97327
3.93726
3.90074
3.86383
3.82662
3.78915
3.75148
3.71367
3.67576
3.6378
3.59982
3.56187
3.52404
3.48645
3.44918
3.4123
3.37596
3.33954
3.30247
0.00471261
0.0483184
0.0750014
0.0857218
0.0896052
0.0901516
0.0883776
0.0856432
0.0830806
0.0812617
0.0803873
0.0801665
0.080609
0.0818364
0.0838825
0.0866853
0.0901897
0.0943592
0.0991718
0.104625
0.110716
0.117462
0.124883
0.133023
0.141922
0.151639
0.162219
0.173708
0.186117
0.199441
0.213671
0.228771
0.244676
0.261325
0.278669
0.296668
0.315304
0.334568
0.35447
0.375029
0.396292
0.418327
0.441239
0.465085
0.489869
0.5157
0.542753
0.57114
0.600963
0.632337
0.665382
0.700218
0.736961
0.775718
0.81659
0.85967
0.905043
0.952782
1.00295
1.0556
1.11069
1.16818
1.22801
1.29011
1.35442
1.42084
1.48924
1.55947
1.6313
1.70447
1.77863
1.85359
1.92918
2.00532
2.08179
2.15837
2.23503
2.31178
2.3886
2.46533
2.54183
2.61811
2.6942
2.7699
2.84502
2.91945
2.99312
3.06599
3.13794
3.20892
3.27887
3.34774
3.4155
3.48208
3.54739
3.61139
3.67401
3.7352
3.79495
3.85321
3.90994
3.96508
4.01859
4.07043
4.12054
4.16891
4.21554
4.26039
4.30346
4.34471
4.38408
4.42157
4.45714
4.4908
4.52254
4.55236
4.58024
4.60619
4.63018
4.65222
4.6723
4.69041
4.70655
4.72074
4.73298
4.74328
4.75166
4.75811
4.76266
4.76534
4.76616
4.76526
4.76252
4.75786
4.75145
4.74333
4.73351
4.72206
4.709
4.69437
4.67823
4.6606
4.64154
4.62109
4.59931
4.57623
4.55192
4.52642
4.49979
4.47207
4.4433
4.41356
4.38288
4.35128
4.31884
4.28558
4.25157
4.21686
4.18148
4.1455
4.10897
4.07192
4.03435
3.99627
3.9578
3.91901
3.87995
3.84067