/*--------------------------------*- C++ -*----------------------------------*\
  =========                 |
  \\      /  F ield         | OpenFOAM: The Open Source CFD Toolbox
   \\    /   O peration     | Website:  https://openfoam.org
    \\  /    A nd           | Version:  8
     \\/     M anipulation  |
\*---------------------------------------------------------------------------*/
FoamFile
{
    version     2.0;
    format      ascii;
    class       volScalarField;
    location    "1400";
    object      omega;
}
// * * * * * * * * * * * * * * * * * * * * * * * * * * * * * * * * * * * * * //

dimensions      [0 0 -1 0 0 0 0];

internalField   nonuniform List<scalar> 
12225
(
32582.3
32582.3
38707.9
40510.8
38568.5
39161.8
32582.3
32582.3
32582.3
32582.3
32582.3
32582.3
32582.3
32582.3
32582.3
32582.3
32582.3
41725.2
4986.5
7557.01
10893
14534.5
15147.7
16345.5
15787.3
15471.3
15328.8
15316.2
15357.4
17828.2
16943.2
17834.6
18499.8
17712.1
17316
17341.6
1082.78
1285.03
1890.59
2970.77
3863.62
4744.66
5138.79
5657.52
6040.99
6469.64
6674.22
7116.23
7409.49
7605.48
7792.65
7910.42
7993.29
8124.13
541.886
544.711
623.269
774.031
940.097
1133.97
1283.99
1455.71
1596.52
1764.28
1885.01
2063.51
2202.26
2360.57
2458.88
2596.68
2663
2789.55
451.008
454.793
457.968
481.391
509.651
555.949
591.854
642.842
679.759
732.09
768.126
823.954
862.858
918.141
950.421
1002.15
1025.57
1073.46
440.788
437.346
437.745
438.47
441.863
450.614
457.481
471.109
479.71
495.375
505.209
522.104
532.849
550.658
560.926
578.55
587.027
603.553
439.247
436.876
434.589
433.207
431.81
431.812
432.063
433.168
434.422
437.023
438.966
442.7
445.137
449.822
452.55
457.777
460.456
465.638
438.988
436.882
434.596
432.805
430.876
429.467
428.026
427.149
426.177
425.812
425.424
425.478
425.636
426.13
426.56
427.548
428.13
429.482
438.967
436.844
434.65
432.759
430.793
429.121
427.381
425.958
424.469
423.3
422.08
421.186
420.203
419.604
418.823
418.488
417.876
417.747
438.982
436.813
434.665
432.723
430.786
429.039
427.291
425.726
424.155
422.764
421.359
420.139
418.891
417.834
416.735
415.824
414.865
414.078
438.993
436.794
434.669
432.693
430.779
428.996
427.268
425.658
424.095
422.64
421.226
419.911
418.632
417.444
416.289
415.215
414.172
413.202
438.999
436.782
434.668
432.673
430.768
428.967
427.247
425.62
424.063
422.588
421.176
419.838
418.556
417.341
416.176
415.07
414.01
413.003
439
436.777
434.663
432.661
430.756
428.948
427.227
425.593
424.034
422.553
421.139
419.794
418.51
417.287
416.118
415.005
413.94
412.925
439
436.774
434.659
432.653
430.745
428.934
427.21
425.571
424.01
422.524
421.107
419.758
418.471
417.244
416.072
414.955
413.887
412.868
438.999
436.77
434.651
432.64
430.728
428.912
427.183
425.54
423.973
422.484
421.062
419.709
418.416
417.186
416.008
414.888
413.815
412.794
438.989
436.74
434.601
432.574
430.644
428.814
427.068
425.412
423.83
422.33
420.894
419.533
418.226
416.989
415.799
414.674
413.587
412.563
438.963
436.662
434.479
432.408
430.441
428.572
426.796
425.107
423.499
421.97
420.513
419.125
417.802
416.541
415.337
414.19
413.094
412.048
438.963
436.662
434.48
432.408
430.441
428.572
426.796
425.106
423.499
421.968
420.511
419.122
417.799
416.536
415.334
414.184
413.09
412.042
438.99
436.74
434.605
432.575
430.648
428.814
427.071
425.411
423.832
422.326
420.894
419.526
418.224
416.979
415.795
414.661
413.582
412.547
439
436.769
434.651
432.638
430.726
428.907
427.177
425.53
423.962
422.468
421.045
419.688
418.394
417.159
415.981
414.856
413.782
412.756
439.001
436.772
434.657
432.647
430.738
428.921
427.195
425.551
423.986
422.495
421.075
419.721
418.43
417.197
416.022
414.899
413.828
412.805
439.003
436.773
434.662
432.651
430.746
428.929
427.207
425.563
424.003
422.513
421.097
419.744
418.458
417.228
416.058
414.938
413.873
412.854
439.013
436.767
434.673
432.65
430.761
428.935
427.23
425.583
424.045
422.557
421.171
419.829
418.58
417.369
416.245
415.155
414.145
413.167
439.03
436.747
434.7
432.632
430.803
428.963
427.361
425.775
424.405
423.049
421.926
420.771
419.854
418.885
418.149
417.354
416.783
416.149
438.985
436.759
434.756
432.751
431.331
429.782
429.184
428.507
428.554
428.801
429.492
430.063
431.226
432.009
433.521
434.512
436.28
437.469
438.355
437.773
436.05
438.575
439.287
442.294
449.243
456.052
466.046
474.319
485.106
493.673
504.618
513.065
523.88
531.981
542.502
550.112
439.669
446.795
472.88
484.607
520.549
562.874
617.061
667.009
723.069
770.601
823.066
865.318
912.899
949.399
992.18
1023.32
1061.82
1088.25
429.565
584.593
721.929
934.933
1259.52
1563.43
1863.6
2125.53
2376.41
2585.89
2785.47
2945.74
3101.55
3221.47
3343.59
3432.56
3530.5
3597.64
3555.63
3078.03
4267.41
5717.02
6838.27
7747.97
8429
8937.19
9306.38
9571.6
9747.51
9869.19
9936.47
9978.12
9986.15
9982.78
9968.11
9948.13
16112.1
19590.1
21827.1
23350.1
24169.8
24599.5
24635.4
24571.6
24403.5
24157.5
23890.1
23620.6
23359.4
23113.1
22883.8
22674.3
22481.3
22308.4
11463.3
2494.65
2496.87
2499.12
2501.38
2503.67
2505.98
2508.3
2510.65
2513.02
2515.42
2517.83
2520.27
2522.73
2525.21
2527.72
2530.25
2532.8
2535.37
2537.97
2540.6
2543.25
2545.92
2548.62
2551.34
2554.09
2556.87
2559.67
2562.5
2565.35
2568.23
2571.14
2574.08
2577.04
2580.04
2583.06
2586.11
2589.19
2592.3
2595.43
2598.6
2601.8
2605.03
2608.29
2611.59
2614.91
2618.27
2621.66
2625.08
2628.54
2632.03
2635.55
2639.11
2642.71
2646.33
2650
3363.12
3315.7
3230.75
3395.63
3283.13
2672.76
3179.51
3327.62
3414.82
3502.86
3586
3659.11
3737.53
3806.77
3878.55
3945.21
4012.12
4076.16
4139.49
4200.97
4261.45
4320.54
4378.56
4435.42
4491.22
4545.96
4599.69
4652.42
4704.17
4754.92
4804.72
4853.52
4901.35
4948.17
4993.95
5038.69
5082.33
5124.85
5166.2
5206.34
5245.24
5282.89
5319.36
5354.78
5389.57
5423.56
5456.52
5488.59
5519.75
5549.97
5579.28
5607.64
5635.06
5661.51
5687
5711.51
5735.03
5757.57
5779.1
5799.64
5819.15
5837.67
5855.14
5871.63
5887.06
5901.51
5914.9
5927.31
5938.67
5949.04
5958.37
5966.68
5974.15
5981
5987.3
5990.87
5995.37
5997.27
5999.68
6001.45
6002.31
6002.11
6000.11
5997.59
5994.01
5989.73
5984.68
5978.9
5972.43
5965.29
5957.52
5949.1
5940.08
5930.48
5920.34
5909.7
5898.57
5887
5875.05
5862.77
5850.22
5837.47
5824.59
5811.62
5798.63
5785.66
5772.73
5759.87
5747.11
5734.47
5722.01
5709.77
5697.81
5686.15
5674.83
5663.8
5652.97
5642.19
5631.05
5618.88
5604.73
5585.94
5557.88
5448.02
11463.3
1991.99
991.58
803.977
686.786
618.189
624.457
620.544
609.319
587.049
563.286
539.969
518.666
501.216
489.186
481.074
480.746
480.806
512.016
559.933
644.08
745.448
855.248
964.044
1060.61
1135.24
1175.64
1169.1
1126.56
1046.45
923.458
772.533
643.7
561.093
495.465
458.607
451.734
458.795
478.323
510.563
539.763
582.679
661.76
784.043
965.152
1262.17
1577.06
1804.2
1949.36
2026.18
2049.65
2044.89
2001.96
1960.88
1923.66
1895.13
1881.6
1792.52
1746.02
1727.67
1680.28
1643.67
1661.58
1650.46
1646.95
1644.31
1643.79
1644.83
1648.14
1651.76
1657.04
1662.47
1668.9
1675.49
1682.61
1689.86
1697.36
1704.95
1712.65
1720.37
1728.11
1735.84
1743.53
1751.16
1758.71
1766.16
1773.5
1780.7
1787.76
1794.66
1801.39
1807.93
1814.3
1820.48
1826.5
1832.41
1838.28
1844.26
1850.57
1857.55
1865.68
1874.13
1882.12
1890.04
1897.68
1905.14
1912.36
1919.37
1926.16
1932.72
1939.06
1945.18
1951.07
1956.73
1962.17
1967.39
1972.38
1977.14
1981.68
1986
1990.1
1993.97
1997.64
2001.09
2004.32
2007.36
2010.19
2012.83
2015.31
2017.61
2019.7
2021.53
2023.29
2024.82
2026.31
2027.59
2028.47
2028.72
2028.23
2027.56
2026.7
2025.66
2024.45
2023.07
2021.52
2019.81
2017.95
2015.93
2013.76
2011.46
2009.05
2006.48
2003.81
2001.02
1998.15
1995.19
1992.17
1989.09
1985.96
1982.8
1979.6
1976.39
1973.16
1969.93
1966.7
1963.49
1960.3
1957.15
1954.05
1951.01
1948.05
1945.16
1942.38
1939.69
1937.19
1934.92
1932.97
1931.76
1930.35
1939.61
11463.3
2005.04
810.809
635.995
674.217
674.306
647.153
592.342
533.282
477.815
428.661
387.309
354.766
329.228
309.556
294.455
283.946
275.823
273.943
276.337
286.823
305.56
337.921
381.988
436.854
497.128
557.788
604.335
634.327
632.04
609.929
568.033
506.261
437.959
387.538
377.269
386.706
408.483
442.341
509.413
614.765
759.29
949.098
1128.32
1276.38
1404.88
1512.31
1542.34
1544.73
1503.48
1450.29
1391.26
1334.27
1285.71
1243.01
1207.3
1174.41
1146.76
1127.13
1113.58
1102.66
1095.86
1092.65
1088.83
1087.86
1087.43
1088.19
1089.88
1092.16
1094.87
1098.03
1101.42
1105.11
1108.94
1112.94
1117.03
1121.22
1125.45
1129.74
1134.04
1138.36
1142.67
1146.98
1151.26
1155.52
1159.73
1163.91
1168.03
1172.11
1176.13
1180.1
1184.02
1187.9
1191.75
1195.6
1199.47
1203.4
1207.42
1211.57
1215.89
1220.3
1224.6
1228.75
1232.82
1236.74
1240.56
1244.24
1247.81
1251.25
1254.56
1257.74
1260.8
1263.72
1266.52
1269.18
1271.72
1274.12
1276.4
1278.54
1280.56
1282.45
1284.2
1285.84
1287.34
1288.72
1289.98
1291.11
1292.13
1293.04
1293.82
1294.48
1295.03
1295.47
1295.79
1296.01
1296.07
1295.95
1295.56
1295
1294.33
1293.56
1292.69
1291.71
1290.64
1289.47
1288.2
1286.84
1285.38
1283.84
1282.22
1280.53
1278.75
1276.9
1274.99
1273.03
1271.01
1268.94
1266.83
1264.68
1262.49
1260.27
1258.02
1255.75
1253.46
1251.17
1248.86
1246.55
1244.25
1241.95
1239.68
1237.44
1235.25
1233.13
1231.12
1229.3
1227.75
1226.65
1226.55
1227.84
1237.89
11463.3
2037.74
1008.08
968.042
893.378
765.948
650.343
544.778
461.266
398.99
352.199
315.657
287.165
265.294
248.584
235.873
226.337
219.422
214.849
213.178
214.273
217.334
225.643
239.891
261.395
289.998
324.403
359.397
390.543
413.519
419.312
412.781
390.346
389.281
423.083
507.976
572.786
627.418
694.709
790.319
921.325
1044.28
1123.92
1191.49
1250.34
1273.79
1250.62
1200.76
1160.53
1105.93
1060.87
1018.87
984.549
955.974
932.503
913.833
898.422
887.351
879.443
873.93
870.208
868.101
867.362
867.05
867.704
868.994
870.784
872.972
875.458
878.184
881.114
884.194
887.408
890.72
894.118
897.578
901.091
904.642
908.222
911.821
915.431
919.044
922.655
926.257
929.845
933.415
936.963
940.487
943.985
947.457
950.905
954.33
957.737
961.134
964.526
967.922
971.327
974.744
978.168
981.582
984.942
988.209
991.381
994.465
997.451
1000.34
1003.13
1005.83
1008.42
1010.91
1013.29
1015.57
1017.75
1019.82
1021.78
1023.64
1025.39
1027.03
1028.56
1029.98
1031.3
1032.5
1033.6
1034.59
1035.47
1036.25
1036.92
1037.48
1037.94
1038.3
1038.55
1038.7
1038.74
1038.68
1038.51
1038.22
1037.8
1037.22
1036.53
1035.75
1034.88
1033.93
1032.88
1031.75
1030.53
1029.23
1027.85
1026.39
1024.86
1023.25
1021.57
1019.83
1018.03
1016.17
1014.26
1012.3
1010.29
1008.24
1006.15
1004.02
1001.85
999.662
997.445
995.208
992.954
990.687
988.411
986.13
983.852
981.583
979.332
977.117
974.965
972.911
971.015
969.373
968.126
967.763
968.729
974.818
11463.3
2311.69
1457.2
1173.92
932.158
721.297
556.318
445.76
370.451
317.775
280.13
253.127
233.577
218.893
207.619
198.945
192.424
187.702
184.562
183.118
183.452
184.758
188.654
195.408
206.175
221.927
242.82
266.464
290.302
309.267
324.334
352.289
407.379
506.259
594.113
661.156
728.669
803.222
876.13
940.848
996.77
1044.61
1079.96
1090.92
1068.07
1019.31
985.824
941.909
906.534
871.194
843.827
819.878
800.923
785.495
773.365
764.161
757.237
752.654
749.729
748.368
747.816
747.955
748.974
750.467
752.434
754.752
757.344
760.157
763.145
766.276
769.526
772.873
776.3
779.794
783.343
786.936
790.566
794.223
797.901
801.592
805.291
808.991
812.689
816.378
820.055
823.715
827.357
830.977
834.573
838.145
841.691
845.212
848.708
852.179
855.627
859.05
862.443
865.8
869.109
872.359
875.534
878.623
881.626
884.542
887.366
890.098
892.736
895.277
897.721
900.066
902.312
904.456
906.497
908.433
910.265
911.99
913.609
915.12
916.522
917.815
919
920.075
921.04
921.896
922.642
923.279
923.807
924.225
924.534
924.733
924.821
924.812
924.689
924.454
924.108
923.645
923.062
922.357
921.547
920.643
919.645
918.555
917.374
916.104
914.751
913.312
911.789
910.185
908.504
906.749
904.924
903.032
901.079
899.066
896.997
894.875
892.703
890.485
888.225
885.926
883.591
881.225
878.832
876.417
873.984
871.534
869.073
866.604
864.134
861.67
859.229
856.823
854.473
852.209
850.083
848.173
846.596
845.702
845.928
848.96
11463.3
2914.49
1717.42
1197.1
826.214
582.769
440.343
352.458
297.832
262.367
237.794
219.773
205.957
195.127
186.492
179.63
174.34
170.492
167.998
166.973
167.321
168.68
171.957
177.158
184.943
196.543
212.844
233.991
261.533
302.117
356.575
444.637
551.543
640.066
707.077
768.896
822.011
863.157
898.092
931.278
952.606
957.578
932.762
901.073
870.647
835.749
806.983
777.765
754.539
733.852
717.56
703.972
693.364
685.12
679.037
674.831
672.272
671.218
670.966
671.593
672.915
674.801
677.16
679.866
682.859
686.073
689.464
692.996
696.645
700.389
704.213
708.105
712.055
716.053
720.092
724.164
728.262
732.38
736.511
740.648
744.787
748.922
753.049
757.161
761.257
765.33
769.378
773.397
777.385
781.339
785.257
789.138
792.978
796.778
800.533
804.24
807.894
811.485
815.004
818.447
821.806
825.077
828.256
831.343
834.334
837.227
840.02
842.711
845.297
847.777
850.151
852.418
854.574
856.617
858.548
860.364
862.064
863.647
865.113
866.46
867.687
868.795
869.783
870.65
871.397
872.023
872.528
872.912
873.173
873.304
873.329
873.236
873.018
872.677
872.215
871.63
870.923
870.094
869.154
868.107
866.957
865.705
864.351
862.9
861.358
859.722
857.994
856.179
854.278
852.296
850.237
848.106
845.907
843.643
841.317
838.932
836.494
834.005
831.47
828.893
826.278
823.63
820.954
818.254
815.534
812.797
810.046
807.287
804.526
801.77
799.032
796.325
793.669
791.091
788.631
786.354
784.35
782.863
782.201
783.181
11463.3
3413.88
1761.91
1027.55
645.479
453.477
355.11
299.678
264.456
239.875
221.437
207.005
195.358
185.709
177.704
171.185
166.09
162.405
160.232
159.681
160.542
163.078
167.795
175.064
185.723
200.104
221.429
254.835
307.027
388.547
492.366
582.82
651.251
710.349
757.641
793.163
821.301
844.759
855.253
855.609
834.937
811.928
786.748
761.15
736.581
712.732
692.449
674.24
659.526
647.135
637.339
629.586
623.804
619.709
617.27
616.219
616.028
616.843
618.427
620.641
623.363
626.502
629.975
633.708
637.649
641.754
645.99
650.332
654.763
659.268
663.836
668.457
673.124
677.829
682.567
687.33
692.112
696.905
701.704
706.501
711.29
716.067
720.825
725.56
730.268
734.944
739.582
744.18
748.733
753.238
757.692
762.092
766.435
770.718
774.938
779.092
783.173
787.179
791.107
794.947
798.69
802.336
805.879
809.318
812.649
815.872
818.981
821.976
824.854
827.612
830.246
832.752
835.133
837.388
839.516
841.514
843.383
845.12
846.725
848.196
849.533
850.735
851.801
852.733
853.528
854.188
854.712
855.1
855.345
855.443
855.432
855.28
854.99
854.564
854.004
853.309
852.482
851.526
850.446
849.246
847.93
846.5
844.957
843.302
841.528
839.647
837.665
835.584
833.407
831.141
828.788
826.355
823.846
821.264
818.613
815.898
813.122
810.293
807.413
804.488
801.522
798.521
795.49
792.434
789.357
786.262
783.153
780.035
776.915
773.801
770.704
767.636
764.616
761.666
758.819
756.127
753.655
751.58
750.041
749.485
11463.3
3556.92
1552.64
810.388
512.494
378.823
310.188
270.37
244.724
226.69
212.84
201.223
191.074
182.299
174.865
168.839
164.4
161.714
160.724
161.323
163.721
168.518
176.281
188.842
208.668
238.227
283.16
353.266
439.817
520.724
585.188
639.892
686.063
722.934
752.355
772.454
780.246
775.433
759.413
742.221
721.923
702.284
682.741
663.866
646.187
630.203
616.631
605.081
595.731
588.205
582.458
578.276
575.618
574.385
574.105
574.809
576.39
578.727
581.683
585.15
589.035
593.263
597.768
602.494
607.397
612.443
617.606
622.863
628.2
633.601
639.058
644.562
650.105
655.68
661.281
666.9
672.529
678.162
683.788
689.403
694.998
700.568
706.106
711.607
717.066
722.48
727.842
733.146
738.387
743.563
748.668
753.701
758.657
763.533
768.326
773.031
777.646
782.171
786.598
790.916
795.121
799.21
803.179
807.026
810.749
814.344
817.81
821.143
824.342
827.404
830.328
833.111
835.752
838.25
840.603
842.81
844.869
846.779
848.539
850.147
851.603
852.906
854.055
855.051
855.892
856.58
857.113
857.492
857.702
857.765
857.688
857.454
857.065
856.524
855.833
854.993
854.005
852.875
851.606
850.202
848.667
847.004
845.214
843.301
841.271
839.124
836.864
834.495
832.022
829.448
826.78
824.023
821.182
818.261
815.264
812.196
809.064
805.873
802.628
799.335
795.999
792.624
789.218
785.786
782.331
778.857
775.37
771.875
768.378
764.888
761.415
757.972
754.573
751.24
747.999
744.89
741.962
739.311
737.004
735.173
11463.3
3387.84
1275.01
656.636
438.007
343.135
292.781
262.215
241.064
225.066
212.352
201.821
192.862
185.206
178.879
174.102
171.19
170.299
171.685
175.385
182.232
193.596
210.903
238.387
280.975
338.799
405.736
468.87
525.536
574.687
616.734
651.972
682.109
704.197
712.745
710.922
698.533
685.074
669.025
653.571
638.144
623.461
609.192
595.686
583.376
572.623
563.598
556.182
550.344
545.949
542.908
541.315
540.798
541.186
542.556
544.767
547.72
551.313
555.451
560.047
565.025
570.322
575.879
581.65
587.594
593.681
599.887
606.191
612.574
619.022
625.521
632.06
638.631
645.224
651.836
658.459
665.079
671.69
678.28
684.844
691.371
697.857
704.293
710.673
716.988
723.222
729.387
735.479
741.491
747.421
753.263
759.013
764.669
770.224
775.676
781.02
786.25
791.359
796.345
801.201
805.924
810.51
814.957
819.262
823.422
827.434
831.298
835.009
838.565
841.965
845.206
848.286
851.203
853.957
856.546
858.968
861.222
863.307
865.221
866.963
868.532
869.927
871.147
872.193
873.065
873.762
874.285
874.629
874.783
874.784
874.612
874.266
873.747
873.057
872.199
871.175
869.987
868.639
867.136
865.481
863.68
861.734
859.649
857.427
855.073
852.591
849.984
847.257
844.414
841.46
838.401
835.244
831.995
828.657
825.237
821.741
818.176
814.547
810.862
807.125
803.342
799.519
795.662
791.778
787.87
783.944
780.004
776.058
772.113
768.176
764.258
760.37
756.526
752.745
749.046
745.464
742.034
738.847
735.899
733.072
11463.3
2967.29
1028.43
556.858
396.093
324.071
285.278
259.966
242.616
229.865
219.637
211.008
203.704
197.814
193.689
191.975
192.799
197.029
204.684
216.233
233.646
258.911
293.643
336.786
383.946
431.976
477.578
518.748
555.559
587.123
614.87
638.797
650.482
652.387
645.892
636.235
623.738
611.516
599.397
587.987
576.922
566.255
555.99
546.444
537.947
530.706
524.784
520.146
516.756
514.668
513.802
513.762
514.77
516.677
519.428
522.937
527.121
531.899
537.194
542.936
549.061
555.511
562.23
569.171
576.297
583.574
590.978
598.503
606.11
613.778
621.492
629.238
636.996
644.746
652.45
660.122
667.783
675.428
683.046
690.626
698.16
705.639
713.057
720.407
727.684
734.889
742.006
749.019
755.921
762.706
769.373
775.916
782.333
788.619
794.77
800.782
806.65
812.369
817.939
823.355
828.613
833.712
838.646
843.414
848.013
852.441
856.696
860.776
864.679
868.401
871.942
875.299
878.47
881.454
884.251
886.859
889.277
891.503
893.536
895.374
897.017
898.464
899.713
900.766
901.623
902.284
902.749
903.006
903.07
902.948
902.631
902.121
901.42
900.528
899.449
898.184
896.739
895.116
893.32
891.357
889.23
886.944
884.503
881.912
879.176
876.298
873.284
870.139
866.867
863.474
859.966
856.351
852.635
848.823
844.923
840.942
836.888
832.767
828.587
824.353
820.071
815.746
811.386
806.998
802.586
798.155
793.713
789.267
784.825
780.395
775.985
771.607
767.274
763.001
758.806
754.715
750.754
746.995
743.406
739.655
11463.3
2494.48
882.884
514.069
381.224
319.758
285.793
265.587
252.115
242.203
234.424
228.304
223.951
222.052
222.561
226.768
234.805
245.936
260.476
280.521
306.294
336.899
370.763
405.85
440.416
473.387
503.896
530.895
555.38
578.198
592.63
597.259
596.164
591.109
582.929
573.85
564.552
555.794
547.396
539.325
531.419
523.733
516.428
509.777
504.016
499.288
495.646
493.084
491.768
491.403
491.975
493.496
495.937
499.233
503.326
508.141
513.608
519.659
526.227
533.252
540.69
548.488
556.572
564.897
573.419
582.095
590.871
599.658
608.519
617.453
626.444
635.473
644.516
653.554
662.584
671.589
680.55
689.472
698.327
707.106
715.802
724.409
732.921
741.333
749.636
757.82
765.872
773.786
781.556
789.177
796.645
803.96
811.116
818.111
824.939
831.598
838.082
844.389
850.517
856.464
862.226
867.799
873.179
878.366
883.355
888.147
892.74
897.132
901.321
905.305
909.082
912.65
916.007
919.154
922.088
924.811
927.32
929.615
931.693
933.554
935.196
936.619
937.822
938.806
939.572
940.12
940.447
940.551
940.443
940.121
939.585
938.837
937.877
936.708
935.333
933.754
931.977
930.005
927.844
925.499
922.975
920.277
917.41
914.38
911.191
907.85
904.362
900.732
896.966
893.07
889.05
884.914
880.669
876.323
871.885
867.362
862.763
858.096
853.368
848.584
843.75
838.873
833.959
829.015
824.048
819.065
814.073
809.081
804.096
799.127
794.182
789.272
784.408
779.602
774.872
770.238
765.721
761.376
757.167
752.576
11463.3
2078.91
782.312
483.189
373.661
321.089
293.53
277.369
267.001
259.932
255.084
252.604
252.123
254.482
260.255
269.517
281.739
296.679
315.078
336.703
360.703
386.079
411.84
437.156
461.314
483.501
504.32
524.238
539.104
546.298
548.052
547.616
543.837
538.409
532.166
525.887
519.782
513.925
508.187
502.515
496.911
491.5
486.48
482.074
478.465
475.761
474.136
473.53
473.79
475.045
477.23
480.32
484.289
489.104
494.751
501.109
508.115
515.705
523.812
532.356
541.218
550.348
559.795
569.532
579.522
589.724
600.102
610.659
621.32
632.037
642.775
653.519
664.225
674.853
685.381
695.792
706.07
716.199
726.201
736.085
745.851
755.5
765.028
774.43
783.696
792.811
801.762
810.538
819.13
827.533
835.747
843.771
851.601
859.233
866.664
873.888
880.904
887.709
894.302
900.682
906.845
912.787
918.507
924
929.268
934.308
939.121
943.706
948.061
952.186
956.077
959.734
963.155
966.341
969.291
972.006
974.486
976.728
978.732
980.495
982.019
983.302
984.343
985.144
985.706
986.027
986.11
985.953
985.561
984.935
984.077
982.988
981.669
980.124
978.355
976.367
974.163
971.75
969.133
966.318
963.309
960.114
956.738
953.186
949.466
945.583
941.544
937.356
933.024
928.554
923.954
919.231
914.392
909.45
904.412
899.289
894.09
888.822
883.492
878.105
872.669
867.188
861.671
856.123
850.553
844.97
839.383
833.801
828.232
822.683
817.162
811.678
806.243
800.867
795.566
790.358
785.258
780.313
775.495
770.123
11463.3
1939.85
764.495
479.755
375.818
329.452
305.877
292.717
284.932
280.6
278.872
278.907
281.704
287.286
295.622
306.457
319.474
334.7
351.775
370.1
389.053
408.029
426.456
444.046
461.088
477.75
491.579
499.988
504.188
505.582
505.621
503.887
500.891
497.326
493.547
489.756
485.982
482.209
478.412
474.628
470.955
467.549
464.593
462.267
460.817
460.275
460.606
462.039
464.401
467.675
471.837
476.857
482.686
489.224
496.315
504.122
512.635
521.804
531.568
541.87
552.677
563.945
575.59
587.559
599.806
612.281
624.928
637.713
650.568
663.386
676.098
688.633
700.959
713.059
724.919
736.529
747.892
759.026
769.968
780.751
791.387
801.883
812.245
822.47
832.54
842.433
852.125
861.596
870.842
879.86
888.648
897.207
905.534
913.624
921.474
929.078
936.436
943.546
950.409
957.025
963.39
969.503
975.36
980.959
986.302
991.388
996.22
1000.8
1005.12
1009.18
1012.99
1016.54
1019.84
1022.87
1025.65
1028.17
1030.44
1032.45
1034.2
1035.69
1036.93
1037.91
1038.62
1039.08
1039.28
1039.22
1038.91
1038.34
1037.52
1036.45
1035.14
1033.57
1031.77
1029.72
1027.43
1024.92
1022.17
1019.2
1016.02
1012.63
1009.03
1005.24
1001.25
997.087
992.744
988.23
983.555
978.724
973.746
968.627
963.374
957.992
952.492
946.888
941.191
935.41
929.554
923.63
917.644
911.604
905.514
899.381
893.211
887.012
880.794
874.568
868.345
862.133
855.94
849.773
843.638
837.545
831.501
825.521
819.617
813.807
808.102
802.542
797.12
791.007
11463.3
1879.97
740.994
477.371
383.165
341.23
320.572
309.569
303.678
301.082
300.544
302.428
306.885
313.584
322.236
332.522
344.177
356.947
370.464
384.327
398.122
411.748
425.348
438.671
450.132
458.128
463.724
467.461
469.5
470.29
470.419
469.728
468.49
466.968
465.284
463.495
461.632
459.732
457.871
456.186
454.903
454.137
453.899
454.319
455.551
457.581
460.335
463.628
467.767
472.861
478.919
485.922
493.839
502.648
512.378
522.938
534.297
546.38
559.112
572.423
586.255
600.534
615.166
630.078
645.227
660.551
675.901
691.153
706.201
720.992
735.458
749.535
763.182
776.376
789.111
801.392
813.248
824.744
835.98
847.075
858.025
868.847
879.573
890.192
900.669
910.959
921.013
930.8
940.329
949.596
958.6
967.339
975.809
984.006
991.925
999.561
1006.91
1013.98
1020.77
1027.29
1033.52
1039.46
1045.13
1050.51
1055.6
1060.42
1064.95
1069.21
1073.19
1076.9
1080.33
1083.49
1086.37
1088.98
1091.31
1093.37
1095.17
1096.7
1097.96
1098.94
1099.65
1100.1
1100.26
1100.16
1099.8
1099.16
1098.25
1097.08
1095.65
1093.96
1092.02
1089.81
1087.36
1084.65
1081.7
1078.51
1075.08
1071.42
1067.54
1063.45
1059.14
1054.63
1049.93
1045.04
1039.97
1034.73
1029.32
1023.76
1018.05
1012.19
1006.21
1000.1
993.866
987.538
981.122
974.627
968.058
961.423
954.729
947.982
941.19
934.358
927.491
920.595
913.688
906.783
899.887
893.01
886.159
879.338
872.557
865.82
859.137
852.522
845.989
839.554
833.225
827.033
821.009
814.191
11463.3
1846.24
738.522
483.643
394.136
354.645
335.262
325.048
319.804
317.677
317.406
319.736
324.285
330.551
338.112
346.639
355.917
365.732
375.836
386.067
396.565
406.697
415.384
422.529
428.354
433.394
437.351
440.461
442.92
444.923
446.644
448.17
449.456
450.526
451.437
452.241
452.996
453.758
454.588
455.502
456.39
457.66
459.639
462.572
466.538
471.463
477.357
484.338
492.365
501.458
511.628
522.842
535.049
548.213
562.314
577.278
593.154
609.734
626.866
644.434
662.336
680.462
698.701
716.939
735.043
752.89
770.433
787.578
804.22
820.261
835.601
850.185
863.985
877.031
889.36
900.972
911.927
922.368
932.502
942.775
952.968
963.107
973.315
983.542
993.686
1003.67
1013.44
1022.97
1032.23
1041.21
1049.9
1058.3
1066.41
1074.2
1081.69
1088.87
1095.72
1102.26
1108.5
1114.43
1120.05
1125.37
1130.38
1135.08
1139.48
1143.58
1147.38
1150.89
1154.11
1157.05
1159.7
1162.06
1164.14
1165.94
1167.45
1168.69
1169.67
1170.37
1170.78
1170.92
1170.8
1170.41
1169.72
1168.77
1167.54
1166.05
1164.29
1162.26
1159.97
1157.42
1154.61
1151.54
1148.21
1144.64
1140.81
1136.75
1132.45
1127.91
1123.16
1118.19
1113.02
1107.64
1102.06
1096.3
1090.36
1084.25
1077.98
1071.56
1064.99
1058.29
1051.46
1044.53
1037.51
1030.4
1023.21
1015.95
1008.61
1001.21
993.758
986.256
978.713
971.138
963.531
955.903
948.276
940.66
933.063
925.491
917.951
910.449
902.992
895.585
888.235
880.963
873.781
866.704
859.738
852.904
846.277
838.785
11463.3
1821.1
736.685
491.24
403.763
365.38
346.763
336.558
331.121
328.841
328.432
330.347
334.175
339.352
345.459
352.241
359.578
367.371
375.392
383.166
390.558
397.528
404.302
410.623
416.576
422.254
427.617
432.712
437.516
441.992
446.068
449.531
452.704
455.79
458.874
462.024
465.324
468.857
472.72
477.034
482.039
487.876
494.76
502.963
512.39
522.865
534.433
547.156
561
575.969
592.174
609.476
627.687
646.668
666.294
686.415
706.81
727.434
748.199
768.993
789.707
810.231
830.469
850.327
869.719
888.571
906.824
924.417
941.277
957.315
972.371
986.427
999.526
1011.79
1023.31
1034.15
1044.35
1053.93
1062.96
1071.65
1080.05
1088.42
1097.28
1106.36
1115.4
1124.29
1132.99
1141.47
1149.66
1157.55
1165.13
1172.41
1179.37
1186.01
1192.31
1198.28
1203.91
1209.2
1214.17
1218.84
1223.19
1227.22
1230.94
1234.34
1237.43
1240.22
1242.71
1244.92
1246.84
1248.48
1249.85
1250.93
1251.73
1252.26
1252.51
1252.49
1252.25
1251.73
1250.93
1249.88
1248.56
1246.98
1245.14
1243.03
1240.66
1238.04
1235.16
1232.03
1228.64
1225.01
1221.12
1216.99
1212.61
1207.99
1203.13
1198.04
1192.72
1187.19
1181.44
1175.48
1169.32
1162.98
1156.44
1149.73
1142.84
1135.79
1128.59
1121.25
1113.76
1106.15
1098.43
1090.61
1082.72
1074.75
1066.71
1058.59
1050.41
1042.16
1033.87
1025.54
1017.17
1008.79
1000.4
992.016
983.651
975.306
966.985
958.694
950.441
942.233
934.078
925.98
917.949
910.007
902.167
894.441
886.834
879.353
872.126
863.997
11463.3
1805.13
737.722
496.208
410.064
372.665
354.296
343.936
338.333
335.9
335.379
337.001
340.466
345.253
350.953
357.336
364.225
371.459
378.954
386.803
394.654
402.371
410.08
417.746
425.422
433.16
440.97
448.883
456.783
464.638
472.512
480.536
488.743
497.19
505.958
515.127
524.792
535.047
545.997
557.753
570.455
584.132
598.779
614.259
630.564
647.819
666.075
685.384
705.707
726.876
748.653
771.117
794.142
817.459
840.878
864.215
887.306
910.023
932.257
953.894
974.858
995.089
1014.55
1033.22
1051.07
1068.09
1084.3
1099.69
1114.27
1128.05
1141.06
1153.31
1164.61
1175.23
1185.29
1194.89
1204.01
1212.52
1220.39
1227.41
1234.08
1240.85
1247.92
1254.98
1261.87
1268.52
1274.91
1281.03
1286.86
1292.39
1297.62
1302.57
1307.23
1311.59
1315.63
1319.35
1322.76
1325.86
1328.68
1331.23
1333.5
1335.48
1337.18
1338.6
1339.74
1340.62
1341.24
1341.62
1341.73
1341.61
1341.29
1340.68
1339.84
1338.76
1337.45
1335.91
1334.15
1332.17
1329.95
1327.5
1324.82
1321.91
1318.77
1315.39
1311.78
1307.95
1303.88
1299.6
1295.09
1290.35
1285.38
1280.2
1274.78
1269.15
1263.31
1257.25
1250.98
1244.52
1237.86
1231.01
1223.98
1216.78
1209.4
1201.85
1194.15
1186.29
1178.3
1170.16
1161.89
1153.51
1145
1136.4
1127.7
1118.92
1110.06
1101.13
1092.13
1083.08
1073.98
1064.85
1055.68
1046.5
1037.33
1028.18
1019.04
1009.94
1000.85
991.809
982.806
973.857
964.97
956.164
947.457
938.854
930.361
921.991
913.747
905.629
897.808
889.088
11463.3
1789.33
737.444
498.322
413.086
377.893
360.094
350.379
346.144
344.644
345.077
347.997
352.619
358.524
365.608
374.082
383.257
392.828
403.302
414.908
427.254
439.867
453.138
467.125
481.809
497.196
513.251
529.945
547.272
565.253
583.888
603.19
623.055
643.434
664.339
685.792
707.876
730.703
754.284
778.512
803.299
828.51
854.012
879.65
905.366
931.226
957.287
983.859
1010.97
1037.9
1064.21
1089.56
1113.86
1137.15
1159.36
1180.45
1200.33
1218.95
1236.28
1252.35
1267.19
1280.86
1293.39
1304.88
1315.37
1324.92
1333.6
1341.49
1348.66
1355.22
1361.4
1367.32
1373.07
1378.59
1383.82
1388.71
1393.27
1397.28
1400.96
1404.55
1408.54
1412.74
1416.45
1419.73
1422.63
1425.25
1427.64
1429.82
1431.81
1433.61
1435.22
1436.62
1437.8
1438.75
1439.48
1439.99
1440.29
1440.36
1440.26
1439.98
1439.48
1438.78
1437.88
1436.78
1435.49
1434.02
1432.37
1430.56
1428.56
1426.4
1424.07
1421.56
1418.88
1416.02
1412.99
1409.8