/*--------------------------------*- C++ -*----------------------------------*\
  =========                 |
  \\      /  F ield         | OpenFOAM: The Open Source CFD Toolbox
   \\    /   O peration     | Website:  https://openfoam.org
    \\  /    A nd           | Version:  8
     \\/     M anipulation  |
\*---------------------------------------------------------------------------*/
FoamFile
{
    version     2.0;
    format      ascii;
    class       volScalarField;
    location    "1000";
    object      k;
}
// * * * * * * * * * * * * * * * * * * * * * * * * * * * * * * * * * * * * * //

dimensions      [0 2 -2 0 0 0 0];

internalField   nonuniform List<scalar> 
12225
(
0.694472
1.29222
1.54707
2.01118
1.04554
3.20965
2.44769
2.76656
2.15427
1.56914
2.98007
3.28602
3.14357
2.49428
1.69849
1.55414
1.44906
1.42395
0.394018
0.425273
0.50348
0.543448
0.539662
0.606817
0.642506
0.677842
0.690602
0.720416
0.762862
0.797393
0.898811
0.897887
0.882901
0.908652
0.929862
0.944292
0.377324
0.37606
0.379608
0.38132
0.382413
0.380568
0.375676
0.374758
0.368826
0.368545
0.362735
0.363857
0.366168
0.368324
0.369801
0.376061
0.379601
0.386342
0.375024
0.371738
0.368848
0.367834
0.367188
0.364788
0.361885
0.358222
0.354126
0.349199
0.344698
0.339782
0.335756
0.331844
0.328375
0.325622
0.322835
0.320556
0.374509
0.371362
0.368843
0.367007
0.365631
0.363509
0.361499
0.358835
0.356271
0.352985
0.350045
0.34664
0.343677
0.340546
0.337818
0.335026
0.332587
0.329943
0.374171
0.371516
0.369197
0.367142
0.365484
0.363563
0.361806
0.359723
0.357774
0.355473
0.353354
0.351
0.34887
0.346623
0.344621
0.342521
0.340667
0.338647
0.373974
0.371591
0.369413
0.367338
0.365525
0.36368
0.361988
0.360188
0.358496
0.356674
0.354959
0.353153
0.351472
0.349743
0.348157
0.346529
0.345044
0.343482
0.373894
0.371596
0.369462
0.367413
0.365546
0.363718
0.362024
0.360327
0.358726
0.357096
0.35555
0.353981
0.352502
0.351015
0.349628
0.348232
0.346935
0.345607
0.373858
0.371587
0.369463
0.36743
0.365539
0.363719
0.362016
0.360359
0.358794
0.357253
0.355789
0.354343
0.352971
0.351619
0.350342
0.349081
0.347895
0.346707
0.373841
0.371577
0.369448
0.367421
0.365514
0.363694
0.36198
0.360337
0.358782
0.357281
0.355856
0.354475
0.353162
0.351887
0.350677
0.349501
0.348385
0.347292
0.373833
0.371569
0.369431
0.367402
0.365484
0.363661
0.361936
0.360292
0.358734
0.357245
0.35583
0.354474
0.353182
0.351944
0.350764
0.34963
0.348549
0.347509
0.37383
0.371562
0.369417
0.367384
0.365458
0.363629
0.361896
0.360247
0.358681
0.35719
0.355772
0.35442
0.353132
0.351902
0.350729
0.34961
0.34854
0.347518
0.373827
0.371558
0.369407
0.367369
0.365437
0.363603
0.361863
0.360208
0.358636
0.35714
0.355716
0.35436
0.353068
0.351836
0.350661
0.349541
0.348472
0.347452
0.373826
0.371554
0.3694
0.367358
0.365422
0.363584
0.361838
0.360179
0.358601
0.3571
0.355671
0.354311
0.353013
0.351778
0.350598
0.349475
0.348401
0.347378
0.373826
0.371552
0.369395
0.367351
0.365411
0.363569
0.36182
0.360156
0.358575
0.35707
0.355637
0.354272
0.352971
0.351732
0.350549
0.349421
0.348345
0.347318
0.373825
0.37155
0.369392
0.367345
0.365403
0.363559
0.361807
0.360141
0.358556
0.357048
0.355612
0.354244
0.352941
0.351698
0.350513
0.349382
0.348303
0.347274
0.373825
0.371549
0.369391
0.367342
0.365399
0.363553
0.361799
0.360131
0.358544
0.357034
0.355596
0.354226
0.352921
0.351676
0.35049
0.349357
0.348276
0.347245
0.373825
0.371549
0.36939
0.367341
0.365398
0.36355
0.361796
0.360126
0.35854
0.357028
0.35559
0.354218
0.352913
0.351667
0.35048
0.349346
0.348265
0.347233
0.373825
0.37155
0.369391
0.367343
0.365398
0.363553
0.361797
0.36013
0.358542
0.357032
0.355592
0.354223
0.352915
0.351671
0.350482
0.34935
0.348268
0.347236
0.373826
0.371551
0.369393
0.367346
0.365404
0.363558
0.361806
0.360138
0.358552
0.357042
0.355605
0.354234
0.352929
0.351684
0.350498
0.349365
0.348284
0.347253
0.373826
0.371553
0.369397
0.367352
0.365411
0.363568
0.361817
0.360151
0.358567
0.357059
0.355623
0.354255
0.352951
0.351708
0.350522
0.34939
0.34831
0.347277
0.373827
0.371555
0.369403
0.367361
0.365423
0.363581
0.361828
0.360164
0.358578
0.357073
0.355638
0.354274
0.352972
0.351731
0.350543
0.349408
0.34832
0.347278
0.373827
0.371561
0.369415
0.367376
0.365428
0.363571
0.361797
0.360115
0.358521
0.357013
0.355581
0.354221
0.352923
0.351678
0.35048
0.34932
0.348199
0.347113
0.37383
0.371577
0.369444
0.367368
0.365355
0.363389
0.361511
0.359749
0.358102
0.356575
0.355139
0.353795
0.3525
0.351247
0.35002
0.348793
0.347584
0.346387
0.373873
0.371606
0.369463
0.367182
0.364897
0.362501
0.360294
0.358249
0.356448
0.354839
0.353396
0.352095
0.35085
0.349649
0.34843
0.347104
0.345756
0.344381
0.374107
0.37156
0.369337
0.366403
0.36343
0.359712
0.35673
0.353736
0.351547
0.349418
0.348072
0.346564
0.345648
0.344673
0.344001
0.342525
0.341352
0.339933
0.374983
0.371199
0.368656
0.364731
0.359876
0.352372
0.347296
0.341064
0.33777
0.332946
0.331952
0.327099
0.326409
0.325903
0.330898
0.326244
0.329988
0.330808
0.377649
0.371611
0.369897
0.365654
0.353352
0.340899
0.329292
0.324334
0.31925
0.319472
0.319667
0.324132
0.317349
0.32367
0.319194
0.320685
0.322509
0.325818
0.394042
0.397507
0.417008
0.436664
0.45035
0.474396
0.471539
0.481562
0.476895
0.48416
0.499718
0.516071
0.534878
0.550001
0.565721
0.578139
0.59056
0.599258
0.726105
1.08807
1.34206
1.48311
1.55677
1.56726
1.56033
1.53987
1.50638
1.47074
1.4363
1.4042
1.37503
1.34864
1.32494
1.30356
1.2842
1.26701
1.89712e-08
4.66588e-07
2.3755e-06
9.34148e-06
3.11542e-05
9.49783e-05
0.000245585
0.000485832
0.000784398
0.00109916
0.00138118
0.0016008
0.00174783
0.001805
0.00178363
0.00171442
0.00157961
0.00135686
0.00115688
0.00098514
0.000822564
0.000664662
0.000511842
0.000369806
0.000242399
0.000142863
7.61962e-05
3.83966e-05
1.94888e-05
1.05711e-05
6.34245e-06
4.81596e-06
4.77574e-06
1.09024e-05
1.97044e-05
0.000144291
0.000280923
0.000677692
0.00105548
0.00118625
0.00110306
0.000890702
0.000748501
0.000744546
0.000818282
0.0010953
0.00144627
0.00290562
0.00661405
0.0206777
0.05562
0.0998375
0.132878
0.148001
0.15834
0.165818
0.169638
0.175534
0.168476
0.156038
0.171376
0.140827
0.169603
0.171399
0.18296
0.191035
0.199562
0.207993
0.215993
0.224089
0.231866
0.239664
0.247262
0.25483
0.262267
0.269648
0.276932
0.284148
0.291283
0.29834
0.305323
0.31222
0.319043
0.325773
0.332427
0.338979
0.345449
0.35181
0.358074
0.364218
0.370243
0.376138
0.381896
0.387501
0.392945
0.398212
0.4033
0.408205
0.412942
0.417548
0.4221
0.426456
0.430681
0.434756
0.438677
0.442448
0.446057
0.449508
0.452792
0.455911
0.458858
0.461634
0.464234
0.466657
0.468903
0.470969
0.472856
0.474561
0.476087
0.47743
0.478594
0.479576
0.480381
0.481005
0.481454
0.481724
0.481821
0.481779
0.481564
0.481301
0.480546
0.479995
0.478951
0.478035
0.476971
0.475764
0.474354
0.472682
0.470907
0.468963
0.466903
0.464711
0.462404
0.459982
0.457454
0.454823
0.452096
0.449282
0.446368
0.443393
0.440328
0.437183
0.434005
0.43072
0.427431
0.424075
0.420706
0.417314
0.413914
0.410514
0.40712
0.403738
0.400371
0.397023
0.393698
0.390404
0.387146
0.383934
0.380772
0.377667
0.374616
0.371615
0.368655
0.365699
0.362706
0.359586
0.356224
0.352292
0.347174
0.331163
8.29519e-08
2.32632e-06
1.5761e-05
6.86338e-05
0.000252988
0.000761545
0.00174614
0.00315965
0.00479784
0.00648131
0.00801841
0.00928252
0.0102153
0.0108081
0.0110934
0.011056
0.0108784
0.0105335
0.00994108
0.00912722
0.00809461
0.00689632
0.00558083
0.00425353
0.00295837
0.00196441
0.00124895
0.000773697
0.000470259
0.000287921
0.000182615
0.000138434
9.28077e-05
0.000178406
0.000166767
0.00153929
0.00299561
0.00654016
0.00974941
0.0116463
0.0117314
0.0114382
0.0115248
0.0129643
0.0168305
0.0224048
0.0325657
0.0502024
0.0769761
0.102587
0.128314
0.147971
0.162571
0.174842
0.18877
0.204612
0.22207
0.239614
0.257156
0.274183
0.295502
0.312576
0.334967
0.353399
0.373287
0.392266
0.41111
0.429698
0.448026
0.466202
0.484181
0.502042
0.51977
0.537404
0.554942
0.572403
0.589787
0.6071
0.624341
0.641508
0.658601
0.675611
0.692538
0.70937
0.726108
0.742735
0.759253
0.775644
0.791902
0.808009
0.823953
0.839723
0.8553
0.870659
0.885775
0.900618
0.915157
0.929356
0.943177
0.956578
0.969539
0.982312
0.994778
1.00699
1.0189
1.03052
1.04183
1.05281
1.06347
1.07378
1.08373
1.09333
1.10255
1.11139
1.11983
1.12789
1.13553
1.14277
1.14959
1.15599
1.16197
1.16751
1.17263
1.1773
1.18154
1.18534
1.1887
1.19162
1.19409
1.19616
1.19775
1.19897
1.19957
1.19992
1.20007
1.19988
1.1994
1.19873
1.19762
1.1961
1.19421
1.19195
1.18933
1.18635
1.18303
1.17938
1.17541
1.17113
1.16653
1.16166
1.15649
1.15106
1.14535
1.1394
1.13322
1.12683
1.12026
1.11352
1.10665
1.09965
1.09256
1.08537
1.0781
1.07076
1.06336
1.0559
1.04842
1.04091
1.03341
1.02592
1.01844
1.01098
1.0035
0.995969
0.988311
0.980409
0.97205
0.962907
0.95106
0.924067
2.21495e-07
6.64125e-06
5.06287e-05
0.000241518
0.00073013
0.0020503
0.0041312
0.00655141
0.00897612
0.0111749
0.0130096
0.0144236
0.0154153
0.0160086
0.0162699
0.0162326
0.0160485
0.0156836
0.0151399
0.0144619
0.0136438
0.0126796
0.0115501
0.010259
0.00881838
0.00718272
0.00549098
0.00397963
0.0026699
0.00177588
0.00121367
0.000920605
0.000656554
0.000998
0.00149069
0.00611083
0.013187
0.021714
0.0282038
0.0321311
0.0338801
0.0365973
0.0440287
0.0600002
0.0777927
0.0962512
0.117194
0.138992
0.159446
0.181242
0.202465
0.223884
0.246393
0.270975
0.297872
0.325394
0.354013
0.383417
0.412103
0.440733
0.469497
0.49713
0.524751
0.551208
0.577339
0.602843
0.627904
0.652565
0.676892
0.700943
0.724756
0.748377
0.771827
0.795135
0.818315
0.841377
0.864328
0.887171
0.909906
0.932529
0.955037
0.977422
0.999678
1.0218
1.04377
1.06558
1.08723
1.1087
1.12998
1.15105
1.1719
1.19252
1.2129
1.23303
1.25288
1.27244
1.2917
1.31064
1.32927
1.34758
1.36558
1.38324
1.40053
1.41746
1.43398
1.4501
1.46578
1.48103
1.49581
1.51013
1.52395
1.53728
1.55009
1.56238
1.57414
1.58535
1.596
1.6061
1.61562
1.62457
1.63294
1.64072
1.64791
1.65451
1.66052
1.66593
1.67075
1.67496
1.67859
1.68162
1.68405
1.68593
1.68714
1.68781
1.68808
1.68788
1.68708
1.68576
1.6839
1.68149
1.67856
1.6751
1.67115
1.6667
1.66178
1.65639
1.65055
1.64427
1.63757
1.63045
1.62294
1.61507
1.6068
1.5982
1.58927
1.58005
1.57056
1.56084
1.5509
1.54079
1.53052
1.52011
1.50958
1.49893
1.48819
1.47737
1.46649
1.45557
1.44465
1.43373
1.42283
1.41196
1.4011
1.39023
1.37929
1.36821
1.35679
1.3448
1.33033
1.30522
8.13295e-07
2.44738e-05
0.000192836
0.000785415
0.00231846
0.00541599
0.0090972
0.012677
0.0157826
0.0182374
0.0200065
0.021131
0.0217238
0.0218354
0.0217021
0.0213458
0.020778
0.0200947
0.0193264
0.0184892
0.0175846
0.0166083
0.0155431
0.0143672
0.0130618
0.0116034
0.0100113
0.00834908
0.0067874
0.00524385
0.00413738
0.00301848
0.0030727
0.0044517
0.0108129
0.0247184
0.0393967
0.0512155
0.0603174
0.0688649
0.0794001
0.0930889
0.109016
0.12463
0.140827
0.158246
0.178736
0.200633
0.22442
0.250475
0.278006
0.307475
0.338638
0.371269
0.404808
0.4387
0.472933
0.506888
0.540393
0.573446
0.606064
0.637918
0.669271
0.699927
0.730103
0.759796
0.78909
0.818044
0.846711
0.87514
0.903369
0.931431
0.959352
0.987147
1.01483
1.04241
1.06988
1.09724
1.12449
1.15163
1.17864
1.20551
1.23223
1.2588
1.28519
1.3114
1.33742
1.36322
1.3888
1.41414
1.43923
1.46406
1.48862
1.51289
1.53687
1.56053
1.58386
1.60685
1.62948
1.65175
1.67362
1.69508
1.71609
1.73664
1.75671
1.77628
1.79532
1.81381
1.83174
1.8491
1.86585
1.88199
1.8975
1.91237
1.92658
1.94012
1.95299
1.96516
1.97664
1.98741
1.99748
2.00683
2.01546
2.02336
2.03054
2.037
2.04273
2.04773
2.052
2.05555
2.05838
2.06051
2.06185
2.06249
2.06263
2.06209
2.06082
2.05889
2.0563
2.05305
2.04916
2.04465
2.03952
2.03379
2.02747
2.02059
2.01316
2.00519
1.99671
1.98772
1.97826
1.96834
1.95797
1.94718
1.93599
1.92444
1.91256
1.90038
1.88794
1.87526
1.86239
1.84934
1.83613
1.82278
1.80931
1.79573
1.78207
1.76837
1.75465
1.74093
1.72724
1.71359
1.69999
1.68643
1.67289
1.65934
1.64563
1.63162
1.61568
1.59241
2.77288e-06
8.31655e-05
0.000621587
0.00237049
0.00648203
0.0119979
0.0171158
0.0211978
0.0240847
0.0258797
0.0268029
0.0270531
0.0269012
0.0264556
0.0257471
0.0249164
0.0240152
0.0230808
0.0221344
0.0211842
0.0202261
0.0192502
0.0182385
0.0171676
0.0160109
0.0147365
0.0133388
0.0118638
0.0104099
0.00892151
0.00740461
0.00765532
0.0111481
0.0227338
0.0430606
0.063001
0.0798484
0.0931767
0.104465
0.115464
0.127139
0.139766
0.153384
0.168884
0.187629
0.209324
0.233935
0.261184
0.290648
0.322035
0.354878
0.389048
0.424188
0.460011
0.496212
0.532577
0.568992
0.605201
0.641135
0.676731
0.711963
0.746725
0.78108
0.815
0.848556
0.881778
0.914714
0.947406
0.979897
1.01222
1.04441
1.07648
1.10847
1.14036
1.17218
1.20392
1.23557
1.26713
1.2986
1.32995
1.36117
1.39225
1.42318
1.45393
1.48449
1.51485
1.545
1.5749
1.60456
1.63394
1.66305
1.69186
1.72037
1.74856
1.77641
1.8039
1.83102
1.85774
1.88404
1.9099
1.9353
1.96021
1.98459
2.00844
2.03173
2.05442
2.0765
2.09794
2.11872
2.13882
2.15822
2.1769
2.19485
2.21204
2.22846
2.2441
2.25894
2.27298
2.2862
2.29859
2.31015
2.32088
2.33076
2.3398
2.34799
2.35534
2.36183
2.36748
2.37227
2.37622
2.37933
2.38162
2.38298
2.38353
2.38347
2.38255
2.38082
2.3783
2.37502
2.37098
2.36619
2.36068
2.35445
2.34753
2.33993
2.33167
2.32277
2.31324
2.30312
2.29243
2.28117
2.26939
2.25709
2.2443
2.23104
2.21736
2.2033
2.18888
2.17415
2.15915
2.1439
2.12844
2.11279
2.09697
2.081
2.06491
2.04873
2.03248
2.0162
1.99993
1.98369
1.96752
1.95143
1.93542
1.91952
1.90373
1.88797
1.87213
1.85486
1.83224
8.87371e-06
0.000259419
0.00184336
0.00651115
0.0145304
0.0215359
0.0264917
0.0295297
0.0311068
0.0316838
0.0315974
0.0311432
0.030302
0.0292824
0.0281688
0.0270251
0.0258936
0.0248007
0.0237575
0.0227631
0.0218069
0.0208728
0.0199358
0.0189651
0.0179297
0.0167676
0.0154274
0.013879
0.0124276
0.0122876
0.0142799
0.0222717
0.0397726
0.0638456
0.0873001
0.10645
0.120581
0.130952
0.139845
0.149137
0.159815
0.173335
0.190259
0.210471
0.234239
0.26111
0.290537
0.321946
0.354848
0.388959
0.424015
0.459852
0.496293
0.533198
0.570438
0.607921
0.645558
0.683232
0.72087
0.758404
0.795786
0.832967
0.869945
0.906711
0.943285
0.979686
1.01594
1.05207
1.08811
1.12409
1.16001
1.1959
1.23177
1.26761
1.30342
1.3392
1.37494
1.41061
1.4462
1.48169
1.51706
1.5523
1.58737
1.62227
1.65696
1.69143
1.72566
1.75964
1.79333
1.82672
1.8598
1.89255
1.92496
1.95701
1.98867
2.01992
2.05074
2.08111
2.11099
2.14036
2.1692
2.19747
2.22515
2.25222
2.27864
2.30438
2.32943
2.35374
2.3773
2.40009
2.42207
2.44322
2.46354
2.48298
2.50155
2.51922
2.53599
2.55182
2.56672
2.58068
2.59368
2.60573
2.61681
2.62692
2.63607
2.64425
2.65146
2.6577
2.66296
2.66727
2.67061
2.67301
2.67435
2.67481
2.67449
2.6732
2.671
2.6679
2.66394
2.65911
2.65344
2.64695
2.63964
2.63156
2.6227
2.6131
2.60277
2.59174
2.58003
2.56767
2.55468
2.54109
2.52692
2.5122
2.49695
2.48122
2.46505
2.44848
2.43155
2.4143
2.39676
2.37898
2.36098
2.34279
2.32442
2.30591
2.28728
2.26858
2.24984
2.23111
2.21242
2.19381
2.17531
2.15695
2.13877
2.12079
2.10299
2.08531
2.06658
2.04365
2.85496e-05
0.000780203
0.00500178
0.015173
0.0247161
0.0307755
0.0340892
0.03564
0.0360671
0.0358153
0.035055
0.033907
0.0325627
0.0311297
0.0296891
0.0282993
0.0269955
0.0257948
0.0246975
0.0236928
0.0227615
0.0218748
0.0209959
0.0200745
0.0191528
0.0183057
0.0177103
0.0178002
0.0196839
0.0256521
0.0386446
0.0602006
0.0846875
0.107696
0.126298
0.139347
0.148296
0.155678
0.163646
0.174455
0.188865
0.206951
0.228765
0.253953
0.282079
0.312412
0.344351
0.377482
0.411548
0.446408
0.481958
0.518135
0.554883
0.592152
0.629893
0.668057
0.706578
0.745374
0.784379
0.823531
0.862776
0.902071
0.941389
0.980713
1.02004
1.05937
1.09872
1.1381
1.17752
1.217
1.25654
1.29616
1.33584
1.37558
1.41536
1.45518
1.495
1.5348
1.57455
1.61422
1.65379
1.69323
1.7325
1.77159
1.81047
1.84911
1.88749
1.92558
1.96337
2.00082
2.03792
2.07465
2.111
2.14694
2.18244
2.21747
2.25202
2.28605
2.31953
2.35244
2.38474
2.41641
2.44741
2.47771
2.50728
2.5361
2.56412
2.59132
2.61768
2.64315
2.66771
2.69135
2.71403
2.73574
2.75645
2.77615
2.79482
2.81244
2.82901
2.84451
2.85893
2.87228
2.88454
2.89571
2.90578
2.91477
2.92266
2.92946
2.93517
2.93979
2.94334
2.94582
2.94711
2.94746
2.94685
2.94518
2.94248
2.93879
2.93412
2.9285
2.92193
2.91444
2.90606
2.8968
2.88668
2.87573
2.86397
2.85144
2.83814
2.82412
2.8094
2.79401
2.77798
2.76134
2.74411
2.72634
2.70808
2.68938
2.67027
2.6508
2.631
2.61093
2.59061
2.57006
2.54932
2.5284
2.50736
2.48624
2.46507
2.4439
2.42279
2.40177
2.38088
2.36017
2.3397
2.31952
2.29963
2.27999
2.25957
2.23568
8.59056e-05
0.00214919
0.0118321
0.0254125
0.0336769
0.0380163
0.0400332
0.0406024
0.0402737
0.0392929
0.0378392
0.0361397
0.0343328
0.0325289
0.030808
0.0292237
0.0278014
0.0265459
0.0254462
0.0244835
0.0236351
0.0228731
0.0221282
0.0214547
0.0209971
0.0212434
0.023126
0.0282695
0.0394279
0.0573725
0.0792709
0.10148
0.12199
0.138565
0.150293
0.158375
0.165359
0.173904
0.185505
0.200846
0.220027
0.242761
0.268639
0.297039
0.327325
0.35892
0.391474
0.42481
0.458848
0.49356
0.528935
0.564975
0.601685
0.639061
0.677083
0.715714
0.754908
0.79461
0.834761
0.875305
0.916187
0.957362
0.998795
1.04046
1.08234
1.12442
1.16671
1.2092
1.2519
1.29481
1.33792
1.38123
1.42472
1.46838
1.51217
1.55608
1.60006
1.64406
1.68807
1.73202
1.77588
1.81962
1.86321
1.9066
1.94977
1.99268
2.03531
2.07762
2.11959
2.16119
2.2024
2.24319
2.28356
2.32346
2.36286
2.40175
2.44009
2.47785
2.51499
2.55149
2.58731
2.62242
2.65678
2.69036
2.72313
2.75505
2.78608
2.8162
2.84537
2.87355
2.90071
2.92684
2.95189
2.97586
2.99871
3.02043
3.04099
3.06039
3.0786
3.09563
3.11145
3.12606
3.13947
3.15165
3.16263
3.17238
3.18092
3.18824
3.19435
3.19925
3.20295
3.20546
3.20668
3.20687
3.20592
3.20383
3.20061
3.19628
3.19088
3.18442
3.17692
3.16841
3.15891
3.14845
3.13704
3.12472
3.11151
3.09744
3.08255
3.06685
3.05038
3.03318
3.01528
2.9967
2.97748
2.95767
2.93733
2.91649
2.8952
2.87351
2.85147
2.82911
2.80646
2.78357
2.76045
2.73715
2.7137
2.69015
2.66655
2.64296
2.61942
2.59599
2.5727
2.54964
2.52684
2.5044
2.48233
2.46062
2.4383
2.41297
0.00022323
0.00507089
0.0214673
0.0345415
0.0412185
0.0443376
0.0454223
0.0452279
0.0441896
0.0425129
0.0404791
0.038274
0.0360492
0.0339255
0.0319872
0.0302863
0.028846
0.0276697
0.0267474
0.0260541
0.025622
0.0255419
0.0259737
0.0272251
0.0297986
0.034583
0.0432866
0.0569722
0.0741295
0.0932132
0.112416
0.129758
0.144005
0.154836
0.163257
0.171255
0.180911
0.193577
0.209851
0.229707
0.252809
0.278643
0.306645
0.336238
0.36695
0.398476
0.430682
0.463535
0.497048
0.531256
0.566199
0.601916
0.638439
0.675779
0.713931
0.752883
0.792602
0.83305
0.874178
0.915939
0.958281
1.00116
1.04454
1.08839
1.13268
1.1774
1.22252
1.26806
1.31398
1.36029
1.40697
1.454
1.50135
1.54899
1.59688
1.64498
1.69322
1.74156
1.78993
1.83829
1.88658
1.93476
1.98277
2.03059
2.07817
2.12547
2.17246
2.21911
2.26537
2.31121
2.35662
2.40156
2.44602
2.48996
2.53335
2.57615
2.61834
2.65988
2.70074
2.74088
2.78025
2.81884
2.85659
2.89347
2.92945
2.96448
2.99853
3.03156
3.06353
3.09441
3.12416
3.15275
3.18015
3.20635
3.2313
3.255
3.27742
3.29854
3.31835
3.33684
3.354
3.36982
3.38431
3.39745
3.40925
3.41971
3.42882
3.43659
3.44303
3.44813
3.45193
3.45439
3.45549
3.45543
3.4541
3.45151
3.4477
3.44268
3.43649
3.42914
3.42066
3.41107
3.40041
3.3887
3.37596
3.36223
3.34754
3.33192
3.31539
3.29799
3.27976
3.26073
3.24093
3.2204
3.19918
3.17732
3.15488
3.13191
3.10845
3.08456
3.06026
3.03562
3.01066
2.98542
2.95993
2.93424
2.90839
2.88243
2.85641
2.83039
2.80442
2.77857
2.75288
2.72743
2.70228
2.67753
2.65321
2.62931
2.60496
2.57787
0.000496185
0.010212
0.031134
0.0427249
0.0481478
0.0503962
0.0507656
0.0499192
0.0482079
0.045951
0.0433936
0.040749
0.0381925
0.0358606
0.0338465
0.0322077
0.030969
0.0301107
0.0296906
0.0295952
0.0300257
0.0312575
0.0339185
0.0388135
0.0466998
0.0578079
0.0715161
0.0868613
0.103053
0.118942
0.133416
0.145796
0.156159
0.165268
0.174563
0.185545
0.199321
0.216313
0.236464
0.259415
0.284698
0.311816
0.340308
0.369789
0.400002
0.430831
0.462263
0.494338
0.527118
0.560672
0.59507
0.630366
0.6666
0.703803
0.741988
0.781155
0.821292
0.862371
0.904359
0.947216
0.990901
1.03538
1.0806
1.12654
1.17317
1.22047
1.26841
1.31697
1.36614
1.41589
1.46619
1.51702
1.56832
1.62005
1.67215
1.72455
1.77719
1.82999
1.88288
1.93578
1.98863
2.04137
2.09394
2.1463
2.19841
2.25021
2.30166
2.35272
2.40336
2.45353
2.50321
2.55237
2.60098
2.64902
2.69643
2.74319
2.78926
2.83461
2.87919
2.92297
2.9659
3.00795
3.04907
3.08923
3.12838
3.16648
3.2035
3.23939
3.27411
3.30762
3.33988
3.37086
3.40053
3.42887
3.45584
3.48142
3.5056
3.52834
3.54965
3.5695
3.58789
3.60481
3.62027
3.63426
3.64678
3.65783
3.66741
3.67552
3.68217
3.68738
3.69115
3.69348
3.69437
3.69395
3.69214
3.68898
3.68449
3.6787
3.67163
3.66332
3.65378
3.64306
3.63117
3.61815
3.60404
3.58885
3.57264
3.55542
3.53723
3.5181
3.49808
3.47719
3.45548
3.43298
3.40975
3.38584
3.3613
3.3362
3.31058
3.28448
3.25795
3.23103
3.20377
3.17619
3.14835
3.12027
3.09203
3.06367
3.03524
3.00681
2.97843
2.95016
2.92206
2.89421
2.86669
2.83959
2.81295
2.78681
2.76032
2.73155
0.000940465
0.0174926
0.0395042
0.0501227
0.0548699
0.0565562
0.0564044
0.0550007
0.0527655
0.0500337
0.047088
0.0441743
0.0414934
0.0392011
0.0374099
0.0362062
0.0356918
0.0356996
0.0364768
0.038215
0.0412213
0.045809
0.0522234
0.0606336
0.0709731
0.082977
0.0960887
0.109546
0.122654
0.134881
0.146003
0.156158
0.166001
0.176534
0.188787
0.203475
0.2209
0.240969
0.263377
0.287731
0.313637
0.340736
0.368734
0.397423
0.4267
0.45655
0.487021
0.518192
0.55015
0.582989
0.616781
0.651597
0.68749
0.724505
0.76267
0.802002
0.842502
0.88416
0.926956
0.970866
1.01586
1.0619
1.10895
1.15699
1.20598
1.25589
1.3067
1.35836
1.41086
1.46415
1.5182
1.57295
1.62833
1.68429
1.74073
1.79758
1.85475
1.91215
1.96968
2.02725
2.08478
2.14219
2.19942
2.25642
2.31313
2.36951
2.42549
2.48103
2.53608
2.59061
2.64459
2.69799
2.75077
2.80289
2.85432
2.90501
2.95493
3.00404
3.05229
3.09964
3.14606
3.19148
3.23588
3.2792
3.32141
3.36247
3.40233
3.44094
3.47826
3.51426
3.54888
3.58209
3.61387
3.64419
3.67301
3.70031
3.72606
3.75026
3.77288
3.79391
3.81336
3.83121
3.84747
3.86214
3.87521
3.88668
3.89656
3.90485
3.91157
3.91671
3.92031
3.92237
3.92292
3.92201
3.9196
3.91575
3.91047
3.9038
3.89576
3.8864
3.87572
3.86378
3.85059
3.8362
3.82065
3.80396
3.78617
3.76732
3.74744
3.72657
3.70474
3.68198
3.65834
3.63387
3.60862
3.58266
3.55605
3.52884
3.50108
3.47281
3.44407
3.41491
3.38537
3.35549
3.32532
3.2949
3.2643
3.23358
3.20278
3.17197
3.1412
3.11054
3.08005
3.0498
3.0199
2.99044
2.96147
2.93303
2.90435
2.87372
0.00149718
0.0248864
0.047559
0.0576948
0.0619593
0.0631962
0.0626229
0.0607897
0.0581709
0.0551585
0.0520822
0.0492209
0.0468035
0.0450029
0.0440618
0.0438472
0.0444711
0.0460284
0.0486662
0.0525329
0.057749
0.064372
0.0723556
0.0815675
0.0917856
0.102665
0.11381
0.124849
0.135572
0.145933
0.156145
0.166708
0.178298
0.19153
0.206834
0.224362
0.244029
0.265589
0.288747
0.313204
0.338699
0.36502
0.392011
0.419588
0.447733
0.476489
0.505936
0.536172
0.5673
0.599414
0.632604
0.66695
0.702518
0.739367
0.777538
0.817064
0.857962
0.90024
0.943897
0.988922
1.0353
1.08299
1.13198
1.18224
1.23372
1.28639
1.34021
1.39515
1.45115
1.50818
1.56616
1.62502
1.68469
1.74504
1.80599
1.86744
1.92928
1.9914
2.05368
2.11601
2.17829
2.24044
2.30238
2.36405
2.4254
2.48635
2.54684
2.60683
2.66627
2.72511
2.78333
2.84089
2.89775
2.95387
3.00921
3.06371
3.11734
3.17006
3.22182
3.27258
3.32229
3.3709
3.41836
3.46464
3.50968
3.55346
3.59591
3.637
3.67668
3.71489
3.75161
3.7868
3.82042
3.85244
3.88284
3.91159
3.93866
3.96403
3.9877
4.00965
4.02989
4.04841
4.06522
4.08031
4.09369
4.10536
4.11531
4.12356
4.13012
4.135
4.13824
4.13984
4.13985
4.1383
4.13513
4.13044
4.12423
4.11655
4.10743
4.09689
4.08498
4.07173
4.05717
4.04134
4.02428
4.00603
3.98663
3.96612
3.94453
3.92189
3.89825
3.87362
3.84806
3.82163
3.7944
3.76643
3.73779
3.70851
3.67866
3.64828
3.61739
3.58605
3.55429
3.52217
3.48972
3.45703
3.42415
3.39113
3.35803
3.3249
3.29181
3.25881
3.22597
3.19337
3.16113
3.12932
3.09802
3.06729
3.0364
3.00387
0.00223746
0.0316139
0.0550564
0.0652158
0.0693207
0.0703319
0.0694689
0.0673244
0.0644857
0.0614366
0.058561
0.0561514
0.0544452
0.0536825
0.0536381
0.0546107
0.0565538
0.0595219
0.0635463
0.0686351
0.0747667
0.0818726
0.0898285
0.0984682
0.107611
0.117088
0.126777
0.13661
0.146643
0.157087
0.168292
0.180652
0.19451
0.210072
0.227396
0.246394
0.26689
0.28867
0.31153
0.335288
0.359801
0.384969
0.410734
0.437088
0.464066
0.491743
0.520213
0.549583
0.57996
0.611448
0.644145
0.678142
0.71352
0.750349
0.788685
0.828571
0.870042
0.913127
0.95784
1.00419
1.05216
1.10174
1.15292
1.20566
1.25992
1.31567
1.37284
1.43138
1.49122
1.5523
1.61453
1.6778
1.742
1.80697
1.87259
1.93875
2.00532
2.07219
2.13922
2.2063
2.2733
2.34015
2.40675
2.47303
2.53892
2.60433
2.6692
2.73349
2.79715
2.86013
2.9224
2.98392
3.04465
3.10453
3.16352
3.22157
3.27863
3.33467
3.38964
3.44348
3.49615
3.5476
3.59778
3.64664
3.69414
3.74025
3.78491
3.82808
3.86971
3.90975
3.94816
3.98491
4.01997
4.0533
4.08488
4.11468
4.14268
4.16886
4.19319
4.21569
4.23636
4.25519
4.2722
4.28738
4.30074
4.31229
4.32201
4.32993
4.33605
4.3404
4.34302
4.34393
4.3432
4.34078
4.33666
4.33094
4.32364
4.3148
4.30445
4.29263
4.27936
4.2647
4.24868
4.23133
4.21271
4.19285
4.1718
4.1496
4.1263
4.10191
4.07648
4.04999
4.02254
3.9942
3.96505
3.93514
3.90453
3.87327
3.84142
3.809
3.77607
3.74265
3.70877
3.67449
3.63988
3.60502
3.56996
3.53476
3.49946
3.46413
3.42881
3.39356
3.35846
3.3236
3.28908
3.255
3.22142
3.18844
3.15537
3.12098
0.00308636
0.0376272
0.0625579
0.0729566
0.0769832
0.0778349
0.0767479
0.0743626
0.0713876
0.0684829
0.0661061
0.0645345
0.0638601
0.0638452
0.0648549
0.0668199
0.0697014
0.0734696
0.0780922
0.0835276
0.0897159
0.0965832
0.10405
0.112044
0.120519
0.129447
0.138855
0.148841
0.159565
0.171225
0.184029
0.198132
0.213615
0.230465
0.248607
0.267912
0.288241
0.309459
0.331455
0.354141
0.377466
0.401405
0.42597
0.451199
0.47716
0.503945
0.531659
0.56041
0.590302
0.621441
0.653935
0.687883
0.723377
0.7605
0.799325
0.839917
0.882332
0.926619
0.972812
1.02093
1.07098
1.12296
1.17685
1.23262
1.29022
1.34959
1.41068
1.47337
1.53758
1.60318
1.67005
1.73806
1.80702
1.87677
1.94713
2.01797
2.08917
2.16061
2.2322
2.30381
2.37533
2.44665
2.51768
2.58835
2.65853
2.72812
2.79704
2.86529
2.93282
2.99959
3.06553
3.13061
3.19479
3.258
3.3202
3.38132
3.44133
3.50018
3.55783
3.61423
3.66932
3.72306
3.77538
3.82626
3.87565
3.92351
3.9698
4.01447
4.05747
4.09875
4.13828
4.17602
4.21195
4.24602
4.27823
4.30855
4.33695
4.36341
4.38792
4.41049
4.43112
4.44981
4.46656
4.48139
4.49431
4.50531
4.51441
4.52161
4.52694
4.53044
4.53214
4.53208
4.53036
4.52678
4.52149
4.51454
4.50595
4.49578
4.48405
4.47079
4.45606
4.43988
4.42231
4.40338
4.38314
4.36163
4.33891
4.31502
4.29
4.26389
4.23672
4.20843
4.17917
4.14901
4.11803
4.08628
4.05382
4.02069
3.98696
3.95265
3.91781
3.88244
3.84657
3.81029
3.77368
3.7368
3.69972
3.66249
3.62516
3.58778
3.55037
3.51301
3.47579
3.43879
3.40212
3.36588
3.33014
3.29501
3.25985
3.22371
0.00401511
0.0439212
0.0699948
0.0806704
0.0846632
0.0853738
0.08393
0.0812509
0.0783417
0.0758968
0.0743172
0.0736611
0.0736224
0.0744537
0.0761851
0.0787718
0.0821482
0.0862654
0.0910817
0.0965638
0.102682
0.109418
0.11676
0.12471
0.133293
0.142565
0.152612
0.163522
0.175403
0.188338
0.202373
0.217515
0.233728
0.250939
0.269063
0.288011
0.307707
0.328093
0.349132
0.370811
0.393138
0.416138
0.439864
0.464389
0.489793
0.516156
0.543589
0.572207
0.602121
0.633449
0.666303
0.700796
0.737034
0.775116
0.815133
0.857168
0.901298
0.947594
0.996109
1.04687
1.0999
1.15517
1.21266
1.27233
1.33412
1.39796
1.46372
1.53128
1.60045
1.67106
1.7429
1.8158
1.88956
1.964
2.03891
2.11408
2.1894
2.26488
2.34046
2.41608
2.49156
2.56682
2.64178
2.7163
2.79024
2.86346
2.93593
3.00765
3.07853
3.14851
3.21753
3.28556
3.35254
3.41841
3.48311
3.54659
3.6088
3.66971
3.72927
3.78744
3.84416
3.89938
3.95306
4.00514
4.0556
4.1044
4.15151
4.19687
4.24045
4.2822
4.32206
4.36002
4.39606
4.43014
4.46225
4.49236
4.52047
4.54655
4.57061
4.59264
4.61262
4.63057
4.6465
4.66043
4.67236
4.68231
4.69028
4.69631
4.70042
4.70268
4.70309
4.7018
4.69863
4.69361
4.68687
4.67843
4.66833
4.65661
4.64331
4.62846
4.6121
4.59429
4.57506
4.55445
4.53252
4.50931
4.48487
4.45925
4.4325
4.40467
4.37579
4.34582
4.31488
4.28305
4.25039
4.21696
4.1828
4.14797
4.11251
4.07648
4.03991
4.0028
3.96514
3.92707
3.88866
3.84998
3.8111
3.77205
3.73288
3.69365
3.65436
3.61509
3.57593
3.53698
3.49836
3.46014
3.42239
3.38526
3.34815
3.31045
0.00496187
0.0499898
0.0771878
0.0881009
0.09203
0.092565
0.0907238
0.0879258
0.0853337
0.0835571
0.0827505
0.0826025
0.0832008
0.0845822
0.0867916
0.0897662
0.0934492
0.0978072
0.102821
0.108491
0.11482
0.121827
0.129541
0.138004
0.147266
0.157379
0.168394
0.180345
0.193243
0.207072
0.221823
0.237451
0.25389
0.271077
0.288967
0.307521
0.326725
0.34658
0.367095
0.3883
0.410242
0.432996
0.456668
0.481347
0.507037
0.533817
0.561879
0.591335
0.622295
0.654879
0.689207
0.725404
0.763588
0.803868
0.846346
0.891118
0.938271
0.987881
1.04002
1.09472
1.15194
1.21164
1.27376
1.33823
1.40499
1.47391
1.54487
1.61769
1.69211
1.76785
1.84451
1.92195
2.00003
2.0786
2.15745
2.23635
2.31522
2.39415
2.47308
2.55188
2.63038
2.70863
2.78662
2.86409
2.94089
3.01696
3.09221
3.16654
3.23986
3.3121
3.38321
3.45316
3.52187
3.5893
3.65538
3.72006
3.78331
3.84511
3.9054
3.96416
4.02133
4.07686
4.1307
4.18282
4.23319
4.28179
4.32859
4.37356
4.41663
4.45777
4.49693
4.53409
4.56924
4.60236
4.63344
4.66246
4.6894
4.71425
4.73701
4.75768
4.77626
4.79276
4.80721
4.81962
4.83
4.83836
4.84472
4.84909
4.85154
4.85213
4.851
4.84798
4.84305
4.83634
4.8279
4.81776
4.80596
4.79253
4.77753
4.76099
4.74294
4.72344
4.70253
4.68025
4.65665
4.63178
4.60569
4.57842
4.55004
4.52058
4.4901
4.45865
4.42626
4.39297
4.35886
4.32395
4.28831
4.25198
4.21502
4.17748
4.13939
4.10077
4.06162
4.02204
3.98213
3.94192
3.90149
3.86088
3.82015
3.77933
3.73842
3.69749
3.65666