/*--------------------------------*- C++ -*----------------------------------*\
| =========                 |                                                 |
| \\      /  F ield         | OpenFOAM: The Open Source CFD Toolbox           |
|  \\    /   O peration     | Version:  v2012                                 |
|   \\  /    A nd           | Website:  www.openfoam.com                      |
|    \\/     M anipulation  |                                                 |
\*---------------------------------------------------------------------------*/
FoamFile
{
    version     2.0;
    format      ascii;
    class       volScalarField;
    location    "1000";
    object      nut;
}
// * * * * * * * * * * * * * * * * * * * * * * * * * * * * * * * * * * * * * //

dimensions      [0 2 -1 0 0 0 0];


internalField   nonuniform List<scalar> 
12225
(
5.31282e-06
8.14267e-06
1.00352e-05
1.11545e-05
1.16629e-05
1.18323e-05
1.18656e-05
1.17386e-05
1.15649e-05
1.13838e-05
1.12077e-05
1.10389e-05
1.08955e-05
1.07495e-05
1.06527e-05
1.05189e-05
1.04807e-05
1.03539e-05
0.000118252
5.67615e-05
4.21005e-05
3.62877e-05
3.35559e-05
3.25195e-05
3.22099e-05
3.26657e-05
3.32439e-05
3.30323e-05
3.26412e-05
3.28359e-05
3.2736e-05
3.31531e-05
3.32211e-05
3.37849e-05
3.40133e-05
3.4764e-05
0.000543991
0.000302065
0.00020907
0.000160117
0.000133172
0.000114
0.000102473
9.2694e-05
8.62944e-05
7.9282e-05
7.46163e-05
6.96022e-05
6.64103e-05
6.28617e-05
6.07654e-05
5.81976e-05
5.68924e-05
5.50565e-05
0.000771045
0.000674791
0.000540777
0.000439098
0.000377929
0.000325868
0.000294414
0.000263735
0.000245007
0.000223527
0.000210384
0.000194642
0.000185396
0.000173545
0.000167014
0.000157913
0.000153387
0.000146083
0.000837701
0.000816441
0.000765483
0.000693585
0.000637045
0.000577869
0.00053912
0.000497654
0.00047143
0.00044089
0.000421725
0.000397755
0.00038327
0.000363992
0.000353089
0.000337354
0.000329385
0.000316051
0.000850784
0.000846099
0.000833502
0.000811272
0.000784109
0.000747372
0.000720618
0.00068885
0.000666997
0.000640403
0.00062245
0.000599574
0.000584676
0.000564752
0.000552627
0.000535182
0.00052571
0.000510185
0.000851479
0.000850714
0.000848242
0.000842599
0.000834948
0.000821365
0.000809273
0.000793372
0.000781594
0.000766252
0.000755121
0.000740349
0.000729912
0.000715764
0.000706313
0.000692946
0.000684798
0.000672195
0.000851612
0.000850619
0.00085023
0.000848027
0.000845831
0.000841004
0.000835722
0.000828876
0.000822972
0.000815416
0.000809387
0.000801416
0.000795272
0.000786929
0.000780851
0.000772414
0.000766702
0.000758157
0.00085164
0.00085057
0.000850151
0.000849036
0.000848067
0.000846224
0.000844153
0.000841388
0.000838617
0.000835557
0.000832119
0.000828619
0.000825114
0.000821194
0.000817596
0.000813202
0.000809573
0.000804695
0.000851604
0.000850631
0.000849966
0.000849139
0.000848425
0.000847486
0.000846543
0.000845379
0.000844199
0.000842867
0.000841556
0.000839935
0.000838499
0.000836613
0.000835066
0.000832898
0.000831281
0.000828827
0.000851568
0.000850668
0.000849905
0.000849112
0.00084842
0.00084767
0.000847
0.000846253
0.00084559
0.000844822
0.000844171
0.000843357
0.000842682
0.0008418
0.000841085
0.000840122
0.000839355
0.000838312
0.00085155
0.000850676
0.000849882
0.000849096
0.000848385
0.00084767
0.000847025
0.000846367
0.000845778
0.000845165
0.000844623
0.000844046
0.000843537
0.000842983
0.000842491
0.000841951
0.000841464
0.000840928
0.000851543
0.000850677
0.000849868
0.000849088
0.000848359
0.000847653
0.000846994
0.000846354
0.000845756
0.000845174
0.00084463
0.000844099
0.000843601
0.000843114
0.000842655
0.000842206
0.000841779
0.000841361
0.000851539
0.000850676
0.000849859
0.00084908
0.000848342
0.000847637
0.000846968
0.000846329
0.000845722
0.000845142
0.000844589
0.00084406
0.000843557
0.000843074
0.000842614
0.000842172
0.00084175
0.000841346
0.000851538
0.000850674
0.000849854
0.000849073
0.000848331
0.000847623
0.00084695
0.000846309
0.000845697
0.000845113
0.000844556
0.000844023
0.000843515
0.000843029
0.000842564
0.00084212
0.000841694
0.000841287
0.000851537
0.000850673
0.000849851
0.000849068
0.000848324
0.000847614
0.000846939
0.000846294
0.00084568
0.000845093
0.000844533
0.000843998
0.000843486
0.000842997
0.000842529
0.000842081
0.000841653
0.000841243
0.000851538
0.000850676
0.000849855
0.000849073
0.000848328
0.000847618
0.000846942
0.000846297
0.000845681
0.000845093
0.000844531
0.000843994
0.00084348
0.000842989
0.000842519
0.00084207
0.000841639
0.000841227
0.000851538
0.000850676
0.000849854
0.000849072
0.000848326
0.000847616
0.000846938
0.000846292
0.000845674
0.000845085
0.000844522
0.000843984
0.000843469
0.000842976
0.000842505
0.000842054
0.000841622
0.00084121
0.000851537
0.000850672
0.000849849
0.000849065
0.000848318
0.000847606
0.000846928
0.00084628
0.000845662
0.000845071
0.000844507
0.000843967
0.000843451
0.000842958
0.000842486
0.000842034
0.000841602
0.000841188
0.000851537
0.000850673
0.00084985
0.000849067
0.00084832
0.000847609
0.00084693
0.000846283
0.000845664
0.000845074
0.00084451
0.00084397
0.000843454
0.00084296
0.000842488
0.000842035
0.000841602
0.000841187
0.000851537
0.000850675
0.000849852
0.000849071
0.000848324
0.000847615
0.000846936
0.000846291
0.000845671
0.000845082
0.000844515
0.000843974
0.000843452
0.000842955
0.000842474
0.000842015
0.00084157
0.000841145
0.000851534
0.00085068
0.000849853
0.000849076
0.000848326
0.00084762
0.000846934
0.000846289
0.000845653
0.000845049
0.000844442
0.000843865
0.00084328
0.000842728
0.000842163
0.00084163
0.000841077
0.000840559
0.000851519
0.000850704
0.000849846
0.000849061
0.000848272
0.000847515
0.000846738
0.000845997
0.000845195
0.000844375
0.000843453
0.000842519
0.000841497
0.000840506
0.000839414
0.000838388
0.000837222
0.000836172
0.000851499
0.000850825
0.00084973
0.000848692
0.000847402
0.000845909
0.000844265
0.00084261
0.000840669
0.000838477
0.000835832
0.000833006
0.000829981
0.000826925
0.000823793
0.000820682
0.000817303
0.000814345
0.000851933
0.000850932
0.000848083
0.000844426
0.000838935
0.000832464
0.000826065
0.000819934
0.000813506
0.000806488
0.000797822
0.000789548
0.000780464
0.000772377
0.000763673
0.000756149
0.000747903
0.000741043
0.000855444
0.000847158
0.000832209
0.000811491
0.000787831
0.000765745
0.000749453
0.000733479
0.00071436
0.000696368
0.000676786
0.000659833
0.000642349
0.000627867
0.00061287
0.000600709
0.000587739
0.000577557
0.000878191
0.000808576
0.000744782
0.000675913
0.000617449
0.00057756
0.000542581
0.000513979
0.000485258
0.000461586
0.000438113
0.000419648
0.000401373
0.000387415
0.000373165
0.000362481
0.000351056
0.000342731
0.00089067
0.000583839
0.000450111
0.000358652
0.000302123
0.000266815
0.000240273
0.000221086
0.000204447
0.000191976
0.000180565
0.000172208
0.000164212
0.000158538
0.000152769
0.000148807
0.000144487
0.0001416
0.000382859
0.000153367
0.000110187
8.71416e-05
7.46795e-05
6.74929e-05
6.28953e-05
5.99686e-05
5.79352e-05
5.66973e-05
5.58804e-05
5.55657e-05
5.54346e-05
5.56572e-05
5.59141e-05
5.57591e-05
5.51742e-05
5.46021e-05
6.25085e-06
8.11247e-06
9.64593e-06
1.08709e-05
1.17886e-05
1.24687e-05
1.29401e-05
1.32808e-05
1.35267e-05
1.36938e-05
1.37859e-05
1.38393e-05
1.38559e-05
1.38385e-05
1.37881e-05
1.37343e-05
1.36803e-05
1.36267e-05
3.83315e-10
1.38926e-08
3.56931e-08
6.93519e-08
1.10802e-07
1.59238e-07
2.3846e-07
3.70075e-07
5.64758e-07
8.1819e-07
1.09196e-06
1.36885e-06
1.6266e-06
1.85326e-06
2.04516e-06
2.19868e-06
2.31552e-06
2.3938e-06
2.44033e-06
2.4378e-06
2.41208e-06
2.37541e-06
2.28712e-06
2.1436e-06
1.9381e-06
1.66314e-06
1.32185e-06
9.33202e-07
5.45641e-07
2.39336e-07
7.09406e-08
1.88128e-08
1.43408e-08
1.57572e-08
1.83394e-08
2.18403e-08
2.58021e-08
2.88026e-08
3.23224e-08
4.71067e-08
1.1373e-07
2.56852e-07
4.90419e-07
6.95035e-07
8.30573e-07
8.31965e-07
7.94116e-07
7.17735e-07
6.26124e-07
5.5267e-07
5.47208e-07
6.39582e-07
8.43054e-07
9.09078e-07
1.08128e-06
1.41135e-06
2.72759e-06
7.50141e-06
1.30483e-05
1.79595e-05
2.21413e-05
2.52188e-05
2.66475e-05
2.7901e-05
2.90532e-05
3.01735e-05
3.12527e-05
3.22204e-05
3.31501e-05
3.40162e-05
3.48514e-05
3.5646e-05
3.64165e-05
3.716e-05
3.78851e-05
3.85911e-05
3.9282e-05
3.99585e-05
4.0625e-05
4.12797e-05
4.19269e-05
4.25647e-05
4.31963e-05
4.38202e-05
4.44388e-05
4.50507e-05
4.56577e-05
4.62585e-05
4.68544e-05
4.74443e-05
4.80287e-05
4.8607e-05
4.91791e-05
4.97443e-05
5.03027e-05
5.08538e-05
5.13981e-05
5.19368e-05
5.24723e-05
5.30091e-05
5.35537e-05
5.40986e-05
5.46416e-05
5.51869e-05
5.57342e-05
5.62844e-05
5.68379e-05
5.73951e-05
5.79565e-05
5.85227e-05
5.9094e-05
5.96712e-05
6.02547e-05
6.08455e-05
6.14439e-05
6.2051e-05
6.26675e-05
6.32943e-05
6.39323e-05
6.45829e-05
6.52469e-05
6.59259e-05
6.66211e-05
6.73343e-05
6.80671e-05
6.88217e-05
6.96058e-05
7.04146e-05
7.1239e-05
7.20951e-05
7.21205e-05
7.18887e-05
7.16355e-05
7.13637e-05
7.1077e-05
7.07736e-05
7.04498e-05
7.01088e-05
6.97514e-05
6.93774e-05
6.89874e-05
6.85817e-05
6.81609e-05
6.77252e-05
6.72751e-05
6.68112e-05
6.63347e-05
6.58428e-05
6.53469e-05
6.48244e-05
6.43066e-05
6.37589e-05
6.32206e-05
6.26502e-05
6.20945e-05
6.15047e-05
6.09354e-05
6.03295e-05
5.97494e-05
5.91334e-05
5.85347e-05
5.79194e-05
5.73043e-05
5.66839e-05
5.60603e-05
5.54338e-05
5.48053e-05
5.41754e-05
5.35448e-05
5.29134e-05
5.22811e-05
5.16467e-05
5.10091e-05
5.03661e-05
4.97128e-05
4.9042e-05
4.83497e-05
4.76785e-05
4.71458e-05
4.5319e-05
1.86251e-09
7.11671e-09
4.50729e-08
1.34562e-07
3.8544e-07
1.3525e-06
3.1652e-06
5.84231e-06
9.31568e-06
1.27658e-05
1.65559e-05
2.10607e-05
2.47592e-05
2.77471e-05
2.99799e-05
3.13299e-05
3.18124e-05
3.16891e-05
3.09678e-05
2.88177e-05
2.60587e-05
2.18203e-05
1.74598e-05
1.35187e-05
1.02376e-05
7.52118e-06
5.43358e-06
3.84775e-06
2.5987e-06
1.67118e-06
1.01083e-06
5.89993e-07
3.60169e-07
2.37186e-07
1.73528e-07
1.41239e-07
1.37132e-07
2.21477e-07
5.51503e-07
1.08764e-06
4.38062e-06
9.38567e-06
1.6417e-05
2.11989e-05
2.33615e-05
2.23164e-05
2.0742e-05
1.67974e-05
1.2978e-05
1.16173e-05
1.22639e-05
1.22471e-05
1.16314e-05
1.25099e-05
1.54424e-05
2.03427e-05
2.75561e-05
3.77003e-05
4.72534e-05
5.85062e-05
7.10074e-05
8.47372e-05
9.95227e-05
0.000114963
0.000130922
0.000146942
0.000162862
0.000178347
0.0001933
0.000207568
0.000221135
0.000233994
0.000246022
0.000257699
0.000268588
0.000279193
0.000289387
0.000299008
0.000308406
0.000317449
0.000326269
0.00033484
0.000343216
0.0003514
0.000359417
0.000367276
0.000374992
0.000382572
0.000390023
0.000397352
0.00040456
0.000411649
0.000418617
0.000425453
0.000432144
0.000438665
0.000444978
0.000451025
0.000456724
0.000461955
0.000466564
0.000470954
0.000475266
0.000479433
0.000483493
0.000487422
0.000491229
0.000494907
0.000498456
0.000501871
0.000505152
0.000508296
0.0005113
0.000514163
0.000516883
0.000519458
0.000521886
0.000524166
0.000526297
0.000528277
0.000530106
0.000531783
0.000533308
0.000534682
0.000535907
0.000536988
0.000537932
0.000538773
0.000539513
0.000540228
0.000541022
0.000541671
0.00054218
0.000542487
0.000542703
0.000542841
0.000542824
0.000542648
0.00054235
0.000541924
0.000541374
0.000540701
0.000539907
0.000538993
0.000537958
0.000536797
0.000535495
0.000534302
0.000532636
0.000531355
0.000529432
0.000527972
0.000525836
0.000524206
0.000521884
0.000520104
0.000517631
0.000515728
0.000513157
0.000511075
0.000508564
0.000506179
0.000503714
0.000501217
0.000498685
0.000496123
0.000493539
0.000490938
0.000488326
0.000485705
0.000483071
0.000480415
0.000477721
0.000474973
0.000472097
0.000469013
0.000465564
0.000461285
0.000455233
0.000438659
2.18702e-09
5.58249e-09
6.18877e-08
3.49618e-07
1.05598e-06
2.95553e-06
6.59011e-06
1.15021e-05
1.77138e-05
2.49197e-05
3.27931e-05
4.0972e-05
4.91084e-05
5.64016e-05
6.2497e-05
6.72487e-05
7.04706e-05
7.26433e-05
7.33488e-05
7.28298e-05
7.04592e-05
6.62526e-05
6.08429e-05
5.32672e-05
4.45726e-05
3.58725e-05
2.75262e-05
2.03215e-05
1.45397e-05
1.0112e-05
6.886e-06
4.41166e-06
2.82934e-06
1.85473e-06
1.30635e-06
1.04066e-06
8.99634e-07
8.27919e-07
2.60008e-06
5.03623e-06
1.61847e-05
3.28811e-05
4.75267e-05
5.63013e-05
5.99018e-05
5.59106e-05
4.81659e-05
3.38376e-05
2.68111e-05
2.68465e-05
2.99292e-05
3.54074e-05
4.23084e-05
5.42503e-05
7.03727e-05
8.65038e-05
0.000106553
0.000129505
0.000157551
0.000189328
0.000224412
0.000261231
0.000299278
0.000337037
0.000374105
0.000409555
0.000443279
0.00047497
0.000504738
0.000532647
0.00055878
0.000583578
0.000606819
0.000629292
0.000650756
0.00067124
0.000691028
0.000710116
0.000728698
0.000746753
0.000764386
0.000781607
0.000798469
0.00081499
0.000831196
0.000847103
0.000862726
0.000878073
0.000893151
0.000907961
0.000922502
0.000936765
0.00095074
0.000964407
0.000977739
0.000990703
0.00100326
0.00101537
0.00102698
0.00103809
0.00104878
0.00105925
0.00106948
0.00107944
0.00108914
0.00109857
0.00110773
0.0011166
0.00112519
0.00113349
0.00114149
0.00114919
0.00115658
0.00116366
0.00117043
0.00117687
0.001183
0.0011888
0.00119427
0.00119941
0.00120422
0.0012087
0.00121286
0.00121668
0.00122018
0.00122337
0.00122626
0.00122888
0.00123123
0.00123335
0.00123526
0.00123684
0.00123809
0.0012389
0.00123943
0.00123989
0.00123988
0.00123958
0.00123898
0.00123808
0.0012369
0.00123543
0.00123368
0.00123166
0.00122937
0.00122681
0.00122402
0.00122108
0.00121767
0.00121437
0.00121043
0.00120671
0.00120229
0.00119816
0.00119331
0.00118883
0.00118363
0.00117886
0.00117338
0.00116831
0.00116275
0.00115727
0.00115165
0.00114595
0.00114017
0.00113432
0.00112841
0.00112247
0.0011165
0.00111051
0.00110449
0.00109842
0.00109227
0.00108599
0.00107946
0.0010725
0.00106481
0.00105542
0.00104236
0.00101278
2.15403e-09
1.30859e-08
1.86052e-07
8.54337e-07
2.50537e-06
6.80617e-06
1.38205e-05
2.33014e-05
3.49619e-05
4.78593e-05
6.10048e-05
7.37424e-05
8.52272e-05
9.49903e-05
0.000102496
0.000108313
0.000112274
0.000114334
0.000114824
0.000113882
0.000111655
0.000107575
0.000102653
9.57025e-05
8.72998e-05
7.69304e-05
6.52876e-05
5.31064e-05
4.15522e-05
3.16019e-05
2.35044e-05
1.72073e-05
1.2295e-05
8.79903e-06
6.28821e-06
4.83083e-06
4.05834e-06
4.11659e-06
9.9923e-06
1.99788e-05
4.32794e-05
6.10331e-05
7.12999e-05
7.45274e-05
6.75198e-05
5.45973e-05
5.07162e-05
5.37052e-05
5.75992e-05
6.40196e-05
7.5543e-05
9.27738e-05
0.000110415
0.000135665
0.000163476
0.000198043
0.000238941
0.00028519
0.000336031
0.000389675
0.000444882
0.000500084
0.000554464
0.000606934
0.000657211
0.000704856
0.000749925
0.000792469
0.000832484
0.00087043
0.000906399
0.000941036
0.0009739
0.00100557
0.00103605
0.00106551
0.00109409
0.00112187
0.00114896
0.00117541
0.00120127
0.00122658
0.00125139
0.00127571
0.00129958
0.00132301
0.001346
0.00136857
0.00139073
0.00141247
0.00143379
0.00145468
0.00147512
0.00149512
0.00151463
0.00153366
0.00155217
0.00157017
0.00158766
0.00160465
0.00162124
0.00163746
0.0016533
0.00166874
0.00168378
0.0016984
0.0017126
0.00172637
0.00173971
0.00175259
0.00176503
0.001777
0.00178852
0.00179956
0.00181012
0.0018202
0.0018298
0.00183891
0.00184752
0.00185565
0.00186328
0.00187041
0.00187706
0.00188322
0.0018889
0.00189411
0.00189885
0.00190316
0.00190702
0.00191045
0.00191344
0.00191594
0.00191793
0.00191934
0.0019204
0.00192112
0.00192127
0.00192096
0.0019202
0.001919
0.00191737
0.00191531
0.00191284
0.00190995
0.00190666
0.00190299
0.00189896
0.00189458
0.00188975
0.00188471
0.00187914
0.00187343
0.00186716
0.00186081
0.00185391
0.001847
0.00183957
0.00183219
0.00182431
0.00181652
0.00180836
0.00180013
0.00179173
0.00178319
0.00177452
0.00176574
0.00175687
0.00174793
0.00173894
0.00172991
0.00172084
0.00171169
0.00170242
0.00169298
0.0016832
0.00167289
0.00166163
0.00164823
0.00163009
0.00159534
2.88788e-09
4.1652e-08
4.31846e-07
1.81932e-06
6.37306e-06
1.58007e-05
2.97514e-05
4.73445e-05
6.67204e-05
8.59577e-05
0.000103651
0.000118765
0.00013037
0.000139265
0.000145515
0.000149338
0.000151267
0.000151625
0.000150653
0.000148514
0.000145337
0.000140859
0.000135513
0.000128952
0.000121224
0.000111688
0.000100489
8.77686e-05
7.39633e-05
6.02309e-05
4.7929e-05
3.75209e-05
2.90831e-05
2.23689e-05
1.81782e-05
1.43055e-05
1.41854e-05
1.82152e-05
3.43014e-05
5.9654e-05
8.36874e-05
9.52056e-05
9.08342e-05
8.4633e-05
8.18456e-05
8.24676e-05
8.66077e-05
9.50212e-05
0.000109325
0.000127823
0.000146728
0.000176246
0.000211381
0.000254594
0.000303308
0.000359529
0.000419878
0.000483937
0.000550008
0.000616831
0.000683238
0.000748304
0.000811438
0.000872124
0.000930239
0.000985699
0.00103818
0.00108832
0.00113653
0.00118238
0.00122634
0.00126864
0.00130935
0.00134871
0.00138684
0.00142387
0.00145991
0.00149504
0.00152935
0.00156289
0.00159571
0.00162785
0.00165935
0.00169022
0.0017205
0.0017502
0.00177933
0.0018079
0.00183592
0.00186338
0.00189029
0.00191665
0.00194245
0.00196768
0.00199233
0.00201641
0.00203992
0.00206286
0.00208526
0.00210712
0.00212849
0.00214935
0.00216971
0.00218955
0.00220886
0.00222763
0.00224585
0.00226352
0.00228062
0.00229714
0.00231309
0.00232844
0.00234321
0.00235737
0.00237093
0.00238388
0.00239622
0.00240794
0.00241904
0.00242952
0.00243939
0.00244864
0.00245728
0.00246531
0.00247274
0.00247957
0.00248582
0.00249149
0.00249661
0.0025011
0.00250503
0.00250837
0.00251104
0.00251304
0.00251466
0.00251571
0.00251614
0.00251599
0.00251529
0.00251403
0.00251224
0.00250992
0.00250708
0.00250374
0.00249989
0.00249556
0.00249078
0.00248554
0.00247981
0.00247368
0.00246706
0.00246006
0.00245257
0.00244476
0.00243648
0.00242795
0.00241898
0.00240983
0.00240028
0.0023906
0.00238061
0.00237044
0.00236006
0.00234948
0.00233872
0.00232781
0.00231677
0.00230562
0.00229438
0.00228306
0.00227165
0.00226016
0.00224853
0.0022367
0.00222451
0.00221177
0.00219807
0.00218225
0.00216136
0.00212657
2.47476e-09
9.6963e-08
9.8127e-07
4.71621e-06
1.6103e-05
3.50245e-05
5.8771e-05
8.49006e-05
0.00010954
0.00013016
0.00014617
0.000158272
0.000167005
0.000172763
0.000176331
0.000178142
0.000178534
0.000177733
0.000175897
0.000173133
0.00016948
0.000164751
0.000159276
0.00015293
0.000145373
0.000136406
0.000125916
0.000113864
0.000100365
8.56827e-05
6.96063e-05
5.52667e-05
4.37828e-05
3.47078e-05
2.91966e-05
2.82894e-05
3.44004e-05
5.39175e-05
8.19741e-05
0.000100439
0.000108573
0.00011025
0.000109586
0.000110344
0.000115126
0.000125766
0.000143715
0.000155057
0.000178534
0.000208963
0.000247445
0.000294738
0.000348791
0.00041017
0.000475821
0.000545982
0.000618085
0.000691804
0.000765718
0.00083904
0.000911024
0.000981156
0.00104916
0.00111455
0.00117733
0.00123808
0.00129633
0.00135225
0.0014061
0.00145791
0.00150792
0.00155627
0.00160309
0.00164854
0.00169272
0.00173575
0.00177771
0.00181868
0.00185871
0.00189786
0.00193618
0.0019737
0.00201044
0.00204644
0.00208172
0.00211629
0.00215017
0.00218338
0.0022159
0.00224777
0.00227897
0.00230952
0.00233941
0.00236865
0.00239724
0.00242517
0.00245247
0.00247914
0.0025052
0.00253065
0.00255549
0.00257973
0.00260336
0.00262636
0.00264873
0.00267046
0.00269155
0.00271197
0.00273174
0.00275083
0.00276925
0.00278698
0.00280403
0.00282039
0.00283605
0.00285102
0.00286529
0.00287884
0.0028917
0.00290385
0.00291531
0.00292606
0.00293613
0.0029455
0.00295419
0.00296221
0.00296956
0.00297627
0.00298233
0.00298764
0.00299233
0.00299637
0.00299964
0.00300222
0.00300435
0.00300581
0.00300659
0.00300674
0.00300626
0.00300517
0.00300349
0.00300121
0.00299835
0.00299493
0.00299094
0.00298642
0.00298137
0.00297579
0.00296969
0.0029631
0.002956
0.00294842
0.00294033
0.00293182
0.00292283
0.00291347
0.00290369
0.00289359
0.00288313
0.0028724
0.00286136
0.00285007
0.00283852
0.00282674
0.00281472
0.00280251
0.00279012
0.00277759
0.00276493
0.00275216
0.00273929
0.00272631
0.00271318
0.00269984
0.00268617
0.00267199
0.00265692
0.00263999
0.00261852
0.00258578
5.46239e-09
2.45304e-07
2.55889e-06
1.30441e-05
3.55e-05
6.59274e-05
9.82461e-05
0.000125705
0.000147346
0.000163612
0.000175987
0.000184319
0.000189788
0.000193123
0.000194855
0.000195357
0.000194867
0.000193505
0.00019134
0.000188421
0.000184686
0.00017999
0.000174626
0.000168355
0.000160867
0.000148483
0.000132007
0.00011634
0.000101212
8.60811e-05
7.08312e-05
5.65464e-05
4.50837e-05
4.01932e-05
4.24828e-05
5.76582e-05
8.36434e-05
0.000107594
0.0001238
0.000132287
0.000135315
0.000137256
0.000142794
0.000154858
0.000169068
0.000180362
0.000204178
0.000234777
0.000273916
0.000321155
0.000376701
0.000439701
0.000508006
0.000580712
0.000655865
0.000733135
0.000811043
0.000889117
0.000966498
0.00104268
0.00111729
0.00118959
0.00125975
0.00132843
0.00139453
0.00145851
0.00152033
0.00158009
0.00163793
0.00169393
0.00174824
0.00180098
0.00185225
0.00190217
0.00195082
0.00199829
0.00204464
0.00208993
0.00213421
0.00217752
0.0022199
0.00226137
0.00230197
0.00234172
0.00238064
0.00241875
0.00245607
0.00249261
0.00252838
0.00256339
0.00259766
0.0026312
0.002664
0.00269607
0.00272743
0.00275807
0.00278801
0.00281723
0.00284574
0.00287356
0.00290069
0.00292713
0.00295287
0.00297792
0.00300226
0.00302589
0.0030488
0.00307098
0.00309244
0.00311316
0.00313314
0.00315238
0.00317088
0.00318862
0.00320562
0.00322188
0.00323739
0.00325216
0.00326619
0.00327946
0.00329199
0.00330377
0.00331481
0.00332511
0.00333469
0.00334354
0.00335167
0.00335915
0.00336588
0.00337184
0.00337712
0.00338172
0.0033855
0.00338862
0.00339119
0.00339306
0.00339426
0.00339481
0.00339472
0.00339398
0.00339261
0.00339062
0.00338803
0.00338484
0.00338106
0.00337671
0.0033718
0.00336633
0.00336032
0.00335377
0.00334668
0.00333907
0.00333093
0.00332231
0.00331321
0.00330367
0.00329369
0.00328334
0.0032726
0.00326153
0.00325013
0.00323842
0.00322641
0.00321412
0.00320157
0.00318877
0.00317575
0.00316256
0.0031492
0.0031357
0.00312206
0.0031083
0.00309438
0.00308027
0.00306585
0.00305103
0.00303548
0.00301845
0.00299784
0.00296816
4.98959e-08
6.89465e-07
6.73453e-06
2.93299e-05
6.48534e-05
0.000102971
0.000135794
0.000161215
0.000179452
0.000192147
0.000199631
0.000203807
0.000205738
0.000206215
0.000205766
0.000204717
0.000203248
0.000201419
0.00019909
0.000196024
0.000192083
0.000187175
0.000181446
0.000174453
0.000158184
0.000141496
0.000126257
0.000112025
9.87385e-05
8.6192e-05
7.51525e-05
6.82554e-05
6.90781e-05
7.99253e-05
9.17054e-05
0.000118459
0.00014538
0.000156516
0.000163009
0.000167179
0.000173189
0.000184822
0.000193512
0.000204431
0.000225552
0.000254586
0.000292641
0.000338233
0.000392041
0.000453245
0.000521116
0.000593945
0.000669934
0.00074819
0.000827651
0.000907814
0.000987844
0.00106729
0.00114567
0.00122226
0.00129703
0.00137073
0.00144223
0.00151188
0.00157948
0.00164515
0.00170892
0.00177087
0.00183108
0.00188963
0.00194663
0.00200216
0.00205631
0.00210916
0.00216078
0.00221123
0.00226054
0.00230876
0.00235592
0.00240206
0.0024472
0.00249136
0.00253456
0.00257683
0.00261819
0.00265866
0.00269827
0.00273701
0.00277491
0.002812
0.00284827
0.00288376
0.00291845
0.00295238
0.00298553
0.00301792
0.00304954
0.00308039
0.00311047
0.00313981
0.00316843
0.00319631
0.00322345
0.00324984
0.0032755
0.00330039
0.00332454
0.00334792
0.00337053
0.00339238
0.00341345
0.00343375
0.00345327
0.00347202
0.00348998
0.00350717
0.00352358
0.00353921
0.00355406
0.00356814
0.00358145
0.00359399
0.00360577
0.0036168
0.00362707
0.0036366
0.0036454
0.00365354
0.00366085
0.00366743
0.00367331
0.00367848
0.00368282
0.00368654
0.00368964
0.00369203
0.00369373
0.00369475
0.00369511
0.00369481
0.00369387
0.0036923
0.00369011
0.00368731
0.00368391
0.00367992
0.00367535
0.0036702
0.00366449
0.00365823
0.00365141
0.00364404
0.00363614
0.00362772
0.0036188
0.00360941
0.00359957
0.00358931
0.00357865
0.00356762
0.00355622
0.00354448
0.0035324
0.00352001
0.00350731
0.00349434
0.00348111
0.00346766
0.00345401
0.00344019
0.00342621
0.00341207
0.00339777
0.00338331
0.00336872
0.00335383
0.0033384
0.00332183
0.00330252
0.00327643
1.89076e-07
1.71292e-06
1.58565e-05
5.17103e-05
9.58665e-05
0.000134963
0.000165026
0.000186392
0.000200613
0.000208852
0.000213217
0.000214732
0.000214371
0.000212915
0.000210905
0.000208644
0.00020622
0.000203548
0.000200411
0.000196758
0.000192432
0.000187244
0.000180993
0.000164181
0.00014766
0.00013268
0.000118331
0.000105262
9.47318e-05
8.9499e-05
9.15478e-05
9.13878e-05
0.000102757
0.000124908
0.000151885
0.00017602
0.000195327
0.000204625
0.000210871
0.000214903
0.00021711
0.000226786
0.000244623
0.000270813
0.000305789
0.000348696
0.00039942
0.000457025
0.000521426
0.000591556
0.000666132
0.00074357
0.000822715
0.000902897
0.000983453
0.00106392
0.00114378
0.0012225
0.00129958
0.00137576
0.0014503
0.00152322
0.00159432
0.00166368
0.00173127
0.00179715
0.00186136
0.00192396
0.00198501
0.00204457
0.00210274
0.00215959
0.00221517
0.00226954
0.00232277
0.00237489
0.00242589
0.00247581
0.00252468
0.00257251
0.0026193
0.00266506
0.00270983
0.0027536
0.00279641
0.00283829
0.00287926
0.00291937
0.0029586
0.00299694
0.00303442
0.00307105
0.00310684
0.00314182
0.00317598
0.00320935
0.00324192
0.0032737
0.00330472
0.00333498
0.00336447
0.00339319
0.00342115
0.00344834
0.00347476
0.0035004
0.00352526
0.00354934
0.00357264
0.00359515
0.00361687
0.0036378
0.00365795
0.0036773
0.00369587
0.00371365
0.00373065
0.00374686
0.00376229
0.00377694
0.00379082
0.00380393
0.00381627
0.00382786
0.00383869
0.00384878
0.00385817
0.00386686
0.00387472
0.00388188
0.00388833
0.00389408
0.00389902
0.00390337
0.00390705
0.00391004
0.00391235
0.003914
0.00391498
0.00391532
0.00391503
0.00391411
0.00391257
0.00391043
0.00390769
0.00390436
0.00390046
0.00389599
0.00389095
0.00388534
0.00387918
0.00387247
0.00386521
0.00385743
0.00384914
0.00384036
0.00383112
0.00382144
0.00381134
0.00380084
0.00378995
0.00377869
0.00376706
0.00375508
0.00374277
0.00373015
0.00371724
0.00370407
0.00369067
0.00367705
0.00366325
0.00364927
0.00363511
0.00362078
0.00360625
0.00359148
0.00357631
0.00356029
0.00354213
0.00351914
4.07731e-07
3.79502e-06
2.96747e-05
7.794e-05
0.000126362
0.000164805
0.000191293
0.000208085
0.00021803
0.000222424
0.000222758
0.000220657
0.000217287
0.000213433
0.00020955
0.000205827
0.000202212
0.000198566
0.000194565
0.000190191
0.000185129
0.000179456
0.000168782
0.000154179
0.000141869
0.000132153
0.000126249
0.000124096
0.00011696
0.000114407
0.000121327
0.000137608
0.000158084
0.000179796
0.000199927
0.000215907
0.000226101
0.000232053
0.000237492
0.000246472
0.000262033
0.000284705
0.000315973
0.000355202
0.000401939
0.000455362
0.000515051
0.000580373
0.000650805
0.000725201
0.000802292
0.000880926
0.00096034
0.00104002
0.0011195
0.00119844
0.00127595
0.00135252
0.00142803
0.00150205
0.00157451
0.00164538
0.00171462
0.00178227
0.00184837
0.00191298
0.00197616
0.00203797
0.00209844
0.00215757
0.00221551
0.00227231
0.00232801
0.00238267
0.00243633
0.00248906
0.00254097
0.00259195
0.00264189
0.00269074
0.00273851
0.00278521
0.00283085
0.00287542
0.00291897
0.00296151
0.00300307
0.00304364
0.00308329
0.00312205
0.00315997
0.00319705
0.0032333
0.00326875
0.0033034
0.00333726
0.00337034
0.00340265
0.00343419
0.00346495
0.00349494
0.00352415
0.00355259
0.00358025
0.00360713
0.00363322
0.00365854
0.00368306
0.00370681
0.00372976
0.00375193
0.00377331
0.0037939
0.0038137
0.00383272
0.00385096
0.00386842
0.0038851
0.00390101
0.00391615
0.00393053
0.00394414
0.00395701
0.00396912
0.00398049
0.00399113
0.00400111
0.00401031
0.00401878
0.00402654
0.00403362
0.00403999
0.00404562
0.00405065
0.00405501
0.00405869
0.00406172
0.00406409
0.00406583
0.00406694
0.00406742
0.0040673
0.00406658
0.00406526
0.00406337
0.0040609
0.00405786
0.00405426
0.0040501
0.00404539
0.00404012
0.0040343
0.00402794
0.00402104
0.00401364
0.00400575
0.00399739
0.00398857
0.00397932
0.00396966
0.00395959
0.00394912
0.00393826
0.00392702
0.00391542
0.00390348
0.00389122
0.00387867
0.00386585
0.00385279
0.0038395
0.00382599
0.0038123
0.00379843
0.00378438
0.00377013
0.00375561
0.00374045
0.00372364
0.00370405
6.28503e-07
7.45583e-06
4.61429e-05
0.000101433
0.00015064
0.000187435
0.000211498
0.000224925
0.000230196
0.000230079
0.000226667
0.000221448
0.000215452
0.000209338
0.000203427
0.000197867
0.000192283
0.000186771
0.000181092
0.000175063
0.000168741
0.0001617
0.000153538
0.000144783
0.000136463
0.000129994
0.000127396
0.000130247
0.00013885
0.000152474
0.000168903
0.000186576
0.000204228
0.000220322
0.000233005
0.000242239
0.000251643
0.000261984
0.000277107
0.000297261
0.000325006
0.000360126
0.000402539
0.000451386
0.000506059
0.000565978
0.000630748
0.000699831
0.000772508
0.000847727
0.000924454
0.00100187
0.00107941
0.0011567
0.00123301
0.00130823
0.00138278
0.00145588
0.00152763
0.00159793
0.00166675
0.00173408
0.00179986
0.00186422
0.00192729
0.00198915
0.00204987
0.00210955
0.00216837
0.00222658
0.00228382
0.00234007
0.00239536
0.00244968
0.00250311
0.00255565
0.00260726
0.00265794
0.00270768
0.00275642
0.00280417
0.00285091
0.00289662
0.0029413
0.00298496
0.00302764
0.00306937
0.0031102
0.00315014
0.00318921
0.00322744
0.00326484
0.00330143
0.00333723
0.00337223
0.00340645
0.00343989
0.00347257
0.00350447
0.0035356
0.00356596
0.00359555
0.00362436
0.0036524
0.00367966
0.00370615
0.00373186
0.00375679
0.00378094
0.00380431
0.0038269
0.00384871
0.00386975
0.00389001
0.00390949
0.00392821
0.00394615
0.00396333
0.00397976
0.00399543
0.00401034
0.00402452
0.00403795
0.00405066
0.00406263
0.00407391
0.00408448
0.00409433
0.00410348
0.00411194
0.00411972
0.00412682
0.00413325
0.00413906
0.0041442
0.00414869
0.00415254
0.00415576
0.00415837
0.00416037
0.00416177
0.00416258
0.00416281
0.00416246
0.00416155
0.00416009
0.00415807
0.00415551
0.0041524
0.00414875
0.00414455
0.00413979
0.0041345
0.00412869
0.00412236
0.00411555
0.00410826
0.00410052
0.00409234
0.00408373
0.0040747
0.00406524
0.00405538
0.00404511
0.00403446
0.00402344
0.00401208
0.00400039
0.0039884
0.00397613
0.0039636
0.00395083
0.00393783
0.00392465
0.00391129
0.00389776
0.00388402
0.00386982
0.00385429
0.00383762
7.94596e-07
1.30039e-05
6.332e-05
0.000124856
0.000175004
0.000209014
0.000228829
0.000237528
0.00023869
0.000235063
0.000228649
0.000220852
0.000212596
0.000204481
0.000196435
0.00018896
0.000181894