/*--------------------------------*- C++ -*----------------------------------*\
| =========                 |                                                 |
| \\      /  F ield         | OpenFOAM: The Open Source CFD Toolbox           |
|  \\    /   O peration     | Version:  v2012                                 |
|   \\  /    A nd           | Website:  www.openfoam.com                      |
|    \\/     M anipulation  |                                                 |
\*---------------------------------------------------------------------------*/
FoamFile
{
    version     2.0;
    format      ascii;
    class       volScalarField;
    location    "1000";
    object      omega;
}
// * * * * * * * * * * * * * * * * * * * * * * * * * * * * * * * * * * * * * //

dimensions      [0 0 -1 0 0 0 0];


internalField   nonuniform List<scalar> 
12225
(
38738.7
41506.6
43131.3
43941
44180.4
44126.5
43972.3
43695.9
43398.8
43112.3
42845.1
42598
42383.9
42179.9
42025.9
41853.9
41768.5
41613.6
3190.58
6864.98
9563.91
11513.1
12866.9
13772.6
14388.8
14796.4
15064.2
15304.2
15531.6
15776.3
15995.7
16216.4
16393.6
16566.3
16662.3
16746.8
687.099
1236.43
1778.81
2303.29
2735.87
3148.89
3454.67
3766.37
3998.9
4312.71
4544.7
4843.08
5047.89
5315.51
5480.92
5715.97
5835.24
6032.83
484.719
551.161
684.308
835.801
963.127
1105.21
1211.75
1337.24
1424.8
1543.17
1622.51
1733.04
1801
1901.93
1956.86
2047.42
2088
2171.01
446.266
455.231
483.072
529.467
572.7
626.504
667.003
716.956
751.575
797.174
827.407
869.948
896.162
935.76
957.668
994.141
1011.15
1045.43
439.44
439.212
443.511
452.92
465.945
485.808
501.025
520.985
535.111
554.016
566.874
584.982
596.59
613.946
624.03
640.571
648.727
664.604
439.075
436.805
435.692
436.147
437.808
442.621
446.966
453.587
458.226
465.111
469.794
476.884
481.534
488.761
493.149
500.374
504.216
511.389
438.994
436.841
434.603
433.334
432.2
432.44
433.064
434.556
435.705
437.778
439.172
441.658
443.277
446.156
447.901
451.024
452.723
456.098
438.97
436.858
434.598
432.787
431.036
429.8
428.802
428.225
427.759
427.496
427.521
427.621
427.81
428.245
428.599
429.389
429.869
431.015
438.98
436.82
434.661
432.701
430.813
429.137
427.577
426.215
424.961
423.858
422.832
422.022
421.196
420.644
419.992
419.689
419.176
419.11
438.993
436.794
434.67
432.687
430.776
429.004
427.302
425.735
424.223
422.847
421.5
420.305
419.118
418.096
417.058
416.196
415.296
414.579
438.999
436.784
434.667
432.673
430.764
428.968
427.245
425.628
424.072
422.615
421.208
419.896
418.626
417.447
416.304
415.246
414.218
413.271
439
436.778
434.663
432.661
430.754
428.947
427.224
425.591
424.032
422.554
421.14
419.799
418.516
417.299
416.134
415.029
413.97
412.965
439.001
436.775
434.66
432.653
430.745
428.933
427.209
425.57
424.009
422.523
421.108
419.759
418.473
417.247
416.077
414.961
413.895
412.878
439.001
436.773
434.657
432.648
430.738
428.923
427.197
425.555
423.991
422.502
421.084
419.732
418.442
417.213
416.04
414.921
413.851
412.831
439.001
436.772
434.655
432.644
430.733
428.916
427.188
425.543
423.977
422.486
421.065
419.711
418.419
417.187
416.011
414.89
413.818
412.795
439
436.769
434.651
432.638
430.725
428.906
427.176
425.53
423.962
422.469
421.046
419.689
418.396
417.162
415.984
414.861
413.788
412.763
439
436.769
434.65
432.638
430.724
428.905
427.174
425.526
423.957
422.464
421.039
419.682
418.387
417.153
415.974
414.85
413.775
412.75
439.001
436.771
434.654
432.641
430.729
428.91
427.18
425.532
423.964
422.47
421.046
419.688
418.394
417.158
415.98
414.855
413.781
412.755
439.001
436.772
434.655
432.643
430.731
428.913
427.183
425.536
423.968
422.474
421.051
419.694
418.399
417.165
415.986
414.862
413.788
412.763
439.001
436.772
434.657
432.645
430.735
428.917
427.188
425.542
423.976
422.483
421.062
419.706
418.415
417.183
416.01
414.889
413.821
412.801
439.003
436.772
434.661
432.65
430.743
428.926
427.203
425.559
424.002
422.518
421.118
419.78
418.52
417.313
416.178
415.09
414.071
413.091
439.012
436.764
434.672
432.668
430.783
428.993
427.318
425.723
424.249
422.869
421.617
420.447
419.389
418.384
417.489
416.623
415.879
415.135
439.023
436.712
434.741
432.867
431.229
429.806
428.56
427.416
426.495
425.776
425.352
425.088
424.986
424.967
425.042
425.171
425.488
425.65
438.809
436.678
435.586
435.028
435.506
436.635
437.841
439.024
440.434
442.254
445.057
447.763
451.037
453.874
457.183
459.923
463.206
465.769
437.066
438.64
443.804
452.48
463.387
474.192
481.969
489.972
500.473
510.754
522.769
533.437
545.131
554.914
565.668
574.352
584.239
591.838
425.937
459.547
495.633
542.701
590.294
627.457
663.936
696.756
733.228
765.818
801.311
830.945
862.848
888.043
915.903
936.955
961.466
979.03
420.417
637.024
821.111
1024.09
1207.3
1358.59
1497.63
1615.74
1732.42
1829.71
1928.3
2005.27
2086.07
2144.64
2210.69
2255.11
2310.42
2345.12
984.466
2462.65
3452.43
4402.55
5185.32
5802.66
6293.97
6680.09
6997.78
7247.38
7456.54
7612.6
7754.1
7850.49
7955.09
8018.9
8112.18
8165.07
20972.4
22180.6
23099.5
23775.9
24248.1
24572.5
24774
24900.6
24974.9
25007.9
25001.4
24983.1
24939.7
24886.3
24817.8
24750.1
24684.5
24621.5
11463.3
2495.08
2497.99
2501.29
2504.85
2508.65
2513.46
2519.91
2528.38
2538.73
2549.8
2561.02
2571.7
2581.44
2590.12
2597.6
2603.97
2609.1
2613.28
2615.76
2618.06
2619.01
2619.19
2617.27
2613.4
2607.34
2599.18
2589.54
2579.98
2573.05
2570.53
2571.74
2574.53
2577.54
2580.62
2583.75
2586.92
2590.09
2593.27
2597.14
2602.01
2610.14
2620.93
2630.88
2638.64
2642.07
2644.29
2645.14
2645.62
2646.69
2650.07
2656.65
2666.86
2673
2681.9
2696.94
2745.09
2916.53
3127.11
3324.49
3500.89
3659.42
3802.32
3933.43
4054.81
4169.38
4277.18
4375.84
4468.86
4555.65
4638.09
4716.16
4790.96
4862.67
4931.85
4998.74
5063.65
5126.73
5188.28
5248.3
5307.05
5364.47
5420.76
5475.86
5529.91
5582.85
5634.77
5685.62
5735.44
5784.18
5831.85
5878.4
5923.83
5968.06
6011.09
6052.85
6093.35
6132.59
6170.66
6207.72
6244.13
6279.62
6314.05
6347.54
6380.04
6411.57
6442.1
6471.61
6500.1
6527.56
6553.97
6579.32
6603.61
6626.83
6648.97
6670.03
6689.99
6708.88
6726.68
6743.4
6759.03
6773.6
6787.11
6799.57
6811
6821.42
6831.36
6839.4
6846.86
6853.24
6857.94
6861.65
6864.14
6865.63
6866.26
6866
6864.55
6862.15
6858.82
6854.56
6849.4
6843.35
6836.45
6828.7
6820.14
6810.8
6800.74
6790.09
6778.45
6766.5
6753.42
6740.23
6725.86
6711.59
6696.12
6681
6664.68
6648.94
6631.99
6615.67
6598.43
6581.39
6564.05
6546.6
6529.04
6511.42
6493.79
6476.21
6458.7
6441.28
6423.93
6406.59
6389.16
6371.52
6353.33
6334.13
6313.61
6294.72
6285.26
6189.11
11463.5
1999.97
1056.43
898.778
785.668
651.367
660.507
678.659
671.932
658.064
632.5
606.157
581.205
557.626
538.172
523.416
513.812
509.188
508.008
525.91
551.914
614.104
700.834
804.705
919.971
1036.84
1149.37
1242.39
1314.15
1335.3
1315.93
1256.16
1126.31
960.449
802.532
697.949
631.276
542.547
492.933
457.635
444.063
447.221
457.146
474.603
491.539
513.404
529.261
582.042
649.421
730.283
798.217
1059.19
1493.26
1887.01
2153.53
2302.11
2400.24
2454.7
2473.06
2454.96
2389.98
2320.29
2244.71
2177.14
2115.05
2062.66
2017.88
1981.55
1952.4
1929.8
1912.74
1900.29
1892.94
1886.73
1884.67
1883.19
1883.18
1885.65
1888.48
1892.43
1896.81
1901.75
1906.99
1912.51
1918.2
1924
1929.85
1935.7
1941.51
1947.24
1952.86
1958.34
1963.68
1968.88
1973.97
1979
1984.09
1989.41
1995.27
2002.09
2010.48
2019.01
2027.17
2035.19
2042.95
2050.5
2057.82
2064.91
2071.77
2078.4
2084.79
2090.96
2096.89
2102.59
2108.06
2113.3
2118.31
2123.1
2127.66
2131.99
2136.11
2140.01
2143.69
2147.17
2150.44
2153.49
2156.34
2158.84
2161.07
2162.78
2163.67
2164.33
2164.74
2164.92
2164.87
2164.65
2164.19
2163.51
2162.61
2161.5
2160.17
2158.65
2156.93
2155.03
2152.96
2150.76
2148.52
2145.29
2143.3
2139.27
2137.15
2132.74
2130.41
2125.67
2123.13
2118.12
2115.39
2110.15
2107.18
2102.06
2098.33
2093.89
2089.55
2085.14
2080.68
2076.19
2071.68
2067.16
2062.64
2058.12
2053.64
2049.19
2044.8
2040.45
2036.3
2032.42
2029.06
2027.68
2028.59
2043.11
11463.6
2056.83
832.577
634.54
671.618
734.989
721.675
681.406
619.497
557.406
500.732
450.918
407.881
374.331
348.212
327.976
312.588
301.091
293.298
288.12
288.389
294.588
305.258
327.878
362.511
409.483
469.663
539.394
613.721
682.165
734.49
769.46
764.49
742.266
685.829
610.842
532.999
455.961
394.968
359.378
358.87
369.652
388.14
405.631
420.1
465.758
549.548
691.388
895.661
1189.76
1410.8
1557.86
1689.65
1768.03
1790.4
1771.39
1725.27
1661.95
1587.83
1513.89
1445.08
1387.91
1339.09
1300.68
1269.64
1245.95
1227.62
1214.03
1204.04
1196.99
1192.48
1189.48
1188.41
1187.79
1188.13
1189.44
1191.25
1193.62
1196.25
1199.2
1202.34
1205.64
1209.06
1212.57
1216.13
1219.72
1223.33
1226.94
1230.53
1234.1
1237.65
1241.17
1244.68
1248.2
1251.74
1255.34
1259.04
1262.89
1266.93
1271.19
1275.55
1279.77
1283.87
1287.85
1291.71
1295.44
1299.04
1302.52
1305.87
1309.09
1312.18
1315.14
1317.97
1320.67
1323.24
1325.68
1327.99
1330.17
1332.22
1334.14
1335.93
1337.59
1339.13
1340.53
1341.81
1342.94
1343.92
1344.73
1345.36
1345.78
1345.97
1346.04
1345.99
1345.84
1345.61
1345.13
1344.61
1343.94
1343.16
1342.26
1341.25
1340.12
1338.89
1337.55
1336.1
1334.56
1332.91
1331.05
1329.33
1327.17
1325.33
1322.97
1320.99
1318.44
1316.35
1313.64
1311.43
1308.58
1306.25
1303.35
1300.77
1297.98
1295.2
1292.37
1289.5
1286.61
1283.7
1280.78
1277.84
1274.91
1271.99
1269.11
1266.29
1263.58
1261.05
1258.84
1257.16
1256.92
1258.72
1270.66
11463.6
2022.91
953.993
971.384
953.888
875.784
752.716
636.068
537.637
461.773
404.008
358.7
323.414
296.245
275.406
259.354
246.983
237.578
230.655
225.873
222.974
223.122
224.408
229.664
238.337
253.4
275.692
306.712
345.673
388.91
432.206
472.931
503.679
517.696
512.031
494.823
459.603
414.075
383.865
406.132
464.379
526.501
573.191
620.243
687.896
802.652
974.064
1164.97
1302.88
1374.98
1430.31
1464.3
1470.14
1396.15
1344.98
1288.62
1228.44
1171.92
1121.02
1077.31
1040.9
1011.82
988.671
971.067
957.661
947.885
940.849
936.013
933.102
931.451
930.932
930.894
931.803
933.149
934.952
937.125
939.554
942.207
945.015
947.961
951.004
954.127
957.305
960.524
963.769
967.028
970.293
973.556
976.813
980.06
983.298
986.529
989.758
992.991
996.235
999.5
1002.79
1006.11
1009.45
1012.78
1016.06
1019.24
1022.32
1025.32
1028.21
1031.01
1033.7
1036.29
1038.79
1041.17
1043.46
1045.63
1047.7
1049.67
1051.52
1053.27
1054.91
1056.44
1057.87
1059.18
1060.38
1061.47
1062.45
1063.31
1064.06
1064.69
1065.19
1065.56
1065.8
1065.89
1065.86
1065.72
1065.48
1065.14
1064.69
1064.13
1063.47
1062.71
1061.84
1060.88
1059.83
1058.67
1057.43
1056.09
1054.66
1053.15
1051.53
1049.82
1048.07
1046.17
1044.29
1042.24
1040.23
1038.04
1035.91
1033.6
1031.36
1028.93
1026.59
1024.08
1021.61
1019.07
1016.51
1013.91
1011.28
1008.63
1005.96
1003.27
1000.57
997.873
995.19
992.542
989.954
987.466
985.148
983.105
981.503
980.963
982.058
988.89
11463.7
2172.77
1441.26
1288.33
1053.8
832.576
649.869
518.563
427.342
363.168
316.931
283.364
259.212
241.265
227.459
216.716
208.37
201.928
197.087
193.662
191.512
190.983
191.501
193.568
197.217
203.78
213.823
228.486
249.088
275.339
304.168
333.525
361.054
383.347
396.681
395.169
389.26
400.036
458.364
564.179
637.964
699.998
774.918
875.648
990.261
1092.33
1165.57
1224.39
1259.19
1269.75
1244.19
1180.45
1129.03
1077.62
1033.31
988.184
949.117
914.752
885.846
862.062
843.13
828.508
817.494
809.556
804.021
800.421
798.632
797.915
797.863
798.726
800.156
802.008
804.265
806.795
809.563
812.517
815.614
818.825
822.125
825.494
828.915
832.374
835.859
839.36
842.868
846.375
849.875
853.365
856.84
860.297
863.736
867.157
870.56
873.946
877.313
880.66
883.984
887.274
890.517
893.701
896.806
899.824
902.754
905.593
908.34
910.993
913.549
916.007
918.365
920.622
922.776
924.826
926.77
928.608
930.339
931.961
933.474
934.877
936.169
937.349
938.415
939.368
940.206
940.928
941.531
942.014
942.373
942.606
942.708
942.703
942.573
942.332
941.984
941.53
940.969
940.299
939.528
938.653
937.676
936.6
935.425
934.153
932.787
931.328
929.778
928.14
926.405
924.588
922.697
920.715
918.679
916.552
914.382
912.12
909.825
907.441
905.034
902.539
900.034
897.447
894.847
892.2
889.522
886.814
884.08
881.322
878.544
875.753
872.957
870.169
867.399
864.662
861.982
859.392
856.951
854.745
852.896
851.807
852.025
855.346
11463.6
2825.08
1851.55
1354.94
961.322
682.529
516.311
408.29
339.425
294.96
264.85
243.269
226.891
213.948
203.513
195.021
188.138
182.681
178.527
175.587
173.805
173.337
173.798
175.27
178.113
182.647
189.292
198.723
211.896
229.505
250.545
273.182
295.199
315.445
336.849
368.681
431.696
540.979
644.753
721.778
794.156
870.802
945.301
1006.61
1053.2
1091.13
1114.51
1118.49
1076.36
1032.38
990.33
947.795
910.66
874.449
843.227
814.547
790.598
770.251
753.776
740.777
730.941
723.841
719.001
716.196
714.986
714.719
715.471
716.99
719.05
721.597
724.492
727.662
731.054
734.615
738.312
742.113
745.995
749.939
753.928
757.95
761.992
766.046
770.103
774.155
778.195
782.219
786.221
790.196
794.142
798.054
801.932
805.774
809.578
813.341
817.061
820.732
824.35
827.904
831.383
834.785
838.1
841.324
844.456
847.492
850.43
853.267
856.002
858.631
861.153
863.565
865.866
868.053
870.125
872.081
873.919
875.638
877.236
878.715
880.07
881.301
882.408
883.388
884.241
884.967
885.563
886.029
886.363
886.557
886.617
886.572
886.39
886.085
885.66
885.116
884.455
883.676
882.785
881.78
880.665
879.439
878.107
876.669
875.127
873.485
871.744
869.906
867.971
865.946
863.835
861.639
859.369
857.019
854.602
852.11
849.558
846.937
844.265
841.53
838.755
835.924
833.059
830.156
827.22
824.255
821.264
818.249
815.217
812.172
809.123
806.081
803.058
800.067
797.129
794.274
791.551
789.026
786.8
785.136
784.401
785.486
11464.1
3538.81
1960.73
1206.88
766.095
532.737
405.111
335.843
293.139
264.123
242.836
226.327
212.95
201.802
192.376
184.42
177.816
172.524
168.503
165.686
164.073
163.717
164.274
165.867
168.727
172.933
178.907
187.201
198.533
213.502
232.279
255.437
285.332
324.02
379.208
472.066
589.586
687.242
763.495
831.384
888.841
931.08
963.721
989.477
1000.62
996.484
958.045
922.842
888.974
857.293
826.876
797.443
770.912
746.697
725.974
707.951
693.154
681.142
671.863
665.037
660.361
657.795
656.812
656.768
657.961
659.96
662.637
665.839
669.44
673.36
677.519
681.865
686.354
690.951
695.631
700.371
705.155
709.967
714.795
719.628
724.458
729.276
734.076
738.851
743.595
748.303
752.971
757.595
762.17
766.693
771.162
775.574
779.926
784.216
788.44
792.595
796.675
800.676
804.596
808.423
812.153
815.782
819.306
822.723
826.029
829.222
832.299
835.257
838.093
840.804
843.389
845.844
848.169
850.36
852.417
854.336
856.115
857.751
859.246
860.601
861.813
862.883
863.809
864.592
865.229
865.722
866.069
866.255
866.307
866.232
866.009
865.648
865.151
864.521
863.758
862.863
861.833
860.673
859.388
857.979
856.45
854.803
853.04
851.165
849.18
847.088
844.89
842.592
840.199
837.714
835.143
832.489
829.757
826.947
824.067
821.117
818.107
815.037
811.916
808.745
805.533
802.283
799
795.688
792.348
788.987
785.608
782.219
778.828
775.445
772.081
768.75
765.469
762.264
759.178
756.258
753.578
751.319
749.661
749.126
11470.4
3799.07
1789.49
950.579
589.955
426.957
344.709
297.157
266.7
245.354
229.308
216.316
205.257
195.578
187.058
179.64
173.329
168.15
164.211
161.63
160.411
160.517
161.706
164.251
168.162
173.468
180.479
190.024
203.19
220.75
245.496
282.104
337.701
423.562
529.86
623.576
697.893
764.019
818.256
857.829
887.155
906.04
911.939
898.603
869.346
840.56
811.717
786.9
763.266
740.53
718.353
697.581
679.127
662.955
649.31
637.967
628.984
622.165
617.36
614.586
613.485
613.43
614.695
616.9
619.95
623.65
627.872
632.504
637.453
642.648
648.028
653.549
659.173
664.871
670.62
676.402
682.202
688.005
693.8
699.577
705.327
711.043
716.719
722.348
727.925
733.444
738.902
744.296
749.619
754.867
760.038
765.129
770.139
775.063
779.899
784.644
789.294
793.85
798.305
802.649
806.875
810.981
814.963
818.819
822.545
826.139
829.598
832.918
836.097
839.131
842.019
844.758
847.346
849.781
852.062
854.186
856.152
857.959
859.606
861.091
862.414
863.575
864.573
865.408
866.079
866.586
866.928
867.088
867.11
866.975
866.678
866.224
865.617
864.859
863.952
862.897
861.698
860.358
858.877
857.26
855.51
853.629
851.62
849.487
847.234
844.862
842.376
839.78
837.078
834.276
831.38
828.393
825.32
822.164
818.93
815.623
812.25
808.815
805.324
801.781
798.195
794.569
790.909
787.219
783.501
779.762
776.007
772.244
768.479
764.725
760.992
757.291
753.639
750.055
746.548
743.181
740.01
737.161
734.71
732.845
11490.1
3722.77
1465.76
749.866
490.925
378.814
319.783
283.749
259.601
241.651
227.081
214.812
204.153
194.746
186.458
179.299
173.35
168.724
165.529
163.685
163.162
163.947
166.066
169.811
175.681
183.857
195.48
212.599
237.078
270.722
320.278
394.243
480.883
561.802
629.655
688.173
738.292
779.49
812.506
831.812
837.283
822.318
798.658
774.291
750.735
730.106
711.2
693.874
676.682
659.762
643.601
628.963
616.235
605.448
596.646
589.744
584.693
581.467
580.002
579.735
580.767
582.901
586.03
589.976
594.609
599.799
605.436
611.428
617.7
624.188
630.835
637.6
644.446
651.343
658.267
665.2
672.131
679.043
685.922
692.757
699.542
706.267
712.928
719.518
726.032
732.463
738.804
745.041
751.184
757.232
763.182
769.033
774.781
780.423
785.955
791.373
796.674
801.851
806.9
811.814
816.591
821.226
825.716
830.058
834.25
838.287
842.167
845.887
849.443
852.832
856.052
859.1
861.974
864.673
867.193
869.535
871.696
873.674
875.468
877.078
878.503
879.743
880.798
881.668
882.353
882.854
883.16
883.276
883.232
883.004
882.596
882.012
881.255
880.329
879.235
877.975
876.554
874.975
873.239
871.351
869.315
867.133
864.81
862.349
859.755
857.031
854.182
851.211
848.124
844.927
841.626
838.226
834.732
831.147
827.479
823.734
819.918
816.037
812.096
808.101
804.059
799.976
795.858
791.708
787.532
783.335
779.124
774.907
770.692
766.489
762.309
758.163
754.065
750.034
746.097
742.285
738.639
735.254
732.146
729.248
11521.3
3282.07
1165.49
620.202
434.391
350.445
305.563
277.649
257.345
241.853
229.402
218.675
209.081
200.447
192.816
186.336
181.202
177.552
175.575
175.118
176.354
179.082
183.741
191.267
202.591
218.383
242.086
277.108
324.826
384.872
450.59
512.161
569.288
620.058
664.401
701.922
734.383
757.545
765.633
757.875
739.26
719.434
699.627
682.313
667.07
653.463
640.462
627.633
614.692
602.116
590.488
580.28
571.686
564.739
559.443
555.733
553.794
553.2
553.827
555.692
558.663
562.611
567.422
572.965
579.122
585.785
592.858
600.259
607.922
615.805
623.831
631.957
640.147
648.368
656.588
664.771
672.872
680.908
688.895
696.826
704.69
712.479
720.186
727.805
735.33
742.756
750.075
757.291
764.384
771.347
778.178
784.874
791.434
797.854
804.132
810.262
816.242
822.067
827.735
833.244
838.59
843.769
848.777
853.612
858.271
862.751
867.048
871.159
875.08
878.809
882.343
885.679
888.815
891.75
894.482
897.01
899.331
901.444
903.348
905.043
906.528
907.804
908.871
909.729
910.379
910.821
911.041
911.067
910.895
910.52
909.944
909.173
908.208
907.054
905.714
904.189
902.486
900.606
898.554
896.333
893.949
891.404
888.705
885.854
882.857
879.719
876.444
873.037
869.503
865.85
862.083
858.209
854.232
850.16
845.999
841.757
837.44
833.055
828.608
824.104
819.55
814.955
810.322
805.657
800.967
796.258
791.538
786.814
782.095
777.392
772.714
768.072
763.479
758.952
754.513
750.19
746.012
742.052
738.291
734.447
11552.9
2753.33
970.164
559.285
412.729
342.669
303.597
279.194
262.558
249.843
239.199
229.821
221.437
214.088
207.983
203.323
200.633
199.844
201.111
204.379
210.055
218.276
230.409
247.778
271.388
302.65
341.198
384.872
431.348
477.893
522.295
563.04
600.103
632.609
661.694
685.62
696.062
696.25
684.867
670.718
654.798
640.593
628.145
617.415
607.622
598.182
588.636
578.929
569.28
560.184
552.087
545.274
539.869
535.894
533.504
532.585
532.816
534.382
537.115
540.939
545.758
551.472
558.007
565.232
573.026
581.293
589.941
598.882
608.019
617.236
626.591
636.058
645.599
655.177
664.751
674.288
683.778
693.196
702.524
711.758
720.878
729.879
738.756
747.508
756.127
764.608
772.941
781.116
789.126
796.969
804.646
812.155
819.495
826.663
833.655
840.47
847.102
853.551
859.814
865.889
871.77
877.456
882.942
888.224
893.302
898.172
902.831
907.276
911.503
915.509
919.292
922.849
926.179
929.28
932.151
934.791
937.198
939.371
941.308
943.01
944.477
945.709
946.708
947.475
948.01
948.308
948.376
948.22
947.841
947.238
946.415
945.376
944.124
942.663
940.997
939.13
937.066
934.81
932.365
929.737
926.931
923.95
920.801
917.489
914.019
910.396
906.627
902.717
898.67
894.495
890.197
885.785
881.264
876.643
871.931
867.134
862.26
857.316
852.308
847.24
842.122
836.959
831.758
826.526
821.27
815.999
810.72
805.442
800.173
794.921
789.698
784.514
779.381
774.314
769.333
764.463
759.723
755.172
750.779
746.08
11576.7
2253.33
846.118
518.95
397.639
339.728
307.577
287.753
273.99
263.415
254.692
247.292
241.146
236.404
233.762
233.06
234.646
238.939
245.428
253.765
265.08
280.673
300.893
325.645
354.342
385.995
419.222
452.787
485.799
517.376
546.603
573.108
597.764
620.042
632.367
635.381
631.088
623.585
612.89
602.409
592.76
584.53
577.263
570.531
563.88
557.06
550.02
542.943
536.165
530.085
525.017
521.128
518.616
517.558
517.567
518.971
521.665
525.556
530.516
536.459
543.286
550.873
559.028
567.764
577.077
586.891
597.117
607.673
618.498
629.562
640.766
652.044
663.352
674.666
685.913
697.037
708.008
718.801
729.399
739.801
750.033
760.108
770.029
779.799
789.411
798.855
808.116
817.184
826.05
834.71
843.167
851.418
859.465
867.304
874.93
882.343
889.539
896.518
903.278
909.817
916.13
922.215
928.068
933.686
939.067
944.21
949.112
953.77
958.182
962.343
966.251
969.905
973.303
976.445
979.331
981.958
984.327
986.435
988.282
989.869
991.196
992.264
993.075
993.631
993.932
993.98
993.774
993.322
992.625
991.686
990.508
989.095
987.452
985.582
983.49
981.182
978.661
975.934
973.004
969.878
966.561
963.058
959.375
955.518
951.494
947.309
942.969
938.481
933.849
929.082
924.186
919.168
914.04
908.809
903.485
898.076
892.589
887.031
881.408
875.725
869.989
864.208
858.389
852.54
846.671
840.792
834.909
829.032
823.168
817.326
811.515
805.745
800.03
794.384
788.826
783.375
778.046
772.888
767.875
762.382
11590.5
2046.88
816.487
512.245
398.389
346.027
318.064
301.083
289.589
281.158
274.748
269.986
267.121
266.134
267.017
270.498
276.403
284.541
294.633
307.423
323.065
341.425
362.156
384.735
408.473
432.708
456.847
480.348
502.47
523.467
543.69
562.106
574.163
578.653
578.976
576.581
571.519
565.609
559.466
553.972
549.112
544.76
540.599
536.395
532.014
527.458
522.867
518.496
514.662
511.689
510.017
509.43
509.905
511.604
514.412
518.318
523.1
528.928
535.838
543.76
552.605
562.288
572.769
583.934
595.678
607.904
620.502
633.375
646.448
659.674
672.96
686.192
699.311
712.258
724.987
737.448
749.607
761.452
772.995
784.272
795.333
806.215
816.933
827.494
837.89
848.1
858.095
867.862
877.391
886.678
895.722
904.526
913.086
921.4
929.465
937.276
944.835
952.142
959.195
965.993
972.533
978.811
984.824
990.57
996.048
1001.26
1006.2
1010.86
1015.26
1019.37
1023.2
1026.76
1030.03
1033.02
1035.72
1038.15
1040.29
1042.15
1043.73
1045.03
1046.04
1046.77
1047.23
1047.41
1047.32
1046.96
1046.32
1045.42
1044.26
1042.84
1041.17
1039.25
1037.08
1034.67
1032.03
1029.16
1026.07
1022.75
1019.23
1015.5
1011.56
1007.44
1003.12
998.627
993.957
989.121
984.125
978.977
973.682
968.25
962.682
956.99
951.188
945.285
939.291
933.212
927.057
920.83
914.54
908.19
901.789
895.34
888.855
882.344
875.819
869.29
862.764
856.248
849.75
843.278
836.84
830.447
824.114
817.856
811.687
805.627
799.686
793.904
788.275
782.033
11599.3
1932.92
779.676
504.579
403.442
356.747
332.077
317.321
307.652
301.093
296.975
295.106
294.784
296.541
300.477
306.478
314.398
324.125
335.745
349.188
364.095
380.25
397.334
414.857
432.36
449.499
465.902
482.055
498.185
512.462
522.895
528.151
530.835
531.677
531.426
529.941
527.9
525.845
523.947
522.313
520.864
519.534
518.336
517.023
515.605
514.186
512.929
512.064
511.73
511.901
512.544
514.231
517.08
521.179
526.521
533.16
541.25
550.74
561.358
572.958
585.423
598.653
612.564
627.031
641.965
657.273
672.756
688.278
703.722
718.961
733.897
748.503
762.783
776.829
790.529
803.746
816.433
828.6
840.312
851.672
862.821
873.844
884.751
895.565
906.261
916.789
927.073
937.109
946.888
956.4
965.64
974.606
983.296
991.706
999.832
1007.67
1015.22
1022.49
1029.48
1036.18
1042.59
1048.72
1054.55
1060.08
1065.33
1070.27
1074.93
1079.29
1083.35
1087.11
1090.57
1093.73
1096.59
1099.14
1101.39
1103.35
1105.01
1106.37
1107.42
1108.18
1108.65
1108.81
1108.69
1108.29
1107.58
1106.6
1105.34
1103.81
1102
1099.92
1097.58
1094.98
1092.13
1089.03
1085.68
1082.1
1078.29
1074.26
1070.01
1065.55
1060.88
1056.02
1050.96
1045.72
1040.3
1034.71
1028.97
1023.07
1017.03
1010.85
1004.54
998.104
991.565
984.931
978.208
971.403
964.523
957.575
950.566
943.5
936.387
929.224
922.03
914.818
907.601
900.386
893.18
885.992
878.826
871.689
864.59
857.543
850.562
843.663
836.859
830.167
823.595
817.174
810.929
803.974
11602.9
1911.72
777.979
510.866
414.51
371.113
348.62
335.135
326.43
321.108
318.627
318.002
319.378
322.892
328.117
334.878
343.029
352.448
363
374.485
386.687
399.356
412.218
425.01
437.535
449.638
461.246
471.506
479.708
486.079
491.163
495.227
498.69
501.78
504.539
506.989
509.284
511.51
513.679
515.753
517.653
519.256
520.286
521.218
522.267
523.581
525.325
527.678
530.782
534.777
539.962
546.336
553.999
562.958
573.219
584.855
598.026
612.694
628.416
644.897
661.971
679.51
697.388
715.472
733.603
751.645
769.546
787.203
804.501
821.318
837.536
853.062
867.865
881.965
895.283
907.778
919.434
930.299
940.538
950.362
960.17
970.126
980.117
990.223
1000.36
1010.42
1020.33
1030.01
1039.44
1048.58
1057.43
1065.98
1074.24
1082.19
1089.82
1097.15
1104.15
1110.85
1117.25
1123.34
1129.12
1134.6
1139.76
1144.6
1149.14
1153.36
1157.28
1160.89
1164.18
1167.17
1169.85
1172.2
1174.25
1175.98
1177.4
1178.52
1179.34
1179.85
1180.04
1179.93
1179.54
1178.82
1177.81
1176.52
1174.93
1173.06
1170.91
1168.48
1165.77
1162.79
1159.55
1156.04
1152.28
1148.28
1144.03
1139.54
1134.83
1129.89
1124.74
1119.38
1113.81
1108.05
1102.1
1095.96
1089.66
1083.19
1076.56
1069.79
1062.88
1055.85
1048.7
1041.47
1034.13
1026.71
1019.21
1011.62
1003.96
996.242
988.463
980.636
972.767
964.85
956.914
948.971
941.031
933.101
925.188
917.296
909.434
901.606
893.819
886.092
878.443
870.883
863.426
856.086
848.869
841.799
834.939
827.304
11603.5
1878.59
774.288
519.582
427.675
385.927
364.618
351.916
343.716
339.186
337.335
337.083
339.124
342.991
348.237
354.599
361.911
370.068
378.939
388.386
398.278
408.509
419.015
429.568
439.772
449.421
458.182
466.39
473.969
481.059
487.757
494.051
499.766
505.127
510.388
515.565
520.718
525.893
531.131
536.388
541.661
547.011
552.641
558.593
564.983
571.948
579.616
588.099
597.499
607.944
619.593
632.494
646.884
662.497
679.13
696.653
714.836
733.352
752.226
771.477
791.014
810.726
830.497
850.211
869.747
888.993
907.859
926.262
944.11
961.306
977.737
993.237
1007.65
1020.89
1033.1
1044.45
1055.04
1064.91
1074.07
1082.64
1090.81
1098.79
1106.78
1115.32
1124.12
1132.9
1141.59
1150.07
1158.27
1166.17
1173.76
1181.05
1188.02
1194.68
1201.01
1207.01
1212.69
1218.05
1223.1
1227.85
1232.3
1236.43
1240.24
1243.74
1246.92
1249.81
1252.38
1254.66
1256.63
1258.3
1259.67
1260.72
1261.46
1261.9
1262.03
1261.89
1261.47
1260.72
1259.67
1258.34
1256.71
1254.8
1252.59
1250.11
1247.36
1244.32
1241.02
1237.45
1233.62
1229.53
1225.19
1220.59
1215.75
1210.67
1205.36
1199.82
1194.07
1188.11
1181.94
1175.57
1169.01
1162.26
1155.33
1148.23
1140.97
1133.55
1125.98
1118.28
1110.45
1102.5
1094.46
1086.34
1078.13
1069.84
1061.46
1053.02
1044.5
1035.93
1027.31
1018.64
1009.95
1001.26
992.561
983.87
975.188
966.521
957.875
949.258
940.678
932.138
923.648
915.231
906.903
898.674
890.554
882.558
874.69
866.967
859.495
851.218
11601.2
1860.65
776.994
529.656
439.814
399.604
379.302
367.002
359.15
355.137
353.616
353.523
355.794
359.621
364.741
370.92
378.057
386.122
394.923
404.311
414.178
424.181
434.264
444.359
454.546
464.874
475.486
486.074
496.655
507.335
518.157
529.161
540.457
552.047
563.863
575.86
587.989
600.215
612.497
624.853
637.348
650.076
663.185
676.685
690.637
705.142
720.313
736.182
752.716
769.931
787.85
806.483
825.844
845.654
865.82
886.226
906.72
927.122
947.327
967.268
986.884
1006.1
1024.85
1043.06
1060.69
1077.68
1094
1109.63
1124.56
1138.74
1152.18
1164.87
1176.81
1187.78
1197.99
1207.61
1216.75
1225.4
1233.41
1240.82
1247.54
1253.74
1260.08
1266.69
1273.25
1279.63
1285.79
1291.68
1297.29
1302.61
1307.64
1312.41
1316.89
1321.09
1325
1328.61
1331.93
1334.98
1337.78
1340.31
1342.57
1344.57
1346.28
1347.72
1348.89
1349.8
1350.46
1350.85
1350.96
1350.84
1350.46
1349.77
1348.83
1347.62
1346.16
1344.44
1342.47
1340.24
1337.74
1334.98
1331.96
1328.69
1325.16
1321.39
1317.38
1313.12
1308.62
1303.89
1298.92
1293.71
1288.28
1282.62
1276.74
1270.65
1264.35
1257.85
1251.15
1244.26
1237.18
1229.92
1222.49
1214.88
1207.11
1199.18
1191.09
1182.87
1174.5
1166.01
1157.4
1148.66
1139.82
1130.88
1121.85
1112.74
1103.54
1094.27
1084.94
1075.55
1066.11
1056.64
1047.14
1037.65
1028.18
1018.71
1009.25
999.81
990.395
981.016
971.682
962.411
953.224
944.125
935.123
926.227
917.448
908.798
900.285
891.919
883.843
874.972
11596.3
1843.85
780.678
536.797
450.135
413.167
394.268
382.966
376.469
373.615
372.917
374.506
378.397
384.062
391.235
399.773
409.66
420.054
431.338
443.804
457.35
471.478
486.623
502.878
520.398
539.272
559.504
580.885
603.32
626.695
650.865
675.744
701.28
727.313
753.737
780.395
806.89
833.019
858.663
883.762
908.308
932.335
955.897
978.977
1001.64
1024.03
1046.62
1069.32
1091.56
1113.2
1134.16
1154.32
1173.23
1191.29
1208.62
1225.23
1241.07
1256.12
1270.35
1283.8
1296.48
1308.41
1319.54
1329.91
1339.51
1348.39
1356.55
1364.03
1370.84
1377.04
1382.68
1387.95
1393.04
1398
1402.77
1407.22
1411.35
1415.09
1418.25
1421.21
1424.2
1427.67
1431.26
1434.3
1436.8
1438.94
1440.83
1442.52
1444.03
1445.37
1446.53
1447.51
1448.31
1448.92
1449.34
1449.58
1449.63
1449.54
1449.29