/*--------------------------------*- C++ -*----------------------------------*\
| =========                 |                                                 |
| \\      /  F ield         | OpenFOAM: The Open Source CFD Toolbox           |
|  \\    /   O peration     | Version:  v2012                                 |
|   \\  /    A nd           | Website:  www.openfoam.com                      |
|    \\/     M anipulation  |                                                 |
\*---------------------------------------------------------------------------*/
FoamFile
{
    version     2.0;
    format      ascii;
    class       volScalarField;
    location    "1000";
    object      p;
}
// * * * * * * * * * * * * * * * * * * * * * * * * * * * * * * * * * * * * * //

dimensions      [0 2 -2 0 0 0 0];


internalField   nonuniform List<scalar> 
12225
(
-4.39993
-5.27881
-5.66554
-5.78075
-5.89966
-6.04453
-6.17534
-6.28287
-6.37482
-6.45906
-6.54072
-6.62057
-6.69918
-6.77846
-6.86093
-6.95092
-7.05134
-7.17309
-4.68183
-5.33283
-5.65743
-5.76811
-5.88366
-6.02424
-6.15289
-6.26021
-6.35379
-6.44068
-6.52385
-6.60421
-6.68277
-6.76136
-6.84217
-6.92823
-7.01787
-7.10805
-4.89507
-5.32997
-5.63254
-5.76716
-5.88814
-6.02507
-6.15074
-6.25646
-6.34945
-6.436
-6.51799
-6.5967
-6.6733
-6.74935
-6.82612
-6.90464
-6.98028
-7.04285
-5.04241
-5.35477
-5.6414
-5.78639
-5.902
-6.02886
-6.14833
-6.25092
-6.34204
-6.42688
-6.50738
-6.5846
-6.65955
-6.73317
-6.80595
-6.87744
-6.94275
-6.99392
-5.16745
-5.40198
-5.65804
-5.80312
-5.91422
-6.03362
-6.14831
-6.24848
-6.33791
-6.42117
-6.50018
-6.57569
-6.64845
-6.71897
-6.78726
-6.85217
-6.9098
-6.95453
-5.28173
-5.4549
-5.67404
-5.8167
-5.92596
-6.03936
-6.1492
-6.24665
-6.33416
-6.41568
-6.4929
-6.56635
-6.63656
-6.70377
-6.76767
-6.82695
-6.87871
-6.91901
-5.38602
-5.511
-5.69413
-5.83122
-5.9381
-6.04526
-6.14966
-6.24397
-6.32932
-6.40889
-6.48409
-6.55531
-6.62287
-6.68681
-6.74666
-6.80124
-6.84853
-6.88607
-5.46649
-5.56105
-5.71633
-5.84548
-5.94905
-6.05071
-6.15016
-6.24138
-6.32457
-6.40219
-6.47541
-6.54455
-6.60974
-6.67094
-6.72766
-6.77892
-6.82335
-6.85931
-5.53193
-5.60622
-5.73875
-5.85935
-5.95937
-6.05608
-6.15097
-6.23917
-6.32018
-6.39583
-6.46711
-6.53425
-6.59728
-6.6561
-6.71025
-6.75897
-6.80132
-6.83621
-5.59708
-5.65494
-5.76557
-5.8759
-5.9713
-6.06265
-6.15245
-6.23706
-6.31542
-6.38868
-6.45765
-6.52249
-6.58313
-6.63942
-6.691
-6.73731
-6.77779
-6.81178
-5.66109
-5.7059
-5.79659
-5.89529
-5.98489
-6.07049
-6.15474
-6.23517
-6.31036
-6.38082
-6.44711
-6.50934
-6.56737
-6.62105
-6.6701
-6.71416
-6.75296
-6.78613
-5.72294
-5.75763
-5.83102
-5.9174
-6.00003
-6.07951
-6.15789
-6.23359
-6.30509
-6.37232
-6.43559
-6.49494
-6.5502
-6.60122
-6.64781
-6.68979
-6.72705
-6.75948
-5.78147
-5.80849
-5.86749
-5.94164
-6.01642
-6.08947
-6.16177
-6.23231
-6.29963
-6.36325
-6.42322
-6.47947
-6.53185
-6.58022
-6.62445
-6.66448
-6.70033
-6.73199
-5.83531
-5.85658
-5.90403
-5.96688
-6.0334
-6.09983
-6.16601
-6.23114
-6.29394
-6.35367
-6.41011
-6.46315
-6.51261
-6.55836
-6.60036
-6.63856
-6.67311
-6.70398
-5.88265
-5.89967
-5.9382
-5.99126
-6.04979
-6.10966
-6.1699
-6.22967
-6.28782
-6.34352
-6.39638
-6.44619
-6.49277
-6.53603
-6.57591
-6.61245
-6.64574
-6.67588
-5.92102
-5.93501
-5.96697
-6.01221
-6.06372
-6.11757
-6.17235
-6.22712
-6.28082
-6.33263
-6.38203
-6.42876
-6.47265
-6.5136
-6.55155
-6.58657
-6.61873
-6.64815
-5.94699
-5.95896
-5.98656
-6.02629
-6.07243
-6.12141
-6.1717
-6.22227
-6.27216
-6.32055
-6.36692
-6.41096
-6.4525
-6.49144
-6.52774
-6.56146
-6.59265
-6.62144
-5.95483
-5.96597
-5.99175
-6.029
-6.0724
-6.11862
-6.16618
-6.21412
-6.26152
-6.30761
-6.35186
-6.39402
-6.43389
-6.47141
-6.50654
-6.53934
-6.56984
-6.59819
-5.94408
-5.95562
-5.9822
-6.02013
-6.06365
-6.10947
-6.15636
-6.20349
-6.24999
-6.29511
-6.3384
-6.37962
-6.41865
-6.45542
-6.48994
-6.52223
-6.5524
-6.58052
-5.9195
-5.93255
-5.96229
-6.00357
-6.0494
-6.09655
-6.14429
-6.192
-6.23879
-6.28393
-6.32708
-6.36809
-6.40687
-6.44339
-6.47766
-6.50978
-6.53981
-6.5679
-5.88413
-5.90001
-5.9355
-5.98253
-6.03218
-6.08173
-6.13135
-6.18059
-6.22842
-6.2742
-6.31773
-6.35896
-6.39785
-6.43439
-6.46865
-6.50075
-6.53078
-6.55891
-5.83964
-5.86019
-5.90463
-5.9596
-6.01388
-6.06635
-6.11855
-6.16993
-6.21924
-6.26598
-6.3102
-6.35192
-6.39112
-6.42782
-6.46218
-6.49432
-6.5244
-6.5526
-5.78672
-5.8148
-5.87225
-5.93687
-5.9958
-6.05141
-6.10668
-6.16051
-6.21144
-6.25929
-6.30436
-6.3467
-6.3863
-6.42324
-6.4577
-6.48989
-6.52
-6.54825
-5.72527
-5.76552
-5.84102
-5.91594
-5.97861
-6.03746
-6.09623
-6.1526
-6.20506
-6.25403
-6.30001
-6.34301
-6.38302
-6.42017
-6.45471
-6.4869
-6.517
-6.54527
-5.65451
-5.71401
-5.81369
-5.89806
-5.96272
-6.02471
-6.0872
-6.14599
-6.19984
-6.24991
-6.29682
-6.34049
-6.38088
-6.41816
-6.45268
-6.48476
-6.51471
-6.54289
-5.57345
-5.66178
-5.79149
-5.88355
-5.94864
-6.01347
-6.07923
-6.13988
-6.19484
-6.24596
-6.29386
-6.33829
-6.37914
-6.41666
-6.45121
-6.4832
-6.51306
-6.54133
-5.48147
-5.61268
-5.77202
-5.86794
-5.93435
-6.00345
-6.07245
-6.13446
-6.1902
-6.24217
-6.29085
-6.33581
-6.3769
-6.41441
-6.44873
-6.48036
-6.50981
-6.53783
-5.37033
-5.58044
-5.75957
-5.84696
-5.91408
-5.9902
-6.0644
-6.12923
-6.18721
-6.24137
-6.29193
-6.33828
-6.38029
-6.41827
-6.45269
-6.48419
-6.51353
-6.54235
-5.1984
-5.5725
-5.7833
-5.85086
-5.9092
-5.9858
-6.06034
-6.12436
-6.18202
-6.23662
-6.28786
-6.33475
-6.3771
-6.41507
-6.44891
-6.47928
-6.50737
-6.5344
-4.93934
-5.49861
-5.77478
-5.85001
-5.91257
-5.99514
-6.07337
-6.13893
-6.19768
-6.25341
-6.30565
-6.35323
-6.39587
-6.43358
-6.4659
-6.49335
-6.51763
-6.538
-7.54058
-7.54072
-7.54082
-7.54098
-7.54105
-7.54013
-7.53712
-7.53213
-7.52673
-7.52236
-7.52065
-7.52257
-7.52785
-7.53557
-7.54466
-7.55411
-7.56301
-7.57062
-7.57635
-7.57987
-7.58143
-7.58153
-7.58049
-7.57856
-7.57613
-7.57369
-7.57166
-7.5703
-7.56965
-7.56949
-7.56946
-7.56925
-7.56878
-7.56814
-7.56747
-7.56685
-7.56625
-7.56538
-7.56385
-7.56151
-7.55883
-7.55652
-7.55553
-7.55642
-7.55868
-7.56132
-7.56352
-7.56506
-7.56619
-7.56736
-7.56884
-7.57094
-7.57538
-7.58178
-7.58634
-7.58579
-7.58088
-7.57669
-7.58111
-7.60024
-7.63706
-7.69155
-7.7613
-7.84269
-7.9314
-8.02293
-8.11319
-8.19919
-8.279
-8.35151
-8.41618
-8.47291
-8.52185
-8.5633
-8.59761
-8.62514
-8.64623
-8.66116
-8.67018
-8.67349
-8.67123
-8.66352
-8.65047
-8.63211
-8.60849
-8.57964
-8.54556
-8.50626
-8.46171
-8.41188
-8.35674
-8.29626
-8.23041
-8.15916
-8.08249
-8.00035
-7.91274
-7.81968
-7.7213
-7.6176
-7.50827
-7.39301
-7.27187
-7.14503
-7.01252
-6.87438
-6.73062
-6.58129
-6.42641
-6.26604
-6.10024
-5.92907
-5.75262
-5.57097
-5.38423
-5.1925
-4.9959
-4.79456
-4.58863
-4.37824
-4.16356
-3.94476
-3.72199
-3.49546
-3.26534
-3.03183
-2.79515
-2.55553
-2.31324
-2.06851
-1.82134
-1.57182
-1.32028
-1.06699
-0.812197
-0.556112
-0.298964
-0.0409819
0.217612
0.476601
0.735772
0.994917
1.25383
1.51231
1.77017
2.0272
2.28323
2.53809
2.79159
3.04358
3.29388
3.54233
3.78878
4.03308
4.2751
4.5147
4.75178
4.98625
5.218
5.44696
5.67305
5.89618
6.11627
6.33324
6.54702
6.75753
6.9647
7.16846
7.36875
7.5655
7.75863
7.94807
8.13372
8.31549
8.49331
8.66715
8.83709
9.0031
9.16818
9.32307
-7.54219
-7.54247
-7.54312
-7.54406
-7.54461
-7.54406
-7.54174
-7.53787
-7.53415
-7.53241
-7.5335
-7.53749
-7.54396
-7.55211
-7.56105
-7.56997
-7.57822
-7.58531
-7.59096
-7.59497
-7.59704
-7.59696
-7.59491
-7.59135
-7.58686
-7.58211
-7.57776
-7.57433
-7.572
-7.57057
-7.56956
-7.56857
-7.56761
-7.56705
-7.56697
-7.56706
-7.56703
-7.56656
-7.56533
-7.56329
-7.56099
-7.55937
-7.55924
-7.56073
-7.56311
-7.56531
-7.56675
-7.56702
-7.5666
-7.567
-7.56706
-7.56497
-7.5628
-7.56561
-7.57641
-7.58638
-7.58784
-7.58702
-7.59557
-7.6204
-7.66439
-7.72658
-7.80347
-7.88997
-7.98072
-8.07126
-8.15823
-8.23946
-8.31376
-8.38059
-8.43985
-8.49169
-8.53639
-8.57427
-8.60565
-8.63082
-8.65004
-8.66353
-8.67145
-8.67395
-8.67113
-8.66305
-8.64978
-8.63134
-8.60776
-8.57904
-8.54517
-8.50616
-8.46197
-8.41257
-8.35792
-8.298
-8.23277
-8.16219
-8.08622
-8.00482
-7.91793
-7.82547
-7.72736
-7.62349
-7.51398
-7.39903
-7.27859
-7.15253
-7.02085
-6.88354
-6.74063
-6.59214
-6.43811
-6.27859
-6.11362
-5.94329
-5.76767
-5.58684
-5.4009
-5.20996
-5.01415
-4.81358
-4.60839
-4.39874
-4.18476
-3.96664
-3.74453
-3.51862
-3.28908
-3.05611
-2.81987
-2.58056
-2.33837
-2.0935
-1.84632
-1.59708
-1.34589
-1.09295
-0.838473
-0.582678
-0.325789
-0.0680382
0.190354
0.44917
0.708198
0.967228
1.22605
1.48447
1.74229
1.99931
2.25536
2.51025
2.76382
3.0159
3.26631
3.5149
3.7615
4.00598
4.24819
4.48801
4.72531
4.96001
5.19201
5.42123
5.64757
5.87096
6.09133
6.30859
6.52266
6.73347
6.94095
7.14502
7.34564
7.54272
7.7362
7.92601
8.11207
8.29436
8.47283
8.64741
8.81837
8.98504
9.15212
9.30643
-7.54381
-7.54387
-7.54406
-7.54441
-7.54479
-7.54487
-7.54473
-7.54501
-7.54663
-7.55014
-7.55553
-7.56248
-7.57051
-7.57905
-7.58755
-7.5955
-7.60253
-7.60835
-7.61279
-7.61575
-7.61713
-7.61687
-7.61505
-7.61185
-7.60748
-7.60217
-7.59623
-7.59001
-7.58392
-7.57833
-7.57354
-7.5698
-7.5673
-7.56597
-7.56543
-7.56511
-7.56456
-7.56362
-7.56225
-7.56072
-7.5598
-7.56035
-7.56267
-7.56603
-7.56906
-7.5706
-7.57007
-7.56653
-7.56091
-7.55622
-7.55627
-7.56011
-7.56285
-7.56844
-7.58278
-7.60386
-7.62777
-7.65491
-7.68926
-7.73345
-7.7877
-7.85072
-7.92031
-7.99387
-8.06877
-8.14276
-8.21408
-8.28143
-8.34398
-8.40118
-8.45276
-8.49857
-8.53862
-8.57296
-8.60169
-8.62491
-8.64273
-8.65524
-8.66252
-8.66464
-8.66164
-8.65355
-8.64041
-8.62221
-8.59896
-8.57065
-8.53727
-8.49879
-8.4552
-8.40645
-8.35251
-8.29333
-8.22888
-8.15913
-8.08403
-8.00355
-7.91764
-7.82626
-7.72932
-7.6267
-7.51843
-7.40459
-7.28522
-7.16026
-7.02969
-6.89352
-6.75175
-6.60441
-6.45153
-6.29316
-6.12935
-5.96016
-5.78568
-5.60598
-5.42117
-5.23134
-5.03662
-4.83712
-4.63299
-4.42437
-4.21141
-3.99427
-3.77311
-3.54813
-3.31949
-3.08739
-2.85202
-2.61358
-2.37224
-2.1282
-1.88177
-1.63317
-1.38259
-1.13022
-0.876292
-0.621003
-0.364586
-0.107266
0.150737
0.409204
0.667921
0.926679
1.18527
1.44349
1.70114
1.95804
2.21399
2.46883
2.72236
2.97443
3.22487
3.47352
3.72022
3.96481
4.20716
4.44713
4.68461
4.9195
5.15169
5.3811
5.60764
5.83124
6.05181
6.26928
6.48355
6.69456
6.90223
7.10649
7.30728
7.50453
7.69818
7.88817
8.07441
8.25683
8.43542
8.61021
8.78166
8.94856
9.11824
9.26882
-7.54477
-7.54449
-7.54408
-7.544
-7.54505
-7.54788
-7.55248
-7.55852
-7.56566
-7.5736
-7.58201
-7.59059
-7.59905
-7.60715
-7.61463
-7.62126
-7.62684
-7.63123
-7.63431
-7.63603
-7.63635
-7.63526
-7.6328
-7.62907
-7.62421
-7.6183
-7.61149
-7.60393
-7.5958
-7.5874
-7.57913
-7.57146
-7.56486
-7.55955
-7.5555
-7.55245
-7.55006
-7.54821
-7.5473
-7.54819
-7.55149
-7.55672
-7.56246
-7.56711
-7.56872
-7.56696
-7.56309
-7.55897
-7.55628
-7.55579
-7.56031
-7.57164
-7.58804
-7.6086
-7.63467
-7.66644
-7.70293
-7.74301
-7.78689
-7.83514
-7.88798
-7.94506
-8.00553
-8.06819
-8.13166
-8.19455
-8.25565
-8.31397
-8.36872
-8.41935
-8.46548
-8.50686
-8.54335
-8.57488
-8.60143
-8.62299
-8.63957
-8.65118
-8.65785
-8.65958
-8.65638
-8.64826
-8.6352
-8.6172
-8.59424
-8.5663
-8.53336
-8.4954
-8.45237
-8.40424
-8.35096
-8.2925
-8.2288
-8.15983
-8.08553
-8.00587
-7.92079
-7.83025
-7.73419
-7.63256
-7.52535
-7.41259
-7.29428
-7.17039
-7.0409
-6.90582
-6.76515
-6.61892
-6.46715
-6.30989
-6.14719
-5.97912
-5.80574
-5.62714
-5.44341
-5.25466
-5.06099
-4.86254
-4.65943
-4.45181
-4.23983
-4.02365
-3.80343
-3.57935
-3.35159
-3.12033
-2.88578
-2.64812
-2.40756
-2.16431
-1.9186
-1.67065
-1.42067
-1.16888
-0.915478
-0.660684
-0.404732
-0.147838
0.109779
0.367898
0.626305
0.884788
1.14314
1.40116
1.65865
1.91541
2.17126
2.42602
2.67952
2.93157
3.18203
3.43073
3.6775
3.92219
4.16466
4.40478
4.64241
4.87747
5.10984
5.33943
5.56616
5.78995
6.01071
6.22837
6.44284
6.65403
6.86188
7.06631
7.26725
7.46463
7.65841
7.84851
8.03488
8.21747
8.39628
8.57127
8.74303
8.90976
9.08016
9.22479
-7.54684
-7.54627
-7.54571
-7.54674
-7.55109
-7.55851
-7.56778
-7.57788
-7.58814
-7.5981
-7.60754
-7.61635
-7.62448
-7.63186
-7.63838
-7.64391
-7.64834
-7.65157
-7.65352
-7.65416
-7.65346
-7.65141
-7.64803
-7.64338
-7.63753
-7.63055
-7.62251
-7.61352
-7.6037
-7.59317
-7.58209
-7.57078
-7.55973
-7.54954
-7.54073
-7.53377
-7.52897
-7.52683
-7.52809
-7.53313
-7.54072
-7.54833
-7.55405
-7.55748
-7.55866
-7.55831
-7.55776
-7.5586
-7.56313
-7.57241
-7.58726
-7.60854
-7.63584
-7.6677
-7.70279
-7.74041
-7.78024
-7.82236
-7.8671
-7.91471
-7.96517
-8.01815
-8.07304
-8.12902
-8.18518
-8.24061
-8.29446
-8.34602
-8.39469
-8.43997
-8.48151
-8.51903
-8.55233
-8.58126
-8.60572
-8.62561
-8.6409
-8.65153
-8.65746
-8.65867
-8.65514
-8.64682
-8.63371
-8.61575
-8.59293
-8.56521
-8.53257
-8.49496
-8.45235
-8.40469
-8.35194
-8.29404
-8.23096
-8.16264
-8.08903
-8.01009
-7.92575
-7.83598
-7.74071
-7.63992
-7.5336
-7.42173
-7.3043
-7.1813
-7.05271
-6.91853
-6.77877
-6.63345
-6.48259
-6.32625
-6.16446
-5.99729
-5.82481
-5.6471
-5.46426
-5.27637
-5.08357
-4.88596
-4.68369
-4.47688
-4.26569
-4.05028
-3.83081
-3.60746
-3.3804
-3.14982
-2.91593
-2.6789
-2.43894
-2.19627
-1.95112
-1.7037
-1.45421
-1.20288
-0.949908
-0.69552
-0.439946
-0.183399
0.0738996
0.331731
0.58988
0.848136
1.10629
1.36414
1.62148
1.87813
2.13389
2.38859
2.64204
2.89409
3.14456
3.39329
3.64011
3.88488
4.12744
4.36766
4.60542
4.84061
5.07313
5.30287
5.52976
5.75372
5.97466
6.19248
6.40712
6.61847
6.82648
7.03107
7.23218
7.42973
7.62367
7.81392
8.00045
8.18318
8.36214
8.5372
8.70893
8.87503
9.04494
9.183
-7.55132
-7.55026
-7.55039
-7.55498
-7.56385
-7.57482
-7.58649
-7.59804
-7.60897
-7.61911
-7.62845
-7.63701
-7.64474
-7.65157
-7.65741
-7.66218
-7.66578
-7.66816
-7.66925
-7.66903
-7.66749
-7.66461
-7.66041
-7.65492
-7.64819
-7.64022
-7.63102
-7.62067
-7.60927
-7.5969
-7.58366
-7.56977
-7.55564
-7.54198
-7.52971
-7.52002
-7.51408
-7.51283
-7.51629
-7.52243
-7.52901
-7.53489
-7.53967
-7.54365
-7.54752
-7.55237
-7.55909
-7.56892
-7.58352
-7.60357
-7.6287
-7.65823
-7.69127
-7.72729
-7.7656
-7.80578
-7.84753
-7.89086
-7.93586
-7.98256
-8.03082
-8.08038
-8.13084
-8.18166
-8.23225
-8.28202
-8.33036
-8.37674
-8.42067
-8.46174
-8.4996
-8.53395
-8.56457
-8.59125
-8.61385
-8.63223
-8.64629
-8.65594
-8.66111
-8.66175
-8.65779
-8.64918
-8.63589
-8.61785
-8.59504
-8.5674
-8.53491
-8.49752
-8.45518
-8.40785
-8.35547
-8.298
-8.23538
-8.16756
-8.09449
-8.0161
-7.93236
-7.84319
-7.74857
-7.64845
-7.54281
-7.43163
-7.31489
-7.19258
-7.06468
-6.9312
-6.79213
-6.6475
-6.49734
-6.34169
-6.18059
-6.0141
-5.84229
-5.66525
-5.48307
-5.29584
-5.10367
-4.90669
-4.70503
-4.49882
-4.28822
-4.07338
-3.85446
-3.63165
-3.40511
-3.17503
-2.94162
-2.70505
-2.46554
-2.22331
-1.97857
-1.73153
-1.48241
-1.23142
-0.978769
-0.724687
-0.469399
-0.213117
0.0439372
0.301546
0.559493
0.817567
1.07556
1.33327
1.59049
1.84704
2.10272
2.35736
2.61077
2.86279
3.11325
3.36199
3.60884
3.85364
4.09625
4.33654
4.57437
4.80964
5.04225
5.2721
5.49911
5.72318
5.94423
6.16217
6.37693
6.58841
6.79655
7.00126
7.20249
7.40016
7.59421
7.78458
7.97119
8.15399
8.33295
8.50788
8.67931
8.84449
9.01366
9.14528
-7.55758
-7.55676
-7.55933
-7.568
-7.57958
-7.59163
-7.60345
-7.61471
-7.62528
-7.63514
-7.64425
-7.65255
-7.65996
-7.66638
-7.67174
-7.67595
-7.67897
-7.68073
-7.68119
-7.68034
-7.67816
-7.67465
-7.66984
-7.66372
-7.65625
-7.64738
-7.63722
-7.62585
-7.61335
-7.59978
-7.58522
-7.5699
-7.55439
-7.53954
-7.52645
-7.5167
-7.51164
-7.51077
-7.51231
-7.51502
-7.51862
-7.52315
-7.52884
-7.53594
-7.54466
-7.55606
-7.57116
-7.59039
-7.61382
-7.6411
-7.6718
-7.70545
-7.74144
-7.77951
-7.81935
-7.86071
-7.90333
-7.94703
-7.99174
-8.03738
-8.08382
-8.13085
-8.17817
-8.22543
-8.27221
-8.31806
-8.36256
-8.40526
-8.44577
-8.48373
-8.51879
-8.55069
-8.57917
-8.60402
-8.62505
-8.64212
-8.65508
-8.66383
-8.66826
-8.6683
-8.66387
-8.6549
-8.64134
-8.62312
-8.60021
-8.57254
-8.54008
-8.50277
-8.46058
-8.41344
-8.36131
-8.30411
-8.24182
-8.17435
-8.10166
-8.02369
-7.94037
-7.85166
-7.75751
-7.65789
-7.55275
-7.44207
-7.32584
-7.20403
-7.07663
-6.94364
-6.80508
-6.66095
-6.51128
-6.35611
-6.1955
-6.02949
-5.85816
-5.68158
-5.49986
-5.31307
-5.12135
-4.9248
-4.72356
-4.51777
-4.30757
-4.09312
-3.87458
-3.65214
-3.42595
-3.19622
-2.96314
-2.72689
-2.4877
-2.24577
-2.00132
-1.75455
-1.5057
-1.25495
-1.00252
-0.748662
-0.493579
-0.237492
0.0193809
0.276821
0.534613
0.792545
1.05041
1.308
1.56512
1.82158
2.07718
2.33176
2.58512
2.8371
3.08754
3.33627
3.58311
3.82792
4.07054
4.31084
4.5487
4.784
5.01665
5.24655
5.47361
5.69775
5.91887
6.13689
6.35171
6.56326
6.77147
6.97625
7.17755
7.37529
7.5694
7.75981
7.94644
8.12921
8.30806
8.48274
8.65372
8.81787
8.98634
9.11196
-7.5633
-7.56389
-7.57016
-7.58109
-7.59285
-7.60436
-7.61552
-7.62624
-7.63644
-7.64604
-7.65492
-7.66298
-7.67012
-7.67624
-7.68126
-7.68512
-7.68775
-7.68911
-7.68918
-7.68793
-7.68535
-7.68146
-7.67625
-7.66961
-7.66146
-7.65193
-7.6412
-7.62932
-7.61631
-7.60229
-7.5875
-7.5722
-7.55698
-7.54287
-7.53132
-7.52345
-7.51854
-7.51503
-7.51274
-7.51246
-7.51481
-7.51974
-7.52718
-7.53778
-7.5521
-7.57012
-7.59166
-7.61649
-7.64456
-7.67549
-7.70898
-7.74475
-7.78245
-7.82182
-7.86256
-7.90445
-7.9473
-7.99095
-8.03528
-8.08017
-8.12545
-8.17092
-8.21631
-8.26136
-8.30573
-8.34909
-8.39106
-8.43131
-8.46947
-8.50524
-8.53831
-8.56839
-8.59526
-8.61868
-8.63846
-8.65443
-8.66645
-8.67439
-8.67813
-8.67758
-8.67265
-8.66328
-8.64939
-8.63092
-8.60781
-8.58001
-8.54747
-8.51015
-8.46798
-8.42093
-8.36891
-8.31188
-8.24977
-8.18253
-8.11009
-8.03239
-7.94937
-7.86097
-7.76715
-7.66785
-7.56305
-7.45271
-7.33682
-7.21534
-7.08828
-6.95562
-6.81738
-6.67358
-6.52423
-6.36938
-6.20908
-6.04338
-5.87235
-5.69607
-5.51463
-5.32813
-5.13669
-4.94041
-4.73943
-4.5339
-4.32395
-4.10975
-3.89145
-3.66923
-3.44327
-3.21376
-2.98089
-2.74485
-2.50587
-2.26414
-2.01988
-1.7733
-1.52461
-1.27403
-1.02176
-0.768048
-0.513109
-0.257161
-0.000420939
0.256893
0.514566
0.772386
1.03015
1.28764
1.54467
1.80105
2.05658
2.31108
2.56439
2.81633
3.06674
3.31544
3.56225
3.80702
4.04961
4.28989
4.52773
4.76302
4.99568
5.22559
5.45268
5.67685
5.898
6.11604
6.33089
6.54247
6.7507
6.95551
7.15684
7.35461
7.54875
7.73916
7.92576
8.10844
8.28713
8.46147
8.63194
8.79506
8.96291
9.08311
-7.56664
-7.56938
-7.57843
-7.58951
-7.60045
-7.61123
-7.62183
-7.63216
-7.64209
-7.65147
-7.66019
-7.6681
-7.67509
-7.68106
-7.68592
-7.68961
-7.69206
-7.69325
-7.69314
-7.69171
-7.68898
-7.68493
-7.67946
-7.67242
-7.66395
-7.65427
-7.64351
-7.63171
-7.61891
-7.60526
-7.59109
-7.57691
-7.56354
-7.55181
-7.54231
-7.53462
-7.52758
-7.52135
-7.51704
-7.51549
-7.51749
-7.52363
-7.53391
-7.54815
-7.56607
-7.58738
-7.61196
-7.63951
-7.66984
-7.70265
-7.73767
-7.77465
-7.81331
-7.85341
-7.89471
-7.937
-7.98011
-8.02389
-8.06816
-8.11276
-8.1575
-8.20219
-8.24659
-8.29045
-8.33348
-8.3754
-8.41588
-8.45463
-8.49134
-8.52571
-8.55744
-8.58629
-8.612
-8.63436
-8.65317
-8.66828
-8.67951
-8.68673
-8.68983
-8.68871
-8.68329
-8.67348
-8.65922
-8.64043
-8.61706
-8.58904
-8.55633
-8.51889
-8.47667
-8.42959
-8.3776
-8.32063
-8.25861
-8.19149
-8.11919
-8.04164
-7.95879
-7.87058
-7.77694
-7.67784
-7.57323
-7.46309
-7.34739
-7.22611
-7.09923
-6.96677
-6.82871
-6.68508
-6.53591
-6.38123
-6.2211
-6.05557
-5.8847
-5.70858
-5.5273
-5.34095
-5.14965
-4.95351
-4.75268
-4.54728
-4.33747
-4.1234
-3.90522
-3.68313
-3.45729
-3.2279
-2.99514
-2.75923
-2.52037
-2.27876
-2.03461
-1.78814
-1.53957
-1.28908
-1.03692
-0.783317
-0.528481
-0.272634
-0.0159945
0.241221
0.498798
0.756524
1.01419
1.2716
1.52855
1.78484
2.04029
2.29472
2.54796
2.79985
3.05022
3.29886
3.54561
3.79033
4.03286
4.27308
4.51087
4.74613
4.97875
5.20864
5.43572
5.65989
5.88104
6.09907
6.31391
6.52547
6.7337
6.9385
7.13983
7.33761
7.53174
7.72212
7.90866
8.09122
8.26969
8.44367
8.6136
8.77572
8.943
9.05848
-7.56629
-7.57107
-7.58073
-7.59098
-7.60123
-7.61154
-7.62182
-7.63192
-7.64172
-7.65104
-7.65974
-7.66767
-7.6747
-7.68072
-7.68565
-7.68941
-7.69195
-7.69321
-7.69318
-7.69182
-7.68913
-7.68505
-7.67947
-7.67244
-7.66417
-7.6548
-7.64441
-7.63306
-7.62092
-7.60831
-7.59563
-7.58348
-7.57235
-7.56211
-7.55257
-7.54358
-7.53508
-7.52789
-7.52328
-7.52222
-7.52532
-7.53271
-7.54418
-7.55957
-7.57867
-7.60126
-7.6271
-7.65588
-7.6873
-7.72107
-7.75692
-7.79462
-7.83392
-7.87461
-7.91645
-7.95927
-8.00287
-8.04705
-8.09163
-8.13641
-8.1812
-8.22579
-8.26994
-8.31341
-8.35594
-8.39725
-8.43707
-8.4751
-8.51106
-8.54467
-8.57562
-8.60368
-8.6286
-8.6502
-8.66827
-8.68265
-8.69319
-8.69978
-8.70229
-8.70064
-8.69473
-8.68449
-8.66983
-8.6507
-8.62701
-8.59871
-8.56577
-8.52815
-8.4858
-8.43864
-8.38659
-8.3296
-8.26758
-8.20048
-8.12822
-8.05073
-7.96795
-7.8798
-7.78624
-7.68721
-7.58269
-7.47263
-7.35701
-7.2358
-7.10901
-6.97661
-6.83862
-6.69506
-6.54595
-6.39134
-6.23127
-6.06579
-5.89498
-5.71892
-5.53768
-5.35138
-5.16013
-4.96404
-4.76326
-4.55791
-4.34814
-4.13411
-3.91599
-3.69394
-3.46816
-3.23881
-3.00611
-2.77025
-2.53145
-2.28991
-2.04582
-1.79943
-1.55092
-1.3005
-1.04841
-0.794879
-0.540121
-0.284353
-0.0277955
0.229336
0.486827
0.744466
1.00204
1.25936
1.51621
1.77241
2.02777
2.28212
2.53528
2.7871
3.03741
3.28599
3.53266
3.77728
4.01972
4.25985
4.49757
4.73275
4.96531
5.19515
5.4222
5.64636
5.86747
6.08546
6.30026
6.51178
6.71997
6.92475
7.12606
7.32382
7.51793
7.70825
7.89469
8.0771
8.25533
8.42892
8.5983
8.75948
8.92621
9.03769
-7.55964
-7.56556
-7.57466
-7.58436
-7.59441
-7.6046
-7.61483
-7.62497
-7.63488
-7.64438
-7.65331
-7.66151
-7.66883
-7.67517
-7.68042
-7.68451
-7.68735
-7.68892
-7.68917
-7.68807
-7.6856
-7.6817
-7.67636
-7.66968
-7.66182
-7.65292
-7.64312
-7.63257
-7.62161
-7.61059
-7.59959
-7.58867
-7.57793
-7.56736
-7.55708
-7.54742
-7.53893
-7.53233
-7.52844
-7.52793
-7.53127
-7.53872
-7.55028
-7.56588
-7.58536
-7.60843
-7.63479
-7.66407
-7.69599
-7.73027
-7.76666
-7.80494
-7.84486
-7.88622
-7.92878
-7.97233
-8.01665
-8.06154
-8.1068
-8.15222
-8.19758
-8.24265
-8.28718
-8.33091
-8.37357
-8.41491
-8.45466
-8.49253
-8.52825
-8.56153
-8.5921
-8.61972
-8.64415
-8.6652
-8.68271
-8.6965
-8.70646
-8.71247
-8.71445
-8.71228
-8.7059
-8.69521
-8.68015
-8.66063
-8.63659
-8.60797
-8.57474
-8.53689
-8.49436
-8.44706
-8.39491
-8.33782
-8.27574
-8.20858
-8.13629
-8.05878
-7.97597
-7.88782
-7.79424
-7.69521
-7.59068
-7.48062
-7.365
-7.2438
-7.11699
-6.98459
-6.84659
-6.70301
-6.5539
-6.39927
-6.23919
-6.0737
-5.90288
-5.72679
-5.54554
-5.35923
-5.16796
-4.97186
-4.77107
-4.56572
-4.35595
-4.14192
-3.9238
-3.70176
-3.47598
-3.24664
-3.01396
-2.77813
-2.53936
-2.29785
-2.05382
-1.80747
-1.559
-1.30864
-1.05661
-0.803143
-0.548458
-0.292768
-0.0362929
0.220752
0.478151
0.735695
0.993177
1.25039
1.50715
1.76324
2.0185
2.27274
2.5258
2.77755
3.02779
3.27628
3.52284
3.76734
4.00966
4.24968
4.48728
4.72236
4.95483
5.1846
5.41161
5.63573
5.85679
6.07472
6.28945
6.50091
6.70905
6.91379
7.11507
7.31281
7.50688
7.69713
7.88346
8.06569
8.24365
8.41684
8.58569
8.74598
8.91217
9.02036
-7.54397
-7.55001
-7.55881
-7.56886
-7.57934
-7.58987
-7.60038
-7.61083
-7.62111
-7.63105
-7.64046
-7.64917
-7.65702
-7.66389
-7.66967
-7.67427
-7.67763
-7.67969
-7.68041
-7.67976
-7.67771
-7.67425
-7.66941
-7.66331
-7.65613
-7.64808
-7.6393
-7.62988
-7.61991
-7.60953
-7.59882
-7.58779
-7.57657
-7.56542
-7.55475
-7.545
-7.53662
-7.53024
-7.52658
-7.52622
-7.52966
-7.53718
-7.54887
-7.56466
-7.58434
-7.60761
-7.63415
-7.66367
-7.69588
-7.73055
-7.76745
-7.80635
-7.847
-7.88918
-7.93265
-7.97718
-8.02253
-8.06847
-8.11477
-8.1612
-8.20752
-8.25346
-8.29877
-8.34319
-8.38646
-8.4283
-8.46844
-8.50658
-8.54245
-8.57576
-8.60625
-8.63365
-8.65776
-8.67841
-8.69544
-8.70871
-8.7181
-8.72353
-8.72495
-8.72225
-8.71537
-8.70424
-8.68876
-8.66886
-8.64444
-8.61543
-8.58187
-8.54377
-8.50105
-8.4536
-8.40131
-8.34411
-8.28192
-8.21468
-8.14231
-8.06474
-7.98189
-7.89368
-7.80005
-7.70096
-7.59638
-7.48627
-7.37061
-7.24937
-7.12252
-6.99007
-6.85202
-6.7084
-6.55923
-6.40456
-6.24444
-6.07891
-5.90805
-5.73192
-5.55063
-5.36428
-5.17298
-4.97686
-4.77604
-4.57067
-4.36089
-4.14685
-3.92872
-3.70668
-3.4809
-3.25158
-3.01892
-2.78312
-2.54438
-2.30292
-2.05893
-1.81263
-1.56422
-1.31392
-1.06196
-0.808573
-0.553968
-0.298365
-0.0419824
0.214965
0.472262
0.729699
0.987069
1.24417
1.5008
1.75678
2.01192
2.26604
2.51898
2.77066
3.02086
3.26924
3.51566
3.76
4.00217
4.24205
4.47952
4.71448
4.94684
5.17652
5.40349
5.62758
5.84856
6.0664
6.28104
6.49243
6.7005
6.90519
7.10644
7.30417
7.49819
7.68836
7.87456
8.0566
8.23429
8.40708
8.57541
8.73489
8.9005
9.00612
-7.51791
-7.52349
-7.53294
-7.54429
-7.55577
-7.56691
-7.57787
-7.58883
-7.59974
-7.61041
-7.62061
-7.63011
-7.63872
-7.64631
-7.65277
-7.65805
-7.66208
-7.66479
-7.66616
-7.66616
-7.6648
-7.66209
-7.65811
-7.65293
-7.64666
-7.63942
-7.63129
-7.62233
-7.61261
-7.60215
-7.59107
-7.57954
-7.56786
-7.55631
-7.54523
-7.53509
-7.52649
-7.52006
-7.51649
-7.51634
-7.52005
-7.52783
-7.53973
-7.55564
-7.57537
-7.59866
-7.62526
-7.65494
-7.68746
-7.72261
-7.76013
-7.79977
-7.8413
-7.88445
-7.92899
-7.97466
-8.02121
-8.06842
-8.11603
-8.16376
-8.21133
-8.25845
-8.30487
-8.35032
-8.39452
-8.43717
-8.478
-8.51671
-8.553
-8.58655
-8.61708
-8.64431
-8.66807
-8.68824
-8.70473
-8.71738
-8.72609
-8.73087
-8.73168
-8.72846
-8.72113
-8.70962
-8.69381
-8.67359
-8.64881
-8.61935
-8.58537
-8.54704
-8.5042
-8.45666
-8.40427
-8.34695
-8.28467
-8.21735
-8.14493
-8.06733
-7.98442
-7.89615
-7.80246
-7.70331
-7.59868
-7.48854
-7.37285
-7.25158
-7.12469
-6.99219
-6.8541
-6.71043
-6.56124
-6.40654
-6.2464
-6.08085
-5.90997
-5.73382
-5.55251
-5.36615
-5.17485
-4.97873
-4.77792
-4.57256
-4.3628
-4.14879
-3.93068
-3.70867
-3.48293
-3.25366
-3.02105
-2.78531
-2.54665
-2.30526
-2.06136
-1.81515
-1.56683
-1.31662
-1.06478
-0.811508
-0.557025
-0.30155
-0.0453004
0.211508
0.468662
0.725952
0.983171
1.24012
1.49659
1.75241
2.00739
2.26135
2.51415
2.7658
3.01602
3.26432
3.51056
3.75472
3.99672
4.23644
4.47377
4.7086
4.94085
5.17043
5.3974
5.62148
5.84238
6.06011
6.27466
6.48596
6.69396
6.8986
7.09982
7.29755
7.49154
7.68162
7.86768
8.04953
8.22695
8.39934
8.56717
8.7259
8.89089
8.99463
-7.48174
-7.48739
-7.49835
-7.51159
-7.5243
-7.5361
-7.54766
-7.55947
-7.57145
-7.58324
-7.59448
-7.60494
-7.61444
-7.62286
-7.63012
-7.63618
-7.64099
-7.64451
-7.64671
-7.64757
-7.64709
-7.64529
-7.64219
-7.63786
-7.63232
-7.62564
-7.61784
-7.60896
-7.59907
-7.5883
-7.57681
-7.5648
-7.55252
-7.54031
-7.52865
-7.5181
-7.5093
-7.50291
-7.49952
-7.49964
-7.50359
-7.51153
-7.52346
-7.53931
-7.55891
-7.58209
-7.60867
-7.63846
-7.67125
-7.70682
-7.74492
-7.78533
-7.8278
-7.87207
-7.91783
-7.96482
-8.01277
-8.06145
-8.11054
-8.15975
-8.20875
-8.25726
-8.30496
-8.35157
-8.39679
-8.44031
-8.48182
-8.52103
-8.55763
-8.5913
-8.62169
-8.64857
-8.67184
-8.69147
-8.70733
-8.71915
-8.72692
-8.7309
-8.73115
-8.72757
-8.72003
-8.70843
-8.6926
-8.67231
-8.64735
-8.61743
-8.58298
-8.5445
-8.50167
-8.45411
-8.40164
-8.3442
-8.2818
-8.21441
-8.14195
-8.06431
-7.98137
-7.89302
-7.79923
-7.7
-7.59531
-7.48513
-7.36942
-7.24811
-7.12118
-6.98863
-6.85049
-6.70679
-6.55758
-6.40288
-6.24274
-6.0772
-5.90631
-5.73016
-5.54886
-5.36251
-5.17124
-4.97516
-4.77442
-4.56913
-4.35944
-4.1455
-3.92748
-3.70557
-3.47994
-3.25079
-3.01831
-2.78273
-2.54423
-2.30302
-2.0593
-1.81328
-1.56515
-1.31516
-1.06355
-0.810512
-0.556277
-0.30106
-0.0450782
0.211453
0.468322
0.725319
0.982238
1.23888
1.49504
1.75054
2.00519
2.25882
2.51129
2.76275
3.01289
3.26102
3.50701
3.75095
3.99275
4.23228
4.46945
4.70413
4.93624
5.16574
5.3928
5.61699
5.83781
6.05543
6.26988
6.48111
6.68905
6.89366
7.09489
7.29267
7.48666
7.67664
7.86257
8.04422
8.22138
8.3934
8.56075
8.71879
8.8831
8.98561
-7.43822
-7.44485
-7.45796
-7.47347
-7.48758
-7.50028
-7.51252
-7.52508
-7.53814
-7.55121
-7.5638
-7.57555
-7.58618
-7.59548
-7.60343
-7.61019
-7.61581
-7.62022
-7.62334
-7.62515
-7.62562
-7.62474
-7.62251
-7.61891
-7.61395
-7.60764
-7.60001
-7.5911
-7.58101
-7.56985
-7.55779
-7.54507
-7.53207
-7.51922
-7.50707
-7.4962
-7.48727
-7.48084
-7.47746
-7.47752
-7.48129
-7.48892
-7.50043
-7.51581
-7.53498
-7.55782
-7.58419
-7.61393
-7.64684
-7.68271
-7.72135
-7.76253
-7.80598
-7.85143
-7.89859
-7.94715
-7.99678
-8.04712
-8.09779
-8.14846
-8.19882
-8.24855
-8.29734
-8.34489
-8.39089
-8.43502
-8.47696
-8.51642
-8.55307
-8.58654
-8.61637
-8.64241
-8.66478
-8.68364
-8.69874
-8.70942
-8.7157
-8.71846
-8.71803
-8.71423
-8.70687
-8.69566
-8.68029
-8.66044
-8.63601
-8.60703
-8.57357
-8.5356
-8.49295
-8.44543
-8.39291
-8.33536
-8.27285
-8.20535
-8.13279
-8.05502
-7.97193
-7.88341
-7.78946
-7.69007
-7.58523
-7.47492
-7.35908
-7.23765
-7.11059
-6.97791
-6.83965
-6.69585
-6.54654
-6.39177
-6.23156
-6.06596
-5.89502
-5.71882
-5.53749
-5.35113
-5.15986
-4.9638
-4.76309
-4.55785
-4.34822
-4.13435
-3.91642
-3.6946
-3.46909
-3.24008
-3.00777
-2.77235
-2.53405
-2.29305
-2.04955
-1.80374
-1.55586
-1.30616
-1.05484
-0.802107
-0.548195
-0.293317
-0.0376911
0.218469
0.474952
0.731547
0.988047
1.24425
1.49996
1.75498
2.00913
2.26219
2.514
2.76442
3.01334
3.26062
3.50611
3.74963
3.99106
4.23025
4.46709
4.70147
4.93327
5.16249
5.38949
5.61371
5.83441
6.0519
6.26625
6.4774
6.68531
6.88989
7.09121
7.28917
7.48324
7.67315
7.85895
8.04044
8.21736
8.38904
8.55595
8.71334
8.87694
8.97886
-7.39195
-7.39995
-7.41583
-7.43381
-7.4486
-7.46148
-7.47475
-7.48884
-7.50325
-7.51747
-7.53115
-7.544
-7.55573
-7.56597
-7.57467
-7.58215
-7.58861
-7.59393
-7.59804
-7.60085
-7.60231
-7.60237
-7.60098
-7.59811
-7.59371
-7.58777
-7.58029
-7.5713
-7.56089
-7.54919
-7.53646
-7.52299
-7.50922
-7.49563
-7.48279
-7.47129
-7.46175
-7.45469
-7.4506
-7.44983
-7.45266
-7.45928
-7.46979
-7.48423
-7.5026
-7.52482
-7.55078
-7.58038
-7.61342
-7.64971
-7.68902
-7.73109
-7.77565
-7.82237
-7.8709
-7.92093
-7.97205
-8.02385
-8.07592
-8.12789
-8.17942
-8.23018
-8.27983
-8.32807
-8.37457
-8.41904
-8.4612
-8.50073
-8.53729
-8.57033
-8.59904
-8.62315
-8.64334
-8.66059
-8.67514
-8.6864
-8.69382
-8.6972
-8.69678
-8.6929
-8.68556
-8.67449
-8.6593
-8.63968
-8.61566
-8.58764
-8.55521
-8.5177
-8.47521
-8.42776