/*--------------------------------*- C++ -*----------------------------------*\
| =========                 |                                                 |
| \\      /  F ield         | OpenFOAM: The Open Source CFD Toolbox           |
|  \\    /   O peration     | Version:  v2012                                 |
|   \\  /    A nd           | Website:  www.openfoam.com                      |
|    \\/     M anipulation  |                                                 |
\*---------------------------------------------------------------------------*/
FoamFile
{
    version     2.0;
    format      ascii;
    class       surfaceScalarField;
    location    "1000";
    object      phi;
}
// * * * * * * * * * * * * * * * * * * * * * * * * * * * * * * * * * * * * * //

dimensions      [0 3 -1 0 0 0 0];
oriented        oriented;


internalField   nonuniform List<scalar> 
24170
(
3.00129e-06
1.32605e-07
2.85692e-06
1.44361e-07
2.72792e-06
1.28999e-07
2.61209e-06
1.15828e-07
2.50861e-06
1.0348e-07
2.4176e-06
9.101e-08
2.33856e-06
7.90459e-08
2.27037e-06
6.81858e-08
2.21149e-06
5.88741e-08
2.16034e-06
5.1152e-08
2.11585e-06
4.44872e-08
2.07728e-06
3.857e-08
2.04406e-06
3.32169e-08
2.0158e-06
2.82682e-08
1.99229e-06
2.35052e-08
1.97386e-06
1.84302e-08
1.96143e-06
1.24355e-08
2.64425e-10
1.96116e-06
3.51376e-06
7.52909e-08
3.54662e-06
1.11502e-07
3.56289e-06
1.12731e-07
3.56606e-06
1.1266e-07
3.55891e-06
1.10629e-07
3.54444e-06
1.05485e-07
3.52497e-06
9.85133e-08
3.5022e-06
9.09488e-08
3.47766e-06
8.34074e-08
3.45263e-06
7.61876e-08
3.42773e-06
6.93759e-08
3.4034e-06
6.29016e-08
3.37992e-06
5.66939e-08
3.35754e-06
5.06425e-08
3.33649e-06
4.45595e-08
3.31697e-06
3.79412e-08
3.29906e-06
3.03468e-08
1.97029e-08
3.27962e-06
3.83284e-06
5.46466e-08
3.85117e-06
9.31713e-08
3.86592e-06
9.79777e-08
3.87881e-06
9.97704e-08
3.8894e-06
1.00037e-07
3.8975e-06
9.73806e-08
3.90326e-06
9.27564e-08
3.90687e-06
8.73349e-08
3.90863e-06
8.16458e-08
3.90889e-06
7.59272e-08
3.90798e-06
7.02886e-08
3.90615e-06
6.47278e-08
3.90363e-06
5.92121e-08
3.90062e-06
5.36582e-08
3.89726e-06
4.79153e-08
3.89359e-06
4.16124e-08
3.88933e-06
3.46143e-08
2.61824e-08
3.88284e-06
4.2165e-06
4.27015e-08
4.22948e-06
8.01961e-08
4.23949e-06
8.79647e-08
4.24848e-06
9.07879e-08
4.25667e-06
9.18388e-08
4.26394e-06
9.01119e-08
4.2703e-06
8.63943e-08
4.27584e-06
8.17987e-08
4.28061e-06
7.68664e-08
4.28472e-06
7.18187e-08
4.28827e-06
6.67404e-08
4.29134e-06
6.16547e-08
4.29402e-06
5.65332e-08
4.29636e-06
5.13139e-08
4.29839e-06
4.58786e-08
4.29999e-06
4.00168e-08
4.3009e-06
3.37004e-08
2.68196e-08
4.30026e-06
4.6461e-06
3.39061e-08
4.65712e-06
6.91731e-08
4.66584e-06
7.9246e-08
4.67358e-06
8.30497e-08
4.68076e-06
8.46541e-08
4.6873e-06
8.35759e-08
4.69318e-06
8.05113e-08
4.6985e-06
7.64817e-08
4.70332e-06
7.20414e-08
4.70773e-06
6.74102e-08
4.71179e-06
6.26832e-08
4.71555e-06
5.7896e-08
4.71904e-06
5.30377e-08
4.72229e-06
4.8064e-08
4.72527e-06
4.29015e-08
4.72783e-06
3.74506e-08
4.72979e-06
3.17422e-08
2.59076e-08
4.73071e-06
5.1215e-06
2.69992e-08
5.13129e-06
5.93801e-08
5.13955e-06
7.09894e-08
5.14699e-06
7.56089e-08
5.15397e-06
7.76777e-08
5.16037e-06
7.71685e-08
5.16619e-06
7.46887e-08
5.17151e-06
7.11624e-08
5.1764e-06
6.71466e-08
5.18094e-06
6.28687e-08
5.18518e-06
5.84415e-08
5.18916e-06
5.39131e-08
5.1929e-06
4.92957e-08
5.1964e-06
4.45663e-08
5.1996e-06
3.96956e-08
5.2024e-06
3.4655e-08
5.20463e-06
2.95141e-08
2.44581e-08
5.20607e-06
5.64644e-06
2.15697e-08
5.65525e-06
5.05665e-08
5.66324e-06
6.29988e-08
5.67061e-06
6.82415e-08
5.67761e-06
7.06713e-08
5.68412e-06
7.06608e-08
5.69009e-06
6.87197e-08
5.69558e-06
6.56698e-08
5.70067e-06
6.20584e-08
5.70541e-06
5.81243e-08
5.70986e-06
5.39939e-08
5.71404e-06
4.97308e-08
5.71797e-06
4.53692e-08
5.72162e-06
4.0911e-08
5.72495e-06
3.63621e-08
5.72787e-06
3.17384e-08
5.73026e-06
2.71241e-08
2.2687e-08
5.73203e-06
4.40928e-06
1.84002e-08
4.41503e-06
4.48189e-08
4.42068e-06
5.73416e-08
4.42597e-06
6.29529e-08
4.43103e-06
6.56092e-08
4.4358e-06
6.58887e-08
4.44023e-06
6.42922e-08
4.44432e-06
6.15713e-08
4.44813e-06
5.82461e-08
4.4517e-06
5.45602e-08
4.45504e-06
5.06495e-08
4.45818e-06
4.659e-08
4.46112e-06
4.24292e-08
4.46384e-06
3.81862e-08
4.46632e-06
3.38857e-08
4.46849e-06
2.95639e-08
4.47031e-06
2.53058e-08
2.12565e-08
4.47174e-06
5.14275e-06
1.55069e-08
5.14846e-06
3.91089e-08
5.15438e-06
5.14222e-08
5.16006e-06
5.72668e-08
5.16558e-06
6.0088e-08
5.17084e-06
6.06311e-08
5.17576e-06
5.93738e-08
5.18034e-06
5.69885e-08
5.18462e-06
5.39641e-08
5.18863e-06
5.05486e-08
5.1924e-06
4.68839e-08
5.19593e-06
4.30588e-08
5.19922e-06
3.91324e-08
5.20227e-06
3.51408e-08
5.20503e-06
3.1123e-08
5.20746e-06
2.71288e-08
5.20953e-06
2.32366e-08
1.95703e-08
5.21122e-06
5.9984e-06
1.29001e-08
6.00398e-06
3.3528e-08
6.0101e-06
4.53043e-08
6.01614e-06
5.12188e-08
6.0221e-06
5.41241e-08
6.02785e-06
5.48836e-08
6.03327e-06
5.39479e-08
6.03836e-06
5.18974e-08
6.04314e-06
4.9185e-08
6.04763e-06
4.60608e-08
6.05184e-06
4.26708e-08
6.05579e-06
3.91134e-08
6.05946e-06
3.5458e-08
6.06284e-06
3.17556e-08
6.06591e-06
2.80542e-08
6.06863e-06
2.44101e-08
6.07097e-06
2.08929e-08
1.76007e-08
6.07294e-06
6.99659e-06
1.05768e-08
7.00194e-06
2.81719e-08
7.00819e-06
3.9057e-08
7.01456e-06
4.4851e-08
7.02093e-06
4.775e-08
7.02715e-06
4.86592e-08
7.03309e-06
4.80095e-08
7.0387e-06
4.62846e-08
7.04399e-06
4.38918e-08
7.04898e-06
4.10781e-08
7.05365e-06
3.79921e-08
7.05803e-06
3.47372e-08
7.06209e-06
3.1392e-08
7.06583e-06
2.80149e-08
7.06923e-06
2.46612e-08
7.07225e-06
2.13869e-08
7.07489e-06
1.82497e-08
1.53283e-08
7.07716e-06
8.16108e-06
8.51301e-09
8.16614e-06
2.31063e-08
8.17243e-06
3.27673e-08
8.17906e-06
3.82173e-08
8.18581e-06
4.10041e-08
8.19248e-06
4.19813e-08
8.19893e-06
4.15635e-08
8.20507e-06
4.01437e-08
8.21089e-06
3.80731e-08
8.21638e-06
3.55868e-08
8.22154e-06
3.28325e-08
8.22636e-06
2.99159e-08
8.23083e-06
2.69168e-08
8.23495e-06
2.3901e-08
8.23868e-06
2.09226e-08
8.24204e-06
1.8035e-08
8.245e-06
1.52846e-08
1.27323e-08
8.2476e-06
9.51957e-06
6.66903e-09
9.52432e-06
1.83588e-08
9.53056e-06
2.65234e-08
9.53739e-06
3.1384e-08
9.54446e-06
3.39304e-08
9.55156e-06
3.48828e-08
9.5585e-06
3.46256e-08
9.56517e-06
3.34755e-08
9.57152e-06
3.17208e-08
9.57753e-06
2.95733e-08
9.58319e-06
2.71751e-08
9.58848e-06
2.46269e-08
9.59339e-06
2.20092e-08
9.5979e-06
1.93844e-08
9.60202e-06
1.68063e-08
9.60573e-06
1.43205e-08
9.60905e-06
1.19645e-08
9.78479e-09
9.612e-06
1.11044e-05
5.00094e-09
1.11088e-05
1.39142e-08
1.1115e-05
2.03879e-08
1.11219e-05
2.44171e-08
1.11293e-05
2.6574e-08
1.11368e-05
2.73969e-08
1.11442e-05
2.72182e-08
1.11514e-05
2.62873e-08
1.11582e-05
2.48299e-08
1.11648e-05
2.30243e-08
1.1171e-05
2.09978e-08
1.11768e-05
1.88433e-08
1.11821e-05
1.6633e-08
1.11871e-05
1.44254e-08
1.11916e-05
1.22672e-08
1.11957e-05
1.01976e-08
1.11995e-05
8.24467e-09
6.44462e-09
1.12028e-05
1.29532e-05
3.46221e-09
1.29574e-05
9.71603e-09
1.29634e-05
1.43717e-08
1.29704e-05
1.73552e-08
1.29781e-05
1.89608e-08
1.29859e-05
1.95429e-08
1.29938e-05
1.93537e-08
1.30015e-05
1.85814e-08
1.30089e-05
1.7391e-08
1.3016e-05
1.592e-08
1.30227e-05
1.42728e-08
1.30291e-05
1.25271e-08
1.3035e-05
1.0744e-08
1.30404e-05
8.97218e-09
1.30454e-05
7.25021e-09
1.305e-05
5.60857e-09
1.30542e-05
4.06846e-09
2.65681e-09
1.3058e-05
1.51099e-05
2.00173e-09
1.5114e-05
5.6621e-09
1.51199e-05
8.40738e-09
1.51271e-05
1.01673e-08
1.5135e-05
1.10656e-08
1.51433e-05
1.12928e-08
1.51516e-05
1.10067e-08
1.51599e-05
1.03302e-08
1.51679e-05
9.37041e-09
1.51756e-05
8.2195e-09
1.51829e-05
6.95143e-09
1.51898e-05
5.62315e-09
1.51963e-05
4.27989e-09
1.52023e-05
2.95752e-09
1.52078e-05
1.68425e-09
1.5213e-05
4.81961e-10
1.52177e-05
-6.35212e-10
-1.6475e-09
1.5222e-05
1.76259e-05
5.53549e-10
1.763e-05
1.5815e-09
1.76361e-05
2.30859e-09
1.76435e-05
2.69276e-09
1.76519e-05
2.74621e-09
1.76606e-05
2.51805e-09
1.76696e-05
2.0612e-09
1.76785e-05
1.42939e-09
1.76872e-05
6.69329e-10
1.76956e-05
-1.73148e-10
1.77036e-05
-1.0623e-09
1.77112e-05
-1.96505e-09
1.77183e-05
-2.85739e-09
1.7725e-05
-3.71697e-09
1.77312e-05
-4.52877e-09
1.7737e-05
-5.27893e-09
1.77423e-05
-5.96101e-09
-6.56109e-09
1.77472e-05
1.78276e-05
-8.07336e-10
1.78314e-05
-2.2787e-09
1.78372e-05
-3.47399e-09
1.78443e-05
-4.41498e-09
1.78522e-05
-5.18352e-09
1.78606e-05
-5.86576e-09
1.78692e-05
-6.50265e-09
1.78777e-05
-7.11223e-09
1.78861e-05
-7.69687e-09
1.78942e-05
-8.26269e-09
1.79019e-05
-8.80354e-09
1.79093e-05
-9.31736e-09
1.79162e-05
-9.79395e-09
1.79227e-05
-1.02304e-08
1.79288e-05
-1.06182e-08
1.79345e-05
-1.09558e-08
1.79398e-05
-1.12386e-08
-1.14612e-08
1.79447e-05
1.58826e-05
-2.0704e-09
1.58861e-05
-5.83091e-09
1.58914e-05
-8.7302e-09
1.58978e-05
-1.07898e-08
1.59048e-05
-1.22256e-08
1.59122e-05
-1.3262e-08
1.59197e-05
-1.40286e-08
1.59272e-05
-1.45918e-08
1.59345e-05
-1.50097e-08
1.59416e-05
-1.53217e-08
1.59483e-05
-1.55588e-08
1.59548e-05
-1.57326e-08
1.59608e-05
-1.58555e-08
1.59665e-05
-1.59299e-08
1.59719e-05
-1.59624e-08
1.59769e-05
-1.59515e-08
1.59815e-05
-1.59022e-08
-1.58075e-08
1.59859e-05
1.41499e-05
-3.35454e-09
1.41535e-05
-9.38439e-09
1.41586e-05
-1.38454e-08
1.41646e-05
-1.68216e-08
1.41712e-05
-1.87562e-08
1.41779e-05
-2.00385e-08
1.41848e-05
-2.08592e-08
1.41915e-05
-2.13327e-08
1.41981e-05
-2.15596e-08
1.42044e-05
-2.16223e-08
1.42104e-05
-2.15694e-08
1.42161e-05
-2.14334e-08
1.42215e-05
-2.12349e-08
1.42265e-05
-2.09903e-08
1.42313e-05
-2.07087e-08
1.42357e-05
-2.03972e-08
1.42399e-05
-2.00593e-08
-1.96941e-08
1.42437e-05
1.26064e-05
-4.76338e-09
1.26102e-05
-1.31803e-08
1.26155e-05
-1.90679e-08
1.26214e-05
-2.27284e-08
1.26276e-05
-2.49867e-08
1.26339e-05
-2.64021e-08
1.26403e-05
-2.71945e-08
1.26465e-05
-2.75189e-08
1.26524e-05
-2.75272e-08
1.26581e-05
-2.73301e-08
1.26636e-05
-2.69932e-08
1.26687e-05
-2.65609e-08
1.26735e-05
-2.60636e-08
1.2678e-05
-2.55266e-08
1.26823e-05
-2.49626e-08
1.26863e-05
-2.43832e-08
1.269e-05
-2.37917e-08
-2.31893e-08
1.26935e-05
1.12314e-05
-6.41158e-09
1.12357e-05
-1.74416e-08
1.12412e-05
-2.45564e-08
1.12471e-05
-2.86133e-08
1.12531e-05
-3.10267e-08
1.12592e-05
-3.2468e-08
1.12651e-05
-3.31475e-08
1.12709e-05
-3.32636e-08
1.12764e-05
-3.30221e-08
1.12816e-05
-3.25561e-08
1.12865e-05
-3.19378e-08
1.12912e-05
-3.1218e-08
1.12956e-05
-3.04388e-08
1.12997e-05
-2.96279e-08
1.13035e-05
-2.88071e-08
1.13071e-05
-2.79841e-08
1.13105e-05
-2.71686e-08
-2.63556e-08
1.13137e-05
1.00067e-05
-8.4547e-09
1.00116e-05
-2.23757e-08
1.00174e-05
-3.03928e-08
1.00233e-05
-3.45187e-08
1.00292e-05
-3.6935e-08
1.00351e-05
-3.82997e-08
1.00407e-05
-3.87781e-08
1.00461e-05
-3.86381e-08
1.00512e-05
-3.81307e-08
1.0056e-05
-3.73907e-08
1.00606e-05
-3.64927e-08
1.00648e-05
-3.54939e-08
1.00688e-05
-3.44439e-08
1.00726e-05
-3.33772e-08
1.00761e-05
-3.23158e-08
1.00794e-05
-3.12728e-08
1.00825e-05
-3.02525e-08
-2.92541e-08
1.00854e-05
8.91576e-06
-1.11177e-08
8.92157e-06
-2.81781e-08
8.92775e-06
-3.65801e-08
8.93368e-06
-4.04423e-08
8.9395e-06
-4.27536e-08
8.94514e-06
-4.3945e-08
8.95051e-06
-4.41529e-08
8.9556e-06
-4.3725e-08
8.96041e-06
-4.2941e-08
8.96495e-06
-4.19286e-08
8.96921e-06
-4.07533e-08
8.97319e-06
-3.94816e-08
8.97692e-06
-3.81671e-08
8.98039e-06
-3.68529e-08
8.98364e-06
-3.55634e-08
8.98668e-06
-3.43131e-08
8.98953e-06
-3.31069e-08
-3.19385e-08
8.99221e-06
7.94428e-06
-1.47307e-08
7.95111e-06
-3.50087e-08
7.95762e-06
-4.30895e-08
7.9636e-06
-4.64202e-08
7.9694e-06
-4.85519e-08
7.97495e-06
-4.95008e-08
7.98019e-06
-4.93872e-08
7.98512e-06
-4.86555e-08
7.98977e-06
-4.75885e-08
7.99413e-06
-4.62922e-08
7.99821e-06
-4.48317e-08
8.002e-06
-4.32777e-08
8.00553e-06
-4.16949e-08
8.00881e-06
-4.01297e-08
8.01186e-06
-3.86131e-08
8.0147e-06
-3.71603e-08
8.01737e-06
-3.57758e-08
-3.4441e-08
8.01987e-06
7.07932e-06
-1.9718e-08
7.08741e-06
-4.31029e-08
7.09436e-06
-5.00332e-08
7.10059e-06
-5.26534e-08
7.10659e-06
-5.45499e-08
7.11228e-06
-5.5195e-08
7.11761e-06
-5.47136e-08
7.1226e-06
-5.3639e-08
7.12726e-06
-5.22554e-08
7.13161e-06
-5.06434e-08
7.13565e-06
-4.88662e-08
7.13937e-06
-4.70028e-08
7.1428e-06
-4.51241e-08
7.14596e-06
-4.32858e-08
7.14887e-06
-4.1523e-08
7.15157e-06
-3.98567e-08
7.15408e-06
-3.8293e-08
-3.68062e-08
7.15645e-06
6.30983e-06
-2.70358e-08
6.31977e-06
-5.30464e-08
6.3278e-06
-5.80624e-08
6.33506e-06
-5.99126e-08
6.34194e-06
-6.14241e-08
6.34832e-06
-6.15762e-08
6.35418e-06
-6.05758e-08
6.35959e-06
-5.9046e-08
6.36458e-06
-5.72408e-08
6.36915e-06
-5.52153e-08
6.37332e-06
-5.30324e-08
6.37709e-06
-5.0774e-08
6.38049e-06
-4.85225e-08
6.38354e-06
-4.63353e-08
6.38627e-06
-4.42597e-08
6.38874e-06
-4.23271e-08
6.39099e-06
-4.05397e-08
-3.88404e-08
6.39302e-06
5.62877e-06
-4.09072e-08
5.6431e-06
-6.73718e-08
5.65475e-06
-6.97178e-08
5.66536e-06
-7.05178e-08
5.67498e-06
-7.10404e-08
5.6834e-06
-6.99952e-08
5.69072e-06
-6.78955e-08
5.69708e-06
-6.54093e-08
5.70258e-06
-6.27312e-08
5.70724e-06
-5.98779e-08
5.71112e-06
-5.69105e-08
5.71426e-06
-5.39138e-08
5.71671e-06
-5.09704e-08
5.71853e-06
-4.81568e-08
5.7198e-06
-4.5528e-08
5.72062e-06
-4.31463e-08
5.7211e-06
-4.10191e-08
-3.92713e-08
5.72153e-06
5.04611e-06
-8.47079e-08
5.07581e-06
-9.70726e-08
5.09662e-06
-9.05236e-08
5.11139e-06
-8.52924e-08
5.12059e-06
-8.02364e-08
5.12521e-06
-7.4614e-08
5.12623e-06
-6.89108e-08
5.12437e-06
-6.35503e-08
5.12016e-06
-5.85221e-08
5.11403e-06
-5.37375e-08
5.10632e-06
-4.92008e-08
5.09735e-06
-4.49496e-08
5.0874e-06
-4.10217e-08
5.07671e-06
-3.7462e-08
5.06556e-06
-3.43765e-08
5.05427e-06
-3.18536e-08
5.04308e-06
-2.98322e-08
-2.86422e-08
5.03245e-06
4.37184e-06
4.27477e-06
4.18425e-06
4.09895e-06
4.01872e-06
3.9441e-06
3.87519e-06
3.81164e-06
3.75312e-06
3.69938e-06
3.65018e-06
3.60523e-06
3.56421e-06
3.52675e-06
3.49237e-06
3.46052e-06
3.43069e-06
3.40205e-06
-1.0455e-08
1.04852e-08
-2.80134e-08
1.7604e-08
-4.77667e-08
1.98015e-08
-6.63827e-08
1.86462e-08
-7.8716e-08
1.23813e-08
-7.68707e-08
-1.82758e-09
-5.58848e-08
-2.09384e-08
-1.72547e-08
-3.86171e-08
3.43657e-08
-5.15753e-08
9.37344e-08
-5.93615e-08
1.55385e-07
-6.16187e-08
2.15026e-07
-5.96365e-08
2.69911e-07
-5.48626e-08
3.18248e-07
-4.83312e-08
3.59058e-07
-4.0793e-08
3.918e-07
-3.27359e-08
4.16224e-07
-2.44097e-08
4.32127e-07
-1.58941e-08
4.39245e-07
-7.10611e-09
4.37134e-07
2.12235e-09
4.25471e-07
1.16737e-08
4.04352e-07
2.11333e-08
3.74247e-07
3.01173e-08
3.35984e-07
3.82793e-08
2.90802e-07
4.51943e-08
2.40492e-07
5.03303e-08
1.87415e-07
5.30926e-08
1.34532e-07
5.29049e-08
8.52067e-08
4.93477e-08
4.28517e-08
4.23825e-08
1.01271e-08
3.27554e-08
-1.22035e-08
2.23637e-08
-2.60285e-08
1.38583e-08
-3.42303e-08
8.23496e-09
-3.95529e-08
5.35705e-09
-4.39592e-08
4.44158e-09
-4.73322e-08
3.41078e-09
-4.61356e-08
-1.15766e-09
-3.60449e-08
-1.00541e-08
-1.45561e-08
-2.14481e-08
1.79302e-08
-3.24457e-08
5.73778e-08
-3.94089e-08
9.6921e-08
-3.95074e-08
1.3044e-07
-3.34809e-08
1.54264e-07
-2.3786e-08
1.67256e-07
-1.29469e-08
1.70017e-07
-2.71923e-09
1.65613e-07
4.46172e-09
1.59056e-07
6.6089e-09
1.53904e-07
5.22124e-09
1.54561e-07
-5.95772e-10
1.66534e-07
-1.18948e-08
1.77956e-07
-1.13784e-08
1.69996e-07
8.03091e-09
1.31347e-07
3.86785e-08
5.32873e-08
7.81237e-08
-6.67281e-08
1.20037e-07
-2.20166e-07
1.53464e-07
-3.95365e-07
1.75215e-07
-5.82734e-07
1.87367e-07
-7.73837e-07
1.91117e-07
-9.61669e-07
1.87821e-07
-1.14073e-06
1.79079e-07
-1.30751e-06
1.66765e-07
-1.46009e-06
1.52593e-07
-1.59794e-06
1.37837e-07
-1.72142e-06
1.23492e-07
-1.83158e-06
1.1014e-07
-1.92965e-06
9.80895e-08
-2.01712e-06
8.7452e-08
-2.09532e-06
7.8213e-08
-2.16559e-06
7.02625e-08
-2.22905e-06
6.34622e-08
-2.2867e-06
5.76433e-08
-2.33934e-06
5.26546e-08
-2.38769e-06
4.83456e-08
-2.43228e-06
4.45982e-08
-2.47359e-06
4.13032e-08
-2.51196e-06
3.83772e-08
-2.5477e-06
3.57443e-08
-2.58105e-06
3.33496e-08
-2.61219e-06
3.1145e-08
-2.64128e-06
2.90948e-08
-2.66844e-06
2.71687e-08
-2.69378e-06
2.53428e-08
-2.71737e-06
2.35984e-08
-2.73928e-06
2.19178e-08
-2.75957e-06
2.0289e-08
-2.77826e-06
1.86993e-08
-2.7954e-06
1.71368e-08
-2.81099e-06
1.55933e-08
-2.82505e-06
1.40576e-08
-2.83756e-06
1.25188e-08
-2.84852e-06
1.09664e-08
-2.85791e-06
9.38776e-09
-2.86567e-06
7.77326e-09
-2.87177e-06
6.10882e-09
-2.87615e-06
4.38266e-09
-2.87873e-06
2.588e-09
-2.87951e-06
7.78819e-10
-2.87862e-06
-8.89133e-10
-2.87628e-06
-2.33455e-09
-2.87262e-06
-3.66528e-09
-2.86765e-06
-4.96852e-09
-2.86139e-06
-6.264e-09
-2.85383e-06
-7.55904e-09
-2.84498e-06
-8.855e-09
-2.83483e-06
-1.01517e-08
-2.82338e-06
-1.1448e-08
-2.81064e-06
-1.27433e-08
-2.79661e-06
-1.40358e-08
-2.78129e-06
-1.53249e-08
-2.76468e-06
-1.66084e-08
-2.7468e-06
-1.78862e-08
-2.72765e-06
-1.91554e-08
-2.70723e-06
-2.04162e-08
-2.68557e-06
-2.16656e-08
-2.66267e-06
-2.29039e-08
-2.63854e-06
-2.41281e-08
-2.6132e-06
-2.53383e-08
-2.58667e-06
-2.65317e-08
-2.55896e-06
-2.77083e-08
-2.5301e-06
-2.88648e-08
-2.5001e-06
-3.00007e-08
-2.46898e-06
-3.11116e-08
-2.43679e-06
-3.21942e-08
-2.40355e-06
-3.32387e-08
-2.3693e-06
-3.42439e-08
-2.33409e-06
-3.5204e-08
-2.29799e-06
-3.61044e-08
-2.26093e-06
-3.70492e-08
-2.22289e-06
-3.80386e-08
-2.18392e-06
-3.89625e-08
-2.14409e-06
-3.98369e-08
-2.10341e-06
-4.06766e-08
-2.06192e-06
-4.14848e-08
-2.01966e-06
-4.22596e-08
-1.97665e-06
-4.30003e-08
-1.93294e-06
-4.37071e-08
-1.88856e-06
-4.43809e-08
-1.84353e-06
-4.50213e-08
-1.7979e-06
-4.56283e-08
-1.75169e-06
-4.62024e-08
-1.70495e-06
-4.67442e-08
-1.65769e-06
-4.72549e-08
-1.60995e-06
-4.77353e-08
-1.56176e-06
-4.8187e-08
-1.51315e-06
-4.86056e-08
-1.46415e-06
-4.90013e-08
-1.41479e-06
-4.93601e-08
-1.36509e-06
-4.96926e-08
-1.31511e-06
-4.99871e-08
-1.26485e-06
-5.02546e-08
-1.21437e-06
-5.04854e-08
-1.16367e-06
-5.06955e-08
-1.11279e-06
-5.08766e-08
-1.06175e-06
-5.1047e-08
-1.01055e-06
-5.11976e-08
-9.59203e-07
-5.13468e-08
-9.07715e-07
-5.14879e-08
-8.56091e-07
-5.16247e-08
-8.04329e-07
-5.17627e-08
-7.52437e-07
-5.18924e-08
-7.0042e-07
-5.20174e-08
-6.48282e-07
-5.21386e-08
-5.96023e-07
-5.22593e-08
-5.4364e-07
-5.23844e-08
-4.91122e-07
-5.25178e-08
-4.38461e-07
-5.26612e-08
-3.85651e-07
-5.28103e-08
-3.32697e-07
-5.29545e-08
-2.79627e-07
-5.30704e-08
-2.26504e-07
-5.31234e-08
-1.73446e-07
-5.30578e-08
-1.20666e-07
-5.27802e-08
-6.86015e-08
-5.20638e-08
-1.78819e-08
-5.07196e-08
2.98153e-08
-4.76963e-08
7.43152e-08
-4.44993e-08
-2.07416e-08
9.50585e-08
-3.96753e-09
1.4508e-08
-1.1789e-08
2.55027e-08
-1.74276e-08
2.55403e-08
-1.38211e-08
1.51085e-08
6.84866e-09
-8.1895e-09
4.47015e-08
-3.9643e-08
9.62639e-08
-7.24578e-08
1.5606e-07
-9.83991e-08
2.1826e-07
-1.13752e-07
2.77944e-07
-1.19038e-07
3.32657e-07
-1.16315e-07
3.81131e-07
-1.08104e-07
4.22955e-07
-9.66729e-08
4.5821e-07
-8.35803e-08
4.87215e-07
-6.97864e-08
5.1033e-07
-5.5844e-08
5.27956e-07
-4.20251e-08
5.40507e-07
-2.84355e-08
5.48495e-07
-1.50832e-08
5.52534e-07
-1.90656e-09
5.52915e-07
1.13039e-08
5.49298e-07
2.47633e-08
5.40953e-07
3.84735e-08
5.26979e-07
5.22667e-08
5.06438e-07
6.57468e-08
4.78524e-07
7.82573e-08
4.42755e-07
8.88746e-08
3.99197e-07
9.64776e-08
3.4861e-07
9.9949e-08
2.92545e-07
9.84635e-08
2.3347e-07
9.18505e-08
1.74998e-07
8.08588e-08
1.22071e-07
6.68158e-08
7.9267e-08
5.10783e-08
4.96251e-08
3.50492e-08
3.44481e-08
1.9684e-08
3.37225e-08
4.20279e-09
4.53843e-08
-1.27584e-08
6.74466e-08
-3.20703e-08
9.85233e-08
-5.2487e-08
1.34009e-07
-6.79017e-08
1.66646e-07
-7.20175e-08
1.91609e-07
-6.44426e-08
2.06738e-07
-4.85803e-08
2.11961e-07
-2.89777e-08
2.08907e-07
-9.85031e-09
1.98986e-07
7.24531e-09
1.85123e-07
1.83867e-08
1.71735e-07
2.00531e-08
1.48707e-07
2.83365e-08
9.72686e-08
5.09108e-08
-3.30873e-09
8.87748e-08
-1.57625e-07
1.42987e-07
-3.48646e-07
1.99086e-07
-5.57805e-07
2.47855e-07
-7.7026e-07
2.90592e-07
-9.76029e-07
3.25815e-07
-1.17114e-06
3.48585e-07
-1.35245e-06
3.56524e-07
-1.51641e-06
3.51336e-07
-1.66111e-06
3.3582e-07
-1.78637e-06
3.13076e-07
-1.89346e-06
2.86169e-07
-1.98448e-06
2.57779e-07
-2.06186e-06
2.29982e-07
-2.12814e-06
2.0411e-07
-2.18552e-06
1.80878e-07
-2.2359e-06
1.60516e-07
-2.28077e-06
1.42959e-07
-2.32129e-06
1.27969e-07
-2.35831e-06
1.1523e-07
-2.39245e-06
1.04404e-07
-2.42416e-06
9.51708e-08
-2.45376e-06
8.72404e-08
-2.48147e-06
8.03698e-08
-2.50748e-06
7.43528e-08
-2.5319e-06
6.90232e-08
-2.55483e-06
6.42408e-08
-2.57635e-06
5.98972e-08
-2.59651e-06
5.59043e-08
-2.61535e-06
5.2194e-08
-2.63291e-06
4.87107e-08
-2.64922e-06
4.54109e-08
-2.66431e-06
4.22593e-08
-2.67819e-06
3.92274e-08
-2.69088e-06
3.6292e-08
-2.70239e-06
3.34333e-08
-2.71273e-06
3.06355e-08
-2.72192e-06
2.78836e-08
-2.72994e-06
2.51665e-08
-2.73682e-06
2.24722e-08
-2.74256e-06
1.9792e-08
-2.74715e-06
1.71174e-08
-2.75062e-06
1.44416e-08
-2.75299e-06
1.17603e-08
-2.75428e-06
9.07238e-09
-2.75455e-06
6.3802e-09
-2.75385e-06
3.69411e-09
-2.7523e-06
1.03857e-09
-2.74997e-06
-1.55314e-09
-2.74676e-06
-4.09323e-09
-2.74246e-06
-6.63072e-09
-2.73695e-06
-9.18109e-09
-2.73018e-06
-1.17351e-08
-2.72215e-06
-1.4293e-08
-2.71286e-06
-1.68555e-08
-2.7023e-06
-1.94218e-08
-2.69046e-06
-2.19903e-08
-2.67735e-06
-2.45591e-08
-2.66297e-06
-2.71256e-08
-2.64732e-06
-2.96876e-08
-2.63041e-06
-3.22424e-08
-2.61223e-06
-3.47872e-08
-2.5928e-06
-3.73196e-08
-2.57212e-06
-3.98364e-08
-2.5502e-06
-4.23351e-08
-2.52705e-06
-4.48126e-08
-2.50269e-06
-4.72665e-08
-2.47713e-06
-4.96934e-08
-2.45038e-06
-5.20911e-08
-2.42245e-06
-5.44561e-08
-2.39337e-06
-5.67859e-08
-2.36316e-06
-5.90768e-08
-2.33184e-06
-6.13259e-08
-2.29942e-06
-6.35289e-08
-2.26593e-06
-6.56822e-08
-2.23138e-06
-6.77809e-08
-2.1958e-06
-6.98246e-08
-2.1592e-06
-7.18092e-08
-2.12156e-06
-7.37357e-08
-2.08297e-06
-7.56437e-08
-2.04348e-06
-7.75261e-08
-2.0031e-06
-7.93357e-08
-1.96186e-06
-8.10714e-08
-1.9198e-06
-8.27421e-08
-1.87693e-06
-8.43504e-08
-1.8333e-06
-8.58925e-08
-1.78893e-06
-8.73669e-08
-1.74386e-06
-8.87741e-08
-1.69812e-06
-9.01151e-08
-1.65175e-06
-9.13895e-08
-1.60478e-06
-9.25974e-08
-1.55724e-06
-9.37394e-08
-1.50916e-06
-9.48168e-08
-1.46059e-06
-9.58313e-08
-1.41153e-06
-9.67848e-08
-1.36204e-06
-9.76797e-08
-1.31213e-06
-9.85131e-08
-1.26184e-06
-9.92936e-08
-1.21119e-06
-1.00012e-07
-1.16021e-06
-1.0067e-07
-1.10893e-06
-1.01262e-07
-1.0574e-06
-1.01792e-07
-1.00562e-06
-1.02258e-07
-9.53646e-07
-1.02673e-07
-9.01483e-07
-1.0304e-07
-8.49157e-07
-1.03373e-07
-7.96678e-07
-1.03677e-07
-7.44058e-07
-1.03967e-07
-6.91298e-07
-1.04248e-07
-6.38405e-07
-1.04519e-07
-5.85379e-07
-1.04789e-07
-5.32225e-07
-1.05047e-07
-4.78948e-07
-1.05295e-07
-4.2555e-07
-1.05537e-07
-3.72031e-07
-1.05779e-07
-3.18387e-07
-1.06029e-07
-2.64611e-07
-1.06295e-07
-2.10692e-07
-1.06581e-07
-1.56624e-07
-1.06879e-07
-1.02409e-07
-1.0717e-07
-4.80662e-08
-1.07414e-07
6.352e-09
-1.07542e-07
6.07579e-08
-1.07464e-07
1.14985e-07
-1.07008e-07
1.68761e-07
-1.05839e-07
2.21546e-07
-1.03504e-07
2.72924e-07
-9.90748e-08
3.19388e-07
-9.09629e-08
-6.55063e-08
3.64154e-07
1.58747e-09
1.29719e-08
5.04813e-09
2.21229e-08
1.70737e-08
1.36058e-08
4.80655e-08
-1.5835e-08
1.00298e-07
-6.038e-08
1.66577e-07
-1.05906e-07
2.34619e-07
-1.40479e-07
2.96005e-07
-1.59778e-07
3.47437e-07
-1.65169e-07
3.88778e-07
-1.60374e-07
4.21593e-07
-1.49118e-07
4.47721e-07
-1.34228e-07
4.68655e-07
-1.17596e-07
4.85429e-07
-1.00349e-07
4.98741e-07
-8.30887e-08
5.09018e-07
-6.61143e-08
5.16554e-07
-4.95511e-08
5.21559e-07
-3.3431e-08
5.2423e-07
-1.77438e-08
5.2479e-07
-2.45617e-09
5.23595e-07
1.25096e-08
5.21068e-07
2.73022e-08
5.17492e-07
4.206e-08
5.12906e-07
5.68651e-08
5.06984e-07
7.16795e-08
4.98977e-07
8.62775e-08
4.8768e-07
1.00183e-07
4.71566e-07
1.12604e-07
4.49092e-07
1.22436e-07
4.19194e-07
1.28375e-07
3.81896e-07
1.29162e-07
3.3887e-07
1.239e-07
2.93436e-07
1.12266e-07
2.49895e-07
9.46363e-08
2.12865e-07
7.21005e-08
1.86525e-07
4.60477e-08
1.73216e-07
1.75389e-08
1.72812e-07
-1.23269e-08
1.83443e-07
-4.26795e-08
1.98709e-07
-6.77341e-08
2.09687e-07
-7.88607e-08
2.10714e-07
-7.30285e-08
2.01237e-07
-5.49482e-08
1.82416e-07
-2.97369e-08
1.55764e-07
-2.30177e-09
1.23191e-07
2.27574e-08
8.04018e-08
5.00738e-08
1.49263e-08
8.39152e-08
-8.90637e-08
1.24092e-07
-2.37326e-07
1.76634e-07
-4.22783e-07
2.36394e-07
-6.30243e-07
2.96253e-07
-8.3929e-07
3.52047e-07
-1.03874e-06
3.9855e-07
-1.22304e-06
4.32157e-07
-1.38555e-06
4.53116e-07
-1.52126e-06
4.61527e-07
-1.6304e-06
4.57722e-07
-1.71684e-06
4.42972e-07
-1.78514e-06
4.19638e-07
-1.83989e-06
3.90573e-07
-1.88532e-06
3.58501e-07
-1.92486e-06
3.25711e-07
-1.96101e-06
2.93927e-07
-1.99531e-06
2.6429e-07
-2.02863e-06
2.37422e-07
-2.0613e-06
2.13547e-07
-2.0934e-06
1.92617e-07
-2.12486e-06
1.74417e-07
-2.15555e-06
1.58656e-07
-2.18533e-06
1.45012e-07
-2.21409e-06
1.33168e-07
-2.24175e-06
1.22829e-07
-2.26825e-06
1.13737e-07
-2.29355e-06
1.0567e-07
-2.31763e-06
9.84411e-08
-2.3405e-06
9.18942e-08
-2.36216e-06
8.59e-08
-2.38262e-06
8.03543e-08
-2.40188e-06
7.51725e-08
-2.41997e-06
7.02872e-08
-2.4369e-06
6.56431e-08
-2.45269e-06
6.11962e-08
-2.46733e-06
5.69102e-08
-2.48086e-06
5.27555e-08
-2.49327e-06
4.87075e-08
-2.50458e-06
4.47453e-08
-2.51479e-06
4.08514e-08
-2.52392e-06
3.70107e-08
-2.53196e-06
3.32089e-08
-2.53892e-06
2.94363e-08
-2.54481e-06
2.56823e-08
-2.54963e-06
2.19398e-08
-2.55339e-06
1.82027e-08
-2.55609e-06
1.44686e-08
-2.55775e-06
1.07366e-08
-2.55838e-06
7.01003e-09
-2.55797e-06
3.29372e-09
-2.55653e-06
-4.03638e-10
-2.554e-06
-4.08348e-09
-2.55032e-06
-7.76777e-09
-2.54547e-06
-1.14817e-08
-2.53943e-06
-1.52249e-08
-2.53217e-06
-1.89877e-08
-2.5237e-06
-2.2765e-08
-2.51401e-06
-2.65538e-08
-2.50308e-06
-3.03507e-08
-2.49092e-06
-3.41524e-08
-2.47752e-06
-3.79556e-08
-2.4629e-06
-4.17564e-08
-2.44703e-06
-4.55512e-08
-2.42994e-06
-4.9336e-08
-2.41162e-06
-5.31069e-08
-2.39209e-06
-5.68596e-08
-2.37133e-06
-6.05902e-08
-2.34938e-06
-6.42939e-08
-2.32622e-06
-6.79671e-08
-2.30188e-06
-7.1605e-08
-2.27637e-06
-7.52039e-08
-2.24971e-06
-7.87593e-08
-2.2219e-06
-8.22669e-08
-2.19296e-06
-8.57223e-08
-2.16291e-06
-8.91212e-08
-2.13178e-06
-9.24587e-08
-2.09958e-06
-9.57302e-08
-2.06633e-06
-9.89313e-08
-2.03205e-06
-1.02058e-07
-1.99676e-06
-1.0511e-07
-1.96049e-06
-1.08083e-07
-1.92324e-06
-1.10979e-07
-1.88507e-06
-1.13813e-07
-1.84602e-06
-1.16577e-07
-1.80611e-06
-1.19249e-07
-1.76535e-06
-1.21823e-07
-1.72379e-06
-1.24304e-07
-1.68145e-06
-1.26692e-07
-1.63835e-06
-1.28984e-07
-1.59454e-06
-1.31177e-07
-1.55004e-06
-1.3327e-07
-1.50489e-06
-1.35264e-07
-1.45912e-06
-1.37159e-07
-1.41276e-06
-1.38955e-07
-1.36584e-06
-1.40653e-07
-1.3184e-06
-1.42255e-07
-1.27047e-06
-1.43762e-07
-1.22208e-06
-1.45178e-07
-1.17325e-06
-1.46505e-07
-1.12402e-06
-1.47743e-07
-1.07442e-06
-1.48899e-07
-1.02446e-06
-1.49968e-07
-9.74181e-07
-1.50947e-07
-9.23609e-07
-1.51833e-07
-8.72778e-07
-1.52623e-07
-8.21713e-07
-1.53323e-07
-7.70444e-07
-1.53942e-07
-7.18991e-07
-1.54493e-07
-6.67375e-07
-1.54988e-07
-6.15607e-07
-1.55445e-07
-5.637e-07
-1.55873e-07
-5.11657e-07
-1.56292e-07
-4.59481e-07
-1.56695e-07
-4.07175e-07
-1.57094e-07
-3.54743e-07
-1.57479e-07
-3.02188e-07
-1.5785e-07
-2.49512e-07
-1.58213e-07
-1.96715e-07
-1.58576e-07
-1.43792e-07
-1.58952e-07
-9.07341e-08
-1.59352e-07
-3.75322e-08
-1.59782e-07
1.58226e-08
-1.60233e-07
6.933e-08
-1.60677e-07
1.22977e-07
-1.6106e-07
1.76731e-07
-1.61296e-07
2.30519e-07
-1.61251e-07
2.84215e-07
-1.60704e-07
3.37641e-07
-1.59265e-07
3.90493e-07
-1.56355e-07
4.42401e-07
-1.50983e-07
4.92393e-07
-1.40954e-07
-1.16974e-07
5.4386e-07
-7.60969e-10
1.37866e-08
9.21516e-09
1.22232e-08
4.6231e-08
-2.33462e-08
1.1264e-07
-8.222e-08
1.91714e-07
-1.3943e-07
2.64843e-07
-1.79027e-07
3.22299e-07
-1.9792e-07
3.62917e-07
-2.00392e-07
3.90091e-07
-1.92332e-07
4.08156e-07
-1.78435e-07
4.20685e-07
-1.61637e-07
4.29997e-07
-1.43537e-07
4.37368e-07
-1.24957e-07
4.43352e-07
-1.06327e-07
4.48148e-07
-8.78746e-08
4.51766e-07
-6.97247e-08
4.54177e-07
-5.19516e-08
4.55351e-07
-3.45957e-08
4.55297e-07
-1.76782e-08
4.5406e-07
-1.20772e-09
4.51753e-07
1.48283e-08
4.48597e-07
3.04713e-08
4.44901e-07
4.57677e-08
4.41009e-07
6.07697e-08
4.37204e-07
7.54966e-08
4.33603e-07
8.98911e-08
4.30017e-07
1.03781e-07
4.25826e-07
1.16808e-07
4.19933e-07
1.28341e-07
4.10928e-07
1.37393e-07
3.97478e-07
1.42625e-07
3.7888e-07
1.42512e-07
3.55495e-07
1.35665e-07
3.28992e-07
1.21155e-07
3.02161e-07
9.89477e-08
2.78316e-07
6.99111e-08
2.60094e-07
3.57794e-08
2.48337e-07
-5.50723e-10
2.38836e-07
-3.31622e-08
2.23481e-07
-5.23647e-08
1.96902e-07
-5.2269e-08
1.58826e-07
-3.49387e-08
1.10607e-07
-6.71266e-09
5.1591e-08
2.92973e-08
-2.3789e-08
7.31019e-08
-1.24204e-07
1.23194e-07
-2.53632e-07
1.79524e-07
-4.11223e-07
2.41523e-07
-5.93059e-07
3.05943e-07
-7.85335e-07
3.68923e-07
-9.7436e-07
4.2543e-07
-1.14952e-06
4.71423e-07
-1.30201e-06
5.04541e-07
-1.42778e-06
5.24328e-07
-1.52743e-06
5.3181e-07
-1.60268e-06
5.28374e-07
-1.65681e-06
5.15662e-07
-1.69456e-06
4.9548e-07
-1.72127e-06
4.69683e-07
-1.7418e-06
4.40163e-07
-1.7599e-06
4.08677e-07
-1.77813e-06
3.76729e-07
-1.79792e-06
3.45501e-07
-1.81985e-06
3.15851e-07
-1.84388e-06
2.88325e-07
-1.86967e-06
2.63212e-07
-1.89672e-06
2.40592e-07
-1.9245e-06
2.20401e-07
-1.95256e-06
2.02474e-07
-1.9805e-06
1.86596e-07
-2.00802e-06
1.72527e-07
-2.03487e-06
1.60024e-07
-2.0609e-06
1.4886e-07
-2.08599e-06
1.38827e-07
-2.11006e-06
1.2974e-07
-2.13306e-06
1.21441e-07
-2.15496e-06
1.13794e-07
-2.17575e-06
1.06685e-07
-2.19541e-06
1.00019e-07
-2.21395e-06
9.37188e-08
-2.23139e-06
8.77196e-08
-2.24771e-06
8.1969e-08
-2.26294e-06
7.64238e-08
-2.27707e-06
7.10485e-08
-2.29013e-06
6.58131e-08
-2.30211e-06
6.06927e-08
-2.31303e-06
5.56658e-08
-2.32289e-06
5.07137e-08
-2.3317e-06
4.58195e-08
-2.33946e-06
4.09698e-08
-2.34617e-06
3.61504e-08
-2.35184e-06
3.13519e-08
-2.35646e-06
2.65655e-08
-2.36004e-06
2.17839e-08
-2.36257e-06
1.70032e-08
-2.36405e-06
1.22202e-08
-2.36447e-06
7.4345e-09
-2.36382e-06
2.64567e-09
-2.36207e-06
-2.14662e-09
-2.3592e-06
-6.95035e-09
-2.35519e-06
-1.17803e-08
-2.35002e-06
-1.66488e-08
-2.3437e-06
-2.15536e-08
-2.3362e-06
-2.64873e-08
-2.32752e-06
-3.14438e-08
-2.31766e-06
-3.6418e-08
-2.3066e-06
-4.1405e-08
-2.29436e-06
-4.63998e-08
-2.28092e-06
-5.13977e-08
-2.26628e-06
-5.63936e-08