/*--------------------------------*- C++ -*----------------------------------*\
  =========                 |
  \\      /  F ield         | OpenFOAM: The Open Source CFD Toolbox
   \\    /   O peration     | Website:  https://openfoam.org
    \\  /    A nd           | Version:  8
     \\/     M anipulation  |
\*---------------------------------------------------------------------------*/
FoamFile
{
    version     2.0;
    format      ascii;
    class       surfaceScalarField;
    location    "1000";
    object      phi;
}
// * * * * * * * * * * * * * * * * * * * * * * * * * * * * * * * * * * * * * //

dimensions      [0 3 -1 0 0 0 0];

internalField   nonuniform List<scalar> 
24170
(
2.999e-06
1.34912e-07
2.85291e-06
1.4628e-07
2.72551e-06
1.27514e-07
2.6108e-06
1.14703e-07
2.50901e-06
1.01764e-07
2.42293e-06
8.6066e-08
2.35127e-06
7.16849e-08
2.29136e-06
5.98611e-08
2.24378e-06
4.75419e-08
2.20581e-06
3.79029e-08
2.17384e-06
3.1925e-08
2.14736e-06
2.64349e-08
2.12617e-06
2.11877e-08
2.10941e-06
1.6754e-08
2.09654e-06
1.28937e-08
2.08818e-06
8.38484e-09
2.08371e-06
4.51797e-09
-4.7275e-10
2.08422e-06
3.51481e-06
7.65571e-08
3.54619e-06
1.15012e-07
3.55887e-06
1.15011e-07
3.5591e-06
1.14678e-07
3.54918e-06
1.119e-07
3.52927e-06
1.06201e-07
3.50396e-06
9.71694e-08
3.47499e-06
8.88674e-08
3.4424e-06
8.01508e-08
3.41074e-06
6.95623e-08
3.38062e-06
6.20494e-08
3.35166e-06
5.53631e-08
3.32276e-06
5.0049e-08
3.29374e-06
4.57211e-08
3.26618e-06
4.04032e-08
3.24015e-06
3.43732e-08
3.21636e-06
2.82728e-08
2.22316e-08
3.19361e-06
3.83304e-06
5.5723e-08
3.85206e-06
9.61272e-08
3.86675e-06
1.00373e-07
3.87917e-06
1.02232e-07
3.88916e-06
1.01839e-07
3.89657e-06
9.87496e-08
3.90086e-06
9.28444e-08
3.90303e-06
8.66625e-08
3.90325e-06
7.9885e-08
3.90083e-06
7.1946e-08
3.89708e-06
6.57773e-08
3.89219e-06
6.02375e-08
3.88649e-06
5.57366e-08
3.88045e-06
5.1763e-08
3.8737e-06
4.71603e-08
3.86602e-06
4.2074e-08
3.85768e-06
3.66289e-08
3.05629e-08
3.84935e-06
4.21673e-06
4.35641e-08
4.22979e-06
8.31712e-08
4.23954e-06
9.07378e-08
4.24834e-06
9.35578e-08
4.25624e-06
9.40873e-08
4.26335e-06
9.17909e-08
4.26934e-06
8.69821e-08
4.27459e-06
8.1467e-08
4.27914e-06
7.53602e-08
4.28232e-06
6.87833e-08
4.28485e-06
6.32422e-08
4.28685e-06
5.82433e-08
4.2886e-06
5.39607e-08
4.29033e-06
5.00018e-08
4.29173e-06
4.57296e-08
4.2926e-06
4.11809e-08
4.29291e-06
3.62948e-08
3.0986e-08
4.29245e-06
4.64638e-06
3.45033e-08
4.65755e-06
7.20631e-08
4.66616e-06
8.21644e-08
4.67393e-06
8.57422e-08
4.68106e-06
8.6907e-08
4.68757e-06
8.52324e-08
4.69328e-06
8.12369e-08
4.69843e-06
7.62867e-08
4.70298e-06
7.07833e-08
4.70667e-06
6.50793e-08
4.70991e-06
5.99843e-08
4.71283e-06
5.53085e-08
4.71565e-06
5.11314e-08
4.71848e-06
4.71707e-08
4.72113e-06
4.30824e-08
4.72349e-06
3.88298e-08
4.72545e-06
3.43469e-08
2.96855e-08
4.72675e-06
5.12177e-06
2.73475e-08
5.1319e-06
6.20272e-08
5.14024e-06
7.39115e-08
5.14784e-06
7.82258e-08
5.15492e-06
7.99223e-08
5.16142e-06
7.88425e-08
5.16721e-06
7.555e-08
5.1724e-06
7.1148e-08
5.17701e-06
6.62151e-08
5.18094e-06
6.11621e-08
5.18447e-06
5.64577e-08
5.18771e-06
5.20537e-08
5.19083e-06
4.79904e-08
5.19389e-06
4.40865e-08
5.19679e-06
4.01574e-08
5.19944e-06
3.61528e-08
5.20173e-06
3.20361e-08
2.78721e-08
5.2035e-06
5.64663e-06
2.17339e-08
5.65592e-06
5.27698e-08
5.66415e-06
6.56825e-08
5.67174e-06
7.06018e-08
5.67895e-06
7.26713e-08
5.68563e-06
7.21357e-08
5.69166e-06
6.95065e-08
5.69708e-06
6.57105e-08
5.70191e-06
6.13677e-08
5.70617e-06
5.68967e-08
5.71002e-06
5.25884e-08
5.71358e-06
4.84809e-08
5.71696e-06
4.45918e-08
5.72021e-06
4.08291e-08
5.72327e-06
3.70924e-08
5.72607e-06
3.33407e-08
5.72852e-06
2.95663e-08
2.58538e-08
5.73054e-06
4.40938e-06
1.84778e-08
4.41544e-06
4.67944e-08
4.42133e-06
5.98505e-08
4.42683e-06
6.51514e-08
4.43209e-06
6.74644e-08
4.43703e-06
6.72628e-08
4.44154e-06
6.50526e-08
4.44561e-06
6.16736e-08
4.44927e-06
5.77295e-08
4.45255e-06
5.36243e-08
4.45555e-06
4.95918e-08
4.45832e-06
4.5701e-08
4.46092e-06
4.19731e-08
4.46339e-06
3.83539e-08
4.46569e-06
3.47779e-08
4.4678e-06
3.12257e-08
4.46966e-06
2.77022e-08
2.42504e-08
4.47122e-06
5.14285e-06
1.54951e-08
5.1489e-06
4.07387e-08
5.15511e-06
5.3655e-08
5.16104e-06
5.92131e-08
5.16678e-06
6.17142e-08
5.17222e-06
6.18169e-08
5.17724e-06
6.00335e-08
5.18181e-06
5.70921e-08
5.18597e-06
5.35769e-08
5.18973e-06
4.9852e-08
5.19319e-06
4.61285e-08
5.19639e-06
4.24861e-08
5.19939e-06
3.89597e-08
5.2022e-06
3.55201e-08
5.20482e-06
3.21475e-08
5.20722e-06
2.88206e-08
5.20934e-06
2.55564e-08
2.24171e-08
5.21117e-06
5.99849e-06
1.27921e-08
6.00445e-06
3.48323e-08
6.01088e-06
4.72559e-08
6.01721e-06
5.29116e-08
6.02342e-06
5.55267e-08
6.02937e-06
5.58958e-08
6.0349e-06
5.45113e-08
6.04e-06
5.20026e-08
6.04467e-06
4.89126e-08
6.04895e-06
4.55729e-08
6.0529e-06
4.21773e-08
6.05656e-06
3.88112e-08
6.05999e-06
3.5518e-08
6.06319e-06
3.23149e-08
6.06616e-06
2.9168e-08
6.06887e-06
2.61047e-08
6.0713e-06
2.31297e-08
2.02778e-08
6.07342e-06
6.99668e-06
1.03935e-08
7.0024e-06
2.91154e-08
7.009e-06
4.06697e-08
7.01569e-06
4.62469e-08
7.02234e-06
4.88883e-08
7.02878e-06
4.94658e-08
7.03485e-06
4.84439e-08
7.04049e-06
4.63687e-08
7.04571e-06
4.36988e-08
7.05052e-06
4.07581e-08
7.05498e-06
3.7706e-08
7.05913e-06
3.46473e-08
7.06301e-06
3.16444e-08
7.06662e-06
2.8697e-08
7.06996e-06
2.58326e-08
7.07302e-06
2.30514e-08
7.07577e-06
2.03707e-08
1.7832e-08
7.07822e-06
8.16115e-06
8.25602e-09
8.16658e-06
2.37092e-08
8.17325e-06
3.40194e-08
8.18023e-06
3.92758e-08
8.18729e-06
4.18412e-08
8.19422e-06
4.25437e-08
8.20083e-06
4.184e-08
8.20702e-06
4.01555e-08
8.21281e-06
3.79177e-08
8.21818e-06
3.53669e-08
8.22318e-06
3.26961e-08
8.22785e-06
2.99821e-08
8.2322e-06
2.7297e-08
8.23624e-06
2.46618e-08
8.23998e-06
2.21041e-08
8.2434e-06
1.96328e-08
8.2465e-06
1.72743e-08
1.50426e-08
8.24928e-06
9.51963e-06
6.36003e-09
9.52471e-06
1.86512e-08
9.53136e-06
2.73885e-08
9.53858e-06
3.20722e-08
9.54601e-06
3.44302e-08
9.5534e-06
3.51624e-08
9.56054e-06
3.46854e-08
9.56733e-06
3.33734e-08
9.5737e-06
3.15188e-08
9.57968e-06
2.93906e-08
9.58525e-06
2.7101e-08
9.59047e-06
2.47748e-08
9.59533e-06
2.24403e-08
9.59985e-06
2.01607e-08
9.60401e-06
1.79361e-08
9.60783e-06
1.58109e-08
9.61131e-06
1.37834e-08
1.18858e-08
9.61446e-06
1.11044e-05
4.64295e-09
1.11092e-05
1.39e-08
1.11157e-05
2.08375e-08
1.11231e-05
2.46828e-08
1.11309e-05
2.66744e-08
1.11387e-05
2.73256e-08
1.11464e-05
2.70011e-08
1.11538e-05
2.59751e-08
1.11608e-05
2.45053e-08
1.11674e-05
2.27643e-08
1.11736e-05
2.08939e-08
1.11794e-05
1.89587e-08
1.11849e-05
1.70265e-08
1.11899e-05
1.5119e-08
1.11945e-05
1.32791e-08
1.11988e-05
1.15201e-08
1.12027e-05
9.8567e-09
8.30986e-09
1.12063e-05
1.29532e-05
3.05199e-09
1.29577e-05
9.39423e-09
1.29642e-05
1.43513e-08
1.29717e-05
1.71311e-08
1.29798e-05
1.85765e-08
1.29881e-05
1.90261e-08
1.29964e-05
1.87493e-08
1.30044e-05
1.7954e-08
1.30121e-05
1.68117e-08
1.30194e-05
1.54605e-08
1.30263e-05
1.39981e-08
1.30327e-05
1.24871e-08
1.30388e-05
1.09726e-08
1.30444e-05
9.48769e-09
1.30496e-05
8.05829e-09
1.30544e-05
6.70233e-09
1.30588e-05
5.42739e-09
4.25268e-09
1.30629e-05
1.511e-05
1.52632e-09
1.51143e-05
5.00501e-09
1.51208e-05
7.86704e-09
1.51286e-05
9.35548e-09
1.51371e-05
1.00732e-08
1.51459e-05
1.01904e-08
1.51548e-05
9.8608e-09
1.51635e-05
9.22017e-09
1.5172e-05
8.3645e-09
1.518e-05
7.38417e-09
1.51877e-05
6.33629e-09
1.51949e-05
5.26722e-09
1.52017e-05
4.20448e-09
1.5208e-05
3.17367e-09
1.52138e-05
2.1903e-09
1.52192e-05
1.26799e-09
1.52242e-05
4.0977e-10
-3.67443e-10
1.52289e-05
1.7626e-05
-4.63877e-12
1.76304e-05
5.60038e-10
1.76371e-05
1.14933e-09
1.76453e-05
1.13553e-09
1.76545e-05
9.59187e-10
1.76641e-05
5.97809e-10
1.76738e-05
1.38005e-10
1.76834e-05
-4.20119e-10
1.76928e-05
-1.00646e-09
1.77018e-05
-1.62806e-09
1.77104e-05
-2.23645e-09
1.77185e-05
-2.84116e-09
1.77261e-05
-3.41151e-09
1.77332e-05
-3.95459e-09
1.77398e-05
-4.4516e-09
1.7746e-05
-4.90714e-09
1.77517e-05
-5.31436e-09
-5.6653e-09
1.7757e-05
1.78277e-05
-1.46996e-09
1.78319e-05
-3.67972e-09
1.78384e-05
-5.34977e-09
1.78465e-05
-6.83637e-09
1.78553e-05
-7.96292e-09
1.78648e-05
-8.78723e-09
1.78743e-05
-9.44144e-09
1.78839e-05
-9.90279e-09
1.78931e-05
-1.02724e-08
1.7902e-05
-1.0522e-08
1.79104e-05
-1.07275e-08
1.79185e-05
-1.08588e-08
1.7926e-05
-1.09651e-08
1.79331e-05
-1.10215e-08
1.79397e-05
-1.10571e-08
1.79458e-05
-1.10555e-08
1.79515e-05
-1.10346e-08
-1.09746e-08
1.79568e-05
1.58827e-05
-2.86659e-09
1.58867e-05
-7.66361e-09
1.58928e-05
-1.13639e-08
1.59001e-05
-1.41895e-08
1.59083e-05
-1.60796e-08
1.59168e-05
-1.73309e-08
1.59255e-05
-1.80692e-08
1.5934e-05
-1.84643e-08
1.59423e-05
-1.856e-08
1.59503e-05
-1.84927e-08
1.59578e-05
-1.8281e-08
1.59649e-05
-1.80059e-08
1.59717e-05
-1.76633e-08
1.59779e-05
-1.73011e-08
1.59838e-05
-1.69102e-08
1.59892e-05
-1.6516e-08
1.59943e-05
-1.61123e-08
-1.56987e-08
1.5999e-05
1.41501e-05
-4.32489e-09
1.41542e-05
-1.17061e-08
1.41601e-05
-1.73294e-08
1.41673e-05
-2.12922e-08
1.4175e-05
-2.38292e-08
1.41831e-05
-2.53519e-08
1.41911e-05
-2.61427e-08
1.4199e-05
-2.63521e-08
1.42066e-05
-2.61786e-08
1.42139e-05
-2.57388e-08
1.42207e-05
-2.51407e-08
1.42272e-05
-2.44413e-08
1.42332e-05
-2.36917e-08
1.42388e-05
-2.29207e-08
1.4244e-05
-2.21501e-08
1.42489e-05
-2.13898e-08
1.42534e-05
-2.06481e-08
-1.99152e-08
1.42576e-05
1.26066e-05
-5.94132e-09
1.2611e-05
-1.6064e-08
1.26171e-05
-2.34819e-08
1.26242e-05
-2.83982e-08
1.26318e-05
-3.13981e-08
1.26395e-05
-3.30965e-08
1.26472e-05
-3.38011e-08
1.26547e-05
-3.37784e-08
1.26617e-05
-3.3261e-08
1.26684e-05
-3.24237e-08
1.26747e-05
-3.14122e-08
1.26806e-05
-3.02911e-08
1.2686e-05
-2.91432e-08
1.26911e-05
-2.79826e-08
1.26958e-05
-2.68565e-08
1.27001e-05
-2.57582e-08
1.27042e-05
-2.47109e-08
-2.36907e-08
1.27079e-05
1.12317e-05
-7.82561e-09
1.12365e-05
-2.09235e-08
1.1243e-05
-2.99814e-08
1.12502e-05
-3.55863e-08
1.12577e-05
-3.89064e-08
1.12653e-05
-4.06543e-08
1.12726e-05
-4.11876e-08
1.12797e-05
-4.08225e-08
1.12863e-05
-3.98881e-08
1.12925e-05
-3.86289e-08
1.12983e-05
-3.71693e-08
1.13036e-05
-3.56356e-08
1.13086e-05
-3.40714e-08
1.13131e-05
-3.2551e-08
1.13174e-05
-3.10758e-08
1.13213e-05
-2.96802e-08
1.13249e-05
-2.83474e-08
-2.70797e-08
1.13283e-05
1.00069e-05
-1.01065e-08
1.00124e-05
-2.64927e-08
1.00194e-05
-3.691e-08
1.00267e-05
-4.29186e-08
1.00342e-05
-4.63916e-08
1.00416e-05
-4.8074e-08
1.00487e-05
-4.82937e-08
1.00554e-05
-4.75045e-08
1.00616e-05
-4.6121e-08
1.00673e-05
-4.43738e-08
1.00726e-05
-4.24563e-08
1.00775e-05
-4.04779e-08
1.00819e-05
-3.85312e-08
1.0086e-05
-3.66478e-08
1.00898e-05
-3.4865e-08
1.00933e-05
-3.3185e-08
1.00966e-05
-3.16164e-08
-3.01254e-08
1.00996e-05
8.91598e-06
-1.30073e-08
8.92241e-06
-3.2916e-08
8.92974e-06
-4.42425e-08
8.93716e-06
-5.03306e-08
8.9446e-06
-5.38464e-08
8.95184e-06
-5.53174e-08
8.95865e-06
-5.5122e-08
8.96494e-06
-5.38128e-08
8.97072e-06
-5.18937e-08
8.97601e-06
-4.9667e-08
8.98083e-06
-4.72787e-08
8.98522e-06
-4.48817e-08
8.98926e-06
-4.256e-08
8.99297e-06
-4.03529e-08
8.9964e-06
-3.82858e-08
8.99959e-06
-3.63724e-08
9.00257e-06
-3.45953e-08
-3.2922e-08
9.00536e-06
7.94447e-06
-1.68004e-08
7.95188e-06
-4.03443e-08
7.95955e-06
-5.19158e-08
7.96702e-06
-5.78141e-08
7.97439e-06
-6.12158e-08
7.98141e-06
-6.23417e-08
7.98789e-06
-6.1599e-08
7.99379e-06
-5.97129e-08
7.99916e-06
-5.72774e-08
8.00405e-06
-5.45517e-08
8.0085e-06
-5.17325e-08
8.01256e-06
-4.89421e-08
8.01631e-06
-4.63086e-08
8.01979e-06
-4.38243e-08
8.02302e-06
-4.15087e-08
8.02605e-06
-3.93924e-08
8.02889e-06
-3.74334e-08
-3.5586e-08
8.03156e-06
7.07945e-06
-2.19279e-08
7.08803e-06
-4.89236e-08
7.09601e-06
-5.98847e-08
7.10357e-06
-6.53609e-08
7.1109e-06
-6.85348e-08
7.11776e-06
-6.91985e-08
7.12403e-06
-6.78725e-08
7.12974e-06
-6.54318e-08
7.13495e-06
-6.24692e-08
7.13973e-06
-5.93254e-08
7.14414e-06
-5.6137e-08
7.14822e-06
-5.30281e-08
7.15202e-06
-5.01081e-08
7.15557e-06
-4.73618e-08
7.15888e-06
-4.48173e-08
7.16198e-06
-4.24851e-08
7.16488e-06
-4.03254e-08
-3.82889e-08
7.16759e-06
6.30974e-06
-2.91596e-08
6.31992e-06
-5.90597e-08
6.32876e-06
-6.8744e-08
6.33712e-06
-7.37153e-08
6.34515e-06
-7.65517e-08
6.35265e-06
-7.6687e-08
6.35958e-06
-7.47996e-08
6.36604e-06
-7.18711e-08
6.37205e-06
-6.84785e-08
6.37762e-06
-6.48858e-08
6.38277e-06
-6.12761e-08
6.38751e-06
-5.77732e-08
6.39185e-06
-5.4414e-08
6.39575e-06
-5.12785e-08
6.39928e-06
-4.8341e-08
6.40245e-06
-4.56482e-08
6.40527e-06
-4.31389e-08
-4.08091e-08
6.40778e-06
5.62833e-06
-4.25799e-08
5.64342e-06
-7.41077e-08
5.6571e-06
-8.24171e-08
5.67052e-06
-8.71256e-08
5.68358e-06
-8.95989e-08
5.6958e-06
-8.89039e-08
5.70697e-06
-8.59527e-08
5.71694e-06
-8.18173e-08
5.72552e-06
-7.70489e-08
5.73263e-06
-7.19833e-08
5.73823e-06
-6.68731e-08
5.7424e-06
-6.19086e-08
5.74523e-06
-5.72343e-08
5.74687e-06
-5.29205e-08
5.74753e-06
-4.90069e-08
5.7474e-06
-4.55257e-08
5.74671e-06
-4.24472e-08
-3.99824e-08
5.74588e-06
5.05213e-06
-9.23938e-08
5.09237e-06
-1.14287e-07
5.12341e-06
-1.13449e-07
5.1465e-06
-1.10204e-07
5.16149e-06
-1.04579e-07
5.16905e-06
-9.64563e-08
5.17022e-06
-8.71004e-08
5.16578e-06
-7.73536e-08
5.15663e-06
-6.78844e-08
5.1439e-06
-5.92408e-08
5.1286e-06
-5.15612e-08
5.11155e-06
-4.48305e-08
5.09342e-06
-3.90885e-08
5.07476e-06
-3.42665e-08
5.05598e-06
-3.02402e-08
5.03751e-06
-2.70581e-08
5.01971e-06
-2.46393e-08
-2.31781e-08
5.00291e-06
4.36416e-06
4.24987e-06
4.13642e-06
4.02622e-06
3.92164e-06
3.82519e-06
3.73809e-06
3.66074e-06
3.59286e-06
3.53362e-06
3.48206e-06
3.43724e-06
3.39815e-06
3.36388e-06
3.33364e-06
3.30658e-06
3.28194e-06
3.25876e-06
-8.24339e-09
8.2297e-09
-2.24e-08
1.41357e-08
-3.77495e-08
1.53317e-08
-5.08667e-08
1.30931e-08
-5.65339e-08
5.66095e-09
-4.88083e-08
-7.77077e-09
-2.55819e-08
-2.32151e-08
1.05913e-08
-3.62367e-08
5.57267e-08
-4.51128e-08
1.0488e-07
-4.92097e-08
1.53762e-07
-4.88604e-08
1.99148e-07
-4.54324e-08
2.39153e-07
-3.99912e-08
2.72439e-07
-3.3323e-08
2.98387e-07
-2.5948e-08
3.16526e-07
-1.81692e-08
3.26635e-07
-1.01205e-08
3.28371e-07
-1.75775e-09
3.21538e-07
6.80983e-09
3.06313e-07
1.5214e-08
2.83248e-07
2.30351e-08
2.53348e-07
2.98941e-08
2.17933e-07
3.53843e-08
1.78869e-07
3.90545e-08
1.38381e-07
4.04546e-08
9.91024e-08
3.926e-08
6.3644e-08
3.542e-08
3.42561e-08
2.93628e-08
1.21277e-08
2.20786e-08
-2.70565e-09
1.48143e-08
-1.11457e-08
8.38369e-09
-1.3608e-08
2.47446e-09
-1.00735e-08
-3.59252e-09
6.82498e-10
-1.07141e-08
1.98785e-08
-1.92485e-08
4.78674e-08
-2.7968e-08
8.11626e-08
-3.33369e-08
1.13965e-07
-3.28203e-08
1.40687e-07
-2.67438e-08
1.57835e-07
-1.71751e-08
1.65231e-07
-7.39764e-09
1.65569e-07
-3.48305e-10
1.62336e-07
3.24312e-09
1.5888e-07
3.453e-09
1.57564e-07
1.34813e-09
1.53019e-07
4.52894e-09
1.35752e-07
1.72992e-08
9.75578e-08
3.81965e-08
3.2698e-08
6.48661e-08
-5.62405e-08
8.89763e-08
-1.64158e-07
1.07913e-07
-2.87915e-07
1.23764e-07
-4.23943e-07
1.36026e-07
-5.67973e-07
1.43991e-07
-7.14955e-07
1.46986e-07
-8.62066e-07
1.47055e-07
-1.00555e-06
1.43511e-07
-1.14288e-06
1.37281e-07
-1.27207e-06
1.29224e-07
-1.39254e-06
1.20444e-07
-1.50363e-06
1.11128e-07
-1.60511e-06
1.01455e-07
-1.69814e-06
9.30656e-08
-1.78372e-06
8.55512e-08
-1.86218e-06
7.84997e-08
-1.9344e-06
7.21953e-08
-2.00106e-06
6.66921e-08
-2.0629e-06
6.18272e-08
-2.12043e-06
5.75693e-08
-2.17424e-06
5.38061e-08
-2.22469e-06
5.04809e-08
-2.27219e-06
4.75027e-08
-2.31698e-06
4.48256e-08
-2.35935e-06
4.23833e-08
-2.39946e-06
4.01412e-08
-2.43749e-06
3.80545e-08
-2.47355e-06
3.60997e-08
-2.50777e-06
3.42487e-08
-2.54022e-06
3.24842e-08
-2.57098e-06
3.07912e-08
-2.60011e-06
2.91549e-08
-2.62765e-06
2.75699e-08
-2.65366e-06
2.60215e-08
-2.67813e-06
2.4511e-08
-2.70115e-06
2.30233e-08
-2.72267e-06
2.15648e-08
-2.74278e-06
2.01198e-08
-2.76145e-06
1.86954e-08
-2.77872e-06
1.72773e-08
-2.7946e-06
1.58606e-08
-2.80904e-06
1.44394e-08
-2.82202e-06
1.30078e-08
-2.83353e-06
1.15531e-08
-2.84356e-06
1.00684e-08
-2.85207e-06
8.53999e-09
-2.859e-06
6.96052e-09
-2.8643e-06
5.31684e-09
-2.86788e-06
3.59587e-09
-2.86968e-06
1.80257e-09
-2.8697e-06
2.2869e-11
-2.86817e-06
-1.53421e-09
-2.86529e-06
-2.89176e-09
-2.86108e-06
-4.20904e-09
-2.85557e-06
-5.51401e-09
-2.84875e-06
-6.8178e-09
-2.84063e-06
-8.12643e-09
-2.83118e-06
-9.43542e-09
-2.82042e-06
-1.07484e-08
-2.80835e-06
-1.20594e-08
-2.79496e-06
-1.3371e-08
-2.78025e-06
-1.46782e-08
-2.76424e-06
-1.59817e-08
-2.74693e-06
-1.72783e-08
-2.72833e-06
-1.8567e-08
-2.70845e-06
-1.98462e-08
-2.6873e-06
-2.11133e-08
-2.6649e-06
-2.23689e-08
-2.64125e-06
-2.36084e-08
-2.61638e-06
-2.48347e-08
-2.5903e-06
-2.60418e-08
-2.56304e-06
-2.7234e-08
-2.5346e-06
-2.84045e-08
-2.50502e-06
-2.95587e-08
-2.47431e-06
-3.06891e-08
-2.44249e-06
-3.18015e-08
-2.40959e-06
-3.2888e-08
-2.37562e-06
-3.39543e-08
-2.34062e-06
-3.4992e-08
-2.30462e-06
-3.60041e-08
-2.26763e-06
-3.69906e-08
-2.22969e-06
-3.79501e-08
-2.19083e-06
-3.88757e-08
-2.15108e-06
-3.97652e-08
-2.11048e-06
-4.05975e-08
-2.06912e-06
-4.13746e-08
-2.02704e-06
-4.20832e-08
-1.9843e-06
-4.27507e-08
-1.9408e-06
-4.3515e-08
-1.89651e-06
-4.43033e-08
-1.85153e-06
-4.49863e-08
-1.80591e-06
-4.56299e-08
-1.75968e-06
-4.62345e-08
-1.71289e-06
-4.68064e-08
-1.66556e-06
-4.73446e-08
-1.61772e-06
-4.78523e-08
-1.56941e-06
-4.83284e-08
-1.52066e-06
-4.87757e-08
-1.47149e-06
-4.91945e-08
-1.42194e-06
-4.9582e-08
-1.37202e-06
-4.99397e-08
-1.32178e-06
-5.02688e-08
-1.27125e-06
-5.05603e-08
-1.22045e-06
-5.08221e-08
-1.16943e-06
-5.10489e-08
-1.11821e-06
-5.1245e-08
-1.06682e-06
-5.14163e-08
-1.01527e-06
-5.15656e-08
-9.63591e-07
-5.16999e-08
-9.11785e-07
-5.18233e-08
-8.5986e-07
-5.19408e-08
-8.07818e-07
-5.20551e-08
-7.55663e-07
-5.21678e-08
-7.03397e-07
-5.22771e-08
-6.51026e-07
-5.23827e-08
-5.98553e-07
-5.24836e-08
-5.45981e-07
-5.25825e-08
-4.93309e-07
-5.2682e-08
-4.40532e-07
-5.27866e-08
-3.87643e-07
-5.28969e-08
-3.34638e-07
-5.30131e-08
-2.81519e-07
-5.31246e-08
-2.2831e-07
-5.3214e-08
-1.75061e-07
-5.32507e-08
-1.21888e-07
-5.31762e-08
-6.89868e-08
-5.29003e-08
-1.68286e-08
-5.21594e-08
3.39863e-08
-5.08131e-08
8.17478e-08
-4.77625e-08
1.25726e-07
-4.39774e-08
-1.92584e-08
1.4498e-07
-3.50634e-09
1.17114e-08
-9.72251e-09
2.03128e-08
-1.25867e-08
1.81599e-08
-4.91316e-09
5.36775e-09
1.83114e-08
-1.75811e-08
5.60689e-08
-4.55717e-08
1.03915e-07
-7.10598e-08
1.56236e-07
-8.85914e-08
2.08006e-07
-9.68765e-08
2.55895e-07
-9.71281e-08
2.98502e-07
-9.14616e-08
3.35072e-07
-8.20275e-08
3.65559e-07
-7.04758e-08
3.90109e-07
-5.7895e-08
4.09095e-07
-4.49391e-08
4.22871e-07
-3.19654e-08
4.31882e-07
-1.91434e-08
4.36667e-07
-6.55965e-09
4.37637e-07
5.82097e-09
4.34726e-07
1.81111e-08
4.27464e-07
3.02748e-08
4.15273e-07
4.20748e-08
3.97557e-07
5.30774e-08
3.73966e-07
6.26347e-08
3.44475e-07
6.99237e-08
3.09673e-07
7.40486e-08
2.70831e-07
7.424e-08
2.3006e-07
7.01178e-08
1.90237e-07
6.18731e-08
1.54848e-07
5.01944e-08
1.27285e-07
3.59065e-08
1.1017e-07
1.96018e-08
1.04928e-07
1.60563e-09
1.11482e-07
-1.72401e-08
1.28013e-07
-3.58119e-08
1.49908e-07
-4.98543e-08
1.70102e-07
-5.35536e-08
1.83252e-07
-4.59868e-08
1.87238e-07
-3.07423e-08
1.81791e-07
-1.17472e-08
1.68076e-07
6.30908e-09
1.47951e-07
1.9762e-08
1.17114e-07
3.40964e-08
6.54812e-08
5.50766e-08
-1.6403e-08
8.32653e-08
-1.30256e-07
1.18379e-07
-2.68079e-07
1.55142e-07
-4.19485e-07
1.89612e-07
-5.76009e-07
2.21402e-07
-7.34945e-07
2.47925e-07
-8.9416e-07
2.67134e-07
-1.04983e-06
2.79437e-07
-1.1985e-06
2.84689e-07
-1.33718e-06
2.82656e-07
-1.46416e-06
2.73958e-07
-1.57769e-06
2.60574e-07
-1.6783e-06
2.44114e-07
-1.76699e-06
2.25953e-07
-1.84535e-06
2.07594e-07
-1.91468e-06
1.89765e-07
-1.97656e-06
1.7301e-07
-2.03263e-06
1.57528e-07
-2.08348e-06
1.43923e-07
-2.12996e-06
1.32027e-07
-2.17301e-06
1.21559e-07
-2.21322e-06
1.12407e-07
-2.25095e-06
1.04432e-07
-2.28656e-06
9.74439e-08
-2.32027e-06
9.12913e-08
-2.35228e-06
8.58217e-08
-2.3827e-06
8.09187e-08
-2.41166e-06
7.64724e-08
-2.43922e-06
7.23995e-08
-2.46544e-06
6.86244e-08
-2.49037e-06
6.50929e-08
-2.51405e-06
6.1755e-08
-2.5365e-06
5.85758e-08
-2.55775e-06
5.55241e-08
-2.57782e-06
5.25773e-08
-2.59672e-06
4.97166e-08
-2.61447e-06
4.69263e-08
-2.63108e-06
4.41958e-08
-2.64655e-06
4.15127e-08
-2.6609e-06
3.88714e-08
-2.67412e-06
3.62612e-08
-2.68621e-06
3.36798e-08
-2.69719e-06
3.11175e-08
-2.70705e-06
2.85716e-08
-2.71581e-06
2.6033e-08
-2.72346e-06
2.34948e-08
-2.72996e-06
2.09503e-08
-2.73533e-06
1.83953e-08
-2.73957e-06
1.58225e-08
-2.7427e-06
1.32281e-08
-2.74474e-06
1.06084e-08
-2.74573e-06
7.96695e-09
-2.74571e-06
5.30912e-09
-2.74476e-06
2.65311e-09
-2.74298e-06
3.22166e-11
-2.74044e-06
-2.52018e-09
-2.73694e-06
-5.04625e-09
-2.73224e-06
-7.59538e-09
-2.7263e-06
-1.01558e-08
-2.71909e-06
-1.2724e-08
-2.71061e-06
-1.53013e-08
-2.70084e-06
-1.7888e-08
-2.68979e-06
-2.04803e-08
-2.67746e-06
-2.30777e-08
-2.66383e-06
-2.56749e-08
-2.64891e-06
-2.82708e-08
-2.63271e-06
-3.086e-08
-2.61523e-06
-3.3441e-08
-2.59648e-06
-3.60084e-08
-2.57646e-06
-3.85606e-08
-2.55519e-06
-4.10927e-08
-2.53267e-06
-4.36023e-08
-2.50893e-06
-4.60861e-08
-2.48397e-06
-4.85412e-08
-2.45781e-06
-5.09654e-08
-2.43047e-06
-5.33557e-08
-2.40197e-06
-5.57114e-08
-2.37233e-06
-5.80288e-08
-2.34156e-06
-6.0308e-08
-2.30969e-06
-6.2545e-08
-2.27674e-06
-6.47401e-08
-2.24273e-06
-6.68887e-08
-2.20768e-06
-6.89911e-08
-2.17163e-06
-7.10422e-08
-2.13459e-06
-7.30417e-08
-2.0966e-06
-7.49871e-08
-2.05768e-06
-7.68765e-08
-2.01786e-06
-7.87034e-08
-1.97717e-06
-8.04625e-08
-1.93562e-06
-8.2145e-08
-1.89324e-06
-8.37568e-08
-1.85003e-06
-8.52987e-08
-1.806e-06
-8.67914e-08
-1.76124e-06
-8.82854e-08
-1.71581e-06
-8.97381e-08
-1.66971e-06
-9.1092e-08
-1.62298e-06
-9.23685e-08
-1.57565e-06
-9.35731e-08
-1.52775e-06
-9.47104e-08
-1.47932e-06
-9.57821e-08
-1.43039e-06
-9.67904e-08
-1.381e-06
-9.77371e-08
-1.33116e-06
-9.86237e-08
-1.28092e-06
-9.94531e-08
-1.2303e-06
-1.00223e-07
-1.17933e-06
-1.00934e-07
-1.12803e-06
-1.01586e-07
-1.07643e-06
-1.02172e-07
-1.02458e-06
-1.02694e-07
-9.7249e-07
-1.03151e-07
-9.20203e-07
-1.03547e-07
-8.6774e-07
-1.03893e-07
-8.15122e-07
-1.04196e-07
-7.62365e-07
-1.04468e-07
-7.0948e-07
-1.04718e-07
-6.56474e-07
-1.04956e-07
-6.03349e-07
-1.05188e-07
-5.50106e-07
-1.05416e-07
-4.96748e-07
-1.05641e-07
-4.43278e-07
-1.05858e-07
-3.89698e-07
-1.06069e-07
-3.36009e-07
-1.06276e-07
-2.82209e-07
-1.06487e-07
-2.28292e-07
-1.06708e-07
-1.74252e-07
-1.06941e-07
-1.20083e-07
-1.07185e-07
-6.57853e-08
-1.07424e-07
-1.13828e-08
-1.07617e-07
4.30802e-08
-1.07714e-07
9.75183e-08
-1.07613e-07
1.51758e-07
-1.07138e-07
2.0556e-07
-1.05959e-07
2.58298e-07
-1.03549e-07
3.09398e-07
-9.88601e-08
3.55566e-07
-9.01424e-08
-6.32634e-08
3.99571e-07
3.97142e-10
1.12962e-08
4.16742e-09
1.65035e-08
1.92725e-08
3.02859e-09
5.34014e-08
-2.87918e-08
1.04811e-07
-6.89958e-08
1.63721e-07
-1.04504e-07
2.20366e-07
-1.27704e-07
2.69227e-07
-1.37472e-07
3.08744e-07
-1.36392e-07
3.39586e-07
-1.27988e-07
3.63386e-07
-1.1526e-07
3.81639e-07
-1.00297e-07
3.9556e-07
-8.43959e-08
4.05929e-07
-6.82793e-08
4.13311e-07
-5.23257e-08
4.18051e-07
-3.67202e-08
4.20446e-07
-2.15471e-08
4.20723e-07
-6.85122e-09
4.1918e-07
7.34947e-09
4.16181e-07
2.1097e-08
4.11995e-07
3.44425e-08
4.06683e-07
4.73739e-08
3.99979e-07
5.97607e-08
3.91322e-07
7.12802e-08
3.79863e-07
8.13626e-08
3.64727e-07
8.91755e-08
3.45274e-07
9.36754e-08
3.21613e-07
9.37682e-08
2.94863e-07
8.86077e-08
2.67269e-07
7.77835e-08
2.41704e-07
6.14563e-08
2.20969e-07
4.03439e-08
2.06726e-07
1.58385e-08
1.99213e-07
-9.71433e-09
1.94507e-07
-3.11148e-08
1.85248e-07
-4.05961e-08
1.66871e-07
-3.51868e-08
1.39139e-07
-1.82641e-08
1.02865e-07
5.51747e-09
5.63228e-08
3.4776e-08
-5.87724e-09
6.85042e-08
-9.09763e-08
1.04848e-07
-2.01358e-07
1.44481e-07
-3.33812e-07
1.87529e-07
-4.82105e-07
2.31564e-07
-6.37078e-07
2.73354e-07
-7.92153e-07
3.10222e-07
-9.425e-07
3.39967e-07
-1.08281e-06
3.61721e-07
-1.21011e-06
3.75231e-07
-1.32344e-06
3.80476e-07
-1.42213e-06
3.78123e-07
-1.50646e-06
3.69017e-07
-1.57805e-06
3.54242e-07
-1.63942e-06
3.35317e-07
-1.69282e-06
3.1397e-07
-1.74032e-06
2.91607e-07
-1.78366e-06
2.69281e-07
-1.82404e-06
2.4797e-07
-1.86238e-06
2.28096e-07
-1.89929e-06
2.09922e-07
-1.93525e-06
1.93481e-07
-1.9702e-06
1.7888e-07
-2.00417e-06
1.65994e-07
-2.03721e-06
1.54602e-07
-2.06933e-06
1.44531e-07
-2.10049e-06
1.35604e-07
-2.13069e-06
1.27646e-07
-2.15989e-06
1.205e-07
-2.18809e-06
1.14025e-07
-2.21526e-06
1.08102e-07
-2.24141e-06
1.02629e-07
-2.26652e-06
9.75233e-08
-2.29059e-06
9.27131e-08
-2.31362e-06
8.81422e-08
-2.33562e-06
8.37645e-08
-2.35657e-06
7.95437e-08
-2.37647e-06
7.54505e-08
-2.39534e-06
7.1462e-08
-2.41317e-06
6.75599e-08
-2.42995e-06
6.37291e-08
-2.4457e-06
5.99583e-08
-2.46041e-06
5.62366e-08
-2.47409e-06
5.25565e-08
-2.48672e-06
4.89094e-08
-2.49832e-06
4.52901e-08
-2.50888e-06
4.16907e-08
-2.5184e-06
3.81061e-08
-2.5269e-06
3.45283e-08
-2.53437e-06
3.09489e-08
-2.54077e-06
2.73644e-08
-2.54613e-06
2.37675e-08
-2.55044e-06
2.01565e-08
-2.55372e-06
1.65258e-08
-2.55596e-06
1.28763e-08
-2.55719e-06
9.21022e-09
-2.55741e-06
5.53443e-09
-2.55662e-06
1.85914e-09
-2.55478e-06
-1.80576e-09
-2.55184e-06
-5.46545e-09
-2.54774e-06
-9.15383e-09
-2.54245e-06
-1.28859e-08
-2.53596e-06
-1.66508e-08
-2.52825e-06
-2.04391e-08
-2.51931e-06
-2.42488e-08
-2.50912e-06
-2.80735e-08
-2.49769e-06
-3.19107e-08
-2.48501e-06
-3.5754e-08
-2.47107e-06
-3.96001e-08
-2.45589e-06
-4.34428e-08
-2.43946e-06
-4.72776e-08
-2.42179e-06
-5.1099e-08
-2.40288e-06
-5.49019e-08
-2.38274e-06
-5.86812e-08
-2.36138e-06
-6.24315e-08
-2.33881e-06
-6.61484e-08
-2.31505e-06
-6.98266e-08
-2.29011e-06
-7.34626e-08
-2.264e-06
-7.70519e-08
-2.23675e-06
-8.05921e-08
-2.20836e-06
-8.40793e-08
-2.17886e-06
-8.75117e-08
-2.14827e-06
-9.08858e-08
-2.1166e-06
-9.41995e-08
-2.08388e-06
-9.74491e-08
-2.05013e-06
-1.00632e-07
-2.01537e-06
-1.03745e-07
-1.97963e-06
-1.06785e-07
-1.94292e-06
-1.09748e-07
-1.90528e-06
-1.12631e-07
-1.86673e-06
-1.15431e-07
-1.8273e-06
-1.18142e-07
-1.787e-06
-1.20758e-07
-1.74588e-06
-1.23275e-07
-1.70394e-06
-1.25699e-07
-1.6612e-06
-1.28036e-07
-1.6177e-06
-1.30295e-07
-1.5735e-06
-1.32493e-07
-1.52864e-06
-1.34606e-07
-1.48313e-06
-1.36607e-07
-1.437e-06
-1.38502e-07
-1.39028e-06
-1.40294e-07
-1.34301e-06
-1.41986e-07
-1.29522e-06
-1.43581e-07
-1.24693e-06
-1.4508e-07
-1.19819e-06
-1.46487e-07
-1.14902e-06
-1.47804e-07
-1.09945e-06
-1.49034e-07
-1.04951e-06
-1.50177e-07
-9.99216e-07
-1.51233e-07
-9.48608e-07
-1.52204e-07
-8.97708e-07
-1.53081e-07
-8.46549e-07
-1.53862e-07
-7.95159e-07
-1.54549e-07
-7.43567e-07
-1.55146e-07
-6.91798e-07
-1.55669e-07
-6.39871e-07
-1.56129e-07
-5.87803e-07
-1.56541e-07
-5.35604e-07
-1.56921e-07
-4.83282e-07
-1.57282e-07
-4.3084e-07
-1.57634e-07
-3.78279e-07
-1.57981e-07
-3.25599e-07
-1.58324e-07
-2.72803e-07
-1.58658e-07
-2.19892e-07
-1.58983e-07
-1.66865e-07
-1.59306e-07
-1.13721e-07
-1.59635e-07
-6.04526e-08
-1.59979e-07
-7.05172e-09
-1.60345e-07
4.64868e-08
-1.60727e-07
1.00163e-07
-1.61103e-07
1.53968e-07
-1.61425e-07
2.07863e-07
-1.61612e-07
2.61773e-07
-1.61526e-07
3.15571e-07
-1.60939e-07
3.69063e-07
-1.59454e-07
4.21902e-07
-1.56391e-07
4.73677e-07
-1.50637e-07
5.23445e-07
-1.39914e-07
-1.14477e-07
5.74655e-07
-8.31647e-11
1.13707e-08
1.34832e-08
2.90468e-09
5.4161e-08
-3.76549e-08
1.16843e-07
-9.14922e-08
1.84057e-07
-1.36209e-07
2.41718e-07
-1.62179e-07
2.8442e-07
-1.70404e-07
3.13132e-07
-1.66198e-07
3.3151e-07
-1.54767e-07
3.43183e-07
-1.39675e-07
3.50847e-07
-1.22922e-07
3.56059e-07
-1.05522e-07
3.59646e-07
-8.79826e-08
3.61924e-07
-7.05694e-08
3.6303e-07
-5.34335e-08
3.62973e-07
-3.66757e-08
3.61788e-07
-2.03695e-08
3.595e-07
-4.57741e-09
3.56192e-07
1.06457e-08
3.52001e-07
2.52737e-08
3.47145e-07
3.92823e-08
3.41867e-07
5.26378e-08
3.36337e-07
6.52722e-08
3.3058e-07
7.70242e-08
3.24352e-07
8.75708e-08
3.17165e-07
9.63523e-08
3.08283e-07
1.02539e-07
2.97012e-07
1.05036e-07
2.82928e-07
1.02676e-07
2.66195e-07
9.45228e-08
2.47675e-07
7.99654e-08
2.28734e-07
5.93022e-08
2.09945e-07
3.46198e-08
1.88103e-07
1.21393e-08
1.56094e-07
8.82242e-10
1.10729e-07
4.76612e-09
5.29195e-08
2.26067e-08
-1.80081e-08
5.26452e-08
-1.04769e-07
9.22657e-08
-2.08438e-07
1.38433e-07
-3.27884e-07
1.87942e-07
-4.60925e-07
2.37884e-07
-6.02682e-07
2.86238e-07
-7.46526e-07
3.3137e-07
-8.8627e-07
3.71307e-07
-1.01638e-06
4.03464e-07
-1.13276e-06
4.26607e-07
-1.23383e-06
4.41041e-07
-1.31915e-06
4.47051e-07
-1.38941e-06
4.45493e-07
-1.44642e-06
4.37496e-07
-1.49247e-06
4.24169e-07
-1.53016e-06
4.06706e-07
-1.56221e-06
3.86285e-07
-1.59101e-06
3.64109e-07
-1.61832e-06
3.41273e-07
-1.64532e-06
3.18602e-07
-1.67273e-06
2.96683e-07
-1.70077e-06
2.76009e-07
-1.7295e-06
2.56819e-07
-1.7588e-06
2.39227e-07
-1.78855e-06
2.23218e-07
-1.81844e-06
2.08779e-07
-1.84826e-06
1.95811e-07
-1.87782e-06
1.84159e-07
-1.90695e-06
1.73672e-07
-1.93554e-06
1.64197e-07
-1.96348e-06
1.55589e-07
-1.99068e-06
1.47712e-07
-2.0171e-06
1.40444e-07
-2.04267e-06
1.33681e-07
-2.06736e-06
1.27332e-07
-2.09115e-06
1.21319e-07
-2.114e-06
1.15581e-07
-2.13591e-06
1.10064e-07
-2.15686e-06
1.04727e-07
-2.17684e-06
9.95358e-08
-2.19584e-06
9.44647e-08
-2.21385e-06
8.94924e-08
-2.23088e-06
8.46022e-08
-2.24692e-06
7.97805e-08
-2.26197e-06
7.50166e-08
-2.27602e-06
7.03011e-08
-2.28908e-06
6.56264e-08
-2.30115e-06
6.09851e-08
-2.31222e-06
5.63707e-08
-2.32229e-06
5.17764e-08
-2.33137e-06
4.71953e-08
-2.33947e-06
4.26193e-08
-2.34657e-06
3.80403e-08
-2.35265e-06
3.34516e-08
-2.35772e-06
2.88481e-08
-2.36177e-06
2.42263e-08
-2.36481e-06
1.95801e-08
-2.36683e-06
1.4909e-08
-2.36782e-06
1.02121e-08
-2.36778e-06
5.49279e-09
-2.36667e-06
7.53532e-10
-2.36447e-06
-4.00568e-09
-2.36115e-06
-8.79463e-09
-2.35668e-06
-1.36314e-08
-2.35105e-06
-1.85205e-08
-2.34425e-06
-2.3455e-08
-2.33627e-06
-2.84251e-08
-2.3271e-06
-3.34263e-08
-2.31672e-06
-3.84496e-08
-2.30514e-06
-4.3491e-08
-2.29235e-06
-4.85414e-08
-2.27835e-06
-5.35965e-08
-2.26313e-06
-5.86471e-08
-2.24671e-06
-6.36885e-08
-2.22908e-06
-6.87121e-08
-2.21026e-06
-7.37123e-08
-2.19025e-06
-7.86812e-08
-2.16905e-06
-8.36126e-08
-2.14668e-06
-8.84999e-08
-2.12315e-06
-9.33363e-08