/*--------------------------------*- C++ -*----------------------------------*\
  =========                 |
  \\      /  F ield         | OpenFOAM: The Open Source CFD Toolbox
   \\    /   O peration     | Website:  https://openfoam.org
    \\  /    A nd           | Version:  8
     \\/     M anipulation  |
\*---------------------------------------------------------------------------*/
FoamFile
{
    version     2.0;
    format      ascii;
    class       surfaceScalarField;
    location    "2000";
    object      phi;
}
// * * * * * * * * * * * * * * * * * * * * * * * * * * * * * * * * * * * * * //

dimensions      [0 3 -1 0 0 0 0];

internalField   nonuniform List<scalar> 
24170
(
2.99788e-06
1.36022e-07
2.84908e-06
1.4883e-07
2.71901e-06
1.30119e-07
2.60542e-06
1.13661e-07
2.50736e-06
9.82769e-08
2.42475e-06
8.29477e-08
2.35665e-06
6.83681e-08
2.30075e-06
5.58035e-08
2.25436e-06
4.62482e-08
2.21357e-06
4.06556e-08
2.17978e-06
3.37416e-08
2.15076e-06
2.90158e-08
2.1245e-06
2.62541e-08
2.10372e-06
2.07824e-08
2.08868e-06
1.50216e-08
2.07839e-06
1.02494e-08
2.07312e-06
5.21097e-09
-7.84698e-10
2.07385e-06
3.51869e-06
7.38335e-08
3.55648e-06
1.11395e-07
3.57368e-06
1.13249e-07
3.5738e-06
1.13787e-07
3.5608e-06
1.11532e-07
3.53676e-06
1.07188e-07
3.50345e-06
1.01624e-07
3.46715e-06
9.17454e-08
3.42954e-06
8.34188e-08
3.3927e-06
7.70944e-08
3.35829e-06
6.78482e-08
3.32636e-06
6.07266e-08
3.29697e-06
5.54704e-08
3.26925e-06
4.84153e-08
3.24412e-06
4.00919e-08
3.22242e-06
3.19393e-08
3.20315e-06
2.44941e-08
1.90981e-08
3.18333e-06
3.83174e-06
5.4296e-08
3.85094e-06
9.21316e-08
3.86656e-06
9.76009e-08
3.88027e-06
1.00109e-07
3.89099e-06
1.00916e-07
3.89865e-06
9.97106e-08
3.90366e-06
9.66642e-08
3.90488e-06
9.04384e-08
3.9035e-06
8.47002e-08
3.90103e-06
7.94814e-08
3.8965e-06
7.23557e-08
3.89115e-06
6.60933e-08
3.88592e-06
6.06995e-08
3.88e-06
5.43462e-08
3.873e-06
4.71028e-08
3.86502e-06
3.99189e-08
3.85626e-06
3.32481e-08
2.76585e-08
3.84771e-06
4.2159e-06
4.29766e-08
4.22835e-06
7.98729e-08
4.23782e-06
8.83094e-08
4.2466e-06
9.14904e-08
4.25451e-06
9.31477e-08
4.2618e-06
9.24637e-08
4.26869e-06
8.96483e-08
4.27416e-06
8.46908e-08
4.27876e-06
7.97908e-08
4.28303e-06
7.49525e-08
4.28617e-06
6.90241e-08
4.28871e-06
6.33985e-08
4.29114e-06
5.81624e-08
4.29307e-06
5.23512e-08
4.29413e-06
4.60124e-08
4.29423e-06
3.98084e-08
4.29346e-06
3.40359e-08
2.90859e-08
4.29209e-06
4.64592e-06
3.43679e-08
4.65665e-06
6.90545e-08
4.66497e-06
7.99373e-08
4.67246e-06
8.39961e-08
4.67939e-06
8.62584e-08
4.68589e-06
8.60007e-08
4.69202e-06
8.34917e-08
4.69734e-06
7.93174e-08
4.70218e-06
7.48962e-08
4.70682e-06
7.03042e-08
4.71083e-06
6.50354e-08
4.71443e-06
5.98174e-08
4.71789e-06
5.47184e-08
4.72096e-06
4.92949e-08
4.72338e-06
4.35943e-08
4.72511e-06
3.80857e-08
4.7262e-06
3.29681e-08
2.84691e-08
4.72673e-06
5.12149e-06
2.74744e-08
5.13124e-06
5.94138e-08
5.13938e-06
7.19001e-08
5.14669e-06
7.67891e-08
5.15358e-06
7.94247e-08
5.16002e-06
7.95253e-08
5.16601e-06
7.73766e-08
5.17134e-06
7.37926e-08
5.17628e-06
6.97733e-08
5.18097e-06
6.5457e-08
5.18519e-06
6.0681e-08
5.18906e-06
5.58395e-08
5.1927e-06
5.09911e-08
5.19598e-06
4.5964e-08
5.19872e-06
4.08326e-08
5.20089e-06
3.59047e-08
5.20252e-06
3.1312e-08
2.73032e-08
5.20375e-06
5.64652e-06
2.19556e-08
5.65538e-06
5.04706e-08
5.66346e-06
6.37678e-08
5.67082e-06
6.94266e-08
5.67787e-06
7.23662e-08
5.68452e-06
7.28551e-08
5.69067e-06
7.11826e-08
5.69624e-06
6.81693e-08
5.70142e-06
6.45858e-08
5.70629e-06
6.06018e-08
5.71074e-06
5.62455e-08
5.71483e-06
5.17479e-08
5.71864e-06
4.71955e-08
5.72206e-06
4.2545e-08
5.72499e-06
3.79061e-08
5.72743e-06
3.34677e-08
5.72941e-06
2.93555e-08
2.56614e-08
5.731e-06
4.40934e-06
1.87177e-08
4.41517e-06
4.46944e-08
4.42099e-06
5.7996e-08
4.42639e-06
6.40736e-08
4.43157e-06
6.71903e-08
4.43648e-06
6.78905e-08
4.44104e-06
6.65292e-08
4.44522e-06
6.38923e-08
4.4491e-06
6.06243e-08
4.45272e-06
5.69117e-08
4.45605e-06
5.28505e-08
4.45913e-06
4.86226e-08
4.46197e-06
4.4322e-08
4.46453e-06
3.996e-08
4.46677e-06
3.56515e-08
4.4687e-06
3.1537e-08
4.47032e-06
2.77155e-08
2.4296e-08
4.47168e-06
5.1428e-06
1.57759e-08
5.1486e-06
3.88146e-08
5.15472e-06
5.18535e-08
5.16055e-06
5.82185e-08
5.16623e-06
6.14833e-08
5.17166e-06
6.24069e-08
5.17675e-06
6.13819e-08
5.18148e-06
5.91335e-08
5.18589e-06
5.62011e-08
5.19e-06
5.27917e-08
5.19381e-06
4.90365e-08
5.19732e-06
4.51063e-08
5.20054e-06
4.10909e-08
5.20344e-06
3.7051e-08
5.20601e-06
3.30765e-08
5.20825e-06
2.93051e-08
5.21017e-06
2.57971e-08
2.26229e-08
5.21182e-06
5.99842e-06
1.31244e-08
6.0041e-06
3.31326e-08
6.01041e-06
4.55485e-08
6.01663e-06
5.19959e-08
6.02278e-06
5.5303e-08
6.02873e-06
5.64015e-08
6.03437e-06
5.56962e-08
6.03967e-06
5.38104e-08
6.04464e-06
5.12141e-08
6.04929e-06
4.81301e-08
6.0536e-06
4.47149e-08
6.05758e-06
4.11172e-08
6.06123e-06
3.74376e-08
6.06452e-06
3.37422e-08
6.06747e-06
3.01528e-08
6.07005e-06
2.67169e-08
6.0723e-06
2.35302e-08
2.06346e-08
6.07427e-06
6.99661e-06
1.07848e-08
7.00204e-06
2.76557e-08
7.00846e-06
3.9094e-08
7.01501e-06
4.54065e-08
7.02161e-06
4.86681e-08
7.02807e-06
4.98836e-08
7.03427e-06
4.94586e-08
7.04014e-06
4.7916e-08
7.04568e-06
4.56564e-08
7.05087e-06
4.29186e-08
7.05571e-06
3.98661e-08
7.06018e-06
3.66338e-08
7.06427e-06
3.33258e-08
7.06799e-06
3.00303e-08
7.07132e-06
2.68058e-08
7.0743e-06
2.37577e-08
7.07691e-06
2.08927e-08
1.83122e-08
7.07923e-06
8.1611e-06
8.68616e-09
8.1662e-06
2.25119e-08
8.17266e-06
3.26103e-08
8.1795e-06
3.85326e-08
8.18649e-06
4.16325e-08
8.19345e-06
4.28813e-08
8.2002e-06
4.27013e-08
8.20665e-06
4.14631e-08
8.21276e-06
3.95466e-08
8.21851e-06
3.71695e-08
8.22388e-06
3.44958e-08
8.22885e-06
3.1665e-08
8.23341e-06
2.87491e-08
8.23756e-06
2.58629e-08
8.24133e-06
2.30484e-08
8.2447e-06
2.0375e-08
8.24772e-06
1.78739e-08
1.55949e-08
8.2504e-06
9.5196e-06
6.80724e-09
9.52436e-06
1.7711e-08
9.53076e-06
2.6175e-08
9.53783e-06
3.1429e-08
9.54518e-06
3.42256e-08
9.55262e-06
3.54471e-08
9.55991e-06
3.54041e-08
9.56694e-06
3.44575e-08
9.57364e-06
3.28708e-08
9.57997e-06
3.08657e-08
9.5859e-06
2.86013e-08
9.59137e-06
2.61627e-08
9.59644e-06
2.36969e-08
9.60105e-06
2.12157e-08
9.60528e-06
1.88383e-08
9.60908e-06
1.65507e-08
9.61253e-06
1.44365e-08
1.2488e-08
9.61564e-06
1.11044e-05
5.08398e-09
1.11089e-05
1.32171e-08
1.11152e-05
1.98341e-08
1.11224e-05
2.41474e-08
1.11301e-05
2.6516e-08
1.1138e-05
2.7554e-08
1.11458e-05
2.75979e-08
1.11535e-05
2.68683e-08
1.11608e-05
2.55999e-08
1.11677e-05
2.39725e-08
1.11742e-05
2.21051e-08
1.11803e-05
2.01235e-08
1.11858e-05
1.80765e-08
1.1191e-05
1.60683e-08
1.11957e-05
1.41053e-08
1.12e-05
1.22588e-08
1.12039e-05
1.05147e-08
8.93776e-09
1.12075e-05
1.29532e-05
3.47774e-09
1.29575e-05
8.95522e-09
1.29637e-05
1.35713e-08
1.29711e-05
1.67316e-08
1.29791e-05
1.84569e-08
1.29875e-05
1.92231e-08
1.29959e-05
1.92277e-08
1.30041e-05
1.86572e-08
1.3012e-05
1.76737e-08
1.30196e-05
1.64097e-08
1.30268e-05
1.49682e-08
1.30334e-05
1.34296e-08
1.30396e-05
1.18612e-08
1.30454e-05
1.03109e-08
1.30507e-05
8.8133e-09
1.30555e-05
7.39465e-09
1.306e-05
6.06753e-09
4.85657e-09
1.3064e-05
1.511e-05
1.92703e-09
1.51141e-05
4.7762e-09
1.51204e-05
7.29253e-09
1.51281e-05
9.06667e-09
1.51366e-05
9.99745e-09
1.51454e-05
1.03372e-08
1.51545e-05
1.02151e-08
1.51634e-05
9.73899e-09
1.5172e-05
9.00817e-09
1.51803e-05
8.10197e-09
1.51882e-05
7.08914e-09
1.51955e-05
6.01977e-09
1.52024e-05
4.93869e-09
1.52089e-05
3.875e-09
1.52148e-05
2.85409e-09
1.52203e-05
1.8912e-09
1.52254e-05
9.96618e-10
1.84826e-10
1.523e-05
1.7626e-05
3.41117e-10
1.76303e-05
4.61775e-10
1.76369e-05
7.19793e-10
1.7645e-05
9.23028e-10
1.76542e-05
8.82736e-10
1.76638e-05
6.92344e-10
1.76736e-05
3.7047e-10
1.76834e-05
-4.90426e-11
1.76929e-05
-5.4846e-10
1.77021e-05
-1.09006e-09
1.77108e-05
-1.6662e-09
1.77191e-05
-2.24255e-09
1.77268e-05
-2.81743e-09
1.7734e-05
-3.36436e-09
1.77408e-05
-3.88473e-09
1.7747e-05
-4.36021e-09
1.77528e-05
-4.79635e-09
-5.17519e-09
1.77582e-05
1.78277e-05
-1.21034e-09
1.7832e-05
-3.77461e-09
1.78384e-05
-5.71474e-09
1.78464e-05
-7.05594e-09
1.78553e-05
-8.05603e-09
1.78648e-05
-8.77085e-09
1.78744e-05
-9.28545e-09
1.7884e-05
-9.66268e-09
1.78934e-05
-9.92408e-09
1.79024e-05
-1.01278e-08
1.7911e-05
-1.02664e-08
1.79191e-05
-1.03857e-08
1.79267e-05
-1.04604e-08
1.79339e-05
-1.05268e-08
1.79406e-05
-1.05562e-08
1.79467e-05
-1.05777e-08
1.79525e-05
-1.05652e-08
-1.0537e-08
1.79579e-05
1.58828e-05
-2.69142e-09
1.58868e-05
-7.82357e-09
1.58929e-05
-1.17454e-08
1.59002e-05
-1.44444e-08
1.59084e-05
-1.62407e-08
1.5917e-05
-1.7369e-08
1.59257e-05
-1.80173e-08
1.59343e-05
-1.82945e-08
1.59427e-05
-1.83257e-08
1.59507e-05
-1.81732e-08
1.59583e-05
-1.79262e-08
1.59656e-05
-1.75978e-08
1.59723e-05
-1.72447e-08
1.59787e-05
-1.68574e-08
1.59845e-05
-1.64736e-08
1.59901e-05
-1.60748e-08
1.59952e-05
-1.56882e-08
-1.52884e-08
1.59999e-05
1.41502e-05
-4.21905e-09
1.41543e-05
-1.19586e-08
1.41603e-05
-1.77583e-08
1.41675e-05
-2.16123e-08
1.41752e-05
-2.405e-08
1.41833e-05
-2.54776e-08
1.41915e-05
-2.61577e-08
1.41994e-05
-2.6283e-08
1.42071e-05
-2.6018e-08
1.42144e-05
-2.55117e-08
1.42213e-05
-2.48513e-08
1.42278e-05
-2.41101e-08
1.42339e-05
-2.33269e-08
1.42395e-05
-2.25366e-08
1.42448e-05
-2.17527e-08
1.42497e-05
-2.09914e-08
1.42543e-05
-2.02517e-08
-1.95379e-08
1.42585e-05
1.26067e-05
-5.89005e-09
1.26111e-05
-1.64202e-08
1.26173e-05
-2.39842e-08
1.26245e-05
-2.87943e-08
1.26321e-05
-3.16857e-08
1.26399e-05
-3.32857e-08
1.26476e-05
-3.38998e-08
1.26551e-05
-3.37852e-08
1.26623e-05
-3.31789e-08
1.2669e-05
-3.22748e-08
1.26753e-05
-3.11932e-08
1.26812e-05
-3.00316e-08
1.26867e-05
-2.88311e-08
1.26918e-05
-2.76511e-08
1.26966e-05
-2.64936e-08
1.2701e-05
-2.53926e-08
1.2705e-05
-2.4333e-08
-2.33303e-08
1.27088e-05
1.12317e-05
-7.83652e-09
1.12367e-05
-2.13931e-08
1.12433e-05
-3.05636e-08
1.12505e-05
-3.60412e-08
1.12581e-05
-3.92525e-08
1.12657e-05
-4.09074e-08
1.12731e-05
-4.13502e-08
1.12802e-05
-4.08958e-08
1.12869e-05
-3.98827e-08
1.12932e-05
-3.85463e-08
1.1299e-05
-3.70322e-08
1.13044e-05
-3.54334e-08
1.13094e-05
-3.38331e-08
1.1314e-05
-3.22593e-08
1.13182e-05
-3.07607e-08
1.13222e-05
-2.93263e-08
1.13258e-05
-2.79865e-08
-2.67089e-08
1.13292e-05
1.0007e-05
-1.02049e-08
1.00127e-05
-2.71376e-08
1.00197e-05
-3.75737e-08
1.00271e-05
-4.34312e-08
1.00346e-05
-4.67776e-08
1.0042e-05
-4.83735e-08
1.00492e-05
-4.8508e-08
1.00559e-05
-4.76367e-08
1.00622e-05
-4.61706e-08
1.0068e-05
-4.43616e-08
1.00733e-05
-4.23908e-08
1.00782e-05
-4.03601e-08
1.00827e-05
-3.83537e-08
1.00869e-05
-3.6419e-08
1.00907e-05
-3.45798e-08
1.00942e-05
-3.28567e-08
1.00975e-05
-3.12375e-08
-2.9731e-08
1.01005e-05
8.91615e-06
-1.32777e-08
8.92276e-06
-3.37096e-08
8.93014e-06
-4.49434e-08
8.93757e-06
-5.08492e-08
8.94503e-06
-5.42477e-08
8.9523e-06
-5.56566e-08
8.95915e-06
-5.53847e-08
8.9655e-06
-5.40026e-08
8.97135e-06
-5.20184e-08
8.9767e-06
-4.97353e-08
8.98161e-06
-4.73031e-08
8.98608e-06
-4.48516e-08
8.99017e-06
-4.24568e-08
8.99392e-06
-4.01754e-08
8.99736e-06
-3.80303e-08
9.00053e-06
-3.60314e-08
9.00345e-06
-3.41764e-08
-3.24478e-08
9.00618e-06
7.94476e-06
-1.73501e-08
7.95234e-06
-4.13159e-08
7.96002e-06
-5.2637e-08
7.96745e-06
-5.82814e-08
7.97481e-06
-6.16097e-08
7.98187e-06
-6.27276e-08
7.98842e-06
-6.19261e-08
7.99442e-06
-5.99984e-08
7.99991e-06
-5.7521e-08
8.00493e-06
-5.47538e-08
8.00951e-06
-5.18858e-08
8.01368e-06
-4.90281e-08
8.0175e-06
-4.62751e-08
8.02099e-06
-4.36703e-08
8.0242e-06
-4.12387e-08
8.02716e-06
-3.89906e-08
8.02989e-06
-3.69145e-08
-3.49778e-08
8.03241e-06
7.07994e-06
-2.29632e-08
7.08854e-06
-4.99111e-08
7.09652e-06
-6.0579e-08
7.10404e-06
-6.5789e-08
7.11142e-06
-6.89746e-08
7.11839e-06
-6.96862e-08
7.12481e-06
-6.83429e-08
7.13071e-06
-6.58988e-08
7.13616e-06
-6.29548e-08
7.14117e-06
-5.97581e-08
7.14576e-06
-5.64761e-08
7.14998e-06
-5.32361e-08
7.15383e-06
-5.01188e-08
7.15735e-06
-4.71863e-08
7.16056e-06
-4.44544e-08
7.16352e-06
-4.19378e-08
7.16623e-06
-3.96298e-08
-3.74911e-08
7.16874e-06
6.31062e-06
-3.10732e-08
6.32042e-06
-5.95914e-08
6.32925e-06
-6.9478e-08
6.33778e-06
-7.43051e-08
6.34605e-06
-7.72276e-08
6.3538e-06
-7.74147e-08
6.36101e-06
-7.55383e-08
6.36779e-06
-7.26585e-08
6.37412e-06
-6.92672e-08
6.37997e-06
-6.5598e-08
6.38532e-06
-6.1818e-08
6.39017e-06
-5.80693e-08
6.39451e-06
-5.4463e-08
6.39839e-06
-5.10418e-08
6.40182e-06
-4.78729e-08
6.40485e-06
-4.49705e-08
6.40754e-06
-4.23182e-08
-3.98913e-08
6.40994e-06
5.62921e-06
-4.53652e-08
5.64347e-06
-7.37612e-08
5.65697e-06
-8.29779e-08
5.6709e-06
-8.82284e-08
5.68456e-06
-9.08543e-08
5.6973e-06
-9.01423e-08
5.70889e-06
-8.71122e-08
5.71918e-06
-8.29216e-08
5.728e-06
-7.80531e-08
5.73529e-06
-7.28664e-08
5.74109e-06
-6.76132e-08
5.74551e-06
-6.24856e-08
5.74867e-06
-5.76174e-08
5.75073e-06
-5.30899e-08
5.75184e-06
-4.89728e-08
5.75215e-06
-4.52787e-08
5.75182e-06
-4.19812e-08
-3.93196e-08
5.75124e-06
5.04564e-06
-8.86815e-08
5.08679e-06
-1.14785e-07
5.11983e-06
-1.1602e-07
5.14529e-06
-1.13667e-07
5.16239e-06
-1.07932e-07
5.1714e-06
-9.91298e-08
5.17358e-06
-8.9274e-08
5.16983e-06
-7.91429e-08
5.16135e-06
-6.95311e-08
5.14932e-06
-6.08226e-08
5.13478e-06
-5.30578e-08
5.1185e-06
-4.62027e-08
5.10104e-06
-4.01489e-08
5.08282e-06
-3.48629e-08
5.06418e-06
-3.03159e-08
5.04549e-06
-2.6583e-08
5.02716e-06
-2.36545e-08
-2.17544e-08
5.0096e-06
4.36787e-06
4.25309e-06
4.13707e-06
4.02341e-06
3.91548e-06
3.81635e-06
3.72708e-06
3.64794e-06
3.57842e-06
3.51759e-06
3.46454e-06
3.41834e-06
3.37819e-06
3.34333e-06
3.31301e-06
3.28643e-06
3.26278e-06
3.24103e-06
-8.36552e-09
8.36571e-09
-2.265e-08
1.42814e-08
-3.8264e-08
1.56107e-08
-5.17668e-08
1.35038e-08
-5.80029e-08
6.22647e-09
-5.07862e-08
-7.20167e-09
-2.80178e-08
-2.27851e-08
7.97976e-09
-3.59749e-08
5.29746e-08
-4.50127e-08
1.02247e-07
-4.92555e-08
1.51211e-07
-4.8976e-08
1.9678e-07
-4.55594e-08
2.36863e-07
-4.00899e-08
2.70233e-07
-3.33641e-08
2.96145e-07
-2.59132e-08
3.1419e-07
-1.80445e-08
3.24089e-07
-9.89436e-09
3.255e-07
-1.41887e-09
3.18246e-07
7.25971e-09
3.02482e-07
1.57474e-08
2.78865e-07
2.36197e-08
2.48365e-07
3.04807e-08
2.12445e-07
3.59143e-08
1.72982e-07
3.94485e-08
1.32352e-07
4.06188e-08
9.32472e-08
3.90963e-08
5.83743e-08
3.48566e-08
2.99415e-08
2.84222e-08
9.00877e-09
2.09147e-08
-4.68455e-09
1.36701e-08
-1.20638e-08
7.36812e-09
-1.36496e-08
1.54099e-09
-9.09385e-09
-4.56276e-09
2.7806e-09
-1.19298e-08
2.37962e-08
-2.10229e-08
5.3841e-08
-3.00477e-08
8.88476e-08
-3.50091e-08
1.22486e-07
-3.35728e-08
1.49061e-07
-2.65713e-08
1.65543e-07
-1.63785e-08
1.71861e-07
-6.30561e-09
1.70977e-07
9.77672e-10
1.66222e-07
4.78643e-09
1.61305e-07
4.97366e-09
1.58656e-07
2.68069e-09
1.52996e-07
5.65422e-09
1.34823e-07
1.82566e-08
9.56999e-08
3.89876e-08
2.99159e-08
6.5939e-08
-6.02387e-08
9.00566e-08
-1.68734e-07
1.08581e-07
-2.92417e-07
1.23748e-07
-4.28229e-07
1.35849e-07
-5.72185e-07
1.44076e-07
-7.19383e-07
1.47226e-07
-8.6559e-07
1.4628e-07
-1.00832e-06
1.42728e-07
-1.14524e-06
1.36936e-07
-1.27408e-06
1.28831e-07
-1.394e-06
1.19911e-07
-1.50467e-06
1.10665e-07
-1.60591e-06
1.01224e-07
-1.69874e-06
9.28183e-08
-1.78403e-06
8.52767e-08
-1.86226e-06
7.82243e-08
-1.93423e-06
7.19525e-08
-2.00067e-06
6.6445e-08
-2.06228e-06
6.16009e-08
-2.11964e-06
5.73581e-08
-2.17326e-06
5.36157e-08
-2.22356e-06
5.03077e-08
-2.27092e-06
4.73501e-08
-2.3156e-06
4.46899e-08
-2.35787e-06
4.22657e-08
-2.3979e-06
4.00387e-08
-2.43586e-06
3.79676e-08
-2.47188e-06
3.60259e-08
-2.50606e-06
3.4187e-08
-2.53848e-06
3.24331e-08
-2.56922e-06
3.07478e-08
-2.59833e-06
2.91187e-08
-2.62585e-06
2.75362e-08
-2.65183e-06
2.59911e-08
-2.6763e-06
2.44784e-08
-2.69929e-06
2.2991e-08
-2.7208e-06
2.15258e-08
-2.74087e-06
2.00757e-08
-2.75949e-06
1.86372e-08
-2.77669e-06
1.7202e-08
-2.79245e-06
1.57662e-08
-2.80676e-06
1.43225e-08
-2.81961e-06
1.2866e-08
-2.83098e-06
1.13878e-08
-2.84084e-06
9.8795e-09
-2.84916e-06
8.33074e-09
-2.85587e-06
6.73149e-09
-2.86092e-06
5.07009e-09
-2.86425e-06
3.33575e-09
-2.86577e-06
1.54282e-09
-2.86555e-06
-2.04542e-10
-2.86381e-06
-1.73104e-09
-2.86071e-06
-3.07751e-09
-2.85631e-06
-4.38873e-09
-2.8506e-06
-5.68429e-09
-2.8436e-06
-6.98e-09
-2.83531e-06
-8.27379e-09
-2.82572e-06
-9.56948e-09
-2.81484e-06
-1.08617e-08
-2.80267e-06
-1.21541e-08
-2.78921e-06
-1.34398e-08
-2.77448e-06
-1.47233e-08
-2.75847e-06
-1.59965e-08
-2.74119e-06
-1.72652e-08
-2.72266e-06
-1.85204e-08
-2.7029e-06
-1.97686e-08
-2.6819e-06
-2.10003e-08
-2.65968e-06
-2.22225e-08
-2.63626e-06
-2.34259e-08
-2.61167e-06
-2.46178e-08
-2.58589e-06
-2.57894e-08
-2.55897e-06
-2.69474e-08
-2.53092e-06
-2.8084e-08
-2.50175e-06
-2.92049e-08
-2.47148e-06
-3.03037e-08
-2.44014e-06
-3.13848e-08
-2.40774e-06
-3.24437e-08
-2.37431e-06
-3.3483e-08
-2.33986e-06
-3.44983e-08
-2.30443e-06
-3.54878e-08
-2.26803e-06
-3.64481e-08
-2.2307e-06
-3.73851e-08
-2.19244e-06
-3.82956e-08
-2.15332e-06
-3.91706e-08
-2.11336e-06
-4.00058e-08
-2.07264e-06
-4.07816e-08
-2.03119e-06
-4.14941e-08
-1.98909e-06
-4.21359e-08
-1.94624e-06
-4.28885e-08
-1.90258e-06
-4.36923e-08
-1.85824e-06
-4.43944e-08
-1.81324e-06
-4.50591e-08
-1.76761e-06
-4.56908e-08
-1.72136e-06
-4.628e-08
-1.67456e-06
-4.68406e-08
-1.6272e-06
-4.73629e-08
-1.57933e-06
-4.78612e-08
-1.53096e-06
-4.83252e-08
-1.48213e-06
-4.87645e-08
-1.43286e-06
-4.91867e-08
-1.3832e-06
-4.9583e-08
-1.33316e-06
-4.99652e-08
-1.28278e-06
-5.03158e-08
-1.23208e-06
-5.06434e-08
-1.18108e-06
-5.0937e-08
-1.12982e-06
-5.12028e-08
-1.07833e-06
-5.14474e-08
-1.02662e-06
-5.1669e-08
-9.747e-07
-5.18771e-08
-9.22594e-07
-5.20733e-08
-8.70305e-07
-5.22616e-08
-8.17838e-07
-5.2445e-08
-7.65199e-07
-5.26225e-08
-7.12393e-07
-5.2794e-08
-6.59431e-07
-5.29557e-08
-6.0632e-07
-5.31093e-08
-5.53069e-07
-5.32537e-08
-4.99682e-07
-5.33945e-08
-4.4616e-07
-5.35325e-08
-3.92505e-07
-5.36715e-08
-3.38714e-07
-5.38078e-08
-2.84802e-07
-5.39355e-08
-2.30794e-07
-5.40313e-08
-1.76755e-07
-5.40687e-08
-1.22795e-07
-5.39894e-08
-6.91217e-08
-5.37082e-08
-1.61945e-08
-5.29595e-08
3.53738e-08
-5.16035e-08
8.38625e-08
-4.8518e-08
1.28454e-07
-4.46198e-08
-1.96464e-08
1.48079e-07
-3.52955e-09
1.18955e-08
-9.82509e-09
2.05686e-08
-1.2894e-08
1.86712e-08
-5.63676e-09
6.247e-09
1.70533e-08
-1.6476e-08
5.44417e-08
-4.45786e-08
1.02078e-07
-7.04306e-08
1.54462e-07
-8.83481e-08
2.06352e-07
-9.69098e-08
2.54416e-07
-9.73122e-08
2.97125e-07
-9.169e-08
3.33795e-07
-8.22254e-08
3.64298e-07
-7.05958e-08
3.88843e-07
-5.79084e-08
4.07757e-07
-4.48282e-08
4.2143e-07
-3.17189e-08
4.30288e-07
-1.87527e-08
4.34884e-07
-6.02077e-09
4.35627e-07
6.51572e-09
4.32396e-07
1.89684e-08
4.24721e-07
3.12917e-08
4.1196e-07
4.32275e-08
3.93549e-07
5.43173e-08
3.69106e-07
6.38776e-08
3.38666e-07
7.10467e-08
3.02851e-07
7.48981e-08
2.6304e-07
7.46513e-08
2.21482e-07
6.99641e-08
1.81278e-07
6.11004e-08
1.46114e-07
4.88075e-08
1.19551e-07
3.39127e-08
1.04056e-07
1.69832e-08
1.01051e-07
-1.57673e-09
1.10019e-07
-2.0945e-08
1.28781e-07
-3.97982e-08
1.51953e-07
-5.32162e-08
1.72264e-07
-5.53233e-08
1.84816e-07
-4.6067e-08
1.87873e-07
-2.96192e-08
1.81587e-07
-1.00024e-08
1.67182e-07
8.11747e-09
1.46706e-07
2.15596e-08
1.15366e-07
3.61079e-08
6.34e-08
5.70105e-08
-1.87245e-08
8.47842e-08
-1.32483e-07
1.19378e-07
-2.70052e-07
1.55812e-07
-4.21291e-07
1.90184e-07
-5.77294e-07
2.21947e-07
-7.35591e-07
2.48346e-07
-8.94212e-07
2.67224e-07
-1.04948e-06
2.79053e-07
-1.19772e-06
2.84125e-07
-1.33598e-06
2.82386e-07
-1.46274e-06
2.74012e-07
-1.5769e-06
2.60466e-07
-1.67805e-06
2.4388e-07
-1.76689e-06
2.25781e-07
-1.84529e-06
2.07224e-07
-1.91468e-06
1.89285e-07
-1.97649e-06
1.72465e-07
-2.03227e-06
1.56999e-07
-2.08287e-06
1.4341e-07
-2.12914e-06
1.31529e-07
-2.172e-06
1.2108e-07
-2.21201e-06
1.11959e-07
-2.24958e-06
1.04012e-07
-2.28504e-06
9.70551e-08
-2.31862e-06
9.09329e-08
-2.3505e-06
8.5496e-08
-2.38082e-06
8.06238e-08
-2.40967e-06
7.62081e-08
-2.43715e-06
7.21637e-08
-2.46329e-06
6.84166e-08
-2.48816e-06
6.49102e-08
-2.51178e-06
6.15961e-08
-2.53419e-06
5.8438e-08
-2.5554e-06
5.54051e-08
-2.57543e-06
5.24741e-08
-2.5943e-06
4.96258e-08
-2.61202e-06
4.68449e-08
-2.6286e-06
4.4119e-08
-2.64404e-06
4.14379e-08
-2.65835e-06
3.87934e-08
-2.67153e-06
3.61781e-08
-2.68358e-06
3.35858e-08
-2.69451e-06
3.10095e-08
-2.7043e-06
2.84431e-08
-2.71298e-06
2.58799e-08
-2.72052e-06
2.33134e-08
-2.72693e-06
2.07393e-08
-2.7322e-06
1.81533e-08
-2.73635e-06
1.55507e-08
-2.73939e-06
1.29292e-08
-2.74133e-06
1.0288e-08
-2.74222e-06
7.62997e-09
-2.7421e-06
4.96268e-09
-2.74106e-06
2.30313e-09
-2.73919e-06
-3.14931e-10
-2.73651e-06
-2.86734e-09
-2.73284e-06
-5.3944e-09
-2.72797e-06
-7.93845e-09
-2.72185e-06
-1.04882e-08
-2.71448e-06
-1.30409e-08
-2.70585e-06
-1.55975e-08
-2.69595e-06
-1.81571e-08
-2.68479e-06
-2.07174e-08
-2.67236e-06
-2.3276e-08
-2.65867e-06
-2.58304e-08
-2.64372e-06
-2.83771e-08
-2.62752e-06
-3.09141e-08
-2.61007e-06
-3.34373e-08
-2.59138e-06
-3.59452e-08
-2.57146e-06
-3.84334e-08
-2.55033e-06
-4.09009e-08
-2.52799e-06
-4.33428e-08
-2.50445e-06
-4.57594e-08
-2.47974e-06
-4.81455e-08
-2.45387e-06
-5.05024e-08
-2.42685e-06
-5.28252e-08
-2.39869e-06
-5.51156e-08
-2.36943e-06
-5.73688e-08
-2.33907e-06
-5.95866e-08
-2.30764e-06
-6.17641e-08
-2.27515e-06
-6.3903e-08
-2.24163e-06
-6.5999e-08
-2.2071e-06
-6.80529e-08
-2.17157e-06
-7.00596e-08
-2.13508e-06
-7.20171e-08
-2.09764e-06
-7.39201e-08
-2.05928e-06
-7.57708e-08
-2.02004e-06
-7.75677e-08
-1.97994e-06
-7.9307e-08
-1.93899e-06
-8.09822e-08
-1.89722e-06
-8.25903e-08
-1.85462e-06
-8.41264e-08
-1.81118e-06
-8.56048e-08
-1.76699e-06
-8.70976e-08
-1.72214e-06
-8.85716e-08
-1.67661e-06
-8.99604e-08
-1.63042e-06
-9.128e-08
-1.58362e-06
-9.25319e-08
-1.53621e-06
-9.37128e-08
-1.48824e-06
-9.48303e-08
-1.43972e-06
-9.58831e-08
-1.39069e-06
-9.6878e-08
-1.34117e-06
-9.78155e-08
-1.29119e-06
-9.86997e-08
-1.24078e-06
-9.95449e-08
-1.18997e-06
-1.00344e-07
-1.13878e-06
-1.01104e-07
-1.08725e-06
-1.01808e-07
-1.0354e-06
-1.02458e-07
-9.83252e-07
-1.03049e-07
-9.30841e-07
-1.03582e-07
-8.7819e-07
-1.0407e-07
-8.25319e-07
-1.04514e-07
-7.72247e-07
-1.04928e-07
-7.18983e-07
-1.05317e-07
-6.65539e-07
-1.05691e-07
-6.11918e-07
-1.06053e-07
-5.58127e-07
-1.06406e-07
-5.04171e-07
-1.06745e-07
-4.50058e-07
-1.07069e-07
-3.95794e-07
-1.07374e-07
-3.41388e-07
-1.07666e-07
-2.86843e-07
-1.07948e-07
-2.3216e-07
-1.08228e-07
-1.77338e-07
-1.08506e-07
-1.22379e-07
-1.08783e-07
-6.72904e-08
-1.09041e-07
-1.20964e-08
-1.09244e-07
4.31546e-08
-1.0934e-07
9.83693e-08
-1.09225e-07
1.53357e-07
-1.08718e-07
2.0787e-07
-1.07494e-07
2.61258e-07
-1.05013e-07
3.12936e-07
-1.00215e-07
3.59606e-07
-9.13074e-08
-6.40889e-08
4.04035e-07
4.68757e-10
1.14226e-08
4.16095e-09
1.68664e-08
1.8872e-08
3.95027e-09
5.25077e-08
-2.73877e-08
1.0368e-07
-6.76538e-08
1.62725e-07
-1.03618e-07
2.19631e-07
-1.27341e-07
2.68791e-07
-1.37502e-07
3.08512e-07
-1.36635e-07
3.39507e-07
-1.28304e-07
3.63365e-07
-1.15551e-07
3.81647e-07
-1.00506e-07
3.95536e-07
-8.44875e-08
4.05859e-07
-6.82322e-08
4.13153e-07
-5.21261e-08
4.17791e-07
-3.63596e-08
4.20053e-07
-2.1019e-08
4.2018e-07
-6.15295e-09
4.18469e-07
8.22209e-09
4.1528e-07
2.21489e-08
4.10887e-07
3.56777e-08
4.05314e-07
4.87884e-08
3.98284e-07
6.13384e-08
3.89165e-07
7.2981e-08
3.77088e-07
8.31117e-08
3.61115e-07
9.08529e-08
3.40642e-07
9.51088e-08
3.15838e-07
9.47475e-08
2.88021e-07
8.88982e-08
2.59638e-07
7.71658e-08
2.33778e-07
5.97502e-08
2.13256e-07
3.74693e-08
1.99808e-07
1.18422e-08
1.93199e-07
-1.43662e-08
1.88764e-07
-3.53822e-08
1.78946e-07
-4.33934e-08
1.59894e-07
-3.62772e-08
1.31814e-07
-1.79507e-08
9.54018e-08
6.78976e-09
4.8859e-08
3.66061e-08
-1.34845e-08
7.04625e-08
-9.84327e-08
1.06543e-07
-2.08206e-07
1.45878e-07
-3.39828e-07
1.8863e-07
-4.87374e-07
2.32321e-07
-6.41864e-07
2.73843e-07
-7.96593e-07
3.1053e-07
-9.46585e-07
3.40154e-07
-1.08644e-06
3.61799e-07
-1.21323e-06
3.75133e-07
-1.3261e-06
3.80115e-07
-1.42452e-06
3.77497e-07
-1.50866e-06
3.68294e-07
-1.5799e-06
3.53653e-07
-1.64074e-06
3.34872e-07
-1.69376e-06
3.13501e-07
-1.74095e-06
2.91076e-07
-1.78392e-06
2.68752e-07
-1.82404e-06
2.47333e-07
-1.86216e-06
2.27402e-07
-1.89891e-06
2.09202e-07
-1.93468e-06
1.92758e-07
-1.96945e-06
1.78178e-07
-2.00325e-06
1.65321e-07
-2.03614e-06
1.53965e-07
-2.06812e-06
1.4393e-07
-2.09915e-06
1.3504e-07
-2.12922e-06
1.27121e-07
-2.1583e-06
1.20015e-07
-2.18639e-06
1.1358e-07
-2.21346e-06
1.07697e-07
-2.23952e-06
1.02264e-07
-2.26455e-06
9.71956e-08
-2.28855e-06
9.24219e-08
-2.31152e-06
8.78856e-08
-2.33346e-06
8.35403e-08
-2.35437e-06
7.93492e-08
-2.37424e-06
7.52825e-08
-2.39308e-06
7.13167e-08
-2.41088e-06
6.74329e-08
-2.42764e-06
6.36158e-08
-2.44337e-06
5.9853e-08
-2.45806e-06
5.61341e-08
-2.47172e-06
5.24508e-08
-2.48433e-06
4.87955e-08
-2.4959e-06
4.51615e-08
-2.50643e-06
4.15421e-08
-2.51591e-06
3.79308e-08
-2.52435e-06
3.43208e-08
-2.53174e-06
3.07067e-08
-2.53807e-06
2.70837e-08
-2.54336e-06
2.3448e-08
-2.5476e-06
1.97978e-08
-2.55079e-06
1.61318e-08
-2.55294e-06
1.24515e-08
-2.55407e-06
8.76113e-09
-2.55416e-06
5.06707e-09
-2.55323e-06
1.379e-09
-2.55125e-06
-2.295e-09
-2.54814e-06
-5.96316e-09
-2.54387e-06
-9.6544e-09
-2.53842e-06
-1.33807e-08
-2.53177e-06
-1.71295e-08
-2.52391e-06
-2.08943e-08
-2.51482e-06
-2.46699e-08
-2.50452e-06
-2.84529e-08
-2.49298e-06
-3.2238e-08
-2.48023e-06
-3.60223e-08
-2.46625e-06
-3.97999e-08
-2.45105e-06
-4.35683e-08
-2.43463e-06
-4.73211e-08
-2.417e-06
-5.10561e-08
-2.39817e-06
-5.47671e-08
-2.37815e-06
-5.84518e-08
-2.35694e-06
-6.21041e-08
-2.33456e-06
-6.57218e-08
-2.31102e-06
-6.92995e-08
-2.28634e-06
-7.28357e-08
-2.26052e-06
-7.6326e-08
-2.23359e-06
-7.97694e-08
-2.20555e-06
-8.31625e-08
-2.17643e-06
-8.6504e-08
-2.14624e-06
-8.97909e-08
-2.115e-06
-9.30214e-08
-2.08273e-06
-9.61925e-08
-2.04945e-06
-9.93022e-08
-2.01518e-06
-1.02348e-07
-1.97994e-06
-1.05325e-07
-1.94375e-06
-1.0823e-07
-1.90664e-06
-1.11058e-07
-1.86863e-06
-1.13808e-07
-1.82974e-06
-1.1648e-07
-1.79e-06
-1.1907e-07
-1.74943e-06
-1.21574e-07
-1.70806e-06
-1.23992e-07
-1.66588e-06
-1.26323e-07
-1.62293e-06
-1.28578e-07
-1.57926e-06
-1.30786e-07
-1.53492e-06
-1.32931e-07
-1.48993e-06
-1.34983e-07
-1.4443e-06
-1.36941e-07
-1.39805e-06
-1.38802e-07
-1.35122e-06
-1.40566e-07
-1.30383e-06
-1.42236e-07
-1.2559e-06
-1.43814e-07
-1.20747e-06
-1.45304e-07
-1.15856e-06
-1.46712e-07
-1.10919e-06
-1.4804e-07
-1.05941e-06
-1.49303e-07
-1.00923e-06
-1.50502e-07
-9.58676e-07
-1.51634e-07
-9.07779e-07
-1.52689e-07
-8.56564e-07
-1.53658e-07
-8.05057e-07
-1.54544e-07
-7.53285e-07
-1.55341e-07
-7.01275e-07
-1.5607e-07
-6.49046e-07
-1.56734e-07
-5.96616e-07
-1.5735e-07
-5.43997e-07
-1.57929e-07
-4.912e-07
-1.58483e-07
-4.3823e-07
-1.59018e-07
-3.85092e-07
-1.59539e-07
-3.31793e-07
-1.60041e-07
-2.78339e-07
-1.60519e-07
-2.24737e-07
-1.60973e-07
-1.70993e-07
-1.61407e-07
-1.1711e-07
-1.61828e-07
-6.3088e-08
-1.62246e-07
-8.92498e-09
-1.62667e-07
4.538e-08
-1.63085e-07
9.98175e-08
-1.63477e-07
1.54371e-07
-1.63795e-07
2.08992e-07
-1.6396e-07
2.63599e-07
-1.6383e-07
3.18058e-07
-1.63177e-07
3.72166e-07
-1.61601e-07
4.25567e-07
-1.58414e-07
4.77839e-07
-1.52488e-07
5.28047e-07
-1.41517e-07
-1.15698e-07
5.79657e-07
-1.64087e-10
1.1577e-08
1.29901e-08
3.70337e-09
5.32098e-08
-3.62798e-08
1.15912e-07
-9.00886e-08
1.83574e-07
-1.35321e-07
2.41837e-07
-1.61877e-07
2.85017e-07
-1.70526e-07
3.14059e-07
-1.6654e-07
3.32594e-07
-1.55174e-07
3.44344e-07
-1.40051e-07
3.51998e-07
-1.2321e-07
3.57179e-07
-1.05687e-07
3.6069e-07
-8.8003e-08
3.62887e-07
-7.04302e-08
3.63879e-07
-5.31238e-08
3.63704e-07
-3.6188e-08
3.62376e-07
-1.96987e-08
3.5994e-07
-3.72262e-09
3.56466e-07
1.16868e-08
3.52106e-07
2.64998e-08
3.47082e-07
4.06914e-08
3.41633e-07
5.42242e-08
3.35934e-07
6.70248e-08
3.29978e-07
7.89205e-08
3.235e-07
8.95758e-08
3.15935e-07
9.83958e-08
3.06531e-07
1.04496e-07
2.94535e-07
1.06715e-07
2.79608e-07
1.03804e-07
2.61957e-07
9.47779e-08
2.42647e-07
7.90347e-08
2.23055e-07
5.70104e-08
2.03706e-07
3.11617e-08
1.80784e-07
8.5228e-09
1.47146e-07
-1.76078e-09
1.00346e-07
3.40987e-09
4.17725e-08
2.22886e-08
-2.93526e-08
5.32001e-08
-1.15952e-07
9.33891e-08
-2.19038e-07
1.39711e-07
-3.37631e-07
1.89057e-07
-4.69739e-07
2.38656e-07
-6.10541e-07
2.86677e-07
-7.53519e-07
3.31602e-07
-8.92551e-07
3.71348e-07
-1.02205e-06
4.0333e-07
-1.13789e-06
4.26359e-07
-1.23843e-06
4.40683e-07
-1.32319e-06
4.46563e-07
-1.39289e-06
4.44837e-07
-1.44941e-06
4.36648e-07
-1.49507e-06
4.23175e-07
-1.53244e-06
4.05676e-07
-1.56408e-06
3.85322e-07
-1.59242e-06
3.6322e-07
-1.6193e-06
3.40398e-07
-1.64595e-06
3.17724e-07
-1.67301e-06
2.9582e-07
-1.70081e-06
2.75122e-07
-1.72933e-06
2.55922e-07
-1.75846e-06
2.38331e-07
-1.78805e-06
2.22334e-07
-1.8178e-06
2.07922e-07
-1.84747e-06
1.94989e-07
-1.87689e-06
1.83377e-07
-1.90589e-06
1.72932e-07
-1.93436e-06
1.63501e-07
-1.96218e-06
1.54939e-07
-1.98927e-06
1.47109e-07
-2.01558e-06
1.39889e-07
-2.04106e-06
1.33174e-07
-2.06567e-06
1.26872e-07
-2.08938e-06
1.20906e-07
-2.11217e-06
1.15213e-07
-2.13402e-06
1.0974e-07
-2.15492e-06
1.04445e-07
-2.17486e-06
9.92922e-08
-2.19383e-06
9.42558e-08
-2.21182e-06
8.93135e-08
-2.22883e-06
8.44478e-08
-2.24485e-06
7.96446e-08
-2.25989e-06
7.48922e-08
-2.27393e-06
7.01809e-08
-2.28698e-06
6.55026e-08
-2.29903e-06
6.085e-08
-2.31008e-06
5.62165e-08
-2.32013e-06
5.15955e-08
-2.32917e-06
4.69801e-08
-2.33721e-06
4.23639e-08
-2.34425e-06
3.77397e-08
-2.35026e-06
3.31036e-08
-2.35526e-06
2.84507e-08
-2.35923e-06
2.37789e-08
-2.36218e-06
1.90861e-08
-2.36409e-06
1.43725e-08
-2.36496e-06
9.64008e-09
-2.36478e-06
4.89116e-09
-2.36353e-06
1.28976e-10
-2.36117e-06
-4.64772e-09
-2.35768e-06
-9.44791e-09
-2.35304e-06
-1.42867e-08
-2.34725e-06
-1.91665e-08
-2.34029e-06
-2.40788e-08
-2.33216e-06
-2.90151e-08
-2.32285e-06
-3.39689e-08
-2.31236e-06
-3.89337e-08
-2.30069e-06
-4.39032e-08
-2.28783e-06
-4.88721e-08
-2.27378e-06
-5.38333e-08
-2.25856e-06
-5.87828e-08
-2.24216e-06
-6.37129e-08
-2.22459e-06
-6.86203e-08
-2.20585e-06
-7.3497e-08
-2.18596e-06
-7.83401e-08
-2.16492e-06
-8.31412e-08
-2.14274e-06
-8.78982e-08
-2.11944e-06
-9.26025e-08
-2.09503e-06
-9.72536e-08
-2.06951e-06