/*--------------------------------*- C++ -*----------------------------------*\
  =========                 |
  \\      /  F ield         | OpenFOAM: The Open Source CFD Toolbox
   \\    /   O peration     | Website:  https://openfoam.org
    \\  /    A nd           | Version:  8
     \\/     M anipulation  |
\*---------------------------------------------------------------------------*/
FoamFile
{
    version     2.0;
    format      ascii;
    class       volVectorField;
    location    "2000";
    object      wallShearStress;
}
// * * * * * * * * * * * * * * * * * * * * * * * * * * * * * * * * * * * * * //

dimensions      [0 2 -2 0 0 0 0];

internalField   uniform (0 0 0);

boundaryField
{
    inlet
    {
        type            calculated;
        value           uniform (0 0 0);
    }
    outlet
    {
        type            calculated;
        value           uniform (0 0 0);
    }
    upperWall
    {
        type            calculated;
        value           nonuniform List<vector> 
223
(
(-0.444943 0.00293929 0)
(-0.486343 0.00577594 0)
(-0.505275 0.00720098 0)
(-0.506733 0.00781281 0)
(-0.50022 0.00784929 0)
(-0.487718 0.00744709 0)
(-0.474434 0.0068619 0)
(-0.460692 0.00615867 0)
(-0.447102 0.00542734 0)
(-0.43462 0.00473694 0)
(-0.423404 0.00410842 0)
(-0.413453 0.00354529 0)
(-0.404696 0.00304081 0)
(-0.397017 0.00259416 0)
(-0.390307 0.00220103 0)
(-0.384443 0.00187137 0)
(-0.379271 0.00160868 0)
(-0.374733 0.00144476 0)
(-0.371242 0.00134398 0)
(-0.368481 0.00128484 5.85912e-22)
(-0.36581 0.00120872 0)
(-0.363227 0.00112554 0)
(-0.360723 0.00104176 0)
(-0.3583 0.000959909 5.97073e-22)
(-0.355957 0.000881822 0)
(-0.353694 0.000807608 0)
(-0.35151 0.000737804 0)
(-0.349403 0.00067203 -1.21366e-21)
(-0.347373 0.000610254 1.21826e-21)
(-0.345418 0.000552375 1.22278e-21)
(-0.343537 0.000498431 0)
(-0.341729 0.000448463 -1.23161e-21)
(-0.339991 0.000402153 0)
(-0.338321 0.000359397 1.24024e-21)
(-0.336716 0.000319914 1.2445e-21)
(-0.335175 0.000283512 -1.24873e-21)
(-0.333694 0.00025001 0)
(-0.332273 0.000219099 0)
(-0.330909 0.000190757 0)
(-0.3296 0.000164943 0)
(-0.328343 0.000141553 -1.26977e-21)
(-0.327138 0.000120435 0)
(-0.325979 0.00010144 0)
(-0.324868 8.45418e-05 1.28245e-21)
(-0.323799 6.97115e-05 0)
(-0.322772 5.68154e-05 1.291e-21)
(-0.321783 4.57291e-05 -1.29531e-21)
(-0.320831 3.65326e-05 1.29966e-21)
(-0.319913 2.92313e-05 0)
(-0.319026 2.36901e-05 0)
(-0.318167 1.99356e-05 0)
(-0.317334 1.78877e-05 1.31738e-21)
(-0.316525 1.73655e-05 -1.32191e-21)
(-0.315735 1.82728e-05 0)
(-0.314966 2.0487e-05 0)
(-0.31421 2.39666e-05 0)
(-0.313472 2.84843e-05 0)
(-0.312739 3.39732e-05 0)
(-0.312025 4.02936e-05 0)
(-0.311307 4.74742e-05 0)
(-0.310611 5.53057e-05 0)
(-0.309897 6.3897e-05 1.36434e-21)
(-0.309215 7.27836e-05 -1.36925e-21)
(-0.308497 8.28677e-05 0)
(-0.307797 9.18056e-05 0)
(-0.307038 0.000106253 0)
(-0.30638 0.000110253 -1.38815e-21)
(-0.305607 0.000141621 0)
(-0.305191 0.000118034 0)
(-0.339485 0.000259817 0)
(-0.329498 4.78462e-05 0)
(-0.343183 0.000640851 0)
(-0.33355 0.00112863 -3.11027e-21)
(-0.329462 0.000429133 0)
(-0.320491 0.000193115 0)
(-0.3158 0.000173463 0)
(-0.307038 0.000297996 0)
(-0.304765 0.000314392 0)
(-0.302182 0.000235431 0)
(-0.300493 0.000105667 0)
(-0.299855 1.80497e-05 3.00858e-21)
(-0.299709 5.02614e-05 0)
(-0.336614 5.79942e-05 0)
(-0.323335 1.71824e-05 0)
(-0.31841 3.24173e-06 -3.25086e-21)
(-0.377591 0.000373416 0)
(-0.352141 0.000546491 -3.59949e-21)
(-0.333492 0.000853735 0)
(-0.320722 0.000787495 0)
(-0.31023 0.00051886 0)
(-0.309659 0.000623446 -3.24887e-21)
(-0.297336 0.000333447 0)
(-0.297164 0.000166004 3.14515e-21)
(-0.297002 -4.94318e-05 3.146e-21)
(-0.324564 0.000301382 0)
(-0.312097 0.000531361 3.29933e-21)
(-0.302662 0.000398355 0)
(-0.296687 0.000349164 0)
(-0.333234 0.000305496 0)
(-0.315266 0.000234273 -3.39343e-21)
(-0.322508 -3.14032e-05 0)
(-0.341638 -2.02946e-05 -3.69324e-21)
(-0.323436 5.22883e-05 3.49566e-21)
(-0.374819 0.000419423 0)
(-0.343073 0.00142994 0)
(-0.308849 0.00151848 0)
(-0.291858 0.000522302 0)
(-0.358376 0.00117547 0)
(-0.327322 0.00147759 0)
(-0.306136 0.000973113 0)
(-0.292875 0.000651786 -3.12141e-21)
(-0.288547 -8.51777e-05 0)
(-0.310154 -0.000396815 0)
(-0.353483 0.000737499 0)
(-0.319177 0.00106272 0)
(-0.306169 0.000419077 0)
(-0.285389 0.00104462 0)
(-0.284355 0.000986846 0)
(-0.283677 0.00031241 0)
(-0.28282 0.000930624 0)
(-0.281614 0.00148362 0)
(-0.280284 0.000789818 0)
(-0.27941 -9.76276e-05 0)
(-0.278946 -0.000424034 -5.74887e-21)
(-0.27851 -0.000541379 0)
(-0.277366 -0.000498501 0)
(-0.309485 -0.000131804 0)
(-0.321165 0.000151125 6.30668e-21)
(-0.313985 9.24988e-05 0)
(-0.291425 0.000262746 0)
(-0.310185 0.000595285 5.84427e-21)
(-0.29586 0.000657215 0)
(-0.280748 0.000680855 -5.08502e-21)
(-0.30124 0.00150589 0)
(-0.265713 0.00137787 0)
(-0.293674 0.00147341 0)
(-0.262875 0.00115879 4.16852e-21)
(-0.291169 0.00110735 0)
(-0.260746 0.000873467 -3.81039e-21)
(-0.286714 0.000837063 0)
(-0.258408 0.000703845 0)
(-0.280367 0.000687392 0)
(-0.255822 0.000625434 0)
(-0.272719 0.000618516 0)
(-0.252991 0.000599906 0)
(-0.264196 0.000592108 0)
(-0.249928 0.000598984 0)
(-0.255082 0.000584361 0)
(-0.246641 0.000624472 0)
(-0.245587 0.000507158 0)
(-0.270194 0.000580579 -1.26585e-21)
(-0.26469 8.68982e-05 9.30533e-22)
(-0.240778 0.000885378 0)
(-0.237638 0.00116119 0)
(-0.235251 0.000821693 0)
(-0.261501 0.00164784 0)
(-0.232238 0.0017386 -7.45101e-22)
(-0.23076 0.000785191 1.09373e-21)
(-0.228041 0.000322766 -1.49562e-21)
(-0.235387 0.000314116 0)
(-0.235203 0.00114834 -2.34688e-21)
(-0.222651 0.00110446 -5.11027e-21)
(-0.219199 0.000163262 0)
(-0.217636 0.000701528 -6.98549e-21)
(-0.243939 0.00188644 8.78506e-21)
(-0.214851 0.00153349 0)
(-0.212832 0.000434795 0)
(-0.223714 -0.000220091 0)
(-0.206324 -0.000448201 0)
(-0.203655 -6.29153e-06 0)
(-0.200275 0.00125552 -1.40201e-20)
(-0.200637 0.000816519 0)
(-0.196796 0.000119717 -1.65163e-20)
(-0.196169 0.00144312 0)
(-0.196317 0.0012973 0)
(-0.192038 0.000856807 0)
(-0.188824 0.000966083 0)
(-0.186946 0.00123643 0)
(-0.185595 0.00145854 2.32406e-20)
(-0.184907 0.00152543 0)
(-0.183941 0.000780786 0)
(-0.180096 1.43497e-05 -2.78323e-20)
(-0.175573 0.000250574 0)
(-0.173015 0.000780851 0)
(-0.171312 0.000825332 0)
(-0.168512 0.000491056 3.45268e-20)
(-0.163562 0.000118607 0)
(-0.156254 8.13554e-05 0)
(-0.146978 0.000378858 0)
(-0.135907 0.000803917 0)
(-0.123659 0.0012529 -5.88351e-20)
(-0.111052 0.00153038 0)
(-0.099461 0.00156701 0)
(-0.088842 0.00145018 0)
(-0.080122 0.0013133 9.38639e-20)
(-0.0701123 0.00130558 0)
(-0.0650702 0.00178798 0)
(-0.0362378 0.0015072 -1.3808e-19)
(-0.0683439 0.000521451 0)
(-0.102408 0.00582536 1.1839e-17)
(-0.125798 0.0102422 2.12285e-17)
(-0.138197 0.0128346 1.99476e-17)
(-0.145531 0.0142535 1.91719e-17)
(-0.151049 0.0151265 1.85503e-17)
(-0.155398 0.0157425 -1.80257e-17)
(-0.158523 0.0161831 -1.75451e-17)
(-0.160919 0.0164886 -6.01853e-36)
(-0.163094 0.0167261 -3.34875e-17)
(-0.165209 0.016937 -1.63637e-17)
(-0.167389 0.0171363 4.87501e-34)
(-0.169829 0.017345 0)
(-0.172736 0.0175852 -3.01172e-17)
(-0.176217 0.0178782 -2.89884e-17)
(-0.180367 0.0182319 -2.76854e-17)
(-0.185229 0.0186563 -2.40741e-35)
(-0.190837 0.0191506 4.88828e-17)
(-0.197328 0.01973 2.24381e-17)
(-0.204518 0.0203799 3.61112e-35)
(-0.213198 0.0211582 -3.50386e-17)
(-0.22147 0.021937 -1.23392e-20)
(-0.235046 0.0230967 -3.00927e-36)
(-0.239275 0.0238189 1.31922e-17)
(-0.265048 0.0253805 -7.11644e-18)
)
;
    }
    lowerWall
    {
        type            calculated;
        value           nonuniform List<vector> 
250
(
(-0.623669 -0.00579839 0)
(-0.594707 -0.00943398 0)
(-0.658443 -0.0112769 0)
(-0.636518 -0.0103533 0)
(-0.707105 -0.0106421 0)
(-0.677647 -0.0102781 0)
(-0.59186 -0.00927648 0)
(-0.4804 -0.00640985 0)
(-0.463438 -0.00544361 0)
(-0.46749 -0.00557428 0)
(-0.446793 -0.0038122 0)
(-0.440977 -0.00302124 0)
(-0.438316 -0.00344582 0)
(-0.430078 -0.00255188 0)
(-0.426387 -0.000678517 0)
(-0.423984 0.00120675 0)
(-0.436255 0.00230091 0)
(-0.509926 0.00242497 0)
(0.00214182 0.000192054 0)
(0.00238215 -0.00265906 0)
(0.00264552 -0.00560966 0)
(0.00294925 -0.00872514 1.13263e-19)
(0.00321592 -0.0117392 -9.47626e-20)
(0.00339128 -0.0151903 8.20537e-20)
(0.00336127 -0.0146798 -7.2264e-20)
(0.0106204 -0.0335418 0)
(-0.0431735 -0.111513 0)
(0.000224023 -0.000279708 0)
(5.59289e-05 -0.000800439 0)
(-1.1197e-05 -0.000884981 0)
(5.56672e-05 -0.00088268 0)
(3.61546e-05 -0.000858377 1.5359e-19)
(-0.000137951 -0.000303164 -1.50009e-19)
(-0.00057563 0.001123 0)
(-0.00117934 0.00382366 -1.72324e-19)
(-0.00156435 0.00728174 1.31556e-19)
(-0.0015122 0.0105516 0)
(-0.00111727 0.0129637 0)
(-0.000580241 0.0142274 0)
(-6.58991e-05 0.0143186 0)
(0.000341526 0.0134347 0)
(0.000680951 0.0118597 0)
(0.00101343 0.00964144 0)
(0.00137811 0.00681892 0)
(0.00178861 0.00344273 0)
(-0.000145354 -0.000281394 0)
(0.000171776 -0.000452931 0)
(0.000485428 -0.00050553 0)
(0.000811574 -0.000435779 0)
(0.00107266 -0.000200496 -0)
(0.00112348 0.000189801 -0)
(0.000878065 0.000657268 1.42268e-20)
(0.000366442 0.00109658 -1.63321e-20)
(-0.000345329 0.00141764 0)
(-0.00116256 0.00157894 -9.40862e-21)
(-0.00200589 0.00159381 0)
(-0.00281029 0.00149234 0)
(-0.00352987 0.00131105 0)
(-0.00413925 0.00108094 4.5921e-21)
(-0.00462686 0.000823073 0)
(-0.00498831 0.000549322 0)
(-0.00522102 0.000268079 -3.98026e-21)
(-0.00532947 -2.66184e-05 -0)
(-0.00528843 -0.000332223 0)
(-0.00509632 -0.00062715 -0)
(-0.00476208 -0.000890991 4.29175e-21)
(-0.00429776 -0.00110304 -0)
(-0.0037217 -0.00124162 5.09836e-21)
(-0.00306204 -0.00128668 0)
(-0.00235755 -0.00122319 -0)
(-0.00165912 -0.00104782 8.36708e-21)
(-0.00102662 -0.000777661 0)
(-0.000519753 -0.000461282 -1.40585e-20)
(-0.000170072 -0.000177136 0)
(4.69059e-05 1.05444e-05 2.37022e-20)
(0.000185567 0.00011718 0)
(0.000265464 0.000207649 0)
(0.000254254 0.000319613 0)
(0.000140528 0.000475244 0)
(-0.000115705 0.000686669 0)
(-0.000541021 0.000905081 -1.48e-20)
(-0.00111409 0.00105023 0)
(-0.0017407 0.0010453 1.74001e-20)
(-0.00229858 0.000883761 0)
(-0.002691 0.000617485 -1.38352e-20)
(-0.00288009 0.000333186 0)
(-0.00289445 0.000104106 0)
(-0.0027905 -2.43662e-05 1.36668e-20)
(-0.00264228 -2.69142e-05 0)
(-0.00252144 9.46681e-05 1.42549e-20)
(-0.00244264 0.000286011 -1.44029e-20)
(-0.00235503 0.000406536 0)
(-0.00212381 0.000220905 -1.5702e-20)
(-0.00149024 -0.000431653 -1.83064e-20)
(-0.000162723 -0.00111573 0)
(0.00160512 -0.0016922 0)
(0.00348531 -0.00235572 0)
(0.0056433 -0.00307004 0)
(0.00804905 -0.0036388 -0)
(0.0105968 -0.00391467 3.36044e-21)
(0.0131421 -0.00395138 0)
(0.0156055 -0.00387858 -2.68654e-21)
(0.0179944 -0.00373034 -0)
(0.0202649 -0.0034783 -0)
(0.0228203 -0.00326912 2.17762e-21)
(0.0258068 -0.00310269 0)
(0.0261221 -0.00262923 -1.91864e-21)
(0.029277 -0.00252656 -0)
(0.0309559 -0.00232717 0)
(0.0333199 -0.00217892 -0)
(0.035271 -0.0020216 1.82146e-21)
(0.0372343 -0.00188765 0)
(0.0390973 -0.00176674 -0)
(0.0408801 -0.00165953 1.7753e-21)
(0.0426146 -0.00156455 0)
(0.0442767 -0.00147956 1.75427e-21)
(0.0458991 -0.00140342 0)
(0.0474655 -0.00133436 0)
(0.0489948 -0.00127119 0)
(0.0504793 -0.00121279 -1.72309e-21)
(0.0519283 -0.00115812 -0)
(0.0533386 -0.00110652 0)
(0.0547144 -0.00105739 -1.70302e-21)
(0.0560549 -0.00101017 -1.69632e-21)
(0.057361 -0.000964472 -0)
(0.0586328 -0.000920002 -1.68248e-21)
(0.0598701 -0.000876497 0)
(0.061073 -0.00083376 -3.33532e-21)
(0.0622408 -0.000791589 -0)
(0.0633734 -0.000749845 -3.30297e-21)
(0.0644699 -0.00070831 -0)
(0.0655296 -0.000666878 3.26727e-21)
(0.0665519 -0.000625396 0)
(0.0675357 -0.000583587 0)
(0.0684796 -0.000541246 0)
(0.069382 -0.000498166 -3.18347e-21)
(0.0702418 -0.000454159 -0)
(0.0710569 -0.000408774 3.13443e-21)
(0.0718251 -0.000361757 0)
(0.0725441 -0.000312819 -3.08018e-21)
(0.0732117 -0.000261634 -3.05105e-21)
(0.0738248 -0.000208196 -3.02059e-21)
(0.0743811 -0.000153322 -0)
(0.0748799 -9.88991e-05 0)
(0.075321 -4.87631e-05 0)
(0.0757101 -7.31782e-06 0)
(0.0760523 2.89601e-05 0)
(0.0763487 6.4772e-05 0)
(0.0765986 9.99849e-05 0)
(0.0768014 0.000135038 0)
(0.0769571 0.000169876 2.6754e-21)
(0.0770649 0.000204577 2.62732e-21)
(0.0771244 0.00023904 0)
(0.0771353 0.000273261 0)
(0.0770972 0.00030707 0)
(0.0770104 0.000340611 2.41327e-21)
(0.0768738 0.00037365 0)
(0.0766885 0.00040628 0)
(0.0764535 0.00043837 0)
(0.0761696 0.000469915 0)
(0.0758369 0.000500816 -2.09439e-21)
(0.0754557 0.000531204 0)
(0.0750261 0.000560824 0)
(0.0745491 0.000589893 1.87439e-21)
(0.0740244 0.000618165 -1.79613e-21)
(0.0734534 0.000645774 0)
(0.0728361 0.000672616 -1.63204e-21)
(0.0721736 0.000698806 0)
(0.0714659 0.000724193 1.45764e-21)
(0.0707145 0.000748842 0)
(0.0699198 0.000772794 0)
(0.0690822 0.000796027 0)
(0.0682049 0.000818373 0)
(0.0672918 0.000839851 0)
(0.0663303 0.000860047 -1.73909e-21)
(0.0653459 0.000879801 -1.52336e-21)
(0.0643026 0.000898125 0)
(0.063243 0.000914754 0)
(0.0621404 0.000928384 0)
(0.0610129 0.000936331 5.97645e-22)
(0.0598556 0.000935643 0)
(0.0586702 0.000927494 0)
(0.0574525 0.000931254 0)
(0.0562046 0.000946216 -4.35172e-22)
(0.0549263 0.000957514 7.12802e-22)
(0.0536227 0.000968156 0)
(0.0522948 0.000977874 0)
(0.0509439 0.000986716 1.59806e-21)
(0.0495718 0.000994895 1.91199e-21)
(0.0481795 0.00100228 0)
(0.0467691 0.00100924 0)
(0.045341 0.00101557 -2.91773e-21)
(0.0438981 0.00102152 3.27645e-21)
(0.0424416 0.00102719 0)
(0.04097 0.00103228 0)
(0.0394895 0.00103728 4.43265e-21)
(0.0379949 0.00104157 0)
(0.0364947 0.00104578 0)
(0.0349819 0.00104916 5.72924e-21)
(0.0334663 0.00105249 0)
(0.0319422 0.00105552 6.68706e-21)
(0.0304155 0.00105844 0)
(0.0288846 0.00106141 0)
(0.0273513 0.00106449 0)
(0.0258157 0.00106779 -8.88666e-21)
(0.0242784 0.00107138 0)
(0.0227395 0.00107526 0)
(0.0211994 0.00107944 0)
(0.0196583 0.00108391 0)
(0.0181167 0.00108872 0)
(0.0165748 0.00109394 0)
(0.015033 0.00109972 -1.41125e-20)
(0.0134912 0.00110616 -1.50739e-20)
(0.0119496 0.00111337 0)
(0.0104078 0.00112136 0)
(0.00886582 0.00113002 0)
(0.007324 0.00113911 1.9785e-20)
(0.00578315 0.0011489 0)
(0.00424494 0.00115818 -4.5728e-20)
(0.00271358 0.00116388 4.93125e-20)
(0.00119881 0.00116087 5.33068e-20)
(-0.000297011 0.00112421 -5.52204e-20)
(-0.00167911 0.00105258 5.3838e-20)
(-0.00320745 0.000884213 -5.19032e-20)
(-0.00354274 0.000492226 0)
(-0.00552337 0.00108372 -3.09695e-18)
(-0.00864149 0.000854686 -2.80884e-18)
(-0.0117326 0.000505626 0)
(-0.0149081 0.000179032 -4.78358e-18)
(-0.0182883 -0.000162082 -8.90022e-18)
(-0.0218805 -0.000521363 -4.15466e-18)
(-0.0256951 -0.000900165 3.88862e-18)
(-0.0297543 -0.00130249 -1.80556e-35)
(-0.0340842 -0.00173173 6.01853e-36)
(-0.0387017 -0.00219173 3.21949e-18)
(-0.0436261 -0.00268089 3.02764e-18)
(-0.0488729 -0.00316652 3.00927e-36)
(-0.0544563 -0.00368262 0)
(-0.0604334 -0.00427699 0)
(-0.0668614 -0.00493213 -3.14092e-35)
(-0.0737438 -0.00564057 -2.3745e-35)
(-0.0812286 -0.00640422 8.72687e-35)
(-0.089176 -0.00722828 -3.75261e-18)
(-0.0981545 -0.0081236 -3.41869e-18)
(-0.10722 -0.00909161 6.01853e-36)
(-0.118812 -0.0101601 5.37978e-18)
(-0.128311 -0.0113232 8.92329e-18)
(-0.145851 -0.0125659 1.20371e-35)
(-0.153089 -0.0140618 -4.30047e-18)
(-0.18792 -0.0164181 -3.61112e-35)
)
;
    }
    frontAndBack
    {
        type            empty;
    }
}


// ************************************************************************* //
