/*--------------------------------*- C++ -*----------------------------------*\
  =========                 |
  \\      /  F ield         | OpenFOAM: The Open Source CFD Toolbox
   \\    /   O peration     | Website:  https://openfoam.org
    \\  /    A nd           | Version:  8
     \\/     M anipulation  |
\*---------------------------------------------------------------------------*/
FoamFile
{
    version     2.0;
    format      ascii;
    class       volScalarField;
    location    "1600";
    object      k;
}
// * * * * * * * * * * * * * * * * * * * * * * * * * * * * * * * * * * * * * //

dimensions      [0 2 -2 0 0 0 0];

internalField   nonuniform List<scalar> 
12225
(
0.70542
1.34793
1.5758
1.64503
1.45553
2.42039
3.30635
2.4756
2.71208
2.20572
1.95343
1.59854
1.35655
2.5059
2.0085
1.68458
2.20995
2.74474
0.371577
0.400944
0.405469
0.419676
0.44314
0.543052
0.638555
0.684198
0.713483
0.750974
0.783793
0.811654
0.805942
0.837109
0.853883
0.865185
0.872274
0.905575
0.37356
0.326934
0.289451
0.277096
0.27787
0.291566
0.305932
0.328058
0.328135
0.331887
0.33733
0.342961
0.345627
0.350003
0.355435
0.356345
0.357617
0.363152
0.381393
0.355581
0.330594
0.320758
0.315007
0.310725
0.314396
0.329707
0.325276
0.331725
0.334648
0.333242
0.330195
0.326733
0.323289
0.320403
0.317324
0.315565
0.375558
0.367819
0.356493
0.353435
0.343481
0.346716
0.339952
0.342135
0.344535
0.345809
0.345304
0.343317
0.340962
0.338255
0.335752
0.333218
0.330923
0.328578
0.373994
0.370929
0.365158
0.362245
0.358698
0.357809
0.355874
0.354748
0.353733
0.352501
0.351074
0.349239
0.347413
0.345427
0.343618
0.34171
0.339999
0.338135
0.373884
0.371515
0.368306
0.365753
0.363375
0.361716
0.360045
0.358498
0.356979
0.355413
0.353878
0.352247
0.350696
0.3491
0.347627
0.346107
0.34471
0.343229
0.373889
0.371587
0.369138
0.366869
0.364773
0.362966
0.361273
0.359641
0.358084
0.356505
0.354999
0.353492
0.352068
0.350648
0.349321
0.347985
0.346736
0.345453
0.373861
0.371597
0.369385
0.367269
0.365286
0.363455
0.361747
0.360098
0.358525
0.356991
0.355523
0.354093
0.352739
0.351416
0.350168
0.348937
0.347776
0.346611
0.37384
0.371583
0.369438
0.36739
0.365454
0.363626
0.361907
0.360263
0.358698
0.357191
0.355757
0.354375
0.353063
0.351798
0.350598
0.349433
0.348326
0.347242
0.373832
0.37157
0.369431
0.3674
0.365476
0.36365
0.361923
0.360279
0.358717
0.357224
0.355803
0.354445
0.353153
0.351916
0.350738
0.349608
0.348529
0.34749
0.373829
0.371562
0.369418
0.367385
0.365458
0.363629
0.361895
0.360247
0.358681
0.357189
0.355769
0.354416
0.353128
0.351899
0.350727
0.349607
0.348538
0.347515
0.373827
0.371557
0.369407
0.36737
0.365437
0.363604
0.361864
0.36021
0.358638
0.357142
0.355718
0.354362
0.35307
0.351839
0.350664
0.349544
0.348474
0.347454
0.373826
0.371554
0.3694
0.367358
0.365422
0.363584
0.361839
0.36018
0.358602
0.357102
0.355673
0.354312
0.353015
0.35178
0.350601
0.349477
0.348404
0.347381
0.373826
0.371552
0.369395
0.367351
0.365411
0.363569
0.36182
0.360157
0.358576
0.357071
0.355638
0.354273
0.352973
0.351733
0.350551
0.349423
0.348346
0.347319
0.373825
0.37155
0.369392
0.367345
0.365403
0.363559
0.361807
0.360141
0.358557
0.357049
0.355613
0.354245
0.352942
0.351699
0.350514
0.349384
0.348304
0.347275
0.373825
0.371549
0.369391
0.367342
0.365399
0.363553
0.361799
0.360131
0.358545
0.357035
0.355597
0.354227
0.352922
0.351677
0.35049
0.349358
0.348277
0.347245
0.373825
0.371549
0.36939
0.367342
0.365397
0.363551
0.361796
0.360127
0.35854
0.357029
0.355591
0.35422
0.352914
0.351668
0.35048
0.349347
0.348265
0.347232
0.373825
0.371549
0.369391
0.367343
0.365399
0.363552
0.361798
0.36013
0.358543
0.357032
0.355594
0.354223
0.352917
0.351671
0.350483
0.34935
0.348268
0.347235
0.373825
0.37155
0.369393
0.367346
0.365403
0.363558
0.361805
0.360138
0.358552
0.357042
0.355605
0.354235
0.35293
0.351685
0.350498
0.349365
0.348284
0.347252
0.373826
0.371552
0.369396
0.367351
0.365411
0.363568
0.361817
0.360151
0.358567
0.357059
0.355623
0.354256
0.352952
0.351709
0.350523
0.349392
0.348313
0.347283
0.373826
0.371556
0.369402
0.36736
0.365422
0.363583
0.361834
0.360171
0.358588
0.357081
0.355645
0.354278
0.352977
0.351736
0.350553
0.349425
0.348348
0.347321
0.373827
0.37156
0.369408
0.367374
0.365442
0.363608
0.361858
0.360191
0.358598
0.357081
0.355636
0.354265
0.35296
0.351722
0.35054
0.349417
0.348339
0.347313
0.373825
0.371567
0.36942
0.367407
0.365485
0.363652
0.361881
0.360177
0.358531
0.356962
0.355467
0.354063
0.352734
0.351487
0.350296
0.349171
0.348077
0.347045
0.373807
0.371567
0.369462
0.367516
0.365617
0.363761
0.361912
0.360073
0.358246
0.356511
0.35486
0.35335
0.351943
0.350656
0.349434
0.348302
0.347154
0.3461
0.37368
0.371595
0.369722
0.367984
0.366156
0.364246
0.362222
0.360018
0.357784
0.355584
0.353578
0.351764
0.350181
0.348773
0.347475
0.346279
0.345004
0.343873
0.373172
0.37206
0.371174
0.370114
0.368552
0.366742
0.364352
0.361434
0.3582
0.355006
0.352235
0.349658
0.347629
0.345908
0.344387
0.343005
0.341537
0.340167
0.372203
0.375642
0.379019
0.380835
0.38121
0.38047
0.378374
0.373965
0.369354
0.364186
0.360793
0.356718
0.354364
0.351528
0.350143
0.348399
0.347792
0.346792
0.373895
0.410988
0.439844
0.463152
0.481366
0.495555
0.506028
0.51416
0.518789
0.523445
0.531083
0.539717
0.550859
0.562155
0.57524
0.588009
0.602172
0.613853
0.62858
1.11375
1.37132
1.49954
1.56117
1.57327
1.56553
1.54619
1.51555
1.48204
1.44846
1.41626
1.3864
1.35912
1.33451
1.31242
1.29262
1.27512
1.89343e-08
4.65074e-07
2.37258e-06
9.35925e-06
3.12618e-05
9.52291e-05
0.000247585
0.000491502
0.00079519
0.00111515
0.00140222
0.00162498
0.00177436
0.00183081
0.0018084
0.00173641
0.00159896
0.00136908
0.00116737
0.000993584
0.000828425
0.00066787
0.000512418
0.00036808
0.000239486
0.000139887
7.39786e-05
3.7087e-05
1.88157e-05
1.02268e-05
6.20817e-06
4.73196e-06
5.34489e-06
1.12842e-05
2.52274e-05
0.000155483
0.000352144
0.000779192
0.00116983
0.0012675
0.00116298
0.000932779
0.0007704
0.000747616
0.000816233
0.00110208
0.00147793
0.00295509
0.00664722
0.0202327
0.0534462
0.0946996
0.126885
0.142249
0.136326
0.110797
0.131524
0.125654
0.136079
0.148275
0.161845
0.175876
0.157643
0.174252
0.181784
0.19094
0.199221
0.207743
0.215769
0.223873
0.231701
0.239508
0.247149
0.254741
0.262212
0.269626
0.276943
0.284196
0.291365
0.298464
0.305482
0.312425
0.319286
0.326065
0.332755
0.339358
0.345862
0.352272
0.358571
0.364762
0.37083
0.376766
0.382561
0.3882
0.393674
0.398969
0.404077
0.409003
0.413752
0.418368
0.422916
0.427287
0.43151
0.435585
0.439498
0.443261
0.446854
0.450289
0.45355
0.456644
0.459562
0.462306
0.464872
0.467258
0.469466
0.471491
0.473338
0.474999
0.476485
0.477783
0.478909
0.479847
0.480616
0.481201
0.481621
0.481864
0.481955
0.481928
0.48161
0.481363
0.480562
0.479978
0.478938
0.477999
0.476939
0.475731
0.474337
0.47268
0.470925
0.469004
0.466966
0.464799
0.462516
0.46012
0.457614
0.455008
0.452308
0.449539
0.44666
0.443761
0.440695
0.437635
0.434446
0.43124
0.42797
0.424657
0.42132
0.417956
0.414582
0.411202
0.407823
0.404449
0.401084
0.397732
0.394397
0.391087
0.38781
0.384572
0.381382
0.378245
0.375159
0.372121
0.369122
0.366127
0.363093
0.359931
0.356528
0.352552
0.347382
0.331225
8.02143e-08
2.24844e-06
1.52716e-05
6.69737e-05
0.000248552
0.000757001
0.00175308
0.00318665
0.00484902
0.00655563
0.00811394
0.00939298
0.0103344
0.0109322
0.0112109
0.0111713
0.0109906
0.0106325
0.0100256
0.00919358
0.00814014
0.00692102
0.00558724
0.00424124
0.00293882
0.0019426
0.00123
0.000758886
0.000459676
0.000280541
0.000179576
0.000133471
0.000104366
0.000172625
0.000226636
0.00162011
0.00356996
0.00734071
0.0105722
0.0123063
0.0122425
0.011751
0.011645
0.0129466
0.0168043
0.0225778
0.0327737
0.0504553
0.0766409
0.101734
0.126953
0.146893
0.162775
0.17623
0.189112
0.204827
0.221376
0.23739
0.255247
0.275598
0.294695
0.314221
0.333299
0.353338
0.372659
0.391845
0.41065
0.429278
0.447629
0.465823
0.48383
0.501711
0.519465
0.537123
0.554689
0.572178
0.589594
0.606941
0.62422
0.64143
0.658569
0.675632
0.692615
0.709511
0.726311
0.74301
0.759596
0.776063
0.792398
0.808596
0.824635
0.840501
0.856173
0.871623
0.886828
0.901754
0.916373
0.930645
0.944538
0.958006
0.971031
0.983834
0.996332
1.00856
1.02049
1.03212
1.04342
1.0544
1.06503
1.07532
1.08524
1.09479
1.10396
1.11274
1.12112
1.1291
1.13667
1.14383
1.15057
1.15688
1.16277
1.16823
1.17325
1.17784
1.18199
1.18571
1.18899
1.19184
1.19425
1.19625
1.19779
1.19894
1.19953
1.19986
1.19998
1.19977
1.19929
1.19864
1.19757
1.1961
1.19426
1.19205
1.18949
1.18658
1.18333
1.17975
1.17586
1.17168
1.16722
1.16243
1.15739
1.15204
1.14645
1.1406
1.13452
1.12822
1.12173
1.11507
1.10826
1.10132
1.09426
1.08709
1.07983
1.07248
1.06505
1.05756
1.05002
1.04246
1.03488
1.0273
1.01974
1.01217
1.00459
0.996949
0.989177
0.981159
0.972681
0.963417
0.951444
0.9242
2.18871e-07
6.57122e-06
5.03178e-05
0.000242322
0.000722894
0.00205388
0.00415585
0.00659854
0.00904457
0.0112612
0.0131109
0.0145351
0.0155328
0.0161291
0.0163853
0.0163476
0.0161589
0.015785
0.0152328
0.0145451
0.0137155
0.012738
0.0115921
0.0102855
0.00882475
0.00717022
0.00546624
0.00394909
0.00263926
0.00175073
0.00120242
0.000903314
0.000681437
0.00100014
0.00167689
0.006847
0.0147165
0.0233346
0.029613
0.0332139
0.0345725
0.0370723
0.0445368
0.0604225
0.078301
0.0969466
0.117821
0.139356
0.159383
0.180569
0.201251
0.222347
0.244465
0.268633
0.295515
0.323408
0.352283
0.381868
0.411153
0.44018
0.468662
0.496576
0.523912
0.55062
0.576718
0.602295
0.627392
0.652102
0.676471
0.700563
0.724417
0.748076
0.771568
0.794916
0.818138
0.841244
0.864241
0.887133
0.90992
0.9326
0.955168
0.977619
0.999946
1.02214
1.04419
1.06609
1.08782
1.10938
1.13075
1.15192
1.17288
1.19362
1.21411
1.23434
1.25429
1.27394
1.29329
1.31232
1.33104
1.34942
1.36748
1.3852
1.40255
1.41951
1.43607
1.45221
1.46791
1.48316
1.49793
1.51223
1.52602
1.5393
1.55206
1.56429
1.57597
1.5871
1.59766
1.60766
1.61707
1.62592
1.63417
1.64184
1.64891
1.6554
1.66129
1.66659
1.67129
1.67541
1.67894
1.68188
1.68424
1.68603
1.68719
1.68783
1.68807
1.68784
1.68704
1.68574
1.68391
1.68156
1.67869
1.67531
1.67143
1.66707
1.66224
1.65695
1.65122
1.64507
1.63851
1.63151
1.62415
1.61638
1.60826
1.59978
1.59096
1.58184
1.57244
1.56279
1.55292
1.54285
1.5326
1.5222
1.51166
1.50099
1.4902
1.47932
1.46836
1.45736
1.44633
1.43529
1.42427
1.41326
1.40226
1.39124
1.38015
1.36892
1.35734
1.3452
1.33059
1.30523
8.13089e-07
2.44551e-05
0.000192575
0.000796076
0.00231564
0.00544738
0.00915203
0.0127533
0.0158787
0.0183502
0.0201321
0.0212634
0.0218574
0.0219655
0.0218312
0.0214673
0.0208898
0.0201957
0.0194163
0.0185675
0.0176501
0.0166605
0.0155807
0.0143894
0.0130678
0.0115939
0.00998959
0.00831779
0.00675412
0.00520849
0.00409817
0.00301036
0.00312795
0.00478983
0.0119785
0.026856
0.0414098
0.0528743
0.0615325
0.0696551
0.0798813
0.0933254
0.109209
0.124937
0.141227
0.158711
0.179012
0.200602
0.223898
0.249533
0.276787
0.306178
0.337319
0.369986
0.403591
0.437636
0.471762
0.505837
0.539493
0.57269
0.605282
0.637253
0.668611
0.69937
0.729594
0.759347
0.788695
0.8177
0.846415
0.874889
0.903161
0.931266
0.959227
0.987063
1.01479
1.04241
1.06992
1.09733
1.12464
1.15183
1.17889
1.20583
1.23262
1.25926
1.28573
1.31203
1.33813
1.36402
1.38969
1.41514
1.44034
1.46529
1.48996
1.51434
1.53842
1.56218
1.58561
1.6087
1.63143
1.65378
1.67573
1.69726
1.71834
1.73894
1.75906
1.77866
1.79772
1.81623
1.83416
1.8515
1.86823
1.88433
1.89979
1.9146
1.92873
1.94219
1.95496
1.96703
1.9784
1.98906
1.999
2.00822
2.01672
2.02449
2.03154
2.03787
2.04347
2.04836
2.05252
2.05597
2.05871
2.06075
2.06202
2.06261
2.06272
2.06215
2.06088
2.05896
2.0564
2.05321
2.04939
2.04495
2.0399
2.03427
2.02806
2.02129
2.01397
2.00613
1.99779
1.98894
1.97963
1.96983
1.9596
1.94893
1.93785
1.9264
1.9146
1.9025
1.89011
1.87747
1.86461
1.85156
1.83833
1.82494
1.81141
1.79775
1.784
1.77019
1.75634
1.74249
1.72865
1.71485
1.70109
1.68737
1.67366
1.65993
1.64606
1.63189
1.61578
1.59229
2.77846e-06
8.33634e-05
0.00062289
0.00237579
0.00650771
0.0120547
0.0172024
0.0213118
0.0242231
0.0260383
0.0269744
0.0272285
0.0270736
0.0266243
0.0259077
0.0250664
0.0241528
0.0232048
0.022244
0.0212791
0.0203054
0.0193134
0.0182842
0.0171947
0.0160179
0.0147237
0.0133099
0.0118268
0.0103869
0.0089198
0.00748444
0.00783267
0.0117226
0.0242318
0.0450026
0.0647488
0.0811105
0.0938789
0.104743
0.115534
0.127157
0.139817
0.153503
0.16909
0.187796
0.20937
0.233702
0.260643
0.289803
0.321016
0.353795
0.387991
0.423173
0.459045
0.495283
0.531702
0.568101
0.604383
0.640394
0.676081
0.711359
0.746206
0.780617
0.814616
0.848238
0.881523
0.914516
0.947262
0.979801
1.01217
1.0444
1.07651
1.10853
1.14046
1.17232
1.20409
1.23578
1.26738
1.29889
1.33028
1.36155
1.39269
1.42367
1.45449
1.48513
1.51556
1.54578
1.57578
1.60552
1.63501
1.66422
1.69315
1.72177
1.75007
1.77803
1.80563
1.83285
1.85967
1.88607
1.91203
1.93751
1.96249
1.98696
2.01087
2.03421
2.05695
2.07906
2.10053
2.12132
2.14142
2.1608
2.17946
2.19736
2.21449
2.23084
2.2464
2.26115
2.27509
2.28819
2.30047
2.3119
2.3225
2.33225
2.34115
2.3492
2.35641
2.36277
2.36828
2.37296
2.37679
2.3798
2.38199
2.38326
2.38376
2.38365
2.38269
2.38095
2.37844
2.37518
2.37119
2.36646
2.36102
2.35488
2.34805
2.34055
2.3324
2.32362
2.31423
2.30425
2.29368
2.28258
2.27092
2.25875
2.24608
2.23294
2.21936
2.20538
2.19103
2.17635
2.16137
2.14614
2.13067
2.11499
2.09913
2.08309
2.06691
2.05062
2.03425
2.01784
2.00142
1.98503
1.96869
1.95243
1.93625
1.92017
1.9042
1.88826
1.87226
1.85483
1.832
8.87814e-06
0.00025969
0.00184677
0.00652827
0.0145959
0.0216486
0.0266499
0.0297225
0.0313211
0.0319098
0.0318275
0.0313717
0.0305221
0.0294906
0.0283627
0.0272032
0.0260552
0.0249457
0.0238857
0.0228749
0.021902
0.0209509
0.0199957
0.0190057
0.0179498
0.0167642
0.0153909
0.0137814
0.0121091
0.0119663
0.0141644
0.0227256
0.0410553
0.0653859
0.0885183
0.107221
0.120934
0.131032
0.139838
0.149132
0.159837
0.173392
0.190299
0.210453
0.23407
0.260751
0.289953
0.321176
0.35395
0.388016
0.423083
0.458963
0.495451
0.532403
0.569687
0.607215
0.644884
0.682617
0.720321
0.757929
0.795379
0.832635
0.869684
0.906525
0.943167
0.979632
1.01594
1.05213
1.08822
1.12423
1.1602
1.19612
1.23201
1.26788
1.30372
1.33953
1.37529
1.41098
1.44661
1.48213
1.51754
1.55282
1.58794
1.62289
1.65764
1.69218
1.72648
1.76053
1.79431
1.8278
1.86098
1.89384
1.92636
1.95852
1.99029
2.02165
2.05258
2.08305
2.11303
2.14251
2.17144
2.1998
2.22757
2.25471
2.2812
2.30701
2.3321
2.35645
2.38004
2.40283
2.42481
2.44595
2.46623
2.48563
2.50414
2.52174
2.53842
2.55415
2.56894
2.58278
2.59566
2.60757
2.61852
2.62849
2.6375
2.64553
2.65259
2.65869
2.66383
2.668
2.67123
2.67351
2.67475
2.67515
2.67475
2.67342
2.67118
2.66808
2.66412
2.65933
2.6537
2.64727
2.64005
2.63205
2.62329
2.6138
2.60359
2.59268
2.58111
2.56888
2.55603
2.54257
2.52853
2.51393
2.49879
2.48316
2.46707
2.45057
2.43368
2.41646
2.39894
2.38115
2.36312
2.34488
2.32644
2.30783
2.2891
2.27027
2.25139
2.23251
2.21367
2.19489
2.17622
2.15768
2.13932
2.12116
2.10319
2.08534
2.06645
2.04333
2.85877e-05
0.00078136
0.00501609
0.0152409
0.0248628
0.0309878
0.0343479
0.0359219
0.0363561
0.0361006
0.0353323
0.0341711
0.0328108
0.0313595
0.0298993
0.0284893
0.0271656
0.0259457
0.0248299
0.0238072
0.0228573
0.0219515
0.0210545
0.020119
0.0191869
0.0183382
0.0177665
0.017949
0.0200653
0.0261064
0.0392124
0.0610172
0.0855236
0.108401
0.126751
0.139579
0.148409
0.155756
0.163727
0.174505
0.188889
0.206916
0.228625
0.253685
0.281655
0.311838
0.343649
0.376693
0.410717
0.445578
0.481158
0.51738
0.554179
0.5915
0.629294
0.667511
0.706085
0.744942
0.784014
0.823238
0.862558
0.901929
0.941322
0.980719
1.02011
1.05951
1.09892
1.13834
1.17781
1.21733
1.2569
1.29654
1.33624
1.376
1.4158
1.45563
1.49546
1.53527
1.57504
1.61473
1.65432
1.69379
1.7331
1.77223
1.81116
1.84985
1.88829
1.92646
1.96432
2.00186
2.03906
2.0759
2.11235
2.1484
2.18401
2.21916
2.25382
2.28796
2.32156
2.35457
2.38698
2.41875
2.44984
2.48024
2.5099
2.53878
2.56687
2.59413
2.62052
2.64602
2.6706
2.69424
2.7169
2.73858
2.75924
2.77888
2.79747
2.815
2.83147
2.84685
2.86115
2.87436
2.88648
2.89751
2.90744
2.91627
2.92401
2.93066
2.93622
2.9407
2.94411
2.94645
2.94763
2.94789
2.94718
2.94544
2.94269
2.93897
2.9343
2.92868
2.92215
2.91471
2.90638
2.8972
2.88717
2.87632
2.86467
2.85226
2.83909
2.8252
2.81061
2.79536
2.77946
2.76293
2.74581
2.72815
2.70997
2.69134
2.67228
2.65285
2.63307
2.61299
2.59264
2.57204
2.55123
2.53023
2.50909
2.48784
2.46653
2.44522
2.42395
2.40276
2.38171
2.36083
2.34018
2.31982
2.29976
2.27996
2.25938
2.23532
8.62369e-05
0.00215555
0.0118862
0.0255775
0.033928
0.038312
0.04035
0.0409288
0.0406006
0.0396105
0.0381399
0.0364183
0.0345864
0.032756
0.0310086
0.0293985
0.0279519
0.0266738
0.0255521
0.0245658
0.0236852
0.0228735
0.0220518
0.0212696
0.0207208
0.0208334
0.0226625
0.0279822
0.0392829
0.0573964
0.0795304
0.101825
0.122326
0.138852
0.150541
0.158601
0.165563
0.174066
0.185608
0.200865
0.21995
0.242574
0.268332
0.296616
0.326796
0.358306
0.3908
0.424105
0.458139
0.492868
0.528278
0.564363
0.601124
0.638554
0.676634
0.715324
0.75458
0.794348
0.83457
0.875188
0.916147
0.9574
0.998909
1.04065
1.08259
1.12474
1.16708
1.20962
1.25236
1.29529
1.33843
1.38175
1.42525
1.46892
1.51272
1.55662
1.6006
1.64461
1.68861
1.73256
1.77644
1.82019
1.8638
1.90722
1.95042
1.99338
2.03606
2.07843
2.12047
2.16215
2.20346
2.24435
2.28482
2.32483
2.36435
2.40336
2.44181
2.47969
2.51696
2.55358
2.58951
2.62474
2.65921
2.6929
2.72577
2.75778
2.7889
2.81909
2.84832
2.87654
2.90374
2.92988
2.95494
2.97889
3.00171
3.02337
3.04387
3.06319
3.08131
3.09822
3.11392
3.1284
3.14166
3.1537
3.16452
3.17411
3.18249
3.18964
3.19558
3.20032
3.20388
3.20622
3.20731
3.20738
3.20631
3.20412
3.20082
3.19644
3.191
3.18453
3.17704
3.16856
3.1591
3.1487
3.13737
3.12514
3.11203
3.09808
3.0833
3.06773
3.0514
3.03433
3.01655
2.99809
2.97899
2.95929
2.93903
2.91827
2.89705
2.8754
2.85338
2.83102
2.80836
2.78543
2.76225
2.73887
2.71532
2.69166
2.66793
2.6442
2.62051
2.59692
2.57347
2.55024
2.52728
2.50467
2.48244
2.46057
2.43811
2.4126
0.000224757
0.0050946
0.0216076
0.0347837
0.041509
0.0446604
0.0457654
0.0455768
0.0445325
0.0428375
0.040777
0.0385387
0.0362772
0.0341154
0.0321393
0.030402
0.0289275
0.0277206
0.0267729
0.0260638
0.0256166
0.0255201
0.0258661
0.0270805
0.0295616
0.0342173
0.0427827
0.056488
0.0737999
0.0930785
0.112446
0.1299
0.144226
0.155118
0.163563
0.171535
0.181129
0.1937
0.209866
0.22961
0.252605
0.278337
0.306251
0.335773
0.366432
0.397921
0.430107
0.462957
0.496482
0.530716
0.565693
0.601453
0.638026
0.67542
0.713631
0.752644
0.79243
0.832947
0.874149
0.915986
0.958407
1.00137
1.04482
1.08874
1.1331
1.17787
1.22305
1.26862
1.31458
1.36091
1.40761
1.45464
1.50199
1.54963
1.59751
1.64558
1.69381
1.74213
1.79049
1.83884
1.88713
1.9353
1.98332
2.03115
2.07876
2.12609
2.17313
2.21982
2.26614
2.31206
2.35756
2.4026
2.44717
2.49122
2.53472
2.57765
2.61996
2.66164
2.70262
2.74289
2.7824
2.82112
2.859
2.89601
2.9321
2.96725
3.0014
3.03453
3.06658
3.09752
3.12733
3.15595
3.18338
3.20957
3.23451
3.25817
3.28054
3.30159
3.32131
3.33969
3.35673
3.37243
3.38677
3.39976
3.4114
3.42168
3.43062
3.43821
3.44446
3.44939
3.453
3.45528
3.45622
3.45601
3.45453
3.45182
3.4479
3.44279
3.43653
3.42914
3.42065
3.41107
3.40043
3.38875
3.37608
3.36243
3.34783
3.33231
3.31589
3.29862
3.28051
3.26161
3.24194
3.22154
3.20044
3.17869
3.15635
3.13347
3.11008
3.08624
3.06198
3.03735
3.01239
2.98713
2.96159
2.93584
2.9099
2.88384
2.85771
2.83156
2.80546
2.77946
2.75362
2.72801
2.70271
2.6778
2.65332
2.62928
2.60479
2.57755
0.000500816
0.0102737
0.0313377
0.0430128
0.0484953
0.0507726
0.0511475
0.0502907
0.0485554
0.0462622
0.0436586
0.0409601
0.0383453
0.0359534
0.0338795
0.0321797
0.0308809
0.0299554
0.029476
0.029338
0.0296959
0.0308858
0.033506
0.0383475
0.0461356
0.0571719
0.0709529
0.086374
0.102737
0.118825
0.133475
0.145993
0.156448
0.165594
0.174859
0.18576
0.199427
0.216303
0.236344
0.259198
0.284401
0.311457
0.339905
0.369356
0.399554
0.430378
0.461814
0.493902
0.526702
0.560284
0.594717
0.630054
0.666335
0.70359
0.741833
0.781063
0.821266
0.862416
0.904479
0.947413
0.991177
1.03573
1.08103
1.12704
1.17373
1.22108
1.26907
1.31766
1.36685
1.41661
1.46692
1.51774
1.56903
1.62074
1.67281
1.72518
1.77779
1.83056
1.88342
1.93629
1.98912
2.04185
2.09441
2.14678
2.19889
2.25071
2.3022
2.3533
2.40399
2.45423
2.504
2.55326
2.60198
2.65013
2.69766
2.74455
2.79076
2.83625
2.88097
2.9249
2.96798
3.01018
3.05145
3.09175
3.13104
3.16928
3.20643
3.24243
3.27725
3.31085
3.34319
3.37423
3.40395
3.43231
3.45928
3.48484
3.50898
3.53166
3.55288
3.57263
3.5909
3.6077
3.62301
3.63684
3.64919
3.66005
3.66944
3.67736
3.68381
3.68881
3.69238
3.69449
3.6952
3.69458
3.6926
3.68927
3.68464
3.67873
3.67157
3.66318
3.6536
3.64286
3.63097
3.61797
3.60389
3.58877
3.57263
3.55551
3.53743
3.51842
3.49852
3.47776
3.45618
3.43381
3.4107
3.38691
3.36249
3.33749
3.31195
3.28592
3.25944
3.23256
3.20531
3.17773
3.14986
3.12174
3.09343
3.06499
3.03647
3.00792
2.97942
2.95102
2.92279
2.89479
2.86712
2.83988
2.81311
2.78683
2.76022
2.73131
0.000950574
0.0176097
0.0397745
0.0504865
0.0552722
0.0569697
0.0568066
0.0553737
0.0530925
0.0502981
0.0472763
0.0442755
0.0415016
0.0391137
0.0372273
0.0359078
0.0352827
0.0352073
0.0358535
0.0374517
0.0403212
0.0448181
0.0512195
0.0596965
0.0701605
0.0823157
0.0955843
0.109201
0.122496
0.134906
0.14617
0.156415
0.166281
0.176776
0.188941
0.203522
0.220837
0.240809
0.26314
0.287436
0.313303
0.34038
0.36837
0.397061
0.426347
0.456212
0.486702
0.517895
0.54988
0.582748
0.616576
0.65143
0.687368
0.724433
0.762654
0.802046
0.842611
0.884338
0.927208
0.971192
1.01626
1.06237
1.1095
1.1576
1.20665
1.2566
1.30744
1.35913
1.41164
1.46493
1.51897
1.5737
1.62906
1.68497
1.74137
1.79818
1.8553
1.91266
1.97014
2.02767
2.08516
2.14255
2.19976
2.25675
2.31347
2.36985
2.42586
2.48143
2.53653
2.59113
2.64519
2.69869
2.75158
2.80382
2.85538
2.90621
2.95627
3.00553
3.05394
3.10146
3.14805
3.19364
3.23821
3.2817
3.32408
3.36529
3.4053
3.44406
3.48151
3.51762
3.55234
3.58565
3.61749
3.64785
3.67669
3.70399
3.72972
3.75386
3.77641
3.79735
3.81667
3.83439
3.8505
3.86499
3.87788
3.88916
3.89884
3.90691
3.9134
3.91833
3.9217
3.92351
3.92384
3.9227
3.92007
3.91602
3.91056
3.90374
3.89557
3.88609
3.87534
3.86334
3.85013
3.83573
3.8202
3.80355
3.78582
3.76706
3.74728
3.72651
3.7048
3.68217
3.65866
3.63432
3.60921
3.58338
3.5569
3.5298
3.50215
3.47396
3.4453
3.4162
3.3867
3.35684
3.32666
3.29622
3.26558
3.2348
3.20393
3.17303
3.14216
3.11138
3.08077
3.0504
3.02037
2.99078
2.96168
2.93313
2.90433
2.87358
0.00151361
0.0250495
0.0478708
0.0580922
0.062391
0.0636276
0.063027
0.0611442
0.058453
0.0553455
0.0521554
0.049165
0.0466077
0.0446705
0.0435804
0.0432675
0.0437633
0.0452178
0.0477674
0.0515606
0.0567288
0.0633415
0.071374
0.0807043
0.0910909
0.102161
0.113485
0.124688
0.13556
0.146038
0.156313
0.166882
0.178426
0.191578
0.206788
0.224226
0.243816
0.265322
0.288444
0.312884
0.338377
0.364707
0.391716
0.419315
0.447486
0.47627
0.505745
0.53601
0.567168
0.599313
0.632538
0.666921
0.702532
0.739426
0.77765
0.817232
0.858191
0.900534
0.944258
0.989351
1.03579
1.08356
1.13261
1.18291
1.23444
1.28714
1.34099
1.39593
1.45193
1.50894
1.56689
1.62572
1.68534
1.74564
1.80653
1.86792
1.9297
1.99176
2.05398
2.11626
2.17849
2.2406
2.30252
2.36418
2.42551
2.48647
2.54698
2.607
2.66648
2.72538
2.78369
2.84135
2.89833
2.95458
3.01005
3.0647
3.11849
3.17138
3.22332
3.27427
3.32417
3.37297
3.42063
3.4671
3.51234
3.5563
3.59894
3.6402
3.68003
3.71839
3.75524
3.79054
3.82425
3.85634
3.88678
3.91555
3.94261
3.96794
3.99155
4.01341
4.03353
4.05191
4.06856
4.08347
4.09665
4.10811
4.11784
4.12585
4.13217
4.13681
4.13978
4.14111
4.14085
4.13903
4.13561
4.13068
4.12425
4.11638
4.10708
4.0964
4.08437
4.07103
4.05641
4.04054
4.02348
4.00525
3.98589
3.96544
3.94394
3.92141
3.89788
3.87337
3.84794
3.82165
3.79457
3.76674
3.73823
3.70909
3.67937
3.64909
3.61831
3.58706
3.55536
3.52328
3.49086
3.45818
3.42528
3.39223
3.35909
3.3259
3.29273
3.25963
3.2267
3.194
3.16164
3.12972
3.09831
3.06747
3.03648
3.00384
0.00225502
0.0318127
0.0553932
0.065627
0.069762
0.0707691
0.0698656
0.0676528
0.0647161
0.0615421
0.0585213
0.055955
0.0540584
0.0531366
0.0529844
0.0538137
0.055662
0.0585693
0.0625617
0.0676522
0.0738212
0.080995
0.0890517
0.0978274
0.107126
0.11676
0.126585
0.136528
0.146638
0.157118
0.168314
0.180632
0.194425
0.209918
0.227177
0.246126
0.266591
0.288359
0.311221
0.334994
0.359531
0.38473
0.41053
0.43692
0.463934
0.491646
0.520151
0.549553
0.579963
0.611484
0.644216
0.678248
0.713665
0.750537
0.788919
0.828854
0.870378
0.913517
0.958286
1.00469
1.05271
1.10234
1.15356
1.20633
1.26061
1.31637
1.37353
1.43205
1.49187
1.55291
1.61509
1.67831
1.74243
1.80733
1.87288
1.93896
2.00547
2.07227
2.13923
2.20625
2.27321
2.34001
2.40658
2.47285
2.53873
2.60414
2.66903
2.73334
2.79704
2.86009
2.92244
2.98407
3.04492
3.10495
3.16409
3.2223
3.27954
3.33577
3.39094
3.44499
3.49788
3.54956
3.59996
3.64905
3.69677
3.7431
3.78797
3.83134
3.87316
3.91338
3.95195
3.98884
4.02402
4.05744
4.08909
4.11893
4.14694
4.17309
4.19737
4.21978
4.24034
4.25904
4.27588
4.29087
4.30402
4.31532
4.3248
4.33246
4.33833
4.34241
4.34472
4.34532
4.3443
4.34156
4.33715
4.33115
4.32359
4.31451
4.30394
4.29193
4.27851
4.26371
4.24759
4.23018
4.21152
4.19165
4.17062
4.14847
4.12524
4.10094
4.07561
4.04925
4.02193
3.99373
3.96473
3.93497
3.90451
3.87341
3.8417
3.80943
3.77663
3.74332
3.70953
3.67533
3.64078
3.60596
3.57092
3.53572
3.50041
3.46505
3.42967
3.39436
3.35919
3.32424
3.28963
3.25546
3.2218
3.18873
3.15557
3.12109
0.00311298
0.0378502
0.0629319
0.0734039
0.0774529
0.0782909
0.0771452
0.0746752
0.0715821
0.0685294
0.0659911
0.0642241
0.0633905
0.063265
0.0641239
0.0659988
0.0688291
0.0725802
0.0772165
0.0826979
0.0889551
0.0959103
0.103477
0.11158
0.120163
0.129188
0.138669
0.1487
0.159439
0.171089
0.18386
0.197923
0.213362
0.230179
0.248297
0.267596
0.287933
0.309172
0.331197
0.353922
0.377288
0.401273
0.425884
0.451158
0.477162
0.503988
0.531741
0.560529
0.590456
0.62163
0.654158
0.688141
0.723671
0.760831
0.799694
0.840325
0.882778
0.927101
0.973326
1.02147
1.07154
1.12353
1.17742
1.23318
1.29075
1.3501
1.41113
1.47377
1.5379
1.60343
1.67022
1.73814
1.80702
1.87668
1.94695
2.01771
2.08884
2.16022
2.23175
2.30331
2.37478
2.44607
2.51708
2.58773
2.65791
2.72749
2.79644
2.86472
2.9323
2.99913
3.06517
3.13037
3.19468
3.25805
3.32041
3.38172
3.44193
3.50099
3.55887
3.61551
3.67085
3.72484
3.77743
3.82857
3.87822
3.92633
3.97286
4.01777
4.06099
4.10249
4.14221
4.18012
4.21619
4.25039
4.28269
4.31307
4.34151
4.36796
4.39245
4.41495
4.43548
4.45404
4.47063
4.48527
4.49795
4.5087
4.51752
4.52443
4.52947
4.53265
4.534
4.53362
4.53154
4.52761
4.52199
4.51471
4.50583
4.49537
4.48337
4.46988
4.45494
4.43859
4.42088
4.40184
4.38153
4.35998
4.33725
4.31338
4.28841
4.26238
4.2353
4.20713
4.17799
4.14798
4.11715
4.08556
4.05327
4.02032
3.98676
3.95262
3.91793
3.88271
3.84697
3.8108
3.77429
3.73749
3.70047
3.66328
3.62597
3.58858
3.55116
3.51377
3.47649
3.43944
3.40271
3.36641
3.33059
3.29539
3.26016
3.22394
0.0040446
0.0441894
0.0703982
0.0811459
0.085163
0.0858574
0.0843453
0.0815638
0.0785217
0.075925
0.074159
0.0733529
0.0732112
0.0738898
0.0755292
0.0780631
0.0814189
0.0855429
0.090389
0.0959204
0.102099
0.108903
0.116314
0.124329
0.132968
0.142282
0.152353
0.163271
0.175143
0.188063
0.202078
0.217204
0.233409
0.250623
0.268762
0.287736
0.307469
0.327899
0.348989
0.370724
0.393108
0.416167
0.439952
0.464536
0.489985
0.516392
0.543869
0.572529
0.602486
0.633853
0.666747
0.701276
0.737549
0.775662
0.815705
0.85776
0.901901
0.948196
0.996698
1.04744
1.10042
1.15562
1.21304
1.27262
1.33432
1.39804
1.46369
1.53112
1.60016
1.67064
1.74235
1.81513
1.88879
1.96313
2.03796
2.11306
2.18833
2.26377
2.33933
2.41492
2.49039
2.56564
2.64059
2.71512
2.78906
2.86229
2.93481
3.00656
3.0775
3.14755
3.21667
3.28482
3.35194
3.41797
3.48286
3.54653
3.60897
3.67011
3.72993
3.78837
3.84537
3.90089
3.95486
4.00724
4.058
4.10709
4.15448
4.20012
4.24397
4.28595
4.32604
4.36421
4.40042
4.43466
4.46689
4.4971
4.52527
4.5514
4.57546
4.59745
4.61735
4.63519
4.65098
4.66472
4.67642
4.68611
4.69378
4.69948
4.70323
4.7051
4.70514
4.7035
4.69992
4.69453
4.68742
4.67861
4.66816
4.6561
4.64249
4.62735
4.61073
4.59269
4.57327
4.55251
4.53046
4.50717
4.48269
4.45706
4.43034
4.40256
4.37376
4.34389
4.31308
4.28139
4.24889
4.21562
4.18165
4.14701
4.11175
4.07592
4.03954
4.0026
3.96511
3.92719
3.88892
3.85036
3.81157
3.7726
3.7335
3.69431
3.65504
3.61576
3.57659
3.53762
3.49896
3.4607
3.42291
3.38573
3.34856
3.3108
0.00499412
0.0502408
0.0776107
0.08861
0.0925666
0.0930831
0.0911703
0.0882653
0.0855414
0.0835893
0.0826442
0.0824021
0.0828558
0.0841428
0.0862905
0.089232
0.0929055
0.0972724
0.102309
0.10801
0.114375
0.121419
0.129166
0.137657
0.146938
0.157064
0.168083
0.180036
0.192931
0.206761
0.221517
0.237159
0.253619
0.27084
0.288771
0.307376
0.326638
0.346557
0.367142
0.388419
0.410437
0.433274
0.457041
0.481782
0.507505
0.534341
0.562466
0.591987
0.623012
0.655656
0.69004
0.726284
0.764505
0.804808
0.847292
0.892048
0.939161
0.988703
1.04074
1.09531
1.15237
1.21189
1.27381
1.33807
1.4046
1.4733
1.54404
1.61663
1.69085
1.7664
1.84288
1.92018
1.99815
2.07666
2.15546
2.23432
2.31319
2.39214
2.4711
2.54992
2.62845
2.70672
2.78475
2.86227
2.93912
3.01524
3.09054
3.16491
3.23827
3.31058
3.38179
3.45184
3.52069
3.58828
3.65454
3.71943
3.78291
3.84496
3.90553
3.96458
4.02206
4.07792
4.13209
4.18455
4.23526
4.2842
4.33132
4.37661
4.41999
4.46141
4.50083
4.53824
4.57361
4.60692
4.63816
4.6673
4.69433
4.71924
4.74203
4.76268
4.7812
4.7976
4.81191
4.82414
4.83429
4.84239
4.84845
4.85248
4.85456
4.85476
4.85327
4.84982
4.84449
4.83737
4.82851
4.81796
4.80575
4.79194
4.77657
4.75968
4.74132
4.72154
4.70038
4.6779
4.65413
4.62913
4.60295
4.57564
4.54725
4.51782
4.48739
4.45603
4.42375
4.39061
4.35664
4.32192
4.28647
4.25035
4.21361
4.17629
4.13844
4.10003
4.06108
4.0217
3.98196
3.94193
3.90164