/*--------------------------------*- C++ -*----------------------------------*\
| =========                 |                                                 |
| \\      /  F ield         | OpenFOAM: The Open Source CFD Toolbox           |
|  \\    /   O peration     | Version:  v2012                                 |
|   \\  /    A nd           | Website:  www.openfoam.com                      |
|    \\/     M anipulation  |                                                 |
\*---------------------------------------------------------------------------*/
FoamFile
{
    version     2.0;
    format      ascii;
    class       volScalarField;
    location    "1600";
    object      nut;
}
// * * * * * * * * * * * * * * * * * * * * * * * * * * * * * * * * * * * * * //

dimensions      [0 2 -1 0 0 0 0];


internalField   nonuniform List<scalar> 
12225
(
5.31802e-06
8.14618e-06
1.00349e-05
1.11528e-05
1.16609e-05
1.18281e-05
1.18639e-05
1.17352e-05
1.1561e-05
1.13797e-05
1.12038e-05
1.10353e-05
1.08924e-05
1.07469e-05
1.06503e-05
1.0517e-05
1.04785e-05
1.03523e-05
0.000127529
5.71187e-05
4.21603e-05
3.6308e-05
3.35297e-05
3.24326e-05
3.20994e-05
3.25386e-05
3.3138e-05
3.29464e-05
3.25856e-05
3.27947e-05
3.27142e-05
3.31377e-05
3.32149e-05
3.3785e-05
3.40166e-05
3.47742e-05
0.000592414
0.00030564
0.000209779
0.000160176
0.000132924
0.000113515
0.000101898
9.22163e-05
8.59661e-05
7.90565e-05
7.44699e-05
6.95019e-05
6.63471e-05
6.28228e-05
6.0741e-05
5.81907e-05
5.68929e-05
5.50725e-05
0.000791548
0.000678535
0.000539871
0.000436316
0.000374624
0.00032276
0.000291767
0.000261832
0.000243744
0.000222748
0.000209916
0.000194365
0.000185243
0.000173458
0.000166975
0.000157908
0.0001534
0.000146148
0.000842144
0.000817556
0.000763596
0.000685061
0.000627905
0.000570056
0.000533107
0.000493533
0.000468771
0.000439316
0.000420833
0.000397297
0.000383047
0.000363906
0.000353071
0.000337387
0.000329441
0.0003162
0.000851533
0.000846932
0.000831617
0.000805701
0.000775399
0.000738902
0.000713784
0.000684011
0.000663846
0.000638555
0.000621446
0.00059913
0.000584516
0.000564766
0.000552703
0.0005353
0.000525858
0.000510402
0.000851482
0.000851048
0.000847863
0.000841239
0.00083126
0.000816167
0.000804665
0.000789807
0.000779081
0.000764733
0.000754297
0.000740033
0.000729855
0.000715873
0.000706469
0.000693134
0.000685004
0.000672445
0.000851554
0.00085076
0.000850219
0.000847518
0.000844412
0.000839062
0.000833407
0.000826735
0.000821185
0.000814355
0.000808697
0.000801196
0.00079522
0.000787017
0.000780993
0.000772584
0.000766892
0.00075838
0.000851592
0.000850627
0.000850174
0.000848912
0.000847587
0.000845523
0.000843228
0.000840497
0.000837783
0.000835048
0.000831712
0.000828389
0.00082482
0.000821191
0.00081766
0.000813326
0.000809713
0.000804863
0.000851587
0.000850642
0.000849977
0.000849125
0.000848318
0.000847311
0.000846296
0.00084513
0.000843955
0.000842707
0.000841457
0.000839897
0.000838487
0.000836643
0.000835126
0.000832974
0.000831365
0.00082892
0.000851565
0.000850667
0.000849906
0.000849112
0.000848404
0.000847641
0.000846956
0.000846207
0.000845545
0.000844793
0.000844157
0.000843361
0.000842697
0.000841825
0.000841114
0.000840156
0.000839391
0.000838352
0.00085155
0.000850676
0.000849882
0.000849097
0.000848383
0.000847666
0.000847019
0.000846361
0.000845773
0.000845163
0.000844623
0.000844051
0.000843542
0.000842992
0.000842499
0.00084196
0.000841474
0.00084094
0.000851543
0.000850677
0.000849868
0.000849088
0.000848358
0.000847652
0.000846993
0.000846353
0.000845756
0.000845174
0.00084463
0.000844099
0.000843602
0.000843115
0.000842656
0.000842207
0.00084178
0.000841363
0.000851539
0.000850676
0.000849859
0.00084908
0.000848342
0.000847636
0.000846968
0.000846329
0.000845722
0.000845141
0.000844589
0.00084406
0.000843557
0.000843074
0.000842614
0.000842172
0.00084175
0.000841345
0.000851538
0.000850674
0.000849854
0.000849073
0.000848331
0.000847623
0.00084695
0.000846308
0.000845697
0.000845113
0.000844556
0.000844023
0.000843515
0.000843029
0.000842564
0.000842119
0.000841693
0.000841287
0.000851537
0.000850673
0.000849851
0.000849068
0.000848324
0.000847614
0.000846939
0.000846294
0.00084568
0.000845093
0.000844533
0.000843998
0.000843486
0.000842997
0.000842529
0.000842081
0.000841653
0.000841243
0.000851538
0.000850676
0.000849855
0.000849073
0.000848328
0.000847618
0.000846942
0.000846296
0.000845681
0.000845092
0.000844531
0.000843994
0.00084348
0.000842989
0.000842519
0.00084207
0.00084164
0.000841228
0.000851538
0.000850676
0.000849854
0.000849071
0.000848326
0.000847615
0.000846938
0.000846291
0.000845674
0.000845085
0.000844522
0.000843984
0.000843469
0.000842976
0.000842505
0.000842055
0.000841623
0.00084121
0.000851537
0.000850672
0.000849849
0.000849065
0.000848318
0.000847606
0.000846927
0.00084628
0.000845661
0.000845071
0.000844506
0.000843967
0.000843451
0.000842958
0.000842486
0.000842035
0.000841602
0.000841189
0.000851537
0.000850673
0.00084985
0.000849067
0.00084832
0.000847609
0.00084693
0.000846283
0.000845664
0.000845074
0.000844509
0.00084397
0.000843454
0.000842961
0.000842488
0.000842036
0.000841603
0.000841189
0.000851537
0.000850675
0.000849852
0.000849071
0.000848324
0.000847615
0.000846936
0.00084629
0.000845671
0.000845082
0.000844515
0.000843976
0.000843456
0.00084296
0.000842481
0.000842023
0.000841579
0.000841154
0.000851535
0.000850679
0.000849853
0.000849078
0.000848327
0.000847623
0.000846935
0.000846289
0.000845651
0.000845052
0.000844455
0.000843891
0.000843321
0.000842781
0.000842225
0.000841698
0.000841149
0.000840632
0.000851526
0.000850686
0.000849852
0.00084909
0.000848299
0.000847567
0.000846781
0.00084604
0.000845227
0.000844452
0.000843585
0.000842746
0.000841802
0.000840874
0.000839821
0.000838814
0.000837652
0.000836584
0.000851476
0.000850708
0.000849854
0.000848978
0.000847777
0.000846539
0.000844904
0.000843257
0.000841188
0.000839133
0.000836666
0.000834209
0.000831396
0.000828522
0.000825457
0.000822367
0.00081898
0.000815863
0.000851299
0.000850136
0.00084919
0.000846564
0.000842267
0.0008372
0.000830977
0.000824366
0.000816563
0.000809181
0.000800788
0.000793006
0.000784321
0.000776402
0.00076763
0.000759866
0.000751266
0.000743998
0.000847387
0.000835941
0.000837616
0.000823648
0.000803657
0.000783712
0.000761365
0.000741037
0.000719533
0.000700795
0.000681392
0.000664858
0.000647645
0.000633163
0.000617865
0.000605263
0.000591717
0.000580977
0.000783608
0.000785658
0.000749102
0.000696644
0.000642315
0.000596908
0.000554742
0.000520992
0.000489515
0.000464828
0.000441249
0.000422962
0.000404788
0.000390793
0.000376289
0.000365307
0.00035347
0.000344785
0.000499781
0.00050183
0.000426001
0.000358266
0.000307392
0.000271605
0.000243342
0.000222792
0.000205421
0.000192695
0.00018129
0.000173018
0.000165083
0.000159431
0.00015361
0.000149584
0.000145152
0.000142168
0.000142611
0.000127377
0.000101514
8.48902e-05
7.43836e-05
6.76404e-05
6.30539e-05
6.00647e-05
5.79912e-05
5.67467e-05
5.59434e-05
5.56458e-05
5.55284e-05
5.57546e-05
5.60099e-05
5.58503e-05
5.52508e-05
5.46648e-05
6.1724e-06
8.0901e-06
9.64819e-06
1.08726e-05
1.17889e-05
1.24686e-05
1.29402e-05
1.3281e-05
1.35264e-05
1.36945e-05
1.37866e-05
1.38399e-05
1.38561e-05
1.38393e-05
1.37892e-05
1.37357e-05
1.36818e-05
1.36283e-05
3.69201e-10
1.34392e-08
3.45824e-08
6.70566e-08
1.07143e-07
1.54289e-07
2.31751e-07
3.59765e-07
5.5021e-07
7.98587e-07
1.0679e-06
1.33976e-06
1.59445e-06
1.81699e-06
2.00833e-06
2.16116e-06
2.27872e-06
2.35621e-06
2.40378e-06
2.40341e-06
2.37704e-06
2.34005e-06
2.2533e-06
2.11139e-06
1.90734e-06
1.63464e-06
1.29654e-06
9.12875e-07
5.32644e-07
2.34326e-07
7.08459e-08
1.87973e-08
1.35272e-08
1.42716e-08
1.62089e-08
1.91198e-08
2.26547e-08
2.5551e-08
2.90253e-08
4.555e-08
1.21703e-07
2.77238e-07
5.19708e-07
7.27254e-07
8.5923e-07
8.57245e-07
8.16598e-07
7.38483e-07
6.42165e-07
5.64346e-07
5.48021e-07
6.38028e-07
8.3968e-07
9.06549e-07
1.07617e-06
1.40406e-06
2.70845e-06
7.47434e-06
1.30164e-05
1.79122e-05
2.20824e-05
2.51229e-05
2.65589e-05
2.78163e-05
2.89765e-05
3.00999e-05
3.11932e-05
3.21664e-05
3.31079e-05
3.39801e-05
3.48253e-05
3.56259e-05
3.64046e-05
3.71533e-05
3.78842e-05
3.85942e-05
3.92891e-05
3.99685e-05
4.06376e-05
4.1294e-05
4.19423e-05
4.25809e-05
4.32123e-05
4.38362e-05
4.44536e-05
4.50648e-05
4.56698e-05
4.62694e-05
4.68631e-05
4.74515e-05
4.80338e-05
4.86101e-05
4.91799e-05
4.9743e-05
5.0299e-05
5.0848e-05
5.13903e-05
5.19272e-05
5.24612e-05
5.29969e-05
5.35409e-05
5.40854e-05
5.46286e-05
5.51741e-05
5.57219e-05
5.62727e-05
5.6827e-05
5.7385e-05
5.79474e-05
5.85144e-05
5.90868e-05
5.96648e-05
6.02493e-05
6.08407e-05
6.14399e-05
6.20474e-05
6.26643e-05
6.32912e-05
6.39293e-05
6.45794e-05
6.52429e-05
6.59208e-05
6.66148e-05
6.73262e-05
6.80566e-05
6.88076e-05
6.95939e-05
7.03988e-05
7.12226e-05
7.20752e-05
7.21122e-05
7.18811e-05
7.16291e-05
7.13584e-05
7.10733e-05
7.07715e-05
7.04498e-05
7.01097e-05
6.97542e-05
6.93816e-05
6.89933e-05
6.85892e-05
6.81699e-05
6.77357e-05
6.72871e-05
6.68248e-05
6.63497e-05
6.58593e-05
6.53649e-05
6.4844e-05
6.43281e-05
6.37818e-05
6.32453e-05
6.26761e-05
6.21222e-05
6.15335e-05
6.09659e-05
6.0361e-05
5.97824e-05
5.91671e-05
5.85696e-05
5.79548e-05
5.73403e-05
5.67201e-05
5.60965e-05
5.54699e-05
5.4841e-05
5.42106e-05
5.35791e-05
5.29467e-05
5.2313e-05
5.16771e-05
5.10377e-05
5.03927e-05
4.97373e-05
4.90643e-05
4.83697e-05
4.76958e-05
4.7161e-05
4.53307e-05
1.79402e-09
6.92801e-09
4.4438e-08
1.33945e-07
3.86219e-07
1.34015e-06
3.12139e-06
5.72562e-06
9.09795e-06
1.25056e-05
1.62436e-05
2.06894e-05
2.42805e-05
2.72142e-05
2.94573e-05
3.07869e-05
3.1296e-05
3.10851e-05
3.04493e-05
2.83854e-05
2.57099e-05
2.1497e-05
1.72307e-05
1.33921e-05
1.01805e-05
7.52527e-06
5.43844e-06
3.85189e-06
2.5986e-06
1.67542e-06
1.01754e-06
5.98848e-07
3.70063e-07
2.46724e-07
1.81599e-07
1.47479e-07
1.52885e-07
2.73513e-07
5.90379e-07
1.20286e-06
4.69984e-06
9.98286e-06
1.70395e-05
2.17142e-05
2.36313e-05
2.24869e-05
2.08675e-05
1.65783e-05
1.26333e-05
1.12038e-05
1.19083e-05
1.18678e-05
1.1455e-05
1.23978e-05
1.53551e-05
2.02182e-05
2.73803e-05
3.74449e-05
4.70099e-05
5.82157e-05
7.0713e-05
8.43957e-05
9.91943e-05
0.000114604
0.000130577
0.000146585
0.000162518
0.000178004
0.000192967
0.00020724
0.000220817
0.000233686
0.000245784
0.000257421
0.000268324
0.000278897
0.000289013
0.000298656
0.000308038
0.000317082
0.000325902
0.000334477
0.000342861
0.000351058
0.000359092
0.000366973
0.000374713
0.00038232
0.000389801
0.000397161
0.000404401
0.000411521
0.000418517
0.000425379
0.000432092
0.000438632
0.000444958
0.000451015
0.000456716
0.000461946
0.000466557
0.000470952
0.000475259
0.000479427
0.000483481
0.000487406
0.000491207
0.000494877
0.000498418
0.000501825
0.000505096
0.00050823
0.000511225
0.000514078
0.000516788
0.000519353
0.000521772
0.000524043
0.000526166
0.000528138
0.000529961
0.000531632
0.000533152
0.000534522
0.000535744
0.000536821
0.000537762
0.0005386
0.00053934
0.000540054
0.000540845
0.000541498
0.00054201
0.000542312
0.000542545
0.000542682
0.000542687
0.000542514
0.000542224
0.000541807
0.000541266
0.000540603
0.000539819
0.000538915
0.000537891
0.000536741
0.000535453
0.000534261
0.000532613
0.000531342
0.000529436
0.000527987
0.000525869
0.000524251
0.000521945
0.000520178
0.00051772
0.000515829
0.000513268
0.000511209
0.000508703
0.000506333
0.000503876
0.000501388
0.000498862
0.000496306
0.000493726
0.000491128
0.000488516
0.000485894
0.000483257
0.000480596
0.000477895
0.000475139
0.000472254
0.000469159
0.000465699
0.000461402
0.00045533
0.000438728
2.13689e-09
5.58521e-09
6.27626e-08
3.53527e-07
1.06081e-06
2.91685e-06
6.48728e-06
1.13128e-05
1.74393e-05
2.45565e-05
3.23341e-05
4.03922e-05
4.84282e-05
5.563e-05
6.16493e-05
6.63386e-05
6.95125e-05
7.15828e-05
7.23366e-05
7.18258e-05
6.94833e-05
6.53974e-05
6.00163e-05
5.25366e-05
4.40283e-05
3.55373e-05
2.74249e-05
2.03934e-05
1.46753e-05
1.02784e-05
7.02649e-06
4.53713e-06
2.91893e-06
1.92179e-06
1.36732e-06
1.08703e-06
9.92062e-07
1.27541e-06
2.67394e-06
5.64309e-06
1.74945e-05
3.49043e-05
4.91755e-05
5.75309e-05
6.07561e-05
5.64353e-05
4.74149e-05
3.30331e-05
2.62451e-05
2.65321e-05
2.96521e-05
3.51179e-05
4.20854e-05
5.39868e-05
6.99271e-05
8.59901e-05
0.000105972
0.000128859
0.000156857
0.000188586
0.000223676
0.000260455
0.000298543
0.000336285
0.000373397
0.000408855
0.000442609
0.000474313
0.000504096
0.000532005
0.000558225
0.00058299
0.00060626
0.000628675
0.000650042
0.000670513
0.000690264
0.000709353
0.000727924
0.000745982
0.000763623
0.000780861
0.000797748
0.000814302
0.000830549
0.000846503
0.000862178
0.000877581
0.000892718
0.000907588
0.000922189
0.00093651
0.000950538
0.000964252
0.000977626
0.000990626
0.00100321
0.00101534
0.00102698
0.0010381
0.00104881
0.00105929
0.00106952
0.00107948
0.00108917
0.0010986
0.00110774
0.0011166
0.00112517
0.00113345
0.00114143
0.0011491
0.00115647
0.00116353
0.00117027
0.00117669
0.00118279
0.00118856
0.00119401
0.00119914
0.00120393
0.00120839
0.00121253
0.00121634
0.00121983
0.00122301
0.00122589
0.0012285
0.00123084
0.00123297
0.00123488
0.00123647
0.00123773
0.00123855
0.00123908
0.00123954
0.00123955
0.00123927
0.00123868
0.0012378
0.00123664
0.00123519
0.00123346
0.00123146
0.0012292
0.00122667
0.00122389
0.00122098
0.0012176
0.00121432
0.00121042
0.00120672
0.00120234
0.00119824
0.00119342
0.00118897
0.0011838
0.00117905
0.0011736
0.00116856
0.00116303
0.00115757
0.00115197
0.00114628
0.00114051
0.00113467
0.00112878
0.00112284
0.00111686
0.00111087
0.00110484
0.00109876
0.0010926
0.0010863
0.00107975
0.00107277
0.00106505
0.00105563
0.00104253
0.00101289
2.15135e-09
1.30993e-08
1.86023e-07
8.49213e-07
2.48211e-06
6.7226e-06
1.36539e-05
2.30508e-05
3.46197e-05
4.74238e-05
6.04567e-05
7.30849e-05
8.44917e-05
9.41777e-05
0.000101616
0.000107368
0.000111278
0.000113293
0.000113754
0.000112799
0.000110553
0.000106491
0.000101582
9.46713e-05
8.63053e-05
7.60804e-05
6.46419e-05
5.27478e-05
4.14305e-05
3.16921e-05
2.37024e-05
1.74805e-05
1.25671e-05
9.06505e-06
6.52054e-06
5.02994e-06
4.31443e-06
4.27262e-06
1.13123e-05
2.24013e-05
4.57828e-05
6.31395e-05
7.29228e-05
7.56291e-05
6.70272e-05
5.41422e-05
5.04197e-05
5.33415e-05
5.72933e-05
6.38403e-05
7.53689e-05
9.25141e-05
0.00010978
0.000135032
0.000162657
0.00019708
0.000238053
0.000284153
0.00033511
0.000388708
0.000443994
0.000499195
0.000553635
0.000606119
0.000656435
0.000704095
0.000749182
0.000791736
0.000831773
0.000869679
0.000905638
0.000940219
0.000972982
0.00100459
0.00103502
0.00106443
0.00109297
0.00112073
0.00114781
0.00117424
0.00120011
0.00122545
0.00125029
0.00127466
0.00129858
0.00132208
0.00134515
0.0013678
0.00139004
0.00141187
0.00143327
0.00145425
0.00147477
0.00149484
0.00151442
0.00153351
0.00155207
0.00157012
0.00158764
0.00160467
0.00162129
0.00163753
0.00165338
0.00166882
0.00168386
0.00169848
0.00171266
0.00172642
0.00173973
0.00175259
0.001765
0.00177694
0.00178842
0.00179943
0.00180995
0.00182
0.00182957
0.00183864
0.00184722
0.00185532
0.00186292
0.00187003
0.00187666
0.00188279
0.00188845
0.00189364
0.00189838
0.00190267
0.00190653
0.00190996
0.00191295
0.00191546
0.00191747
0.00191888
0.00191995
0.00192066
0.00192083
0.00192054
0.00191981
0.00191863
0.00191702
0.00191499
0.00191254
0.00190968
0.00190643
0.00190278
0.00189878
0.00189444
0.00188964
0.00188464
0.00187911
0.00187343
0.00186721
0.0018609
0.00185405
0.00184717
0.00183978
0.00183244
0.0018246
0.00181685
0.00180872
0.00180052
0.00179215
0.00178363
0.00177498
0.00176622
0.00175735
0.00174842
0.00173942
0.00173039
0.0017213
0.00171214
0.00170286
0.00169338
0.00168358
0.00167323
0.00166194
0.0016485
0.0016303
0.00159548
2.87256e-09
4.14848e-08
4.29725e-07
1.80839e-06
6.32692e-06
1.5689e-05
2.95866e-05
4.71249e-05
6.64325e-05
8.56052e-05
0.000103224
0.00011825
0.000129718
0.000138539
0.000144729
0.000148522
0.000150429
0.000150763
0.000149768
0.000147605
0.000144402
0.000139887
0.000134541
0.00012796
0.00012021
0.000110706
9.95895e-05
8.7039e-05
7.34542e-05
5.99924e-05
4.79083e-05
3.76924e-05
2.93701e-05
2.27115e-05
1.85847e-05
1.45901e-05
1.47514e-05
1.94548e-05
3.60877e-05
6.24084e-05
8.58854e-05
9.60231e-05
9.09069e-05
8.44198e-05
8.15669e-05
8.22462e-05
8.64934e-05
9.49694e-05
0.000109253
0.000127105
0.000145895
0.000175359
0.000210394
0.00025351
0.000302237
0.000358365
0.000418931
0.000482903
0.000549148
0.00061596
0.000682445
0.000747518
0.000810675
0.000871359
0.00092948
0.000984936
0.00103739
0.00108749
0.00113567
0.00118144
0.00122535
0.00126757
0.00130819
0.00134749
0.00138555
0.00142252
0.00145851
0.00149362
0.00152791
0.00156144
0.00159427
0.00162644
0.00165797
0.00168891
0.00171926
0.00174904
0.00177826
0.00180693
0.00183505
0.00186262
0.00188964
0.0019161
0.00194199
0.00196732
0.00199206
0.00201622
0.00203979
0.0020628
0.00208525
0.00210716
0.00212856
0.00214946
0.00216984
0.00218969
0.002209
0.00222777
0.00224598
0.00226363
0.00228071
0.00229721
0.00231312
0.00232845
0.00234318
0.00235731
0.00237083
0.00238374
0.00239604
0.00240773
0.00241879
0.00242924
0.00243908
0.0024483
0.00245691
0.00246491
0.00247231
0.00247913
0.00248536
0.00249102
0.00249612
0.00250061
0.00250454
0.00250788
0.00251057
0.00251257
0.00251419
0.00251525
0.00251568
0.00251555
0.00251487
0.00251363
0.00251186
0.00250957
0.00250676
0.00250344
0.00249963
0.00249533
0.00249058
0.00248536
0.00247967
0.00247358
0.002467
0.00246005
0.0024526
0.00244484
0.0024366
0.00242811
0.00241919
0.00241008
0.00240058
0.00239094
0.00238098
0.00237085
0.00236049
0.00234994
0.00233921
0.00232831
0.00231728
0.00230614
0.0022949
0.00228357
0.00227216
0.00226064
0.00224899
0.00223713
0.00222491
0.00221213
0.00219838
0.00218253
0.00216157
0.00212671
2.43097e-09
9.69455e-08
9.80806e-07
4.70787e-06
1.60601e-05
3.4967e-05
5.87623e-05
8.47948e-05
0.000109238
0.0001296
0.000145416
0.000157436
0.000166143
0.00017193
0.000175546
0.000177408
0.000177842
0.000177071
0.000175247
0.000172477
0.000168799
0.00016402
0.000158524
0.000152136
0.000144512
0.000135522
0.000125045
0.00011307
9.97036e-05
8.51109e-05
6.93355e-05
5.52362e-05
4.39082e-05
3.49095e-05
2.94172e-05
2.86051e-05
3.52122e-05
5.56403e-05
8.36627e-05
0.0001015
0.000109044
0.000110307
0.000109465
0.000110275
0.000115157
0.000125807
0.000142986
0.0001543
0.000177536
0.000207889
0.000246242
0.000293522
0.000347547
0.000408936
0.00047473
0.000544912
0.000617204
0.000690908
0.000764926
0.000838251
0.000910265
0.000980393
0.00104839
0.00111373
0.00117648
0.00123722
0.00129543
0.00135129
0.00140508
0.00145681
0.00150673
0.001555
0.00160174
0.00164711
0.00169123
0.0017342
0.00177611
0.00181705
0.00185706
0.00189622
0.00193455
0.0019721
0.00200889
0.00204496
0.00208032
0.00211498
0.00214896
0.00218228
0.00221492
0.0022469
0.00227823
0.00230889
0.0023389
0.00236824
0.00239692
0.00242495
0.00245233
0.00247907
0.0025052
0.00253071
0.0025556
0.00257988
0.00260353
0.00262656
0.00264894
0.00267068
0.00269176
0.00271218
0.00273193
0.00275101
0.0027694
0.00278711
0.00280413
0.00282046
0.00283609
0.00285102
0.00286525
0.00287877
0.00289159
0.00290372
0.00291514
0.00292586
0.0029359
0.00294524
0.00295391
0.0029619
0.00296922
0.00297591
0.00298196
0.00298727
0.00299195
0.00299598
0.00299926
0.00300183
0.00300396
0.00300541
0.0030062
0.00300635
0.00300588
0.00300481
0.00300314
0.00300087
0.00299803
0.00299463
0.00299067
0.00298616
0.00298114
0.00297559
0.00296952
0.00296297
0.00295589
0.00294835
0.00294031
0.00293183
0.00292289
0.00291357
0.00290383
0.00289378
0.00288335
0.00287267
0.00286167
0.00285041
0.00283889
0.00282713
0.00281514
0.00280294
0.00279057
0.00277804
0.00276539
0.00275262
0.00273973
0.00272673
0.00271358
0.00270022
0.00268651
0.0026723
0.00265719
0.00264022
0.0026187
0.00258588
5.59949e-09
2.46285e-07
2.56301e-06
1.30506e-05
3.55074e-05
6.5902e-05
9.7738e-05
0.000124885
0.000146442
0.000162675
0.000175084
0.000183487
0.000189049
0.000192478
0.000194298
0.000194881
0.00019446
0.000193143
0.000190994
0.000188065
0.000184295
0.000179541
0.000174134
0.000167782
0.000160212
0.00014763
0.000131297
0.000115713
0.000100707
8.57723e-05
7.07586e-05
5.66608e-05
4.52888e-05
4.03947e-05
4.29322e-05
5.86002e-05
8.49733e-05
0.000108646
0.000124387
0.000132503
0.000135333
0.000137263
0.000142856
0.000154923
0.000168466
0.000179492
0.000203096
0.000233588
0.000272512
0.00031974
0.000375215
0.000438285
0.000506664
0.000579477
0.000654781
0.000732121
0.000810151
0.000888255
0.000965687
0.00104186
0.00111646
0.0011887
0.00125883
0.0013275
0.00139359
0.00145752
0.00151928
0.00157898
0.00163674
0.00169267
0.00174691
0.00179956
0.00185076
0.00190061
0.0019492
0.00199661
0.00204292
0.00208818
0.00213245
0.00217576
0.00221816
0.00225967
0.00230032
0.00234014
0.00237914
0.00241735
0.00245477
0.00249142
0.00252731
0.00256245
0.00259684
0.0026305
0.00266342
0.00269561
0.00272707
0.00275782
0.00278784
0.00281716
0.00284574
0.00287363
0.00290082
0.00292732
0.00295311
0.00297819
0.00300255
0.0030262
0.00304912
0.00307131
0.00309277
0.00311348
0.00313345
0.00315268
0.00317116
0.00318888
0.00320586
0.00322209
0.00323756
0.00325231
0.0032663
0.00327954
0.00329204
0.00330379
0.0033148
0.00332507
0.00333461
0.00334343
0.00335154
0.00335899
0.0033657
0.00337165
0.00337692
0.0033815
0.00338527
0.00338837
0.00339092
0.00339278
0.00339398
0.00339453
0.00339443
0.00339369
0.00339232
0.00339034
0.00338775
0.00338456
0.00338079
0.00337645
0.00337156
0.0033661
0.00336011
0.00335358
0.00334651
0.00333893
0.00333082
0.00332224
0.00331316
0.00330366
0.00329372
0.0032834
0.00327269
0.00326166
0.00325029
0.00323861
0.00322664
0.00321437
0.00320184
0.00318906
0.00317606
0.00316287
0.00314951
0.00313601
0.00312237
0.0031086
0.00309466
0.00308053
0.00306609
0.00305123
0.00303566
0.00301858
0.00299793
0.00296819
5.06741e-08
6.92306e-07
6.75416e-06
2.93621e-05
6.47922e-05
0.000102514
0.000135075
0.000160377
0.000178608
0.000191386
0.000198983
0.000203247
0.000205263
0.000205835
0.000205484
0.000204526
0.000203125
0.000201336
0.00019902
0.000195937
0.000191955
0.000187002
0.000181198
0.000174115
0.00015764
0.000141171
0.000126067
0.000111958
9.87631e-05
8.63382e-05
7.54083e-05
6.85493e-05
6.94054e-05
8.03204e-05
9.19666e-05
0.000118809
0.000145968
0.00015685
0.000163158
0.00016723
0.00017316
0.000184721
0.000193008
0.000203516
0.000224447
0.000253218
0.000291087
0.00033655
0.000390242
0.000451478
0.000519383
0.000592356
0.000668492
0.000746896
0.000826505
0.000906758
0.000986868
0.00106634
0.00114474
0.00122129
0.00129604
0.00136975
0.00144124
0.00151087
0.00157843
0.00164405
0.00170777
0.00176965
0.0018298
0.00188829
0.00194522
0.00200069
0.00205477
0.00210757
0.00215913
0.00220952
0.00225879
0.00230698
0.00235413
0.00240027
0.00244542
0.00248961
0.00253286
0.00257519
0.00261662
0.00265718
0.00269688
0.00273573
0.00277375
0.00281096
0.00284736
0.00288296
0.00291779
0.00295183
0.0029851
0.0030176
0.00304933
0.00308028
0.00311045
0.00313988
0.00316857
0.00319652
0.00322372
0.00325018
0.00327587
0.00330081
0.00332498
0.00334839
0.00337102
0.00339288
0.00341396
0.00343426
0.00345377
0.00347251
0.00349046
0.00350763
0.00352402
0.00353963
0.00355446
0.00356851
0.00358179
0.0035943
0.00360605
0.00361704
0.00362727
0.00363677
0.00364553
0.00365363
0.00366092
0.00366747
0.00367332
0.00367847
0.00368279
0.00368647
0.00368954
0.00369191
0.00369358
0.00369458
0.00369492
0.00369461
0.00369365
0.00369207
0.00368987
0.00368706
0.00368365
0.00367965
0.00367508
0.00366993
0.00366423
0.00365797
0.00365116
0.00364381
0.00363592
0.00362752
0.00361863
0.00360926
0.00359945
0.00358921
0.00357858
0.00356757
0.0035562
0.00354449
0.00353244
0.00352007
0.00350739
0.00349443
0.00348122
0.00346778
0.00345414
0.00344033
0.00342634
0.0034122
0.00339789
0.00338341
0.0033688
0.00335389
0.00333844
0.00332185
0.0033025
0.00327636
1.90663e-07
1.71869e-06
1.58842e-05
5.16642e-05
9.55488e-05
0.000134427
0.000164324
0.000185615
0.000199837
0.000208129
0.000212578
0.000214204
0.000213974
0.000212658
0.000210783
0.000208641
0.000206307
0.000203685
0.000200551
0.00019686
0.000192467
0.000187196
0.000180857
0.000164317
0.000148075
0.000133261
0.000119005
0.000105984
9.54295e-05
9.00807e-05
9.15874e-05
9.11941e-05
0.000102279
0.000124315
0.000151378
0.000175641
0.000195009
0.000204927
0.000210947
0.000214537
0.000216652
0.000225899
0.000243437
0.000269294
0.000304001
0.000346665
0.000397244
0.000454778
0.000519183
0.00058943
0.000664157
0.000741798
0.000821136
0.000901485
0.000982185
0.00106275
0.00114268
0.00122141
0.00129851
0.00137471
0.00144927
0.00152219
0.00159328
0.00166261
0.00173017
0.00179601
0.00186018
0.00192274
0.00198374
0.00204326
0.00210138
0.00215817
0.0022137
0.00226802
0.0023212
0.00237327
0.00242423
0.00247412
0.00252296
0.00257077
0.00261755
0.00266333
0.00270812
0.00275194
0.0027948
0.00283675
0.00287779
0.002918
0.00295733
0.00299578
0.00303338
0.00307013
0.00310605
0.00314115
0.00317544
0.00320892
0.00324161
0.00327351
0.00330464
0.003335
0.00336458
0.0033934
0.00342144
0.00344871
0.0034752
0.0035009
0.00352582
0.00354995
0.00357328
0.00359583
0.00361758
0.00363853
0.00365869
0.00367805
0.00369662
0.0037144
0.00373139
0.00374758
0.00376299
0.00377762
0.00379148
0.00380455
0.00381687
0.00382842
0.00383921
0.00384926
0.0038586
0.00386725
0.00387508
0.00388219
0.00388861
0.00389432
0.00389922
0.00390352
0.00390716
0.00391011
0.00391238
0.00391398
0.00391493
0.00391523
0.0039149
0.00391395
0.00391238
0.00391021
0.00390745
0.0039041
0.00390018
0.00389568
0.00389063
0.00388502
0.00387885
0.00387213
0.00386488
0.0038571
0.00384881
0.00384005
0.00383082
0.00382115
0.00381107
0.00380059
0.00378972
0.00377848
0.00376687
0.00375491
0.00374262
0.00373002
0.00371712
0.00370397
0.00369058
0.00367698
0.00366318
0.0036492
0.00363504
0.00362071
0.00360618
0.0035914
0.00357622
0.00356018
0.00354201
0.00351899
4.09149e-07
3.80349e-06
2.96777e-05
7.77779e-05
0.000125962
0.000164191
0.000190553
0.000207296
0.000217252
0.000221731
0.000222181
0.000220227
0.000217028
0.000213347
0.000209622
0.000206029
0.000202506
0.000198903
0.000194908
0.000190497
0.000185358
0.000179577
0.000169341
0.000155114
0.000142944
0.000133313
0.000127209
0.000124788
0.00011677
0.000113964
0.000120331
0.000136495
0.000156986
0.000178821
0.000199131
0.000215312
0.00022573
0.000231666
0.000237043
0.00024558
0.000260813
0.000282998
0.000313878
0.000352766
0.000399263
0.000452543
0.00051219
0.000577559
0.000648124
0.000722736
0.000800076
0.000878964
0.000958604
0.00103847
0.0011181
0.00119714
0.0012747
0.00135134
0.00142691
0.00150096
0.00157343
0.0016443
0.00171353
0.00178117
0.00184727
0.00191188
0.00197505
0.00203685
0.0020973
0.00215642
0.00221434
0.00227111
0.00232678
0.00238139
0.002435
0.00248768
0.00253954
0.00259047
0.00264035
0.00268917
0.00273691
0.0027836
0.00282923
0.00287382
0.00291739
0.00295997
0.00300158
0.00304221
0.00308193
0.00312079
0.0031588
0.00319598
0.00323235
0.00326791
0.00330268
0.00333666
0.00336986
0.0034023
0.00343396
0.00346485
0.00349496
0.00352429
0.00355283
0.0035806
0.00360757
0.00363376
0.00365916
0.00368376
0.00370757
0.00373059
0.00375281
0.00377423
0.00379486
0.00381469
0.00383374
0.00385199
0.00386945
0.00388613
0.00390203
0.00391716
0.00393151
0.0039451
0.00395793
0.00397001
0.00398134
0.00399193
0.00400186
0.00401102
0.00401944
0.00402715
0.00403417
0.00404049
0.00404607
0.00405104
0.00405534
0.00405896
0.00406193
0.00406424
0.00406592
0.00406697
0.00406741
0.00406723
0.00406646
0.0040651
0.00406315
0.00406064
0.00405756
0.00405393
0.00404974
0.004045
0.0040397
0.00403386
0.00402748
0.00402058
0.00401317
0.00400527
0.00399691
0.0039881
0.00397886
0.0039692
0.00395914
0.00394868
0.00393784
0.00392662
0.00391504
0.00390312
0.00389088
0.00387834
0.00386554
0.0038525
0.00383922
0.00382573
0.00381205
0.00379819
0.00378415
0.0037699
0.00375538
0.00374022
0.00372341
0.0037038
6.28512e-07
7.46809e-06
4.61479e-05
0.000101262
0.000150174
0.000186685
0.000210631
0.000224019
0.000229331
0.000229323
0.000226071
0.000221045
0.000215252
0.000209329
0.000203584
0.000198148
0.00019266
0.000187174
0.000181494
0.000175457
0.000169066
0.000162008
0.000153846
0.000145038
0.000136572
0.000129841
0.000126792
0.000129153
0.000137398
0.000150859
0.000167395
0.000185179
0.000203002
0.000219332
0.0002323
0.000241525
0.000250829
0.000261036
0.000275721
0.000295338
0.00032259
0.000357234
0.000399301
0.000447908
0.000502458
0.000562365
0.000627229
0.000696502
0.000769446
0.000844979
0.000922024
0.000999731
0.00107752
0.001155
0.00123143
0.00130677
0.0013814
0.00145456
0.00152634
0.00159667
0.0016655
0.00173285
0.00179863
0.00186303
0.00192616
0.00198807
0.00204886
0.00210861
0.00216748
0.00222573
0.00228299
0.00233925
0.00239452
0.00244882
0.00250222
0.00255472
0.00260628
0.00265691
0.00270658
0.00275524
0.00280292
0.00284959
0.00289524
0.00293987
0.00298351
0.00302617
0.0030679
0.00310873
0.0031487
0.00318782
0.00322611
0.00326358
0.00330026
0.00333615
0.00337126
0.0034056
0.00343917
0.00347197
0.00350401
0.00353528
0.00356578
0.0035955
0.00362446
0.00365263
0.00368002
0.00370663
0.00373245
0.00375749
0.00378175
0.00380521
0.00382789
0.00384978
0.00387088
0.00389119
0.00391072
0.00392947
0.00394744
0.00396464
0.00398107
0.00399674
0.00401164
0.0040258
0.0040392
0.00405187
0.0040638
0.00407503
0.00408556
0.00409536
0.00410445
0.00411284
0.00412056
0.0041276
0.00413395
0.00413969
0.00414475
0.00414917
0.00415294
0.00415609
0.00415862
0.00416055
0.00416187
0.00416261
0.00416277
0.00416236
0.00416138
0.00415985
0.00415778
0.00415516
0.004152
0.0041483
0.00414405
0.00413926
0.00413394
0.00412809
0.00412175
0.00411491
0.00410761
0.00409986
0.00409168
0.00408307
0.00407404
0.00406459
0.00405474
0.00404449
0.00403385
0.00402285
0.00401151
0.00399984
0.00398788
0.00397563
0.00396312
0.00395037
0.0039374
0.00392423
0.00391089
0.00389738
0.00388366
0.00386948
0.00385396
0.00383729
7.92594e-07
1.30404e-05
6.32569e-05
0.000124438
0.000174243
0.000208043
0.000227726
0.000236418
0.000237674
0.00023421
0.000227998
0.000220416
0.000212364
0.00020442
0.000196513
0.000189087
0.000182045