/*--------------------------------*- C++ -*----------------------------------*\
  =========                 |
  \\      /  F ield         | OpenFOAM: The Open Source CFD Toolbox
   \\    /   O peration     | Website:  https://openfoam.org
    \\  /    A nd           | Version:  8
     \\/     M anipulation  |
\*---------------------------------------------------------------------------*/
FoamFile
{
    version     2.0;
    format      ascii;
    class       volScalarField;
    location    "1600";
    object      omega;
}
// * * * * * * * * * * * * * * * * * * * * * * * * * * * * * * * * * * * * * //

dimensions      [0 0 -1 0 0 0 0];

internalField   nonuniform List<scalar> 
12225
(
32582.3
42391.4
40638.3
41284.1
38844.8
32582.3
32582.3
38751.9
32582.3
43409.8
45076.3
46821.9
41326.2
32582.3
45872.3
40894.2
32582.3
32582.3
3340.06
7864.24
13780.4
15199.2
15168.5
14811.6
14722.6
17230.5
17761.8
18459.2
18928.4
19597.8
18938.6
18129.5
18432.7
17929.3
17907.6
17241
1014.54
5371.2
6161.38
6160.53
6248.01
6532.77
7042.62
6907.39
7142.28
7058.59
7039.85
7109.44
7289.3
7314.63
7477.09
7582.76
7674.57
7803.51
171.701
2173.39
2704.68
2883.14
2910.09
2887.45
2722.52
2343.91
2506.32
2378.59
2320.53
2365.83
2421.65
2501.56
2554.25
2635.84
2670.91
2754.11
48.6917
886.672
1129.64
1223.14
1297.87
1317.24
1262.95
1087.48
1149.99
1083.25
1042.53
1057.63
1076.61
1115.02
1137.92
1175.41
1192.69
1229.44
357.156
479.995
595.951
689.837
715.906
738.365
746.523
685.481
710.385
674.957
652.339
654.364
660.739
677.451
687.821
705.125
713.696
730.627
427.993
430.269
464.987
489.719
522.924
529.515
538.281
517.584
529.142
513.48
504.898
504.727
506.755
513.586
517.978
525.535
529.416
537.1
435.367
434.647
441.736
449.774
462.184
465.16
468.607
462.72
456.984
460.432
457.428
455.481
455.334
457.906
459.669
462.928
464.715
468.282
437.522
436.358
436.185
437.631
439.035
438.542
437.502
438.993
438.263
435.533
435.845
434.291
433.357
433.765
434.177
435.085
435.719
436.914
438.747
436.626
434.989
433.636
432.513
431.186
429.564
428.256
427.042
425.704
424.699
423.856
423.087
422.609
422.179
421.861
421.597
421.598
438.98
436.756
434.719
432.84
431.068
429.371
427.668
426.084
424.566
423.181
421.864
420.707
419.594
418.629
417.677
416.857
415.993
415.332
439.002
436.78
434.673
432.694
430.804
429.021
427.301
425.68
424.122
422.666
421.268
419.969
418.717
417.558
416.432
415.391
414.372
413.439
439.001
436.778
434.664
432.665
430.76
428.956
427.234
425.602
424.043
422.565
421.153
419.815
418.535
417.321
416.158
415.055
413.998
412.995
439.001
436.775
434.66
432.654
430.747
428.937
427.214
425.576
424.015
422.53
421.115
419.767
418.481
417.256
416.085
414.97
413.903
412.887
439.001
436.773
434.657
432.649
430.74
428.926
427.201
425.559
423.996
422.508
421.09
419.739
418.45
417.221
416.048
414.929
413.859
412.839
439.001
436.772
434.655
432.645
430.734
428.918
427.191
425.547
423.983
422.492
421.072
419.718
418.427
417.196
416.021
414.899
413.828
412.806
439
436.769
434.651
432.639
430.727
428.909
427.18
425.534
423.968
422.476
421.054
419.698
418.406
417.173
415.996
414.873
413.801
412.777
439
436.769
434.651
432.639
430.726
428.908
427.178
425.532
423.965
422.472
421.049
419.693
418.4
417.166
415.989
414.865
413.792
412.768
439
436.771
434.654
432.643
430.732
428.914
427.185
425.54
423.973
422.481
421.059
419.703
418.41
417.176
415.999
414.875
413.803
412.778
439.001
436.772
434.656
432.645
430.735
428.918
427.19
425.546
423.98
422.489
421.068
419.713
418.421
417.188
416.012
414.889
413.817
412.794
439.002
436.773
434.659
432.648
430.74
428.924
427.198
425.555
423.994
422.506
421.09
419.738
418.451
417.221
416.051
414.931
413.866
412.846
439.007
436.77
434.666
432.652
430.748
428.927
427.216
425.587
424.057
422.598
421.227
419.903
418.663
417.455
416.335
415.242
414.232
413.241
439.025
436.753
434.692
432.643
430.765
428.944
427.369
425.869
424.592
423.4
422.383
421.32
420.436
419.446
418.696
417.829
417.183
416.325
439.049
436.734
434.772
432.675
431.033
429.617
428.645
428.009
428.303
428.815
429.892
430.555
431.366
432.09
433.005
434.197
435.105
435.629
439.116
437.03
435.327
434.405
434.584
436.003
439.652
444.105
451.163
456.779
464.682
470.187
477.196
482.698
486.921
492.838
496.673
498.817
440.882
441.004
443.774
450.74
460.402
476.776
493.819
515.426
537.06
561.303
583.896
604.864
623.442
638.727
650.365
661.444
677.094
672.651
465.627
474.233
510.952
555.323
613.082
671.721
740.889
798.219
870.849
929.575
992.776
1051.09
1092.3
1116.51
1142.57
1159.55
1184.72
1200.11
673.412
789.765
1021.29
1252.23
1489.71
1723.92
1951.34
2147.06
2327.4
2479.83
2623.04
2738.92
2846.83
2927.91
3010.12
3069.55
3140.43
3188.97
2638.26
4089.37
5436.03
6548.76
7451.46
8125.64
8613.56
8973.52
9220.14
9371.96
9452.98
9467.57
9455.3
9428.78
9384.75
9337.51
9299.95
9269.32
19167.2
21862.8
23544.4
24464.6
24949.6
25050
24990.9
24846.4
24598
24324
24046.9
23779.1
23528.3
23296.9
23086.2
22895.1
22722.4
22568.3
11463.3
2494.65
2496.87
2499.12
2501.38
2503.67
2505.98
2508.3
2510.65
2513.02
2515.42
2517.83
2520.27
2522.73
2525.21
2527.72
2530.25
2532.8
2535.37
2537.97
2540.6
2543.25
2545.92
2548.62
2551.34
2554.09
2556.87
2559.67
2562.5
2565.35
2568.23
2571.14
2574.08
2577.04
2580.04
2583.06
2586.11
2589.19
2592.3
2595.43
2598.6
2601.8
2605.03
2608.29
2611.59
2614.91
2618.27
2621.66
2625.08
2628.54
2632.03
2635.55
2639.11
2642.71
2646.33
3267.35
3338.47
3394.23
3218.82
3212.62
3375.68
2672.76
3338.41
3379.76
3481.73
3567.98
3646.55
3727.14
3801.23
3874.98
3945.25
4014.35
4081.13
4146.68
4210.47
4273.08
4334.26
4394.31
4453.13
4510.88
4567.52
4623.12
4677.67
4731.22
4783.73
4835.28
4885.76
4935.3
4983.76
5031.22
5077.59
5122.84
5166.92
5209.79
5251.38
5291.66
5330.58
5368.21
5404.62
5440.13
5475.16
5508.95
5541.8
5573.67
5604.51
5634.38
5663.2
5691.03
5717.81
5743.56
5768.27
5791.92
5814.53
5836.07
5856.58
5876.01
5894.43
5911.76
5928.1
5943.34
5957.61
5970.8
5983.02
5994.18
6004.39
6013.57
6021.85
6029.46
6036.29
6040.83
6046.52
6048.54
6051.84
6053.68
6055.52
6056.34
6056.01
6054.07
6051.53
6047.96
6043.65
6038.53
6032.66
6026.07
6018.76
6010.79
6002.17
5993.01
5983.44
5972.94
5962.38
5950.68
5938.99
5926.54
5913.83
5900.77
5887.4
5873.86
5860.13
5846.32
5832.44
5818.53
5804.63
5790.75
5776.93
5763.24
5749.71
5736.42
5723.42
5710.77
5698.45
5686.44
5674.68
5662.89
5650.76
5637.56
5622.4
5602.58
5573.02
5453.43
11463.3
1993.45
998.076
812.375
694.703
624.653
631.776
627.926
616.757
594.235
569.995
546.352
524.547
506.473
494.12
485.289
484.581
486.817
512.224
561.296
645.87
747.58
857.995
967.748
1065.84
1141.9
1184.64
1178.75
1137.15
1058
934.25
781.094
650.236
565.595
498.783
462.147
456.342
464.272
485.48
517.957
547.194
592.986
678.131
805.699
998.847
1306.29
1615.86
1834.43
1978.49
2049.81
2070.73
2063.94
2022.8
1981.34
1937.14
1915.14
1849.21
1798.9
1758.56
1719.43
1698.39
1661.18
1693.85
1672.24
1672.41
1669.92
1669.12
1670.94
1673.87
1678.17
1683.23
1689.14
1695.52
1702.42
1709.6
1717.07
1724.69
1732.45
1740.26
1748.12
1755.97
1763.79
1771.55
1779.23
1786.8
1794.27
1801.58
1808.73
1815.69
1822.45
1828.97
1835.27
1841.33
1847.19
1852.87
1858.45
1864.05
1869.85
1876.15
1883.32
1891.93
1899.81
1907.76
1915.34
1922.77
1929.95
1936.91
1943.64
1950.16
1956.44
1962.51
1968.35
1973.97
1979.37
1984.54
1989.5
1994.24
1998.76
2003.07
2007.16
2011.04
2014.7
2018.16
2021.42
2024.48
2027.34
2030.02
2032.54
2034.84
2036.9
2038.88
2040.52
2042.19
2043.65
2044.95
2045.81
2045.94
2045.43
2044.75
2043.88
2042.82
2041.58
2040.16
2038.58
2036.83
2034.95
2032.97
2031
2027.83
2025.97
2022.55
2020.31
2017.12
2014.13
2011.04
2007.74
2004.48
2001.08
1997.66
1994.17
1990.66
1987.11
1983.54
1979.96
1976.39
1972.82
1969.27
1965.76
1962.31
1958.91
1955.6
1952.38
1949.23
1946.24
1943.44
1940.91
1938.73
1937.46
1936.16
1944.95
11463.3
2012.54
816.52
643.403
684.439
684.874
656.947
601.331
541.414
485.11
435.305
392.988
359.794
333.805
313.817
298.458
287.739
279.553
277.326
279.666
289.963
308.59
340.928
385.031
440.206
500.907
562.402
609.572
640.405
638.354
616.258
574.301
511.858
443.22
392.756
384.568
394.573
417.893
453.788
523.86
633.173
784.384
977.928
1157.71
1306.93
1438.55
1531.07
1562.2
1562.93
1517.14
1464.29
1404.63
1348.1
1297.98
1252.61
1214.94
1183.19
1158.94
1142.25
1128.79
1120.37
1111.21
1109.65
1105.11
1104.64
1104.35
1105.23
1107.01
1109.32
1112.14
1115.32
1118.81
1122.52
1126.43
1130.46
1134.61
1138.83
1143.11
1147.41
1151.74
1156.06
1160.37
1164.66
1168.92
1173.13
1177.3
1181.4
1185.44
1189.41
1193.32
1197.15
1200.93
1204.67
1208.38
1212.08
1215.83
1219.65
1223.59
1227.69
1231.95
1236.23
1240.3
1244.32
1248.18
1251.93
1255.56
1259.06
1262.44
1265.7
1268.83
1271.84
1274.73
1277.49
1280.12
1282.64
1285.02
1287.28
1289.42
1291.42
1293.31
1295.07
1296.7
1298.21
1299.6
1300.87
1302.02
1303.05
1303.97
1304.76
1305.43
1305.99
1306.42
1306.76
1306.96
1307.02
1306.87
1306.47
1305.89
1305.2
1304.41
1303.5
1302.49
1301.38
1300.16
1298.84
1297.44
1295.95
1294.35
1292.5
1290.84
1288.81
1286.99
1284.89
1282.81
1280.66
1278.41
1276.15
1273.81
1271.44
1269.02
1266.57
1264.08
1261.57
1259.04
1256.49
1253.94
1251.38
1248.82
1246.28
1243.75
1241.27
1238.83
1236.47
1234.23
1232.18
1230.44
1229.18
1229.07
1230.46
1240.83
11463.3
2039.56
1015.92
979.572
907.324
777.336
659.858
552.573
467.855
404.692
356.97
319.433
290.593
268.652
251.97
239.319
229.834
222.906
218.233
216.476
217.477
220.482
228.728
242.936
264.476
293.18
327.778
363.036
394.533
417.912
423.961
417.354
395.202
396.425
433.985
522.281
586.136
641.606
710.99
810.503
944.329
1065.92
1145.94
1214.43
1270.25
1292.69
1262.65
1214.25
1171.46
1116.83
1071.88
1029.72
995.336
966.371
942.821
924.217
910.272
899.771
892.365
887.246
884.204
881.345
880.781
880.33
881.224
882.523
884.367
886.594
889.113
891.881
894.841
897.96
901.203
904.547
907.97
911.455
914.988
918.554
922.144
925.747
929.354
932.958
936.55
940.126
943.68
947.206
950.702
954.164
957.592
960.987
964.352
967.692
971.012
974.322
977.629
980.94
984.263
987.596
990.931
994.241
997.475
1000.6
1003.65
1006.6
1009.45
1012.21
1014.87
1017.43
1019.9
1022.26
1024.52
1026.68
1028.74
1030.69
1032.54
1034.28
1035.92
1037.45
1038.87
1040.18
1041.39
1042.49
1043.48
1044.37
1045.15
1045.82
1046.38
1046.84
1047.19
1047.44
1047.58
1047.62
1047.55
1047.36
1047.05
1046.6
1046.01
1045.29
1044.49
1043.59
1042.59
1041.5
1040.32
1039.06
1037.7
1036.26
1034.75
1033.13
1031.4
1029.67
1027.79
1025.92
1023.93
1021.9
1019.81
1017.66
1015.46
1013.21
1010.92
1008.58
1006.21
1003.81
1001.38
998.927
996.456
993.969
991.472
988.969
986.469
983.975
981.504
979.076
976.712
974.454
972.363
970.545
969.157
968.736
969.757
976.129
11463.3
2316.9
1475.65
1190.61
944.822
730.233
563.65
451.954
375.661
322.17
284.18
257.57
238.081
223.27
211.734
202.75
195.905
190.951
187.668
186.115
186.362
187.747
191.607
198.398
209.208
225.06
246.15
270.052
294.146
313.076
328.756
359.014
417.736
519.912
608.039
675.582
744.404
820.216
893.514
958.46
1014.79
1063.12
1096.6
1106.49
1079.77
1031.5
995.723
952.483
916.258
881.351
853.869
829.899
810.928
795.563
783.698
774.734
768.369
763.916
761.48
759.777
759.388
759.525
760.587
762.118
764.153
766.498
769.128
771.974
774.995
778.16
781.442
784.821
788.28
791.803
795.38
799
802.652
806.328
810.021
813.722
817.426
821.127
824.818
828.494
832.152
835.787
839.396
842.977
846.529
850.05
853.542
857.007
860.445
863.857
867.242
870.6
873.925
877.209
880.438
883.601
886.683
889.679
892.589
895.41
898.141
900.78
903.324
905.773
908.125
910.378
912.531
914.582
916.529
918.372
920.108
921.737
923.258
924.669
925.97
927.159
928.238
929.206
930.062
930.805
931.438
931.959
932.368
932.666
932.852
932.923
932.898
932.753
932.496
932.122
931.632
931.017
930.282
929.439
928.498
927.459
926.324
925.094
923.772
922.361
920.861
919.273
917.602
915.836
913.988
912.077
910.079
908.03
905.9
903.712
901.463
899.154
896.794
894.382
891.925
889.424
886.886
884.315
881.716
879.093
876.448
873.785
871.109
868.425
865.74
863.069
860.421
857.81
855.257
852.797
850.483
848.402
846.684
845.697
845.932
849.137
11463.3
2939.35
1739.33
1212.95
835.862
589.66
446.361
357.433
302.462
266.866
242.089
223.732
209.588
198.528
189.722
182.726
177.32
173.387
170.834
169.77
170.101
171.523
174.799
180.05
187.931
199.688
216.259
237.881
266.376
308.745
364.831
456.803
565.303
653.544
721.185
783.57
836.719
877.944
913.108
946.847
966.731
970.753
944.01
912.328
880.528
845.647
816.238
787.326
763.878
743.343
726.985
713.427
702.88
694.77
688.89
684.838
682.573
681.535
681.349
681.997
683.385
685.319
687.723
690.474
693.511
696.762
700.191
703.761
707.447
711.229
715.092
719.023
723.011
727.047
731.122
735.229
739.359
743.506
747.662
751.822
755.979
760.126
764.26
768.376
772.467
776.532
780.565
784.564
788.525
792.45
796.335
800.18
803.984
807.744
811.457
815.119
818.724
822.263
825.728
829.114
832.414
835.626
838.748
841.777
844.71
847.544
850.276
852.906
855.429
857.846
860.154
862.349
864.43
866.395
868.242
869.97
871.576
873.061
874.422
875.66
876.774
877.763
878.627
879.367
879.981
880.471
880.836
881.075
881.18
881.183
881.059
880.808
880.432
879.933
879.31
878.563
877.694
876.711
875.619
874.421
873.117
871.709
870.199
868.593
866.891
865.093
863.202
861.217
859.144
856.992
854.759
852.456
850.076
847.63
845.116
842.54
839.907
837.219
834.483
831.701
828.878
826.022
823.135
820.222
817.286
814.331
811.362
808.384
805.404
802.434
799.486
796.572
793.712
790.935
788.285
785.834
783.685
782.093
781.405
782.477
11463.3
3446.76
1782.86
1039.04
652.852
459.409
359.747
303.973
268.698
243.845
225.108
210.409
198.543
188.715
180.567
173.947
168.783
165.062
162.876
162.34
163.232
165.847
170.659
178.07
188.879
203.523
225.42
260.048
314.44
399.115
504.372
594.686
663.672
723.227
770.647
806.337
834.792
858.03
867.999
867.255
845.452
822.49
796.498
770.694
745.621
721.751
701.318
683.189
668.408
656.054
646.259
638.56
632.863
628.886
626.625
625.669
625.561
626.453
628.088
630.358
633.137
636.334
639.857
643.64
647.628
651.778
656.06
660.449
664.927
669.48
674.097
678.768
683.486
688.241
693.029
697.84
702.667
707.503
712.341
717.175
721.996
726.801
731.583
736.336
741.057
745.741
750.382
754.976
759.522
764.015
768.455
772.839
777.165
781.429
785.627
789.757
793.815
797.797
801.7
805.513
809.232
812.851
816.37
819.784
823.09
826.284
829.363
832.323
835.161
837.869
840.448
842.897
845.213
847.396
849.444
851.354
853.125
854.757
856.247
857.597
858.804
859.87
860.793
861.576
862.216
862.716
863.074
863.282
863.352
863.305
863.11
862.776
862.304
861.696
860.953
860.077
859.071
857.94
856.688
855.317
853.829
852.226
850.508
848.669
846.717
844.659
842.498
840.235
837.876
835.426
832.888
830.269
827.57
824.795
821.947
819.03
816.051
813.013
809.922
806.783
803.601
800.381
797.13
793.851
790.548
787.225
783.887
780.541
777.194
773.856
770.538
767.255
764.023
760.867
757.823
754.947
752.323
750.118
748.506
747.987
11463.3
3588.98
1566.41
817.737
516.642
383.15
314.597
274.454
248.436
230.131
216.075
204.307
194.006
185.094
177.543
171.434
166.947
164.258
163.31
163.975
166.473
171.415
179.4
192.365
212.827
243.209
289.583
362.257
450.13
531.123
595.943
651.012
697.5
734.635
764.399
784.148
791.508
785.961
769.472
752.081
731.371
711.563
691.64
672.587
654.719
638.706
625.085
613.542
604.181
596.684
590.975
586.858
584.312
583.175
582.969
583.77
585.431
587.842
590.863
594.396
598.345
602.637
607.202
611.987
616.947
622.05
627.27
632.585
637.981
643.444
648.964
654.531
660.139
665.778
671.443
677.126
682.816
688.507
694.189
699.856
705.499
711.113
716.691
722.227
727.716
733.156
738.537
743.855
749.107
754.289
759.4
764.435
769.394
774.271
779.064
783.769
788.385
792.912
797.339
801.659
805.866
809.956
813.927
817.774
821.495
825.086
828.542
831.86
835.036
838.068
840.953
843.687
846.27
848.698
850.97
853.083
855.037
856.83
858.461
859.929
861.235
862.379
863.361
864.182
864.841
865.339
865.676
865.837
865.861
865.734
865.445
865
864.401
863.65
862.751
861.704
860.515
859.186
857.722
856.125
854.397
852.542
850.56
848.457
846.234
843.894
841.441
838.878
836.209
833.439
830.574
827.619
824.577
821.451
818.246
814.967
811.62
808.211
804.745
801.227
797.663
794.059
790.422
786.755
783.062
779.349
775.622
771.886
768.151
764.425
760.721
757.051
753.431
749.881
746.432
743.124
739.994
737.185
734.772
732.922
11463.3
3409.38
1282.85
662.888
446.399
350.555
298.319
266.55
244.837
228.492
215.521
204.775
195.638
187.84
181.409
176.576
173.66
172.822
174.323
178.232
185.378
197.176
215.131
243.608
287.489
346.724
414.7
477.99
534.975
584.375
626.726
662.312
692.852
714.757
723.009
720.665
708.175
694.37
678.126
662.508
646.864
632.003
617.525
603.896
591.5
580.718
571.678
564.268
558.446
554.088
551.101
549.59
549.134
549.615
551.071
553.372
556.409
560.084
564.3
568.973
574.028
579.4
585.03
590.871
596.886
603.042
609.317
615.693
622.149
628.672
635.247
641.865
648.514
655.185
661.877
668.577
675.274
681.957
688.619
695.249
701.84
708.385
714.878
721.31
727.672
733.947
740.148
746.27
752.311
758.266
764.131
769.905
775.584
781.164
786.64
792.009
797.266
802.403
807.416
812.302
817.055
821.671
826.147
830.48
834.663
838.696
842.571
846.287
849.838
853.221
856.433
859.472
862.333
865.016
867.519
869.839
871.975
873.926
875.691
877.269
878.662
879.869
880.893
881.733
882.389
882.863
883.145
883.246
883.188
882.948
882.532
881.941
881.178
880.247
879.15
877.89
876.472
874.9
873.176
871.304
869.288
867.13
864.832
862.4
859.836
857.144
854.327
851.39
848.337
845.172
841.902
838.534
835.07
831.515
827.875
824.155
820.363
816.504
812.584
808.609
804.585
800.519
796.417
792.284
788.125
783.945
779.752
775.552
771.355
767.169
763.006
758.878
754.8
750.789
746.87
743.081
739.461
736.105
733.027
730.137
11463.3
2977.53
1032.95
564.566
402.894
328.923
289.45
263.838
246.182
233.184
222.737
213.913
206.437
200.412
196.188
194.442
195.304
199.696
207.618
219.604
237.606
263.67
299.356
343.444
391.403
439.994
485.956
527.329
564.386
596.272
624.41
648.318
659.774
661.53
654.944
645.084
632.484
620.105
607.866
596.322
585.101
574.292
563.898
554.273
545.73
538.472
532.548
527.925
524.565
522.537
521.729
521.749
522.84
524.839
527.684
531.289
535.568
540.44
545.828
551.662
557.878
564.417
571.223
578.25
585.46
592.821
600.309
607.92
615.612
623.368
631.172
639.008
646.857
654.696
662.491
670.253
678.001
685.733
693.433
701.092
708.702
716.254
723.741
731.157
738.497
745.761
752.928
759.988
766.933
773.761
780.47
787.058
793.52
799.854
806.054
812.117
818.04
823.816
829.444
834.921
840.24
845.399
850.392
855.217
859.868
864.342
868.634
872.739
876.654
880.374
883.895
887.215
890.332
893.242
895.946
898.439
900.722
902.793
904.651
906.297
907.732
908.956
909.973
910.782
911.386
911.78
911.959
911.952
911.746
911.342
910.741
909.946
908.963
907.792
906.439
904.907
903.2
901.323
899.279
897.072
894.706
892.185
889.511
886.689
883.723
880.618
877.378
874.007
870.509
866.89
863.157
859.316
855.371
851.329
847.196
842.979
838.685
834.322
829.895
825.409
820.872
816.29
811.67
807.018
802.339
797.641
792.932
788.218
783.51
778.815
774.146
769.514
764.932
760.415
755.986
751.675
747.511
743.567
739.827
735.98
11463.3
2498.29
897.844
526.273
389.907
325.252
290.139
269.485
255.728
245.587
237.608
231.314
226.814
224.851
225.358
229.656
237.917
249.391
264.367
284.986
311.445
342.751
377.242
412.832
447.786
481.063
511.819
539.038
563.86
586.794
601.113
605.698
604.62
599.508
591.273
582.11
572.739
563.884
555.386
547.202
539.178
531.388
524.001
517.299
511.513
506.781
503.15
500.622
499.358
499.037
499.682
501.283
503.817
507.213
511.411
516.334
521.911
528.071
534.748
541.881
549.427
557.33
565.518
573.945
582.568
591.343
600.218
609.102
618.061
627.095
636.187
645.316
654.458
663.593
672.721
681.822
690.879
699.893
708.836
717.7
726.478
735.165
743.756
752.242
760.616
768.864
776.976
784.947
792.774
800.452
807.982
815.361
822.586
829.652
836.556
843.295
849.864
856.262
862.485
868.527
874.386
880.054
885.528
890.804
895.879
900.747
905.404
909.846
914.067
918.064
921.832
925.37
928.674
931.742
934.575
937.169
939.524
941.638
943.511
945.145
946.54
947.701
948.628
949.325
949.792
950.021
950.029
949.817
949.384
948.732
947.865
946.787
945.501
944.011
942.323
940.44
938.367
936.108
933.668
931.052
928.262
925.304
922.182
918.9
915.463
911.876
908.145
904.273
900.267
896.129
891.87
887.494
883.008
878.418
873.735
868.964
864.114
859.192
854.204
849.156
844.053
838.904
833.716
828.494
823.247
817.983
812.71
807.437
802.172
796.924
791.705
786.525
781.396
776.333
771.356
766.489
761.754
757.21
752.831
748.118
11463.3
2083.8
788.529
488.205
377.443
325.248
297.625
281.286
270.727
263.485
258.49
255.893
255.381
257.789
263.698
273.201
285.735
301.031
319.891
341.993
366.462
392.247
418.346
443.938
468.322
490.74
511.787
531.932
547.088
554.129
555.92
555.508
551.755
546.315
540.043
533.714
527.547
521.613
515.79
510.029
504.339
498.856
493.785
489.352
485.738
483.047
481.46
480.89
481.213
482.539
484.809
487.996
492.071
497.002
502.766
509.246
516.375
524.089
532.321
540.989
549.974
559.225
568.792
578.648
588.756
599.074
609.568
620.24
631.014
641.841
652.689
663.538
674.345
685.069
695.692
706.195
716.561
726.778
736.866
746.831
756.677
766.404
776.009
785.485
794.821
804
813.01
821.843
830.497
838.969
847.258
855.363
863.282
871.009
878.542
885.877
893.012
899.944
906.671
913.188
919.489
925.569
931.422
937.046
942.437
947.591
952.502
957.167
961.581
965.737
969.635
973.27
976.641
979.746
982.586
985.159
987.463
989.497
991.262
992.761
993.996
994.969
995.687
996.148
996.358
996.314
996.024
995.49
994.717
993.707
992.463
990.992
989.297
987.385
985.26
982.926
980.389
977.654
974.726
971.608
968.307
964.826
961.171
957.346
953.358
949.212
944.913
940.467
935.88
931.156
926.303
921.325
916.234
911.037
905.744
900.364
894.903
889.37
883.769
878.107
872.389
866.624
860.817
854.979
849.116
843.241
837.362
831.487
825.624
819.783
813.974
808.205
802.491
796.844
791.284
785.831
780.502
775.344
770.338
764.824
11463.3
1948.05
768.991
485.422
380.897
334.172
310.263
296.854
288.886
284.414
282.617
282.625
285.462
291.162
299.687
310.772
324.083
339.647
357.04
375.674
394.936
414.162
432.807
450.614
467.88
484.699
498.636
507.248
511.435
512.975
513.068
511.392
508.425
504.862
501.062
497.232
493.406
489.571
485.71
481.863
478.136
474.691
471.715
469.39
467.967
467.456
467.845
469.354
471.799
475.164
479.428
484.56
490.506
497.166
504.387
512.326
520.974
530.279
540.18
550.617
561.561
572.966
584.746
596.851
609.234
621.843
634.622
647.54
660.518
673.453
686.273
698.908
711.326
723.513
735.453
747.14
758.579
769.786
780.799
791.649
802.349
812.911
823.34
833.628
843.754
853.689
863.418
872.935
882.238
891.323
900.191
908.841
917.27
925.473
933.446
941.189
948.699
955.976
963.015
969.814
976.365
982.663
988.703
994.481
999.994
1005.24
1010.21
1014.91
1019.32
1023.45
1027.28
1030.83
1034.08
1037.03
1039.69
1042.06
1044.13
1045.91
1047.39
1048.58
1049.48
1050.09
1050.44
1050.5
1050.29
1049.81
1049.06
1048.05
1046.79
1045.28
1043.52
1041.51
1039.28
1036.81
1034.12
1031.22
1028.1
1024.77
1021.24
1017.51
1013.6
1009.49
1005.2
1000.74
996.111
991.316
986.364
981.262
976.016
970.63
965.113
959.465
953.703
947.837
941.878
935.832
929.706
923.507
917.243
910.917
904.536
898.107
891.637
885.136
878.618
872.092
865.567
859.053
852.556
846.085
839.648
833.256
826.921
820.659
814.486
808.421
802.476
796.69
791.065
784.797
11463.3
1890.88
752.281
484.501
388.798
346.169
325.145
313.917
307.868
305.189
304.626
306.531
311.064
317.9
326.731
337.232
349.12
362.129
375.875
389.96
403.957
417.774
431.576
445.051
456.613
464.725
470.442
474.353
476.495
477.389
477.573
476.948
475.743
474.23
472.534
470.72
468.823
466.887
464.993
463.286
462.005
461.255
461.037
461.502
462.794
464.892
467.722
471.086
475.328
480.538
486.721
493.856
501.908
510.856
520.726
531.425
542.921
555.139
568.003
581.445
595.407
609.819
624.585
639.635
654.931
670.396
685.882
701.263
716.435
731.342
745.91
760.077
773.803
787.067
799.864
812.2
824.105
835.651
846.945
858.084
869.074
879.941
890.717
901.381
911.887
922.166
932.21
942.017
951.582
960.902
969.973
978.795
987.364
995.676
1003.73
1011.52
1019.05
1026.33
1033.33
1040.07
1046.54
1052.73
1058.63
1064.24
1069.56
1074.59
1079.31
1083.74
1087.86
1091.66
1095.15
1098.33
1101.18
1103.71
1105.93
1107.84
1109.43
1110.7
1111.66
1112.32
1112.67
1112.7
1112.45
1111.9
1111.05
1109.92
1108.51
1106.83
1104.88
1102.67
1100.22
1097.52
1094.58
1091.4
1088
1084.37
1080.52
1076.47
1072.21
1067.74
1063.09
1058.24
1053.21
1048.01
1042.63
1037.09
1031.39
1025.54
1019.55
1013.42
1007.17
1000.78
994.281
987.687
981.004
974.237
967.393
960.478
953.499
946.461
939.372
932.235
925.058
917.857
910.646
903.435
896.233
889.047
881.883
874.751
867.655
860.608
853.625
846.721
839.913
833.216
826.639
820.213
813.972
806.991
11463.3
1851.12
746.414
490.181
399.726
359.716
340.027
329.614
324.239
322.049
321.763
324.13
328.763
335.157
342.87
351.569
361.027
371.025
381.31
391.697
402.345
412.59
421.399
428.672
434.647
439.828
443.936
447.199
449.786
451.904
453.723
455.347
456.674
457.765
458.683
459.487
460.238
461
461.832
462.754
463.641
464.963
467.022
470.075
474.159
479.215
485.253
492.395
500.585
509.841
520.177
531.549
543.904
557.204
571.426
586.501
602.48
619.148
636.357
653.999
671.974
690.179
708.506
726.844
745.053
763.023
780.696
797.971
814.734
830.878
846.293
860.939
874.805
887.916
900.301
911.951
922.918
933.376
943.597
953.89
964.091
974.249
984.494
994.739
1004.88
1014.86
1024.63
1034.15
1043.41
1052.39
1061.09
1069.53
1077.68
1085.55
1093.13
1100.43
1107.45
1114.19
1120.65
1126.83
1132.72
1138.31
1143.6
1148.58
1153.25
1157.61
1161.66
1165.4
1168.81
1171.89
1174.65
1177.07
1179.15
1180.89
1182.31
1183.4
1184.17
1184.61
1184.72
1184.53
1184.01
1183.16
1182.01
1180.55
1178.8
1176.75
1174.42
1171.82
1168.94
1165.8
1162.42
1158.8
1154.93
1150.83
1146.5
1141.96
1137.19
1132.22
1127.05
1121.68
1116.12
1110.37
1104.45
1098.35
1092.08
1085.66
1079.08
1072.36
1065.5
1058.52
1051.42
1044.22
1036.94
1029.56
1022.1
1014.56
1006.95
999.263
991.52
983.725
975.884
968.001
960.082
952.152
944.222
936.299
928.391
920.506
912.649
904.83
897.05
889.326
881.675
874.113
866.653
859.311
852.093
845.02
838.167
830.51
11463.3
1832.63
746.033
498.428
409.633
370.662
351.719
341.317
335.757
333.426
333.007
334.965
338.878
344.17
350.408
357.34
364.837
372.801
381.002
388.933
396.483
403.632
410.575
417.072
423.209
429.069
434.612
439.873
444.804
449.378
453.514
456.98
460.196
463.317
466.424
469.597
472.923
476.493
480.409
484.798
489.918
495.901
502.982
511.434
521.085
531.803
543.625
556.606
570.694
585.888
602.302
619.769
638.096
657.148
676.802
696.913
717.264
737.827
758.521
779.246
799.903
820.393
840.627
860.519
879.983
898.943
917.335
935.086
952.106
968.283
983.411
997.552
1010.77
1023.17
1034.8
1045.71
1055.93
1065.49
1074.53
1083.2
1091.59
1099.98
1108.92
1118
1127.01
1135.89
1144.55
1152.94
1161.02
1168.8
1176.29
1183.48
1190.38
1196.97
1203.27
1209.27
1214.98
1220.42
1225.58
1230.47
1235.07
1239.38
1243.38
1247.08
1250.47
1253.56
1256.35
1258.82
1260.98
1262.81
1264.33
1265.5
1266.33
1266.83
1267
1266.87
1266.41
1265.61
1264.49
1263.06
1261.31
1259.25
1256.9
1254.25
1251.32
1248.11
1244.63
1240.88
1236.88
1232.63
1228.13
1223.4
1218.44
1213.25
1207.85
1202.25
1196.44
1190.43
1184.23
1177.85
1171.28
1164.55
1157.64
1150.57
1143.35
1135.98
1128.46
1120.81
1113.04
1105.14
1097.14
1089.07
1080.92
1072.68
1064.36
1055.97
1047.5
1038.98
1030.4
1021.77
1013.11
1004.44
995.76
987.086
978.42
969.767
961.134
952.529
943.959
935.435
926.956
918.544
910.218
901.991
893.876
885.884
878.023
870.303
862.844
854.553
11463.3
1818.63
748.232
503.73
416.094
378.154
359.423
348.861
343.159
340.701
340.181
341.867
345.429
350.344
356.188
362.737
369.799
377.222
384.911
392.989
401.04
408.981
416.931
424.848
432.787
440.785
448.856
457.006
465.065
473.056
481.036
489.151
497.411
505.893
514.685
523.884
533.594
543.926
554.984
566.894
579.803
593.733
608.679
624.472
641.138
658.778
677.436
697.151
717.821
739.26
761.228
783.842
806.884
830.116
853.357
876.449
899.234
921.617
943.497
964.794
985.445
1005.42
1024.69
1043.24
1061.05
1078.12
1094.44
1110
1124.8
1138.81
1152.07
1164.46
1176.02
1186.92
1197.24
1207.02
1216.25
1224.8
1232.65
1239.71
1246.42
1253.33
1260.43
1267.41
1274.15
1280.62
1286.79
1292.66
1298.22
1303.5
1308.5
1313.23
1317.68
1321.87
1325.79
1329.45
1332.87
1336.06
1339.02
1341.76
1344.26
1346.49
1348.46
1350.17
1351.62
1352.8
1353.73
1354.38
1354.75
1354.82
1354.64
1354.12
1353.29
1352.18
1350.77
1349.08
1347.1
1344.82
1342.25
1339.39
1336.26
1332.84
1329.16
1325.23
1321.04
1316.61
1311.94
1307.03
1301.89
1296.53
1290.94
1285.15
1279.15
1272.95
1266.56
1259.99
1253.23
1246.3
1239.19
1231.92
1224.48
1216.89
1209.14
1201.24
1193.2
1185.03
1176.72
1168.29
1159.74
1151.07
1142.3
1133.42
1124.46
1115.41
1106.28
1097.08
1087.81
1078.48
1069.09
1059.67
1050.21
1040.75
1031.3
1021.86
1012.43
1003.02
993.625
984.267
974.953
965.693
956.513
947.424
938.433
929.551
920.787
912.154
903.658
895.305
887.251
878.377
11463.3
1806.94
749.968
506.55
419.469
383.634
365.499
355.632
351.327
349.829
350.308
353.328
358.077
364.143
371.47
380.243
389.685
399.607
410.517
422.615
435.333
448.437
462.24
476.773
492.009
507.915
524.451
541.529
559.173
577.363
596.108
615.415
635.189
655.408
676.115
697.375
719.31
742.091
765.667
789.967
814.909
840.383
866.243
892.312
918.55
944.977
971.657
998.988
1026.57
1053.76
1080.17
1105.38
1129.43
1152.32
1174.03
1194.48
1213.66
1231.5
1248.07
1263.39
1277.54
1290.57
1302.61
1313.71
1323.94
1333.37
1342.06
1350.07
1357.46
1364.33
1370.98
1377.43
1383.69
1389.67
1395.29
1400.51
1405.2
1409.35
1413.25
1417.14
1421.37
1425.63
1429.17
1432.16
1434.76
1437.04
1439.08
1440.9
1442.51
1443.92
1445.15
1446.19
1447.05
1447.74
1448.28
1448.67
1448.93
1449.06
1449.05
1448.94
1448.67
1448.18
1447.53
1446.72
1445.72
1444.56
1443.2
1441.63
1439.86
1437.86
1435.64
1433.19
1430.5
1427.58