/*--------------------------------*- C++ -*----------------------------------*\
| =========                 |                                                 |
| \\      /  F ield         | OpenFOAM: The Open Source CFD Toolbox           |
|  \\    /   O peration     | Version:  v2012                                 |
|   \\  /    A nd           | Website:  www.openfoam.com                      |
|    \\/     M anipulation  |                                                 |
\*---------------------------------------------------------------------------*/
FoamFile
{
    version     2.0;
    format      ascii;
    class       volScalarField;
    location    "1600";
    object      omega;
}
// * * * * * * * * * * * * * * * * * * * * * * * * * * * * * * * * * * * * * //

dimensions      [0 0 -1 0 0 0 0];


internalField   nonuniform List<scalar> 
12225
(
38735.9
41507.2
43128.6
43938.4
44177.7
44125.7
43967.5
43691.5
43394.6
43108.4
42841.8
42595.2
42381.7
42178.2
42024.5
41853.1
41767.8
41614
2969.17
6817.76
9544.97
11495.7
12855.5
13773.1
14397.1
14810.7
15079.2
15318.1
15542.1
15785.4
16001.2
16221.7
16396.8
16567.8
16661.8
16756.8
631.681
1221.69
1773.07
2298.15
2735.26
3154.7
3465.89
3776.86
4006.63
4318.23
4548.97
4846.43
5050.38
5317.38
5482.27
5716.56
5835.47
6031.97
472.351
548.166
685.149
840.021
970.074
1113.95
1220.9
1345.16
1430.79
1547.41
1625.37
1734.96
1802.2
1902.74
1957.36
2047.66
2088.32
2170.67
443.958
454.655
484.129
535.606
580.403
634.358
673.853
722.339
755.391
799.692
828.954
870.822
896.622
935.967
957.751
994.139
1011.17
1045.24
439.057
438.813
444.476
455.867
470.891
491.039
505.508
524.399
537.45
555.475
567.7
585.364
596.728
613.928
623.958
640.476
648.623
664.455
439.068
436.653
435.888
436.793
439.635
445.29
449.377
455.503
459.603
465.963
470.262
477.062
481.558
488.685
493.046
500.261
504.103
511.266
439.02
436.778
434.616
433.578
432.88
433.374
434.194
435.613
436.598
438.308
439.52
441.764
443.298
446.105
447.823
450.938
452.634
456.004
438.992
436.832
434.592
432.848
431.264
430.13
429.24
428.645
428.156
427.735
427.716
427.731
427.957
428.246
428.567
429.331
429.807
430.948
438.988
436.815
434.658
432.709
430.864
429.217
427.69
426.327
425.072
423.928
422.874
422.036
421.199
420.627
419.962
419.654
419.139
419.074
438.994
436.794
434.67
432.687
430.784
429.017
427.321
425.754
424.241
422.858
421.503
420.3
419.108
418.082
417.042
416.18
415.279
414.563
438.999
436.784
434.667
432.673
430.764
428.969
427.247
425.63
424.073
422.615
421.207
419.893
418.622
417.442
416.298
415.24
414.213
413.265
439
436.778
434.663
432.661
430.754
428.947
427.224
425.591
424.032
422.553
421.139
419.798
418.515
417.298
416.133
415.027
413.968
412.963
439.001
436.775
434.66
432.653
430.745
428.933
427.209
425.57
424.009
422.523
421.107
419.759
418.472
417.247
416.076
414.96
413.894
412.877
439.001
436.773
434.657
432.648
430.738
428.923
427.197
425.555
423.991
422.502
421.084
419.732
418.442
417.213
416.04
414.92
413.851
412.83
439.001
436.772
434.655
432.644
430.733
428.916
427.187
425.543
423.977
422.486
421.065
419.711
418.419
417.187
416.011
414.89
413.818
412.795
439
436.769
434.651
432.638
430.725
428.906
427.176
425.53
423.962
422.469
421.046
419.689
418.396
417.162
415.985
414.861
413.788
412.763
439
436.769
434.65
432.637
430.724
428.905
427.174
425.526
423.957
422.463
421.039
419.682
418.388
417.153
415.974
414.85
413.776
412.75
439.001
436.771
434.654
432.641
430.729
428.91
427.179
425.532
423.964
422.47
421.046
419.688
418.394
417.159
415.98
414.855
413.781
412.755
439.001
436.772
434.655
432.643
430.731
428.913
427.183
425.536
423.968
422.474
421.051
419.693
418.399
417.164
415.986
414.862
413.789
412.763
439.001
436.772
434.657
432.645
430.735
428.917
427.188
425.542
423.976
422.482
421.061
419.705
418.414
417.181
416.007
414.886
413.818
412.798
439.003
436.773
434.661
432.649
430.742
428.924
427.202
425.558
424.003
422.516
421.111
419.768
418.501
417.29
416.151
415.062
414.041
413.062
439.008
436.773
434.669
432.654
430.77
428.968
427.296
425.701
424.233
422.832
421.556
420.343
419.25
418.218
417.308
416.434
415.691
414.957
439.032
436.77
434.68
432.727
431.047
429.497
428.245
427.095
426.239
425.458
424.953
424.516
424.317
424.214
424.26
424.379
424.698
424.939
439.11
437.079
435.033
433.968
433.841
434.23
435.309
436.708
438.829
440.841
443.497
445.934
448.976
451.702
455.023
457.876
461.335
464.114
441.069
444.494
441.025
445.985
454.509
463.572
474.62
485.107
496.994
507.681
519.46
529.71
541.051
550.703
561.555
570.499
580.772
588.79
476.607
472.887
493.09
527.173
568.227
607.823
649.885
687.7
727.132
760.847
796.186
825.223
856.561
881.494
909.505
930.932
956.085
974.303
745.899
740.754
868.637
1027.43
1189.3
1336.91
1480.21
1604.13
1724.8
1823.82
1922.29
1998.37
2078.28
2136.31
2202.49
2247.31
2303.51
2339.08
2622.44
2961
3747.37
4528.82
5219.26
5800.99
6284.36
6671.81
6991.8
7242.45
7451.29
7606.52
7747.39
7843.62
7948.54
8012.86
8107
8160.76
20972.1
22182.4
23099.4
23775.2
24247.5
24572.1
24773.7
24900.2
24974.4
25007.7
25001.1
24982.8
24939.7
24886.6
24818.4
24750.7
24685.2
24622.1
11463.3
2495.07
2497.94
2501.2
2504.71
2508.47
2513.2
2519.53
2527.85
2538.04
2548.96
2560.03
2570.62
2580.25
2588.93
2596.42
2602.79
2607.93
2612.19
2614.65
2616.94
2617.83
2618.12
2616.24
2612.4
2606.37
2598.27
2588.75
2579.42
2572.77
2570.46
2571.74
2574.51
2577.5
2580.56
2583.68
2586.84
2590.01
2593.19
2597.17
2602.29
2610.93
2622
2632.01
2639.61
2642.88
2645
2645.73
2646.06
2646.98
2650.03
2656.56
2666.59
2672.72
2681.62
2696.57
2744.59
2915.72
3125.24
3321.44
3497.19
3655.33
3798.2
3929.2
4050.71
4165.21
4273.42
4372.14
4465.48
4552.37
4635.07
4713.27
4788.28
4860.13
4929.48
4996.5
5061.54
5124.74
5186.42
5246.56
5305.41
5362.95
5419.33
5474.56
5528.68
5581.73
5633.71
5684.65
5734.52
5783.34
5831.05
5877.65
5923.09
5967.33
6010.35
6052.1
6092.57
6131.79
6169.83
6206.88
6243.28
6278.74
6313.17
6346.65
6379.15
6410.66
6441.18
6470.69
6499.18
6526.63
6553.05
6578.4
6602.7
6625.93
6648.09
6669.16
6689.16
6708.07
6725.9
6742.64
6758.31
6772.91
6786.45
6798.94
6810.39
6820.83
6830.8
6839.06
6846.59
6853.01
6857.82
6861.59
6864.16
6865.74
6866.46
6866.31
6865.01
6862.67
6859.46
6855.29
6850.23
6844.27
6837.46
6829.8
6821.33
6812.09
6802.11
6791.56
6780.01
6768.17
6755.16
6742.08
6727.78
6713.6
6698.21
6683.17
6666.89
6651.22
6634.31
6618.04
6600.8
6583.79
6566.44
6548.97
6531.37
6513.7
6496
6478.34
6460.73
6443.2
6425.73
6408.25
6390.68
6372.88
6354.53
6335.15
6314.47
6295.47
6285.92
6189.47
11463.5
1998.87
1053.6
894.187
781.363
651.295
660.732
678.746
672.443
657.618
631.994
605.675
581
557.618
538.364
523.785
514.339
509.728
508.773
526.644
552.898
617.199
704.482
807.929
922.161
1037.53
1148.56
1239.46
1310.02
1327.67
1307.19
1245.78
1114.75
949.755
794.255
688.908
618.326
539.686
490.462
456.123
443.103
447.363
457.555
475.019
491.962
514.61
529.024
588.766
659.315
744.388
804.98
1066.17
1501.43
1891.96
2153.93
2301.05
2398.2
2452.84
2471.41
2453.52
2388.96
2319.78
2244.1
2176.78
2114.61
2062.33
2017.55
1981.25
1952.11
1929.52
1912.46
1900
1892.2
1886.31
1884.19
1882.94
1883.45
1885.81
1888.77
1892.75
1897.18
1902.15
1907.41
1912.93
1918.6
1924.38
1930.19
1935.99
1941.75
1947.41
1952.97
1958.39
1963.66
1968.8
1973.83
1978.82
1983.87
1989.18
1995.04
2001.87
2010.26
2018.78
2026.95
2034.97
2042.74
2050.31
2057.63
2064.74
2071.61
2078.26
2084.67
2090.85
2096.8
2102.53
2108.01
2113.27
2118.3
2123.11
2127.68
2132.04
2136.17
2140.08
2143.79
2147.28
2150.56
2153.64
2156.5
2159.04
2161.28
2163.01
2163.92
2164.59
2165.01
2165.2
2165.16
2164.96
2164.54
2163.87
2163
2161.91
2160.61
2159.1
2157.4
2155.52
2153.46
2151.28
2149.05
2145.87
2143.87
2139.88
2137.76
2133.38
2131.05
2126.33
2123.79
2118.79
2116.07
2110.84
2107.89
2102.72
2099.02
2094.56
2090.22
2085.78
2081.31
2076.8
2072.26
2067.71
2063.16
2058.61
2054.09
2049.6
2045.17
2040.78
2036.58
2032.64
2029.24
2027.82
2028.69
2043.17
11463.6
2046.24
827.903
634.277
672.508
735.944
721.965
681.076
619.032
557.058
500.6
451.142
408.165
374.66
348.588
328.399
313.05
301.587
293.829
288.655
289.033
295.131
306.262
329.351
364.144
410.92
470.783
539.555
613.29
680.054
731.867
763.951
758.074
735.181
677.866
602.876
525.423
448.541
390.472
357.909
357.429
371.363
388.712
405.351
419.471
465.495
549.863
693.639
901.07
1195.06
1412.04
1558.43
1689.74
1767.47
1788.81
1769.87
1724.45
1661.94
1587.99
1514.19
1445.22
1388.12
1339.1
1300.74
1269.59
1245.91
1227.52
1213.94
1203.94
1196.91
1192.23
1189.3
1188.17
1187.66
1188.17
1189.49
1191.36
1193.73
1196.38
1199.34
1202.47
1205.78
1209.19
1212.69
1216.23
1219.81
1223.39
1226.97
1230.54
1234.09
1237.61
1241.12
1244.61
1248.11
1251.64
1255.24
1258.94
1262.79
1266.83
1271.09
1275.46
1279.68
1283.79
1287.78
1291.64
1295.38
1298.99
1302.48
1305.84
1309.07
1312.18
1315.15
1317.99
1320.71
1323.29
1325.74
1328.06
1330.25
1332.32
1334.25
1336.05
1337.73
1339.27
1340.69
1341.97
1343.12
1344.11
1344.94
1345.58
1346
1346.2
1346.28
1346.23
1346.09
1345.86
1345.41
1344.89
1344.24
1343.47
1342.58
1341.58
1340.46
1339.23
1337.89
1336.46
1334.92
1333.28
1331.43
1329.71
1327.56
1325.72
1323.36
1321.39
1318.84
1316.75
1314.04
1311.82
1308.98
1306.64
1303.72
1301.15
1298.34
1295.54
1292.7
1289.82
1286.91
1283.98
1281.04
1278.08
1275.12
1272.18
1269.27
1266.42
1263.68
1261.12
1258.88
1257.17
1256.9
1258.68
1270.61
11463.6
2021.83
956.08
974.259
954.763
875.358
752.105
635.481
537.237
461.448
403.849
358.625
323.305
296.146
275.328
259.306
246.97
237.599
230.715
225.955
223.117
223.295
224.659
230.022
238.917
254.057
276.404
307.193
345.986
388.656
431.658
471.249
501.62
513.753
507.707
490.088
455.241
409.133
383.196
408.234
467.826
525.922
570.341
616.74
685.293
801.665
974.533
1164.91
1301.34
1373
1428.84
1463.48
1468.83
1394.6
1344.8
1289.04
1228.49
1172.46
1121.11
1077.49
1040.88
1011.8
988.544
970.927
957.476
947.694
940.646
935.809
932.877
931.268
930.752
930.757
931.746
933.122
934.966
937.153
939.6
942.259
945.072
948.018
951.058
954.174
957.342
960.55
963.781
967.026
970.276
973.525
976.768
980.004
983.232
986.455
989.678
992.907
996.15
999.416
1002.71
1006.03
1009.37
1012.72
1016
1019.18
1022.28
1025.27
1028.18
1030.98
1033.68
1036.29
1038.79
1041.18
1043.48
1045.66
1047.75
1049.72
1051.59
1053.34
1054.99
1056.53
1057.96
1059.29
1060.5
1061.6
1062.58
1063.46
1064.21
1064.85
1065.36
1065.74
1065.98
1066.09
1066.06
1065.92
1065.69
1065.35
1064.92
1064.36
1063.71
1062.96
1062.1
1061.15
1060.1
1058.95
1057.71
1056.37
1054.95
1053.44
1051.83
1050.12
1048.38
1046.48
1044.6
1042.55
1040.54
1038.35
1036.22
1033.9
1031.65
1029.22
1026.88
1024.35
1021.88
1019.32
1016.75
1014.13
1011.49
1008.82
1006.13
1003.43
1000.71
997.991
995.286
992.615
990.004
987.492
985.149
983.083
981.457
980.894
981.975
988.795
11463.7
2177.68
1446.63
1289.08
1053.41
831.818
648.892
517.604
426.502
362.329
316.116
282.609
258.616
240.731
226.964
216.247
207.943
201.551
196.769
193.406
191.32
190.87
191.422
193.565
197.322
203.966
214.077
228.724
249.263
275.284
303.95
332.909
360.119
381.88
394.17
392.539
387.071
399.849
463.079
565.719
635.815
696.834
772.214
873.862
988.233
1089.51
1162.77
1221.96
1257.49
1268.26
1243.63
1179.99
1128.99
1077.94
1033.56
988.68
949.115
914.914
885.72
861.947
842.908
828.262
817.208
809.262
803.721
800.127
798.362
797.681
797.65
798.565
800.026
801.914
804.21
806.766
809.555
812.521
815.626
818.84
822.138
825.502
828.915
832.363
835.836
839.323
842.817
846.311
849.799
853.278
856.744
860.195
863.63
867.049
870.452
873.838
877.209
880.561
883.89
887.186
890.437
893.627
896.741
899.766
902.705
905.553
908.309
910.971
913.536
916.003
918.37
920.636
922.798
924.856
926.809
928.655
930.393
932.023
933.544
934.954
936.254
937.441
938.515
939.475
940.32
941.049
941.66
942.151
942.518
942.758
942.867
942.868
942.742
942.508
942.166
941.719
941.165
940.503
939.739
938.87
937.899
936.828
935.659
934.392
933.031
931.576
930.03
928.395
926.663
924.849
922.96
920.979
918.944
916.816
914.644
912.381
910.083
907.694
905.282
902.781
900.269
897.673
895.064
892.406
889.716
886.995
884.247
881.473
878.679
875.871
873.056
870.249
867.459
864.702
862.001
859.391
856.929
854.702
852.834
851.726
851.931
855.241
11463.6
2831.08
1852.64
1354.07
959.924
680.806
514.08
406.671
338.338
294.279
264.334
242.763
226.34
213.348
202.882
194.385
187.525
182.109
178.014
175.139
173.428
173.044
173.548
175.078
178.018
182.621
189.328
198.792
211.96
229.481
250.385
272.82
294.688
314.663
335.574
367.895
433.111
543.681
644.352
719.336
791.038
867.491
941.798
1003.1
1049.79
1088.25
1112.74
1117.18
1076.24
1032.43
990.714
948.119
911.025
874.801
843.319
814.619
790.42
770.077
753.478
740.461
730.585
723.476
718.635
715.862
714.675
714.425
715.205
716.765
718.866
721.456
724.388
727.589
731.008
734.588
738.296
742.103
745.985
749.923
753.902
757.912
761.939
765.977
770.017
774.053
778.078
782.089
786.079
790.046
793.986
797.896
801.775
805.619
809.426
813.195
816.922
820.602
824.229
827.794
831.283
834.695
838.02
841.255
844.397
847.443
850.391
853.238
855.982
858.62
861.15
863.57
865.878
868.073
870.153
872.115
873.96
875.684
877.289
878.773
880.135
881.372
882.484
883.471
884.33
885.062
885.665
886.138
886.48
886.681
886.746
886.706
886.53
886.232
885.814
885.277
884.623
883.851
882.967
881.97
880.86
879.641
878.314
876.882
875.346
873.708
871.971
870.137
868.205
866.183
864.075
861.88
859.611
857.261
854.844
852.35
849.796
847.171
844.495
841.754
838.972
836.133
833.259
830.346
827.399
824.422
821.417
818.388
815.34
812.279
809.212
806.153
803.111
800.102
797.144
794.269
791.528
788.984
786.74
785.059
784.311
785.386
11464.1
3541.44
1959.49
1204.3
763.723
530.669
404.975
335.913
292.938
263.723
242.269
225.61
212.137
200.937
191.503
183.566
177.005
171.776
167.836
165.104
163.576
163.304
163.912
165.58
168.515
172.775
178.788
187.108
198.433
213.336
231.969
254.903
284.527
323.229
378.744
472.813
589.905
685.459
760.51
827.825
885.047
927.328
960.188
986.726
998.381
995.855
958.217
923.094
889.605
857.74
827.36
797.744
771.077
746.717
725.814
707.725
692.819
680.783
671.466
664.641
659.974
657.436
656.476
656.445
657.659
659.693
662.413
665.658
669.299
673.256
677.447
681.817
686.324
690.931
695.613
700.349
705.123
709.92
714.731
719.544
724.353
729.15
733.929
738.685
743.412
748.107
752.765
757.382
761.954
766.478
770.95
775.368
779.729
784.029
788.264
792.43
796.523
800.537
804.469
808.31
812.053
815.694
819.23
822.658
825.974
829.177
832.263
835.229
838.072
840.791
843.382
845.843
848.173
850.37
852.432
854.357
856.142
857.783
859.283
860.643
861.861
862.936
863.868
864.657
865.301
865.801
866.155
866.348
866.405
866.336
866.12
865.766
865.277
864.654
863.899
863.012
861.989
860.837
859.559
858.158
856.636
854.995
853.239
851.37
849.391
847.303
845.11
842.817
840.427
837.944
835.376
832.723
829.991
827.18
824.299
821.347
818.333
815.258
812.132
808.954
805.733
802.474
799.181
795.857
792.505
789.13
785.737
782.332
778.924
775.524
772.143
768.793
765.494
762.27
759.165
756.228
753.531
751.256
749.583
749.038
11470.5
3798.42
1785.4
947.184
587.962
426.528
344.451
296.754
266.115
244.537
228.33
215.259
204.171
194.488
185.991
178.619
172.381
167.291
163.445
160.954
159.818
159.981
161.231
163.841
167.811
173.215
180.269
189.819
202.927
220.34
244.739
280.923
336.103
421.667
528.367
621.621
695.158
760.604
814.632
854.271
883.723
903.425
909.889
898.422
869.63
841.211
812.394
787.484
763.82
740.878
718.581
697.611
679.006
662.715
648.97
637.584
628.567
621.747
616.948
614.2
613.122
613.078
614.36
616.596
619.684
623.426
627.692
632.365
637.352
642.579
647.985
653.522
659.155
664.855
670.597
676.365
682.146
687.927
693.697
699.447
705.17
710.861
716.512
722.12
727.679
733.185
738.634
744.022
749.344
754.596
759.775
764.876
769.898
774.835
779.685
784.445
789.11
793.682
798.152
802.511
806.751
810.87
814.865
818.732
822.469
826.072
829.539
832.866
836.051
839.092
841.985
844.729
847.321
849.761
852.046
854.174
856.144
857.956
859.607
861.097
862.426
863.592
864.596
865.437
866.115
866.629
866.979
867.147
867.175
867.047
866.757
866.312
865.714
864.965
864.067
863.021
861.832
860.501
859.029
857.421
855.68
853.807
851.806
849.681
847.434
845.069
842.589
839.998
837.3
834.502
831.609
828.625
825.554
822.398
819.164
815.856
812.48
809.042
805.546
801.998
798.404
794.77
791.101
787.399
783.67
779.918
776.149
772.37
768.59
764.819
761.068
757.35
753.68
750.079
746.554
743.169
739.98
737.115
734.65
732.773
11490.4
3717.21
1460.87
747.559
490.131
378.236
319.224
283.085
258.815
240.742
226.075
213.73
203.024
193.598
185.324
178.203
172.319
167.768
164.661
162.9
162.45
163.295
165.464
169.232
175.07
183.208
194.683
211.465
235.462
268.567
317.144
390.735
477.672
558.993
626.695
684.895
734.894
776.179
809.372
829.595
835.789
822.372
799.298
775.203
751.591
730.868
711.789
694.3
676.961
659.851
643.536
628.746
615.909
605.051
596.204
589.288
584.238
581.038
579.598
579.345
580.395
582.557
585.723
589.708
594.385
599.618
605.297
611.328
617.633
624.148
630.815
637.589
644.435
651.325
658.233
665.143
672.045
678.926
685.772
692.575
699.328
706.024
712.659
719.227
725.723
732.141
738.475
744.71
750.855
756.91
762.872
768.737
774.5
780.159
785.708
791.144
796.463
801.658
806.724
811.654
816.446
821.094
825.596
829.949
834.15
838.195
842.082
845.808
849.369
852.762
855.985
859.036
861.913
864.615
867.139
869.483
871.647
873.629
875.427
877.042
878.472
879.717
880.778
881.655
882.348
882.856
883.171
883.295
883.258
883.039
882.64
882.066
881.32
880.404
879.321
878.073
876.663
875.095
873.37
871.493
869.467
867.296
864.982
862.531
859.946
857.23
854.388
851.425
848.344
845.152
841.856
838.46
834.969
831.387
827.72
823.975
820.158
816.275
812.331
808.331
804.283
800.193
796.066
791.906
787.719
783.509
779.285
775.053
770.822
766.603
762.405
758.242
754.126
750.077
746.12
742.29
738.627
735.226
732.103
729.192
11521.6
3273.56
1161.71
618.829
433.646
349.847
304.932
276.929
256.517
240.895
228.34
217.52
207.858
199.184
191.548
185.088
179.995
176.394
174.461
174.04
175.307
178.066
182.712
190.113
201.209
216.714
239.644
273.84
320.917
380.705
446.817
508.629
565.877
616.675
661.092
698.811
731.477
755.544
764.421
758.122
740.008
720.614
700.754
683.275
667.806
654.001
640.808
627.805
614.698
601.954
590.188
579.874
571.212
564.233
558.929
555.233
553.327
552.755
553.408
555.306
558.316
562.307
567.164
572.753
578.954
585.658
592.769
600.203
607.893
615.793
623.826
631.951
640.131
648.333
656.525
664.674
672.74
680.736
688.681
696.573
704.401
712.158
719.839
727.436
734.945
742.36
749.676
756.893
763.995
770.973
777.822
784.539
791.12
797.563
803.862
810.015
816.016
821.86
827.547
833.073
838.434
843.626
848.645
853.489
858.155
862.64
866.941
871.055
874.979
878.709
882.243
885.58
888.717
891.653
894.386
896.914
899.237
901.353
903.26
904.959
906.448
907.729
908.802
909.668
910.326
910.777
911.007
911.041
910.878
910.513
909.949
909.189
908.237
907.096
905.768
904.257
902.567
900.7
898.662
896.455
894.083
891.551
888.864
886.025
883.039
879.911
876.646
873.248
869.722
866.076
862.316
858.447
854.476
850.408
846.25
842.009
837.693
833.308
828.858
824.351
819.792
815.19
810.55
805.876
801.175
796.454
791.721
786.983
782.249
777.529
772.834
768.174
763.563
759.017
754.56
750.218
746.022
742.044
738.267
734.409
11553
2743.05
966.421
557.785
411.996
342.208
303.091
278.595
261.834
248.972
238.185
228.672
220.182
212.752
206.597
201.903
199.173
198.356
199.574
202.746
208.285
216.339
228.186
245.173
268.359
299.123
337.382
380.981
427.482
474.122
518.652
559.497
596.742
629.462
658.77
683.761
695.304
696.211
685.675
672.021
656.117
641.804
629.106
618.132
608.108
598.459
588.719
578.83
569.016
559.779
551.578
544.703
539.272
535.302
532.953
532.066
532.343
533.96
536.749
540.63
545.504
551.275
557.871
565.14
572.971
581.267
589.938
598.895
608.038
617.255
626.601
636.05
645.562
655.103
664.631
674.115
683.549
692.912
702.189
711.379
720.462
729.434
738.29
747.027
755.639
764.12
772.46
780.649
788.679
796.548
804.253
811.792
819.162
826.36
833.381
840.222
846.88
853.351
859.635
865.727
871.623
877.321
882.815
888.105
893.186
898.058
902.717
907.16
911.385
915.389
919.168
922.722
926.048
929.146
932.015
934.654
937.06
939.233
941.171
942.876
944.346
945.583
946.588
947.362
947.905
948.213
948.29
948.144
947.776
947.185
946.375
945.35
944.112
942.666
941.016
939.164
937.117
934.876
932.448
929.835
927.044
924.079
920.944
917.646
914.189
910.58
906.823
902.924
898.887
894.721
890.433
886.028
881.514
876.899
872.191
867.397
862.526
857.583
852.574
847.505
842.383
837.215
832.008
826.767
821.502
816.219
810.928
805.636
800.351
795.083
789.843
784.641
779.488
774.402
769.402
764.512
759.753
755.184
750.774
746.059
11576.6
2239.57
843.469
518.348
397.449
339.563
307.382
287.428
273.484
262.712
253.801
246.233
239.953
235.099
232.347
231.581
233.087
237.282
243.624
251.788
262.896
278.217
298.149
322.625
351.098
382.594
415.747
449.258
482.255
513.884
543.307
570.042
594.957
617.88
631.446
635.198
631.745
624.7
614.256
603.754
593.904
585.432
577.899
570.923
564.045
557.016
549.785
542.537
535.618
529.436
524.311
520.407
517.94
516.926
517.012
518.518
521.34
525.338
530.393
536.421
543.321
550.963
559.144
567.917
577.257
587.083
597.305
607.843
618.634
629.654
640.803
652.018
663.258
674.496
685.661
696.699
707.588
718.308
728.845
739.2
749.401
759.455
769.369
779.14
788.763
798.226
807.516
816.618
825.524
834.229
842.732
851.03
859.122
867.002
874.669
882.117
889.346
896.353
903.137
909.695
916.024
922.119
927.978
933.599
938.98
944.119
949.015
953.666
958.069
962.221
966.119
969.764
973.153
976.287
979.165
981.787
984.151
986.256
988.101
989.688
991.017
992.087
992.903
993.466
993.774
993.831
993.636
993.195
992.511
991.585
990.421
989.024
987.396
985.544
983.47
981.179
978.677
975.969
973.058
969.95
966.651
963.165
959.5
955.66
951.652
947.482
943.156
938.681
934.063
929.307
924.422
919.414
914.294
909.071
903.753
898.349
892.866
887.31
881.688
876.005
870.267
864.482
858.658
852.802
846.924
841.034
835.14
829.25
823.37
817.512
811.684
805.896
800.161
794.496
788.917
783.446
778.097
772.92
767.888
762.377
11590.1
2026.89
814.122
512.003
398.623
346.391
318.335
301.15
289.405
280.717
274.082
269.144
266.14
265.074
265.848
269.208
274.991
282.973
292.878
305.491
320.934
339.075
359.584
381.95
405.509
429.602
453.643
477.127
499.356
520.488
540.894
559.848
573.007
578.278
579.059
577.334
572.63
566.829
560.628
554.948
549.837
545.222
540.798
536.352
531.746
526.988
522.221
517.707
513.769
510.735
509.126
508.603
509.197
511.055
514.057
518.173
523.13
529.148
536.23
544.3
553.266
563.042
573.593
584.787
596.521
608.697
621.209
633.964
646.892
659.955
673.071
686.136
699.097
711.898
724.478
736.794
748.821
760.56
772.027
783.259
794.305
805.19
815.926
826.52
836.961
847.226
857.289
867.127
876.73
886.093
895.215
904.094
912.725
921.104
929.228
937.093
944.698
952.043
959.128
965.95
972.507
978.795
984.813
990.557
996.029
1001.23
1006.16
1010.81
1015.18
1019.28
1023.09
1026.63
1029.88
1032.85
1035.55
1037.96
1040.1
1041.95
1043.52
1044.81
1045.82
1046.55
1047.01
1047.2
1047.11
1046.76
1046.13
1045.25
1044.1
1042.69
1041.04
1039.13
1036.98
1034.59
1031.97
1029.12
1026.05
1022.75
1019.25
1015.54
1011.63
1007.52
1003.23
998.75
994.099
989.28
984.301
979.168
973.889
968.47
962.915
957.235
951.443
945.55
939.564
933.492
927.342
921.12
914.832
908.483
902.081
895.63
889.14
882.624
876.091
869.552
863.015
856.487
849.974
843.486
837.03
830.62
824.267
817.988
811.799
805.718
799.756
793.954
788.305
782.044
11598.5
1954.17
782.445
505.891
404.567
357.796
332.95
317.921
307.933
301.061
296.668
294.626
294.216
295.878
299.682
305.529
313.279
322.818
334.259
347.49
362.166
378.091
394.947
412.275
429.636
446.691
463.103
479.284
495.481
510.137
521.3
527.342
530.631
531.854
531.948
530.73
528.744
526.591
524.488
522.58
520.812
519.133
517.529
515.994
514.4
512.849
511.509
510.65
510.344
510.626
511.412
513.279
516.377
520.789
526.524
533.667
542.395
552.346
563.338
575.235
587.919
601.284
615.245
629.673
644.49
659.571
674.747
689.901
704.932
719.735
734.229
748.42
762.353
776.145
789.566
802.515
814.971
826.973
838.584
849.911
861.093
872.165
883.14
894.04
904.837
915.477
925.899
936.066
945.973
955.613
964.98
974.069
982.874
991.389
999.61
1007.53
1015.16
1022.49
1029.52
1036.25
1042.69
1048.83
1054.66
1060.19
1065.43
1070.36
1074.99
1079.32
1083.36
1087.09
1090.52
1093.65
1096.48
1099.01
1101.24
1103.17
1104.81
1106.16
1107.2
1107.95
1108.41
1108.56
1108.44
1108.04
1107.34
1106.37
1105.12
1103.59
1101.79
1099.73
1097.41
1094.82
1091.99
1088.91
1085.58
1082.02
1078.24
1074.23
1070
1065.56
1060.92
1056.07
1051.04
1045.82
1040.42
1034.86
1029.13
1023.25
1017.23
1011.06
1004.77
998.344
991.817
985.194
978.481
971.685
964.812
957.87
950.864
943.801
936.688
929.524
922.327
915.111
907.887
900.664
893.448
886.247
879.067
871.915
864.799
857.733
850.733
843.813
836.988
830.275
823.681
817.239
810.974
803.999
11601.7
1908.21
778.35
512.159
416.15
372.852
350.238
336.469
327.413
321.697
318.955
318.183
319.339
322.673
327.73
334.302
342.242
351.44
361.76
373.003
384.968
397.41
410.071
422.709
435.141
447.225
458.865
469.338
477.927
484.706
490.14
494.58
498.264
501.452
504.222
506.582
508.668
510.593
512.4
514.113
515.728
517.147
518.206
518.934
519.805
521.01
522.728
525.151
528.404
532.652
538.202
545.055
553.31
562.963
574.047
586.698
600.988
616.492
632.834
649.765
667.127
684.789
702.631
720.523
738.311
755.903
773.254
790.276
806.877
822.955
838.418
853.203
867.352
880.885
893.66
905.649
916.878
927.485
937.585
947.388
957.358
967.429
977.553
987.833
998.155
1008.4
1018.49
1028.36
1037.99
1047.33
1056.38
1065.13
1073.57
1081.69
1089.49
1096.95
1104.09
1110.89
1117.37
1123.52
1129.35
1134.85
1140.03
1144.88
1149.4
1153.61
1157.5
1161.07
1164.33
1167.28
1169.91
1172.23
1174.23
1175.93
1177.31
1178.4
1179.19
1179.67
1179.84
1179.72
1179.31
1178.58
1177.56
1176.27
1174.68
1172.81
1170.66
1168.23
1165.53
1162.57
1159.34
1155.85
1152.11
1148.12
1143.89
1139.43
1134.74
1129.83
1124.7
1119.36
1113.82
1108.08
1102.15
1096.05
1089.76
1083.31
1076.71
1069.96
1063.07
1056.05
1048.92
1041.7
1034.38
1026.97
1019.47
1011.9
1004.25
996.535
988.762
980.939
973.072
965.156
957.217
949.271
941.326
933.389
925.465
917.563
909.687
901.844
894.04
886.296
878.626
871.046
863.569
856.207
848.968
841.877
834.997
827.342
11602
1880.03
775.878
521.621
430.01
388.357
366.966
354.026
345.502
340.556
338.419
338
339.723
343.313
348.298
354.43
361.53
369.474
378.134
387.381
397.093
407.183
417.604
428.069
438.263
447.991
456.943
465.235
472.934
480.122
486.895
493.25
499.025
504.212
509.188
513.969
518.619
523.195
527.749
532.354
537.104
541.981
547.145
552.793
559.001
565.934
573.743
582.563
592.504
603.7
616.309
630.379
646.143
663.185
681.273
700.159
719.434
738.959
758.747
778.722
798.751
818.71
838.483
857.964
877.053
895.669
913.755
931.259
948.123
964.28
979.625
993.957
1007.35
1019.65
1031.09
1041.84
1051.96
1061.47
1070.36
1078.77
1086.91
1094.91
1103.01
1111.81
1120.84
1129.86
1138.77
1147.5
1155.99
1164.18
1172.08
1179.66
1186.93
1193.86
1200.44
1206.67
1212.54
1218.07
1223.27
1228.13
1232.65
1236.84
1240.69
1244.2
1247.39
1250.25
1252.8
1255.04
1256.96
1258.59
1259.9
1260.9
1261.59
1261.98
1262.06
1261.88
1261.41
1260.63
1259.55
1258.18
1256.54
1254.6
1252.38
1249.88
1247.12
1244.08
1240.78
1237.21
1233.38
1229.3
1224.96
1220.38
1215.55
1210.49
1205.2
1199.69
1193.96
1188.02
1181.88
1175.53
1169
1162.27
1155.37
1148.29
1141.05
1133.65
1126.11
1118.43
1110.62
1102.69
1094.66
1086.56
1078.36
1070.08
1061.72
1053.29
1044.78
1036.22
1027.6
1018.94
1010.25
1001.56
992.863
984.17
975.484
966.81
958.156
949.529
940.936
932.382
923.875
915.441
907.094
898.845
890.705
882.688
874.8
867.056
859.564
851.268
11599.1
1861.38
778.508
532.252
442.867
402.642
382.346
369.868
361.734
357.322
355.517
355.261
357.186
360.782
365.701
371.787
378.887
386.955
395.727
405.114
414.84
424.781
434.823
444.935
455.15
465.474
476.01
486.475
496.89
507.29
517.706
528.141
538.642
549.282
560.002
570.793
581.657
592.595
603.646
614.857
626.251
637.995
650.272
663.225
676.92
691.488
707.079
723.821
741.662
760.583
780.571
801.627
823.527
846.017
868.86
891.803
914.578
936.962
958.81
979.995
1000.42
1020
1038.69
1056.45
1073.27
1089.17
1104.17
1118.32
1131.64
1144.2
1156.05
1167.24
1177.74
1187.42
1196.57
1205.37
1213.87
1221.94
1229.49
1236.54
1242.92
1248.98
1255.35
1262.09
1268.85
1275.5
1281.98
1288.23
1294.23
1299.97
1305.42
1310.6
1315.48
1320.05
1324.3
1328.21
1331.8
1335.08
1338.06
1340.74
1343.11
1345.18
1346.94
1348.41
1349.58
1350.47
1351.1
1351.44
1351.5
1351.33
1350.88
1350.13
1349.13
1347.86
1346.34
1344.57
1342.55
1340.26
1337.72
1334.92
1331.87
1328.56
1325.01
1321.22
1317.19
1312.92
1308.41
1303.67
1298.7
1293.5
1288.07
1282.42
1276.55
1270.47
1264.19
1257.7
1251.03
1244.16
1237.1
1229.87
1222.46
1214.87
1207.12
1199.21
1191.15
1182.95
1174.61
1166.14
1157.54
1148.83
1140
1131.08
1122.07
1112.97
1103.78
1094.52
1085.2
1075.82
1066.39
1056.93
1047.43
1037.95
1028.47
1019
1009.54
1000.09
990.671
981.282
971.936
962.653
953.451
944.336
935.316
926.402
917.603
908.934
900.401
892.015
883.921
875.031
11593.4
1845.51
782.433
539.798
453.651
416.695
397.924
386.548
379.723
376.694
375.87
377.34
381.247
386.994
394.362
403.264
413.57
424.27
436.137
449.182
463.005
477.647
493.241
509.853
527.553
546.356
566.206
586.907
608.307
630.249
652.595
675.247
698.172
721.325
744.599
768.001
791.411
814.59
837.483
860.076
882.404
904.594
926.778
949.063
971.538
994.353
1017.8
1042.66
1067.93
1093.26
1118.4
1143
1166.57
1189.32
1211.2
1232.06
1251.7
1270.02
1286.94
1302.44
1316.45
1329.01
1340.15
1349.94
1358.48
1365.84
1372.15
1377.52
1382.08
1385.97
1389.42
1392.78
1396.04
1399.28
1402.47
1405.57
1408.56
1411.34
1413.79
1416.25
1418.9
1422.19
1425.77
1428.84
1431.55
1434.02
1436.33
1438.49
1440.5
1442.35
1444.03
1445.52
1446.8
1447.85
1448.68
1449.28
1449.65
1449.81
1449.77