/*--------------------------------*- C++ -*----------------------------------*\
| =========                 |                                                 |
| \\      /  F ield         | OpenFOAM: The Open Source CFD Toolbox           |
|  \\    /   O peration     | Version:  v2012                                 |
|   \\  /    A nd           | Website:  www.openfoam.com                      |
|    \\/     M anipulation  |                                                 |
\*---------------------------------------------------------------------------*/
FoamFile
{
    version     2.0;
    format      ascii;
    class       surfaceScalarField;
    location    "1600";
    object      phi;
}
// * * * * * * * * * * * * * * * * * * * * * * * * * * * * * * * * * * * * * //

dimensions      [0 3 -1 0 0 0 0];
oriented        oriented;


internalField   nonuniform List<scalar> 
24170
(
3.00095e-06
1.32941e-07
2.85661e-06
1.44343e-07
2.72759e-06
1.29013e-07
2.61172e-06
1.15874e-07
2.50813e-06
1.03587e-07
2.41701e-06
9.11196e-08
2.3379e-06
7.91165e-08
2.26969e-06
6.82033e-08
2.21085e-06
5.8844e-08
2.15976e-06
5.10886e-08
2.11536e-06
4.44037e-08
2.07689e-06
3.84756e-08
2.04377e-06
3.31147e-08
2.01562e-06
2.81558e-08
1.99224e-06
2.33742e-08
1.97398e-06
1.82631e-08
1.96177e-06
1.22185e-08
-3.27186e-11
1.9618e-06
3.5142e-06
7.51887e-08
3.54696e-06
1.11583e-07
3.56317e-06
1.12804e-07
3.56629e-06
1.12759e-07
3.55916e-06
1.10722e-07
3.54473e-06
1.05546e-07
3.5253e-06
9.85508e-08
3.50254e-06
9.09576e-08
3.478e-06
8.33845e-08
3.45296e-06
7.61374e-08
3.42805e-06
6.93044e-08
3.40372e-06
6.28132e-08
3.38024e-06
5.65883e-08
3.35789e-06
5.05153e-08
3.33686e-06
4.43993e-08
3.3174e-06
3.77243e-08
3.29958e-06
3.00477e-08
1.9225e-08
3.28032e-06
3.83282e-06
5.45619e-08
3.8512e-06
9.32033e-08
3.86601e-06
9.79897e-08
3.87896e-06
9.98113e-08
3.88961e-06
1.00077e-07
3.89775e-06
9.73956e-08
3.90355e-06
9.27529e-08
3.9072e-06
8.73148e-08
3.90897e-06
8.16067e-08
3.90924e-06
7.58694e-08
3.90833e-06
7.02134e-08
3.90651e-06
6.46356e-08
3.904e-06
5.91004e-08
3.901e-06
5.35201e-08
3.89766e-06
4.77378e-08
3.89401e-06
4.13694e-08
3.88979e-06
3.42752e-08
2.56397e-08
3.88337e-06
4.21647e-06
4.26536e-08
4.22946e-06
8.0209e-08
4.23949e-06
8.79627e-08
4.24851e-06
9.07977e-08
4.25673e-06
9.18549e-08
4.26401e-06
9.01147e-08
4.27039e-06
8.63775e-08
4.27594e-06
8.17636e-08
4.28073e-06
7.68136e-08
4.28485e-06
7.17489e-08
4.28841e-06
6.66543e-08
4.29149e-06
6.15514e-08
4.29419e-06
5.64091e-08
4.29655e-06
5.1161e-08
4.2986e-06
4.56832e-08
4.30022e-06
3.97541e-08
4.30115e-06
3.33422e-08
2.62781e-08
4.30051e-06
4.64608e-06
3.38839e-08
4.6571e-06
6.91804e-08
4.66581e-06
7.92571e-08
4.67355e-06
8.3058e-08
4.68074e-06
8.46619e-08
4.68728e-06
8.35727e-08
4.69317e-06
8.04878e-08
4.6985e-06
7.64381e-08
4.70333e-06
7.19791e-08
4.70775e-06
6.73305e-08
4.71182e-06
6.25867e-08
4.71559e-06
5.77815e-08
4.7191e-06
5.29012e-08
4.72236e-06
4.78975e-08
4.72535e-06
4.26923e-08
4.72793e-06
3.7178e-08
4.72989e-06
3.13841e-08
2.5404e-08
4.73076e-06
5.12149e-06
2.69909e-08
5.13129e-06
5.93838e-08
5.13953e-06
7.10148e-08
5.14695e-06
7.56331e-08
5.15393e-06
7.76894e-08
5.16033e-06
7.71642e-08
5.16616e-06
7.4663e-08
5.17148e-06
7.11156e-08
5.17638e-06
6.70805e-08
5.18093e-06
6.27845e-08
5.18517e-06
5.83399e-08
5.18916e-06
5.37929e-08
5.19291e-06
4.9153e-08
5.19641e-06
4.4394e-08
5.19962e-06
3.94833e-08
5.20241e-06
3.43875e-08
5.20462e-06
2.91777e-08
2.40213e-08
5.20601e-06
5.64643e-06
2.15698e-08
5.65525e-06
5.05623e-08
5.66324e-06
6.3023e-08
5.6706e-06
6.82774e-08
5.67759e-06
7.06922e-08
5.6841e-06
7.06603e-08
5.69006e-06
6.86959e-08
5.69556e-06
6.56235e-08
5.70064e-06
6.19918e-08
5.70539e-06
5.8039e-08
5.70984e-06
5.38906e-08
5.71402e-06
4.96085e-08
5.71795e-06
4.52249e-08
5.72161e-06
4.07394e-08
5.72494e-06
3.61559e-08
5.72784e-06
3.14884e-08
5.73019e-06
2.68255e-08
2.23265e-08
5.73188e-06
4.40928e-06
1.84045e-08
4.41503e-06
4.48096e-08
4.42069e-06
5.73595e-08
4.42598e-06
6.29906e-08
4.43104e-06
6.56353e-08
4.4358e-06
6.58935e-08
4.44022e-06
6.42735e-08
4.44432e-06
6.15294e-08
4.44813e-06
5.8183e-08
4.45169e-06
5.4478e-08
4.45503e-06
5.05491e-08
4.45817e-06
4.64708e-08
4.4611e-06
4.22889e-08
4.46382e-06
3.80209e-08
4.46629e-06
3.36906e-08
4.46844e-06
2.93337e-08
4.47023e-06
2.50403e-08
2.0953e-08
4.4716e-06
5.14275e-06
1.55148e-08
5.14846e-06
3.90943e-08
5.15439e-06
5.14305e-08
5.16008e-06
5.72992e-08
5.1656e-06
6.01136e-08
5.17086e-06
6.06382e-08
5.17577e-06
5.93594e-08
5.18035e-06
5.69515e-08
5.18463e-06
5.39058e-08
5.18863e-06
5.04711e-08
5.1924e-06
4.67884e-08
5.19592e-06
4.29452e-08
5.19921e-06
3.89994e-08
5.20225e-06
3.49865e-08
5.20499e-06
3.09447e-08
5.2074e-06
2.69254e-08
5.20943e-06
2.3012e-08
1.93263e-08
5.21106e-06
5.9984e-06
1.291e-08
6.00398e-06
3.3511e-08
6.01011e-06
4.53044e-08
6.01616e-06
5.12427e-08
6.02213e-06
5.41447e-08
6.02788e-06
5.48894e-08
6.0333e-06
5.39354e-08
6.03839e-06
5.18646e-08
6.04316e-06
4.91322e-08
6.04765e-06
4.59897e-08
6.05185e-06
4.25826e-08
6.05579e-06
3.90086e-08
6.05945e-06
3.53366e-08
6.06282e-06
3.16166e-08
6.06587e-06
2.78984e-08
6.06856e-06
2.4239e-08
6.07085e-06
2.0713e-08
1.74182e-08
6.07276e-06
6.99659e-06
1.05873e-08
7.00195e-06
2.81542e-08
7.0082e-06
3.90504e-08
7.01458e-06
4.48651e-08
7.02096e-06
4.77626e-08
7.02719e-06
4.86605e-08
7.03313e-06
4.79959e-08
7.03874e-06
4.62539e-08
7.04403e-06
4.38441e-08
7.049e-06
4.10141e-08
7.05367e-06
3.7913e-08
7.05804e-06
3.46442e-08
7.06209e-06
3.1285e-08
7.06581e-06
2.7896e-08
7.06917e-06
2.45321e-08
7.07216e-06
2.1252e-08
7.07476e-06
1.81169e-08
1.52052e-08
7.07697e-06
8.16108e-06
8.52256e-09
8.16614e-06
2.30898e-08
8.17244e-06
3.27566e-08
8.17908e-06
3.82224e-08
8.18583e-06
4.10082e-08
8.19252e-06
4.1977e-08
8.19897e-06
4.15471e-08
8.20511e-06
4.01136e-08
8.21092e-06
3.80289e-08
8.21641e-06
3.55294e-08
8.22156e-06
3.27631e-08
8.22637e-06
2.98354e-08
8.23082e-06
2.68273e-08
8.23492e-06
2.38043e-08
8.23863e-06
2.08228e-08
8.24194e-06
1.79371e-08
8.24486e-06
1.5197e-08
1.2662e-08
8.2474e-06
9.51957e-06
6.6774e-09
9.52432e-06
1.83445e-08
9.53056e-06
2.65108e-08
9.5374e-06
3.13819e-08
9.54448e-06
3.39275e-08
9.55159e-06
3.48727e-08
9.55853e-06
3.46062e-08
9.5652e-06
3.34451e-08
9.57155e-06
3.16797e-08
9.57756e-06
2.95221e-08
9.5832e-06
2.71152e-08
9.58848e-06
2.45601e-08
9.59337e-06
2.19376e-08
9.59786e-06
1.93111e-08
9.60195e-06
1.67358e-08
9.60563e-06
1.42576e-08
9.60891e-06
1.1917e-08
9.75804e-09
9.61181e-06
1.11044e-05
5.00791e-09
1.11088e-05
1.39023e-08
1.1115e-05
2.03745e-08
1.11219e-05
2.441e-08
1.11293e-05
2.6565e-08
1.11368e-05
2.73826e-08
1.11442e-05
2.71962e-08
1.11514e-05
2.62573e-08
1.11583e-05
2.47919e-08
1.11648e-05
2.29797e-08
1.1171e-05
2.09479e-08
1.11767e-05
1.87904e-08
1.11821e-05
1.65795e-08
1.1187e-05
1.43749e-08
1.11915e-05
1.22233e-08
1.11956e-05
1.0165e-08
1.11993e-05
8.22838e-09
6.44941e-09
1.12026e-05
1.29532e-05
3.4679e-09
1.29574e-05
9.70672e-09
1.29634e-05
1.43588e-08
1.29704e-05
1.73448e-08
1.29781e-05
1.89483e-08
1.29859e-05
1.95255e-08
1.29938e-05
1.93308e-08
1.30015e-05
1.85529e-08
1.30089e-05
1.73574e-08
1.3016e-05
1.58827e-08
1.30227e-05
1.42333e-08
1.3029e-05
1.24878e-08
1.30349e-05
1.07074e-08
1.30403e-05
8.94115e-09
1.30453e-05
7.22774e-09
1.30499e-05
5.59801e-09
1.30541e-05
4.07311e-09
2.67942e-09
1.30578e-05
1.51099e-05
2.00629e-09
1.5114e-05
5.65596e-09
1.51199e-05
8.39667e-09
1.51271e-05
1.01564e-08
1.5135e-05
1.1052e-08
1.51433e-05
1.12751e-08
1.51516e-05
1.0985e-08
1.51599e-05
1.03047e-08
1.51679e-05
9.34207e-09
1.51756e-05
8.18972e-09
1.51829e-05
6.9218e-09
1.51898e-05
5.59571e-09
1.51962e-05
4.2567e-09
1.52022e-05
2.94076e-09
1.52078e-05
1.67609e-09
1.52129e-05
4.84333e-10
1.52176e-05
-6.20377e-10
-1.6191e-09
1.52219e-05
1.76259e-05
5.57823e-10
1.763e-05
1.58126e-09
1.76361e-05
2.30288e-09
1.76435e-05
2.68527e-09
1.76519e-05
2.73513e-09
1.76606e-05
2.50275e-09
1.76696e-05
2.04251e-09
1.76785e-05
1.40749e-09
1.76872e-05
6.46125e-10
1.76955e-05
-1.96967e-10
1.77036e-05
-1.08444e-09
1.77111e-05
-1.9846e-09
1.77183e-05
-2.87209e-09
1.77249e-05
-3.72591e-09
1.77311e-05
-4.53008e-09
1.77369e-05
-5.272e-09
1.77422e-05
-5.94453e-09
-6.53498e-09
1.77471e-05
1.78276e-05
-8.02379e-10
1.78314e-05
-2.2696e-09
1.78372e-05
-3.47119e-09
1.78443e-05
-4.41559e-09
1.78522e-05
-5.18965e-09
1.78606e-05
-5.87675e-09
1.78691e-05
-6.51871e-09
1.78777e-05
-7.13066e-09
1.7886e-05
-7.71771e-09
1.78941e-05
-8.28277e-09
1.79019e-05
-8.82297e-09
1.79092e-05
-9.33328e-09
1.79162e-05
-9.80661e-09
1.79227e-05
-1.02374e-08
1.79288e-05
-1.06201e-08
1.79344e-05
-1.09508e-08
1.79397e-05
-1.12275e-08
-1.14432e-08
1.79446e-05
1.58826e-05
-2.06349e-09
1.58861e-05
-5.81143e-09
1.58914e-05
-8.7179e-09
1.58977e-05
-1.07826e-08
1.59048e-05
-1.22252e-08
1.59122e-05
-1.32695e-08
1.59197e-05
-1.40414e-08
1.59272e-05
-1.46096e-08
1.59345e-05
-1.50287e-08
1.59415e-05
-1.53419e-08
1.59483e-05
-1.5577e-08
1.59547e-05
-1.57493e-08
1.59608e-05
-1.58681e-08
1.59665e-05
-1.59392e-08
1.59718e-05
-1.59664e-08
1.59768e-05
-1.59514e-08
1.59815e-05
-1.58966e-08
-1.57978e-08
1.59859e-05
1.41499e-05
-3.34548e-09
1.41535e-05
-9.35357e-09
1.41586e-05
-1.38225e-08
1.41646e-05
-1.68041e-08
1.41711e-05
-1.87495e-08
1.41779e-05
-2.00418e-08
1.41847e-05
-2.08713e-08
1.41915e-05
-2.13497e-08
1.4198e-05
-2.158e-08
1.42043e-05
-2.1643e-08
1.42103e-05
-2.15894e-08
1.4216e-05
-2.14511e-08
1.42214e-05
-2.125e-08
1.42265e-05
-2.10018e-08
1.42312e-05
-2.07168e-08
1.42357e-05
-2.04012e-08
1.42398e-05
-2.00597e-08
-1.96906e-08
1.42437e-05
1.26064e-05
-4.75263e-09
1.26102e-05
-1.31405e-08
1.26154e-05
-1.90322e-08
1.26213e-05
-2.26998e-08
1.26275e-05
-2.49723e-08
1.26339e-05
-2.64027e-08
1.26402e-05
-2.72066e-08
1.26464e-05
-2.75381e-08
1.26524e-05
-2.75495e-08
1.26581e-05
-2.73527e-08
1.26635e-05
-2.70154e-08
1.26687e-05
-2.65808e-08
1.26735e-05
-2.60818e-08
1.2678e-05
-2.55414e-08
1.26823e-05
-2.49752e-08
1.26863e-05
-2.4392e-08
1.269e-05
-2.3798e-08
-2.31923e-08
1.26935e-05
1.12315e-05
-6.40779e-09
1.12357e-05
-1.73894e-08
1.12412e-05
-2.45008e-08
1.1247e-05
-2.85675e-08
1.12531e-05
-3.10041e-08
1.12591e-05
-3.2468e-08
1.12651e-05
-3.31631e-08
1.12708e-05
-3.32875e-08
1.12763e-05
-3.30494e-08
1.12816e-05
-3.25834e-08
1.12865e-05
-3.19632e-08
1.12912e-05
-3.12417e-08
1.12956e-05
-3.04599e-08
1.12997e-05
-2.96477e-08
1.13035e-05
-2.88238e-08
1.13071e-05
-2.79993e-08
1.13105e-05
-2.71803e-08
-2.63662e-08
1.13137e-05
1.00067e-05
-8.47612e-09
1.00116e-05
-2.23108e-08
1.00174e-05
-3.03035e-08
1.00233e-05
-3.4453e-08
1.00292e-05
-3.69041e-08
1.0035e-05
-3.83041e-08
1.00407e-05
-3.88042e-08
1.0046e-05
-3.86747e-08
1.00512e-05
-3.81687e-08
1.0056e-05
-3.74267e-08
1.00606e-05
-3.65255e-08
1.00649e-05
-3.5524e-08
1.00689e-05
-3.44712e-08
1.00726e-05
-3.34021e-08
1.00761e-05
-3.23386e-08
1.00794e-05
-3.12929e-08
1.00825e-05
-3.02709e-08
-2.927e-08
1.00854e-05
8.91584e-06
-1.12185e-08
8.92159e-06
-2.80605e-08
8.92772e-06
-3.64349e-08
8.93363e-06
-4.03559e-08
8.93945e-06
-4.27266e-08
8.94512e-06
-4.39706e-08
8.95051e-06
-4.42045e-08
8.95562e-06
-4.37842e-08
8.96045e-06
-4.29977e-08
8.965e-06
-4.19787e-08
8.96928e-06
-4.07971e-08
8.97327e-06
-3.95195e-08
8.977e-06
-3.82011e-08
8.98048e-06
-3.68831e-08
8.98374e-06
-3.55905e-08
8.98678e-06
-3.4337e-08
8.98964e-06
-3.31278e-08
-3.19576e-08
8.99233e-06
7.94444e-06
-1.49843e-08
7.95115e-06
-3.47806e-08
7.9576e-06
-4.28828e-08
7.96358e-06
-4.63405e-08
7.96942e-06
-4.85622e-08
7.97502e-06
-4.95706e-08
7.98029e-06
-4.94748e-08
7.98525e-06
-4.8739e-08
7.98991e-06
-4.76601e-08
7.99428e-06
-4.6352e-08
7.99837e-06
-4.48814e-08
8.00217e-06
-4.332e-08
8.0057e-06
-4.17307e-08
8.00897e-06
-4.01603e-08
8.01202e-06
-3.86387e-08
8.01487e-06
-3.71819e-08
8.01753e-06
-3.57938e-08
-3.4457e-08
8.02003e-06
7.07955e-06
-2.02032e-08
7.08745e-06
-4.26814e-08
7.09438e-06
-4.98133e-08
7.10068e-06
-5.26375e-08
7.10675e-06
-5.46311e-08
7.11249e-06
-5.53053e-08
7.11783e-06
-5.48167e-08
7.12282e-06
-5.37251e-08
7.12748e-06
-5.23215e-08
7.13182e-06
-5.06962e-08
7.13585e-06
-4.8909e-08
7.13957e-06
-4.70377e-08
7.14299e-06
-4.51533e-08
7.14614e-06
-4.33084e-08
7.14904e-06
-4.1541e-08
7.15173e-06
-3.987e-08
7.15424e-06
-3.83028e-08
-3.68145e-08
7.1566e-06
6.30999e-06
-2.76755e-08
6.31977e-06
-5.24582e-08
6.32787e-06
-5.792e-08
6.33523e-06
-5.99913e-08
6.34215e-06
-6.15539e-08
6.34853e-06
-6.16803e-08
6.35437e-06
-6.06528e-08
6.35974e-06
-5.90991e-08
6.3647e-06
-5.72817e-08
6.36925e-06
-5.52475e-08
6.3734e-06
-5.3059e-08
6.37716e-06
-5.07963e-08
6.38055e-06
-4.85384e-08
6.38359e-06
-4.63469e-08
6.38631e-06
-4.42665e-08
6.38877e-06
-4.23301e-08
6.39101e-06
-4.054e-08
-3.88421e-08
6.39304e-06
5.62858e-06
-4.1353e-08
5.64277e-06
-6.66368e-08
5.65445e-06
-6.96021e-08
5.66508e-06
-7.06226e-08
5.67466e-06
-7.11266e-08
5.68304e-06
-7.0059e-08
5.69034e-06
-6.79522e-08
5.6967e-06
-6.54605e-08
5.7022e-06
-6.27775e-08
5.70687e-06
-5.9916e-08
5.71075e-06
-5.69398e-08
5.71389e-06
-5.39345e-08
5.71634e-06
-5.0985e-08
5.71816e-06
-4.81677e-08
5.71943e-06
-4.55366e-08
5.72025e-06
-4.31535e-08
5.72074e-06
-4.10269e-08
-3.92859e-08
5.72118e-06
5.04256e-06
-8.16038e-08
5.07339e-06
-9.74575e-08
5.09477e-06
-9.09758e-08
5.10957e-06
-8.54231e-08
5.11886e-06
-8.04078e-08
5.12365e-06
-7.48534e-08
5.12486e-06
-6.91587e-08
5.12317e-06
-6.37671e-08
5.11909e-06
-5.8697e-08
5.11304e-06
-5.38699e-08
5.1054e-06
-4.92989e-08
5.09649e-06
-4.50248e-08
5.0866e-06
-4.10848e-08
5.07595e-06
-3.75192e-08
5.06484e-06
-3.44313e-08
5.0536e-06
-3.19082e-08
5.04246e-06
-2.98881e-08
-2.87045e-08
5.03188e-06
4.37495e-06
4.27749e-06
4.18651e-06
4.10109e-06
4.02068e-06
3.94583e-06
3.87667e-06
3.8129e-06
3.75421e-06
3.70034e-06
3.65104e-06
3.60601e-06
3.56493e-06
3.52741e-06
3.49298e-06
3.46107e-06
3.43118e-06
3.40248e-06
-1.03249e-08
1.03276e-08
-2.77906e-08
1.74824e-08
-4.73671e-08
1.95794e-08
-6.57042e-08
1.83557e-08
-7.77867e-08
1.20795e-08
-7.57503e-08
-2.01103e-09
-5.48012e-08
-2.09645e-08
-1.62705e-08
-3.85039e-08
3.5111e-08
-5.1407e-08
9.42773e-08
-5.91444e-08
1.55589e-07
-6.134e-08
2.14917e-07
-5.93111e-08
2.69404e-07
-5.45119e-08
3.17384e-07
-4.79668e-08
3.57795e-07
-4.0432e-08
3.90193e-07
-3.23852e-08
4.14252e-07
-2.40752e-08
4.29838e-07
-1.55767e-08
4.36632e-07
-6.80509e-09
4.34244e-07
2.39388e-09
4.22354e-07
1.1879e-08
4.01112e-07
2.12438e-08
3.70995e-07
3.0108e-08
3.32864e-07
3.81278e-08
2.87973e-07
4.48831e-08
2.38113e-07
4.98517e-08
1.85658e-07
5.24487e-08
1.33532e-07
5.21168e-08
8.50641e-08
4.84634e-08
4.35587e-08
4.14954e-08
1.15755e-08
3.19824e-08
-1.01628e-08
2.17307e-08
-2.34568e-08
1.32942e-08
-3.11986e-08
7.73742e-09
-3.60889e-08
4.89072e-09
-4.00021e-08
3.90777e-09
-4.27022e-08
2.70176e-09
-4.07141e-08
-2.00053e-09
-2.97997e-08
-1.0908e-08
-7.33384e-09
-2.24782e-08
2.63159e-08
-3.36409e-08
6.64815e-08
-4.01685e-08
1.0605e-07
-3.95606e-08
1.39031e-07
-3.29748e-08
1.61984e-07
-2.29434e-08
1.73919e-07
-1.19259e-08
1.75582e-07
-1.64995e-09
1.70167e-07
5.42341e-09
1.6268e-07
7.49899e-09
1.56614e-07
6.07053e-09
1.56792e-07
-1.66188e-10
1.68945e-07
-1.2154e-08
1.80294e-07
-1.13261e-08
1.71892e-07
8.3931e-09
1.32862e-07
3.90599e-08
5.43058e-08
7.85493e-08
-6.63423e-08
1.20683e-07
-2.20467e-07
1.54126e-07
-3.96065e-07
1.75615e-07
-5.83565e-07
1.87511e-07
-7.74626e-07
1.91067e-07
-9.62241e-07
1.87631e-07
-1.14104e-06
1.78796e-07
-1.30745e-06
1.66429e-07
-1.45967e-06
1.52221e-07
-1.59711e-06
1.37451e-07
-1.72021e-06
1.23094e-07
-1.82994e-06
1.0975e-07
-1.92766e-06
9.77053e-08
-2.01473e-06
8.7089e-08
-2.09261e-06
7.78686e-08
-2.16254e-06
6.99517e-08
-2.22573e-06
6.31814e-08
-2.28313e-06
5.74054e-08
-2.3356e-06
5.24569e-08
-2.38379e-06
4.81992e-08
-2.4283e-06
4.44994e-08
-2.46955e-06
4.12581e-08
-2.50794e-06
3.83809e-08
-2.54374e-06
3.57985e-08
-2.5772e-06
3.34488e-08
-2.60849e-06
3.1287e-08
-2.63777e-06
2.92735e-08
-2.66516e-06
2.7379e-08
-2.69074e-06
2.5579e-08
-2.71461e-06
2.38528e-08
-2.7368e-06
2.21855e-08
-2.75737e-06
2.05613e-08
-2.77634e-06
1.89695e-08
-2.79374e-06
1.74004e-08
-2.80959e-06
1.58426e-08
-2.82388e-06
1.42873e-08
-2.83662e-06
1.2726e-08
-2.84777e-06
1.11478e-08
-2.85732e-06
9.54366e-09
-2.86523e-06
7.90102e-09
-2.87145e-06
6.20983e-09
-2.87591e-06
4.45557e-09
-2.87855e-06
2.63655e-09
-2.87935e-06
8.06813e-10
-2.87848e-06
-8.72534e-10
-2.87615e-06
-2.32997e-09
-2.87247e-06
-3.67464e-09
-2.86747e-06
-4.98962e-09
-2.86117e-06
-6.29552e-09
-2.85357e-06
-7.59825e-09
-2.84466e-06
-8.90062e-09
-2.83446e-06
-1.02005e-08
-2.82295e-06
-1.14993e-08
-2.81015e-06
-1.27935e-08
-2.79607e-06
-1.40848e-08
-2.78069e-06
-1.53692e-08
-2.76405e-06
-1.66484e-08
-2.74613e-06
-1.79184e-08
-2.72695e-06
-1.91809e-08
-2.70652e-06
-2.04318e-08
-2.68485e-06
-2.16726e-08
-2.66195e-06
-2.28996e-08
-2.63784e-06
-2.41141e-08
-2.61254e-06
-2.53125e-08
-2.58605e-06
-2.64957e-08
-2.55839e-06
-2.76605e-08
-2.5296e-06
-2.8807e-08
-2.49967e-06
-2.99321e-08
-2.46865e-06
-3.10338e-08
-2.43655e-06
-3.2107e-08
-2.40341e-06
-3.31434e-08
-2.36928e-06
-3.41405e-08
-2.3342e-06
-3.50934e-08
-2.29822e-06
-3.59878e-08
-2.2613e-06
-3.6925e-08
-2.2234e-06
-3.79085e-08
-2.18458e-06
-3.88303e-08
-2.14488e-06
-3.97033e-08
-2.10435e-06
-4.05417e-08
-2.06301e-06
-4.13494e-08
-2.02089e-06
-4.21235e-08
-1.97803e-06
-4.2865e-08
-1.93446e-06
-4.35737e-08
-1.89021e-06
-4.42516e-08
-1.84532e-06
-4.48967e-08
-1.79982e-06
-4.551e-08
-1.75374e-06
-4.60895e-08
-1.70711e-06
-4.66382e-08
-1.65995e-06
-4.71548e-08
-1.61231e-06
-4.76426e-08
-1.5642e-06
-4.81009e-08
-1.51567e-06
-4.85274e-08
-1.46673e-06
-4.89313e-08
-1.41742e-06
-4.92998e-08
-1.36778e-06
-4.96431e-08
-1.31782e-06
-4.99496e-08
-1.26759e-06
-5.02293e-08
-1.21711e-06
-5.0473e-08
-1.16641e-06
-5.06961e-08
-1.11552e-06
-5.08905e-08
-1.06444e-06
-5.10744e-08
-1.0132e-06
-5.12385e-08
-9.61803e-07
-5.14013e-08
-9.10248e-07
-5.15556e-08
-8.58543e-07
-5.17055e-08
-8.06688e-07
-5.18564e-08
-7.54692e-07
-5.19982e-08
-7.02559e-07
-5.2135e-08
-6.50295e-07
-5.22671e-08
-5.979e-07
-5.2398e-08
-5.45372e-07
-5.25323e-08
-4.92702e-07
-5.2674e-08
-4.39882e-07
-5.28246e-08
-3.86907e-07
-5.29797e-08
-3.33783e-07
-5.31286e-08
-2.80541e-07
-5.32479e-08
-2.27245e-07
-5.33024e-08
-1.74014e-07
-5.32369e-08
-1.21061e-07
-5.29593e-08
-6.88255e-08
-5.22425e-08
-1.79337e-08
-5.08987e-08
2.99362e-08
-4.78762e-08
7.45943e-08
-4.46641e-08
-2.08577e-08
9.54479e-08
-4.01122e-09
1.43453e-08
-1.18989e-08
2.54002e-08
-1.76267e-08
2.53086e-08
-1.39948e-08
1.47597e-08
6.67404e-09
-8.59656e-09
4.47553e-08
-4.00703e-08
9.64747e-08
-7.26967e-08
1.56348e-07
-9.8367e-08
2.18427e-07
-1.13499e-07
2.7792e-07
-1.18631e-07
3.32378e-07
-1.15811e-07
3.8062e-07
-1.07549e-07
4.22194e-07
-9.60986e-08
4.57235e-07
-8.30026e-08
4.86007e-07
-6.92165e-08
5.08918e-07
-5.52923e-08
5.26332e-07
-4.14991e-08
5.38698e-07
-2.79411e-08
5.46513e-07
-1.46288e-08
5.50403e-07
-1.49637e-09
5.50614e-07
1.16593e-08
5.46808e-07
2.50467e-08
5.38248e-07
3.8661e-08
5.24051e-07
5.23184e-08
5.03312e-07
6.56155e-08
4.75264e-07
7.78935e-08
4.39471e-07
8.8236e-08
3.96037e-07
9.55432e-08
3.45771e-07
9.8726e-08
2.90264e-07
9.69959e-08
2.32029e-07
9.02136e-08
1.74626e-07
7.9127e-08
1.22876e-07
6.50457e-08
8.12732e-08
4.93288e-08
5.28135e-08
3.33606e-08
3.86904e-08
1.80131e-08
3.89861e-08
2.42129e-09
5.15314e-08
-1.45626e-08
7.4609e-08
-3.39741e-08
1.06508e-07
-5.43823e-08
1.42064e-07
-6.91894e-08
1.74103e-07
-7.2207e-08
1.98146e-07
-6.35963e-08
2.12255e-07
-4.70775e-08
2.16583e-07
-2.72629e-08
2.12803e-07
-8.13507e-09
2.02432e-07
8.73391e-09
1.8858e-07
1.92879e-08
1.75299e-07
2.07984e-08
1.51611e-07
2.97616e-08
9.89372e-08
5.25294e-08
-3.79381e-09
9.05838e-08
-1.59941e-07
1.44839e-07
-3.51719e-07
2.00175e-07
-5.61022e-07
2.48371e-07
-7.73317e-07
2.90849e-07
-9.78577e-07
3.25949e-07
-1.173e-06
3.48552e-07
-1.35367e-06
3.56294e-07
-1.51711e-06
3.50952e-07
-1.66136e-06
3.35329e-07
-1.78625e-06
3.12521e-07
-1.89302e-06
2.85575e-07
-1.98375e-06
2.57162e-07
-2.06087e-06
2.29348e-07
-2.12688e-06
2.03465e-07
-2.18402e-06
1.80228e-07
-2.23413e-06
1.59875e-07
-2.27876e-06
1.42333e-07
-2.31904e-06
1.27374e-07
-2.35585e-06
1.14676e-07
-2.3898e-06
1.03903e-07
-2.42135e-06
9.47316e-08
-2.45081e-06
8.68748e-08
-2.47844e-06
8.0082e-08
-2.50439e-06
7.41499e-08
-2.5288e-06
6.89049e-08
-2.55175e-06
6.42091e-08
-2.57332e-06
5.99484e-08
-2.59357e-06
5.60357e-08
-2.61252e-06
5.23985e-08
-2.63022e-06
4.89813e-08
-2.64669e-06
4.57383e-08
-2.66195e-06
4.26337e-08
-2.67601e-06
3.96383e-08
-2.6889e-06
3.67282e-08
-2.7006e-06
3.38843e-08
-2.71114e-06
3.10898e-08
-2.7205e-06
2.83318e-08
-2.7287e-06
2.5598e-08
-2.73574e-06
2.28795e-08
-2.74162e-06
2.01674e-08
-2.74636e-06
1.74559e-08
-2.74996e-06
1.47402e-08
-2.75244e-06
1.20179e-08
-2.75383e-06
9.28858e-09
-2.75419e-06
6.55616e-09
-2.75356e-06
3.83112e-09
-2.75207e-06
1.13929e-09
-2.74977e-06
-1.48689e-09
-2.74658e-06
-4.05975e-09
-2.74228e-06
-6.62823e-09
-2.73675e-06
-9.20498e-09
-2.72995e-06
-1.17814e-08
-2.72189e-06
-1.43576e-08
-2.71255e-06
-1.69341e-08
-2.70193e-06
-1.95103e-08
-2.69005e-06
-2.20843e-08
-2.67689e-06
-2.46549e-08
-2.66246e-06
-2.72191e-08
-2.64677e-06
-2.97756e-08
-2.62981e-06
-3.23213e-08
-2.6116e-06
-3.48547e-08
-2.59215e-06
-3.73725e-08
-2.57146e-06
-3.98733e-08
-2.54954e-06
-4.23536e-08
-2.5264e-06
-4.4812e-08
-2.50206e-06
-4.72451e-08
-2.47653e-06
-4.96513e-08
-2.44982e-06
-5.20272e-08
-2.42194e-06
-5.43711e-08
-2.39293e-06
-5.66795e-08
-2.36279e-06
-5.89501e-08
-2.33155e-06
-6.11792e-08
-2.29923e-06
-6.33638e-08
-2.26584e-06
-6.54993e-08
-2.23141e-06
-6.7582e-08
-2.19595e-06
-6.96106e-08
-2.15947e-06
-7.15822e-08
-2.12196e-06
-7.34969e-08
-2.0835e-06
-7.53939e-08
-2.04414e-06
-7.72677e-08
-2.0039e-06
-7.90727e-08
-1.96281e-06
-8.0806e-08
-1.92088e-06
-8.24759e-08
-1.87815e-06
-8.40841e-08
-1.83465e-06
-8.56274e-08
-1.79041e-06
-8.71052e-08
-1.74547e-06
-8.85182e-08
-1.69986e-06
-8.9868e-08
-1.65361e-06
-9.1153e-08
-1.60675e-06
-9.23731e-08
-1.55932e-06
-9.35274e-08
-1.51134e-06
-9.46183e-08
-1.46285e-06
-9.56466e-08
-1.41387e-06
-9.66146e-08
-1.36445e-06
-9.75244e-08
-1.3146e-06
-9.83741e-08
-1.26435e-06
-9.91723e-08
-1.21374e-06
-9.991e-08
-1.16279e-06
-1.0059e-07
-1.11153e-06
-1.01206e-07
-1.05999e-06
-1.0176e-07
-1.00821e-06
-1.02252e-07
-9.56214e-07
-1.02692e-07
-9.04019e-07
-1.03085e-07
-8.51647e-07
-1.03445e-07
-7.9911e-07
-1.03776e-07
-7.46419e-07
-1.04092e-07
-6.93576e-07
-1.04399e-07
-6.40586e-07
-1.04696e-07
-5.87453e-07
-1.04991e-07
-5.3418e-07
-1.05273e-07
-4.80772e-07
-1.05545e-07
-4.27234e-07
-1.05808e-07
-3.73566e-07
-1.06069e-07
-3.19765e-07
-1.06336e-07
-2.65824e-07
-1.06619e-07
-2.11735e-07
-1.06918e-07
-1.57492e-07
-1.07227e-07
-1.03098e-07
-1.07527e-07
-4.8575e-08
-1.07776e-07
6.02578e-09
-1.07908e-07
6.06159e-08
-1.07833e-07
1.15026e-07
-1.07375e-07
1.68979e-07
-1.06201e-07
2.21929e-07
-1.03855e-07
2.73457e-07
-9.94093e-08
3.20051e-07
-9.12625e-08
-6.57374e-08
3.64926e-07
1.33581e-09
1.30144e-08
4.57535e-09
2.21832e-08
1.65601e-08
1.33271e-08
4.78146e-08
-1.64783e-08
1.00331e-07
-6.11171e-08
1.66689e-07
-1.0642e-07
2.34627e-07
-1.40643e-07
2.95893e-07
-1.59627e-07
3.47177e-07
-1.64791e-07
3.88399e-07
-1.59849e-07
4.21084e-07
-1.48505e-07
4.47104e-07
-1.33566e-07
4.67905e-07
-1.1691e-07
4.84559e-07
-9.96556e-08
4.97734e-07
-8.24018e-08
5.07888e-07
-6.5446e-08
5.15291e-07
-4.89123e-08
5.20179e-07
-3.28313e-08
5.22734e-07
-1.71926e-08
5.23196e-07
-1.96235e-09
5.21906e-07
1.29397e-08
5.19289e-07
2.76588e-08
5.15613e-07
4.23286e-08
5.10901e-07
5.70234e-08
5.04815e-07
7.16948e-08
4.96593e-07
8.61071e-08
4.85047e-07
9.97758e-08
4.68677e-07
1.11906e-07
4.45996e-07
1.21401e-07
4.16005e-07
1.2698e-07
3.78804e-07
1.27412e-07
3.36098e-07
1.21827e-07
2.91221e-07
1.09921e-07
2.48465e-07
9.20816e-08
2.12418e-07
6.94082e-08
1.87151e-07
4.32766e-08
1.74851e-07
1.47234e-08
1.75315e-07
-1.50288e-08
1.86638e-07
-4.52946e-08
2.01914e-07
-6.96585e-08
2.12144e-07
-7.94174e-08
2.12226e-07
-7.2287e-08
2.02014e-07
-5.33815e-08
1.82749e-07
-2.78047e-08
1.56004e-07
-5.09814e-10
1.23369e-07
2.45113e-08
7.99565e-08
5.21618e-08
1.31268e-08
8.61336e-08
-9.25878e-08
1.26527e-07
-2.41928e-07
1.79109e-07
-4.2777e-07
2.38377e-07
-6.34935e-07
2.97752e-07
-8.43145e-07
3.53053e-07
-1.04196e-06
3.98988e-07
-1.22578e-06
4.32202e-07
-1.38785e-06
4.52917e-07
-1.52307e-06
4.61175e-07
-1.63176e-06
4.57243e-07
-1.71785e-06
4.42384e-07
-1.78586e-06
4.18966e-07
-1.84036e-06
3.89833e-07
-1.88554e-06
3.57706e-07
-1.92483e-06
3.24869e-07
-1.96071e-06
2.93045e-07
-1.99473e-06
2.63373e-07
-2.02774e-06
2.36482e-07
-2.06011e-06
2.12597e-07
-2.09191e-06
1.91675e-07
-2.12308e-06
1.73502e-07
-2.15349e-06
1.57786e-07
-2.18302e-06
1.44208e-07
-2.21156e-06
1.32445e-07
-2.23903e-06
1.22201e-07
-2.26537e-06
1.13219e-07
-2.29056e-06
1.0527e-07
-2.31457e-06
9.81654e-08
-2.33741e-06
9.17446e-08
-2.35908e-06
8.5876e-08
-2.37959e-06
8.04513e-08
-2.39894e-06
7.5384e-08
-2.41715e-06
7.06032e-08
-2.43422e-06
6.6052e-08
-2.45017e-06
6.16842e-08
-2.465e-06
5.74623e-08
-2.47873e-06
5.3356e-08
-2.49134e-06
4.93403e-08
-2.50286e-06
4.53947e-08
-2.51327e-06
4.1502e-08
-2.52259e-06
3.76478e-08
-2.53082e-06
3.38214e-08
-2.53795e-06
3.00113e-08
-2.544e-06
2.62111e-08
-2.54896e-06
2.24149e-08
-2.55285e-06
1.86203e-08
-2.55566e-06
1.48261e-08
-2.55741e-06
1.10344e-08
-2.55811e-06
7.2484e-09
-2.55775e-06
3.47546e-09
-2.55634e-06
-2.76466e-10
-2.55382e-06
-4.00764e-09
-2.55013e-06
-7.74039e-09
-2.54526e-06
-1.14976e-08
-2.53919e-06
-1.52777e-08
-2.53189e-06
-1.90711e-08
-2.52338e-06
-2.28726e-08
-2.51363e-06
-2.66792e-08
-2.50265e-06
-3.04871e-08
-2.49043e-06
-3.42942e-08
-2.47699e-06
-3.80964e-08
-2.46231e-06
-4.18912e-08
-2.44641e-06
-4.56746e-08
-2.42929e-06
-4.94439e-08
-2.41095e-06
-5.3195e-08
-2.3914e-06
-5.69248e-08
-2.37064e-06
-6.06293e-08
-2.34869e-06
-6.43052e-08
-2.32556e-06
-6.79484e-08
-2.30125e-06
-7.15556e-08
-2.27578e-06
-7.51227e-08
-2.24916e-06
-7.86464e-08
-2.22142e-06
-8.21225e-08
-2.19255e-06
-8.55471e-08
-2.16259e-06
-8.89161e-08
-2.13155e-06
-9.22251e-08
-2.09945e-06
-9.54698e-08
-2.06631e-06
-9.86459e-08
-2.03214e-06
-1.0175e-07
-1.99698e-06
-1.04781e-07
-1.96083e-06
-1.07736e-07
-1.92371e-06
-1.10617e-07
-1.88567e-06
-1.13437e-07
-1.84675e-06
-1.16191e-07
-1.80697e-06
-1.18857e-07
-1.76635e-06
-1.21429e-07
-1.72492e-06
-1.2391e-07
-1.68271e-06
-1.26301e-07
-1.63974e-06
-1.28598e-07
-1.59605e-06
-1.30797e-07
-1.55167e-06
-1.32901e-07
-1.50663e-06
-1.34909e-07
-1.46097e-06
-1.36821e-07
-1.41471e-06
-1.38636e-07
-1.36789e-06
-1.40353e-07
-1.32053e-06
-1.41976e-07
-1.27267e-06
-1.43505e-07
-1.22434e-06
-1.44943e-07
-1.17557e-06
-1.46293e-07
-1.12639e-06
-1.47557e-07
-1.07682e-06
-1.4874e-07
-1.02688e-06
-1.4984e-07
-9.76621e-07
-1.50851e-07
-9.26054e-07
-1.51772e-07
-8.75215e-07
-1.52597e-07
-8.24131e-07
-1.53335e-07
-7.72831e-07
-1.53991e-07
-7.21334e-07
-1.54581e-07
-6.69663e-07
-1.55116e-07
-6.17827e-07
-1.55612e-07
-5.6584e-07
-1.56079e-07
-5.13704e-07
-1.56535e-07
-4.61424e-07
-1.56976e-07
-4.09003e-07
-1.57412e-07
-3.56445e-07
-1.57831e-07
-3.03754e-07
-1.58236e-07
-2.50934e-07
-1.58629e-07
-1.97983e-07
-1.5902e-07
-1.449e-07
-1.5942e-07
-9.16758e-08
-1.59843e-07
-3.8303e-08
-1.60291e-07
1.52263e-08
-1.60757e-07
6.89106e-08
-1.61211e-07
1.22734e-07
-1.616e-07
1.76664e-07
-1.61837e-07
2.30621e-07
-1.6179e-07
2.8448e-07
-1.61234e-07
3.38061e-07
-1.59781e-07
3.91054e-07
-1.56848e-07
4.43089e-07
-1.51444e-07
4.93191e-07
-1.41365e-07
-1.17303e-07
5.44756e-07
-8.39994e-10
1.38564e-08
9.19171e-09
1.21665e-08
4.64661e-08
-2.39499e-08
1.13043e-07
-8.30463e-08
1.91979e-07
-1.40058e-07
2.64861e-07
-1.79296e-07
3.22066e-07
-1.97854e-07
3.62517e-07
-2.00074e-07
3.89555e-07
-1.91837e-07
4.07527e-07
-1.77819e-07
4.19953e-07
-1.60939e-07
4.29176e-07
-1.42787e-07
4.36437e-07
-1.24181e-07
4.42325e-07
-1.05545e-07
4.47017e-07
-8.71038e-08
4.5055e-07
-6.89815e-08
4.52876e-07
-5.12494e-08
4.53986e-07
-3.39461e-08
4.53873e-07
-1.70914e-08
4.52598e-07
-6.93399e-10
4.50261e-07
1.52658e-08
4.47088e-07
3.08239e-08
4.4338e-07
4.60262e-08
4.39473e-07
6.09215e-08
4.35635e-07
7.55235e-08
4.31965e-07
8.97685e-08
4.28257e-07
1.03476e-07
4.23878e-07
1.16275e-07
4.17746e-07
1.27527e-07
4.08469e-07
1.36248e-07
3.94763e-07
1.41112e-07
3.75967e-07
1.40616e-07
3.52489e-07
1.33395e-07
3.2602e-07
1.18546e-07
2.99366e-07
9.60593e-08
2.75839e-07
6.68007e-08
2.58034e-07
3.25284e-08
2.4668e-07
-3.67939e-09
2.37151e-07
-3.57644e-08
2.2122e-07
-5.37288e-08
1.93992e-07
-5.21882e-08
1.5556e-07
-3.3853e-08
1.07267e-07
-5.08243e-09
4.8094e-08
3.13763e-08
-2.79048e-08
7.55009e-08
-1.29181e-07
1.25799e-07
-2.59199e-07
1.82189e-07
-4.17023e-07
2.43964e-07
-5.98446e-07
3.07955e-07
-7.89799e-07
3.70466e-07
-9.77932e-07
4.26514e-07
-1.15231e-06
4.72137e-07
-1.30419e-06
5.04927e-07
-1.42962e-06
5.2442e-07
-1.52909e-06
5.31679e-07
-1.60423e-06
5.28053e-07
-1.65823e-06
5.15185e-07
-1.69586e-06
4.94871e-07
-1.72243e-06
4.68952e-07
-1.74278e-06
4.39321e-07
-1.76068e-06
4.07733e-07
-1.77866e-06
3.75692e-07
-1.79817e-06
3.44381e-07
-1.81978e-06
3.14659e-07
-1.84348e-06
2.87079e-07
-1.86893e-06
2.61932e-07
-1.89563e-06
2.39301e-07
-1.92308e-06
2.19125e-07
-1.95082e-06
2.01239e-07
-1.97846e-06
1.85429e-07
-2.0057e-06
1.71453e-07
-2.03232e-06
1.59066e-07
-2.05815e-06
1.48036e-07
-2.08309e-06
1.38154e-07
-2.10705e-06
1.29229e-07
-2.12998e-06
1.21099e-07
-2.15186e-06
1.13622e-07
-2.17267e-06
1.06681e-07
-2.1924e-06
1.00177e-07
-2.21104e-06
9.40272e-08
-2.22861e-06
8.81647e-08
-2.24509e-06
8.25341e-08
-2.2605e-06
7.709e-08
-2.27483e-06
7.1795e-08
-2.2881e-06
6.66184e-08
-2.3003e-06
6.15352e-08
-2.31143e-06
5.65241e-08
-2.3215e-06
5.15678e-08
-2.33051e-06
4.66518e-08
-2.33845e-06
4.17629e-08
-2.34533e-06
3.68919e-08
-2.35115e-06
3.20298e-08
-2.35591e-06
2.71705e-08
-2.35961e-06
2.23112e-08
-2.36224e-06
1.74495e-08
-2.36379e-06
1.25859e-08
-2.36427e-06
7.72065e-09
-2.36365e-06
2.85579e-09
-2.36191e-06
-2.00913e-09
-2.35904e-06
-6.8802e-09
-2.35501e-06
-1.17719e-08
-2.34981e-06
-1.66945e-08
-2.34344e-06
-2.16451e-08
-2.33589e-06
-2.66161e-08
-2.32716e-06
-3.16009e-08
-2.31724e-06
-3.65949e-08
-2.30613e-06
-4.15928e-08
-2.29383e-06
-4.65909e-08
-2.28034e-06
-5.1584e-08
-2.26566e-06
-5.65686e-08