/*--------------------------------*- C++ -*----------------------------------*\
  =========                 |
  \\      /  F ield         | OpenFOAM: The Open Source CFD Toolbox
   \\    /   O peration     | Website:  https://openfoam.org
    \\  /    A nd           | Version:  8
     \\/     M anipulation  |
\*---------------------------------------------------------------------------*/
FoamFile
{
    version     2.0;
    format      ascii;
    class       surfaceScalarField;
    location    "1600";
    object      phi;
}
// * * * * * * * * * * * * * * * * * * * * * * * * * * * * * * * * * * * * * //

dimensions      [0 3 -1 0 0 0 0];

internalField   nonuniform List<scalar> 
24170
(
2.98713e-06
1.46771e-07
2.83172e-06
1.55647e-07
2.69504e-06
1.3683e-07
2.57589e-06
1.19175e-07
2.47719e-06
9.86438e-08
2.39624e-06
8.08977e-08
2.32945e-06
6.67922e-08
2.27531e-06
5.40395e-08
2.23184e-06
4.3435e-08
2.19632e-06
3.54851e-08
2.16588e-06
3.04865e-08
2.13994e-06
2.59555e-08
2.11893e-06
2.10481e-08
2.1003e-06
1.8669e-08
2.08473e-06
1.55666e-08
2.07416e-06
1.05709e-08
2.06841e-06
5.73696e-09
-3.6968e-10
2.06877e-06
3.53069e-06
7.2526e-08
3.57509e-06
1.11285e-07
3.59773e-06
1.14306e-07
3.59975e-06
1.17284e-07
3.58427e-06
1.14281e-07
3.55894e-06
1.06444e-07
3.52806e-06
9.78715e-08
3.49435e-06
8.78146e-08
3.45833e-06
7.94478e-08
3.42052e-06
7.3224e-08
3.38457e-06
6.63926e-08
3.35164e-06
5.88152e-08
3.32172e-06
5.09135e-08
3.29387e-06
4.64575e-08
3.26789e-06
4.1494e-08
3.24395e-06
3.44635e-08
3.22189e-06
2.77582e-08
2.22308e-08
3.19925e-06
3.83053e-06
5.42076e-08
3.84743e-06
9.45971e-08
3.86444e-06
9.74374e-08
3.88135e-06
1.00376e-07
3.8952e-06
1.00331e-07
3.905e-06
9.65562e-08
3.91075e-06
9.20346e-08
3.91253e-06
8.5946e-08
3.91152e-06
8.03786e-08
3.9089e-06
7.5807e-08
3.90486e-06
7.04501e-08
3.89947e-06
6.42218e-08
3.8926e-06
5.78188e-08
3.88602e-06
5.30639e-08
3.87952e-06
4.80127e-08
3.87206e-06
4.19268e-08
3.8638e-06
3.60201e-08
3.05109e-08
3.85552e-06
4.21603e-06
4.27399e-08
4.22671e-06
8.39689e-08
4.23446e-06
8.97632e-08
4.24304e-06
9.18636e-08
4.25155e-06
9.19167e-08
4.2593e-06
8.89495e-08
4.26651e-06
8.49401e-08
4.2725e-06
8.00254e-08
4.27749e-06
7.53802e-08
4.28202e-06
7.12656e-08
4.28587e-06
6.65743e-08
4.28879e-06
6.12808e-08
4.29066e-06
5.59281e-08
4.29241e-06
5.12915e-08
4.29391e-06
4.64812e-08
4.29459e-06
4.12275e-08
4.29454e-06
3.60535e-08
3.11208e-08
4.2939e-06
4.64602e-06
3.40354e-08
4.65681e-06
7.33022e-08
4.66419e-06
8.24562e-08
4.67122e-06
8.48184e-08
4.67787e-06
8.5197e-08
4.68396e-06
8.27867e-08
4.68976e-06
7.90812e-08
4.69499e-06
7.47194e-08
4.6998e-06
7.05159e-08
4.70449e-06
6.65747e-08
4.70883e-06
6.22401e-08
4.71262e-06
5.75026e-08
4.71583e-06
5.27385e-08
4.71888e-06
4.82613e-08
4.72167e-06
4.37064e-08
4.72391e-06
3.8991e-08
4.72561e-06
3.43479e-08
2.99338e-08
4.72682e-06
5.12145e-06
2.71906e-08
5.13166e-06
6.31634e-08
5.13956e-06
7.46264e-08
5.14666e-06
7.77865e-08
5.15323e-06
7.87212e-08
5.15916e-06
7.6982e-08
5.16463e-06
7.37139e-08
5.16963e-06
6.97949e-08
5.1743e-06
6.58834e-08
5.17885e-06
6.20454e-08
5.18314e-06
5.79497e-08
5.18703e-06
5.35993e-08
5.19053e-06
4.92239e-08
5.19382e-06
4.49562e-08
5.19682e-06
4.06784e-08
5.19941e-06
3.63813e-08
5.20157e-06
3.21814e-08
2.81638e-08
5.2033e-06
5.64644e-06
2.17684e-08
5.65589e-06
5.37766e-08
5.66411e-06
6.64416e-08
5.67145e-06
7.04428e-08
5.6783e-06
7.18411e-08
5.68446e-06
7.07883e-08
5.69007e-06
6.80619e-08
5.6952e-06
6.46341e-08
5.69999e-06
6.10625e-08
5.70461e-06
5.74342e-08
5.70897e-06
5.35982e-08
5.71298e-06
4.9589e-08
5.71667e-06
4.55386e-08
5.7201e-06
4.15286e-08
5.72323e-06
3.75449e-08
5.726e-06
3.36092e-08
5.72838e-06
2.97855e-08
2.61562e-08
5.7304e-06
4.40931e-06
1.85819e-08
4.41549e-06
4.76843e-08
4.42147e-06
6.05252e-08
4.4269e-06
6.50795e-08
4.432e-06
6.68118e-08
4.43667e-06
6.62023e-08
4.44091e-06
6.38906e-08
4.44479e-06
6.08071e-08
4.4484e-06
5.74814e-08
4.45183e-06
5.40319e-08
4.45505e-06
5.03879e-08
4.45804e-06
4.66004e-08
4.46081e-06
4.27686e-08
4.46338e-06
3.89618e-08
4.46571e-06
3.51955e-08
4.46781e-06
3.15064e-08
4.46964e-06
2.79442e-08
2.456e-08
4.47122e-06
5.14282e-06
1.56296e-08
5.14901e-06
4.15204e-08
5.15537e-06
5.42021e-08
5.16129e-06
5.91762e-08
5.16692e-06
6.11978e-08
5.17214e-06
6.09791e-08
5.17691e-06
5.912e-08
5.18128e-06
5.64212e-08
5.18537e-06
5.33919e-08
5.18924e-06
5.01699e-08
5.19287e-06
4.67602e-08
5.19626e-06
4.3218e-08
5.19939e-06
3.96316e-08
5.20229e-06
3.60573e-08
5.20493e-06
3.25434e-08
5.20731e-06
2.91164e-08
5.20942e-06
2.58241e-08
2.27219e-08
5.21126e-06
5.99849e-06
1.29361e-08
6.00459e-06
3.54846e-08
6.0112e-06
4.7653e-08
6.01756e-06
5.28656e-08
6.02369e-06
5.51146e-08
6.02946e-06
5.52442e-08
6.03478e-06
5.38202e-08
6.0397e-06
5.15153e-08
6.04431e-06
4.8796e-08
6.04866e-06
4.58301e-08
6.05275e-06
4.26786e-08
6.05657e-06
3.94047e-08
6.06011e-06
3.60839e-08
6.06338e-06
3.27912e-08
6.06637e-06
2.95466e-08
6.06906e-06
2.64136e-08
6.07148e-06
2.34125e-08
2.05891e-08
6.07361e-06
6.99668e-06
1.05339e-08
7.00257e-06
2.96291e-08
7.00933e-06
4.09297e-08
7.01606e-06
4.61814e-08
7.02265e-06
4.85578e-08
7.02895e-06
4.89689e-08
7.03484e-06
4.79366e-08
7.04034e-06
4.60263e-08
7.04551e-06
4.36321e-08
7.05038e-06
4.0964e-08
7.05496e-06
3.80989e-08
7.05924e-06
3.51224e-08
7.06322e-06
3.21149e-08
7.06689e-06
2.91162e-08
7.07025e-06
2.6191e-08
7.0733e-06
2.33616e-08
7.07605e-06
2.06691e-08
1.81372e-08
7.0785e-06
8.16116e-06
8.38559e-09
8.16675e-06
2.40856e-08
8.17356e-06
3.41678e-08
8.18058e-06
3.91915e-08
8.18759e-06
4.15781e-08
8.19439e-06
4.21755e-08
8.20086e-06
4.14787e-08
8.20694e-06
3.99228e-08
8.2127e-06
3.78839e-08
8.21813e-06
3.5528e-08
8.22323e-06
3.29971e-08
8.228e-06
3.03529e-08
8.23245e-06
2.76804e-08
8.23656e-06
2.50215e-08
8.24032e-06
2.24313e-08
8.24375e-06
1.9934e-08
8.24686e-06
1.75638e-08
1.53428e-08
8.24966e-06
9.51966e-06
6.47324e-09
9.52488e-06
1.89023e-08
9.53164e-06
2.74509e-08
9.53889e-06
3.19778e-08
9.54627e-06
3.4228e-08
9.55356e-06
3.48986e-08
9.56059e-06
3.44396e-08
9.56729e-06
3.32226e-08
9.57364e-06
3.15057e-08
9.57966e-06
2.95132e-08
9.58532e-06
2.73251e-08
9.59063e-06
2.50583e-08
9.59557e-06
2.27431e-08
9.60015e-06
2.04619e-08
9.60435e-06
1.82223e-08
9.60821e-06
1.6088e-08
9.61171e-06
1.40519e-08
1.21607e-08
9.61488e-06
1.11044e-05
4.73645e-09
1.11093e-05
1.40438e-08
1.1116e-05
2.0833e-08
1.11234e-05
2.45829e-08
1.11311e-05
2.65169e-08
1.11389e-05
2.71441e-08
1.11465e-05
2.68405e-08
1.11538e-05
2.58825e-08
1.11608e-05
2.4506e-08
1.11674e-05
2.28566e-08
1.11737e-05
2.1059e-08
1.11796e-05
1.91701e-08
1.11851e-05
1.72625e-08
1.11902e-05
1.53614e-08
1.11949e-05
1.35226e-08
1.11992e-05
1.17571e-08
1.12031e-05
1.00951e-08
8.54411e-09
1.12067e-05
1.29532e-05
3.12822e-09
1.29578e-05
9.44208e-09
1.29644e-05
1.42913e-08
1.29719e-05
1.70213e-08
1.298e-05
1.84531e-08
1.29882e-05
1.89019e-08
1.29964e-05
1.865e-08
1.30044e-05
1.79038e-08
1.30121e-05
1.6823e-08
1.30194e-05
1.55318e-08
1.30263e-05
1.4119e-08
1.30328e-05
1.2643e-08
1.3039e-05
1.115e-08
1.30446e-05
9.67578e-09
1.30499e-05
8.25051e-09
1.30547e-05
6.89389e-09
1.30592e-05
5.6186e-09
4.44217e-09
1.30633e-05
1.511e-05
1.58977e-09
1.51144e-05
4.96794e-09
1.5121e-05
7.75818e-09
1.51287e-05
9.23759e-09
1.51372e-05
9.97384e-09
1.5146e-05
1.01097e-08
1.51548e-05
9.80822e-09
1.51635e-05
9.20217e-09
1.51719e-05
8.38621e-09
1.518e-05
7.44201e-09
1.51877e-05
6.42509e-09
1.5195e-05
5.3781e-09
1.52018e-05
4.33031e-09
1.52082e-05
3.30751e-09
1.52141e-05
2.32761e-09
1.52196e-05
1.40494e-09
1.52246e-05
5.45816e-10
-2.33397e-10
1.52293e-05
1.7626e-05
5.36929e-11
1.76305e-05
4.57296e-10
1.76372e-05
1.00311e-09
1.76454e-05
1.02524e-09
1.76545e-05
8.86548e-10
1.76641e-05
5.6328e-10
1.76738e-05
1.26346e-10
1.76834e-05
-4.04382e-10
1.76927e-05
-9.72857e-10
1.77017e-05
-1.57514e-09
1.77103e-05
-2.1726e-09
1.77185e-05
-2.76751e-09
1.77261e-05
-3.33422e-09
1.77333e-05
-3.87526e-09
1.774e-05
-4.37371e-09
1.77462e-05
-4.83229e-09
1.7752e-05
-5.24232e-09
-5.59735e-09
1.77574e-05
1.78277e-05
-1.40574e-09
1.7832e-05
-3.82017e-09
1.78385e-05
-5.49483e-09
1.78465e-05
-6.92376e-09
1.78554e-05
-7.97828e-09
1.78647e-05
-8.76915e-09
1.78742e-05
-9.39344e-09
1.78837e-05
-9.85095e-09
1.78929e-05
-1.02121e-08
1.79018e-05
-1.04684e-08
1.79103e-05
-1.06755e-08
1.79184e-05
-1.0816e-08
1.79259e-05
-1.09281e-08
1.79331e-05
-1.09925e-08
1.79397e-05
-1.10355e-08
1.79459e-05
-1.10399e-08
1.79517e-05
-1.10253e-08
-1.09688e-08
1.79571e-05
1.58827e-05
-2.79189e-09
1.58868e-05
-7.80645e-09
1.58928e-05
-1.14945e-08
1.59001e-05
-1.42039e-08
1.59082e-05
-1.60204e-08
1.59167e-05
-1.72218e-08
1.59253e-05
-1.79558e-08
1.59338e-05
-1.83484e-08
1.5942e-05
-1.84691e-08
1.595e-05
-1.84212e-08
1.59576e-05
-1.82386e-08
1.59647e-05
-1.79839e-08
1.59714e-05
-1.76641e-08
1.59778e-05
-1.73184e-08
1.59837e-05
-1.69423e-08
1.59892e-05
-1.65601e-08
1.59943e-05
-1.61634e-08
-1.57588e-08
1.59991e-05
1.41501e-05
-4.22678e-09
1.41542e-05
-1.18662e-08
1.41602e-05
-1.74247e-08
1.41672e-05
-2.12346e-08
1.41749e-05
-2.36541e-08
1.41828e-05
-2.51363e-08
1.41908e-05
-2.59216e-08
1.41986e-05
-2.61685e-08
1.42062e-05
-2.60394e-08
1.42135e-05
-2.56511e-08
1.42203e-05
-2.51016e-08
1.42268e-05
-2.44453e-08
1.42328e-05
-2.37327e-08
1.42385e-05
-2.29896e-08
1.42438e-05
-2.22417e-08
1.42488e-05
-2.1497e-08
1.42533e-05
-2.07671e-08
-2.00432e-08
1.42576e-05
1.26066e-05
-5.82612e-09
1.2611e-05
-1.62427e-08
1.26172e-05
-2.35499e-08
1.26242e-05
-2.82238e-08
1.26316e-05
-3.10851e-08
1.26392e-05
-3.27364e-08
1.26468e-05
-3.34688e-08
1.26541e-05
-3.35066e-08
1.26612e-05
-3.30684e-08
1.26679e-05
-3.23234e-08
1.26741e-05
-3.13883e-08
1.268e-05
-3.03374e-08
1.26855e-05
-2.92366e-08
1.26907e-05
-2.81185e-08
1.26954e-05
-2.70182e-08
1.26999e-05
-2.59404e-08
1.2704e-05
-2.49036e-08
-2.38942e-08
1.27079e-05
1.12317e-05
-7.68503e-09
1.12366e-05
-2.11634e-08
1.1243e-05
-3.00132e-08
1.12501e-05
-3.52982e-08
1.12574e-05
-3.84175e-08
1.12648e-05
-4.01239e-08
1.12721e-05
-4.07052e-08
1.1279e-05
-4.04547e-08
1.12856e-05
-3.96592e-08
1.12918e-05
-3.85296e-08
1.12976e-05
-3.71925e-08
1.1303e-05
-3.57488e-08
1.13081e-05
-3.42583e-08
1.13127e-05
-3.27826e-08
1.13171e-05
-3.13378e-08
1.13211e-05
-2.99565e-08
1.13248e-05
-2.86292e-08
-2.73665e-08
1.13283e-05
1.00069e-05
-9.97953e-09
1.00125e-05
-2.67791e-08
1.00194e-05
-3.68709e-08
1.00265e-05
-4.24478e-08
1.00338e-05
-4.56955e-08
1.0041e-05
-4.73486e-08
1.0048e-05
-4.76776e-08
1.00546e-05
-4.70658e-08
1.00608e-05
-4.58761e-08
1.00666e-05
-4.43335e-08
1.0072e-05
-4.25852e-08
1.0077e-05
-4.07317e-08
1.00816e-05
-3.88623e-08
1.00859e-05
-3.7027e-08
1.00898e-05
-3.5269e-08
1.00934e-05
-3.35903e-08
1.00968e-05
-3.20061e-08
-3.05012e-08
1.00999e-05
8.91604e-06
-1.29099e-08
8.92255e-06
-3.33203e-08
8.92979e-06
-4.41253e-08
8.93702e-06
-4.97011e-08
8.94426e-06
-5.29491e-08
8.95134e-06
-5.44373e-08
8.95808e-06
-5.44164e-08
8.96439e-06
-5.33867e-08
8.97028e-06
-5.17607e-08
8.97573e-06
-4.97847e-08
8.98075e-06
-4.76066e-08
8.98536e-06
-4.53479e-08
8.98959e-06
-4.30928e-08
8.99347e-06
-4.09177e-08
8.99706e-06
-3.88495e-08
9.00038e-06
-3.69125e-08
9.00346e-06
-3.50876e-08
-3.33804e-08
9.00633e-06
7.94457e-06
-1.68215e-08
7.95213e-06
-4.08849e-08
7.95973e-06
-5.17208e-08
7.96707e-06
-5.7053e-08
7.97435e-06
-6.02388e-08
7.98135e-06
-6.14535e-08
7.98792e-06
-6.0992e-08
7.99402e-06
-5.94858e-08
7.99966e-06
-5.73963e-08
8.00483e-06
-5.49598e-08
8.00957e-06
-5.23446e-08
8.01389e-06
-4.96674e-08
8.01784e-06
-4.70411e-08
8.02146e-06
-4.45328e-08
8.02479e-06
-4.21896e-08
8.02788e-06
-4.0001e-08
8.03076e-06
-3.79666e-08
-3.60572e-08
8.03344e-06
7.0796e-06
-2.20839e-08
7.08846e-06
-4.97584e-08
7.09657e-06
-5.98673e-08
7.10424e-06
-6.47416e-08
7.11174e-06
-6.77459e-08
7.11886e-06
-6.85795e-08
7.12547e-06
-6.761e-08
7.13158e-06
-6.55948e-08
7.13718e-06
-6.2998e-08
7.1423e-06
-6.00706e-08
7.14696e-06
-5.69972e-08
7.1512e-06
-5.39075e-08
7.15506e-06
-5.09011e-08
7.15859e-06
-4.80612e-08
7.16182e-06
-4.54084e-08
7.16478e-06
-4.29663e-08
7.16753e-06
-4.07089e-08
-3.86081e-08
7.17009e-06
6.3101e-06
-2.96699e-08
6.3209e-06
-6.06338e-08
6.33027e-06
-6.92032e-08
6.3391e-06
-7.35809e-08
6.3476e-06
-7.62699e-08
6.35557e-06
-7.65546e-08
6.36293e-06
-7.49715e-08
6.36967e-06
-7.23354e-08
6.37581e-06
-6.91323e-08
6.38136e-06
-6.56146e-08
6.38634e-06
-6.1977e-08
6.39081e-06
-5.83623e-08
6.39479e-06
-5.48792e-08
6.39831e-06
-5.15763e-08
6.40142e-06
-4.85127e-08
6.40415e-06
-4.56964e-08
6.40656e-06
-4.31042e-08
-4.07136e-08
6.40867e-06
5.62943e-06
-4.421e-08
5.64501e-06
-7.62809e-08
5.65883e-06
-8.30266e-08
5.67205e-06
-8.68147e-08
5.68442e-06
-8.86599e-08
5.69557e-06
-8.77187e-08
5.7054e-06
-8.48019e-08
5.71389e-06
-8.08241e-08
5.72105e-06
-7.62842e-08
5.72691e-06
-7.1475e-08
5.73155e-06
-6.6604e-08
5.735e-06
-6.18124e-08
5.73735e-06
-5.72176e-08
5.73871e-06
-5.29264e-08
5.73922e-06
-4.90139e-08
5.73905e-06
-4.55115e-08
5.73833e-06
-4.23838e-08
-3.98135e-08
5.73744e-06
5.04976e-06
-9.16743e-08
5.08541e-06
-1.12021e-07
5.11188e-06
-1.09507e-07
5.13045e-06
-1.05399e-07
5.14149e-06
-9.97247e-08
5.14588e-06
-9.2124e-08
5.14482e-06
-8.37472e-08
5.13942e-06
-7.54231e-08
5.13056e-06
-6.74117e-08
5.11893e-06
-5.98467e-08
5.10519e-06
-5.28522e-08
5.08988e-06
-4.65009e-08
5.0735e-06
-4.0818e-08
5.0564e-06
-3.58152e-08
5.03891e-06
-3.15019e-08
5.02137e-06
-2.79625e-08
5.0042e-06
-2.52079e-08
-2.35125e-08
4.9879e-06
4.36487e-06
4.25285e-06
4.14334e-06
4.03794e-06
3.93821e-06
3.84609e-06
3.76234e-06
3.68692e-06
3.61951e-06
3.55966e-06
3.50681e-06
3.46031e-06
3.4195e-06
3.38369e-06
3.35219e-06
3.32423e-06
3.29902e-06
3.27551e-06
-8.29486e-09
8.30508e-09
-2.24623e-08
1.41714e-08
-3.79134e-08
1.54678e-08
-5.12343e-08
1.3314e-08
-5.71784e-08
5.96284e-09
-4.97401e-08
-7.45569e-09
-2.67251e-08
-2.29936e-08
9.3844e-09
-3.61293e-08
5.45056e-08
-4.50993e-08
1.03761e-07
-4.92743e-08
1.52742e-07
-4.8961e-08
1.98259e-07
-4.55347e-08
2.38345e-07
-4.00697e-08
2.71685e-07
-3.33588e-08
2.97625e-07
-2.59279e-08
3.15686e-07
-1.8084e-08
3.25653e-07
-9.96129e-09
3.27143e-07
-1.51717e-09
3.20008e-07
7.13131e-09
3.04383e-07
1.55963e-08
2.80917e-07
2.34551e-08
2.50574e-07
3.0318e-08
2.14782e-07
3.57736e-08
1.75403e-07
3.93583e-08
1.34761e-07
4.06146e-08
9.55252e-08
3.9216e-08
6.03569e-08
3.51296e-08
3.14896e-08
2.88405e-08
1.00187e-08
2.14164e-08
-4.16459e-09
1.4152e-08
-1.2014e-08
7.78225e-09
-1.3932e-08
1.89344e-09
-9.78306e-09
-4.22329e-09
1.75207e-09
-1.15483e-08
2.2175e-08
-2.04912e-08
5.16281e-08
-2.94505e-08
8.60804e-08
-3.45048e-08
1.19373e-07
-3.3296e-08
1.45883e-07
-2.65438e-08
1.62397e-07
-1.65416e-08
1.68912e-07
-6.54919e-09
1.6815e-07
7.01621e-10
1.6372e-07
4.40007e-09
1.59198e-07
4.43952e-09
1.5708e-07
2.11806e-09
1.51782e-07
5.18574e-09
1.34106e-07
1.77426e-08
9.56551e-08
3.83221e-08
3.10431e-08
6.47786e-08
-5.75539e-08
8.85432e-08
-1.6447e-07
1.07034e-07
-2.87147e-07
1.22705e-07
-4.22105e-07
1.34994e-07
-5.64999e-07
1.42971e-07
-7.11098e-07
1.46096e-07
-8.57149e-07
1.46121e-07
-1.00012e-06
1.42943e-07
-1.13718e-06
1.3709e-07
-1.26619e-06
1.28973e-07
-1.38582e-06
1.19638e-07
-1.49676e-06
1.10918e-07
-1.59829e-06
1.0152e-07
-1.69124e-06
9.29318e-08
-1.77689e-06
8.56433e-08
-1.85541e-06
7.85076e-08
-1.92774e-06
7.23179e-08
-1.99457e-06
6.68173e-08
-2.05655e-06
6.1974e-08
-2.11428e-06
5.77293e-08
-2.16828e-06
5.39863e-08
-2.21896e-06
5.0677e-08
-2.26669e-06
4.77237e-08
-2.31176e-06
4.50676e-08
-2.35442e-06
4.26516e-08
-2.39486e-06
4.04339e-08
-2.43324e-06
3.83752e-08
-2.46968e-06
3.6447e-08
-2.50431e-06
3.46243e-08
-2.53719e-06
3.28874e-08
-2.56841e-06
3.12211e-08
-2.59802e-06
2.96109e-08
-2.62607e-06
2.8048e-08
-2.65259e-06
2.65212e-08
-2.67761e-06
2.50255e-08
-2.70116e-06
2.35536e-08
-2.72327e-06
2.21032e-08
-2.74394e-06
2.06711e-08
-2.76318e-06
1.92529e-08
-2.78102e-06
1.78392e-08
-2.79742e-06
1.64298e-08
-2.8124e-06
1.5002e-08
-2.82592e-06
1.35547e-08
-2.83797e-06
1.20768e-08
-2.84851e-06
1.05603e-08
-2.85751e-06
8.99828e-09
-2.8649e-06
7.37662e-09
-2.87062e-06
5.69342e-09
-2.87458e-06
3.92581e-09
-2.87669e-06
2.09098e-09
-2.87698e-06
2.59648e-10
-2.87564e-06
-1.35656e-09
-2.87288e-06
-2.77529e-09
-2.86874e-06
-4.13269e-09
-2.86326e-06
-5.4792e-09
-2.85641e-06
-6.81815e-09
-2.84822e-06
-8.16538e-09
-2.83867e-06
-9.50797e-09
-2.82777e-06
-1.08565e-08
-2.81551e-06
-1.21987e-08
-2.80191e-06
-1.35414e-08
-2.78696e-06
-1.48757e-08
-2.77068e-06
-1.62044e-08
-2.75308e-06
-1.75229e-08
-2.73416e-06
-1.88296e-08
-2.71395e-06
-2.01248e-08
-2.69245e-06
-2.14022e-08
-2.6697e-06
-2.26672e-08
-2.64569e-06
-2.39093e-08
-2.62047e-06
-2.51383e-08
-2.59405e-06
-2.63402e-08
-2.56645e-06
-2.75285e-08
-2.53768e-06
-2.86866e-08
-2.5078e-06
-2.98308e-08
-2.47679e-06
-3.09426e-08
-2.44472e-06
-3.204e-08
-2.41157e-06
-3.31039e-08
-2.3774e-06
-3.41519e-08
-2.34222e-06
-3.51639e-08
-2.30607e-06
-3.61541e-08
-2.26896e-06
-3.71131e-08
-2.23095e-06
-3.80481e-08
-2.19203e-06
-3.89459e-08
-2.15226e-06
-3.98109e-08
-2.11166e-06
-4.06168e-08
-2.07032e-06
-4.13686e-08
-2.02829e-06
-4.20511e-08
-1.98564e-06
-4.26894e-08
-1.94225e-06
-4.34287e-08
-1.89809e-06
-4.42036e-08
-1.85326e-06
-4.48764e-08
-1.80779e-06
-4.55126e-08
-1.76172e-06
-4.6114e-08
-1.71509e-06
-4.66811e-08
-1.66791e-06
-4.72188e-08
-1.62022e-06
-4.77237e-08
-1.57205e-06
-4.8202e-08
-1.52341e-06
-4.86479e-08
-1.47433e-06
-4.90731e-08
-1.42485e-06
-4.94652e-08
-1.375e-06
-4.98418e-08
-1.32479e-06
-5.01876e-08
-1.27427e-06
-5.05075e-08
-1.22346e-06
-5.07984e-08
-1.17239e-06
-5.10562e-08
-1.12108e-06
-5.12884e-08
-1.06958e-06
-5.14941e-08
-1.01789e-06
-5.16796e-08
-9.66031e-07
-5.18499e-08
-9.14015e-07
-5.20088e-08
-8.6185e-07
-5.2161e-08
-8.09538e-07
-5.23084e-08
-7.57086e-07
-5.24517e-08
-7.04498e-07
-5.25891e-08
-6.51782e-07
-5.27188e-08
-5.98946e-07
-5.28406e-08
-5.45996e-07
-5.2956e-08
-4.92935e-07
-5.30686e-08
-4.3976e-07
-5.31817e-08
-3.86471e-07
-5.32971e-08
-3.33065e-07
-5.34141e-08
-2.79551e-07
-5.35236e-08
-2.25954e-07
-5.36068e-08
-1.72331e-07
-5.36347e-08
-1.18796e-07
-5.3549e-08
-6.55493e-08
-5.3261e-08
-1.3065e-08
-5.25018e-08
3.80611e-08
-5.11438e-08
8.61043e-08
-4.80621e-08
1.30265e-07
-4.41772e-08
-1.9247e-08
1.49495e-07
-3.47253e-09
1.17957e-08
-9.64218e-09
2.03445e-08
-1.24961e-08
1.83602e-08
-4.98113e-09
5.79114e-09
1.8022e-08
-1.70066e-08
5.55803e-08
-4.50233e-08
1.03334e-07
-7.07288e-08
1.55701e-07
-8.85037e-08
2.07575e-07
-9.69611e-08
2.55594e-07
-9.7301e-08
2.98296e-07
-9.16534e-08
3.34943e-07
-8.21898e-08
3.65458e-07
-7.05776e-08
3.90006e-07
-5.79175e-08
4.08953e-07
-4.48703e-08
4.22653e-07
-3.17976e-08
4.31562e-07
-1.8871e-08
4.36208e-07
-6.18093e-09
4.37021e-07
6.31156e-09
4.33879e-07
1.87191e-08
4.26325e-07
3.09973e-08
4.1373e-07
4.28945e-08
3.95529e-07
5.39589e-08
3.71352e-07
6.35194e-08
3.4122e-07
7.07272e-08
3.05749e-07
7.46687e-08
2.66283e-07
7.45714e-08
2.25021e-07
7.00824e-08
1.84956e-07
6.14428e-08
1.49701e-07
4.93814e-08
1.22706e-07
3.47218e-08
1.06535e-07
1.8033e-08
1.02596e-07
-3.50664e-10
1.10639e-07
-1.96082e-08
1.28549e-07
-3.84503e-08
1.5115e-07
-5.2053e-08
1.71184e-07
-5.45687e-08
1.83649e-07
-4.57637e-08
1.86799e-07
-2.97137e-08
1.80648e-07
-1.04115e-08
1.66513e-07
7.56048e-09
1.46137e-07
2.10212e-08
1.15057e-07
3.54526e-08
6.32652e-08
5.6154e-08
-1.8418e-08
8.37849e-08
-1.31429e-07
1.18134e-07
-2.67796e-07
1.5411e-07
-4.17628e-07
1.8813e-07
-5.7249e-07
2.19652e-07
-7.29951e-07
2.45998e-07
-8.88058e-07
2.65157e-07
-1.04289e-06
2.77545e-07
-1.19087e-06
2.83e-07
-1.32911e-06
2.81235e-07
-1.45588e-06
2.72876e-07
-1.56965e-06
2.59918e-07
-1.67074e-06
2.44035e-07
-1.75996e-06
2.26319e-07
-1.83896e-06
2.07962e-07
-1.90927e-06
1.8994e-07
-1.9716e-06
1.73238e-07
-2.02797e-06
1.57876e-07
-2.07921e-06
1.44167e-07
-2.12586e-06
1.32286e-07
-2.16916e-06
1.21792e-07
-2.20952e-06
1.12671e-07
-2.24742e-06
1.04714e-07
-2.2832e-06
9.77497e-08
-2.3171e-06
9.16216e-08
-2.34931e-06
8.6184e-08
-2.37995e-06
8.13149e-08
-2.40914e-06
7.69073e-08
-2.43695e-06
7.28744e-08
-2.46344e-06
6.91432e-08
-2.48867e-06
6.56552e-08
-2.51266e-06
6.23627e-08
-2.53544e-06
5.92282e-08
-2.55704e-06
5.62213e-08
-2.57746e-06
5.33177e-08
-2.59674e-06
5.04982e-08
-2.61487e-06
4.77461e-08
-2.63187e-06
4.50495e-08
-2.64775e-06
4.2396e-08
-2.6625e-06
3.97779e-08
-2.67613e-06
3.71868e-08
-2.68864e-06
3.46178e-08
-2.70004e-06
3.20651e-08
-2.71031e-06
2.95224e-08
-2.71944e-06
2.6986e-08
-2.72744e-06
2.44384e-08
-2.73429e-06
2.18749e-08
-2.74e-06
1.92877e-08
-2.74458e-06
1.66693e-08
-2.74803e-06
1.40212e-08
-2.75038e-06
1.13392e-08
-2.75165e-06
8.62983e-09
-2.75188e-06
5.90052e-09
-2.75115e-06
3.17082e-09
-2.74957e-06
4.75581e-10
-2.74717e-06
-2.15422e-09
-2.74379e-06
-4.75544e-09
-2.73919e-06
-7.37876e-09
-2.73331e-06
-1.00125e-08
-2.72613e-06
-1.26549e-08
-2.71763e-06
-1.5304e-08
-2.70781e-06
-1.79626e-08
-2.69667e-06
-2.06235e-08
-2.6842e-06
-2.32882e-08
-2.67041e-06
-2.59482e-08
-2.6553e-06
-2.86041e-08
-2.63887e-06
-3.12473e-08
-2.62114e-06
-3.38779e-08
-2.60211e-06
-3.64881e-08
-2.5818e-06
-3.90772e-08
-2.56022e-06
-4.1639e-08
-2.53739e-06
-4.41714e-08
-2.51332e-06
-4.66708e-08
-2.48803e-06
-4.91339e-08
-2.46154e-06
-5.15595e-08
-2.43388e-06
-5.3943e-08
-2.40507e-06
-5.62861e-08
-2.37512e-06
-5.85826e-08
-2.34407e-06
-6.08365e-08
-2.31194e-06
-6.30403e-08
-2.27875e-06
-6.51997e-08
-2.24452e-06
-6.73064e-08
-2.20929e-06
-6.93662e-08
-2.17308e-06
-7.13694e-08
-2.13591e-06
-7.3321e-08
-2.09782e-06
-7.52145e-08
-2.05884e-06
-7.70528e-08
-2.01898e-06
-7.88261e-08
-1.97828e-06
-8.0534e-08
-1.93674e-06
-8.21639e-08
-1.8944e-06
-8.37251e-08
-1.85125e-06
-8.52155e-08
-1.8073e-06
-8.66596e-08
-1.76264e-06
-8.8112e-08
-1.71734e-06
-8.95359e-08
-1.67137e-06
-9.08692e-08
-1.62478e-06
-9.21327e-08
-1.57759e-06
-9.33295e-08
-1.52984e-06
-9.44622e-08
-1.48155e-06
-9.55339e-08
-1.43275e-06
-9.65454e-08
-1.38346e-06
-9.74988e-08
-1.33372e-06
-9.83944e-08
-1.28354e-06
-9.92406e-08
-1.23297e-06
-1.00032e-07
-1.18201e-06
-1.00781e-07
-1.13071e-06
-1.01478e-07
-1.07909e-06
-1.02119e-07
-1.02718e-06
-1.02703e-07
-9.75004e-07
-1.03222e-07
-9.22596e-07
-1.03688e-07
-8.6998e-07
-1.04103e-07
-8.17178e-07
-1.04476e-07
-7.64206e-07
-1.04818e-07
-7.11075e-07
-1.05136e-07
-6.57795e-07
-1.0544e-07
-6.04369e-07
-1.05733e-07
-5.50803e-07
-1.06019e-07
-4.97101e-07
-1.06293e-07
-4.43268e-07
-1.06554e-07
-3.89312e-07
-1.06801e-07
-3.35236e-07
-1.07037e-07
-2.81041e-07
-1.07268e-07
-2.26727e-07
-1.07501e-07
-1.7229e-07
-1.0774e-07
-1.17727e-07
-1.07982e-07
-6.30438e-08
-1.08213e-07
-8.26419e-09
-1.08392e-07
4.65656e-08
-1.08471e-07
1.01357e-07
-1.08348e-07
1.55928e-07
-1.07842e-07
2.10042e-07
-1.06626e-07
2.63049e-07
-1.04163e-07
3.14367e-07
-9.93927e-08
3.60709e-07
-9.05315e-08
-6.33743e-08
4.04822e-07
4.84957e-10
1.13253e-08
4.29133e-09
1.65475e-08
1.92858e-08
3.39231e-09
5.31973e-08
-2.81203e-08
1.04527e-07
-6.83229e-08
1.63589e-07
-1.04089e-07
2.20464e-07
-1.27594e-07
2.6954e-07
-1.37585e-07
3.09204e-07
-1.36618e-07
3.4014e-07
-1.28242e-07
3.63975e-07
-1.15483e-07
3.82233e-07
-1.00454e-07
3.96125e-07
-8.44652e-08
4.06448e-07
-6.82474e-08
4.13763e-07
-5.21839e-08
4.18418e-07
-3.64628e-08
4.20716e-07
-2.11705e-08
4.20877e-07
-6.35458e-09
4.19214e-07
7.96832e-09
4.16076e-07
2.18417e-08
4.11749e-07
3.53146e-08
4.06258e-07
4.83703e-08
3.99335e-07
6.08683e-08
3.9037e-07
7.24686e-08
3.78504e-07
8.25764e-08
3.62829e-07
9.03299e-08
3.42727e-07
9.46527e-08
3.18359e-07
9.44333e-08
2.90959e-07
8.88204e-08
2.62896e-07
7.74248e-08
2.37154e-07
6.04327e-08
2.16551e-07
3.86169e-08
2.02725e-07
1.34402e-08
1.95626e-07
-1.25224e-08
1.9079e-07
-3.36395e-08
1.80752e-07
-4.20173e-08
1.61569e-07
-3.53998e-08
1.33412e-07
-1.76105e-08
9.7021e-08
6.66232e-09
5.05555e-08
3.60401e-08
-1.14294e-08
6.952e-08
-9.57886e-08
1.05352e-07
-2.04721e-07
1.44364e-07
-3.35307e-07
1.86722e-07
-4.81608e-07
2.30076e-07
-6.34839e-07
2.71347e-07
-7.88645e-07
3.07909e-07
-9.38138e-07
3.37605e-07
-1.07798e-06
3.59488e-07
-1.20521e-06
3.73218e-07
-1.31877e-06
3.78713e-07
-1.41782e-06
3.76602e-07
-1.50256e-06
3.67739e-07
-1.57454e-06
3.53234e-07
-1.63627e-06
3.34616e-07
-1.68994e-06
3.13604e-07
-1.73751e-06
2.91606e-07
-1.78075e-06
2.69572e-07
-1.82112e-06
2.48323e-07
-1.85959e-06
2.2841e-07
-1.89655e-06
2.10188e-07
-1.93245e-06
1.93768e-07
-1.96745e-06
1.79156e-07
-2.00143e-06
1.66259e-07
-2.03451e-06
1.54873e-07
-2.06668e-06
1.44827e-07
-2.0979e-06
1.35932e-07
-2.12817e-06
1.28013e-07
-2.15747e-06
1.20912e-07
-2.18577e-06
1.14487e-07
-2.21308e-06
1.08619e-07
-2.23938e-06
1.03205e-07
-2.26467e-06
9.816e-08
-2.28894e-06
9.34129e-08
-2.3122e-06
8.89061e-08
-2.33443e-06
8.4593e-08
-2.35564e-06
8.0436e-08
-2.37582e-06
7.64055e-08
-2.39498e-06
7.24773e-08
-2.41311e-06
6.86322e-08
-2.43022e-06
6.48543e-08
-2.4463e-06
6.11308e-08
-2.46135e-06
5.74503e-08
-2.47538e-06
5.38039e-08
-2.48837e-06
5.01833e-08
-2.50034e-06
4.65824e-08
-2.51127e-06
4.29944e-08
-2.52116e-06
3.94142e-08
-2.53e-06
3.5832e-08
-2.53779e-06
3.22415e-08
-2.54453e-06
2.8629e-08
-2.55022e-06
2.49889e-08
-2.55486e-06
2.13195e-08
-2.55846e-06
1.76182e-08
-2.56102e-06
1.38857e-08
-2.56254e-06
1.01302e-08
-2.56303e-06
6.35703e-09
-2.56246e-06
2.58332e-09
-2.56083e-06
-1.18463e-09
-2.55805e-06
-4.94681e-09
-2.55408e-06
-8.74021e-09
-2.54888e-06
-1.25761e-08
-2.54245e-06
-1.64482e-08
-2.53476e-06
-2.03425e-08
-2.5258e-06
-2.4259e-08
-2.51556e-06
-2.81876e-08
-2.50403e-06
-3.21272e-08
-2.49123e-06
-3.60684e-08
-2.47714e-06
-4.00082e-08
-2.46177e-06
-4.39382e-08
-2.44512e-06
-4.78536e-08
-2.42721e-06
-5.17477e-08
-2.40804e-06
-5.56142e-08
-2.38762e-06
-5.94477e-08
-2.36597e-06
-6.32416e-08
-2.3431e-06
-6.69919e-08
-2.31903e-06
-7.06919e-08
-2.29377e-06
-7.43395e-08
-2.26735e-06
-7.79285e-08
-2.2398e-06
-8.14585e-08
-2.21111e-06
-8.49241e-08
-2.18134e-06
-8.83256e-08
-2.15048e-06
-9.16584e-08
-2.11857e-06
-9.49229e-08
-2.08563e-06
-9.81152e-08
-2.05168e-06
-1.01236e-07
-2.01675e-06
-1.04281e-07
-1.98087e-06
-1.07249e-07
-1.94405e-06
-1.10137e-07
-1.90633e-06
-1.12945e-07
-1.86773e-06
-1.15667e-07
-1.82827e-06
-1.18301e-07
-1.78798e-06
-1.20839e-07
-1.74687e-06
-1.23279e-07
-1.70497e-06
-1.25629e-07
-1.66231e-06
-1.27894e-07
-1.6189e-06
-1.30088e-07
-1.5748e-06
-1.3223e-07
-1.53006e-06
-1.34301e-07
-1.48467e-06
-1.36274e-07
-1.43868e-06
-1.38151e-07
-1.3921e-06
-1.39933e-07
-1.34496e-06
-1.41623e-07
-1.29729e-06
-1.43223e-07
-1.24912e-06
-1.44735e-07
-1.20047e-06
-1.46159e-07
-1.15137e-06
-1.47499e-07
-1.10185e-06
-1.48762e-07
-1.05193e-06
-1.49948e-07
-1.00164e-06
-1.51065e-07
-9.51008e-07
-1.5211e-07
-9.00056e-07
-1.53069e-07
-8.48813e-07
-1.53944e-07
-7.97309e-07
-1.54725e-07
-7.45572e-07
-1.55424e-07
-6.93626e-07
-1.56047e-07
-6.41493e-07
-1.56608e-07
-5.89189e-07
-1.5712e-07
-5.36727e-07
-1.57597e-07
-4.84117e-07
-1.58049e-07
-4.31362e-07
-1.58486e-07
-3.78468e-07
-1.58912e-07
-3.25439e-07
-1.59322e-07
-2.7228e-07
-1.59713e-07
-2.18995e-07
-1.60086e-07
-1.65588e-07
-1.60444e-07
-1.12059e-07
-1.60796e-07
-5.84059e-08
-1.61154e-07
-4.62332e-09
-1.61522e-07
4.92915e-08
-1.61897e-07
1.03334e-07
-1.62256e-07
1.57493e-07
-1.62552e-07
2.11724e-07
-1.62704e-07
2.6595e-07
-1.62575e-07
3.20042e-07
-1.61935e-07
3.73799e-07
-1.60385e-07
4.26869e-07
-1.57235e-07
4.78835e-07
-1.5136e-07
5.28761e-07
-1.40458e-07
-1.1472e-07
5.80106e-07
-1.15307e-10
1.1455e-08
1.32868e-08
3.15534e-09
5.38134e-08
-3.71183e-08
1.16618e-07
-9.09259e-08
1.84195e-07
-1.35892e-07
2.42264e-07
-1.62161e-07
2.85268e-07
-1.70593e-07
3.14162e-07
-1.66483e-07
3.32616e-07
-1.55067e-07
3.44307e-07
-1.39937e-07
3.51944e-07
-1.23115e-07
3.5711e-07
-1.05626e-07
3.60631e-07
-8.79832e-08
3.62834e-07
-7.04568e-08
3.63852e-07
-5.32005e-08
3.63697e-07
-3.63172e-08
3.62408e-07
-1.98833e-08
3.60006e-07
-3.96415e-09
3.56582e-07
1.13867e-08
3.52268e-07
2.61415e-08
3.47299e-07
4.02739e-08
3.41904e-07
5.37493e-08
3.36264e-07
6.64956e-08
3.30375e-07
7.83424e-08
3.23983e-07
8.8954e-08
3.16549e-07
9.77464e-08
3.07332e-07
1.03854e-07
2.95607e-07
1.06141e-07
2.81004e-07
1.03402e-07
2.63706e-07
9.47055e-08
2.44655e-07
7.94571e-08
2.25232e-07
5.80225e-08
2.05916e-07
3.2724e-08
1.83105e-07
1.02786e-08
1.49732e-07
-2.93458e-10
1.03354e-07
4.35963e-09
4.5245e-08
2.26884e-08
-2.53314e-08
5.29608e-08
-1.11208e-07
9.25235e-08
-2.13495e-07
1.38315e-07
-3.31217e-07
1.87232e-07
-4.62371e-07
2.36494e-07
-6.02259e-07
2.84245e-07
-7.44526e-07
3.28977e-07
-8.83143e-07
3.68688e-07
-1.01263e-06
4.00816e-07
-1.12884e-06
4.24112e-07
-1.23006e-06
4.38817e-07
-1.31575e-06
4.45166e-07
-1.38648e-06
4.43933e-07
-1.44397e-06
4.36202e-07
-1.49045e-06
4.23079e-07
-1.5285e-06
4.05791e-07
-1.56081e-06
3.85553e-07
-1.58977e-06
3.6358e-07
-1.61711e-06
3.40956e-07
-1.64399e-06
3.1849e-07
-1.67116e-06
2.96743e-07
-1.69899e-06
2.76145e-07
-1.72755e-06
2.56976e-07
-1.75674e-06
2.3937e-07
-1.78635e-06
2.23379e-07
-1.81616e-06
2.0896e-07
-1.84592e-06
1.96013e-07
-1.87545e-06
1.84394e-07
-1.90458e-06
1.73952e-07
-1.93318e-06
1.64531e-07
-1.96116e-06
1.55983e-07
-1.98843e-06
1.48173e-07
-2.01492e-06
1.40978e-07
-2.0406e-06
1.34292e-07
-2.06542e-06
1.28022e-07
-2.08935e-06
1.22092e-07
-2.11238e-06
1.16438e-07
-2.13448e-06
1.11006e-07
-2.15564e-06
1.05753e-07
-2.17585e-06
1.00645e-07
-2.1951e-06
9.56548e-08
-2.21338e-06
9.076e-08
-2.23069e-06
8.5943e-08
-2.24703e-06
8.11892e-08
-2.26238e-06
7.64863e-08
-2.27675e-06
7.18241e-08
-2.29014e-06
6.71938e-08
-2.30255e-06
6.25875e-08
-2.31396e-06
5.79978e-08
-2.32439e-06
5.34184e-08
-2.33381e-06
4.88417e-08
-2.34224e-06
4.4262e-08
-2.34965e-06
3.96625e-08
-2.35606e-06
3.50414e-08
-2.36145e-06
3.03859e-08
-2.36582e-06
2.56938e-08
-2.36917e-06
2.09617e-08
-2.3715e-06
1.61897e-08
-2.37277e-06
1.13823e-08
-2.37298e-06
6.54334e-09
-2.37211e-06
1.68061e-09
-2.3701e-06
-3.20782e-09
-2.36694e-06
-8.1275e-09
-2.36259e-06
-1.30993e-08
-2.35705e-06
-1.81237e-08
-2.3503e-06
-2.31973e-08
-2.34234e-06
-2.83054e-08
-2.33314e-06
-3.34459e-08
-2.32271e-06
-3.86048e-08
-2.31105e-06
-4.37802e-08
-2.29813e-06
-4.89584e-08
-2.28398e-06
-5.41362e-08
-2.26859e-06
-5.9301e-08
-2.25196e-06
-6.44483e-08
-2.23411e-06
-6.95668e-08
-2.21504e-06
-7.46506e-08
-2.19475e-06
-7.96905e-08
-2.17328e-06
-8.46789e-08
-2.15062e-06
-8.96096e-08
-2.1268e-06
-9.44739e-08
-2.10183e-06