/*--------------------------------*- C++ -*----------------------------------*\
| =========                 |                                                 |
| \\      /  F ield         | OpenFOAM: The Open Source CFD Toolbox           |
|  \\    /   O peration     | Version:  v2012                                 |
|   \\  /    A nd           | Website:  www.openfoam.com                      |
|    \\/     M anipulation  |                                                 |
\*---------------------------------------------------------------------------*/
FoamFile
{
    version     2.0;
    format      ascii;
    class       volVectorField;
    location    "1600";
    object      U;
}
// * * * * * * * * * * * * * * * * * * * * * * * * * * * * * * * * * * * * * //

dimensions      [0 1 -1 0 0 0 0];


internalField   nonuniform List<vector> 
12225
(
(9.77043 0.0437814 0)
(9.3349 0.0793554 0)
(8.91179 0.0855137 0)
(8.51536 0.0822239 0)
(8.16066 0.0754414 0)
(7.85021 0.0670529 0)
(7.57972 0.058167 0)
(7.34546 0.0494974 0)
(7.14386 0.0417347 0)
(6.96927 0.035242 0)
(6.81713 0.0297884 0)
(6.68548 0.0251083 0)
(6.57133 0.02093 0)
(6.47387 0.0171179 0)
(6.39149 0.0134213 0)
(6.32434 0.00938063 0)
(6.27514 0.00515485 0)
(6.23943 -0.00631718 0)
(10.0786 0.0577813 0)
(10.2239 0.0918088 0)
(10.301 0.0912729 0)
(10.3235 0.0880602 0)
(10.3131 0.0855306 0)
(10.2805 0.0822222 0)
(10.2309 0.0781319 0)
(10.169 0.0737384 0)
(10.0994 0.0693039 0)
(10.0269 0.0650155 0)
(9.95442 0.0609927 0)
(9.88281 0.0570454 0)
(9.81359 0.0530696 0)
(9.74695 0.0489088 0)
(9.68419 0.0443841 0)
(9.62503 0.0389278 0)
(9.5714 0.0317314 0)
(9.51748 0.0193907 0)
(10.019 0.0423997 0)
(10.0766 0.0653407 0)
(10.1252 0.0681326 0)
(10.1607 0.0722297 0)
(10.19 0.076319 0)
(10.2148 0.078031 0)
(10.2334 0.0777023 0)
(10.2458 0.0762398 0)
(10.2526 0.0741736 0)
(10.2551 0.0717817 0)
(10.2541 0.0690691 0)
(10.2504 0.0660533 0)
(10.2446 0.0627192 0)
(10.2373 0.0589966 0)
(10.2288 0.0546865 0)
(10.2195 0.0492064 0)
(10.2095 0.0420831 0)
(10.1958 0.0308481 0)
(10.0083 0.0308352 0)
(10.042 0.0552855 0)
(10.0729 0.0624302 0)
(10.0952 0.067445 0)
(10.1145 0.0710559 0)
(10.1328 0.0723375 0)
(10.1494 0.0719411 0)
(10.1636 0.0707235 0)
(10.1758 0.0690697 0)
(10.1863 0.067105 0)
(10.1954 0.0648616 0)
(10.2033 0.0623544 0)
(10.2101 0.0595305 0)
(10.2161 0.0562843 0)
(10.2213 0.0524046 0)
(10.2257 0.0474763 0)
(10.2289 0.0412318 0)
(10.2297 0.033051 0)
(10.0047 0.0238693 0)
(10.0289 0.0486264 0)
(10.0531 0.0572741 0)
(10.0709 0.0620841 0)
(10.0861 0.0655027 0)
(10.1007 0.0670356 0)
(10.1143 0.0670619 0)
(10.1264 0.0662385 0)
(10.1373 0.0649186 0)
(10.1473 0.0632314 0)
(10.1564 0.0612342 0)
(10.1648 0.0589258 0)
(10.1727 0.0562557 0)
(10.1799 0.0531252 0)
(10.1867 0.049379 0)
(10.1928 0.0447727 0)
(10.1978 0.0392245 0)
(10.2011 0.0327224 0)
(10.0031 0.0189659 0)
(10.0211 0.0419704 0)
(10.0412 0.0514151 0)
(10.0569 0.0565674 0)
(10.0702 0.060246 0)
(10.0831 0.0621415 0)
(10.0953 0.0625039 0)
(10.1062 0.0619314 0)
(10.1161 0.0608033 0)
(10.1253 0.0592644 0)
(10.1339 0.0573767 0)
(10.1419 0.055144 0)
(10.1495 0.0525367 0)
(10.1566 0.0494809 0)
(10.1632 0.0458786 0)
(10.1691 0.0416033 0)
(10.1741 0.036667 0)
(10.1777 0.0312158 0)
(10.0021 0.0152227 0)
(10.0156 0.0358604 0)
(10.0323 0.0457101 0)
(10.0465 0.0512247 0)
(10.0588 0.055059 0)
(10.0706 0.0571684 0)
(10.0818 0.0577732 0)
(10.092 0.0574112 0)
(10.1013 0.0564544 0)
(10.11 0.0550495 0)
(10.1181 0.0532636 0)
(10.1258 0.0511132 0)
(10.133 0.0485891 0)
(10.1397 0.0456452 0)
(10.1459 0.0422315 0)
(10.1515 0.0383014 0)
(10.1562 0.0339169 0)
(10.1599 0.0292658 0)
(10.0015 0.0125952 0)
(10.0121 0.0312144 0)
(10.0264 0.0411311 0)
(10.0395 0.0467891 0)
(10.0509 0.0506359 0)
(10.062 0.0528421 0)
(10.0725 0.0536066 0)
(10.0822 0.0534025 0)
(10.0911 0.0525773 0)
(10.0994 0.0512787 0)
(10.1073 0.0495798 0)
(10.1146 0.0475087 0)
(10.1215 0.0450722 0)
(10.1279 0.0422485 0)
(10.1339 0.0390221 0)
(10.1391 0.035392 0)
(10.1436 0.0314399 0)
(10.1473 0.0273416 0)
(10.0012 0.010634 0)
(10.0097 0.0274101 0)
(10.0221 0.0371429 0)
(10.034 0.0428489 0)
(10.0448 0.046682 0)
(10.0552 0.048945 0)
(10.0651 0.0498276 0)
(10.0744 0.0497481 0)
(10.083 0.0490288 0)
(10.091 0.04782 0)
(10.0986 0.0461985 0)
(10.1057 0.0442039 0)
(10.1123 0.0418555 0)
(10.1185 0.0391527 0)
(10.1241 0.0361024 0)
(10.1292 0.0327317 0)
(10.1335 0.0291271 0)
(10.1371 0.0254473 0)
(10.0009 0.0089083 0)
(10.0077 0.0236945 0)
(10.0182 0.0329873 0)
(10.029 0.0386309 0)
(10.039 0.0423898 0)
(10.0487 0.0446647 0)
(10.058 0.0456416 0)
(10.0669 0.0456735 0)
(10.0751 0.0450549 0)
(10.0828 0.0439379 0)
(10.09 0.0424031 0)
(10.0968 0.0405006 0)
(10.1032 0.0382617 0)
(10.109 0.0357047 0)
(10.1144 0.0328549 0)
(10.1192 0.0297573 0)
(10.1234 0.0264956 0)
(10.1269 0.0232071 0)
(10.0007 0.00737529 0)
(10.006 0.0201051 0)
(10.0148 0.0287231 0)
(10.0244 0.0341691 0)
(10.0336 0.0377776 0)
(10.0426 0.0400048 0)
(10.0513 0.0410371 0)
(10.0596 0.04116 0)
(10.0674 0.0406339 0)
(10.0747 0.0396098 0)
(10.0816 0.0381728 0)
(10.0881 0.0363795 0)
(10.0941 0.0342727 0)
(10.0997 0.0318859 0)
(10.1048 0.0292582 0)
(10.1093 0.0264434 0)
(10.1133 0.0235175 0)
(10.1168 0.0205942 0)
(10.0005 0.00600852 0)
(10.0047 0.0166912 0)
(10.0119 0.02441 0)
(10.0203 0.0294983 0)
(10.0287 0.0328719 0)
(10.0369 0.034982 0)
(10.045 0.0360174 0)
(10.0527 0.0362018 0)
(10.0601 0.0357554 0)
(10.067 0.0348233 0)
(10.0735 0.033493 0)
(10.0796 0.0318266 0)
(10.0853 0.0298743 0)
(10.0906 0.0276809 0)
(10.0954 0.0252924 0)
(10.0997 0.0227652 0)
(10.1035 0.020164 0)
(10.1069 0.0175807 0)
(10.0004 0.00478776 0)
(10.0037 0.0134845 0)
(10.0096 0.0201115 0)
(10.0168 0.0246662 0)
(10.0243 0.0277067 0)
(10.0318 0.0296212 0)
(10.0392 0.0305938 0)
(10.0464 0.0307981 0)
(10.0532 0.0304115 0)
(10.0597 0.0295661 0)
(10.0659 0.028349 0)
(10.0716 0.0268242 0)
(10.0769 0.025046 0)
(10.0819 0.0230638 0)
(10.0864 0.0209267 0)
(10.0905 0.0186868 0)
(10.0941 0.0163986 0)
(10.0974 0.0141334 0)
(10.0003 0.0036876 0)
(10.0029 0.0104852 0)
(10.0077 0.0158782 0)
(10.0139 0.0197254 0)
(10.0205 0.0223193 0)
(10.0272 0.0239508 0)
(10.034 0.0247845 0)
(10.0406 0.0249547 0)
(10.0469 0.0245978 0)
(10.053 0.0238264 0)
(10.0587 0.022722 0)
(10.0641 0.0213469 0)
(10.0691 0.019755 0)
(10.0738 0.017995 0)
(10.078 0.0161137 0)
(10.0819 0.0141572 0)
(10.0854 0.0121685 0)
(10.0886 0.0102046 0)
(10.0003 0.00267995 0)
(10.0023 0.00766644 0)
(10.0063 0.0117332 0)
(10.0115 0.0147172 0)
(10.0173 0.0167421 0)
(10.0234 0.0179962 0)
(10.0294 0.0186089 0)
(10.0355 0.0186812 0)
(10.0414 0.0183129 0)
(10.047 0.0175929 0)
(10.0523 0.0165911 0)
(10.0574 0.0153641 0)
(10.0621 0.01396 0)
(10.0664 0.0124233 0)
(10.0705 0.0107943 0)
(10.0742 0.00911192 0)
(10.0775 0.00740847 0)
(10.0806 0.00572949 0)
(10.0002 0.00173494 0)
(10.0019 0.00497665 0)
(10.0052 0.00765673 0)
(10.0097 0.00964688 0)
(10.0148 0.0109802 0)
(10.0202 0.0117578 0)
(10.0257 0.0120649 0)
(10.0312 0.0119702 0)
(10.0367 0.0115409 0)
(10.0419 0.01084 0)
(10.0469 0.00992124 0)
(10.0516 0.00882979 0)
(10.056 0.00760513 0)
(10.0601 0.00628308 0)
(10.0639 0.00489606 0)
(10.0675 0.00347382 0)
(10.0707 0.00204064 0)
(10.0737 0.000631065 0)
(10.0002 0.000816177 0)
(10.0016 0.00233509 0)
(10.0045 0.00357604 0)
(10.0084 0.00446553 0)
(10.013 0.00499467 0)
(10.0179 0.00519902 0)
(10.023 0.00511721 0)
(10.0281 0.0047855 0)
(10.0331 0.00424052 0)
(10.038 0.00351896 0)
(10.0426 0.00265425 0)
(10.047 0.00167661 0)
(10.0512 0.000613135 0)
(10.0551 -0.000511078 0)
(10.0588 -0.0016734 0)
(10.0622 -0.00285307 0)
(10.0653 -0.00403371 0)
(10.0682 -0.00518987 0)
(10.0002 -7.33795e-05 0)
(10.0015 -0.000229661 0)
(10.0042 -0.000412686 0)
(10.0079 -0.000641873 0)
(10.0122 -0.000949362 0)
(10.0168 -0.00135366 0)
(10.0216 -0.00185984 0)
(10.0264 -0.00246369 0)
(10.0312 -0.00315673 0)
(10.0358 -0.00392843 0)
(10.0403 -0.00476643 0)
(10.0445 -0.0056574 0)
(10.0485 -0.00658752 0)
(10.0523 -0.00754342 0)
(10.0558 -0.00851214 0)
(10.0592 -0.00948164 0)
(10.0622 -0.0104423 0)
(10.0651 -0.0113764 0)
(10.0002 -0.000905465 0)
(10.0016 -0.00262486 0)
(10.0043 -0.00412208 0)
(10.0081 -0.00537061 0)
(10.0124 -0.00643404 0)
(10.017 -0.00738802 0)
(10.0217 -0.00827814 0)
(10.0265 -0.00912897 0)
(10.0311 -0.00995802 0)
(10.0357 -0.0107793 0)
(10.04 -0.0116 0)
(10.0442 -0.0124224 0)
(10.0481 -0.0132447 0)
(10.0518 -0.0140641 0)
(10.0553 -0.0148762 0)
(10.0586 -0.0156757 0)
(10.0616 -0.0164586 0)
(10.0645 -0.017213 0)
(10.0002 -0.00171166 0)
(10.0018 -0.00492431 0)
(10.0048 -0.00761989 0)
(10.0089 -0.00974439 0)
(10.0134 -0.0114339 0)
(10.0182 -0.0128356 0)
(10.023 -0.0140319 0)
(10.0278 -0.0150705 0)
(10.0326 -0.0159951 0)
(10.0371 -0.0168425 0)
(10.0415 -0.0176371 0)
(10.0456 -0.0183933 0)
(10.0495 -0.0191201 0)
(10.0532 -0.019823 0)
(10.0567 -0.0205046 0)
(10.06 -0.0211651 0)
(10.063 -0.0218044 0)
(10.0658 -0.0224142 0)
(10.0002 -0.00256148 0)
(10.0022 -0.00730041 0)
(10.0058 -0.0111106 0)
(10.0104 -0.0139667 0)
(10.0153 -0.0161507 0)
(10.0203 -0.0179008 0)
(10.0254 -0.0193232 0)
(10.0304 -0.020486 0)
(10.0352 -0.0214599 0)
(10.0398 -0.0223034 0)
(10.0443 -0.0230547 0)
(10.0485 -0.0237376 0)
(10.0524 -0.0243702 0)
(10.0561 -0.0249651 0)
(10.0596 -0.0255308 0)
(10.0629 -0.0260712 0)
(10.066 -0.0265891 0)
(10.0688 -0.027079 0)
(10.0003 -0.00352562 0)
(10.0028 -0.00989843 0)
(10.0072 -0.0147284 0)
(10.0126 -0.0181497 0)
(10.018 -0.0206992 0)
(10.0234 -0.0227029 0)
(10.0287 -0.0242717 0)
(10.034 -0.0254939 0)
(10.039 -0.0264721 0)
(10.0438 -0.0272831 0)
(10.0483 -0.0279725 0)
(10.0526 -0.028572 0)
(10.0566 -0.0291069 0)
(10.0604 -0.0295968 0)
(10.0639 -0.0300546 0)
(10.0673 -0.0304877 0)
(10.0704 -0.0309004 0)
(10.0733 -0.0312893 0)
(10.0004 -0.00469316 0)
(10.0038 -0.0128553 0)
(10.0094 -0.0185465 0)
(10.0156 -0.0223362 0)
(10.0216 -0.0251351 0)
(10.0275 -0.0273094 0)
(10.0332 -0.028946 0)
(10.0387 -0.030167 0)
(10.044 -0.0311107 0)
(10.049 -0.031865 0)
(10.0537 -0.0324777 0)
(10.0581 -0.0329852 0)
(10.0622 -0.0334199 0)
(10.0661 -0.0338071 0)
(10.0698 -0.0341635 0)
(10.0732 -0.0344994 0)
(10.0763 -0.0348201 0)
(10.0793 -0.0351229 0)
(10.0006 -0.00618624 0)
(10.0054 -0.0162963 0)
(10.0125 -0.0225944 0)
(10.0198 -0.0265199 0)
(10.0264 -0.0294711 0)
(10.0327 -0.0317528 0)
(10.0389 -0.0333981 0)
(10.0449 -0.0345752 0)
(10.0505 -0.0354583 0)
(10.0557 -0.0361385 0)
(10.0607 -0.036661 0)
(10.0653 -0.0370673 0)
(10.0696 -0.0373964 0)
(10.0737 -0.0376795 0)
(10.0775 -0.037938 0)
(10.081 -0.0381844 0)
(10.0843 -0.038425 0)
(10.0874 -0.0386562 0)
(10.001 -0.00814571 0)
(10.0078 -0.0203067 0)
(10.0169 -0.0269342 0)
(10.0254 -0.0307727 0)
(10.0327 -0.0337643 0)
(10.0397 -0.036073 0)
(10.0466 -0.0376788 0)
(10.0531 -0.038796 0)
(10.0591 -0.0396139 0)
(10.0648 -0.040214 0)
(10.0701 -0.0406369 0)
(10.0751 -0.0409299 0)
(10.0797 -0.0411393 0)
(10.084 -0.0413041 0)
(10.088 -0.0414515 0)
(10.0917 -0.0415986 0)
(10.0951 -0.0417528 0)
(10.0984 -0.0419044 0)
(10.0016 -0.0107951 0)
(10.0116 -0.0248581 0)
(10.0234 -0.0316134 0)
(10.0334 -0.0353461 0)
(10.0417 -0.038296 0)
(10.0498 -0.040468 0)
(10.0577 -0.0418996 0)
(10.0651 -0.0428839 0)
(10.0719 -0.0436001 0)
(10.0782 -0.0441034 0)
(10.0842 -0.0444232 0)
(10.0896 -0.0446082 0)
(10.0947 -0.0447091 0)
(10.0993 -0.0447702 0)
(10.1036 -0.0448254 0)
(10.1075 -0.0448964 0)
(10.1112 -0.044994 0)
(10.1146 -0.0450963 0)
(10.0027 -0.0151981 0)
(10.0181 -0.0301553 0)
(10.0341 -0.0361647 0)
(10.0469 -0.0399638 0)
(10.0576 -0.0431695 0)
(10.0679 -0.045287 0)
(10.0777 -0.0464941 0)
(10.0867 -0.0472386 0)
(10.0948 -0.0477214 0)
(10.1024 -0.047981 0)
(10.1093 -0.0480495 0)
(10.1156 -0.0479837 0)
(10.1212 -0.0478418 0)
(10.1263 -0.0476772 0)
(10.1309 -0.047532 0)
(10.135 -0.0474331 0)
(10.1387 -0.0473925 0)
(10.142 -0.0473572 0)
(10.0077 -0.0232164 0)
(10.0352 -0.0380654 0)
(10.0613 -0.0407196 0)
(10.0811 -0.0434292 0)
(10.0982 -0.0468495 0)
(10.114 -0.0493777 0)
(10.1282 -0.0509462 0)
(10.1404 -0.0519927 0)
(10.1509 -0.0526972 0)
(10.1599 -0.0530664 0)
(10.1675 -0.0531435 0)
(10.1738 -0.0529992 0)
(10.1787 -0.0527182 0)
(10.1825 -0.0523732 0)
(10.1852 -0.052047 0)
(10.1871 -0.0518058 0)
(10.1882 -0.0516636 0)
(10.1887 -0.0516601 0)
(10.032 -0.0336724 0)
(10.1128 -0.0578687 0)
(10.1698 -0.0598152 0)
(10.2038 -0.0588067 0)
(10.2257 -0.0584107 0)
(10.2393 -0.0577629 0)
(10.2454 -0.0567917 0)
(10.2447 -0.0557941 0)
(10.2387 -0.0548188 0)
(10.2284 -0.053776 0)
(10.2146 -0.0526327 0)
(10.1979 -0.0514108 0)
(10.179 -0.0501627 0)
(10.1584 -0.0489607 0)
(10.1365 -0.0478736 0)
(10.114 -0.0470085 0)
(10.0915 -0.0464109 0)
(10.0695 -0.0464576 0)
(9.90266 -0.0262759 0)
(9.70263 -0.0519947 0)
(9.50044 -0.0596758 0)
(9.29968 -0.0617031 0)
(9.11047 -0.0616194 0)
(8.93592 -0.0600986 0)
(8.77494 -0.0576238 0)
(8.62598 -0.0547128 0)
(8.48846 -0.0516211 0)
(8.36213 -0.0484155 0)
(8.24644 -0.0451733 0)
(8.14073 -0.0419667 0)
(8.04421 -0.0388498 0)
(7.95615 -0.0358755 0)
(7.87573 -0.0331632 0)
(7.80157 -0.0308981 0)
(7.7323 -0.0291054 0)
(7.66771 -0.0280865 0)
(-0.00351185 0.00958261 0)
(-0.0159445 0.0157184 0)
(-0.0328872 0.0171963 0)
(-0.0514355 0.0148376 0)
(-0.0678416 0.00779133 0)
(-0.073594 -0.00343411 0)
(-0.0599536 -0.0180697 -6.58738e-19)
(-0.0313132 -0.0350203 7.74894e-19)
(0.00906205 -0.0494743 0)
(0.0570825 -0.0579024 5.62916e-19)
(0.109898 -0.0604667 0)
(0.16388 -0.0587803 0)
(0.215199 -0.0541284 0)
(0.261377 -0.0475311 -2.27541e-19)
(0.301132 -0.0397719 0)
(0.333858 -0.0313796 0)
(0.35927 -0.0226748 1.81624e-19)
(0.377213 -0.0137831 0)
(0.387575 -0.00462753 0)
(0.390243 0.00502706 0)
(0.383947 0.0151136 -1.75489e-19)
(0.369171 0.0251108 0)
(0.34635 0.0342507 -1.89109e-19)
(0.315936 0.0417333 0)
(0.278748 0.0467888 0)
(0.236093 0.0486479 -2.53365e-19)
(0.189813 0.0466369 0)
(0.142267 0.0403664 3.64693e-19)
(0.0962663 0.029978 0)
(0.0549585 0.0165841 -6.39858e-19)
(0.0215874 0.00300863 0)
(-0.00153517 -0.00622078 0)
(-0.0161219 -0.00831908 0)
(-0.0251014 -0.00523443 0)
(-0.0304763 -0.000504861 0)
(-0.0346168 0.00273993 9.67239e-19)
(-0.0386745 0.0028405 0)
(-0.0400978 -0.000677674 -1.87877e-18)
(-0.0337973 -0.00747731 0)
(-0.0173646 -0.0165865 2.16376e-18)
(0.00874388 -0.0259302 0)
(0.0419656 -0.0322377 0)
(0.0778026 -0.0331176 -1.07454e-18)
(0.111087 -0.0288569 0)
(0.137285 -0.0212541 -7.90175e-19)
(0.15378 -0.0124691 7.51416e-19)
(0.160435 -0.00417374 0)
(0.158106 0.00174093 7.54261e-19)
(0.151181 0.00390836 7.77966e-19)
(0.144236 0.00375724 0)
(0.140474 0.00178471 0)
(0.147867 -0.00942095 0)
(0.15785 -0.0263367 0)
(0.161556 -0.0445604 0)
(0.143569 -0.0513284 -7.68467e-19)
(0.0981153 -0.0346618 0)
(0.0141522 0.00592799 9.25701e-19)
(-0.123831 0.0539632 0)
(-0.278701 0.0896888 0)
(-0.447062 0.11416 -2.50172e-19)
(-0.622111 0.128439 0)
(-0.796788 0.133738 1.60726e-19)
(-0.965676 0.131469 0)
(-1.12476 0.124197 0)
(-1.27155 0.114276 0)
(-1.40503 0.103195 -1.04592e-19)
(-1.52515 0.0920868 0)
(-1.63278 0.081607 0)
(-1.72891 0.0721009 -8.97191e-20)
(-1.81481 0.0637332 0)
(-1.89177 0.0564983 -8.39439e-20)
(-1.96103 0.050327 0)
(-2.02369 0.045089 0)
(-2.08072 0.0406571 0)
(-2.13294 0.0368942 7.65344e-20)
(-2.18105 0.0336859 0)
(-2.2256 0.030924 0)
(-2.26706 0.0285266 7.26817e-20)
(-2.30578 0.0264196 7.15688e-20)
(-2.34206 0.0245471 0)
(-2.37615 0.0228608 6.95148e-20)
(-2.40823 0.0213259 0)
(-2.43845 0.0199114 1.35255e-19)
(-2.46692 0.0185952 0)
(-2.49375 0.0173578 1.31709e-19)
(-2.519 0.0161838 0)
(-2.54274 0.015061 -1.28313e-19)
(-2.565 0.0139776 0)
(-2.58583 0.0129243 0)
(-2.60522 0.0118927 0)
(-2.62321 0.0108725 1.21755e-19)
(-2.6398 0.00985506 0)
(-2.65499 0.0088319 -1.18515e-19)
(-2.66875 0.00779325 0)
(-2.68106 0.00673144 1.15264e-19)
(-2.6919 0.00563895 1.13629e-19)
(-2.7012 0.00451485 1.11985e-19)
(-2.70892 0.00336819 0)
(-2.71501 0.00223749 0)
(-2.7194 0.00119934 0)
(-2.72203 0.000332123 0)
(-2.72325 -0.00038726 0)
(-2.72323 -0.00104663 0)
(-2.72196 -0.00168646 0)
(-2.71947 -0.00231528 0)
(-2.71575 -0.00293603 -9.61073e-20)
(-2.71081 -0.00355001 -9.41446e-20)
(-2.70465 -0.00415639 0)
(-2.69725 -0.00475609 0)
(-2.68863 -0.00534764 0)
(-2.67877 -0.00593209 -8.58211e-20)
(-2.66768 -0.0065078 0)
(-2.65537 -0.0070759 0)
(-2.64183 -0.00763471 0)
(-2.62706 -0.00818538 0)
(-2.61108 -0.00872628 7.42364e-20)
(-2.59389 -0.00925848 0)
(-2.57549 -0.00978048 0)
(-2.5559 -0.0102932 -6.65728e-20)
(-2.53511 -0.0107952 6.38876e-20)
(-2.51316 -0.0112871 0)
(-2.49003 -0.0117671 5.83075e-20)
(-2.46575 -0.0122345 0)
(-2.44034 -0.0126857 -5.24315e-20)
(-2.4138 -0.0131155 0)
(-2.38615 -0.0135112 0)
(-2.35743 -0.0138474 0)
(-2.32767 -0.0140963 0)
(-2.29691 -0.0142108 0)
(-2.2652 -0.0141687 6.56018e-20)
(-2.23253 -0.0142656 5.84317e-20)
(-2.19883 -0.0145971 0)
(-2.16413 -0.0149321 0)
(-2.12849 -0.0152452 0)
(-2.09192 -0.0155454 -2.75894e-20)
(-2.05446 -0.0158325 0)
(-2.01614 -0.0161065 0)
(-1.97699 -0.0163701 0)
(-1.93702 -0.0166226 7.33015e-21)
(-1.89628 -0.0168645 -1.67922e-20)
(-1.85478 -0.0170957 0)
(-1.81256 -0.0173167 0)
(-1.76963 -0.0175275 -4.71866e-20)
(-1.72604 -0.0177295 -5.80496e-20)
(-1.6818 -0.0179229 0)
(-1.63694 -0.0181097 0)
(-1.59149 -0.0182896 9.314e-20)
(-1.54547 -0.0184613 -1.05762e-19)
(-1.49889 -0.0186305 0)
(-1.45182 -0.0187882 0)
(-1.40423 -0.0189449 -1.46794e-19)
(-1.3562 -0.0190902 0)
(-1.30772 -0.0192356 0)
(-1.25885 -0.0193714 -1.93468e-19)
(-1.20958 -0.0195116 0)
(-1.15997 -0.0196463 -2.28331e-19)
(-1.10999 -0.0197909 0)
(-1.05972 -0.0199344 0)
(-1.00908 -0.0200925 0)
(-0.958154 -0.0202542 3.09445e-19)
(-0.906882 -0.0204292 0)
(-0.855298 -0.0206168 0)
(-0.803388 -0.0208141 0)
(-0.751159 -0.0210247 0)
(-0.698613 -0.0212501 0)
(-0.645749 -0.0214936 0)
(-0.592562 -0.0217587 5.06756e-19)
(-0.539041 -0.0220489 5.4359e-19)
(-0.485173 -0.0223664 0)
(-0.430943 -0.022711 0)
(-0.376347 -0.0230799 0)
(-0.321398 -0.0234659 -7.25926e-19)
(-0.266136 -0.0238636 0)
(-0.210649 -0.0242753 1.69327e-18)
(-0.155103 -0.0246447 -1.835e-18)
(-0.0998109 -0.0248449 -1.99413e-18)
(-0.0451934 -0.0247097 2.17357e-18)
(0.00575124 -0.0234625 -2.27905e-18)
(0.0630384 -0.0212044 2.24705e-18)
(0.0764313 -0.0100015 0)
(-0.000125802 0.0252986 0)
(-0.00649356 0.0441556 0)
(-0.015257 0.0472771 1.96739e-18)
(-0.0196296 0.0398362 0)
(-0.00997689 0.0196591 -2.35108e-18)
(0.0209426 -0.0180645 -1.66826e-18)
(0.0626665 -0.0683902 -4.75395e-19)
(0.112723 -0.114456 -3.19171e-19)
(0.166817 -0.146777 0)
(0.220814 -0.163055 -1.94895e-19)
(0.271621 -0.165186 0)
(0.317365 -0.157069 0)
(0.357358 -0.142568 2.72797e-19)
(0.391562 -0.124429 1.27751e-19)
(0.4201 -0.104543 -2.45245e-19)
(0.443247 -0.0840876 -2.38558e-19)
(0.461365 -0.0636685 -1.17292e-19)
(0.474803 -0.0435411 0)
(0.483887 -0.0236984 0)
(0.489112 -0.00397723 0)
(0.49137 0.0157919 -1.20614e-19)
(0.490264 0.0354912 0)
(0.48524 0.0548033 3.72179e-19)
(0.475585 0.0732884 0)
(0.460455 0.0902455 0)
(0.439035 0.104671 1.37584e-19)
(0.410699 0.11527 0)
(0.375243 0.120591 -1.57631e-19)
(0.333074 0.119335 -3.49373e-19)
(0.285325 0.110816 1.99275e-19)
(0.233955 0.0955053 0)
(0.181751 0.0753386 0)
(0.131963 0.0530663 0)
(0.0887619 0.0316218 -1.002e-18)
(0.0564007 0.0139453 -1.34735e-18)
(0.0371572 0.00131121 -8.72194e-19)
(0.03062 -0.00925205 0)
(0.0383003 -0.0218376 1.79817e-18)
(0.0555409 -0.0389963 0)
(0.0812859 -0.0604564 -9.64148e-19)
(0.112776 -0.0796963 0)
(0.144148 -0.0881123 0)
(0.169571 -0.082996 4.90718e-19)
(0.186807 -0.0673847 0)
(0.195179 -0.0463582 1.36665e-18)
(0.195487 -0.0245408 -4.78421e-19)
(0.188846 -0.00542797 0)
(0.178252 0.00633543 -5.48406e-19)
(0.165767 0.00730539 -5.9852e-19)
(0.149856 -0.00101441 0)
(0.121308 -0.0122169 0)
(0.0626036 -0.0097622 0)
(-0.0606334 0.0346899 0)
(-0.231924 0.105764 0)
(-0.417256 0.173718 2.43799e-19)
(-0.607832 0.234877 3.54365e-19)
(-0.797426 0.286479 -1.38202e-19)
(-0.982321 0.322877 0)
(-1.15563 0.340968 1.983e-19)
(-1.31468 0.343063 -8.92452e-20)
(-1.45657 0.332693 0)
(-1.58053 0.313336 -7.45583e-20)
(-1.6872 0.288469 0)
(-1.77814 0.261021 0)
(-1.85559 0.233315 -1.31382e-19)
(-1.9219 0.206941 6.32274e-20)
(-1.97924 0.182855 -1.24079e-19)
(-2.02953 0.161483 1.21214e-19)
(-2.07426 0.142883 5.91074e-20)
(-2.11466 0.126924 0)
(-2.15161 0.113337 5.70413e-20)
(-2.18577 0.101821 0)
(-2.21761 0.0920536 0)
(-2.24748 0.0837464 0)
(-2.27562 0.0766309 5.36611e-20)
(-2.3022 0.0704889 0)
(-2.32737 0.0651288 1.04277e-19)
(-2.35121 0.0604021 -1.54301e-19)
(-2.3738 0.0561809 -5.07628e-20)
(-2.39518 0.0523688 0)
(-2.41541 0.0488847 -4.94385e-20)
(-2.43451 0.0456677 0)
(-2.4525 0.0426669 -9.63252e-20)
(-2.46941 0.0398435 0)
(-2.48525 0.0371657 -9.38376e-20)
(-2.50003 0.0346076 1.85099e-19)
(-2.51375 0.0321493 9.13855e-20)
(-2.52641 0.0297728 0)
(-2.53802 0.0274648 0)
(-2.54858 0.0252132 0)
(-2.55809 0.0230074 -8.649e-20)
(-2.56656 0.0208383 0)
(-2.57397 0.0186983 8.40096e-20)
(-2.58035 0.0165792 0)
(-2.58569 0.0144743 -2.44484e-19)
(-2.59003 0.0123752 -8.02097e-20)
(-2.59338 0.0102751 -7.89182e-20)
(-2.59581 0.00816838 0)
(-2.59738 0.00606886 0)
(-2.59818 0.00402818 0)
(-2.5983 0.00212149 0)
(-2.59749 0.000350659 0)
(-2.59552 -0.00134688 -1.41527e-19)
(-2.59239 -0.00300583 -1.38605e-19)
(-2.58807 -0.00463639 0)
(-2.58255 -0.0062425 6.62088e-20)
(-2.57583 -0.00782545 6.46622e-20)
(-2.56791 -0.00938409 0)
(-2.55877 -0.0109187 1.23223e-19)
(-2.54843 -0.0124271 0)
(-2.53687 -0.0139096 -5.84858e-20)
(-2.5241 -0.015364 0)
(-2.51012 -0.0167905 0)
(-2.49493 -0.0181868 1.0645e-19)
(-2.47853 -0.0195535 0)
(-2.46094 -0.020888 -4.94745e-20)
(-2.44214 -0.0221909 0)
(-2.42216 -0.02346 0)
(-2.401 -0.0246957 -4.42864e-20)
(-2.37867 -0.0258961 -4.19258e-20)
(-2.35517 -0.0270614 0)
(-2.33053 -0.0281899 3.84238e-20)
(-2.30474 -0.0292819 0)
(-2.27784 -0.0303363 -3.4338e-20)
(-2.24982 -0.0313535 -6.39562e-20)
(-2.22072 -0.0323341 0)
(-2.19054 -0.0332819 0)
(-2.15928 -0.0342053 0)
(-2.12697 -0.0351128 0)
(-2.09359 -0.0360004 -4.11226e-20)
(-2.05917 -0.0368518 -1.10448e-19)
(-2.02378 -0.0376416 0)
(-1.98744 -0.0383663 0)
(-1.95017 -0.0390395 0)
(-1.91198 -0.0396701 1.67441e-20)
(-1.8729 -0.040261 0)
(-1.83296 -0.0408112 0)
(-1.79218 -0.0413205 -3.46699e-21)
(-1.75059 -0.0417906 2.97671e-21)
(-1.70821 -0.0422239 9.89742e-21)
(-1.66509 -0.0426196 0)
(-1.62123 -0.042979 0)
(-1.57668 -0.043302 2.70686e-20)
(-1.53145 -0.0435911 -3.14961e-20)
(-1.48558 -0.043847 0)
(-1.43909 -0.0440717 0)
(-1.392 -0.0442673 -5.14804e-20)
(-1.34434 -0.0444313 1.72045e-19)
(-1.29614 -0.0445731 0)
(-1.24742 -0.0446841 0)
(-1.1982 -0.0447698 7.77822e-20)
(-1.14851 -0.0448245 0)
(-1.09838 -0.0448539 1.81768e-19)
(-1.04784 -0.0448547 -9.72332e-20)
(-0.996905 -0.0448366 0)
(-0.945613 -0.0447982 1.13702e-19)
(-0.893958 -0.0447507 2.40876e-19)
(-0.84198 -0.0446925 0)
(-0.789656 -0.044634 0)
(-0.737022 -0.0445766 -1.45143e-19)
(-0.684046 -0.044518 0)
(-0.630751 -0.0444664 3.21959e-19)
(-0.577125 -0.0444133 0)
(-0.523173 -0.0443626 0)
(-0.468897 -0.0443152 0)
(-0.414293 -0.0442747 0)
(-0.359358 -0.0442452 -2.07139e-19)
(-0.30408 -0.0442311 -2.16837e-19)
(-0.248448 -0.0442341 0)
(-0.192447 -0.0442526 0)
(-0.136071 -0.0442794 0)
(-0.0793268 -0.0442979 2.58101e-19)
(-0.0222487 -0.0442774 0)
(0.0351028 -0.0441627 -5.47589e-19)
(0.0926175 -0.043882 5.48695e-19)
(0.150018 -0.0433057 5.49876e-19)
(0.207217 -0.0422269 5.4796e-19)
(0.26208 -0.0402119 5.54097e-19)
(0.320005 -0.0362894 5.56575e-19)
(0.355514 -0.0243295 0)
(0.000905787 0.0272977 0)
(0.00198619 0.0500019 0)
(0.00606069 0.0478986 -2.14182e-18)
(0.0226502 0.0204369 -1.73016e-18)
(0.0610288 -0.0404853 1.04933e-18)
(0.117083 -0.119023 6.38892e-19)
(0.179056 -0.189604 -3.24147e-22)
(0.237271 -0.237044 0)
(0.287205 -0.258663 0)
(0.327922 -0.25902 0)
(0.360375 -0.244682 0)
(0.386188 -0.221519 0)
(0.406881 -0.193957 -6.19944e-19)
(0.423549 -0.164824 0)
(0.436919 -0.135689 1.92359e-19)
(0.447453 -0.107336 1.89147e-19)
(0.455456 -0.0800792 0)
(0.461126 -0.0539753 0)
(0.464645 -0.0289779 0)
(0.466138 -0.00497485 0)
(0.465959 0.0182657 1.94746e-19)
(0.464408 0.0411116 0)
(0.461811 0.0638414 -2.00079e-19)
(0.458346 0.0864991 0)
(0.453906 0.108803 0)
(0.447998 0.130078 0)
(0.439735 0.149215 -4.63793e-19)
(0.427852 0.164688 0)
(0.410915 0.174708 2.57227e-19)
(0.38768 0.177549 -5.51552e-19)
(0.357613 0.172001 0)
(0.321399 0.15786 0)
(0.281235 0.136035 0)
(0.240792 0.108373 4.4608e-19)
(0.204458 0.0772843 5.29609e-19)
(0.176318 0.0449176 0)
(0.159659 0.011731 0)
(0.154786 -0.0230553 -1.4719e-18)
(0.161624 -0.0595857 -1.27495e-18)
(0.175718 -0.0936964 1.03693e-18)
(0.1888 -0.114045 0)
(0.193402 -0.112745 0)
(0.188343 -0.0939278 0)
(0.174825 -0.0649722 0)
(0.15395 -0.0338021 -7.47566e-19)
(0.127171 -0.00619391 -8.25261e-19)
(0.094358 0.0184688 9.6389e-19)
(0.0509925 0.0385655 0)
(-0.0223988 0.0555814 0)
(-0.142169 0.0999429 0)
(-0.29958 0.168635 0)
(-0.480602 0.245689 -3.78084e-19)
(-0.671272 0.32283 0)
(-0.859786 0.392616 0)
(-1.03631 0.448243 -1.94339e-19)
(-1.19563 0.488911 -1.6846e-19)
(-1.33169 0.512952 0)
(-1.443 0.519154 2.77544e-19)
(-1.53209 0.508727 -1.27381e-19)
(-1.60256 0.484894 1.19705e-19)
(-1.65867 0.451614 0)
(-1.70455 0.412849 0)
(-1.74373 0.372061 0)
(-1.77892 0.331981 0)
(-1.81195 0.294468 9.80717e-20)
(-1.84387 0.260588 1.92252e-19)
(-1.87518 0.23076 9.29612e-20)
(-1.90605 0.204955 -9.07666e-20)
(-1.93645 0.182871 0)
(-1.96629 0.164085 1.74222e-19)
(-1.99544 0.148128 1.70628e-19)
(-2.02377 0.134546 1.67292e-19)
(-2.05122 0.122922 -1.64161e-19)
(-2.0777 0.112898 0)
(-2.10318 0.104172 -2.37652e-19)
(-2.12764 0.0964968 0)
(-2.15106 0.0896691 7.65517e-20)
(-2.17345 0.0835244 7.54552e-20)
(-2.19481 0.0779298 0)
(-2.21515 0.0727822 0)
(-2.23446 0.067998 1.43906e-19)
(-2.25277 0.0635115 0)
(-2.27008 0.0592698 1.39607e-19)
(-2.28639 0.0552309 0)
(-2.30171 0.0513609 -1.35459e-19)
(-2.31604 0.0476324 -2.6697e-19)
(-2.32938 0.0440231 0)
(-2.34173 0.0405144 0)
(-2.3531 0.0370914 0)
(-2.36348 0.033742 -1.25427e-19)
(-2.37287 0.0304556 0)
(-2.38128 0.0272249 -1.21455e-19)
(-2.3887 0.0240445 0)
(-2.39514 0.0209119 0)
(-2.4006 0.0178269 2.30927e-19)
(-2.40509 0.0147926 0)
(-2.4086 0.0118155 1.11423e-19)
(-2.41115 0.00890487 0)
(-2.41274 0.00606949 1.07332e-19)
(-2.41332 0.00330459 0)
(-2.41286 0.000578218 0)
(-2.4113 -0.00213537 0)
(-2.40861 -0.00482795 2.95638e-19)
(-2.40479 -0.007488 9.62035e-20)
(-2.39982 -0.010113 0)
(-2.3937 -0.0127021 0)
(-2.38641 -0.0152539 0)
(-2.37795 -0.0177671 0)
(-2.36831 -0.0202401 -8.44593e-20)
(-2.3575 -0.0226713 1.64468e-19)
(-2.34552 -0.0250589 7.95601e-20)
(-2.33235 -0.0274016 -1.54604e-19)
(-2.31801 -0.0296974 -1.49581e-19)
(-2.30249 -0.0319449 -7.19877e-20)
(-2.28579 -0.0341424 0)
(-2.26793 -0.0362884 -1.34149e-19)
(-2.2489 -0.0383813 0)
(-2.2287 -0.0404197 1.23551e-19)
(-2.20736 -0.0424022 5.87542e-20)
(-2.18487 -0.0443272 0)
(-2.16124 -0.0461936 -1.07178e-19)
(-2.13649 -0.0479995 -5.04362e-20)
(-2.11063 -0.0497436 0)
(-2.08366 -0.0514241 -4.54953e-20)
(-2.05561 -0.0530393 1.26269e-19)
(-2.02648 -0.0545873 0)
(-1.9963 -0.0560666 0)
(-1.96507 -0.0574777 0)
(-1.93281 -0.0588222 0)
(-1.89953 -0.0601055 5.45148e-20)
(-1.86525 -0.0613405 4.74074e-20)
(-1.83002 -0.0625208 0)
(-1.79385 -0.0636294 0)
(-1.75678 -0.0646643 0)
(-1.7188 -0.0656303 0)
(-1.67996 -0.0665301 0)
(-1.64026 -0.0673629 0)
(-1.59974 -0.0681288 2.15876e-21)
(-1.55842 -0.0688296 -1.04648e-21)
(-1.51634 -0.0694673 0)
(-1.47351 -0.0700425 0)
(-1.42996 -0.0705562 -2.40023e-20)
(-1.38572 -0.0710095 0)
(-1.34082 -0.0714049 3.90795e-20)
(-1.29529 -0.0717446 4.50504e-20)
(-1.24914 -0.0720311 0)
(-1.20242 -0.0722671 0)
(-1.15513 -0.0724537 -6.77898e-20)
(-1.1073 -0.0725957 -1.47915e-19)
(-1.05896 -0.072692 0)
(-1.01014 -0.0727409 0)
(-0.96084 -0.0727429 0)
(-0.91111 -0.0726964 -1.04986e-19)
(-0.86096 -0.0726066 1.12613e-19)
(-0.810429 -0.0724771 0)
(-0.759524 -0.0723171 2.53636e-19)
(-0.708276 -0.0721315 1.33378e-19)
(-0.656684 -0.0719302 -2.84838e-19)
(-0.60477 -0.0717169 0)
(-0.552526 -0.0715022 0)
(-0.499958 -0.0712811 -3.3236e-19)
(-0.447065 -0.0710619 -1.75421e-19)
(-0.393846 -0.0708365 0)
(-0.3403 -0.0706073 0)
(-0.28643 -0.0703754 0)
(-0.232233 -0.0701456 0)
(-0.177702 -0.0699229 -4.29971e-19)
(-0.122828 -0.0697121 0)
(-0.0675984 -0.0695149 0)
(-0.0119994 -0.0693281 0)
(0.0439795 -0.0691388 0)
(0.100337 -0.068923 0)
(0.157053 -0.0686406 0)
(0.214075 -0.0682198 -5.10229e-19)
(0.271315 -0.0675636 0)
(0.328566 -0.0665148 0)
(0.385843 -0.0648219 -1.06111e-18)
(0.441627 -0.0620302 5.36508e-19)
(0.499944 -0.0571875 -5.48232e-19)
(0.545615 -0.0452217 5.60452e-19)
(-0.00126997 0.0266586 0)
(0.000656005 0.0392336 4.71601e-18)
(0.0180882 0.00810177 0)
(0.0655991 -0.0759144 9.42937e-19)
(0.13421 -0.180217 0)
(0.204684 -0.267405 0)
(0.263468 -0.319741 -3.00362e-19)
(0.306405 -0.337938 0)
(0.335464 -0.331075 0)
(0.354648 -0.309097 0)
(0.36766 -0.279421 0)
(0.377075 -0.246562 0)
(0.384393 -0.212945 6.94744e-19)
(0.390351 -0.179753 3.37571e-19)
(0.395234 -0.147515 -3.31192e-19)
(0.399098 -0.116443 0)
(0.401918 -0.0866078 0)
(0.403659 -0.0580022 0)
(0.404309 -0.0305906 0)
(0.403878 -0.00432053 0)
(0.402458 0.0209186 3.44338e-19)
(0.400168 0.0452706 3.47145e-19)
(0.397236 0.0688926 -3.52391e-19)
(0.393972 0.0919361 3.60164e-19)
(0.390677 0.114452 0)
(0.387542 0.136296 0)
(0.384553 0.157054 4.04085e-19)
(0.381363 0.175916 0)
(0.377201 0.191616 0)
(0.370888 0.202453 4.77812e-19)
(0.361077 0.206468 5.09205e-19)
(0.346732 0.201815 5.4701e-19)
(0.327641 0.187211 0)
(0.304779 0.162331 0)
(0.280266 0.128099 -7.45099e-19)
(0.257188 0.0863675 0)
(0.238562 0.0396115 0)
(0.226237 -0.00976268 1.05758e-18)
(0.21876 -0.0591487 -9.26579e-19)
(0.208396 -0.0949743 7.72515e-19)
(0.188925 -0.104011 0)
(0.159084 -0.0876902 0)
(0.119755 -0.056234 1.3745e-18)
(0.0716051 -0.0162356 0)
(0.0142946 0.0284558 1.72264e-18)
(-0.0630578 0.0749104 2.34493e-18)
(-0.168686 0.130691 -1.79039e-18)
(-0.299721 0.200248 8.96498e-19)
(-0.455878 0.278522 0)
(-0.628403 0.36223 0)
(-0.804169 0.443898 4.43011e-19)
(-0.97166 0.515777 1.86043e-19)
(-1.12154 0.571576 0)
(-1.2484 0.608809 0)
(-1.35132 0.628171 1.30921e-19)
(-1.43126 0.631564 2.43759e-19)
(-1.48995 0.620943 0)
(-1.53143 0.598329 -2.11215e-19)
(-1.56058 0.566168 2.0201e-19)
(-1.58213 0.527488 -1.91991e-19)
(-1.60005 0.485292 0)