/*--------------------------------*- C++ -*----------------------------------*\
  =========                 |
  \\      /  F ield         | OpenFOAM: The Open Source CFD Toolbox
   \\    /   O peration     | Website:  https://openfoam.org
    \\  /    A nd           | Version:  8
     \\/     M anipulation  |
\*---------------------------------------------------------------------------*/
FoamFile
{
    version     2.0;
    format      ascii;
    class       volVectorField;
    location    "1600";
    object      U;
}
// * * * * * * * * * * * * * * * * * * * * * * * * * * * * * * * * * * * * * //

dimensions      [0 1 -1 0 0 0 0];

internalField   nonuniform List<vector> 
12225
(
(9.74542 0.0547017 0)
(9.27051 0.100061 0)
(8.81839 0.0993384 0)
(8.40044 0.0928606 0)
(8.04514 0.0765937 0)
(7.76808 0.0603729 0)
(7.52907 0.0515257 0)
(7.34228 0.0357551 0)
(7.18213 0.0308914 0)
(7.06245 0.0378376 0)
(6.95728 0.0337116 0)
(6.86684 0.0211624 0)
(6.79272 0.00550188 0)
(6.73081 0.0108686 0)
(6.67343 0.0121389 0)
(6.63266 -0.0019822 0)
(6.60504 -0.00916044 0)
(6.59774 -0.00838515 0)
(10.1023 0.0571332 0)
(10.2888 0.0908157 0)
(10.3977 0.092097 0)
(10.4269 0.0881964 0)
(10.4023 0.0836948 0)
(10.3371 0.0779068 0)
(10.2583 0.0707963 0)
(10.1578 0.0666372 0)
(10.0638 0.0607955 0)
(9.95099 0.0525411 0)
(9.8438 0.0488261 0)
(9.74189 0.0470768 0)
(9.65193 0.0446142 0)
(9.57194 0.0392021 0)
(9.48989 0.0343195 0)
(9.41873 0.0309918 0)
(9.35212 0.0252045 0)
(9.29081 0.0174854 0)
(10.0123 0.0451999 0)
(10.0646 0.0675474 0)
(10.1167 0.0689466 0)
(10.1616 0.0749777 0)
(10.2006 0.0793117 0)
(10.233 0.0802562 0)
(10.2538 0.0798148 0)
(10.2631 0.0767933 0)
(10.2639 0.0736272 0)
(10.2585 0.0715853 0)
(10.2495 0.068735 0)
(10.2366 0.0649045 0)
(10.2204 0.060869 0)
(10.2028 0.0583234 0)
(10.1854 0.0549562 0)
(10.1669 0.0498798 0)
(10.1467 0.0443397 0)
(10.1245 0.0380661 0)
(10.0069 0.0293009 0)
(10.0377 0.0552175 0)
(10.063 0.061836 0)
(10.0819 0.0675025 0)
(10.1015 0.0708128 0)
(10.1208 0.0712539 0)
(10.1393 0.0705974 0)
(10.1552 0.068806 0)
(10.1682 0.0672012 0)
(10.1794 0.0661464 0)
(10.1892 0.0642908 0)
(10.1971 0.0615012 0)
(10.2028 0.058274 0)
(10.2071 0.0558335 0)
(10.2109 0.0527645 0)
(10.2134 0.0485417 0)
(10.2143 0.0440552 0)
(10.2137 0.0394816 0)
(10.0055 0.0239663 0)
(10.0282 0.0506569 0)
(10.0505 0.0587972 0)
(10.0665 0.0628653 0)
(10.0804 0.0654629 0)
(10.0938 0.0660534 0)
(10.107 0.0657743 0)
(10.1191 0.064719 0)
(10.1299 0.0636265 0)
(10.14 0.0626488 0)
(10.1497 0.0610228 0)
(10.1584 0.0586694 0)
(10.166 0.0559633 0)
(10.1728 0.053469 0)
(10.179 0.0505043 0)
(10.1844 0.046804 0)
(10.1887 0.0427985 0)
(10.192 0.0387239 0)
(10.0039 0.0193375 0)
(10.0214 0.0443876 0)
(10.0411 0.0535741 0)
(10.0566 0.0577841 0)
(10.0693 0.0606984 0)
(10.0812 0.061662 0)
(10.0926 0.0615053 0)
(10.1029 0.0606487 0)
(10.1124 0.0596545 0)
(10.1213 0.058593 0)
(10.1299 0.057031 0)
(10.1379 0.0549138 0)
(10.1451 0.0524855 0)
(10.1518 0.0499771 0)
(10.1579 0.0471231 0)
(10.1634 0.0438298 0)
(10.168 0.0402926 0)
(10.1719 0.0366729 0)
(10.0024 0.0155041 0)
(10.0162 0.0384251 0)
(10.0333 0.0482854 0)
(10.048 0.0528559 0)
(10.0603 0.0558978 0)
(10.0716 0.0571391 0)
(10.0821 0.0571174 0)
(10.0917 0.0564294 0)
(10.1005 0.0555317 0)
(10.1088 0.0544599 0)
(10.1167 0.0529733 0)
(10.1241 0.0510441 0)
(10.1309 0.0488193 0)
(10.1372 0.0464055 0)
(10.143 0.0437173 0)
(10.1483 0.0407364 0)
(10.1529 0.0375655 0)
(10.1568 0.0343157 0)
(10.0016 0.0127574 0)
(10.0127 0.0332617 0)
(10.0277 0.0434845 0)
(10.0414 0.0484482 0)
(10.0531 0.0516326 0)
(10.0641 0.0531533 0)
(10.0743 0.0533014 0)
(10.0835 0.0527606 0)
(10.092 0.0519116 0)
(10.1 0.0508166 0)
(10.1075 0.0493604 0)
(10.1145 0.0475489 0)
(10.1211 0.0454636 0)
(10.1271 0.0431629 0)
(10.1327 0.0406332 0)
(10.1377 0.0378902 0)
(10.1422 0.0349942 0)
(10.1461 0.0320305 0)
(10.0012 0.0107193 0)
(10.0103 0.0291717 0)
(10.0234 0.0392289 0)
(10.0361 0.0443341 0)
(10.0473 0.0475852 0)
(10.0578 0.0492505 0)
(10.0675 0.0496268 0)
(10.0765 0.0492635 0)
(10.0847 0.0485302 0)
(10.0924 0.0475052 0)
(10.0997 0.0461291 0)
(10.1065 0.0444198 0)
(10.1128 0.0424429 0)
(10.1187 0.0402479 0)
(10.1241 0.0378536 0)
(10.129 0.0352859 0)
(10.1334 0.0326007 0)
(10.1372 0.0298677 0)
(10.0009 0.00894215 0)
(10.0082 0.0251417 0)
(10.0195 0.0347374 0)
(10.031 0.0398801 0)
(10.0415 0.043159 0)
(10.0514 0.0449419 0)
(10.0607 0.045517 0)
(10.0692 0.045327 0)
(10.0772 0.0447079 0)
(10.0846 0.0437558 0)
(10.0916 0.0424647 0)
(10.0982 0.0408598 0)
(10.1044 0.0390003 0)
(10.11 0.0369369 0)
(10.1153 0.0346952 0)
(10.12 0.0323193 0)
(10.1243 0.0298509 0)
(10.1281 0.027356 0)
(10.0007 0.00736546 0)
(10.0065 0.0212422 0)
(10.016 0.0301548 0)
(10.0262 0.0351928 0)
(10.0359 0.0384111 0)
(10.0451 0.0402466 0)
(10.0538 0.0409636 0)
(10.062 0.0409244 0)
(10.0696 0.0404105 0)
(10.0768 0.0395377 0)
(10.0836 0.038334 0)
(10.0899 0.0368418 0)
(10.0958 0.035116 0)
(10.1013 0.0332015 0)
(10.1063 0.0311346 0)
(10.1109 0.0289605 0)
(10.115 0.0267159 0)
(10.1188 0.0244523 0)
(10.0005 0.00594759 0)
(10.0051 0.0175073 0)
(10.0129 0.0255262 0)
(10.0219 0.0302894 0)
(10.0307 0.0333521 0)
(10.0392 0.0351574 0)
(10.0473 0.035954 0)
(10.0551 0.0360249 0)
(10.0623 0.0356073 0)
(10.0692 0.0348163 0)
(10.0756 0.033715 0)
(10.0817 0.0323463 0)
(10.0873 0.0307701 0)
(10.0926 0.0290181 0)
(10.0974 0.0271452 0)
(10.1018 0.0251766 0)
(10.1058 0.0231597 0)
(10.1095 0.0211285 0)
(10.0004 0.00467987 0)
(10.004 0.0139959 0)
(10.0104 0.0209066 0)
(10.0181 0.0252041 0)
(10.026 0.0280075 0)
(10.0338 0.02969 0)
(10.0413 0.0304887 0)
(10.0486 0.0306231 0)
(10.0554 0.0302793 0)
(10.0619 0.0295758 0)
(10.0681 0.0285805 0)
(10.0738 0.0273502 0)
(10.0792 0.0259267 0)
(10.0842 0.0243597 0)
(10.0889 0.0226786 0)
(10.0931 0.0209314 0)
(10.0969 0.0191374 0)
(10.1005 0.017344 0)
(10.0003 0.00353802 0)
(10.0031 0.0107108 0)
(10.0084 0.0163454 0)
(10.015 0.0199825 0)
(10.022 0.0223959 0)
(10.029 0.0238548 0)
(10.036 0.0245683 0)
(10.0427 0.0247058 0)
(10.0492 0.0244064 0)
(10.0553 0.0237824 0)
(10.0611 0.0228948 0)
(10.0666 0.0218044 0)
(10.0718 0.0205454 0)
(10.0765 0.0191639 0)
(10.0809 0.0176895 0)
(10.085 0.0161633 0)
(10.0887 0.0146019 0)
(10.0921 0.0130453 0)
(10.0002 0.00248778 0)
(10.0025 0.00762096 0)
(10.0068 0.0118577 0)
(10.0124 0.0146529 0)
(10.0186 0.0165302 0)
(10.025 0.0176574 0)
(10.0314 0.0181916 0)
(10.0376 0.0182595 0)
(10.0437 0.0179688 0)
(10.0495 0.0173968 0)
(10.055 0.0166129 0)
(10.0602 0.0156533 0)
(10.0651 0.014564 0)
(10.0697 0.0133695 0)
(10.0739 0.0121113 0)
(10.0778 0.0108076 0)
(10.0814 0.00948606 0)
(10.0847 0.00816866 0)
(10.0002 0.00149544 0)
(10.0021 0.0046595 0)
(10.0057 0.00741278 0)
(10.0105 0.00920306 0)
(10.016 0.0103981 0)
(10.0218 0.0110724 0)
(10.0277 0.0113289 0)
(10.0335 0.0112535 0)
(10.0392 0.0109132 0)
(10.0447 0.0103675 0)
(10.0499 0.00966145 0)
(10.0549 0.00882956 0)
(10.0596 0.00790074 0)
(10.0639 0.00690109 0)
(10.068 0.00585492 0)
(10.0718 0.00478224 0)
(10.0752 0.00369762 0)
(10.0785 0.00262691 0)
(10.0002 0.000522046 0)
(10.0018 0.00174079 0)
(10.0049 0.00291985 0)
(10.0093 0.00355936 0)
(10.0143 0.00392622 0)
(10.0197 0.00402233 0)
(10.0252 0.00390051 0)
(10.0307 0.00359686 0)
(10.0361 0.00315274 0)
(10.0413 0.00259099 0)
(10.0463 0.00194302 0)
(10.0511 0.00122198 0)
(10.0555 0.000450579 0)
(10.0598 -0.000360576 0)
(10.0637 -0.00119286 0)
(10.0674 -0.00203747 0)
(10.0708 -0.0028826 0)
(10.0739 -0.00370951 0)
(10.0002 -0.000425472 0)
(10.0017 -0.00110395 0)
(10.0047 -0.00153526 0)
(10.0089 -0.00210473 0)
(10.0137 -0.00264047 0)
(10.0189 -0.00318609 0)
(10.0242 -0.00374851 0)
(10.0295 -0.0043218 0)
(10.0348 -0.00490961 0)
(10.0399 -0.00550653 0)
(10.0448 -0.00611805 0)
(10.0495 -0.00673645 0)
(10.0538 -0.00736563 0)
(10.058 -0.00799573 0)
(10.0618 -0.00862878 0)
(10.0655 -0.00925466 0)
(10.0688 -0.0098759 0)
(10.0719 -0.0104716 0)
(10.0002 -0.00132638 0)
(10.0018 -0.00378324 0)
(10.0049 -0.00574908 0)
(10.0092 -0.00745954 0)
(10.0142 -0.00884645 0)
(10.0195 -0.00999784 0)
(10.0249 -0.0109731 0)
(10.0303 -0.0117986 0)
(10.0356 -0.0125119 0)
(10.0407 -0.0131383 0)
(10.0456 -0.0137057 0)
(10.0503 -0.0142272 0)
(10.0546 -0.0147182 0)
(10.0588 -0.0151842 0)
(10.0626 -0.0156331 0)
(10.0662 -0.0160656 0)
(10.0695 -0.0164856 0)
(10.0727 -0.0168801 0)
(10.0002 -0.00221975 0)
(10.002 -0.00639809 0)
(10.0056 -0.00978802 0)
(10.0103 -0.0125184 0)
(10.0157 -0.0146328 0)
(10.0212 -0.0162988 0)
(10.0269 -0.0176067 0)
(10.0325 -0.0186246 0)
(10.038 -0.0194138 0)
(10.0432 -0.0200375 0)
(10.0482 -0.0205372 0)
(10.0529 -0.0209516 0)
(10.0574 -0.0213009 0)
(10.0615 -0.0216101 0)
(10.0654 -0.0218869 0)
(10.069 -0.0221455 0)
(10.0724 -0.0223866 0)
(10.0755 -0.022607 0)
(10.0003 -0.00317846 0)
(10.0025 -0.00913805 0)
(10.0067 -0.0138732 0)
(10.0121 -0.0174896 0)
(10.018 -0.0202091 0)
(10.024 -0.022286 0)
(10.0301 -0.0238452 0)
(10.036 -0.0249798 0)
(10.0418 -0.0257911 0)
(10.0472 -0.0263655 0)
(10.0524 -0.0267717 0)
(10.0572 -0.0270544 0)
(10.0617 -0.0272561 0)
(10.0659 -0.0274006 0)
(10.0699 -0.0275141 0)
(10.0735 -0.0276032 0)
(10.0769 -0.0276838 0)
(10.0801 -0.0277435 0)
(10.0003 -0.00426749 0)
(10.0032 -0.0121514 0)
(10.0084 -0.018145 0)
(10.0147 -0.0224923 0)
(10.0213 -0.0256895 0)
(10.0278 -0.0280792 0)
(10.0344 -0.0298 0)
(10.0407 -0.0309762 0)
(10.0468 -0.0317484 0)
(10.0525 -0.0322336 0)
(10.0579 -0.0325115 0)
(10.0629 -0.0326438 0)
(10.0675 -0.0326788 0)
(10.0718 -0.0326557 0)
(10.0758 -0.0325994 0)
(10.0795 -0.0325291 0)
(10.083 -0.0324529 0)
(10.0862 -0.0323697 0)
(10.0005 -0.00557038 0)
(10.0043 -0.0155604 0)
(10.0107 -0.0226679 0)
(10.0182 -0.027561 0)
(10.0255 -0.0311219 0)
(10.0327 -0.0337375 0)
(10.0398 -0.0355311 0)
(10.0467 -0.0366734 0)
(10.0531 -0.0373537 0)
(10.0591 -0.0377086 0)
(10.0647 -0.0378305 0)
(10.0699 -0.037789 0)
(10.0747 -0.0376443 0)
(10.0791 -0.0374437 0)
(10.0832 -0.0372177 0)
(10.087 -0.0369883 0)
(10.0905 -0.0367634 0)
(10.0937 -0.0365435 0)
(10.0007 -0.0071958 0)
(10.0059 -0.0194983 0)
(10.0141 -0.0274703 0)
(10.0227 -0.0326832 0)
(10.0309 -0.036509 0)
(10.0389 -0.03928 0)
(10.0467 -0.0410727 0)
(10.054 -0.0421184 0)
(10.0609 -0.0426561 0)
(10.0673 -0.0428426 0)
(10.0731 -0.0427741 0)
(10.0785 -0.0425334 0)
(10.0835 -0.0421881 0)
(10.088 -0.0418014 0)
(10.0922 -0.041409 0)
(10.0961 -0.0410316 0)
(10.0997 -0.0406741 0)
(10.103 -0.0403415 0)
(10.001 -0.00927797 0)
(10.0084 -0.0240656 0)
(10.0187 -0.0326017 0)
(10.0288 -0.0379206 0)
(10.0379 -0.0418946 0)
(10.0468 -0.0447209 0)
(10.0554 -0.0464417 0)
(10.0634 -0.0473449 0)
(10.0708 -0.0477098 0)
(10.0776 -0.0476935 0)
(10.0839 -0.0474087 0)
(10.0896 -0.0469416 0)
(10.0948 -0.0463793 0)
(10.0995 -0.0457917 0)
(10.1039 -0.0452255 0)
(10.1079 -0.044704 0)
(10.1117 -0.0442276 0)
(10.1152 -0.0437902 0)
(10.0016 -0.0120598 0)
(10.0121 -0.0292525 0)
(10.0254 -0.0381187 0)
(10.0373 -0.0435068 0)
(10.0477 -0.0475048 0)
(10.0578 -0.0501757 0)
(10.0676 -0.0516582 0)
(10.0767 -0.0523344 0)
(10.085 -0.0524845 0)
(10.0926 -0.052263 0)
(10.0995 -0.0517765 0)
(10.1057 -0.0511282 0)
(10.1115 -0.0504075 0)
(10.1167 -0.0496813 0)
(10.1214 -0.0489991 0)
(10.1258 -0.0483674 0)
(10.1298 -0.0477834 0)
(10.1336 -0.0472344 0)
(10.0028 -0.0165646 0)
(10.0188 -0.0351206 0)
(10.0367 -0.0433894 0)
(10.0517 -0.0490226 0)
(10.0649 -0.0533518 0)
(10.0778 -0.0559746 0)
(10.0901 -0.0571756 0)
(10.1014 -0.0575102 0)
(10.1116 -0.0572917 0)
(10.1208 -0.0566881 0)
(10.1292 -0.0558445 0)
(10.1367 -0.0548504 0)
(10.1434 -0.0538055 0)
(10.1493 -0.0528032 0)
(10.1546 -0.0518862 0)
(10.1592 -0.051084 0)
(10.1633 -0.0503689 0)
(10.1668 -0.0496895 0)
(10.0079 -0.0245687 0)
(10.0377 -0.0434061 0)
(10.0669 -0.0487279 0)
(10.091 -0.0536543 0)
(10.113 -0.0585457 0)
(10.1338 -0.0618519 0)
(10.1528 -0.0635915 0)
(10.1692 -0.0642836 0)
(10.1832 -0.0642554 0)
(10.1947 -0.0636589 0)
(10.2041 -0.062659 0)
(10.2113 -0.0614017 0)
(10.2164 -0.0600115 0)
(10.2197 -0.0585714 0)
(10.2213 -0.0571837 0)
(10.2215 -0.0559423 0)
(10.2207 -0.0548789 0)
(10.219 -0.0540665 0)
(10.0394 -0.0348001 0)
(10.132 -0.0630884 0)
(10.1991 -0.0683294 0)
(10.2425 -0.0700361 0)
(10.2702 -0.0713059 0)
(10.2852 -0.0713191 0)
(10.2884 -0.0701524 0)
(10.2816 -0.0683025 0)
(10.267 -0.0660665 0)
(10.2462 -0.0635868 0)
(10.2206 -0.0609474 0)
(10.1913 -0.0582239 0)
(10.1595 -0.0554982 0)
(10.1259 -0.0528758 0)
(10.0911 -0.0504611 0)
(10.0559 -0.0483199 0)
(10.021 -0.0464645 0)
(9.98739 -0.0453642 0)
(9.89175 -0.0360523 0)
(9.66766 -0.067655 0)
(9.42605 -0.0778316 0)
(9.18078 -0.0803571 0)
(8.94656 -0.0791344 0)
(8.7305 -0.0752126 0)
(8.53348 -0.0698568 0)
(8.35493 -0.0638661 0)
(8.19458 -0.0576105 0)
(8.05186 -0.0514083 0)
(7.92563 -0.0454686 0)
(7.8144 -0.0399137 0)
(7.7167 -0.0348011 0)
(7.63098 -0.0301631 0)
(7.55573 -0.0260186 0)
(7.4895 -0.0224817 0)
(7.4301 -0.0196611 0)
(7.37674 -0.0178834 0)
(-0.00276861 0.00768361 0)
(-0.012916 0.0127536 0)
(-0.0267135 0.0138277 0)
(-0.0413379 0.0117155 0)
(-0.0519721 0.00580298 0)
(-0.0509707 -0.00388686 0)
(-0.0349518 -0.0169677 -8.09845e-19)
(-0.00736859 -0.0305963 9.23046e-19)
(0.028491 -0.0407742 0)
(0.0696644 -0.045731 5.29407e-19)
(0.113247 -0.0461349 0)
(0.155745 -0.0431827 0)
(0.194388 -0.0379438 0)
(0.227497 -0.031241 -2.58754e-19)
(0.2542 -0.0236455 0)
(0.274074 -0.0155252 0)
(0.286779 -0.00707893 2.2356e-19)
(0.292531 0.00175755 0)
(0.290191 0.0108843 0)
(0.27997 0.0198151 0)
(0.262505 0.0277926 -2.39655e-19)
(0.238453 0.034016 0)
(0.20875 0.0377485 -2.83708e-19)
(0.174809 0.0383603 0)
(0.138495 0.035417 0)
(0.1021 0.0289129 -4.62424e-19)
(0.0681405 0.019554 0)
(0.0390445 0.0090813 7.71691e-19)
(0.0165539 0.00015937 0)
(0.00108226 -0.00515438 -1.3171e-18)
(-0.00855126 -0.0075654 0)
(-0.0133907 -0.00920967 0)
(-0.0122383 -0.0113504 0)
(-0.00476633 -0.014938 0)
(0.0101014 -0.0204446 0)
(0.0327675 -0.0266203 8.33185e-19)
(0.061632 -0.0310285 0)
(0.092487 -0.0312673 -9.803e-19)
(0.120162 -0.0268942 0)
(0.140364 -0.0193026 7.77592e-19)
(0.151227 -0.0110029 0)
(0.153767 -0.00422917 0)
(0.150638 -0.000423958 -7.67853e-19)
(0.145885 -0.000486051 0)
(0.142881 -0.00523273 -8.00068e-19)
(0.14025 -0.0141309 8.06668e-19)
(0.131714 -0.0224177 0)
(0.109664 -0.0200569 8.75054e-19)
(0.0687757 -0.00196547 1.01566e-18)
(-0.00290556 0.0161967 0)
(-0.0998452 0.0337148 0)
(-0.204588 0.057555 0)
(-0.321187 0.0813488 0)
(-0.447594 0.0993413 0)
(-0.580519 0.108838 -1.8601e-19)
(-0.714983 0.114529 0)
(-0.847216 0.11584 1.44709e-19)
(-0.976051 0.112984 0)
(-1.09819 0.105442 0)
(-1.21284 0.0958095 -1.14783e-19)
(-1.31866 0.0884751 0)
(-1.41667 0.0788477 1.03475e-19)
(-1.50639 0.0709159 0)
(-1.58893 0.0654925 0)
(-1.66516 0.05926 0)
(-1.73532 0.0542224 -8.90829e-20)
(-1.80029 0.0497144 0)
(-1.86064 0.0457526 0)
(-1.91694 0.0423175 -8.27515e-20)
(-1.96969 0.0392995 0)
(-2.01931 0.036655 -7.95401e-20)
(-2.06615 0.0343108 0)
(-2.1105 0.0322208 0)
(-2.15261 0.0303363 0)
(-2.19268 0.0286233 7.44375e-20)
(-2.23085 0.0270494 0)
(-2.26726 0.0255919 0)
(-2.30202 0.0242302 7.12825e-20)
(-2.3352 0.0229488 7.03102e-20)
(-2.36688 0.0217355 0)
(-2.39711 0.0205788 6.84506e-20)
(-2.42594 0.0194718 0)
(-2.45339 0.0184049 1.33354e-19)
(-2.47952 0.0173741 0)
(-2.50432 0.0163713 1.29929e-19)
(-2.52783 0.0153936 0)
(-2.55006 0.0144346 -1.2659e-19)
(-2.57101 0.0134891 0)
(-2.59069 0.01255 0)
(-2.60909 0.0116122 0)
(-2.62622 0.0106613 1.20033e-19)
(-2.64204 0.00969515 0)
(-2.65655 0.00870336 -1.16767e-19)
(-2.66971 0.00767987 0)
(-2.68148 0.00661903 1.13499e-19)
(-2.69182 0.00551629 1.11862e-19)
(-2.70065 0.00437986 1.10224e-19)
(-2.70791 0.00322488 0)
(-2.71353 0.00210787 0)
(-2.71741 0.00110218 0)
(-2.71952 0.000272265 0)
(-2.72038 -0.000453913 0)
(-2.71992 -0.00114974 0)
(-2.71821 -0.00183605 0)
(-2.71522 -0.00251364 0)
(-2.71097 -0.00319044 -9.45361e-20)
(-2.70544 -0.00385911 -9.25956e-20)
(-2.69863 -0.00452568 0)
(-2.69054 -0.0051831 0)
(-2.68116 -0.00583568 0)
(-2.6705 -0.00647801 -8.43103e-20)
(-2.65855 -0.00711248 0)
(-2.64533 -0.00773584 0)
(-2.63084 -0.00834839 0)
(-2.61508 -0.00894929 0)
(-2.59808 -0.00953674 7.25987e-20)
(-2.57983 -0.0101124 0)
(-2.56036 -0.0106725 0)
(-2.53968 -0.011221 -6.47503e-20)
(-2.51779 -0.0117525 6.19873e-20)
(-2.49473 -0.0122728 0)
(-2.47051 -0.0127754 5.62305e-20)
(-2.44514 -0.0132674 0)
(-2.41865 -0.0137416 -5.01559e-20)
(-2.39105 -0.014206 0)
(-2.36236 -0.0146528 0)
(-2.3326 -0.0150897 0)
(-2.30179 -0.0155059 0)
(-2.26996 -0.0159054 0)
(-2.23713 -0.0162955 5.97549e-20)
(-2.20332 -0.0166673 5.23467e-20)
(-2.16856 -0.0170146 0)
(-2.13285 -0.0173309 0)
(-2.09624 -0.0175611 0)
(-2.05878 -0.0176596 -2.06279e-20)
(-2.02055 -0.0175495 0)
(-1.98161 -0.0173092 0)
(-1.94188 -0.0173685 0)
(-1.9013 -0.0176815 1.48477e-20)
(-1.85992 -0.0179225 -2.44202e-20)
(-1.81779 -0.0181575 0)
(-1.77495 -0.0183802 0)
(-1.73141 -0.0185927 -5.50998e-20)
(-1.68722 -0.0187974 -6.60435e-20)
(-1.64238 -0.0189937 0)
(-1.59693 -0.0191847 0)
(-1.55088 -0.0193692 1.01352e-19)
(-1.50425 -0.0195512 -1.14033e-19)
(-1.45708 -0.0197248 0)
(-1.40937 -0.0199004 0)
(-1.36118 -0.0200658 -1.55276e-19)
(-1.3125 -0.02023 0)
(-1.26337 -0.0203883 0)
(-1.21382 -0.0205411 -2.0212e-19)
(-1.16388 -0.0206924 0)
(-1.11357 -0.0208412 -2.37113e-19)
(-1.0629 -0.0209918 0)
(-1.0119 -0.0211461 0)
(-0.960564 -0.0213061 0)
(-0.908911 -0.0214742 3.18466e-19)
(-0.856936 -0.0216513 0)
(-0.804642 -0.0218383 0)
(-0.75203 -0.022035 0)
(-0.699102 -0.0222418 0)
(-0.645863 -0.0224601 0)
(-0.592318 -0.0226921 0)
(-0.538465 -0.0229409 5.15434e-19)
(-0.484303 -0.0232098 5.52017e-19)
(-0.429824 -0.023501 0)
(-0.375019 -0.023816 0)
(-0.319888 -0.0241525 0)
(-0.264441 -0.0245081 -7.3209e-19)
(-0.208711 -0.024895 0)
(-0.152777 -0.0252886 1.70065e-18)
(-0.0968066 -0.0256199 -1.83878e-18)
(-0.0412115 -0.025744 -1.99327e-18)
(0.0139041 -0.0251124 2.0654e-18)
(0.0651746 -0.0231918 -2.01652e-18)
(0.121707 -0.020657 1.95553e-18)
(0.137449 -0.00916717 0)
(-0.000191522 0.0206217 0)
(-0.0058311 0.0359562 0)
(-0.0123172 0.0371373 2.16149e-18)
(-0.0127041 0.027597 0)
(0.00145686 0.0054826 -2.25379e-18)
(0.0312444 -0.0317221 -1.43199e-18)
(0.0705163 -0.0734336 -4.50905e-19)
(0.115335 -0.107604 -3.21743e-19)
(0.161711 -0.12858 0)
(0.206193 -0.136027 -2.10403e-19)
(0.246577 -0.132605 0)
(0.281909 -0.121733 0)
(0.311866 -0.106315 3.13652e-19)
(0.336463 -0.088449 1.49423e-19)
(0.355928 -0.0694898 -2.91314e-19)
(0.370574 -0.0502205 -2.87955e-19)
(0.380787 -0.031022 -1.44015e-19)
(0.386753 -0.012038 0)
(0.389458 0.00675111 0)
(0.38882 0.0251764 0)
(0.384449 0.0428808 -1.52359e-19)
(0.375839 0.0593149 0)
(0.36242 0.0737261 4.87785e-19)
(0.343709 0.0851201 0)
(0.319492 0.0923572 0)
(0.290008 0.0943411 1.97705e-19)
(0.256158 0.0903302 0)
(0.219599 0.0803906 -2.50597e-19)
(0.182677 0.0655932 -5.87074e-19)
(0.148322 0.0477562 3.51297e-19)
(0.119658 0.0285159 0)
(0.0999913 0.00874611 0)
(0.0906434 -0.0116924 0)
(0.0933863 -0.0319427 -1.02326e-18)
(0.10639 -0.0521345 -8.59723e-19)
(0.125998 -0.0696019 -3.54763e-19)
(0.146193 -0.0771455 0)
(0.161042 -0.0714035 5.11738e-19)
(0.168008 -0.0554837 0)
(0.16676 -0.0348008 -4.96091e-19)
(0.158016 -0.015916 0)
(0.142744 -0.00314891 0)
(0.120974 0.00423925 6.35088e-19)
(0.0868468 0.0104361 0)
(0.0306737 0.0222781 2.51902e-18)
(-0.0605989 0.0516384 -6.5511e-19)
(-0.179363 0.093956 0)
(-0.309934 0.138434 -2.75509e-19)
(-0.44673 0.181482 -2.03537e-19)
(-0.589663 0.217769 0)
(-0.734525 0.245378 0)
(-0.877333 0.264839 0)
(-1.01611 0.275856 0)
(-1.14766 0.278448 0)
(-1.26994 0.273463 8.44304e-20)
(-1.37999 0.263076 1.58315e-19)
(-1.47856 0.248788 -7.44207e-20)
(-1.56603 0.231763 0)
(-1.64365 0.213679 1.37627e-19)
(-1.71248 0.195443 -6.69119e-20)
(-1.77377 0.178083 0)
(-1.8292 0.161963 -6.30005e-20)
(-1.87931 0.147237 0)
(-1.92533 0.134243 0)
(-1.96778 0.122704 -1.18499e-19)
(-2.00747 0.112609 5.8116e-20)
(-2.04481 0.103806 -1.1437e-19)
(-2.08013 0.0961195 1.12534e-19)
(-2.1137 0.0893898 5.54115e-20)
(-2.1457 0.0834629 0)
(-2.17627 0.0782047 5.38485e-20)
(-2.20553 0.0734966 0)
(-2.23354 0.0692416 0)
(-2.26038 0.0653567 0)
(-2.28608 0.0617765 5.09754e-20)
(-2.31068 0.0584463 0)
(-2.33421 0.0553235 9.94753e-20)
(-2.35669 0.0523734 -1.47392e-19)
(-2.37813 0.049568 -4.85481e-20)
(-2.39855 0.0468861 0)
(-2.41795 0.0443083 -4.73423e-20)
(-2.43635 0.041822 0)
(-2.45374 0.0394131 -9.23093e-20)
(-2.47014 0.0370743 0)
(-2.48554 0.0347962 -8.99531e-20)
(-2.49995 0.0325746 1.77429e-19)
(-2.51335 0.0304028 8.76025e-20)
(-2.52575 0.0282746 0)
(-2.53714 0.0261822 0)
(-2.54749 0.0241151 0)
(-2.55682 0.0220609 -8.28553e-20)
(-2.56511 0.0200146 0)
(-2.57237 0.0179675 8.04364e-20)
(-2.5786 0.0159165 0)
(-2.58381 0.0138543 -2.33953e-19)
(-2.58803 0.0117759 -7.67466e-20)
(-2.59127 0.00967924 -7.55007e-20)
(-2.59359 0.00756291 0)
(-2.59506 0.00545849 0)
(-2.59577 0.0034287 0)
(-2.59581 0.0015522 0)
(-2.59471 -0.000215311 0)
(-2.59245 -0.00193541 -1.35354e-19)
(-2.58896 -0.00362891 -1.32565e-19)
(-2.58425 -0.00529844 0)
(-2.5783 -0.00695193 6.33262e-20)
(-2.57109 -0.0085816 6.18429e-20)
(-2.56263 -0.0101927 0)
(-2.55291 -0.0117768 1.17827e-19)
(-2.54193 -0.0133375 0)
(-2.52969 -0.0148677 -5.59021e-20)
(-2.51619 -0.0163694 0)
(-2.50143 -0.0178374 0)
(-2.48542 -0.0192721 1.01519e-19)
(-2.46818 -0.0206707 0)
(-2.4497 -0.0220315 -4.70497e-20)
(-2.43 -0.0233547 0)
(-2.4091 -0.0246367 0)
(-2.38701 -0.0258804 -4.19381e-20)
(-2.36373 -0.0270804 -3.95475e-20)
(-2.3393 -0.028242 0)
(-2.31373 -0.0293585 3.60846e-20)
(-2.28703 -0.0304371 0)
(-2.25923 -0.03147 -3.19928e-20)
(-2.23033 -0.0324655 -5.922e-20)
(-2.20037 -0.0334152 0)
(-2.16936 -0.0343277 0)
(-2.13732 -0.0351943 0)
(-2.10428 -0.0360228 0)
(-2.07025 -0.036806 -3.63667e-20)
(-2.03526 -0.0375518 -9.63369e-20)
(-1.99934 -0.038253 0)
(-1.96249 -0.0389137 0)
(-1.92475 -0.0395356 0)
(-1.88611 -0.0401381 1.21774e-20)
(-1.84658 -0.0407322 0)
(-1.80618 -0.0413166 0)
(-1.76492 -0.0418684 5.16632e-21)
(-1.72291 -0.0423556 7.1802e-21)
(-1.68014 -0.0427806 1.40169e-20)
(-1.63663 -0.0431631 0)
(-1.5924 -0.0435077 0)
(-1.54748 -0.0438164 3.07809e-20)
(-1.5019 -0.0440925 -3.503e-20)
(-1.45567 -0.0443364 0)
(-1.40882 -0.0445511 0)
(-1.36137 -0.0447355 -5.44931e-20)
(-1.31334 -0.0448974 1.80448e-19)
(-1.26476 -0.0450301 0)
(-1.21565 -0.0451463 0)
(-1.16604 -0.0452375 7.9947e-20)
(-1.11594 -0.0453034 0)
(-1.06538 -0.0453447 1.8511e-19)
(-1.01439 -0.0453575 -9.86191e-20)
(-0.962997 -0.0453493 0)
(-0.911219 -0.0453206 1.14565e-19)
(-0.859078 -0.0452769 2.42064e-19)
(-0.80659 -0.0452236 0)
(-0.753765 -0.0451644 0)
(-0.700611 -0.0451039 -1.44803e-19)
(-0.647129 -0.0450444 0)
(-0.59332 -0.0449871 3.19913e-19)
(-0.539183 -0.0449309 0)
(-0.484722 -0.0448752 0)
(-0.429939 -0.0448203 0)
(-0.374835 -0.0447682 0)
(-0.319409 -0.0447221 -2.04089e-19)
(-0.263658 -0.044686 -2.13316e-19)
(-0.207573 -0.044662 0)
(-0.151146 -0.0446509 0)
(-0.0943718 -0.0446467 0)
(-0.0372636 -0.0446331 2.52423e-19)
(0.0201523 -0.0445758 0)
(0.0778164 -0.0444279 -5.20401e-19)
(0.135613 -0.0441269 5.21787e-19)
(0.193262 -0.0435307 5.23207e-19)
(0.250694 -0.0422611 5.21569e-19)
(0.305622 -0.0399003 5.27541e-19)
(0.363102 -0.035647 5.29677e-19)
(0.398886 -0.0229581 0)
(0.000371706 0.0233019 0)
(0.000850569 0.0402048 0)
(0.00676485 0.0327873 -2.30886e-18)
(0.0270992 -0.00100678 -1.61733e-18)
(0.0669375 -0.0610952 9.61658e-19)
(0.118598 -0.127367 6.24647e-19)
(0.171663 -0.179934 -3.60389e-22)
(0.219126 -0.210076 0)
(0.258346 -0.218635 0)
(0.289351 -0.210846 0)
(0.313378 -0.192551 0)
(0.331894 -0.168493 0)
(0.346122 -0.141887 -7.13628e-19)
(0.356922 -0.114637 0)
(0.364864 -0.08776 2.27713e-19)
(0.370322 -0.0617375 2.27156e-19)
(0.373563 -0.0367555 0)
(0.374786 -0.0128862 0)
(0.374241 0.00990234 0)
(0.372258 0.0317819 0)
(0.369101 0.052893 2.42085e-19)
(0.364949 0.0731685 0)
(0.359716 0.0922312 -2.5954e-19)
(0.353006 0.109322 0)
(0.344125 0.123306 0)
(0.332209 0.13275 0)
(0.316466 0.136155 -6.50316e-19)
(0.296578 0.132318 0)
(0.273106 0.120745 3.86495e-19)
(0.247686 0.101827 -8.62788e-19)
(0.222895 0.0767288 0)
(0.2017 0.0468841 0)
(0.186653 0.0139889 0)
(0.177925 -0.0210915 6.31554e-19)
(0.174206 -0.0548242 5.54238e-19)
(0.168822 -0.0766296 0)
(0.155286 -0.0773264 0)
(0.133515 -0.0599392 -7.53111e-19)
(0.104478 -0.0324808 -7.73741e-19)
(0.0683716 0.000271336 8.58071e-19)
(0.0231371 0.0338439 0)
(-0.0408795 0.0650716 0)
(-0.130527 0.102541 0)
(-0.240152 0.150953 0)
(-0.366351 0.205159 -4.07191e-19)
(-0.503686 0.260563 -3.21882e-19)
(-0.644696 0.313444 2.63414e-19)
(-0.783526 0.358667 0)
(-0.915836 0.394551 0)
(-1.03796 0.420207 0)
(-1.14801 0.434577 0)
(-1.24531 0.438204 -1.45277e-19)
(-1.32932 0.431974 0)
(-1.40099 0.417098 0)
(-1.46225 0.395536 -1.20986e-19)
(-1.51518 0.369707 -1.14208e-19)
(-1.56193 0.341818 0)
(-1.60403 0.313378 2.13207e-19)
(-1.64305 0.285678 -1.02431e-19)
(-1.68001 0.259652 9.95707e-20)
(-1.71552 0.235947 0)
(-1.75001 0.214683 0)
(-1.78368 0.195956 0)
(-1.81655 0.179642 0)
(-1.84861 0.165382 8.86015e-20)
(-1.87991 0.152961 1.73942e-19)
(-1.91041 0.142102 8.53088e-20)
(-1.9401 0.132559 -8.38172e-20)
(-1.96897 0.124115 0)
(-1.99699 0.116579 1.62041e-19)
(-2.02415 0.109789 1.59445e-19)
(-2.05044 0.103612 1.5696e-19)
(-2.07585 0.0979371 -1.54569e-19)
(-2.10038 0.092673 0)
(-2.12403 0.0877478 -2.25105e-19)
(-2.14678 0.0831029 0)
(-2.16864 0.0786923 7.27763e-20)
(-2.1896 0.074479 7.18873e-20)
(-2.20966 0.0704334 0)
(-2.22882 0.0665322 0)
(-2.24708 0.0627556 1.37559e-19)
(-2.26443 0.0590884 0)
(-2.28086 0.0555168 1.33628e-19)
(-2.29639 0.0520307 0)
(-2.31101 0.0486206 -1.29752e-19)
(-2.3247 0.0452796 -2.55753e-19)
(-2.33748 0.0420009 0)
(-2.34932 0.0387778 0)
(-2.36023 0.0356025 0)
(-2.37019 0.0324641 -1.20162e-19)
(-2.3792 0.0293531 0)
(-2.38726 0.0262639 -1.16319e-19)
(-2.39438 0.0231939 0)
(-2.40054 0.0201436 0)
(-2.40575 0.0171144 2.21061e-19)
(-2.41002 0.0141158 0)
(-2.41333 0.0111572 1.06641e-19)
(-2.4157 0.00825479 0)
(-2.41708 0.00541591 1.02712e-19)
(-2.41745 0.00263374 0)
(-2.41673 -0.000134258 0)
(-2.41489 -0.00290109 0)
(-2.41189 -0.00564954 2.82986e-19)
(-2.40771 -0.00837187 9.2099e-20)
(-2.40235 -0.0110675 0)
(-2.39578 -0.0137327 0)
(-2.388 -0.0163651 0)
(-2.379 -0.0189612 0)
(-2.36878 -0.0215173 -8.08555e-20)
(-2.35733 -0.0240302 1.57443e-19)
(-2.34465 -0.0264956 7.61241e-20)
(-2.33075 -0.0289109 -1.47897e-19)
(-2.31563 -0.0312719 -1.43012e-19)
(-2.29929 -0.0335766 -6.87499e-20)
(-2.28174 -0.0358211 0)
(-2.263 -0.0380039 -1.27892e-19)
(-2.24306 -0.0401221 0)
(-2.22196 -0.0421747 1.17424e-19)
(-2.19969 -0.0441601 5.56951e-20)
(-2.17627 -0.0460776 0)
(-2.15173 -0.0479268 -1.01151e-19)
(-2.12607 -0.0497072 -4.74124e-20)
(-2.09931 -0.0514191 0)
(-2.07147 -0.053062 -4.25101e-20)
(-2.04258 -0.0546371 1.17257e-19)
(-2.01263 -0.0561435 0)
(-1.98167 -0.0575825 0)
(-1.94969 -0.0589523 0)
(-1.91673 -0.0602543 0)
(-1.88281 -0.0614872 4.8591e-20)
(-1.84794 -0.0626518 4.15187e-20)
(-1.81215 -0.063745 0)
(-1.77545 -0.0647657 0)
(-1.73785 -0.0657108 0)
(-1.69939 -0.0665879 0)
(-1.66006 -0.0674039 0)
(-1.61989 -0.0681733 0)
(-1.57892 -0.0689088 -3.23041e-21)
(-1.5372 -0.069593 -1.03607e-21)
(-1.49473 -0.0702064 0)
(-1.45154 -0.0707562 0)
(-1.40763 -0.0712451 -2.88719e-20)
(-1.36305 -0.0716757 0)
(-1.3178 -0.0720513 4.36045e-20)
(-1.27192 -0.0723737 4.94124e-20)
(-1.22542 -0.0726453 0)
(-1.17833 -0.0728678 0)
(-1.13067 -0.0730477 -7.15574e-20)
(-1.08246 -0.0731837 -1.55097e-19)
(-1.03373 -0.0732826 0)
(-0.984499 -0.0733429 0)
(-0.934783 -0.073358 0)
(-0.884607 -0.0733312 -1.07717e-19)
(-0.833999 -0.0732569 1.15113e-19)
(-0.782985 -0.0731434 0)
(-0.731586 -0.0729942 2.57774e-19)
(-0.679823 -0.0728162 1.35251e-19)
(-0.627711 -0.0726174 -2.88087e-19)
(-0.575261 -0.0724038 0)
(-0.52248 -0.0721818 0)
(-0.469372 -0.0719552 -3.34292e-19)
(-0.415937 -0.0717257 -1.76147e-19)
(-0.362176 -0.0714919 0)
(-0.308089 -0.0712521 0)
(-0.253677 -0.0710063 0)
(-0.198942 -0.0707569 0)
(-0.143881 -0.0705076 -4.29049e-19)
(-0.0884884 -0.0702628 0)
(-0.0327566 -0.0700254 0)
(0.0233241 -0.0697944 0)
(0.0797607 -0.06956 0)
(0.136551 -0.0692999 0)
(0.193673 -0.0689684 0)
(0.251069 -0.0685024 -5.01333e-19)
(0.30865 -0.0678148 0)
(0.366196 -0.0667339 0)
(0.423699 -0.0649547 -1.04185e-18)
(0.479593 -0.0619625 5.26593e-19)
(0.53775 -0.0567525 -5.37707e-19)
(0.583408 -0.0439815 5.49144e-19)
(-0.001163 0.0233686 0)
(0.00202882 0.0267492 5.02203e-18)
(0.0240359 -0.0157021 0)
(0.072308 -0.0994168 8.57676e-19)
(0.133591 -0.187619 0)
(0.191483 -0.251682 0)
(0.236704 -0.282819 -3.22206e-19)
(0.268001 -0.286 0)
(0.28821 -0.270721 0)
(0.300992 -0.245365 0)
(0.309261 -0.215447 0)
(0.314852 -0.184022 0)
(0.318753 -0.15262 8.05591e-19)
(0.321415 -0.121944 3.96264e-19)
(0.322999 -0.0923022 -3.93796e-19)
(0.323545 -0.0638345 0)
(0.323067 -0.0366026 0)
(0.321578 -0.0106467 0)
(0.319132 0.0140257 0)
(0.315825 0.037447 0)
(0.311804 0.0596587 4.26521e-19)
(0.307293 0.0806722 4.38033e-19)
(0.302504 0.100397 -4.54195e-19)
(0.297551 0.118518 4.76281e-19)
(0.292334 0.134391 0)
(0.286504 0.146972 0)
(0.279454 0.154806 5.77483e-19)
(0.270427 0.15618 0)
(0.258831 0.149519 0)
(0.244502 0.133736 7.45119e-19)
(0.228122 0.108648 8.32069e-19)
(0.210813 0.0753194 9.42232e-19)
(0.19395 0.0359864 0)
(0.176599 -0.00479655 0)
(0.151826 -0.034765 -9.47782e-19)
(0.115131 -0.0406785 0)
(0.0680676 -0.0235306 0)
(0.0114943 0.0100346 7.54532e-19)
(-0.0574366 0.0544265 -6.81859e-19)
(-0.142152 0.107848 5.49984e-19)
(-0.241601 0.168127 0)
(-0.355101 0.230913 0)
(-0.479288 0.294457 5.93656e-19)
(-0.608352 0.357451 0)
(-0.736837 0.41644 4.24175e-19)
(-0.859706 0.466194 5.57724e-19)
(-0.972034 0.504321 -4.96942e-19)
(-1.07128 0.530792 3.00014e-19)
(-1.15669 0.545348 0)
(-1.22797 0.548648 0)
(-1.28643 0.541827 2.37842e-19)
(-1.33389 0.526349 1.10903e-19)
(-1.3725 0.503968 0)
(-1.4048 0.476509 0)
(-1.43313 0.445963 9.52186e-20)
(-1.45942 0.414258 1.84034e-19)
(-1.48494 0.382805 0)
(-1.5105 0.352517 -1.6958e-19)
(-1.5366 0.324059 1.65193e-19)
(-1.56344 0.297846 -1.60265e-19)
(-1.59097 0.274062 0)
(-1.61903 0.252728 0)
(-1.64745 0.233744 0)
(-1.67597 0.216925 0)
(-1.70441 0.202021 0)
(-1.73261 0.188793 -1.38282e-19)
(-1.76043 0.177006 0)
(-1.78777 0.166443 0)
(-1.81454 0.15691 0)