/*--------------------------------*- C++ -*----------------------------------*\
  =========                 |
  \\      /  F ield         | OpenFOAM: The Open Source CFD Toolbox
   \\    /   O peration     | Website:  https://openfoam.org
    \\  /    A nd           | Version:  8
     \\/     M anipulation  |
\*---------------------------------------------------------------------------*/
FoamFile
{
    version     2.0;
    format      ascii;
    class       volScalarField;
    location    "1700";
    object      k;
}
// * * * * * * * * * * * * * * * * * * * * * * * * * * * * * * * * * * * * * //

dimensions      [0 2 -2 0 0 0 0];

internalField   nonuniform List<scalar> 
12225
(
0.636285
1.62256
2.73956
2.09791
2.49064
2.08449
1.83073
1.90186
1.63352
1.56514
1.8046
1.57232
1.51314
1.71875
1.47538
1.42338
1.3848
1.38921
0.389033
0.406883
0.512925
0.577821
0.63106
0.667556
0.665643
0.734548
0.755452
0.768211
0.825383
0.867999
0.887537
0.885846
0.873284
0.876261
0.891162
0.898233
0.374993
0.374605
0.37933
0.384794
0.387182
0.388452
0.383949
0.38487
0.382105
0.379453
0.383276
0.380531
0.387546
0.38273
0.383503
0.384064
0.385327
0.387296
0.374336
0.371731
0.370702
0.370497
0.36923
0.366633
0.362232
0.357558
0.353784
0.349583
0.34653
0.343018
0.340227
0.336457
0.333091
0.329247
0.326212
0.322763
0.37408
0.371724
0.370029
0.368525
0.366848
0.364403
0.361561
0.358311
0.355637
0.352885
0.35065
0.34814
0.345924
0.343168
0.34071
0.337722
0.335255
0.332334
0.374043
0.371829
0.36995
0.368197
0.366496
0.364432
0.362289
0.359964
0.357934
0.35593
0.354206
0.352369
0.350684
0.348737
0.346942
0.344867
0.343041
0.340964
0.373997
0.371898
0.369986
0.368164
0.366455
0.364637
0.362836
0.360981
0.359282
0.357635
0.356153
0.354651
0.353242
0.351728
0.350294
0.34874
0.347304
0.345753
0.37397
0.371905
0.369988
0.368156
0.36644
0.364723
0.363061
0.361404
0.359851
0.358354
0.356974
0.355609
0.354319
0.352995
0.35173
0.350414
0.349176
0.347881
0.373954
0.371901
0.369977
0.368143
0.36642
0.364748
0.363147
0.361584
0.360106
0.358686
0.357356
0.356065
0.354838
0.353617
0.352449
0.351269
0.35015
0.349009
0.373945
0.371891
0.369958
0.36812
0.366387
0.364731
0.363154
0.361638
0.360198
0.35882
0.357518
0.356266
0.355075
0.353915
0.352805
0.351713
0.350671
0.349636
0.373939
0.371883
0.369941
0.368096
0.366353
0.364696
0.363122
0.36162
0.360192
0.35883
0.357536
0.3563
0.355123
0.353991
0.35291
0.351863
0.350863
0.349891
0.373937
0.371876
0.369926
0.368076
0.366324
0.36466
0.36308
0.361576
0.360147
0.358785
0.35749
0.356255
0.355079
0.353954
0.35288
0.351851
0.350866
0.349922
0.373935
0.371871
0.369916
0.368061
0.366302
0.364631
0.363044
0.361535
0.360099
0.358733
0.357431
0.356193
0.35501
0.353884
0.352807
0.35178
0.350797
0.349859
0.373934
0.371868
0.369908
0.368049
0.366284
0.364608
0.363016
0.361502
0.360061
0.358689
0.357383
0.356137
0.354951
0.353818
0.352738
0.351706
0.350722
0.34978
0.373933
0.371865
0.369902
0.36804
0.366272
0.364592
0.362996
0.361477
0.360032
0.358656
0.357345
0.356096
0.354905
0.353769
0.352683
0.351649
0.35066
0.349717
0.373933
0.371863
0.369898
0.368034
0.366263
0.364581
0.362982
0.36146
0.360012
0.358633
0.357319
0.356066
0.354872
0.353732
0.352644
0.351607
0.350615
0.349669
0.373932
0.371862
0.369897
0.368031
0.366258
0.364574
0.362973
0.361449
0.359999
0.358618
0.357302
0.356047
0.35485
0.353709
0.352619
0.35158
0.350586
0.349638
0.373932
0.371862
0.369896
0.36803
0.366257
0.364573
0.36297
0.361446
0.359994
0.358613
0.357294
0.35604
0.354841
0.3537
0.352608
0.351568
0.350573
0.349625
0.373932
0.371862
0.369898
0.368031
0.36626
0.364574
0.362973
0.361448
0.359998
0.358615
0.357299
0.356042
0.354846
0.353702
0.352613
0.351571
0.350578
0.349628
0.373933
0.371864
0.3699
0.368035
0.366264
0.364581
0.36298
0.361458
0.360007
0.358627
0.35731
0.356056
0.354859
0.353718
0.352628
0.351589
0.350595
0.349647
0.373933
0.371866
0.369903
0.368041
0.366272
0.364591
0.362993
0.361472
0.360024
0.358646
0.357332
0.35608
0.354885
0.353746
0.352659
0.351621
0.35063
0.349683
0.373934
0.371869
0.369909
0.36805
0.366284
0.364606
0.363011
0.361495
0.360052
0.358678
0.357369
0.356121
0.354931
0.353795
0.352711
0.351675
0.350687
0.34974
0.373936
0.371873
0.369919
0.368064
0.366303
0.364631
0.363044
0.361537
0.360103
0.358738
0.357436
0.356195
0.355007
0.353875
0.352788
0.35175
0.350752
0.349798
0.373935
0.371883
0.369938
0.368091
0.36634
0.364684
0.363116
0.36163
0.360213
0.358861
0.35756
0.356315
0.355113
0.353959
0.352842
0.351766
0.350722
0.349714
0.373932
0.371922
0.37
0.368172
0.366454
0.364846
0.363319
0.361871
0.360462
0.359101
0.357757
0.356455
0.355166
0.353918
0.352684
0.351484
0.350296
0.349145
0.373966
0.37212
0.370278
0.368531
0.366925
0.365429
0.363966
0.362539
0.361073
0.359606
0.358084
0.356582
0.355046
0.35354
0.352012
0.350514
0.349003
0.347535
0.374412
0.373169
0.371701
0.370322
0.369044
0.367751
0.366333
0.364845
0.363159
0.361354
0.35937
0.357365
0.355269
0.35319
0.351092
0.349007
0.346949
0.344926
0.377624
0.379076
0.379634
0.38069
0.380693
0.379942
0.378694
0.377196
0.375321
0.373075
0.370656
0.368204
0.365957
0.363722
0.361944
0.360119
0.358852
0.35748
0.404866
0.424321
0.442774
0.459909
0.476837
0.490329
0.502047
0.512046
0.521239
0.530194
0.539114
0.548591
0.558973
0.569432
0.581176
0.592921
0.605318
0.616934
0.918725
1.20118
1.39153
1.50062
1.55857
1.57122
1.56393
1.54565
1.51569
1.48301
1.45019
1.41863
1.38915
1.36208
1.33748
1.31533
1.29532
1.27764
1.89872e-08
4.67539e-07
2.37848e-06
9.33553e-06
3.10792e-05
9.36639e-05
0.000244588
0.0004856
0.000786294
0.0011031
0.00138787
0.00160901
0.00175772
0.00181528
0.00179404
0.00172417
0.00158905
0.00136448
0.00116409
0.000991657
0.000828177
0.000669146
0.000514942
0.000371625
0.000243238
0.000143026
7.60689e-05
3.82296e-05
1.93793e-05
1.04966e-05
6.32868e-06
4.76779e-06
5.09592e-06
1.04182e-05
2.20293e-05
0.000139453
0.000312897
0.000712943
0.00109591
0.00121766
0.00112238
0.000903324
0.000752397
0.000733937
0.00080287
0.00107249
0.00142878
0.00280883
0.00634741
0.0194425
0.0526605
0.0954706
0.12433
0.138148
0.147177
0.155439
0.160547
0.153145
0.175552
0.155417
0.146909
0.153101
0.160079
0.17481
0.181573
0.191257
0.199309
0.207875
0.215828
0.223938
0.231702
0.239497
0.24709
0.254649
0.262083
0.269456
0.276739
0.283948
0.291084
0.298137
0.305124
0.31202
0.318849
0.325582
0.332243
0.338802
0.34528
0.351652
0.357926
0.364083
0.370122
0.376033
0.381808
0.38743
0.39289
0.398174
0.403276
0.408195
0.41294
0.417553
0.422101
0.426468
0.430691
0.434767
0.438683
0.442449
0.446048
0.449489
0.452758
0.45586
0.458788
0.461543
0.464121
0.46652
0.468743
0.470783
0.472647
0.474326
0.475831
0.477149
0.478297
0.479257
0.480048
0.480654
0.481094
0.481351
0.481446
0.481412
0.481268
0.480781
0.480404
0.479519
0.478766
0.477791
0.476795
0.475661
0.474327
0.472727
0.471032
0.46917
0.467188
0.465074
0.462837
0.46049
0.458027
0.455468
0.452812
0.450102
0.447261
0.444415
0.441402
0.438391
0.435255
0.432096
0.42887
0.425603
0.422305
0.41898
0.415643
0.412295
0.408944
0.405594
0.402248
0.398911
0.395587
0.392282
0.389005
0.385763
0.382564
0.379411
0.376307
0.373243
0.370214
0.367184
0.364114
0.36091
0.357462
0.353433
0.348202
0.331968
8.48538e-08
2.40864e-06
1.61806e-05
6.93194e-05
0.000261021
0.000740597
0.00173698
0.00315517
0.00480217
0.00649552
0.00804328
0.00931568
0.0102536
0.0108523
0.0111344
0.0110976
0.010918
0.0105715
0.00997873
0.00916386
0.00812883
0.00692876
0.00560841
0.0042786
0.00297446
0.00197365
0.00125347
0.00077544
0.000470724
0.000287301
0.000183211
0.000135257
0.000102132
0.000163097
0.000189403
0.00147278
0.00320025
0.00680977
0.0100343
0.0118895
0.0118856
0.0115011
0.0114786
0.0127519
0.0165202
0.0220802
0.0318819
0.0488492
0.0752146
0.100349
0.126348
0.147228
0.163227
0.176506
0.19049
0.207078
0.223241
0.239958
0.258197
0.274874
0.294175
0.313594
0.333581
0.353699
0.372877
0.392115
0.410897
0.429517
0.447842
0.466021
0.483999
0.501854
0.519575
0.537198
0.554727
0.572175
0.589548
0.606847
0.624078
0.641233
0.658319
0.675321
0.692246
0.709074
0.725813
0.742443
0.758967
0.775369
0.791642
0.807772
0.823743
0.839547
0.855163
0.870565
0.885727
0.900615
0.9152
0.929444
0.94331
0.956755
0.96976
0.98255
0.995036
1.00726
1.01918
1.0308
1.0421
1.05307
1.06371
1.07399
1.08391
1.09347
1.10264
1.11143
1.11983
1.12782
1.13541
1.14258
1.14934
1.15567
1.16158
1.16707
1.17212
1.17675
1.18094
1.1847
1.18803
1.19093
1.1934
1.19544
1.19709
1.19818
1.19905
1.19936
1.19954
1.19952
1.19913
1.19861
1.19766
1.19633
1.19462
1.19254
1.1901
1.18731
1.18418
1.18072
1.17695
1.1729
1.16856
1.16392
1.159
1.15379
1.14833
1.14262
1.13666
1.13048
1.1241
1.11755
1.11084
1.10398
1.097
1.0899
1.08269
1.07539
1.06799
1.06052
1.05299
1.04542
1.03782
1.03021
1.0226
1.01497
1.00732
0.999591
0.991719
0.98359
0.974988
0.965586
0.95346
0.926042
2.05029e-07
6.08257e-06
4.6365e-05
0.000212409
0.00082853
0.00201461
0.0041132
0.00653965
0.00897003
0.0111729
0.0130119
0.0144282
0.0154218
0.0160165
0.0162762
0.0162403
0.0160555
0.0156914
0.0151496
0.0144739
0.0136595
0.0126991
0.0115734
0.0102848
0.00884963
0.00721516
0.00552154
0.00400473
0.00269135
0.00178634
0.00122605
0.000913475
0.000696195
0.000942176
0.00147445
0.00623892
0.013567
0.0221735
0.028598
0.0323928
0.0339388
0.0364539
0.0436874
0.0593425
0.077171
0.0955995
0.116302
0.137828
0.157884
0.179489
0.200984
0.222989
0.246003
0.270775
0.297512
0.325442
0.354372
0.383005
0.411835
0.440384
0.468847
0.496739
0.524224
0.550873
0.576962
0.602502
0.627565
0.652238
0.676567
0.70062
0.724432
0.748048
0.771494
0.794796
0.817968
0.841022
0.863966
0.886802
0.909531
0.932149
0.954654
0.977039
0.999297
1.02142
1.0434
1.06523
1.08689
1.10838
1.12969
1.15079
1.17168
1.19235
1.21279
1.23297
1.25287
1.27249
1.29181
1.31082
1.3295
1.34787
1.36592
1.38362
1.40096
1.41792
1.43448
1.45062
1.46633
1.48158
1.49637
1.51067
1.52448
1.53778
1.55056
1.5628
1.57451
1.58566
1.59624
1.60627
1.61571
1.62458
1.63287
1.64058
1.64769
1.65422
1.66016
1.66552
1.67028
1.67447
1.67808
1.68111
1.68356
1.68544
1.68681
1.68752
1.68784
1.68776
1.6871
1.68596
1.6843
1.68212
1.67942
1.67621
1.6725
1.66831
1.66364
1.65852
1.65295
1.64696
1.64057
1.63375
1.62656
1.61896
1.611
1.60267
1.594
1.58502
1.57575
1.56622
1.55645
1.54648
1.53631
1.52597
1.51548
1.50484
1.49407
1.48319
1.47222
1.46118
1.4501
1.439
1.42789
1.41679
1.40567
1.39451
1.38328
1.37188
1.36013
1.34781
1.333
1.30745
8.0886e-07
2.4355e-05
0.000191921
0.000775192
0.00230766
0.00539254
0.00907663
0.0126578
0.015767
0.0182251
0.0199978
0.0211234
0.0217159
0.0218258
0.0216937
0.0213352
0.0207665
0.0200823
0.0193147
0.0184787
0.0175763
0.0166027
0.0155411
0.0143687
0.0130686
0.0116168
0.0100313
0.00837259
0.0068143
0.00526713
0.00416038
0.0030253
0.00308913
0.00455533
0.0110195
0.0252931
0.0399149
0.0515754
0.0604295
0.0686919
0.0789788
0.0924771
0.108388
0.124105
0.140307
0.157627
0.177901
0.199605
0.223166
0.249274
0.277024
0.306752
0.338042
0.37073
0.404329
0.438341
0.472418
0.506264
0.539788
0.572872
0.605431
0.637372
0.668745
0.699453
0.729651
0.759364
0.788672
0.817637
0.846312
0.874747
0.90298
0.931045
0.958966
0.986761
1.01444
1.04201
1.06948
1.09684
1.12409
1.15122
1.17823
1.2051
1.23183
1.2584
1.2848
1.31103
1.33706
1.36288
1.38849
1.41387
1.439
1.46388
1.48849
1.51282
1.53686
1.56059
1.58399
1.60705
1.62976
1.65209
1.67403
1.69555
1.71663
1.73725
1.75737
1.77698
1.79607
1.81459
1.83255
1.84992
1.86667
1.8828
1.8983
1.91313
1.9273
1.9408
1.9536
1.96571
1.97711
1.98781
1.99779
2.00706
2.01561
2.02344
2.03055
2.03694
2.04262
2.04759
2.05184
2.0554
2.05825
2.06042
2.06188
2.06259
2.06279
2.06238
2.06127
2.05953
2.05716
2.05416
2.05053
2.04628
2.04142
2.03598
2.02995
2.02337
2.01624
2.00859
2.00043
1.99177
1.98264
1.97302
1.96296
1.95245
1.94153
1.93022
1.91855
1.90656
1.89428
1.88173
1.86894
1.85594
1.84275
1.82937
1.81584
1.80217
1.78838
1.77451
1.76059
1.74664
1.7327
1.71877
1.70486
1.69097
1.67708
1.66316
1.64909
1.63471
1.61839
1.59469
2.75213e-06
8.25625e-05
0.000615434
0.00236621
0.00645197
0.0119688
0.0170921
0.0211822
0.0240796
0.0258842
0.0268154
0.0270668
0.0269119
0.0264636
0.0257522
0.0249173
0.0240131
0.0230761
0.0221287
0.0211781
0.0202205
0.0192451
0.0182337
0.0171621
0.0160041
0.0147304
0.013338
0.0118723
0.0104382
0.00897855
0.00749709
0.00775297
0.0112796
0.0230376
0.0434416
0.0632796
0.0799183
0.0929933
0.104077
0.114964
0.126606
0.139242
0.152884
0.168359
0.186998
0.208556
0.232981
0.260123
0.289557
0.321051
0.354029
0.388311
0.423501
0.459359
0.495599
0.531978
0.568324
0.604526
0.640475
0.676098
0.711329
0.746134
0.780513
0.814466
0.848046
0.881289
0.914242
0.94695
0.979455
1.01179
1.04399
1.07607
1.10806
1.13996
1.17178
1.20352
1.23517
1.26673
1.29819
1.32954
1.36076
1.39184
1.42277
1.45352
1.48409
1.51446
1.54462
1.57455
1.60423
1.63365
1.6628
1.69166
1.72023
1.74848
1.77639
1.80396
1.83115
1.85795
1.88433
1.91028
1.93576
1.96075
1.98522
2.00915
2.03251
2.05527
2.07742
2.09891
2.11974
2.13988
2.15931
2.178
2.19595
2.21313
2.22952
2.24513
2.25992
2.2739
2.28706
2.29938
2.31087
2.32151
2.33132
2.34028
2.3484
2.35568
2.36212
2.36772
2.3725
2.37645
2.37958
2.38191
2.38337
2.38398
2.38399
2.38321
2.38164
2.37931
2.37625
2.37246
2.36794
2.3627
2.35676
2.35014
2.34284
2.33489
2.32631
2.31711
2.30733
2.29696
2.28604
2.27457
2.26257
2.25007
2.23708
2.22364
2.20978
2.19555
2.18097
2.16607
2.1509
2.13547
2.11982
2.10396
2.08791
2.0717
2.05536
2.03891
2.02241
2.00588
1.98935
1.97287
1.95644
1.94008
1.9238
1.90762
1.89147
1.87524
1.85757
1.83451
8.81471e-06
0.000257829
0.00183707
0.00648263
0.0145059
0.0215262
0.0265019
0.0295531
0.0311379
0.0317188
0.0316351
0.0311798
0.0303356
0.0293107
0.0281915
0.027042
0.0259065
0.0248105
0.0237661
0.0227714
0.0218158
0.0208821
0.0199447
0.0189722
0.0179319
0.0167621
0.015408
0.0138253
0.0122223
0.0120507
0.0140738
0.0222015
0.0398713
0.0639697
0.0872976
0.106303
0.120315
0.130604
0.139463
0.148734
0.15939
0.172852
0.189699
0.20981
0.233443
0.260199
0.289545
0.320945
0.353888
0.388078
0.423201
0.459084
0.49555
0.532477
0.569744
0.607236
0.64486
0.682543
0.720198
0.75775
0.795146
0.832352
0.869352
0.906143
0.94274
0.979162
1.01544
1.05159
1.08765
1.12364
1.15958
1.19549
1.23136
1.26721
1.30303
1.33882
1.37455
1.41022
1.44581
1.4813
1.51666
1.55189
1.58696
1.62185
1.65655
1.69103
1.72527
1.75926
1.79297
1.8264
1.85951
1.89231
1.92477
1.95688
1.98861
2.01994
2.05084
2.08129
2.11126
2.14073
2.16966
2.19803
2.22582
2.25298
2.2795
2.30534
2.33047
2.35487
2.3785
2.40135
2.42338
2.44458
2.46492
2.48438
2.50294
2.5206
2.53733
2.55312
2.56797
2.58186
2.5948
2.60677
2.61778
2.62782
2.63689
2.645
2.65214
2.65833
2.66357
2.66786
2.67122
2.67365
2.67506
2.67557
2.67532
2.67415
2.6721
2.66919
2.66544
2.66085
2.65544
2.64922
2.6422
2.63442
2.62587
2.61658
2.60658
2.59588
2.58451
2.57248
2.55983
2.54656
2.5327
2.51826
2.50327
2.48778
2.47182
2.45543
2.43864
2.42149
2.40403
2.38628
2.36826
2.35001
2.33155
2.3129
2.2941
2.27519
2.25621
2.2372
2.21821
2.19927
2.18042
2.16169
2.14311
2.12473
2.10653
2.08845
2.06931
2.04594
2.83947e-05
0.000776096
0.0049881
0.0151573
0.0247326
0.0308189
0.0341503
0.0357085
0.0361366
0.035881
0.0351171
0.0339632
0.0326125
0.0311721
0.0297248
0.028329
0.027021
0.0258177
0.0247197
0.0237148
0.0227833
0.0218952
0.0210153
0.0200949
0.0191805
0.0183461
0.0177749
0.0179194
0.0199199
0.0257993
0.0386217
0.0601329
0.0845753
0.107536
0.126107
0.139145
0.148085
0.155445
0.163372
0.174079
0.188397
0.206379
0.228079
0.253161
0.281199
0.311479
0.343403
0.37655
0.410655
0.445562
0.481152
0.517357
0.554125
0.591413
0.629173
0.66735
0.705877
0.744684
0.783703
0.82287
0.862131
0.901444
0.940781
0.980126
1.01947
1.05883
1.0982
1.1376
1.17705
1.21655
1.25612
1.29575
1.33545
1.37521
1.41501
1.45483
1.49465
1.53444
1.57419
1.61385
1.65341
1.69283
1.7321
1.77118
1.81005
1.84868
1.88707
1.92517
1.96297
2.00044
2.03757
2.07435
2.11074
2.14674
2.18231
2.21742
2.25205
2.28617
2.31975
2.35276
2.38517
2.41694
2.44806
2.47848
2.50818
2.53711
2.56525
2.59256
2.61902
2.64458
2.66923
2.69293
2.71567
2.73742
2.75815
2.77786
2.79652
2.81412
2.83064
2.84609
2.86046
2.87373
2.88592
2.89701
2.90701
2.91592
2.92374
2.93048
2.93614
2.94073
2.94427
2.94676
2.9481
2.94848
2.94792
2.94635
2.94379
2.94026
2.93579
2.93038
2.92406
2.91684
2.90873
2.89976
2.88995
2.87932
2.86789
2.85569
2.84273
2.82904
2.81466
2.79959
2.78387
2.76751
2.75055
2.73303
2.71498
2.69645
2.67749
2.65813
2.6384
2.61836
2.59802
2.57742
2.55657
2.53552
2.5143
2.49296
2.47154
2.4501
2.42867
2.40732
2.38607
2.36499
2.34412
2.32353
2.30323
2.28319
2.26236
2.23803
8.57033e-05
0.00214299
0.0118262
0.0254494
0.033749
0.0381015
0.0401248
0.0406975
0.0403698
0.0393842
0.0379227
0.0362126
0.0343947
0.0325798
0.0308496
0.0292574
0.0278301
0.0265717
0.0254709
0.0245054
0.0236467
0.0228578
0.0220582
0.0213081
0.020768
0.0209431
0.0227983
0.0280336
0.0392126
0.0571213
0.0790686
0.101278
0.121802
0.138416
0.150197
0.158296
0.165238
0.173693
0.18518
0.200397
0.219464
0.242091
0.267878
0.296209
0.326453
0.358031
0.390591
0.423947
0.458015
0.492756
0.528157
0.564218
0.600944
0.638335
0.676371
0.715014
0.754217
0.79393
0.834092
0.874647
0.915541
0.956731
0.998181
1.03986
1.08176
1.12387
1.16619
1.20871
1.25144
1.29437
1.33752
1.38085
1.42437
1.46805
1.51187
1.55578
1.59976
1.64377
1.68776
1.73169
1.77554
1.81925
1.86281
1.90618
1.94933
1.99223
2.03485
2.07716
2.11913
2.16074
2.20197
2.2428
2.2832
2.32316
2.36263
2.40159
2.44001
2.47786
2.5151
2.55171
2.58765
2.62288
2.65738
2.6911
2.72401
2.75607
2.78725
2.8175
2.8468
2.87511
2.90239
2.92862
2.95376
2.97779
3.0007
3.02245
3.04303
3.06242
3.08061
3.0976
3.11337
3.12792
3.14125
3.15336
3.16425
3.17392
3.18237
3.18961
3.19565
3.2005
3.20417
3.20666
3.20789
3.20808
3.20717
3.20515
3.20203
3.19784
3.19261
3.18635
3.17908
3.17081
3.16158
3.1514
3.14029
3.12828
3.1154
3.10166
3.0871
3.07174
3.05561
3.03874
3.02114
3.00286
2.98391
2.96435
2.94423
2.92358
2.90244
2.88087
2.8589
2.83658
2.81393
2.79098
2.76777
2.74434
2.72072
2.69696
2.67312
2.64925
2.6254
2.60163
2.578
2.55455
2.53137
2.50852
2.48605
2.46393
2.44121
2.41543
0.000223438
0.00506927
0.021507
0.0346148
0.0413022
0.0444358
0.0455337
0.0453442
0.0443051
0.04262
0.0405737
0.0383523
0.0361107
0.0339701
0.0320169
0.0303034
0.028854
0.0276728
0.0267518
0.0260677
0.0256493
0.0255833
0.025956
0.0271965
0.029684
0.0343507
0.0429479
0.0566175
0.0737979
0.0929428
0.112209
0.129611
0.143922
0.154809
0.163241
0.171185
0.180743
0.193285
0.209435
0.22918
0.252189
0.277946
0.305894
0.335454
0.366153
0.397679
0.429894
0.462761
0.496292
0.530518
0.565476
0.601205
0.637739
0.675089
0.713251
0.75221
0.791936
0.83239
0.873525
0.915293
0.957644
1.00054
1.04393
1.08779
1.13211
1.17685
1.22201
1.26758
1.31354
1.35989
1.40661
1.45368
1.50107
1.54874
1.59665
1.64476
1.693
1.74133
1.78969
1.83803
1.88629
1.93443
1.9824
2.03018
2.07773
2.125
2.17196
2.21858
2.26483
2.31067
2.35609
2.40106
2.44555
2.48953
2.53298
2.57586
2.61812
2.65976
2.70072
2.74097
2.78047
2.81919
2.85709
2.89413
2.93026
2.96546
2.99968
3.03288
3.06502
3.09606
3.12596
3.15469
3.18221
3.20851
3.23355
3.25731
3.27977
3.30091
3.32072
3.33919
3.35631
3.37207
3.38649
3.39955
3.41126
3.42162
3.43063
3.43831
3.44465
3.44968
3.45341
3.45582
3.45689
3.4568
3.45547
3.45292
3.44918
3.44427
3.43821
3.43103
3.42274
3.41338
3.40297
3.39152
3.37907
3.36565
3.35128
3.33598
3.31979
3.30273
3.28483
3.26613
3.24665
3.22642
3.20549
3.18389
3.16168
3.13891
3.11562
3.09185
3.06765
3.04306
3.01811
2.99283
2.96727
2.94146
2.91545
2.88929
2.86304
2.83676
2.8105
2.78432
2.75829
2.73247
2.70695
2.6818
2.65708
2.63279
2.60804
2.58053
0.00049791
0.0102289
0.0312004
0.0428289
0.0482923
0.0505557
0.0509254
0.0500704
0.0483454
0.0460682
0.0434866
0.0408139
0.0382282
0.0358672
0.0338262
0.0321614
0.0308988
0.0300159
0.029576
0.0294611
0.0298832
0.0311378
0.0338306
0.0387341
0.046545
0.0575571
0.0712408
0.0865624
0.102806
0.118779
0.133333
0.145777
0.156178
0.165284
0.174522
0.185405
0.199064
0.215944
0.235998
0.25887
0.284095
0.311172
0.33964
0.36911
0.399322
0.430155
0.461594
0.493676
0.526463
0.560023
0.594426
0.629727
0.665964
0.70317
0.741357
0.780527
0.820663
0.861743
0.903732
0.946591
0.99028
1.03476
1.08
1.12596
1.17261
1.21994
1.26792
1.31652
1.36574
1.41554
1.46589
1.51677
1.56812
1.61988
1.67201
1.72444
1.77708
1.82987
1.88273
1.9356
1.9884
2.04109
2.09361
2.14591
2.19796
2.24971
2.30111
2.35213
2.40274
2.45289
2.50257
2.55174
2.60037
2.64844
2.69591
2.74273
2.78888
2.83432
2.879
2.9229
2.96597
3.00816
3.04944
3.08977
3.1291
3.16739
3.20461
3.2407
3.27561
3.30932
3.34177
3.37293
3.40276
3.43124
3.45834
3.48402
3.50826
3.53105
3.55237
3.57222
3.59058
3.60745
3.62284
3.63675
3.64917
3.66011
3.66957
3.67757
3.6841
3.6892
3.69287
3.69511
3.69593
3.69544
3.6936
3.69043
3.68597
3.68024
3.67327
3.66509
3.65572
3.64519
3.63353
3.62076
3.60691
3.59202
3.57611
3.55922
3.54136
3.52257
3.50289
3.48234
3.46095
3.43876
3.41582
3.39219
3.3679
3.34302
3.31758
3.29164
3.26522
3.23837
3.21114
3.18355
3.15565
3.12748
3.0991
3.07057
3.04193
3.01326
2.9846
2.95603
2.92761
2.89941
2.87152
2.84404
2.81702
2.79049
2.76361
2.73443
0.000945434
0.0175453
0.039655
0.0503216
0.0550806
0.0567605
0.0565965
0.0551723
0.0529104
0.050143
0.0471557
0.044194
0.0414637
0.0391217
0.0372842
0.0360279
0.0354661
0.0354365
0.0361487
0.0378152
0.0407545
0.0453065
0.0517365
0.0602054
0.0706278
0.0827066
0.0958705
0.109374
0.122552
0.134854
0.146028
0.156205
0.166027
0.176501
0.188664
0.203253
0.220584
0.240574
0.262923
0.287234
0.313114
0.340198
0.368191
0.39688
0.42616
0.456014
0.486487
0.517658
0.549616
0.582451
0.61624
0.651051
0.686939
0.723949
0.762108
0.801433
0.841925
0.883575
0.926365
0.970269
1.01526
1.0613
1.10837
1.15642
1.20544
1.25539
1.30624
1.35796
1.41052
1.46387
1.51799
1.5728
1.62824
1.68425
1.74073
1.7976
1.85478
1.91216
1.96966
2.02718
2.08464
2.14198
2.19913
2.25605
2.31268
2.36897
2.42488
2.48036
2.53536
2.58986
2.64382
2.69721
2.75
2.80215
2.85362
2.90437
2.95436
3.00355
3.05191
3.09939
3.14594
3.19152
3.23609
3.2796
3.32201
3.36328
3.40336
3.4422
3.47976
3.51598
3.55084
3.58427
3.61625
3.64675
3.67574
3.70317
3.72903
3.75331
3.77597
3.79701
3.81644
3.83425
3.85044
3.86502
3.87798
3.88933
3.89908
3.90724
3.91381
3.91882
3.92228
3.92421
3.92464
3.92362
3.92113
3.91722
3.91192
3.90527
3.89728
3.888
3.87745
3.86567
3.85267
3.83851
3.8232
3.80678
3.78929
3.77076
3.75121
3.73067
3.70917
3.68675
3.66345
3.6393
3.61436
3.58869
3.56235
3.53538
3.50783
3.47974
3.45114
3.42208
3.3926
3.36274
3.33254
3.30205
3.27135
3.24048
3.2095
3.17848
3.14746
3.11652
3.08573
3.05516
3.02492
2.9951
2.96576
2.93695
2.90789
2.87687
0.00150828
0.024985
0.0477098
0.0578823
0.062168
0.0634095
0.0628246
0.0609638
0.0583051
0.0552385
0.0520986
0.0491645
0.0466701
0.0447964
0.0437816
0.043522
0.0440919
0.0456119
0.0482214
0.0520665
0.0572669
0.0638873
0.0719001
0.081185
0.0915004
0.102478
0.113699
0.124801
0.135576
0.145973
0.156189
0.166723
0.178256
0.191413
0.206638
0.224095
0.243705
0.265224
0.288357
0.3128
0.338292
0.364615
0.391613
0.419196
0.447348
0.476107
0.505553
0.535785
0.566905
0.599009
0.632188
0.66652
0.702074
0.738907
0.777061
0.816569
0.857448
0.899708
0.943347
0.988358
1.03472
1.08242
1.13142
1.18169
1.23321
1.28593
1.33981
1.39482
1.4509
1.50801
1.56607
1.62502
1.68476
1.74517
1.80617
1.86764
1.92948
1.99157
2.0538
2.11606
2.17826
2.24031
2.30214
2.3637
2.42493
2.48577
2.54616
2.60606
2.66542
2.72421
2.78239
2.83993
2.89679
2.95293
3.0083
3.06285
3.11655
3.16935
3.22122
3.27211
3.32197
3.37074
3.41839
3.46487
3.51014
3.55415
3.59685
3.6382
3.67815
3.71664
3.75363
3.78907
3.82294
3.8552
3.8858
3.91473
3.94195
3.96744
3.99117
4.01316
4.0334
4.05188
4.06862
4.08362
4.09689
4.10842
4.11822
4.12631
4.13271
4.13742
4.14047
4.1419
4.14174
4.14003
4.13673
4.13192
4.12565
4.11793
4.1088
4.09831
4.08647
4.07333
4.05892
4.04328
4.02644
4.00844
3.98932
3.96911
3.94783
3.92553
3.90222
3.87793
3.8527
3.82661
3.7997
3.77204
3.74369
3.71468
3.68507
3.65489
3.62418
3.59297
3.5613
3.52923
3.4968
3.46408
3.43112
3.398
3.36475
3.33144
3.29814
3.26489
3.23178
3.19889
3.16633
3.13419
3.10254
3.07146
3.04021
3.0073
0.00224654
0.0316978
0.0552173
0.0654302
0.0695572
0.070566
0.0696812
0.0674961
0.0646014
0.0614801
0.0585219
0.0560227
0.0542107
0.0533612
0.0532617
0.0541651
0.0560721
0.0590256
0.063054
0.0681634
0.0743277
0.0814783
0.0894923
0.0982094
0.107435
0.11699
0.126736
0.136607
0.146656
0.157094
0.168267
0.180579
0.194379
0.209886
0.227163
0.246126
0.266602
0.288375
0.311238
0.335005
0.359534
0.384717
0.410499
0.436866
0.463854
0.491535
0.520004
0.549366
0.579732
0.611204
0.643882
0.677855
0.713206
0.750007
0.78831
0.828162
0.869598
0.912647
0.957328
1.00365
1.0516
1.10118
1.15237
1.20513
1.25944
1.31525
1.37251
1.43114
1.4911
1.55229
1.61463
1.67801
1.7423
1.80734
1.87301
1.93919
2.00575
2.07257
2.13953
2.20651
2.2734
2.34011
2.40657
2.47269
2.53843
2.60368
2.66842
2.73259
2.79615
2.85905
2.92126
2.98274
3.04346
3.10335
3.16237
3.22046
3.27759
3.33372
3.38879
3.44277
3.4956
3.54723
3.5976
3.64669
3.69443
3.7408
3.78574
3.82921
3.87115
3.9115
3.95023
3.98729
4.02264
4.05625
4.08809
4.11812
4.14632
4.17265
4.19709
4.21965
4.24034
4.25915
4.2761
4.29119
4.30443
4.31582
4.32537
4.3331
4.33904
4.34319
4.34558
4.34626
4.34531
4.34267
4.33836
4.33248
4.32505
4.31611
4.30569
4.29384
4.2806
4.26599
4.25007
4.23287
4.21442
4.19479
4.17399
4.15207
4.12906
4.10499
4.07989
4.05373
4.02663
3.99863
3.96981
3.94022
3.90992
3.87896
3.84737
3.8152
3.78248
3.74923
3.71547
3.68129
3.64674
3.61189
3.5768
3.54153
3.50614
3.47067
3.43517
3.39972
3.36438
3.32926
3.29446
3.26008
3.22618
3.19288
3.15947
3.12472
0.00311136
0.0378845
0.062843
0.0732431
0.0772671
0.0781012
0.0769767
0.0745353
0.0714876
0.0684949
0.0660273
0.0643429
0.0635807
0.0635042
0.0644335
0.0663588
0.0692269
0.0730026
0.0776504
0.083126
0.0893636
0.0962872
0.103811
0.111866
0.120394
0.129367
0.138799
0.148792
0.159503
0.171138
0.183905
0.197972
0.213421
0.230248
0.248377
0.267683
0.288024
0.309263
0.331287
0.354004
0.377361
0.401331
0.425926
0.451177
0.477156
0.503949
0.531665
0.560409
0.590286
0.621403
0.653867
0.687778
0.723228
0.7603
0.799068
0.8396
0.881953
0.926178
0.972314
1.02039
1.07041
1.12237
1.17627
1.23208
1.28975
1.34923
1.41044
1.47329
1.53765
1.60342
1.67045
1.73859
1.80767
1.8775
1.94791
2.01875
2.0899
2.16127
2.23275
2.30423
2.37558
2.44672
2.51757
2.58803
2.658
2.72736
2.79611
2.86422
2.93162
2.99828
3.06415
3.12918
3.19333
3.25654
3.31875
3.37992
3.44
3.49894
3.55671
3.61324
3.6685
3.72243
3.77498
3.8261
3.87575
3.9239
3.9705
4.0155
4.05885
4.10049
4.14038
4.17848
4.21476
4.24917
4.28169
4.31229
4.34094
4.36761
4.39228
4.41496
4.43565
4.45435
4.47108
4.48583
4.49862
4.50945
4.51835
4.52534
4.53044
4.53368
4.5351
4.53477
4.53276
4.52891
4.52337
4.51619
4.50741
4.49706
4.48519
4.47184
4.45705
4.44087
4.42334
4.40449
4.38438
4.36305
4.34054
4.3169
4.29215
4.26634
4.23948
4.21152
4.18259
4.15278
4.12214
4.09074
4.05861
4.0258
3.99236
3.95833
3.92373
3.88858
3.85288
3.81674
3.78023
3.74341
3.70635
3.66911
3.63172
3.59425
3.55672
3.5192
3.48178
3.44457
3.40766
3.37115
3.33513
3.2997
3.26423
3.22776
0.00403257
0.044072
0.0702439
0.080964
0.0849707
0.085665
0.0841743
0.0814279
0.0784399
0.0759059
0.0742194
0.0734742
0.0733767
0.074117
0.0758019
0.0783674
0.081744
0.085877
0.090722
0.0962424
0.102402
0.109181
0.116562
0.124546
0.133152
0.142439
0.152485
0.163385
0.175245
0.188159
0.202172
0.2173
0.233508
0.250727
0.268871
0.28785
0.307588
0.328021
0.349115
0.370849
0.393234
0.416288
0.440067
0.464638
0.490072
0.516453
0.543897
0.57251
0.602409
0.633705
0.666514
0.700946
0.737108
0.775101
0.815017
0.856944
0.900962
0.947148
0.995562
1.04625
1.09921
1.15446
1.21197
1.27172
1.33363
1.39763
1.4636
1.53139
1.60083
1.67169
1.74377
1.81687
1.89078
1.9653
2.04023
2.11536
2.19058
2.26592
2.34132
2.41675
2.49202
2.56704
2.64175
2.71601
2.78967
2.86261
2.93489
3.00642
3.07713
3.14698
3.21589
3.28384
3.35077
3.41662
3.48133
3.54484
3.60712
3.66812
3.7278
3.78612
3.84301
3.89844
3.95235
4.00469
4.05545
4.10456
4.15202
4.19775
4.24172
4.28387
4.32415
4.36252
4.39897
4.43345
4.46594
4.4964
4.52482
4.55118
4.57548
4.59768
4.61779
4.63581
4.65175
4.66563
4.67746
4.68725
4.69501
4.70078
4.70459
4.7065
4.70658
4.70499
4.70147
4.69613
4.68907
4.68033
4.66995
4.65798
4.64445
4.62942
4.61293
4.59502
4.57575
4.55516
4.53329
4.5102
4.48592
4.4605
4.43399
4.40643
4.37783
4.34817
4.31757
4.28608
4.25377
4.22068
4.18687
4.15238
4.11726
4.08154
4.04525
4.00839
3.97095
3.93306
3.89481
3.85624
3.81743
3.77842
3.73925
3.69998
3.66062
3.62124
3.58194
3.54282
3.504
3.46556
3.42757
3.39018
3.35279
3.31479
0.00498832
0.0502216
0.0774922
0.0884437
0.0923799
0.0928892
0.0909925
0.0881232
0.0854552
0.0835705
0.0826831
0.0824775
0.0829856
0.084311
0.0864891
0.0894496
0.0931351
0.0975058
0.10254
0.108234
0.114587
0.121617
0.129347
0.137822
0.147085
0.157195
0.168197
0.180137
0.193017
0.206837
0.221583
0.237218
0.253675
0.270896
0.288832
0.307446
0.326723
0.346659
0.367265
0.388563
0.410605
0.433459
0.45724
0.481993
0.507725
0.534549
0.562642
0.592109
0.623056
0.655596
0.68985
0.725942
0.763989
0.804106
0.8464
0.890976
0.937927
0.987344
1.03931
1.09387
1.151
1.21068
1.27285
1.33744
1.40439
1.47358
1.54487
1.61805
1.69287
1.76901
1.84608
1.9238
2.00204
2.0807
2.15953
2.23832
2.31702
2.39574
2.47444
2.55298
2.63119
2.70911
2.78678
2.86392
2.94041
3.0162
3.09118
3.16524
3.23832
3.31037
3.38133
3.45115
3.51978
3.58717
3.65323
3.71794
3.78124
3.84312
3.90354
3.96244
4.01979
4.07553
4.12961
4.18201
4.23269
4.28163
4.32881
4.37419
4.4177
4.45929
4.49893
4.53657
4.57221
4.6058
4.63734
4.66679
4.69412
4.71933
4.7424
4.76331
4.78207
4.7987
4.8132
4.82559
4.83588
4.8441
4.85026
4.85437
4.85649
4.85671
4.85526
4.85184
4.84653
4.83943
4.83059
4.82007
4.80789
4.79412
4.7788
4.76197
4.74369
4.724
4.70295
4.6806
4.65698
4.63214
4.60614
4.57901
4.55081
4.52158
4.49135
4.4602
4.42812
4.39517
4.36139
4.32683
4.29155
4.25559
4.21898
4.18178
4.14403
4.1057
4.06681
4.02748
3.98776
3.94773
3.90743
3.86691
3.82623