/*--------------------------------*- C++ -*----------------------------------*\
  =========                 |
  \\      /  F ield         | OpenFOAM: The Open Source CFD Toolbox
   \\    /   O peration     | Website:  https://openfoam.org
    \\  /    A nd           | Version:  8
     \\/     M anipulation  |
\*---------------------------------------------------------------------------*/
FoamFile
{
    version     2.0;
    format      ascii;
    class       volScalarField;
    location    "1700";
    object      omega;
}
// * * * * * * * * * * * * * * * * * * * * * * * * * * * * * * * * * * * * * //

dimensions      [0 0 -1 0 0 0 0];

internalField   nonuniform List<scalar> 
12225
(
32582.3
32582.3
32582.3
39294.6
32582.3
49181.9
43409
48048.2
51754.6
48152.7
50554.7
52639.4
50413.2
43747.8
38879.4
43758
42148.1
45618.1
3188.74
8367.24
10586.7
13006.2
12066.4
18166.2
18481.6
16807
21438.2
19972.5
20193.4
19624.5
19137.8
18544.9
17878.4
18075.1
17005.9
17978.3
723.793
1290.45
1971.96
3150.65
3522.04
4408.65
5182.7
5460.14
6006.17
6286.01
6603.77
6898.85
7078.92
7267.51
7345.13
7506.22
7518.17
7687.35
465.214
541.229
703.539
942.19
1103.18
1310.36
1517.11
1691.56
1840.53
1985.83
2099.58
2228.27
2307.82
2416.34
2472.1
2572.04
2609.83
2702.72
410.518
423.982
466.319
521.564
572.663
639.377
705.101
775.012
829.782
889.026
931.345
983.286
1015.26
1062.09
1087.5
1131.81
1153.07
1195.3
400.116
401.43
410.57
425.707
440.244
460.879
485.073
513.934
536.467
561.773
579.43
601.814
615.935
637.093
649.129
670.014
680.641
701.054
399.032
397.633
397.896
400.446
403.952
408.363
415.73
426.471
435.063
445.283
452.367
461.688
467.74
476.986
482.628
492.196
497.481
507.221
399.108
397.209
395.908
395.116
395.479
395.884
397.253
401.002
404.161
408.312
411.131
415.125
417.68
421.893
424.489
429.166
431.771
436.853
399.068
397.227
395.573
394.004
392.907
391.788
391.372
391.703
392.386
393.547
394.306
395.535
396.314
397.713
398.678
400.479
401.615
403.869
399.055
397.23
395.505
393.864
392.32
390.915
389.682
388.813
388.091
387.678
387.213
386.982
386.639
386.557
386.59
386.644
386.803
387.19
399.05
397.227
395.479
393.845
392.252
390.778
389.362
388.114
386.929
385.908
384.912
384.053
383.192
382.473
381.762
381.227
380.63
380.282
399.049
397.221
395.469
393.826
392.242
390.755
389.323
387.988
386.705
385.517
384.369
383.31
382.278
381.335
380.411
379.584
378.766
378.049
399.05
397.216
395.466
393.812
392.232
390.737
389.308
387.955
386.661
385.437
384.263
383.155
382.089
381.084
380.116
379.205
378.329
377.504
399.051
397.212
395.462
393.803
392.223
390.723
389.293
387.935
386.639
385.406
384.229
383.109
382.039
381.019
380.044
379.115
378.227
377.38
399.051
397.21
395.46
393.797
392.216
390.713
389.282
387.92
386.622
385.386
384.207
383.083
382.01
380.987
380.009
379.076
378.184
377.333
399.051
397.209
395.458
393.793
392.211
390.706
389.273
387.909
386.61
385.371
384.19
383.064
381.989
380.964
379.984
379.049
378.156
377.303
399.051
397.208
395.456
393.791
392.208
390.701
389.267
387.902
386.601
385.361
384.179
383.051
381.975
380.949
379.968
379.032
378.137
377.283
399.051
397.208
395.456
393.79
392.207
390.7
389.265
387.899
386.598
385.358
384.175
383.047
381.97
380.943
379.961
379.024
378.129
377.274
399.051
397.208
395.457
393.792
392.208
390.701
389.267
387.901
386.6
385.36
384.177
383.049
381.973
380.945
379.964
379.027
378.132
377.277
399.051
397.209
395.458
393.794
392.211
390.705
389.272
387.907
386.607
385.367
384.185
383.058
381.982
380.955
379.975
379.039
378.145
377.291
399.051
397.21
395.46
393.797
392.216
390.711
389.28
387.916
386.619
385.38
384.202
383.077
382.007
380.984
380.011
379.08
378.195
377.348
399.051
397.213
395.463
393.801
392.221
390.72
389.298
387.942
386.661
385.436
384.287
383.186
382.158
381.17
380.254
379.369
378.553
377.762
399.051
397.224
395.459
393.801
392.234
390.786
389.441
388.189
387.031
385.961
385.021
384.132
383.382
382.652
382.07
381.478
381.038
380.564
399.086
397.235
395.453
393.922
392.601
391.632
390.953
390.444
390.119
390.063
390.314
390.482
390.97
391.407
392.187
392.798
393.753
394.453
399.365
397.288
396.419
396.71
397.119
398.795
401.762
404.559
408.189
411.738
416.131
420.154
424.887
428.996
433.77
437.751
442.468
446.197
401.481
401.178
408.434
418.039
426.719
440.026
455.581
470.453
486.891
501.988
518.43
532.785
548.438
561.482
575.965
587.604
600.995
611.258
428.018
439.035
483.467
529.056
582.365
636.864
695.378
749.709
805.018
854.066
904.005
946.2
990.631
1026.12
1065.44
1095.57
1130.6
1156.45
634.545
748.525
1000.01
1227.49
1451.33
1672.52
1889.53
2082
2258.07
2407.84
2543.78
2656.4
2763.59
2848.6
2937.98
3006.78
3084.66
3144.46
2285.51
3883.15
5277.69
6419.63
7352.69
8053.74
8555.24
8908.75
9142.58
9278.33
9355.44
9372.86
9365.06
9342.43
9312.36
9273.38
9250.91
9224.77
16112.1
21562.1
23364.7
24375.5
24906.5
25030.7
24978.2
24841.9
24602
24336
24065.1
23801.7
23553.1
23322.5
23111.1
22918.9
22743.9
22588.2
11463.3
2494.65
2496.87
2499.12
2501.38
2503.67
2505.98
2508.3
2510.65
2513.02
2515.42
2517.83
2520.27
2522.73
2525.21
2527.72
2530.25
2532.8
2535.37
2537.97
2540.6
2543.25
2545.92
2548.62
2551.34
2554.09
2556.87
2559.67
2562.5
2565.35
2568.23
2571.14
2574.08
2577.04
2580.04
2583.06
2586.11
2589.19
2592.3
2595.43
2598.6
2601.8
2605.03
2608.29
2611.59
2614.91
2618.27
2621.66
2625.08
2628.54
2632.03
2635.55
2639.11
2642.71
2646.33
2650
2653.7
3258.85
2661.21
2665.03
3365.3
3417.07
3236.61
3404.69
3479.73
3568.8
3647.51
3727.66
3801.2
3874.99
3944.71
4013.65
4080.08
4145.35
4208.87
4271.17
4332.12
4391.85
4450.47
4507.92
4564.37
4619.68
4674.06
4727.35
4779.71
4831.02
4881.38
4930.73
4979.08
5026.38
5072.63
5117.77
5161.8
5204.61
5246.19
5286.45
5325.39
5363.04
5399.47
5434.99
5470.05
5503.87
5536.75
5568.65
5599.54
5629.47
5658.35
5686.24
5713.09
5738.92
5763.7
5787.44
5810.15
5831.79
5852.41
5871.96
5890.5
5907.96
5924.43
5939.82
5954.24
5967.58
5979.96
5991.27
6001.62
6010.9
6019.19
6026.64
6033.56
6039.84
6043.66
6048.17
6050.64
6053.24
6055.25
6056.6
6056.73
6055.14
6053.01
6049.83
6045.89
6041.12
6035.56
6029.29
6022.27
6014.62
6006.32
5997.47
5988.28
5978.14
5967.89
5956.6
5945.21
5933.12
5920.72
5907.95
5894.86
5881.57
5868.09
5854.5
5840.8
5827.05
5813.26
5799.47
5785.7
5772.02
5758.48
5745.13
5732.04
5719.25
5706.76
5694.54
5682.53
5670.47
5658.04
5644.52
5629
5608.78
5578.78
5458.63
11463.3
1992.41
997.349
811.714
694.502
624.339
631.463
627.606
616.209
593.506
569.204
545.543
523.749
505.679
493.321
484.456
483.752
485.706
510.773
558.335
641.915
742.734
852.701
962.119
1061.07
1137.36
1184.13
1179.78
1141.55
1066.52
944.896
794.739
659.401
572.27
503.685
464.495
456.305
463.462
483.462
515.458
544.644
588.785
666.59
793.683
986.267
1296.64
1612.24
1834.23
1978.62
2052.69
2074.27
2067.61
2024.15
1981.71
1940.77
1890.16
1822.1
1815.47
1733.18
1725.8
1717.59
1703.55
1681.45
1675.81
1670.55
1667.76
1666.78
1668.18
1671.11
1675.34
1680.29
1686.16
1692.48
1699.35
1706.5
1713.95
1721.56
1729.33
1737.16
1745.05
1752.94
1760.81
1768.63
1776.38
1784.04
1791.59
1799
1806.26
1813.32
1820.19
1826.82
1833.25
1839.44
1845.42
1851.22
1856.92
1862.63
1868.52
1874.91
1882.17
1890.85
1898.77
1906.77
1914.4
1921.87
1929.09
1936.1
1942.88
1949.44
1955.77
1961.88
1967.76
1973.43
1978.87
1984.1
1989.11
1993.89
1998.47
2002.82
2006.97
2010.9
2014.62
2018.13
2021.43
2024.54
2027.44
2030.17
2032.74
2035.14
2037.32
2039.27
2041.14
2042.79
2044.38
2045.76
2046.76
2047.03
2046.52
2045.94
2045.17
2044.2
2043.05
2041.71
2040.2
2038.53
2036.73
2034.76
2032.89
2029.9
2027.99
2024.85
2022.57
2019.5
2016.58
2013.52
2010.3
2007.07
2003.73
2000.34
1996.9
1993.41
1989.88
1986.32
1982.74
1979.15
1975.57
1971.99
1968.45
1964.94
1961.49
1958.11
1954.81
1951.57
1948.48
1945.56
1942.91
1940.6
1939.19
1937.76
1946.41
11463.3
2009.38
813.916
642.41
683.084
683.777
656.029
600.353
540.452
484.144
434.413
392.117
358.914
332.918
312.938
297.611
286.895
278.806
276.421
278.636
288.709
306.778
338.604
381.95
436.72
496.601
558.631
605.696
638.997
637.812
617.818
577.805
516.276
447.572
395.638
383.888
393.564
416.584
452.105
521.582
630.48
780.406
973.799
1155.85
1306.71
1439.35
1531.39
1564.72
1565.57
1520.28
1466
1404.1
1344.89
1293.55
1248.97
1212.85
1177.22
1156.81
1138.14
1128.83
1119.18
1115.26
1106.6
1105.05
1102.57
1102.59
1103.4
1105.14
1107.44
1110.25
1113.42
1116.91
1120.63
1124.54
1128.6
1132.77
1137.02
1141.33
1145.67
1150.04
1154.41
1158.77
1163.11
1167.43
1171.7
1175.92
1180.09
1184.19
1188.23
1192.19
1196.09
1199.93
1203.72
1207.49
1211.26
1215.05
1218.92
1222.91
1227.05
1231.35
1235.67
1239.78
1243.83
1247.73
1251.51
1255.17
1258.71
1262.12
1265.41
1268.58
1271.62
1274.54
1277.33
1280
1282.54
1284.96
1287.25
1289.42
1291.47
1293.39
1295.18
1296.85
1298.4
1299.82
1301.13
1302.32
1303.39
1304.35
1305.19
1305.91
1306.51
1307
1307.38
1307.64
1307.74
1307.66
1307.33
1306.78
1306.15
1305.41
1304.55
1303.59
1302.52
1301.34
1300.07
1298.7
1297.24
1295.69
1293.9
1292.26
1290.31
1288.5
1286.44
1284.38
1282.25
1280.04
1277.78
1275.46
1273.1
1270.68
1268.23
1265.74
1263.22
1260.67
1258.11
1255.52
1252.93
1250.34
1247.76
1245.18
1242.64
1240.15
1237.72
1235.41
1233.28
1231.46
1230.12
1229.92
1231.24
1241.52
11463.3
2037.54
1013.43
981.278
905.345
776.102
658.813
551.54
466.829
403.676
356.255
318.792
289.897
267.877
251.136
238.445
228.956
222.049
217.427
215.624
216.593
219.545
227.633
241.537
262.748
290.94
325.339
360.262
392.192
415.709
423.298
417.34
395.551
395.165
429.495
516.76
584.967
642.54
712.579
811.387
944.982
1067.81
1147.96
1216.69
1271.83
1295.43
1266.1
1215.98
1173.48
1118.17
1072.29
1029.06
993.83
964.552
941.031
922.984
907.883
897.863
890.794
886.065
882.543
881.146
879.116
879.193
879.762
881.122
882.936
885.154
887.67
890.439
893.405
896.535
899.794
903.159
906.606
910.12
913.684
917.285
920.911
924.552
928.198
931.843
935.477
939.095
942.691
946.26
949.798
953.303
956.772
960.206
963.607
966.984
970.342
973.688
977.028
980.373
983.727
987.091
990.455
993.794
997.054
1000.21
1003.28
1006.25
1009.13
1011.92
1014.6
1017.19
1019.67
1022.06
1024.35
1026.53
1028.61
1030.59
1032.46
1034.23
1035.9
1037.45
1038.9
1040.24
1041.48
1042.61
1043.63
1044.54
1045.35
1046.06
1046.66
1047.15
1047.54
1047.82
1048
1048.08
1048.04
1047.9
1047.63
1047.22
1046.67
1045.99
1045.23
1044.36
1043.41
1042.35
1041.21
1039.98
1038.66
1037.25
1035.76
1034.17
1032.48
1030.77
1028.93
1027.08
1025.11
1023.1
1021.02
1018.88
1016.69
1014.44
1012.15
1009.82
1007.44
1005.03
1002.58
1000.11
997.619
995.107
992.579
990.043
987.504
984.968
982.451
979.973
977.555
975.24
973.089
971.208
969.757
969.268
970.241
976.552
11463.3
2311.47
1473.52
1188.7
943.442
729.039
562.273
450.557
374.44
321.189
283.044
256.326
236.83
222.092
210.669
201.797
195.049
190.161
186.918
185.381
185.643
186.972
190.784
197.479
208.125
223.688
244.526
268.176
292.207
311.108
327.157
356.353
413.303
514.332
605.743
675.708
745.667
822.366
896.404
961.276
1017.42
1065.6
1098.76
1108.86
1081.89
1032.82
997.1
953.317
916.94
881.501
853.52
829.117
809.893
794.429
782.471
773.622
767
762.634
760.159
758.74
758.341
758.549
759.437
761.007
762.978
765.324
767.941
770.784
773.806
776.977
780.27
783.665
787.143
790.69
794.293
797.941
801.624
805.332
809.057
812.792
816.529
820.263
823.987
827.696
831.385
835.051
838.691
842.301
845.88
849.426
852.941
856.429
859.891
863.325
866.733
870.112
873.458
876.762
880.01
883.193
886.293
889.307
892.236
895.075
897.824
900.481
903.044
905.511
907.881
910.154
912.326
914.397
916.365
918.228
919.985
921.635
923.177
924.61
925.934
927.147
928.249
929.24
930.121
930.891
931.551
932.099
932.538
932.866
933.084
933.191
933.193
933.077
932.853
932.515
932.059
931.481
930.782
929.973
929.068
928.064
926.963
925.767
924.478
923.099
921.629
920.069
918.424
916.688
914.867
912.98
911.007
908.976
906.865
904.691
902.454
900.155
897.801
895.393
892.935
890.432
887.888
885.307
882.695
880.054
877.389
874.703
871.999
869.284
866.566
863.857
861.168
858.513
855.914
853.406
851.041
848.908
847.138
846.093
846.287
849.443
11463.3
2933.92
1736.67
1211.05
834.336
588.163
444.577
355.977
301.291
265.815
241.129
222.902
208.874
197.879
189.113
182.137
176.745
172.817
170.265
169.19
169.512
170.889
174.135
179.315
187.124
198.746
215.164
236.63
264.907
306.712
361.901
451.982
561.283
652.54
721.849
785.367
839.341
880.902
916.043
949.569
968.95
972.788
945.307
913.337
881.338
846.243
816.741
787.559
763.893
743.047
726.437
712.704
702.064
693.9
687.944
683.905
681.601
680.577
680.403
681.089
682.496
684.389
686.753
689.491
692.506
695.751
699.175
702.747
706.44
710.234
714.114
718.065
722.076
726.138
730.241
734.376
738.536
742.712
746.898
751.086
755.27
759.445
763.604
767.742
771.857
775.942
779.995
784.012
787.991
791.929
795.826
799.684
803.5
807.273
810.998
814.672
818.289
821.839
825.315
828.712
832.024
835.248
838.381
841.422
844.367
847.214
849.96
852.603
855.14
857.572
859.895
862.106
864.202
866.184
868.047
869.792
871.416
872.918
874.298
875.554
876.687
877.696
878.581
879.342
879.98
880.493
880.884
881.15
881.286
881.311
881.212
880.99
880.645
880.178
879.588
878.874
878.04
877.091
876.034
874.87
873.6
872.226
870.751
869.179
867.507
865.738
863.876
861.919
859.875
857.748
855.539
853.257
850.897
848.466
845.967
843.402
840.777
838.095
835.36
832.577
829.751
826.887
823.989
821.062
818.108
815.132
812.139
809.133
806.122
803.119
800.133
797.18
794.279
791.459
788.764
786.266
784.071
782.429
781.695
782.729
11463.3
3443.64
1780.63
1036.96
650.89
457.708
359.044
303.581
268.362
243.405
224.603
209.931
198.103
188.314
180.198
173.593
168.432
164.7
162.511
161.966
162.855
165.458
170.244
177.599
188.268
202.836
224.777
259.438
313.29
396.653
501.57
593.194
663.499
724.308
772.634
808.804
837.48
860.526
870.284
868.735
846.464
823.277
797.001
771.116
745.951
721.981
701.428
683.123
668.171
655.643
645.719
637.937
632.192
628.177
625.844
624.883
624.772
625.661
627.295
629.554
632.329
635.496
639.001
642.77
646.749
650.898
655.182
659.58
664.072
668.642
673.28
677.976
682.719
687.503
692.319
697.158
702.013
706.875
711.738
716.594
721.437
726.261
731.06
735.828
740.562
745.257
749.908
754.511
759.064
763.561
768.003
772.39
776.719
780.986
785.188
789.321
793.383
797.368
801.275
805.091
808.813
812.438
815.962
819.381
822.694
825.896
828.984
831.953
834.802
837.523
840.113
842.574
844.904
847.1
849.16
851.084
852.869
854.515
856.02
857.385
858.608
859.69
860.631
861.432
862.093
862.613
862.994
863.23
863.319
863.294
863.125
862.819
862.377
861.8
861.09
860.248
859.277
858.181
856.965
855.63
854.179
852.611
850.926
849.12
847.202
845.177
843.049
840.818
838.489
836.068
833.558
830.964
828.287
825.532
822.701
819.799
816.832
813.803
810.718
807.581
804.397
801.173
797.914
794.624
791.306
787.964
784.605
781.234
777.859
774.49
771.139
767.819
764.549
761.352
758.266
755.346
752.678
750.428
748.772
748.213
11463.3
3585.47
1563.93
815.647
514.888
382.229
313.937
273.893
247.935
229.743
215.773
204.007
193.739
184.865
177.354
171.278
166.82
164.147
163.186
163.847
166.365
171.352
179.313
192.285
212.708
242.803
289.057
361.914
449.279
530.276
595.667
651.521
698.741
736.402
766.474
786.194
793.416
787.271
770.404
752.679
731.778
711.872
691.867
672.781
654.852
638.753
625.023
613.352
603.87
596.265
590.475
586.302
583.707
582.545
582.315
583.104
584.754
587.151
590.16
593.677
597.615
601.891
606.445
611.223
616.183
621.29
626.52
631.85
637.265
642.751
648.296
653.891
659.527
665.196
670.89
676.6
682.315
688.027
693.729
699.412
705.069
710.694
716.28
721.822
727.315
732.756
738.137
743.454
748.702
753.879
758.982
764.01
768.962
773.834
778.621
783.322
787.933
792.456
796.879
801.196
805.4
809.489
813.46
817.309
821.032
824.626
828.087
831.411
834.594
837.634
840.527
843.271
845.863
848.301
850.583
852.706
854.671
856.474
858.117
859.597
860.916
862.073
863.07
863.906
864.582
865.099
865.456
865.642
865.682
865.577
865.314
864.896
864.327
863.609
862.743
861.732
860.58
859.289
857.864
856.306
854.619
852.803
850.862
848.798
846.613
844.311
841.895
839.368
836.733
833.997
831.163
828.237
825.221
822.119
818.935
815.675
812.344
808.947
805.49
801.977
798.415
794.81
791.167
787.491
783.787
780.058
776.311
772.553
768.792
765.038
761.303
757.599
753.942
750.353
746.863
743.513
740.339
737.486
735.028
733.137
11463.3
3405.54
1280.71
661.131
445.633
350.003
297.85
266.173
244.51
228.236
215.351
204.703
195.65
187.928
181.574
176.811
173.976
173.212
174.822
178.801
186.125
198.161
216.259
245.185
289.206
348.231
415.688
478.242
535.168
584.82
627.554
663.467
694.256
716.289
724.507
721.803
709.038
694.916
678.492
662.755
647.057
632.167
617.66
603.997
591.539
580.674
571.537
564.03
558.121
553.688
550.642
549.085
548.607
549.07
550.506
552.791
555.814
559.476
563.679
568.341
573.386
578.75
584.376
590.219
596.241
602.41
608.703
615.101
621.583
628.133
634.739
641.388
648.068
654.77
661.492
668.217
674.934
681.634
688.307
694.946
701.541
708.087
714.577
721.004
727.357
733.623
739.813
745.924
751.951
757.89
763.738
769.495
775.157
780.721
786.183
791.537
796.781
801.905
806.907
811.783
816.527
821.136
825.607
829.935
834.117
838.149
842.026
845.744
849.299
852.687
855.905
858.95
861.818
864.508
867.018
869.345
871.488
873.447
875.219
876.806
878.208
879.426
880.461
881.313
881.984
882.474
882.777
882.895
882.855
882.638
882.247
881.684
880.952
880.055
878.994
877.773
876.395
874.863
873.183
871.355
869.383
867.27
865.017
862.63
860.109
857.461
854.687
851.791
848.777
845.651
842.418
839.084
835.652
832.126
828.512
824.815
821.042
817.2
813.293
809.327
805.309
801.244
797.14
793.001
788.831
784.638
780.428
776.208
771.986
767.774
763.581
759.42
755.306
751.257
747.299
743.467
739.804
736.403
733.28
730.348
11463.3
2973.52
1032.1
563.163
401.172
327.82
288.836
263.485
246.026
233.178
222.862
214.162
206.82
200.937
196.915
195.358
196.489
201.112
209.277
221.431
239.687
265.907
301.653
345.407
392.955
441.132
486.796
528.021
565.137
597.136
625.391
649.383
660.814
662.472
655.669
645.587
632.834
620.338
608.045
596.473
585.241
574.414
563.992
554.321
545.715
538.382
532.382
527.685
524.258
522.166
521.321
521.315
522.387
524.367
527.196
530.787
535.055
539.917
545.298
551.127
557.341
563.882
570.695
577.734
584.961
592.345
599.863
607.506
615.233
623.025
630.865
638.736
646.617
654.484
662.298
670.082
677.849
685.592
693.298
700.957
708.561
716.103
723.576
730.975
738.294
745.535
752.676
759.708
766.625
773.425
780.103
786.659
793.093
799.399
805.574
811.613
817.512
823.267
828.876
834.335
839.639
844.784
849.767
854.583
859.228
863.698
867.988
872.094
876.009
879.732
883.257
886.581
889.702
892.617
895.325
897.823
900.111
902.186
904.048
905.699
907.139
908.371
909.395
910.214
910.828
911.238
911.433
911.441
911.255
910.872
910.297
909.532
908.581
907.446
906.131
904.64
902.977
901.145
899.149
896.991
894.675
892.204
889.581
886.809
883.894
880.839
877.647
874.324
870.872
867.298
863.608
859.806
855.9
851.892
847.79
843.601
839.332
834.989
830.579
826.106
821.577
816.999
812.38
807.724
803.038
798.329
793.604
788.872
784.141
779.42
774.722
770.058
765.44
760.886
756.417
752.064
747.856
743.867
740.08
736.189
11463.3
2494.49
889.967
521.151
386.299
323.931
289.615
269.331
255.796
245.828
238.015
231.892
227.618
225.847
226.642
231.223
239.704
251.308
266.447
287.206
313.641
344.763
378.969
414.241
448.942
482.035
512.677
539.846
564.665
587.617
601.884
606.399
605.182
599.95
591.589
582.334
572.911
564.026
555.52
547.33
539.3
531.49
524.071
517.323
511.482
506.687
502.995
500.402
499.081
498.728
499.343
500.919
503.433
506.814
511
515.915
521.486
527.645
534.324
541.464
549.025
556.946
565.157
573.612
582.267
591.078
599.982
608.905
617.912
626.995
636.135
645.31
654.493
663.664
672.823
681.943
691.011
700.024
708.957
717.804
726.558
735.216
743.772
752.22
760.553
768.757
776.825
784.751
792.532
800.165
807.648
814.981
822.162
829.188
836.053
842.755
849.291
855.657
861.85
867.867
873.703
879.351
884.809
890.072
895.137
899.998
904.652
909.091
913.313
917.31
921.081
924.621
927.929
931.001
933.836
936.432
938.789
940.904
942.779
944.414
945.811
946.975
947.906
948.609
949.084
949.325
949.346
949.148
948.733
948.104
947.262
946.214
944.961
943.509
941.862
940.023
937.998
935.789
933.402
930.839
928.105
925.203
922.138
918.913
915.533
912.003
908.327
904.51
900.556
896.47
892.259
887.929
883.486
878.938
874.29
869.553
864.732
859.835
854.868
849.836
844.745
839.604
834.418
829.195
823.942
818.668
813.381
808.091
802.805
797.532
792.285
787.073
781.909
776.808
771.79
766.88
762.1
757.51
753.082
748.322
11463.3
2082.9
788.333
487.904
377.951
325.34
297.69
281.45
271.035
263.946
259.131
256.751
256.405
259.06
265.174
274.826
287.45
302.838
321.707
343.752
368.07
393.664
419.574
445.012
469.263
491.601
512.611
532.693
547.68
554.646
556.368
555.864
552.026
546.527
540.212
533.859
527.684
521.748
515.926
510.16
504.461
498.957
493.854
489.377
485.713
482.967
481.318
480.707
480.987
482.279
484.52
487.684
491.741
496.66
502.42
508.903
516.041
523.77
532.021
540.71
549.708
558.997
568.613
578.528
588.701
599.09
609.665
620.416
631.264
642.162
653.074
663.982
674.835
685.592
696.234
706.74
717.093
727.286
737.339
747.262
757.059
766.73
776.275
785.687
794.956
804.065
813.005
821.77
830.356
838.761
846.983
855.023
862.879
870.548
878.025
885.308
892.394
899.282
905.969
912.449
918.719
924.771
930.603
936.209
941.587
946.731
951.637
956.3
960.713
964.871
968.772
972.41
975.785
978.893
981.735
984.309
986.613
988.647
990.411
991.908
993.14
994.112
994.83
995.294
995.508
995.472
995.192
994.671
993.914
992.925
991.707
990.266
988.606
986.732
984.65
982.364
979.878
977.197
974.325
971.267
968.026
964.608
961.016
957.255
953.33
949.247
945.01
940.626
936.098
931.431
926.633
921.708
916.666
911.515
906.265
900.922
895.495
889.991
884.415
878.772
873.069
867.314
861.513
855.675
849.809
843.925
838.033
832.142
826.259
820.393
814.555
808.755
803.005
797.321
791.719
786.222
780.845
775.639
770.582
765.019
11463.3
1957.35
771.746
485.203
380.982
334.15
310.381
297.13
289.318
285.018
283.353
283.559
286.567
292.411
301.042
312.187
325.518
341.061
358.421
376.973
396.09
415.192
433.721
451.462
468.693
485.418
499.245
507.649
511.78
513.265
513.325
511.598
508.599
505.018
501.21
497.379
493.555
489.721
485.858
482.002
478.26
474.789
471.779
469.41
467.927
467.373
467.708
469.162
471.561
474.89
479.124
484.233
490.164
496.816
504.04
511.994
520.668
530.011
539.961
550.463
561.492
572.989
584.876
597.099
609.611
622.353
635.268
648.32
661.416
674.452
687.356
700.053
712.515
724.724
736.664
748.328
759.719
770.861
781.794
792.559
803.17
813.638
823.97
834.156
844.177
854.006
863.632
873.049
882.255
891.245
900.02
908.579
916.92
925.041
932.938
940.608
948.05
955.265
962.248
968.997
975.505
981.767
987.777
993.532
999.029
1004.26
1009.23
1013.92
1018.34
1022.47
1026.31
1029.86
1033.12
1036.08
1038.74
1041.11
1043.19
1044.96
1046.44
1047.62
1048.52
1049.13
1049.47
1049.52
1049.32
1048.84
1048.1
1047.1
1045.85
1044.36
1042.62
1040.65
1038.45
1036.02
1033.38
1030.52
1027.45
1024.18
1020.71
1017.05
1013.2
1009.16
1004.94
1000.55
995.989
991.264
986.381
981.346
976.165
970.844
965.387
959.797
954.09
948.276
942.363
936.36
930.272
924.106
917.869
911.566
905.203
898.787
892.323
885.825
879.304
872.77
866.234
859.704
853.186
846.691
840.226
833.802
827.431
821.13
814.914
808.804
802.81
796.974
791.295
784.976
11463.3
1867.41
744.355
482.282
388.117
346.064
325.327
314.266
308.375
305.816
305.343
307.402
312.045
318.955
327.828
338.334
350.205
363.173
376.861
390.861
404.768
418.536
432.311
445.684
457.097
465.123
470.754
474.629
476.738
477.6
477.768
477.122
475.906
474.387
472.689
470.874
468.975
467.033
465.128
463.399
462.085
461.279
461.024
461.434
462.665
464.706
467.483
470.808
474.996
480.152
486.289
493.388
501.417
510.359
520.242
530.979
542.538
554.847
567.829
581.419
595.56
610.172
625.158
640.445
655.996
671.706
687.425
703.014
718.373
733.435
748.124
762.371
776.135
789.396
802.15
814.405
826.193
837.592
848.713
859.69
870.525
881.24
891.865
902.377
912.725
922.843
932.739
942.407
951.838
961.028
969.972
978.669
987.119
995.32
1003.27
1010.96
1018.4
1025.59
1032.52
1039.19
1045.6
1051.73
1057.59
1063.18
1068.48
1073.49
1078.21
1082.64
1086.76
1090.57
1094.08
1097.26
1100.13
1102.67
1104.9
1106.81
1108.4
1109.67
1110.63
1111.28
1111.62
1111.64
1111.4
1110.84
1109.99
1108.86
1107.46
1105.78
1103.84
1101.65
1099.21
1096.54
1093.63
1090.49
1087.13
1083.56
1079.77
1075.77
1071.57
1067.17
1062.59
1057.81
1052.86
1047.73
1042.42
1036.96
1031.33
1025.56
1019.64
1013.58
1007.39
1001.06
994.625
988.088
981.456
974.736
967.933
961.053
954.104
947.092
940.022
932.9
925.73
918.533
911.32
904.102
896.888
889.686
882.502
875.345
868.221
861.142
854.122
847.178
840.325
833.58
826.953
820.475
814.179
807.145
11463.3
1852.34
744.453
489.44
399.568
359.813
340.28
329.971
324.711
322.601
322.378
324.851
329.544
335.963
343.681
352.361
361.787
371.738
381.968
392.327
402.958
413.108
421.823
429.039
434.979
440.119
444.19
447.43
449.996
452.097
453.901
455.51
456.828
457.913
458.827
459.625
460.368
461.117
461.933
462.83
463.693
464.959
466.954
469.919
473.918
478.879
484.815
491.842
499.923
509.073
519.309
530.6
542.9
556.181
570.425
585.574
601.693
618.552
636.01
653.958
672.289
690.891
709.643
728.419
747.059
765.452
783.52
801.148
818.215
834.606
850.21
864.959
878.843
891.899
904.163
915.639
926.37
936.544
946.398
956.412
966.366
976.292
986.314
996.34
1006.27
1016.05
1025.62
1034.95
1044.03
1052.84
1061.37
1069.64
1077.64
1085.36
1092.8
1099.97
1106.86
1113.48
1119.83
1125.91
1131.72
1137.24
1142.47
1147.4
1152.04
1156.38
1160.43
1164.16
1167.58
1170.68
1173.45
1175.9
1178
1179.77
1181.2
1182.31
1183.09
1183.53
1183.64
1183.45
1182.93
1182.07
1180.92
1179.46
1177.7
1175.65
1173.32
1170.71
1167.84
1164.72
1161.35
1157.75
1153.91
1149.85
1145.56
1141.06
1136.35
1131.44
1126.33
1121.03
1115.54
1109.86
1104.01
1097.99
1091.8
1085.46
1078.96
1072.31
1065.53
1058.62
1051.59
1044.46
1037.24
1029.93
1022.52
1015.03
1007.46
999.813
992.102
984.333
976.513
968.644
960.735
952.808
944.876
936.946
929.026
921.124
913.247
905.402
897.593
889.835
882.146
874.542
867.037
859.647
852.377
845.251
838.342
830.631
11463.3
1826.31
743.066
497.273
409.411
370.728
351.945
341.617
336.147
333.864
333.487
335.508
339.445
344.739
350.972
357.886
365.368
373.313
381.453
389.345
396.839
403.973
410.881
417.356
423.472
429.313
434.833
440.076
444.988
449.547
453.668
457.125
460.338
463.46
466.573
469.752
473.085
476.658
480.57
484.941
490.02
495.94
502.924
511.238
520.749
531.29
542.904
555.65
569.497
584.448
600.62
617.897
636.093
655.083
674.759
694.986
715.546
736.428
757.542
778.779
800.022
821.155
842.062
862.633
882.756
902.336
921.284
939.511
956.921
973.407
988.805
1003.04
1016.22
1028.48
1039.91
1050.57
1060.5
1069.74
1078.41
1086.76
1094.83
1102.9
1111.53
1120.31
1129.05
1137.67
1146.08
1154.22
1162.07
1169.63
1176.9
1183.89
1190.6
1197.01
1203.13
1208.97
1214.52
1219.81
1224.83
1229.59
1234.08
1238.29
1242.21
1245.84
1249.19
1252.25
1255.03
1257.5
1259.67
1261.52
1263.07
1264.27
1265.14
1265.68
1265.88
1265.77
1265.34
1264.55
1263.44
1262.02
1260.27
1258.21
1255.85
1253.2
1250.26
1247.04
1243.56
1239.81
1235.8
1231.55
1227.07
1222.35
1217.41
1212.26
1206.89
1201.33
1195.57
1189.61
1183.48
1177.16
1170.66
1164
1157.17
1150.18
1143.03
1135.73
1128.3
1120.73
1113.03
1105.21
1097.28
1089.28
1081.19
1073.01
1064.75
1056.41
1047.99
1039.5
1030.95
1022.36
1013.72
1005.05
996.385
987.714
979.044
970.383
961.737
953.114
944.522
935.971
927.462
919.015
910.65
902.382
894.22
886.179
878.266
870.492
862.977
854.631
11463.3
1809.48
743.93
502.357
415.859
378.136
359.595
349.107
343.472
341.033
340.54
342.264
345.848
350.771
356.615
363.154
370.205
377.605
385.295
393.35
401.373
409.299
417.222
425.118
433.029
441
449.037
457.158
465.191
473.165
481.134
489.255
497.534
506.055
514.906
524.179
533.975
544.395
555.536
567.507
580.442
594.352
609.22
624.872
641.317
658.653
676.92
696.16
716.323
737.252
758.727
780.853
803.506
826.476
849.596
872.732
895.734
918.508
940.95
962.952
984.436
1005.32
1025.56
1045.08
1063.84
1081.79
1098.9
1115.12
1130.44
1144.84
1158.34
1170.9
1182.43
1193.18
1203.27
1212.76
1221.67
1229.89
1237.45
1244.16
1250.48
1257.03
1263.74
1270.33
1276.7
1282.82
1288.67
1294.24
1299.53
1304.55
1309.32
1313.82
1318.07
1322.06
1325.79
1329.27
1332.52
1335.54
1338.36
1340.96
1343.33
1345.45
1347.34
1348.98
1350.38
1351.54
1352.46
1353.11
1353.5
1353.6
1353.46
1353
1352.21
1351.14
1349.78
1348.12
1346.17
1343.92
1341.36
1338.51
1335.38
1331.96
1328.27
1324.33
1320.13
1315.68
1311
1306.08
1300.94
1295.57
1289.99
1284.2
1278.22
1272.04
1265.68
1259.14
1252.43
1245.54
1238.49
1231.27
1223.9
1216.37
1208.69
1200.87
1192.9
1184.8
1176.57
1168.21
1159.73
1151.14
1142.43
1133.62
1124.72
1115.73
1106.66
1097.5
1088.27
1078.97
1069.62
1060.22
1050.78
1041.33
1031.89
1022.45
1013.01
1003.59
994.184
984.807
975.469
966.181
956.969
947.844
938.814
929.889
921.078
912.396
903.848
895.442
887.332
878.404
11463.3
1792.45
743.558
504.511
419.117
383.468
365.544
355.743
351.511
350.028
350.567
353.629
358.435
364.548
371.909
380.714
390.164
400.096
411.032
423.122
435.82
448.891
462.64
477.104
492.247
508.059
524.49
541.485
559.049
577.201
595.939
615.307
635.193
655.606
676.575
698.167
720.486
743.676
767.664
792.332
817.584
843.249
869.172
895.13
921.056
946.956
972.879
999.133
1025.64
1051.78
1077.14
1101.41
1124.61
1146.82
1168.05
1188.3
1207.54
1225.75
1242.91
1259.1
1274.29
1288.56
1301.89
1314.35
1325.92
1336.66
1346.5
1355.48
1363.64
1371.1
1378.03
1384.65
1390.97
1396.89
1402.33
1407.25
1411.59
1415.31
1418.77
1422.22
1425.99
1429.75
1432.8
1435.31
1437.46
1439.34
1441.02
1442.5
1443.82
1444.97
1445.96
1446.78
1447.44
1447.95
1448.3
1448.53
1448.62
1448.58
1448.45
1448.19
1447.8
1447.22
1446.5
1445.63
1444.6
1443.42
1442.06
1440.52
1438.77
1436.82
1434.65
1432.25
1429.62
1426.75
1423.64
1420.3
1416.72
1412.89