/*--------------------------------*- C++ -*----------------------------------*\
  =========                 |
  \\      /  F ield         | OpenFOAM: The Open Source CFD Toolbox
   \\    /   O peration     | Website:  https://openfoam.org
    \\  /    A nd           | Version:  8
     \\/     M anipulation  |
\*---------------------------------------------------------------------------*/
FoamFile
{
    version     2.0;
    format      ascii;
    class       surfaceScalarField;
    location    "1700";
    object      phi;
}
// * * * * * * * * * * * * * * * * * * * * * * * * * * * * * * * * * * * * * //

dimensions      [0 3 -1 0 0 0 0];

internalField   nonuniform List<scalar> 
24170
(
3.00025e-06
1.33633e-07
2.85333e-06
1.46798e-07
2.72622e-06
1.27053e-07
2.61434e-06
1.11896e-07
2.5162e-06
9.82937e-08
2.4327e-06
8.37543e-08
2.36509e-06
6.78505e-08
2.30887e-06
5.62071e-08
2.26243e-06
4.64354e-08
2.2236e-06
3.88364e-08
2.18963e-06
3.39505e-08
2.16062e-06
2.9021e-08
2.13619e-06
2.44035e-08
2.1165e-06
1.96477e-08
2.1006e-06
1.58623e-08
2.08889e-06
1.16751e-08
2.08183e-06
6.99256e-09
4.36895e-10
2.08138e-06
3.51467e-06
7.5443e-08
3.54896e-06
1.12743e-07
3.56216e-06
1.14066e-07
3.56135e-06
1.12846e-07
3.54631e-06
1.13484e-07
3.52146e-06
1.08709e-07
3.49046e-06
9.87844e-08
3.45547e-06
9.09398e-08
3.42054e-06
8.10912e-08
3.38619e-06
7.29456e-08
3.35259e-06
6.73686e-08
3.32141e-06
6.01117e-08
3.29467e-06
5.10728e-08
3.27113e-06
4.31706e-08
3.24866e-06
3.83232e-08
3.22675e-06
3.35844e-08
3.20589e-06
2.78483e-08
2.12109e-08
3.18514e-06
3.83274e-06
5.48913e-08
3.85181e-06
9.35183e-08
3.86634e-06
9.94359e-08
3.87826e-06
1.00933e-07
3.88859e-06
1.03212e-07
3.89615e-06
1.01293e-07
3.89959e-06
9.54181e-08
3.90087e-06
8.96529e-08
3.89956e-06
8.24088e-08
3.89634e-06
7.61769e-08
3.89244e-06
7.12713e-08
3.88755e-06
6.50156e-08
3.88142e-06
5.71917e-08
3.87442e-06
5.01601e-08
3.86753e-06
4.52004e-08
3.86055e-06
4.05431e-08
3.85307e-06
3.52878e-08
2.89536e-08
3.8453e-06
4.21641e-06
4.30534e-08
4.2297e-06
8.03536e-08
4.23957e-06
8.96671e-08
4.24783e-06
9.27664e-08
4.25594e-06
9.51516e-08
4.26333e-06
9.38857e-08
4.26925e-06
8.93616e-08
4.27455e-06
8.41342e-08
4.27869e-06
7.80716e-08
4.28206e-06
7.26298e-08
4.28538e-06
6.78193e-08
4.28815e-06
6.21462e-08
4.28971e-06
5.55653e-08
4.29034e-06
4.95013e-08
4.29091e-06
4.46189e-08
4.29144e-06
3.99987e-08
4.29161e-06
3.51054e-08
2.97294e-08
4.29086e-06
4.64607e-06
3.42869e-08
4.65728e-06
6.90078e-08
4.66608e-06
8.07959e-08
4.67353e-06
8.52923e-08
4.68074e-06
8.79667e-08
4.68738e-06
8.72634e-08
4.69308e-06
8.36663e-08
4.69826e-06
7.89515e-08
4.70272e-06
7.36281e-08
4.70675e-06
6.86252e-08
4.71075e-06
6.38369e-08
4.7144e-06
5.85109e-08
4.71725e-06
5.27038e-08
4.71948e-06
4.72695e-08
4.72157e-06
4.25155e-08
4.72356e-06
3.80012e-08
4.72523e-06
3.34176e-08
2.87221e-08
4.72615e-06
5.12153e-06
2.7351e-08
5.13141e-06
5.91802e-08
5.13984e-06
7.24165e-08
5.1473e-06
7.78737e-08
5.15447e-06
8.07906e-08
5.16108e-06
8.05827e-08
5.16689e-06
7.77125e-08
5.17212e-06
7.35507e-08
5.17676e-06
6.88396e-08
5.18104e-06
6.42178e-08
5.18518e-06
5.95976e-08
5.18897e-06
5.4636e-08
5.19218e-06
4.94378e-08
5.19492e-06
4.45002e-08
5.19745e-06
3.99706e-08
5.19979e-06
3.56515e-08
5.20179e-06
3.13886e-08
2.72749e-08
5.20328e-06
5.6465e-06
2.18441e-08
5.65531e-06
5.02534e-08
5.6635e-06
6.4165e-08
5.67105e-06
7.03146e-08
5.67837e-06
7.34489e-08
5.68519e-06
7.37409e-08
5.69129e-06
7.15788e-08
5.69679e-06
6.80305e-08
5.70175e-06
6.39003e-08
5.70634e-06
5.96492e-08
5.71067e-06
5.52789e-08
5.71464e-06
5.0668e-08
5.71811e-06
4.59602e-08
5.72118e-06
4.14254e-08
5.72399e-06
3.71658e-08
5.72653e-06
3.3098e-08
5.72874e-06
2.91842e-08
2.54544e-08
5.73051e-06
4.40933e-06
1.86138e-08
4.4151e-06
4.4475e-08
4.42094e-06
5.8336e-08
4.42643e-06
6.48233e-08
4.43175e-06
6.80929e-08
4.43676e-06
6.86509e-08
4.44131e-06
6.69127e-08
4.44544e-06
6.38049e-08
4.44919e-06
6.00751e-08
4.45267e-06
5.61122e-08
4.45592e-06
5.19785e-08
4.45891e-06
4.76443e-08
4.46158e-06
4.32549e-08
4.46398e-06
3.90009e-08
4.46617e-06
3.49689e-08
4.46815e-06
3.11181e-08
4.46987e-06
2.7447e-08
2.40021e-08
4.47131e-06
5.14278e-06
1.56847e-08
5.14851e-06
3.86617e-08
5.15461e-06
5.21906e-08
5.16052e-06
5.88779e-08
5.16633e-06
6.22429e-08
5.17187e-06
6.30596e-08
5.17699e-06
6.1742e-08
5.18167e-06
5.90936e-08
5.18598e-06
5.57676e-08
5.18996e-06
5.21249e-08
5.19367e-06
4.82629e-08
5.19707e-06
4.4236e-08
5.20014e-06
4.01719e-08
5.20292e-06
3.62241e-08
5.20544e-06
3.24426e-08
5.20771e-06
2.8854e-08
5.2097e-06
2.54512e-08
2.22646e-08
5.21141e-06
5.9984e-06
1.30514e-08
6.00398e-06
3.30411e-08
6.01027e-06
4.58685e-08
6.01656e-06
5.25581e-08
6.02283e-06
5.59255e-08
6.02889e-06
5.69354e-08
6.03458e-06
5.59985e-08
6.03986e-06
5.37866e-08
6.04474e-06
5.08686e-08
6.04928e-06
4.75758e-08
6.05349e-06
4.40429e-08
6.05735e-06
4.03629e-08
6.06086e-06
3.66589e-08
6.06404e-06
3.30263e-08
6.06693e-06
2.95645e-08
6.06953e-06
2.62461e-08
6.07184e-06
2.31344e-08
2.02264e-08
6.07385e-06
6.99659e-06
1.07197e-08
7.00192e-06
2.76501e-08
7.00833e-06
3.94082e-08
7.01495e-06
4.58893e-08
7.02164e-06
4.91808e-08
7.0282e-06
5.03138e-08
7.03445e-06
4.97041e-08
7.04032e-06
4.78964e-08
7.04579e-06
4.5383e-08
7.05088e-06
4.24622e-08
7.05562e-06
3.92988e-08
7.05997e-06
3.59972e-08
7.06394e-06
3.26648e-08
7.06756e-06
2.94097e-08
7.07085e-06
2.62582e-08
7.07383e-06
2.32816e-08
7.07647e-06
2.04633e-08
1.78697e-08
7.07882e-06
8.16108e-06
8.63778e-09
8.1661e-06
2.2575e-08
8.17255e-06
3.29089e-08
8.17944e-06
3.89468e-08
8.18652e-06
4.20537e-08
8.19356e-06
4.32293e-08
8.20036e-06
4.28886e-08
8.2068e-06
4.14506e-08
8.21286e-06
3.9324e-08
8.21853e-06
3.67994e-08
8.2238e-06
3.40202e-08
8.22866e-06
3.11273e-08
8.23312e-06
2.81868e-08
8.23719e-06
2.53169e-08
8.24091e-06
2.25369e-08
8.24427e-06
1.9904e-08
8.24731e-06
1.74289e-08
1.51362e-08
8.25e-06
9.51958e-06
6.76781e-09
9.52428e-06
1.78243e-08
9.53068e-06
2.64553e-08
9.53779e-06
3.17828e-08
9.54522e-06
3.45733e-08
9.55272e-06
3.57179e-08
9.56005e-06
3.55536e-08
9.56707e-06
3.44371e-08
9.57372e-06
3.26976e-08
9.57997e-06
3.05581e-08
9.58581e-06
2.82071e-08
9.59119e-06
2.57058e-08
9.59617e-06
2.32142e-08
9.60071e-06
2.07267e-08
9.6049e-06
1.83656e-08
9.60869e-06
1.60921e-08
9.61214e-06
1.39934e-08
1.20286e-08
9.61525e-06
1.11044e-05
5.05869e-09
1.11088e-05
1.33666e-08
1.11151e-05
2.0098e-08
1.11224e-05
2.4462e-08
1.11302e-05
2.68031e-08
1.11381e-05
2.7776e-08
1.11459e-05
2.77102e-08
1.11535e-05
2.68555e-08
1.11608e-05
2.54577e-08
1.11677e-05
2.37256e-08
1.11741e-05
2.17752e-08
1.11801e-05
1.97385e-08
1.11856e-05
1.76565e-08
1.11907e-05
1.56353e-08
1.11953e-05
1.36672e-08
1.11996e-05
1.18241e-08
1.12035e-05
1.00814e-08
8.49236e-09
1.12071e-05
1.29532e-05
3.46584e-09
1.29574e-05
9.12482e-09
1.29637e-05
1.38351e-08
1.29711e-05
1.70181e-08
1.29792e-05
1.87147e-08
1.29875e-05
1.94141e-08
1.29959e-05
1.93289e-08
1.30041e-05
1.86553e-08
1.3012e-05
1.75691e-08
1.30195e-05
1.62149e-08
1.30266e-05
1.46997e-08
1.30332e-05
1.31066e-08
1.30394e-05
1.14992e-08
1.3045e-05
9.92441e-09
1.30503e-05
8.4108e-09
1.30551e-05
6.98382e-09
1.30596e-05
5.65162e-09
4.42754e-09
1.30636e-05
1.511e-05
1.92915e-09
1.51141e-05
4.95986e-09
1.51204e-05
7.55277e-09
1.51281e-05
9.35225e-09
1.51365e-05
1.02497e-08
1.51454e-05
1.05297e-08
1.51544e-05
1.03303e-08
1.51633e-05
9.76609e-09
1.51719e-05
8.9474e-09
1.51801e-05
7.95954e-09
1.51879e-05
6.87635e-09
1.51952e-05
5.74931e-09
1.52021e-05
4.62296e-09
1.52085e-05
3.52531e-09
1.52144e-05
2.47926e-09
1.52199e-05
1.49964e-09
1.5225e-05
5.94234e-10
-2.31872e-10
1.52296e-05
1.7626e-05
3.58016e-10
1.76303e-05
6.42921e-10
1.76369e-05
9.87356e-10
1.7645e-05
1.23131e-09
1.76541e-05
1.16058e-09
1.76637e-05
9.26331e-10
1.76734e-05
5.2625e-10
1.76832e-05
3.0702e-11
1.76926e-05
-5.60222e-10
1.77018e-05
-1.17951e-09
1.77104e-05
-1.83497e-09
1.77186e-05
-2.4727e-09
1.77264e-05
-3.10484e-09
1.77336e-05
-3.69262e-09
1.77403e-05
-4.24857e-09
1.77465e-05
-4.7462e-09
1.77523e-05
-5.19977e-09
-5.59338e-09
1.77577e-05
1.78277e-05
-1.1775e-09
1.78319e-05
-3.59973e-09
1.78383e-05
-5.41207e-09
1.78462e-05
-6.70376e-09
1.78551e-05
-7.70118e-09
1.78644e-05
-8.47131e-09
1.7874e-05
-9.04524e-09
1.78835e-05
-9.52209e-09
1.78928e-05
-9.86781e-09
1.79018e-05
-1.0176e-08
1.79104e-05
-1.03943e-08
1.79184e-05
-1.06002e-08
1.79261e-05
-1.07349e-08
1.79332e-05
-1.08622e-08
1.79399e-05
-1.09295e-08
1.79461e-05
-1.09873e-08
1.7952e-05
-1.09927e-08
-1.09867e-08
1.79573e-05
1.58828e-05
-2.63896e-09
1.58868e-05
-7.62277e-09
1.58927e-05
-1.13862e-08
1.59e-05
-1.39922e-08
1.5908e-05
-1.57881e-08
1.59165e-05
-1.69503e-08
1.59251e-05
-1.76854e-08
1.59337e-05
-1.80547e-08
1.59419e-05
-1.82086e-08
1.59499e-05
-1.81636e-08
1.59575e-05
-1.80324e-08
1.59648e-05
-1.77949e-08
1.59715e-05
-1.7531e-08
1.59779e-05
-1.7207e-08
1.59838e-05
-1.68816e-08
1.59893e-05
-1.65181e-08
1.59945e-05
-1.61632e-08
-1.57806e-08
1.59993e-05
1.41502e-05
-4.13473e-09
1.41542e-05
-1.17153e-08
1.41601e-05
-1.73004e-08
1.41671e-05
-2.10351e-08
1.41748e-05
-2.34455e-08
1.41827e-05
-2.49198e-08
1.41907e-05
-2.56881e-08
1.41985e-05
-2.5944e-08
1.42061e-05
-2.58159e-08
1.42134e-05
-2.54553e-08
1.42203e-05
-2.49277e-08
1.42268e-05
-2.43095e-08
1.42329e-05
-2.3628e-08
1.42386e-05
-2.29239e-08
1.42439e-05
-2.22042e-08
1.42488e-05
-2.1493e-08
1.42535e-05
-2.07854e-08
-2.00966e-08
1.42578e-05
1.26067e-05
-5.76568e-09
1.2611e-05
-1.61021e-08
1.26171e-05
-2.33951e-08
1.26241e-05
-2.80333e-08
1.26315e-05
-3.08961e-08
1.26392e-05
-3.25484e-08
1.26467e-05
-3.32803e-08
1.26541e-05
-3.33209e-08
1.26611e-05
-3.28926e-08
1.26678e-05
-3.21712e-08
1.26741e-05
-3.12559e-08
1.268e-05
-3.02465e-08
1.26856e-05
-2.91692e-08
1.26907e-05
-2.80948e-08
1.26955e-05
-2.70139e-08
1.27e-05
-2.59743e-08
1.27042e-05
-2.49527e-08
-2.39773e-08
1.2708e-05
1.12317e-05
-7.65049e-09
1.12366e-05
-2.10016e-08
1.1243e-05
-2.98218e-08
1.12501e-05
-3.50861e-08
1.12574e-05
-3.82356e-08
1.12648e-05
-3.99549e-08
1.1272e-05
-4.05446e-08
1.1279e-05
-4.03018e-08
1.12856e-05
-3.95237e-08
1.12918e-05
-3.84122e-08
1.12976e-05
-3.71102e-08
1.13031e-05
-3.5691e-08
1.13081e-05
-3.42482e-08
1.13128e-05
-3.27937e-08
1.13172e-05
-3.13947e-08
1.13213e-05
-3.00246e-08
1.1325e-05
-2.87357e-08
-2.74813e-08
1.13285e-05
1.00069e-05
-9.96012e-09
1.00125e-05
-2.66017e-08
1.00193e-05
-3.66428e-08
1.00265e-05
-4.22315e-08
1.00338e-05
-4.55194e-08
1.0041e-05
-4.71953e-08
1.0048e-05
-4.75375e-08
1.00546e-05
-4.69418e-08
1.00609e-05
-4.57731e-08
1.00667e-05
-4.42592e-08
1.00721e-05
-4.25444e-08
1.00771e-05
-4.07367e-08
1.00818e-05
-3.8906e-08
1.00861e-05
-3.71142e-08
1.00901e-05
-3.5378e-08
1.00937e-05
-3.37332e-08
1.00972e-05
-3.21598e-08
-3.0683e-08
1.01003e-05
8.91607e-06
-1.29351e-08
8.92254e-06
-3.30706e-08
8.92975e-06
-4.38485e-08
8.93698e-06
-4.94714e-08
8.94424e-06
-5.27853e-08
8.95135e-06
-5.43061e-08
8.95812e-06
-5.43073e-08
8.96448e-06
-5.33038e-08
8.97041e-06
-5.17122e-08
8.97591e-06
-4.97698e-08
8.98099e-06
-4.76359e-08
8.98567e-06
-4.54254e-08
8.98998e-06
-4.32242e-08
8.99394e-06
-4.10876e-08
8.99759e-06
-3.905e-08
9.00097e-06
-3.71192e-08
9.0041e-06
-3.53075e-08
-3.35976e-08
9.00703e-06
7.94463e-06
-1.68948e-08
7.95211e-06
-4.05561e-08
7.95968e-06
-5.14174e-08
7.96703e-06
-5.68262e-08
7.97434e-06
-6.00959e-08
7.98139e-06
-6.1364e-08
7.98803e-06
-6.09428e-08
7.9942e-06
-5.94766e-08
7.99992e-06
-5.74267e-08
8.00518e-06
-5.50377e-08
8.01e-06
-5.24677e-08
8.01442e-06
-4.98477e-08
8.01846e-06
-4.72684e-08
8.02215e-06
-4.47926e-08
8.02555e-06
-4.24478e-08
8.02867e-06
-4.0255e-08
8.03156e-06
-3.82083e-08
-3.629e-08
8.03424e-06
7.07963e-06
-2.21984e-08
7.0884e-06
-4.93213e-08
7.09648e-06
-5.95007e-08
7.10415e-06
-6.45063e-08
7.1117e-06
-6.76471e-08
7.1189e-06
-6.85623e-08
7.1256e-06
-6.76434e-08
7.1318e-06
-6.56626e-08
7.1375e-06
-6.31327e-08
7.14271e-06
-6.02493e-08
7.14745e-06
-5.72124e-08
7.15175e-06
-5.41533e-08
7.15565e-06
-5.11689e-08
7.15919e-06
-4.83352e-08
7.1624e-06
-4.56708e-08
7.16533e-06
-4.31957e-08
7.16803e-06
-4.09136e-08
-3.87996e-08
7.17052e-06
6.31004e-06
-2.97319e-08
6.32075e-06
-6.00441e-08
6.33005e-06
-6.87861e-08
6.33887e-06
-7.33335e-08
6.34746e-06
-7.62374e-08
6.35551e-06
-7.66167e-08
6.36292e-06
-7.50481e-08
6.36969e-06
-7.2449e-08
6.37586e-06
-6.92761e-08
6.3814e-06
-6.57932e-08
6.38635e-06
-6.21668e-08
6.39074e-06
-5.85471e-08
6.39461e-06
-5.50562e-08
6.39801e-06
-5.17335e-08
6.40099e-06
-4.86538e-08
6.40361e-06
-4.58209e-08
6.40591e-06
-4.32268e-08
-4.08494e-08
6.40795e-06
5.62922e-06
-4.40582e-08
5.64461e-06
-7.54449e-08
5.65833e-06
-8.24985e-08
5.67158e-06
-8.65866e-08
5.684e-06
-8.86639e-08
5.69511e-06
-8.7726e-08
5.70479e-06
-8.47328e-08
5.71304e-06
-8.07086e-08
5.71991e-06
-7.61408e-08
5.72544e-06
-7.132e-08
5.72972e-06
-6.64472e-08
5.73285e-06
-6.16934e-08
5.73494e-06
-5.7154e-08
5.73612e-06
-5.29145e-08
5.73651e-06
-4.90431e-08
5.73625e-06
-4.55691e-08
5.73549e-06
-4.24735e-08
-3.99481e-08
5.73457e-06
5.04855e-06
-9.03029e-08
5.08445e-06
-1.11364e-07
5.1112e-06
-1.09244e-07
5.12998e-06
-1.05367e-07
5.14107e-06
-9.9761e-08
5.14536e-06
-9.20226e-08
5.14403e-06
-8.34109e-08
5.1382e-06
-7.48841e-08
5.12885e-06
-6.67814e-08
5.11682e-06
-5.92837e-08
5.10279e-06
-5.24313e-08
5.08733e-06
-4.62454e-08
5.07089e-06
-4.07264e-08
5.05383e-06
-3.58571e-08
5.03642e-06
-3.16434e-08
5.01902e-06
-2.81676e-08
5.00197e-06
-2.54375e-08
-2.37501e-08
4.98577e-06
4.36625e-06
4.25488e-06
4.14564e-06
4.04027e-06
3.94051e-06
3.84849e-06
3.76507e-06
3.69019e-06
3.62341e-06
3.56413e-06
3.51169e-06
3.46544e-06
3.42472e-06
3.38886e-06
3.35721e-06
3.32904e-06
3.3036e-06
3.27985e-06
-8.28051e-09
8.2866e-09
-2.23839e-08
1.4115e-08
-3.77965e-08
1.5424e-08
-5.10566e-08
1.32724e-08
-5.69996e-08
5.95452e-09
-4.95506e-08
-7.43414e-09
-2.66193e-08
-2.29224e-08
9.45278e-09
-3.60539e-08
5.45008e-08
-4.50452e-08
1.03738e-07
-4.92202e-08
1.52649e-07
-4.89176e-08
1.98175e-07
-4.55087e-08
2.38235e-07
-4.00688e-08
2.71644e-07
-3.33877e-08
2.97624e-07
-2.59935e-08
3.1584e-07
-1.81886e-08
3.25937e-07
-1.01122e-08
3.27689e-07
-1.71659e-09
3.20787e-07
6.8847e-09
3.05504e-07
1.53228e-08
2.82305e-07
2.31743e-08
2.52283e-07
3.00623e-08
2.16682e-07
3.5575e-08
1.77453e-07
3.92612e-08
1.36759e-07
4.06598e-08
9.73317e-08
3.94418e-08
6.17466e-08
3.55426e-08
3.23447e-08
2.93963e-08
1.02698e-08
2.20166e-08
-4.44798e-09
1.47021e-08
-1.27754e-08
8.26064e-09
-1.51191e-08
2.34231e-09
-1.1453e-08
-3.73163e-09
-5.34158e-10
-1.09023e-08
1.89818e-08
-1.95666e-08
4.74128e-08
-2.84175e-08
8.11486e-08
-3.37628e-08
1.14226e-07
-3.30807e-08
1.41032e-07
-2.68089e-08
1.58113e-07
-1.70905e-08
1.65301e-07
-7.16921e-09
1.65205e-07
9.86688e-11
1.61353e-07
3.88177e-09
1.57277e-07
4.09832e-09
1.55537e-07
1.79211e-09
1.51e-07
4.58317e-09
1.34093e-07
1.69467e-08
9.68206e-08
3.73824e-08
3.30396e-08
6.3774e-08
-5.47869e-08
8.79876e-08
-1.61923e-07
1.07134e-07
-2.85113e-07
1.23288e-07
-4.21289e-07
1.36187e-07
-5.65783e-07
1.44511e-07
-7.13383e-07
1.47609e-07
-8.5998e-07
1.46579e-07
-1.00314e-06
1.43178e-07
-1.14094e-06
1.37774e-07
-1.27053e-06
1.29618e-07
-1.39059e-06
1.20026e-07
-1.50147e-06
1.10915e-07
-1.6037e-06
1.022e-07
-1.69702e-06
9.33512e-08
-1.78235e-06
8.53051e-08
-1.86076e-06
7.84424e-08
-1.93298e-06
7.21942e-08
-1.99961e-06
6.66646e-08
-2.0614e-06
6.17828e-08
-2.11888e-06
5.75009e-08
-2.1726e-06
5.3717e-08
-2.22294e-06
5.03738e-08
-2.27032e-06
4.73807e-08
-2.31499e-06
4.46915e-08
-2.35721e-06
4.22432e-08
-2.39718e-06
3.99956e-08
-2.43506e-06
3.79109e-08
-2.471e-06
3.59577e-08
-2.50508e-06
3.41165e-08
-2.53743e-06
3.23606e-08
-2.56807e-06
3.06841e-08
-2.59714e-06
2.90623e-08
-2.6246e-06
2.74982e-08
-2.65058e-06
2.59683e-08
-2.67503e-06
2.44815e-08
-2.69806e-06
2.30161e-08
-2.71962e-06
2.15846e-08
-2.73978e-06
2.01675e-08
-2.75854e-06
1.87744e-08
-2.77594e-06
1.73844e-08
-2.79195e-06
1.60004e-08
-2.80654e-06
1.46022e-08
-2.81968e-06
1.31919e-08
-2.83138e-06
1.17527e-08
-2.84161e-06
1.02781e-08
-2.85033e-06
8.75532e-09
-2.85749e-06
7.17436e-09
-2.86302e-06
5.52846e-09
-2.86683e-06
3.79949e-09
-2.86885e-06
1.99986e-09
-2.86908e-06
2.03654e-10
-2.86772e-06
-1.3826e-09
-2.86496e-06
-2.77441e-09
-2.86086e-06
-4.10869e-09
-2.85544e-06
-5.43302e-09
-2.84868e-06
-6.75181e-09
-2.8406e-06
-8.07955e-09
-2.83117e-06
-9.40438e-09
-2.82041e-06
-1.0736e-08
-2.80831e-06
-1.20628e-08
-2.79488e-06
-1.33908e-08
-2.78011e-06
-1.47119e-08
-2.76402e-06
-1.60278e-08
-2.74662e-06
-1.73348e-08
-2.72792e-06
-1.863e-08
-2.70794e-06
-1.99149e-08
-2.68668e-06
-2.11816e-08
-2.66417e-06
-2.24369e-08
-2.64043e-06
-2.36683e-08
-2.61548e-06
-2.48875e-08
-2.58933e-06
-2.60781e-08
-2.56203e-06
-2.72557e-08
-2.53357e-06
-2.84017e-08
-2.50401e-06
-2.95337e-08
-2.47334e-06
-3.06325e-08
-2.44161e-06
-3.17165e-08
-2.40883e-06
-3.27672e-08
-2.37505e-06
-3.38019e-08
-2.34026e-06
-3.48018e-08
-2.30451e-06
-3.578e-08
-2.26783e-06
-3.67206e-08
-2.23024e-06
-3.7642e-08
-2.19176e-06
-3.85311e-08
-2.15243e-06
-3.93849e-08
-2.11229e-06
-4.01929e-08
-2.0714e-06
-4.09427e-08
-2.02983e-06
-4.16258e-08
-1.98763e-06
-4.22484e-08
-1.9447e-06
-4.29801e-08
-1.901e-06
-4.376e-08
-1.85663e-06
-4.44423e-08
-1.81162e-06
-4.50888e-08
-1.766e-06
-4.57053e-08
-1.71979e-06
-4.62792e-08
-1.67302e-06
-4.68278e-08
-1.62571e-06
-4.73377e-08
-1.5779e-06
-4.78268e-08
-1.52958e-06
-4.8277e-08
-1.48081e-06
-4.87135e-08
-1.43161e-06
-4.91177e-08
-1.38202e-06
-4.9512e-08
-1.33206e-06
-4.98836e-08
-1.28175e-06
-5.02336e-08
-1.23113e-06
-5.05579e-08
-1.18022e-06
-5.08513e-08
-1.12904e-06
-5.112e-08
-1.07763e-06
-5.13637e-08
-1.02599e-06
-5.15879e-08
-9.74156e-07
-5.17969e-08
-9.22127e-07
-5.19948e-08
-8.69914e-07
-5.2185e-08
-8.17522e-07
-5.23703e-08
-7.64957e-07
-5.25503e-08
-7.12223e-07
-5.27246e-08
-6.59331e-07
-5.28896e-08
-6.06288e-07
-5.30473e-08
-5.53099e-07
-5.31965e-08
-4.9977e-07
-5.33434e-08
-4.46297e-07
-5.3488e-08
-3.92684e-07
-5.3635e-08
-3.38926e-07
-5.37798e-08
-2.85036e-07
-5.39172e-08
-2.31041e-07
-5.40225e-08
-1.77004e-07
-5.40703e-08
-1.23035e-07
-5.40018e-08
-6.93396e-08
-5.37332e-08
-1.63762e-08
-5.29988e-08
3.52449e-08
-5.16606e-08
8.38021e-08
-4.85896e-08
1.28467e-07
-4.46951e-08
-1.97118e-08
1.4816e-07
-3.47969e-09
1.17783e-08
-9.6601e-09
2.03218e-08
-1.25649e-08
1.83556e-08
-5.07921e-09
5.81724e-09
1.78496e-08
-1.69525e-08
5.54437e-08
-4.501e-08
1.03223e-07
-7.06935e-08
1.55613e-07
-8.84322e-08
2.07439e-07
-9.68678e-08
2.55435e-07
-9.72056e-08
2.9809e-07
-9.15747e-08
3.34734e-07
-8.21422e-08
3.65234e-07
-7.05719e-08
3.89821e-07
-5.79608e-08
4.08792e-07
-4.49694e-08
4.22576e-07
-3.19562e-08
4.31552e-07
-1.90939e-08
4.36327e-07
-6.46901e-09
4.3725e-07
5.95427e-09
4.34303e-07
1.82895e-08
4.26967e-07
3.05003e-08
4.14697e-07
4.23506e-08
3.96857e-07
5.34038e-08
3.73121e-07
6.30081e-08
3.43436e-07
7.03315e-08
3.0841e-07
7.44689e-08
2.69294e-07
7.46388e-08
2.28228e-07
7.04566e-08
1.88093e-07
6.2119e-08
1.52458e-07
5.03279e-08
1.24763e-07
3.59067e-08
1.07659e-07
1.94421e-08
1.02621e-07
1.25462e-09
1.09523e-07
-1.77943e-08
1.26456e-07
-3.65304e-08
1.48608e-07
-5.0561e-08
1.68864e-07
-5.40282e-08
1.81925e-07
-4.61432e-08
1.85787e-07
-3.06679e-08
1.80269e-07
-1.15776e-08
1.66568e-07
6.54486e-09
1.46602e-07
2.0065e-08
1.16221e-07
3.43001e-08
6.53722e-08
5.49649e-08
-1.54776e-08
8.27038e-08
-1.28245e-07
1.17394e-07
-2.65193e-07
1.53932e-07
-4.16099e-07
1.88329e-07
-5.725e-07
2.20199e-07
-7.31494e-07
2.47022e-07
-8.90914e-07
2.66575e-07
-1.04676e-06
2.79158e-07
-1.19528e-06
2.84729e-07
-1.33375e-06
2.82985e-07
-1.46047e-06
2.74338e-07
-1.5745e-06
2.60606e-07
-1.6755e-06
2.44187e-07
-1.76427e-06
2.26532e-07
-1.84278e-06
2.08136e-07
-1.91274e-06
1.8998e-07
-1.975e-06
1.73184e-07
-2.03082e-06
1.58017e-07
-2.08173e-06
1.44272e-07
-2.12851e-06
1.32073e-07
-2.1716e-06
1.21546e-07
-2.21177e-06
1.12361e-07
-2.24944e-06
1.04346e-07
-2.28498e-06
9.73214e-08
-2.3186e-06
9.11364e-08
-2.35052e-06
8.5639e-08
-2.38085e-06
8.07136e-08
-2.40971e-06
7.62514e-08
-2.43717e-06
7.21674e-08
-2.46329e-06
6.83876e-08
-2.48814e-06
6.48566e-08
-2.51173e-06
6.15261e-08
-2.53411e-06
5.83586e-08
-2.55529e-06
5.53256e-08
-2.57532e-06
5.2401e-08
-2.59418e-06
4.9569e-08
-2.61192e-06
4.68098e-08
-2.62852e-06
4.41153e-08
-2.64402e-06
4.14694e-08
-2.6584e-06
3.88691e-08
-2.67168e-06
3.63006e-08
-2.68385e-06
3.3764e-08
-2.69492e-06
3.12472e-08
-2.70489e-06
2.87474e-08
-2.71377e-06
2.62565e-08
-2.72154e-06
2.3758e-08
-2.72817e-06
2.12495e-08
-2.73367e-06
1.87237e-08
-2.73805e-06
1.61705e-08
-2.74132e-06
1.3589e-08
-2.74352e-06
1.09727e-08
-2.74467e-06
8.32792e-09
-2.74481e-06
5.66036e-09
-2.74401e-06
2.98924e-09
-2.74238e-06
3.48107e-10
-2.73996e-06
-2.23045e-09
-2.73658e-06
-4.78275e-09
-2.73201e-06
-7.35906e-09
-2.72618e-06
-9.9485e-09
-2.71907e-06
-1.25493e-08
-2.71067e-06
-1.51595e-08
-2.70096e-06
-1.77817e-08
-2.68994e-06
-2.04087e-08
-2.67761e-06
-2.30423e-08
-2.66397e-06
-2.56731e-08
-2.64903e-06
-2.83022e-08
-2.63278e-06
-3.09203e-08
-2.61523e-06
-3.35275e-08
-2.5964e-06
-3.61156e-08
-2.5763e-06
-3.86834e-08
-2.55493e-06
-4.12247e-08
-2.53233e-06
-4.37369e-08
-2.50849e-06
-4.62163e-08
-2.48345e-06
-4.86588e-08
-2.45722e-06
-5.10638e-08
-2.42983e-06
-5.34253e-08
-2.4013e-06
-5.5746e-08
-2.37165e-06
-5.80182e-08
-2.34091e-06
-6.02474e-08
-2.3091e-06
-6.24249e-08
-2.27625e-06
-6.45578e-08
-2.24238e-06
-6.66371e-08
-2.20752e-06
-6.86705e-08
-2.17168e-06
-7.06471e-08
-2.13491e-06
-7.25726e-08
-2.09723e-06
-7.44375e-08
-2.05865e-06
-7.62502e-08
-2.01922e-06
-7.80032e-08
-1.97894e-06
-7.96967e-08
-1.93785e-06
-8.13203e-08
-1.89595e-06
-8.28776e-08
-1.85324e-06
-8.43616e-08
-1.80973e-06
-8.57948e-08
-1.7655e-06
-8.72432e-08
-1.72062e-06
-8.86752e-08
-1.67508e-06
-9.00262e-08
-1.62891e-06
-9.13126e-08
-1.58213e-06
-9.2535e-08
-1.53476e-06
-9.36893e-08
-1.48684e-06
-9.47838e-08
-1.43837e-06
-9.58165e-08
-1.3894e-06
-9.67932e-08
-1.33994e-06
-9.77106e-08
-1.29002e-06
-9.8584e-08
-1.23967e-06
-9.94091e-08
-1.18893e-06
-1.00199e-07
-1.13781e-06
-1.0095e-07
-1.08635e-06
-1.0165e-07
-1.03457e-06
-1.02299e-07
-9.82494e-07
-1.02888e-07
-9.30153e-07
-1.03425e-07
-8.77572e-07
-1.03913e-07
-8.24771e-07
-1.04361e-07
-7.71766e-07
-1.04778e-07
-7.18569e-07
-1.05172e-07
-6.6519e-07
-1.0555e-07
-6.11632e-07
-1.05916e-07
-5.57902e-07
-1.06275e-07
-5.04004e-07
-1.0662e-07
-4.49946e-07
-1.06951e-07
-3.95734e-07
-1.07265e-07
-3.41375e-07
-1.07568e-07
-2.8687e-07
-1.07862e-07
-2.3222e-07
-1.08156e-07
-1.77423e-07
-1.0845e-07
-1.22479e-07
-1.08745e-07
-6.73959e-08
-1.09022e-07
-1.21963e-08
-1.09247e-07
4.30728e-08
-1.09364e-07
9.8318e-08
-1.09273e-07
1.53347e-07
-1.08789e-07
2.07911e-07
-1.0759e-07
2.61355e-07
-1.05132e-07
3.13091e-07
-1.00353e-07
3.59824e-07
-9.14525e-08
-6.42242e-08
4.04318e-07
4.67677e-10
1.13239e-08
4.19472e-09
1.66252e-08
1.91151e-08
3.45938e-09
5.30119e-08
-2.80614e-08
1.04365e-07
-6.82961e-08
1.63398e-07
-1.04034e-07
2.20195e-07
-1.27486e-07
2.69214e-07
-1.37443e-07
3.08817e-07
-1.36469e-07
3.39729e-07
-1.28109e-07
3.63537e-07
-1.15383e-07
3.81803e-07
-1.00399e-07
3.95692e-07
-8.44623e-08
4.06046e-07
-6.83038e-08
4.1338e-07
-5.23053e-08
4.1809e-07
-3.66532e-08
4.20428e-07
-2.14331e-08
4.20664e-07
-6.69001e-09
4.19056e-07
7.55836e-09
4.16005e-07
2.13543e-08
4.1175e-07
3.47493e-08
4.06379e-07
4.77326e-08
3.99602e-07
6.01731e-08
3.9087e-07
7.17463e-08
3.79313e-07
8.18778e-08
3.64056e-07
8.97283e-08
3.44438e-07
9.42442e-08
3.20568e-07
9.43218e-08
2.93568e-07
8.91041e-08
2.65716e-07
7.81735e-08
2.39921e-07
6.16812e-08
2.19014e-07
4.03479e-08
2.04672e-07
1.55818e-08
1.97099e-07
-1.02151e-08
1.92247e-07
-3.16835e-08
1.82746e-07
-4.10548e-08
1.6421e-07
-3.54917e-08
1.36482e-07
-1.84133e-08
1.00389e-07
5.42572e-09
5.42425e-08
3.45617e-08
-7.28114e-09
6.80751e-08
-9.13784e-08
1.0416e-07
-2.00564e-07
1.43497e-07
-3.31861e-07
1.86267e-07
-4.79256e-07
2.30111e-07
-6.33723e-07
2.71874e-07
-7.88665e-07
3.08887e-07
-9.39209e-07
3.38894e-07
-1.07996e-06
3.60968e-07
-1.20773e-06
3.74816e-07
-1.32146e-06
3.80319e-07
-1.42042e-06
3.78135e-07
-1.50486e-06
3.69185e-07
-1.57644e-06
3.54571e-07
-1.63782e-06
3.35726e-07
-1.69153e-06
3.14317e-07
-1.73929e-06
2.91951e-07
-1.78256e-06
2.69804e-07
-1.82291e-06
2.48491e-07
-1.86144e-06
2.28508e-07
-1.89848e-06
2.1023e-07
-1.93425e-06
1.93787e-07
-1.9691e-06
1.79119e-07
-2.00311e-06
1.6608e-07
-2.03615e-06
1.54593e-07
-2.06825e-06
1.44456e-07
-2.09937e-06
1.35472e-07
-2.1295e-06
1.27463e-07
-2.15863e-06
1.20272e-07
-2.18675e-06
1.1376e-07
-2.21383e-06
1.07808e-07
-2.23988e-06
1.02312e-07
-2.26489e-06
9.71906e-08
-2.28887e-06
9.23734e-08
-2.3118e-06
8.78031e-08
-2.33369e-06
8.34348e-08
-2.35455e-06
7.92313e-08
-2.37437e-06
7.51638e-08
-2.39316e-06
7.12081e-08
-2.41092e-06
6.73462e-08
-2.42767e-06
6.35613e-08
-2.44338e-06
5.98419e-08
-2.45809e-06
5.61755e-08
-2.47177e-06
5.25543e-08
-2.48443e-06
4.89684e-08
-2.49607e-06
4.54124e-08
-2.5067e-06
4.18768e-08
-2.5163e-06
3.83568e-08
-2.52489e-06
3.48399e-08
-2.53246e-06
3.13196e-08
-2.53898e-06
2.77841e-08
-2.54447e-06
2.42268e-08
-2.54891e-06
2.0646e-08
-2.55234e-06
1.70344e-08
-2.55475e-06
1.33925e-08
-2.55615e-06
9.72469e-09
-2.55654e-06
6.0372e-09
-2.55591e-06
2.3445e-09
-2.55424e-06
-1.34591e-09
-2.55145e-06
-5.03482e-09
-2.54749e-06
-8.7578e-09
-2.54233e-06
-1.25268e-08
-2.53596e-06
-1.63357e-08
-2.52834e-06
-2.01708e-08
-2.51947e-06
-2.40321e-08
-2.50934e-06
-2.79095e-08
-2.49794e-06
-3.18017e-08
-2.48527e-06
-3.56992e-08
-2.47132e-06
-3.95986e-08
-2.45611e-06
-4.34912e-08
-2.43963e-06
-4.73716e-08
-2.42189e-06
-5.12327e-08
-2.4029e-06
-5.50676e-08
-2.38267e-06
-5.88708e-08
-2.36122e-06
-6.26345e-08
-2.33856e-06
-6.6355e-08
-2.31471e-06
-7.00245e-08
-2.28969e-06
-7.36413e-08
-2.26351e-06
-7.71981e-08
-2.23621e-06
-8.06946e-08
-2.20779e-06
-8.41249e-08
-2.1783e-06
-8.74895e-08
-2.14774e-06
-9.07837e-08
-2.11614e-06
-9.40083e-08
-2.08352e-06
-9.71599e-08
-2.04992e-06
-1.00239e-07
-2.01535e-06
-1.03244e-07
-1.97983e-06
-1.06172e-07
-1.94339e-06
-1.09022e-07
-1.90606e-06
-1.11791e-07
-1.86786e-06
-1.14479e-07
-1.8288e-06
-1.17084e-07
-1.78892e-06
-1.19603e-07
-1.74824e-06
-1.22032e-07
-1.70677e-06
-1.24375e-07
-1.66452e-06
-1.26633e-07
-1.62152e-06
-1.28821e-07
-1.57783e-06
-1.30966e-07
-1.53348e-06
-1.33052e-07
-1.4885e-06
-1.35051e-07
-1.44289e-06
-1.36964e-07
-1.39669e-06
-1.38785e-07
-1.3499e-06
-1.40512e-07
-1.30256e-06
-1.42152e-07
-1.25469e-06
-1.43703e-07
-1.20631e-06
-1.4517e-07
-1.15746e-06
-1.46552e-07
-1.10815e-06
-1.47865e-07
-1.05842e-06
-1.49109e-07
-1.00831e-06
-1.50295e-07
-9.57817e-07
-1.51419e-07
-9.06983e-07
-1.52469e-07
-8.55829e-07
-1.53438e-07
-8.04384e-07
-1.5432e-07
-7.52674e-07
-1.55122e-07
-7.00725e-07
-1.55852e-07
-6.48556e-07
-1.56521e-07
-5.96185e-07
-1.57142e-07
-5.43623e-07
-1.57726e-07
-4.90882e-07
-1.58286e-07
-4.37965e-07
-1.58828e-07
-3.84879e-07
-1.59356e-07
-3.31629e-07
-1.59867e-07
-2.7822e-07
-1.60356e-07
-2.24659e-07
-1.60823e-07
-1.70951e-07
-1.61273e-07
-1.17098e-07
-1.61712e-07
-6.30994e-08
-1.62152e-07
-8.95167e-09
-1.62596e-07
4.53471e-08
-1.6304e-07
9.97877e-08
-1.63461e-07
1.54354e-07
-1.63809e-07
2.08997e-07
-1.64005e-07
2.63635e-07
-1.63908e-07
3.18134e-07
-1.63287e-07
3.72288e-07
-1.61742e-07
4.25738e-07
-1.58582e-07
4.78064e-07
-1.52678e-07
5.28329e-07
-1.41716e-07
-1.1589e-07
5.79998e-07
-1.01418e-10
1.14392e-08
1.32265e-08
3.32697e-09
5.37353e-08
-3.70346e-08
1.16487e-07
-9.08021e-08
1.8395e-07
-1.35754e-07
2.41901e-07
-1.61978e-07
2.84803e-07
-1.70384e-07
3.13642e-07
-1.66275e-07
3.32054e-07
-1.54879e-07
3.43736e-07
-1.39784e-07
3.5136e-07
-1.23006e-07
3.56538e-07
-1.05568e-07
3.6006e-07
-8.79839e-08
3.62288e-07
-7.05222e-08
3.6332e-07
-5.33366e-08
3.63206e-07
-3.65277e-08
3.61944e-07
-2.01706e-08
3.59595e-07
-4.32783e-09
3.56207e-07
1.09459e-08
3.5195e-07
2.56237e-08
3.47016e-07
3.9681e-08
3.41673e-07
5.30856e-08
3.36072e-07
6.57693e-08
3.30255e-07
7.75702e-08
3.23965e-07
8.81617e-08
3.16712e-07
9.69828e-08
3.07748e-07
1.032e-07
2.96368e-07
1.05705e-07
2.82144e-07
1.03316e-07
2.6523e-07
9.5092e-08
2.46493e-07
8.04085e-08
2.27293e-07
5.95577e-08
2.08204e-07
3.46625e-08
1.8598e-07
1.20216e-08
1.53575e-07
7.15856e-10
1.0799e-07
4.53895e-09
5.02998e-08
2.21935e-08
-2.01263e-08
5.20088e-08
-1.06091e-07
9.13862e-08
-2.08801e-07
1.37266e-07
-3.2725e-07
1.86521e-07
-4.59369e-07
2.36276e-07
-6.00407e-07
2.84536e-07
-7.43826e-07
3.29687e-07
-8.83484e-07
3.69772e-07
-1.01381e-06
4.02208e-07
-1.1306e-06
4.25688e-07
-1.23217e-06
4.40469e-07
-1.31798e-06
4.46797e-07
-1.38862e-06
4.4547e-07
-1.44589e-06
4.37606e-07
-1.4921e-06
4.24356e-07
-1.52987e-06
4.06969e-07
-1.56192e-06
3.8663e-07
-1.59069e-06
3.64503e-07
-1.61804e-06
3.4167e-07
-1.64507e-06
3.1899e-07
-1.67238e-06
2.97114e-07
-1.70032e-06
2.76434e-07
-1.729e-06
2.57191e-07
-1.75829e-06
2.39514e-07
-1.78794e-06
2.23441e-07
-1.81776e-06
2.08933e-07
-1.84755e-06
1.95868e-07
-1.87708e-06
1.84127e-07
-1.90619e-06
1.73563e-07
-1.93473e-06
1.64019e-07
-1.96261e-06
1.55348e-07
-1.98975e-06
1.47415e-07
-2.01608e-06
1.40098e-07
-2.04156e-06
1.33293e-07
-2.06615e-06
1.26913e-07
-2.08982e-06
1.20878e-07
-2.11256e-06
1.15127e-07
-2.13436e-06
1.09609e-07
-2.15519e-06
1.04282e-07
-2.17506e-06
9.91127e-08
-2.19395e-06
9.40742e-08
-2.21188e-06
8.91447e-08
-2.22883e-06
8.43069e-08
-2.2448e-06
7.95459e-08
-2.25981e-06
7.485e-08
-2.27384e-06
7.02081e-08
-2.28689e-06
6.56116e-08
-2.29897e-06
6.10515e-08
-2.31007e-06
5.65201e-08
-2.3202e-06
5.20093e-08
-2.32935e-06
4.75105e-08
-2.33753e-06
4.30158e-08
-2.34473e-06
3.85072e-08
-2.35093e-06
3.39845e-08
-2.35612e-06
2.94337e-08
-2.3603e-06
2.48528e-08
-2.3635e-06
2.02337e-08
-2.36568e-06
1.55758e-08
-2.36685e-06
1.08799e-08
-2.36697e-06
6.1499e-09
-2.36604e-06
1.3914e-09
-2.36401e-06
-3.39671e-09
-2.36084e-06
-8.22098e-09
-2.35651e-06
-1.31016e-08
-2.35101e-06
-1.80399e-08
-2.34432e-06
-2.30326e-08
-2.33643e-06
-2.80652e-08
-2.32733e-06
-3.31358e-08
-2.31701e-06
-3.82301e-08
-2.30546e-06
-4.33462e-08
-2.29267e-06
-4.84696e-08
-2.27866e-06
-5.35973e-08
-2.26341e-06
-5.87154e-08
-2.24694e-06
-6.38192e-08
-2.22925e-06
-6.88962e-08
-2.21035e-06
-7.39401e-08
-2.19024e-06
-7.89409e-08
-2.16895e-06
-8.38903e-08
-2.14649e-06
-8.87819e-08
-2.12288e-06
-9.36059e-08