/*--------------------------------*- C++ -*----------------------------------*\
  =========                 |
  \\      /  F ield         | OpenFOAM: The Open Source CFD Toolbox
   \\    /   O peration     | Website:  https://openfoam.org
    \\  /    A nd           | Version:  8
     \\/     M anipulation  |
\*---------------------------------------------------------------------------*/
FoamFile
{
    version     2.0;
    format      ascii;
    class       volVectorField;
    location    "1700";
    object      wallShearStress;
}
// * * * * * * * * * * * * * * * * * * * * * * * * * * * * * * * * * * * * * //

dimensions      [0 2 -2 0 0 0 0];

internalField   uniform (0 0 0);

boundaryField
{
    inlet
    {
        type            calculated;
        value           uniform (0 0 0);
    }
    outlet
    {
        type            calculated;
        value           uniform (0 0 0);
    }
    upperWall
    {
        type            calculated;
        value           nonuniform List<vector> 
223
(
(-0.449498 0.00306536 0)
(-0.488338 0.00565613 0)
(-0.504831 0.00684853 0)
(-0.506715 0.00730051 0)
(-0.501297 0.00730138 0)
(-0.490756 0.00696809 0)
(-0.478809 0.0064719 0)
(-0.466647 0.00590581 0)
(-0.454203 0.00530944 0)
(-0.442506 0.00473039 0)
(-0.43176 0.00418626 0)
(-0.422027 0.00368475 0)
(-0.413303 0.00322965 0)
(-0.405528 0.00282166 0)
(-0.39862 0.00246047 0)
(-0.392495 0.00215658 0)
(-0.386998 0.00191278 0)
(-0.38211 0.00176924 0)
(-0.378178 0.00169133 0)
(-0.375083 0.00164457 5.77519e-22)
(-0.372051 0.00157693 0)
(-0.369109 0.00149689 0)
(-0.366246 0.00141104 0)
(-0.363467 0.0013219 5.90032e-22)
(-0.360785 0.00123324 0)
(-0.358183 0.0011442 0)
(-0.355692 0.00105782 0)
(-0.353278 0.000973214 -1.20233e-21)
(-0.350973 0.000890575 1.20758e-21)
(-0.348755 0.000810571 1.21274e-21)
(-0.346645 0.000733641 0)
(-0.34462 0.000658971 -1.22272e-21)
(-0.342707 0.00058857 0)
(-0.340879 0.000521887 1.2323e-21)
(-0.339146 0.00045918 1.23691e-21)
(-0.337516 0.000404596 -1.24152e-21)
(-0.335936 0.000354208 0)
(-0.334459 0.000308068 0)
(-0.333037 0.000268462 0)
(-0.33168 0.000234483 0)
(-0.330389 0.000208067 -1.26349e-21)
(-0.329118 0.000183765 0)
(-0.327915 0.000163048 0)
(-0.326734 0.000150576 1.27623e-21)
(-0.325574 0.000147742 0)
(-0.324442 0.000154003 1.28488e-21)
(-0.323298 0.000159121 -1.28949e-21)
(-0.322175 0.000156788 1.29419e-21)
(-0.321069 0.000148851 0)
(-0.320009 0.000138109 0)
(-0.318996 0.000126888 0)
(-0.318031 0.000116377 1.31345e-21)
(-0.317104 0.000107213 -1.31839e-21)
(-0.316215 9.96918e-05 0)
(-0.315352 9.40072e-05 0)
(-0.314521 9.01259e-05 0)
(-0.313705 8.77801e-05 0)
(-0.312917 8.69978e-05 0)
(-0.312137 8.75666e-05 0)
(-0.311382 8.93826e-05 0)
(-0.310627 9.23725e-05 0)
(-0.309895 9.62209e-05 1.363e-21)
(-0.309156 0.000101024 -1.36791e-21)
(-0.308438 0.000106803 0)
(-0.307712 0.000113157 0)
(-0.306993 0.000120438 0)
(-0.306272 0.000128072 -1.38746e-21)
(-0.305557 0.000134629 0)
(-0.304817 0.000148096 0)
(-0.304087 0.000164197 0)
(-0.30339 0.000149766 0)
(-0.302492 0.000139374 0)
(-0.301914 0.000166285 -2.82884e-21)
(-0.301722 0.000183728 0)
(-0.318769 0.000193868 0)
(-0.364312 0.000258717 0)
(-0.346009 9.05043e-05 0)
(-0.362109 0.000388486 0)
(-0.343811 0.000763618 0)
(-0.323222 0.00110035 0)
(-0.336838 0.00174959 3.20292e-21)
(-0.321749 0.00142795 0)
(-0.335038 0.000703834 0)
(-0.318223 0.000705675 0)
(-0.326329 0.00130443 -3.18371e-21)
(-0.344969 0.001433 0)
(-0.325854 0.000592557 -3.23312e-21)
(-0.330347 -0.00021703 0)
(-0.312578 -0.000126177 0)
(-0.305441 -0.000224516 0)
(-0.304113 -0.000414267 -3.19403e-21)
(-0.297067 -6.65956e-05 0)
(-0.300683 0.000168738 3.20848e-21)
(-0.296558 4.63766e-05 3.18377e-21)
(-0.296437 -0.000178717 0)
(-0.347382 -6.85127e-05 3.76502e-21)
(-0.330525 0.000190244 0)
(-0.306811 0.0002221 0)
(-0.297877 0.000369752 0)
(-0.295034 0.000382886 -3.23347e-21)
(-0.294716 4.00775e-05 0)
(-0.308279 -0.000152429 -3.39401e-21)
(-0.355192 7.98417e-05 3.91302e-21)
(-0.328628 4.33321e-05 0)
(-0.323644 -6.20145e-05 0)
(-0.355757 0.000459498 0)
(-0.328443 0.00101123 0)
(-0.298712 0.000927114 0)
(-0.291362 0.00105048 0)
(-0.290537 0.000952245 0)
(-0.295115 0.00032948 -3.18328e-21)
(-0.28961 -2.56908e-06 0)
(-0.334791 0.000311071 0)
(-0.308347 0.000459786 0)
(-0.288011 3.68725e-05 0)
(-0.328111 0.000722449 0)
(-0.302032 0.000872552 0)
(-0.294836 0.000296934 0)
(-0.285119 0.000322442 0)
(-0.296214 0.000418826 0)
(-0.333194 0.000526866 0)
(-0.344572 0.00016506 0)
(-0.322808 -0.000120093 0)
(-0.331202 0.000287958 -6.78145e-21)
(-0.296915 0.00115744 0)
(-0.281294 0.00179472 0)
(-0.277459 0.0016298 0)
(-0.276267 0.000794598 5.26713e-21)
(-0.275377 1.83909e-05 0)
(-0.285327 -0.00022872 0)
(-0.307144 -5.17199e-05 5.70738e-21)
(-0.314566 0.000213811 0)
(-0.300494 0.000351609 -5.38041e-21)
(-0.283499 0.000516628 0)
(-0.292412 0.000607038 0)
(-0.286514 0.0013507 0)
(-0.263355 0.00133877 4.19469e-21)
(-0.287274 0.00132487 0)
(-0.261084 0.00104818 -3.82499e-21)
(-0.28557 0.000985717 0)
(-0.258803 0.000801149 0)
(-0.280503 0.000767646 0)
(-0.256286 0.000678173 0)
(-0.273411 0.000664839 0)
(-0.253473 0.000634086 0)
(-0.265055 0.000623104 0)
(-0.250382 0.000625852 0)
(-0.255889 0.000614292 0)
(-0.247055 0.00064725 0)
(-0.246396 0.000672093 0)
(-0.272243 0.00116114 -1.25262e-21)
(-0.275295 0.00111337 9.51568e-22)
(-0.281 0.000575909 0)
(-0.263255 -0.000277785 0)
(-0.240899 1.37399e-05 0)
(-0.230545 0.00111281 0)
(-0.241677 0.00153883 -7.96365e-22)
(-0.248174 0.000757347 1.22536e-21)
(-0.242445 0.00125163 -1.59903e-21)
(-0.224489 0.000795575 0)
(-0.222452 -0.000360201 -2.31177e-21)
(-0.219469 0.000816389 -5.5101e-21)
(-0.233902 0.00221354 0)
(-0.217617 0.000950548 -6.78827e-21)
(-0.215288 -0.000510824 8.03849e-21)
(-0.211982 -0.000397975 0)
(-0.208731 -3.70402e-05 0)
(-0.204547 9.65641e-05 0)
(-0.200658 0.000620535 0)
(-0.198756 0.00131005 0)
(-0.197564 0.00144888 -1.38028e-20)
(-0.196115 0.000783635 0)
(-0.193404 0.00082371 -1.62333e-20)
(-0.193047 0.00176766 0)
(-0.199183 0.00209155 0)
(-0.20444 0.00185394 0)
(-0.20322 0.00154614 0)
(-0.19986 0.00111296 0)
(-0.189129 0.000619952 2.30551e-20)
(-0.185513 0.000770955 0)
(-0.1838 0.00107843 0)
(-0.18243 0.000961839 -2.6928e-20)
(-0.180668 0.000505161 0)
(-0.178597 0.000247088 0)
(-0.176221 0.000148488 0)
(-0.173373 0.000151376 3.33941e-20)
(-0.169466 0.000109322 0)
(-0.163705 6.8847e-05 0)
(-0.15561 0.000262985 0)
(-0.144847 0.000651265 0)
(-0.131701 0.00117991 -5.58104e-20)
(-0.117393 0.00161558 0)
(-0.103468 0.00180271 0)
(-0.0910041 0.00167581 0)
(-0.080821 0.00149244 9.3497e-20)
(-0.0701095 0.00137167 0)
(-0.0647813 0.00179742 0)
(-0.0358035 0.00148439 -1.38624e-19)
(-0.0681625 0.000487629 0)
(-0.102287 0.00581632 1.18522e-17)
(-0.125705 0.0102316 2.12511e-17)
(-0.138138 0.0128263 1.99689e-17)
(-0.145483 0.0142448 1.91946e-17)
(-0.150999 0.0151169 1.85736e-17)
(-0.15533 0.0157305 -1.80491e-17)
(-0.158451 0.0161705 -1.75665e-17)
(-0.160827 0.0164752 0)
(-0.162993 0.0167122 -3.35278e-17)
(-0.165103 0.0169242 -1.63808e-17)
(-0.167285 0.0171246 5.05557e-34)
(-0.169706 0.017333 0)
(-0.172598 0.0175716 -3.01463e-17)
(-0.176055 0.0178625 -2.90147e-17)
(-0.180193 0.0182144 -2.77114e-17)
(-0.185035 0.0186364 -2.40741e-35)
(-0.190636 0.0191293 4.89251e-17)
(-0.197114 0.0197069 2.24551e-17)
(-0.204306 0.0203567 2.40741e-35)
(-0.212979 0.021134 -3.50616e-17)
(-0.221254 0.0219135 -1.23455e-20)
(-0.234838 0.0230731 0)
(-0.239084 0.023797 1.32023e-17)
(-0.2649 0.0253619 -7.12224e-18)
)
;
    }
    lowerWall
    {
        type            calculated;
        value           nonuniform List<vector> 
250
(
(-0.624248 -0.00583918 0)
(-0.595155 -0.00955194 0)
(-0.67044 -0.0117457 0)
(-0.576694 -0.00917487 0)
(-0.592821 -0.00976788 0)
(-0.532606 -0.00884942 0)
(-0.490581 -0.00685535 0)
(-0.485437 -0.00656583 0)
(-0.464948 -0.00512274 0)
(-0.456569 -0.00406012 0)
(-0.449094 -0.00427057 0)
(-0.442601 -0.0035438 0)
(-0.43719 -0.0015625 0)
(-0.432675 -8.28759e-05 0)
(-0.429283 -0.000219011 0)
(-0.426329 -0.000213108 0)
(-0.424445 0.000117513 0)
(-0.423366 0.000542543 0)
(0.00206389 1.36427e-05 0)
(0.00230424 -0.00287526 0)
(0.00256612 -0.00585481 0)
(0.00293147 -0.00901191 1.17881e-19)
(0.00340324 -0.012234 -9.95149e-20)
(0.00390432 -0.0163788 8.81217e-20)
(0.00351185 -0.0171749 -7.97306e-20)
(0.00655461 -0.036462 0)
(-0.0490234 -0.10599 0)
(0.00022184 -0.000277865 0)
(5.52435e-05 -0.000792995 0)
(-1.13681e-05 -0.00087771 0)
(5.26706e-05 -0.000875769 0)
(3.02755e-05 -0.000843866 1.53721e-19)
(-0.000144266 -0.000279586 -1.49622e-19)
(-0.000582784 0.00115827 0)
(-0.00118301 0.00386099 -1.71759e-19)
(-0.00156236 0.00730087 1.31401e-19)
(-0.00150795 0.0105408 0)
(-0.00111529 0.0129219 0)
(-0.000583982 0.0141596 0)
(-7.76217e-05 0.0142318 0)
(0.000320498 0.0133377 0)
(0.000650074 0.0117549 0)
(0.000970191 0.0095294 0)
(0.00132004 0.00669882 0)
(0.0017173 0.00330581 0)
(-0.000144762 -0.000279248 0)
(0.000169376 -0.000449793 0)
(0.000479353 -0.000502681 0)
(0.00080156 -0.000433522 0)
(0.00105816 -0.000198766 -0)
(0.0011047 0.000190404 -0)
(0.000857115 0.000657261 1.44128e-20)
(0.000343646 0.00109581 -1.63065e-20)
(-0.000368703 0.0014156 0)
(-0.00118608 0.00157614 -9.30418e-21)
(-0.00202849 0.00159075 0)
(-0.00283183 0.00148994 0)
(-0.00355066 0.00131002 0)
(-0.00415998 0.00108175 4.56849e-21)
(-0.00464828 0.000826119 0)
(-0.0050114 0.000554898 0)
(-0.00524687 0.000276397 -3.95787e-21)
(-0.00535904 -1.50125e-05 -0)
(-0.0053242 -0.000317359 0)
(-0.00513953 -0.000610296 -0)
(-0.00481359 -0.000873503 4.25115e-21)
(-0.00435793 -0.001087 -0)
(-0.00379032 -0.00122962 5.02468e-21)
(-0.00313755 -0.00128209 0)
(-0.00243696 -0.0012296 -0)
(-0.00173689 -0.0010684 8.13447e-21)
(-0.00109439 -0.000813025 0)
(-0.000567263 -0.000505874 -1.3504e-20)
(-0.000191991 -0.000217943 0)
(4.4558e-05 -1.63286e-05 2.33383e-20)
(0.000194462 0.000101568 0)
(0.000283656 0.000197113 0)
(0.000284117 0.000307945 0)
(0.000181124 0.000455786 0)
(-5.57066e-05 0.000651722 0)
(-0.00045447 0.000859242 -1.5505e-20)
(-0.000999388 0.0010041 0)
(-0.0016075 0.00101217 1.81243e-20)
(-0.00216178 0.000867374 0)
(-0.00256182 0.000613724 -1.42523e-20)
(-0.00276333 0.000336036 0)
(-0.00279169 0.000109344 0)
(-0.00270108 -1.72271e-05 1.40116e-20)
(-0.00256706 -1.81465e-05 0)
(-0.00245975 0.0001067 1.45677e-20)
(-0.0023963 0.000304089 -1.46884e-20)
(-0.00232647 0.000434952 0)
(-0.00211873 0.000256869 -1.59127e-20)
(-0.00150823 -0.000382133 -1.8484e-20)
(-0.000246411 -0.00109992 0)
(0.00147477 -0.00172023 0)
(0.0033571 -0.00240302 0)
(0.00553983 -0.00308472 0)
(0.00797128 -0.00356502 -0)
(0.0105399 -0.00377315 3.52109e-21)
(0.013342 -0.00386969 0)
(0.0160427 -0.00389846 -2.81772e-21)
(0.0181685 -0.00376331 -0)
(0.0216332 -0.00373866 -0)
(0.0227682 -0.00325779 2.17971e-21)
(0.0242498 -0.00294351 0)
(0.0264134 -0.00274957 -1.9299e-21)
(0.0285924 -0.00251768 -0)
(0.0312067 -0.00234415 0)
(0.0331736 -0.00217413 -0)
(0.0352811 -0.00202907 1.82449e-21)
(0.0371956 -0.00189103 0)
(0.0390809 -0.0017699 -0)
(0.040861 -0.00166117 1.77685e-21)
(0.0425991 -0.00156491 0)
(0.0442628 -0.00147877 1.75629e-21)
(0.0458851 -0.0014015 0)
(0.0474522 -0.00133153 0)
(0.0489798 -0.00126757 0)
(0.0504636 -0.00120857 -1.7255e-21)
(0.0519103 -0.00115357 -0)
(0.0533192 -0.00110175 0)
(0.0546924 -0.00105263 -1.70522e-21)
(0.0560311 -0.00100564 -1.69835e-21)
(0.0573349 -0.000960527 -0)
(0.0586059 -0.000916711 -1.68406e-21)
(0.0598418 -0.000874139 0)
(0.0610449 -0.000832403 -3.3373e-21)
(0.0622125 -0.000791502 -0)
(0.0633465 -0.000751054 -3.30367e-21)
(0.0644447 -0.000711119 -0)
(0.0655077 -0.000671249 3.26679e-21)
(0.0665339 -0.000631662 0)
(0.0675239 -0.000591733 0)
(0.0684752 -0.000551221 0)
(0.0693866 -0.000509617 -3.18113e-21)
(0.070256 -0.000466947 -0)
(0.0710821 -0.000422847 3.13138e-21)
(0.0718628 -0.000376951 0)
(0.0725955 -0.000328816 -3.07691e-21)
(0.0732775 -0.000278245 -3.0479e-21)
(0.0739058 -0.000225356 -3.01771e-21)
(0.0744784 -0.000170691 -0)
(0.0749927 -0.000116035 0)
(0.0754484 -6.45911e-05 0)
(0.0758502 -2.14568e-05 0)
(0.0762042 1.6036e-05 0)
(0.0765108 5.26003e-05 0)
(0.0767706 8.88604e-05 0)
(0.0769817 0.000124979 0)
(0.0771449 0.000161159 2.68239e-21)
(0.0772584 0.000197211 2.63571e-21)
(0.0773227 0.000233276 0)
(0.0773364 0.000269077 0)
(0.0772998 0.000304696 0)
(0.0772123 0.000339916 2.42636e-21)
(0.077074 0.000374782 0)
(0.0768845 0.000409128 0)
(0.0766442 0.000442867 0)
(0.0763535 0.000475983 0)
(0.0760123 0.000508339 -2.10927e-21)
(0.0756215 0.000539991 0)
(0.0751812 0.000570756 0)
(0.0746923 0.000600786 1.88752e-21)
(0.0741551 0.000629726 -1.80824e-21)
(0.0735712 0.000657957 0)
(0.07294 0.000685122 -1.64158e-21)
(0.0722637 0.000711466 0)
(0.0715421 0.000736695 1.4641e-21)
(0.0707773 0.000761208 0)
(0.0699689 0.000784645 0)
(0.0691194 0.000807332 0)
(0.0682314 0.000828925 0)
(0.067307 0.000849618 0)
(0.0663341 0.000868821 -1.73246e-21)
(0.0653391 0.000887651 -1.51387e-21)
(0.0642882 0.000905003 0)
(0.063218 0.000920605 0)
(0.0621099 0.000933098 0)
(0.0609765 0.000939823 5.79224e-22)
(0.0598147 0.000937883 0)
(0.0586255 0.000929295 0)
(0.0574046 0.000932686 0)
(0.0561545 0.000946822 -4.57716e-22)
(0.0548748 0.000957457 7.35674e-22)
(0.0535709 0.00096753 0)
(0.052243 0.000976822 0)
(0.0508925 0.000985218 1.62045e-21)
(0.0495216 0.000993065 1.93384e-21)
(0.0481307 0.00100022 0)
(0.046722 0.00100699 0)
(0.0452961 0.00101322 -2.93733e-21)
(0.0438555 0.00101916 3.29502e-21)
(0.0423995 0.00102447 0)
(0.0409326 0.00102973 0)
(0.0394515 0.00103441 4.44862e-21)
(0.0379619 0.00103896 0)
(0.0364614 0.001043 0)
(0.0349539 0.00104671 5.74241e-21)
(0.033439 0.00105009 0)
(0.0319189 0.00105322 6.69877e-21)
(0.0303943 0.00105627 0)
(0.0288662 0.00105931 0)
(0.0273355 0.00106248 0)
(0.0258025 0.00106588 -8.89605e-21)
(0.0242676 0.00106955 0)
(0.0227311 0.00107351 0)
(0.0211933 0.00107779 0)
(0.0196545 0.00108236 0)
(0.018115 0.00108729 0)
(0.0165751 0.00109266 0)
(0.0150351 0.00109863 -1.41209e-20)
(0.0134949 0.00110527 -1.50825e-20)
(0.0119546 0.00111271 0)
(0.0104139 0.00112095 0)
(0.0088727 0.00112989 0)
(0.00733133 0.00113928 1.97972e-20)
(0.00579059 0.00114937 0)
(0.0042522 0.00115897 -4.57605e-20)
(0.0027203 0.00116499 4.93508e-20)
(0.00120468 0.00116234 5.33523e-20)
(-0.000292488 0.00112601 -5.52609e-20)
(-0.00167647 0.0010546 5.38673e-20)
(-0.00320699 0.000886277 -5.19299e-20)
(-0.00354409 0.000494112 0)
(-0.00552733 0.00108489 -3.09835e-18)
(-0.00864852 0.000855736 -2.8101e-18)
(-0.011743 0.000506412 0)
(-0.0149217 0.000179524 -4.78561e-18)
(-0.0183049 -0.000161808 -8.90392e-18)
(-0.0218997 -0.000521308 -4.15633e-18)
(-0.0257165 -0.000900305 3.89015e-18)
(-0.0297783 -0.00130286 0)
(-0.0341092 -0.00173231 0)
(-0.0387278 -0.00219251 3.22056e-18)
(-0.0436518 -0.00268144 3.02854e-18)
(-0.0488969 -0.00316703 0)
(-0.0544788 -0.0036837 0)
(-0.060453 -0.00427836 0)
(-0.0668781 -0.00493367 1.98894e-35)
(-0.0737567 -0.00564208 -5.32734e-35)
(-0.0812383 -0.0064056 1.29398e-34)
(-0.0891829 -0.00722958 -3.75259e-18)
(-0.0981544 -0.0081244 -3.41836e-18)
(-0.107229 -0.00909344 1.20371e-35)
(-0.118784 -0.0101584 5.37799e-18)
(-0.128364 -0.0113289 8.92627e-18)
(-0.145772 -0.0125603 6.01853e-36)
(-0.15322 -0.0140751 -4.30481e-18)
(-0.18785 -0.016415 -1.80556e-35)
)
;
    }
    frontAndBack
    {
        type            empty;
    }
}


// ************************************************************************* //
