/*--------------------------------*- C++ -*----------------------------------*\
  =========                 |
  \\      /  F ield         | OpenFOAM: The Open Source CFD Toolbox
   \\    /   O peration     | Website:  https://openfoam.org
    \\  /    A nd           | Version:  8
     \\/     M anipulation  |
\*---------------------------------------------------------------------------*/
FoamFile
{
    version     2.0;
    format      ascii;
    class       volScalarField;
    location    "1900";
    object      k;
}
// * * * * * * * * * * * * * * * * * * * * * * * * * * * * * * * * * * * * * //

dimensions      [0 2 -2 0 0 0 0];

internalField   nonuniform List<scalar> 
12225
(
0.295388
2.05284
1.93618
1.805
1.71915
1.6385
2.27906
1.89791
1.51099
2.52959
2.52364
2.81601
2.16356
1.80048
1.88652
1.54564
1.4468
1.56144
0.206112
0.277863
0.347264
0.4218
0.44795
0.48379
0.515364
0.565112
0.597226
0.677625
0.716503
0.759287
0.790514
0.800563
0.824778
0.852799
0.87016
0.885883
0.200253
0.206171
0.20909
0.216031
0.220761
0.224461
0.224139
0.228696
0.236209
0.243879
0.252651
0.258436
0.263802
0.266442
0.269404
0.274405
0.277817
0.283266
0.199432
0.199117
0.198899
0.198389
0.19936
0.199232
0.198996
0.198407
0.198089
0.196793
0.196053
0.196174
0.195396
0.194243
0.192743
0.191619
0.190058
0.189083
0.199453
0.198093
0.197066
0.196152
0.19585
0.195211
0.194705
0.193906
0.193289
0.192346
0.191528
0.190617
0.189696
0.18861
0.187576
0.186456
0.185396
0.18427
0.199445
0.19814
0.197034
0.195965
0.195175
0.19434
0.193628
0.192811
0.19209
0.191269
0.190518
0.189699
0.188945
0.188127
0.187379
0.186576
0.185838
0.185044
0.199407
0.198176
0.197071
0.195987
0.195038
0.194109
0.193272
0.19243
0.191655
0.190871
0.19014
0.189401
0.188714
0.188023
0.187377
0.186727
0.186113
0.185497
0.199391
0.198178
0.197064
0.195985
0.194994
0.194039
0.193154
0.192297
0.191494
0.190714
0.189978
0.189264
0.18859
0.187937
0.187317
0.186715
0.18614
0.185582
0.199383
0.198177
0.197051
0.195975
0.194966
0.194002
0.193097
0.192231
0.191413
0.190631
0.189889
0.189179
0.188505
0.18786
0.187247
0.18666
0.186098
0.185559
0.199379
0.198173
0.197038
0.19596
0.194942
0.193974
0.193058
0.192187
0.19136
0.190573
0.189824
0.189112
0.188434
0.187789
0.187173
0.186587
0.186025
0.185492
0.199376
0.198169
0.197028
0.195948
0.194924
0.193952
0.19303
0.192154
0.191321
0.19053
0.189776
0.18906
0.188377
0.187728
0.187107
0.186517
0.185953
0.185416
0.199375
0.198166
0.197021
0.195937
0.194909
0.193934
0.193008
0.192129
0.191292
0.190497
0.189739
0.189019
0.188332
0.187679
0.187054
0.18646
0.185892
0.185352
0.199374
0.198164
0.197016
0.195929
0.194898
0.19392
0.192991
0.192108
0.191269
0.19047
0.189711
0.188987
0.188297
0.18764
0.187013
0.186416
0.185844
0.185301
0.199374
0.198162
0.197013
0.195924
0.19489
0.19391
0.192978
0.192093
0.191251
0.190451
0.189687
0.188962
0.188269
0.18761
0.18698
0.186381
0.185807
0.185261
0.199374
0.19816
0.19701
0.195919
0.194885
0.193902
0.192969
0.192081
0.191238
0.190435
0.18967
0.188942
0.188248
0.187587
0.186956
0.186354
0.18578
0.185232
0.199373
0.19816
0.197009
0.195917
0.194881
0.193897
0.192963
0.192074
0.191229
0.190425
0.18966
0.18893
0.188235
0.187572
0.186941
0.186337
0.185762
0.185213
0.199373
0.198159
0.197008
0.195916
0.194879
0.193896
0.19296
0.192072
0.191226
0.190422
0.189656
0.188926
0.18823
0.187567
0.186935
0.186332
0.185756
0.185206
0.199373
0.198159
0.197008
0.195915
0.194879
0.193894
0.192959
0.192069
0.191224
0.190418
0.189653
0.188922
0.188227
0.187562
0.18693
0.186326
0.18575
0.1852
0.199373
0.198159
0.197007
0.195915
0.194878
0.193894
0.192957
0.192068
0.191221
0.190417
0.189649
0.188919
0.188222
0.187558
0.186924
0.186321
0.185743
0.185193
0.199373
0.19816
0.197009
0.195916
0.19488
0.193895
0.19296
0.19207
0.191225
0.190419
0.189653
0.188922
0.188226
0.187562
0.186929
0.186324
0.185748
0.185197
0.199374
0.198161
0.19701
0.195919
0.194883
0.1939
0.192965
0.192077
0.191232
0.190427
0.189662
0.188932
0.188236
0.187573
0.186941
0.186337
0.185761
0.185211
0.199374
0.198162
0.197013
0.195923
0.194889
0.193907
0.192973
0.192087
0.191243
0.19044
0.189675
0.188947
0.188252
0.187591
0.18696
0.186358
0.185783
0.185234
0.199374
0.198165
0.197017
0.195929
0.194896
0.193916
0.192984
0.1921
0.191259
0.190458
0.189697
0.188971
0.18828
0.18762
0.186992
0.186392
0.185821
0.185275
0.199375
0.198169
0.197022
0.195937
0.194903
0.193926
0.192998
0.192121
0.191287
0.190496
0.189742
0.189025
0.188342
0.187691
0.18707
0.186477
0.185911
0.18537
0.199376
0.198178
0.197023
0.195937
0.194901
0.193942
0.193035
0.192194
0.191395
0.190641
0.189919
0.18923
0.188568
0.187933
0.187324
0.186738
0.186175
0.185631
0.199393
0.19818
0.196989
0.195914
0.194941
0.194114
0.193343
0.192666
0.191993
0.19136
0.19071
0.190076
0.189436
0.188807
0.188188
0.187573
0.186976
0.186377
0.199435
0.198192
0.197038
0.19632
0.195942
0.195763
0.195584
0.19542
0.195115
0.194764
0.194256
0.193701
0.193054
0.192367
0.191661
0.1909
0.190186
0.189387
0.199465
0.200319
0.200257
0.202443
0.205569
0.208176
0.210593
0.212163
0.213431
0.214069
0.214468
0.214544
0.214517
0.214402
0.214295
0.214189
0.214232
0.214095
0.205721
0.21772
0.242299
0.274489
0.306776
0.334176
0.359334
0.378347
0.397387
0.411548
0.427072
0.438853
0.453039
0.464143
0.47816
0.489444
0.503899
0.515615
0.318243
0.835122
1.14305
1.34876
1.45907
1.51554
1.51999
1.5113
1.49174
1.46135
1.42898
1.3968
1.36602
1.33734
1.31093
1.28703
1.26523
1.24586
1.79718e-08
4.4235e-07
2.25297e-06
8.86775e-06
2.96135e-05
9.05057e-05
0.000234774
0.000464516
0.000750357
0.00105126
0.00132069
0.00152974
0.00166885
0.00172033
0.00169885
0.00162926
0.00149798
0.00128027
0.00108927
0.000925684
0.000771501
0.000622052
0.000478181
0.000344517
0.000225562
0.000133117
7.13996e-05
3.63169e-05
1.86195e-05
1.01812e-05
6.1703e-06
4.61954e-06
4.8675e-06
9.76432e-06
2.03089e-05
0.000124512
0.000282884
0.000657256
0.00102412
0.00115387
0.00106819
0.000864604
0.000713972
0.000682648
0.000740323
0.000972454
0.00126446
0.00240312
0.00522631
0.0154447
0.0445782
0.0853369
0.122513
0.1366
0.147545
0.151717
0.161265
0.159486
0.155499
0.176841
0.151277
0.166388
0.179716
0.160955
0.17684
0.18398
0.192625
0.200497
0.208603
0.216263
0.223993
0.231494
0.238956
0.246293
0.253562
0.260738
0.267845
0.27487
0.281825
0.288702
0.295507
0.302234
0.308884
0.315453
0.321939
0.328339
0.334648
0.340861
0.346972
0.352975
0.358861
0.364625
0.370255
0.375744
0.381079
0.386254
0.391258
0.396089
0.400754
0.405274
0.409712
0.414023
0.418185
0.42221
0.426097
0.429836
0.433434
0.436877
0.440171
0.443306
0.446285
0.449101
0.451755
0.454243
0.456563
0.458715
0.460695
0.462505
0.46414
0.465605
0.466893
0.468011
0.468952
0.469722
0.470318
0.470743
0.470994
0.471076
0.471033
0.470896
0.47043
0.470056
0.46917
0.468436
0.467452
0.46647
0.465349
0.464042
0.462472
0.460805
0.458975
0.457036
0.45497
0.452798
0.450515
0.448133
0.445654
0.443095
0.440457
0.437747
0.434966
0.432117
0.429204
0.426238
0.423218
0.420161
0.41707
0.413956
0.410829
0.407696
0.40456
0.401423
0.398287
0.395155
0.392029
0.388914
0.385817
0.382743
0.379699
0.376688
0.373713
0.370767
0.367838
0.364905
0.36192
0.358792
0.355413
0.35145
0.346311
0.331005
8.04537e-08
2.25258e-06
1.52473e-05
6.65948e-05
0.000244566
0.000734827
0.0016922
0.00305713
0.00463989
0.00626784
0.00775449
0.00897811
0.00988015
0.0104537
0.0107307
0.0106953
0.0105191
0.0101822
0.0096013
0.00880468
0.00779717
0.00662736
0.00535297
0.00406124
0.00282194
0.00187207
0.00119056
0.000738346
0.000449649
0.000275985
0.000177243
0.000131387
9.93593e-05
0.000156296
0.000189952
0.00134215
0.00296826
0.0064024
0.00952785
0.011387
0.0114129
0.0110583
0.0108667
0.0118993
0.0152528
0.0202504
0.0288183
0.0441387
0.0689618
0.0934714
0.118682
0.139696
0.156564
0.170486
0.183321
0.19882
0.214953
0.230431
0.248186
0.266533
0.283539
0.303007
0.321155
0.339707
0.358653
0.377207
0.395484
0.413485
0.431316
0.448923
0.466394
0.483716
0.50093
0.518043
0.535073
0.552025
0.56891
0.585725
0.602477
0.619161
0.635777
0.652319
0.668784
0.685165
0.701455
0.717646
0.733728
0.749691
0.765522
0.781209
0.796737
0.812091
0.827256
0.842213
0.856941
0.871419
0.885617
0.899506
0.91305
0.926211
0.938958
0.951415
0.963635
0.975588
0.987281
0.998695
1.00982
1.02066
1.03118
1.04139
1.05128
1.06083
1.07003
1.07888
1.08738
1.0955
1.10325
1.11061
1.11758
1.12416
1.13033
1.1361
1.14146
1.1464
1.15093
1.15503
1.15872
1.16198
1.16483
1.16725
1.16926
1.17088
1.17193
1.17276
1.17307
1.17325
1.1732
1.17279
1.17229
1.17135
1.17005
1.16839
1.16637
1.16403
1.16135
1.15835
1.15505
1.15146
1.1476
1.14348
1.13909
1.13444
1.12954
1.12441
1.11905
1.11348
1.10773
1.1018
1.09572
1.08951
1.08318
1.07672
1.07015
1.06348
1.05671
1.04984
1.04289
1.03588
1.02881
1.02169
1.01455
1.00735
1.0001
0.992749
0.985224
0.977396
0.969074
0.959906
0.94799
0.921882
2.16764e-07
6.50945e-06
4.96686e-05
0.000237477
0.000701056
0.00198111
0.00399535
0.00634401
0.00870409
0.0108458
0.0126348
0.0140117
0.0149765
0.0155528
0.0158076
0.0157726
0.0155896
0.015228
0.0146948
0.0140314
0.0132328
0.0122917
0.0111885
0.00993334
0.00852384
0.00693179
0.00529193
0.00383186
0.00256673
0.00170717
0.00117472
0.000876771
0.000670707
0.000904735
0.00142263
0.00585422
0.0128011
0.0210624
0.0273283
0.0311058
0.0325518
0.0346457
0.0409181
0.0551734
0.0723575
0.0899306
0.109678
0.130824
0.150494
0.171041
0.191576
0.212509
0.234505
0.257967
0.284637
0.311312
0.339291
0.367329
0.395567
0.42325
0.450753
0.477926
0.504335
0.530294
0.555618
0.580456
0.604813
0.628785
0.652434
0.675803
0.698948
0.721899
0.74469
0.767343
0.789875
0.812296
0.834615
0.856835
0.878955
0.900975
0.92289
0.944694
0.96638
0.987941
1.00937
1.03065
1.05177
1.07272
1.09349
1.11406
1.13443
1.15456
1.17446
1.19411
1.21349
1.23259
1.2514
1.26992
1.28813
1.30603
1.32362
1.3409
1.35784
1.37443
1.39065
1.4065
1.42194
1.43697
1.45158
1.46575
1.47948
1.49274
1.50553
1.51783
1.52964
1.54094
1.55173
1.56199
1.57172
1.58091
1.58955
1.59764
1.60517
1.61213
1.61852
1.62435
1.6296
1.63429
1.6384
1.64194
1.64492
1.64733
1.64917
1.6505
1.6512
1.65152
1.65144
1.65079
1.64968
1.64806
1.64594
1.64332
1.64021
1.63664
1.63261
1.62813
1.62323
1.61791
1.61221
1.60612
1.59967
1.59285
1.58568
1.57817
1.57033
1.5622
1.55378
1.54512
1.53621
1.5271
1.5178
1.50832
1.49867
1.48886
1.47891
1.46881
1.4586
1.44828
1.43788
1.42742
1.4169
1.40634
1.39573
1.38504
1.37422
1.36319
1.35176
1.33969
1.32505
1.3005
7.83047e-07
2.35531e-05
0.00018509
0.000770437
0.00221931
0.00523911
0.0088126
0.0122987
0.015328
0.0177227
0.019449
0.0205464
0.0211246
0.021235
0.0211066
0.0207577
0.0202025
0.0195336
0.0187821
0.0179633
0.0170789
0.0161253
0.0150852
0.0139382
0.0126648
0.0112434
0.00969558
0.00807965
0.00656946
0.00506779
0.00399376
0.00291875
0.00297733
0.00435053
0.010486
0.0240664
0.0381492
0.0494113
0.057909
0.0656877
0.075275
0.0879286
0.103077
0.118297
0.133849
0.150474
0.169929
0.190907
0.213363
0.238248
0.264745
0.29328
0.323455
0.355051
0.387646
0.42053
0.453628
0.486519
0.519117
0.551162
0.582789
0.613815
0.644217
0.674084
0.703415
0.732293
0.760769
0.78891
0.81677
0.844394
0.871825
0.899093
0.926226
0.953241
0.98015
1.00696
1.03368
1.0603
1.08683
1.11325
1.13955
1.16574
1.1918
1.21771
1.24347
1.26906
1.29447
1.31969
1.34469
1.36947
1.39401
1.41829
1.4423
1.46604
1.48948
1.51261
1.53543
1.55792
1.58007
1.60186
1.62328
1.6443
1.66491
1.68508
1.7048
1.72405
1.74281
1.76106
1.77879
1.79598
1.81261
1.82868
1.84417
1.85906
1.87334
1.88701
1.90004
1.91243
1.92416
1.93524
1.94564
1.95537
1.96441
1.97276
1.98042
1.98739
1.99365
1.99923
2.0041
2.00828
2.01177
2.01457
2.01669
2.01812
2.01882
2.01902
2.01862
2.01754
2.01585
2.01354
2.01062
2.0071
2.003
1.99832
1.99308
1.98729
1.98098
1.97417
1.96687
1.9591
1.95087
1.9422
1.93309
1.92357
1.91364
1.90334
1.89269
1.88173
1.87046
1.85893
1.84715
1.83515
1.82293
1.81052
1.79793
1.78516
1.77224
1.75919
1.74605
1.73283
1.71955
1.70624
1.69289
1.67952
1.66609
1.65256
1.63882
1.62469
1.60853
1.58552
2.6653e-06
7.99565e-05
0.000598862
0.00228111
0.00625933
0.0116201
0.0166146
0.0206037
0.0234312
0.0251936
0.0261026
0.0263501
0.0261997
0.0257665
0.0250747
0.0242619
0.0233796
0.0224642
0.021537
0.0206064
0.0196683
0.0187136
0.0177245
0.0166784
0.015549
0.0143049
0.0129416
0.0115056
0.0101055
0.00869047
0.00724583
0.00748424
0.0108282
0.0220176
0.0415932
0.0606849
0.0767469
0.0893461
0.0999586
0.110312
0.121387
0.133437
0.146498
0.161259
0.179052
0.199702
0.223072
0.249092
0.277239
0.307467
0.339191
0.372282
0.406304
0.441011
0.476103
0.511343
0.546595
0.581699
0.616574
0.651107
0.68531
0.719087
0.752447
0.785424
0.818035
0.850322
0.882325
0.91409
0.945655
0.977056
1.00833
1.03949
1.07056
1.10155
1.13247
1.16333
1.19411
1.22481
1.25543
1.28595
1.31637
1.34666
1.37682
1.40682
1.43666
1.46632
1.49578
1.52502
1.55403
1.5828
1.61129
1.63951
1.66742
1.69501
1.72228
1.7492
1.77576
1.80193
1.82771
1.85306
1.87797
1.9024
1.92635
1.94978
1.97268
1.99502
2.01679
2.03796
2.05851
2.07844
2.09771
2.11631
2.13423
2.15145
2.16796
2.18374
2.19878
2.21307
2.22659
2.23933
2.25129
2.26246
2.27283
2.28239
2.29114
2.29908
2.30621
2.31251
2.31801
2.32269
2.32657
2.32964
2.33192
2.33335
2.33395
2.33398
2.33321
2.33169
2.32943
2.32645
2.32277
2.31839
2.31333
2.3076
2.30122
2.29421
2.28658
2.27836
2.26957
2.26023
2.25036
2.23996
2.22906
2.21767
2.20581
2.19352
2.18081
2.16772
2.15429
2.14053
2.12648
2.11216
2.0976
2.0828
2.06779
2.05257
2.03718
2.02165
2.00599
1.99026
1.97447
1.95865
1.94284
1.92703
1.91125
1.89549
1.87968
1.86371
1.84621
1.82363
8.49614e-06
0.000248602
0.00177202
0.00627242
0.0140678
0.0209151
0.0257749
0.0287597
0.0303149
0.0308898
0.0308121
0.0303747
0.0295549
0.0285573
0.0274659
0.0263436
0.0252329
0.0241596
0.0231353
0.0221594
0.0212216
0.0203064
0.0193894
0.0184406
0.0174297
0.0162941
0.0149782
0.0134336
0.0118242
0.0116291
0.013571
0.0213098
0.0382434
0.0614405
0.0839593
0.102341
0.115879
0.125768
0.13422
0.143037
0.153174
0.165948
0.182003
0.201209
0.2238
0.249442
0.277591
0.307764
0.339448
0.372406
0.406317
0.44101
0.47628
0.512009
0.548071
0.584367
0.620811
0.657315
0.693805
0.730207
0.766477
0.802568
0.838468
0.874176
0.909699
0.945055
0.980267
1.01536
1.05036
1.08529
1.12018
1.15503
1.18986
1.22468
1.25947
1.29424
1.32897
1.36366
1.39829
1.43283
1.46728
1.50161
1.53581
1.56985
1.60372
1.6374
1.67087
1.7041
1.73708
1.76979
1.8022
1.8343
1.86607
1.89748
1.92851
1.95916
1.98939
2.01917
2.0485
2.07733
2.10564
2.13341
2.16062
2.18724
2.21324
2.2386
2.2633
2.28732
2.31063
2.33321
2.35505
2.37612
2.3964
2.41588
2.43455
2.45238
2.46936
2.48548
2.50072
2.51507
2.52853
2.54108
2.55271
2.56342
2.57321
2.58206
2.58999
2.59698
2.60304
2.60818
2.61239
2.61568
2.61807
2.61946
2.61997
2.61974
2.61861
2.61662
2.61379
2.61014
2.60569
2.60045
2.59444
2.58767
2.58016
2.57193
2.56301
2.55341
2.54316
2.53228
2.52079
2.50871
2.49606
2.48286
2.46913
2.45489
2.44019
2.42506
2.40952
2.39362
2.37738
2.36083
2.344
2.3269
2.30956
2.29199
2.27423
2.2563
2.23824
2.22009
2.20189
2.18368
2.16549
2.14736
2.12932
2.1114
2.09356
2.07574
2.05677
2.03377
2.71944e-05
0.000745297
0.00480734
0.0146622
0.0240045
0.0299638
0.0332391
0.03478
0.0352122
0.0349709
0.0342344
0.0331132
0.0317972
0.0303915
0.0289763
0.0276091
0.0263256
0.025143
0.0240624
0.0230731
0.0221563
0.0212845
0.0204235
0.0195272
0.0186321
0.0178132
0.0172439
0.0173634
0.0192617
0.0248502
0.037104
0.0578091
0.0814235
0.103634
0.121608
0.134219
0.142815
0.149833
0.157363
0.167478
0.181093
0.198231
0.218959
0.242974
0.26987
0.298982
0.329717
0.361669
0.394568
0.428275
0.462663
0.497663
0.533211
0.569265
0.605782
0.642711
0.679995
0.717562
0.75535
0.793297
0.831352
0.869469
0.90762
0.945787
0.983963
1.02215
1.06035
1.09858
1.13684
1.17516
1.21355
1.252
1.29051
1.32909
1.36772
1.40639
1.44508
1.48376
1.52241
1.561
1.59952
1.63793
1.67621
1.71434
1.75229
1.79003
1.82756
1.86483
1.90182
1.93852
1.9749
2.01093
2.04659
2.08185
2.11669
2.15109
2.18502
2.21844
2.25134
2.28368
2.31543
2.34656
2.37705
2.40688
2.436
2.4644
2.49205
2.51893
2.545
2.57025
2.59466
2.61819
2.64084
2.66258
2.68339
2.70326
2.72217
2.74011
2.75706
2.77301
2.78794
2.80184
2.81472
2.82655
2.83734
2.84709
2.85579
2.86343
2.87003
2.87558
2.88009
2.88357
2.88603
2.88735
2.88774
2.88722
2.8857
2.88322
2.8798
2.87545
2.87021
2.86409
2.8571
2.84926
2.84061
2.83115
2.82091
2.80992
2.7982
2.78578
2.77267
2.7589
2.7445
2.72949
2.71388
2.69772
2.68103
2.66387
2.64625
2.62823
2.60982
2.59107
2.572
2.55264
2.533
2.51311
2.493
2.47271
2.45228
2.43176
2.41119
2.39062
2.37009
2.34966
2.32937
2.30927
2.28937
2.26961
2.24897
2.22494
8.15124e-05
0.00205022
0.0113733
0.0246527
0.0327918
0.0370793
0.039082
0.0396625
0.0393569
0.0384107
0.0369934
0.0353297
0.0335567
0.0317826
0.0300871
0.028523
0.0271172
0.0258749
0.024786
0.0238302
0.0229803
0.0222022
0.0214203
0.0206759
0.0201603
0.0202682
0.0219886
0.026965
0.0376438
0.0549092
0.0761552
0.097651
0.117537
0.133646
0.145049
0.152849
0.159433
0.167426
0.178318
0.19279
0.210987
0.232632
0.257357
0.284587
0.313706
0.344149
0.375559
0.407751
0.440642
0.474196
0.508395
0.543238
0.578726
0.614858
0.65162
0.688979
0.726893
0.765314
0.804188
0.843459
0.883077
0.922994
0.963175
1.00359
1.04422
1.08506
1.1261
1.16733
1.20876
1.25039
1.29221
1.33423
1.37643
1.41878
1.46128
1.5039
1.54659
1.58934
1.63209
1.67482
1.7175
1.76008
1.80253
1.84484
1.88696
1.92887
1.97053
2.01193
2.05303
2.09381
2.13423
2.17427
2.2139
2.25308
2.2918
2.33002
2.36771
2.40484
2.44137
2.47728
2.51252
2.54708
2.58091
2.61398
2.64627
2.67775
2.70838
2.73814
2.76701
2.79494
2.82193
2.84794
2.87296
2.89695
2.91991
2.94182
2.96265
2.9824
3.00103
3.01855
3.03493
3.05017
3.06426
3.07719
3.08895
3.09955
3.10898
3.11724
3.12433
3.13026
3.13502
3.13864
3.14112
3.14235
3.14257
3.14171
3.13976
3.13674
3.13268
3.1276
3.12153
3.11448
3.10647
3.09754
3.08769
3.07697
3.06539
3.05297
3.03975
3.02576
3.01101
2.99553
2.97936
2.96251
2.94502
2.92692
2.90824
2.88905
2.86936
2.84921
2.82865
2.8077
2.7864
2.76478
2.74285
2.72065
2.69821
2.67558
2.6528
2.62992
2.60699
2.58407
2.56122
2.53848
2.51592
2.49361
2.47157
2.44977
2.42727
2.40174
0.000211395
0.00484115
0.0207361
0.0335876
0.0401732
0.0432699
0.0443707
0.0442083
0.043217
0.0415892
0.0396037
0.0374418
0.0352537
0.0331576
0.0312381
0.0295471
0.0281102
0.0269329
0.0260089
0.0253176
0.0248822
0.0247884
0.0251189
0.02628
0.028645
0.0330838
0.041269
0.0544285
0.0710519
0.0896117
0.108309
0.125197
0.139082
0.149607
0.157699
0.165251
0.174313
0.186226
0.201619
0.220493
0.242545
0.267284
0.294175
0.322661
0.352274
0.382701
0.413799
0.445531
0.477906
0.510955
0.544712
0.579216
0.614499
0.650573
0.687438
0.725083
0.763483
0.802603
0.842399
0.882825
0.923834
0.965382
1.00743
1.04994
1.0929
1.13627
1.18004
1.22421
1.26875
1.31366
1.35893
1.40454
1.45045
1.49665
1.5431
1.58975
1.63655
1.68347
1.73044
1.77743
1.82438
1.87124
1.91799
1.96458
2.01098
2.05716
2.10308
2.1487
2.194
2.23894
2.28349
2.32762
2.37129
2.41448
2.45714
2.49925
2.54076
2.58165
2.62188
2.6614
2.70019
2.7382
2.7754
2.81176
2.84724
2.8818
2.91543
2.94808
2.97973
3.01035
3.03991
3.06838
3.09574
3.12197
3.14704
3.17095
3.19366
3.21517
3.23545
3.25449
3.27227
3.28879
3.30403
3.31799
3.33067
3.34206
3.35215
3.36096
3.36847
3.3747
3.37966
3.38335
3.38576
3.38685
3.38682
3.38556
3.38312
3.3795
3.37473
3.36886
3.36189
3.35385
3.34478
3.33469
3.32361
3.31157
3.2986
3.28473
3.26998
3.25437
3.23795
3.22074
3.20278
3.18407
3.16467
3.14462
3.12395
3.10271
3.08095
3.05869
3.03597
3.01284
2.98932
2.96544
2.94124
2.91673
2.89198
2.86701
2.84189
2.81667
2.7914
2.76613
2.74094
2.71589
2.69104
2.66648
2.64224
2.61832
2.59381
2.56655
0.00046955
0.00976837
0.0301645
0.0416017
0.0469832
0.049235
0.0496336
0.0488315
0.0471759
0.0449755
0.0424708
0.0398686
0.0373417
0.0350238
0.0330087
0.0313517
0.0300838
0.0291792
0.0287087
0.0285758
0.0289256
0.0300738
0.032597
0.0372473
0.0447197
0.0553187
0.0685738
0.0834252
0.0991937
0.114711
0.128847
0.140911
0.150957
0.159694
0.168498
0.178848
0.19186
0.207983
0.227189
0.249144
0.2734
0.299477
0.326925
0.355363
0.384531
0.414302
0.444656
0.47563
0.507281
0.539678
0.572885
0.606959
0.641938
0.677856
0.714728
0.752559
0.791338
0.831044
0.871647
0.913111
0.955397
0.998466
1.04228
1.0868
1.13201
1.17786
1.22435
1.27144
1.31911
1.36735
1.41611
1.46538
1.5151
1.56524
1.61575
1.66655
1.71759
1.76881
1.82013
1.87149
1.92284
1.97412
2.02528
2.07627
2.12705
2.17759
2.22785
2.27779
2.32736
2.37654
2.42528
2.47356
2.52134
2.56857
2.61522
2.66125
2.70662
2.75129
2.79523
2.83838
2.88071
2.92218
2.96274
3.00236
3.041
3.07862
3.1152
3.1507
3.18509
3.21833
3.2504
3.28126
3.31089
3.33928
3.36639
3.39221
3.41672
3.4399
3.46173
3.48219
3.50128
3.51897
3.53527
3.55016
3.56364
3.57571
3.58637
3.59562
3.60345
3.60989
3.61492
3.61858
3.62084
3.62172
3.62131
3.61958
3.61654
3.61223
3.60669
3.59993
3.59199
3.5829
3.57268
3.56136
3.54899
3.53558
3.52116
3.50578
3.48945
3.47221
3.45408
3.43511
3.41532
3.39474
3.37341
3.35139
3.32871
3.30544
3.2816
3.25723
3.23237
3.20706
3.18133
3.15522
3.12875
3.10196
3.0749
3.04763
3.02019
2.99264
2.96503
2.93744
2.90992
2.88255
2.85539
2.82855
2.80206
2.77594
2.74936
2.72044
0.000890947
0.0167888
0.038403
0.0488934
0.0535962
0.0552876
0.0551717
0.0538207
0.0516462
0.0489715
0.0460721
0.0431855
0.0405109
0.0382014
0.0363718
0.035086
0.0344719
0.0343917
0.0350058
0.0365414
0.0393012
0.0436279
0.0497832
0.0579313
0.067996
0.079694
0.092472
0.105588
0.118391
0.130329
0.141149
0.150961
0.160381
0.170382
0.181985
0.195919
0.212509
0.231687
0.253168
0.27657
0.301509
0.327634
0.354654
0.382357
0.410633
0.439462
0.468883
0.498973
0.529815
0.5615
0.594102
0.627688
0.662313
0.698024
0.734852
0.772816
0.811921
0.852161
0.893521
0.935977
0.979503
1.02407
1.06963
1.11617
1.16364
1.21202
1.26126
1.31135
1.36224
1.41389
1.46628
1.51933
1.573
1.62722
1.68192
1.73701
1.79242
1.84806
1.90386
1.95973
2.0156
2.07139
2.12705
2.18254
2.23779
2.29277
2.34744
2.40174
2.45563
2.50907
2.56202
2.61446
2.66634
2.71761
2.76823
2.81816
2.86735
2.91576
2.96335
3.01007
3.05588
3.10072
3.14456
3.18735
3.22904
3.26962
3.30904
3.34726
3.38426
3.41999
3.45443
3.48754
3.5193
3.54968
3.57868
3.60625
3.63239
3.65708
3.6803
3.70203
3.72226
3.74097
3.75815
3.77381
3.78794
3.80054
3.8116
3.82113
3.82914
3.83563
3.8406
3.84409
3.84607
3.84659
3.8457
3.84335
3.83961
3.83451
3.82807
3.82033
3.81133
3.80109
3.78964
3.77703
3.76328
3.74843
3.73252
3.71557
3.69763
3.67871
3.65885
3.63808
3.61644
3.59396
3.5707
3.5467
3.52203
3.49673
3.47083
3.44438
3.41741
3.38995
3.36204
3.33372
3.30501
3.27597
3.24665
3.2171
3.18738
3.15754
3.12765
3.09775
3.06793
3.03824
3.00879
2.97965
2.95089
2.92254
2.89382
2.86309
0.001423
0.0240007
0.0462832
0.0563019
0.0605385
0.061787
0.0612563
0.0594813
0.0569225
0.0539563
0.0509041
0.0480347
0.0455737
0.0437016
0.0426375
0.0423236
0.0427826
0.0441699
0.0466113
0.0502528
0.0552172
0.0615719
0.0692946
0.0782675
0.0882597
0.0989094
0.109802
0.120569
0.131006
0.141048
0.15088
0.160979
0.172013
0.184596
0.199174
0.215918
0.234759
0.255467
0.277752
0.301323
0.325921
0.351334
0.377405
0.404045
0.43123
0.458998
0.48742
0.516594
0.546617
0.577584
0.609581
0.64269
0.676976
0.712501
0.749307
0.787431
0.826893
0.867705
0.909869
0.953379
0.998218
1.04436
1.09178
1.14044
1.19031
1.24135
1.29351
1.34675
1.40103
1.45629
1.51248
1.56952
1.62733
1.6858
1.74486
1.80439
1.86431
1.92451
1.98489
2.04536
2.10583
2.16621
2.22644
2.28646
2.34621
2.40565
2.46472
2.52336
2.58153
2.63918
2.69628
2.7528
2.80869
2.86391
2.91839
2.97209
3.02497
3.07698
3.12807
3.17819
3.22729
3.27533
3.32224
3.368
3.41254
3.45585
3.49788
3.53859
3.57796
3.61594
3.65251
3.68762
3.72125
3.75339
3.78401
3.81309
3.84061
3.86655
3.89091
3.91365
3.93477
3.95425
3.97209
3.98829
4.00283
4.01573
4.02698
4.03659
4.04456
4.05089
4.05562
4.05874
4.06028
4.06026
4.05873
4.05562
4.05103
4.04499
4.03754
4.0287
4.01851
4.00702
3.99425
3.98025
3.96505
3.94869
3.93122
3.91266
3.89306
3.87244
3.85082
3.82825
3.80474
3.78037
3.75518
3.72923
3.70259
3.67529
3.64738
3.61889
3.58985
3.5603
3.53027
3.49979
3.4689
3.43767
3.40615
3.3744
3.34247
3.31041
3.27828
3.24614
3.21406
3.18211
3.15039
3.11898
3.08796
3.05738
3.02652
2.99394
0.00212344
0.0305677
0.0536218
0.0636489
0.0677264
0.0687532
0.0679385
0.0658549
0.063069
0.0600465
0.0571625
0.0547033
0.0528732
0.0519733
0.0518133
0.052586
0.0543442
0.0571203
0.0609456
0.0658281
0.0717471
0.0786356
0.0863758
0.094807
0.10374
0.11299
0.122418
0.13195
0.141635
0.151667
0.162384
0.174183
0.187413
0.202292
0.218893
0.237137
0.256859
0.27785
0.299906
0.322846
0.346526
0.370845
0.39574
0.421199
0.44725
0.473964
0.50143
0.529749
0.559028
0.589368
0.620865
0.653611
0.687686
0.723164
0.760102
0.798544
0.838532
0.880095
0.923254
0.968016
1.01438
1.06233
1.11185
1.1629
1.21545
1.26945
1.32484
1.38156
1.43955
1.49874
1.55903
1.62033
1.68252
1.74547
1.80905
1.87314
1.93764
2.00244
2.06743
2.1325
2.19755
2.26249
2.32725
2.39176
2.45596
2.51977
2.58314
2.64599
2.70828
2.76998
2.83105
2.89146
2.95115
3.01008
3.06818
3.12541
3.1817
3.23701
3.2913
3.3445
3.39658
3.44747
3.49713
3.54549
3.59253
3.63819
3.68246
3.72529
3.76665
3.80651
3.84481
3.88155
3.91667
3.95018
3.98204
4.01225
4.04078
4.06762
4.09275
4.11615
4.13782
4.15774
4.1759
4.19231
4.20696
4.21985
4.231
4.2404
4.24806
4.25399
4.25821
4.26074
4.2616
4.26086
4.25846
4.2544
4.24879
4.24166
4.23303
4.22295
4.21146
4.1986
4.18441
4.16892
4.15219
4.13426
4.11516
4.09495
4.07365
4.0513
4.02793
4.00355
3.97819
3.95194
3.92486
3.89701
3.86844
3.83921
3.80935
3.77889
3.74788
3.71633
3.68425
3.6517
3.61873
3.5854
3.55179
3.51794
3.4839
3.44973
3.41547
3.38118
3.34692
3.31279
3.27887
3.24526
3.21203
3.17928
3.14631
3.11192
0.00294325
0.036449
0.0609717
0.0712272
0.0752201
0.0760829
0.0750396
0.0727141
0.0697836
0.0668793
0.0644565
0.0627547
0.0619397
0.0618039
0.0626014
0.064378
0.067076
0.0706599
0.0750979
0.080347
0.0863451
0.0930152
0.100274
0.108046
0.116278
0.124931
0.134018
0.143631
0.153923
0.165093
0.177351
0.190861
0.205713
0.221903
0.239364
0.257972
0.277591
0.298085
0.31934
0.341269
0.363815
0.38695
0.410682
0.435044
0.460099
0.485933
0.512647
0.540347
0.569132
0.59911
0.630383
0.663053
0.697212
0.732944
0.770323
0.80942
0.850293
0.892993
0.937561
0.984019
1.03238
1.08263
1.13476
1.18874
1.24451
1.30202
1.36119
1.42193
1.48413
1.54768
1.61246
1.67834
1.74514
1.81271
1.88087
1.9495
2.01848
2.08773
2.15716
2.22666
2.29611
2.36541
2.4345
2.5033
2.57172
2.63968
2.70707
2.77382
2.83992
2.90532
2.97001
3.03394
3.09704
3.15927
3.22056
3.28086
3.3401
3.39824
3.45522
3.511
3.56553
3.61874
3.67059
3.72102
3.76998
3.81746
3.8634
3.90779
3.95058
3.99175
4.03125
4.06905
4.10513
4.13946
4.17205
4.20286
4.23189
4.25911
4.28453
4.30812
4.32987
4.34977
4.36782
4.38402
4.39837
4.41087
4.42154
4.43037
4.43738
4.44258
4.446
4.44765
4.44757
4.44586
4.44231
4.4371
4.43027
4.42186
4.41189
4.40043
4.38749
4.37314
4.35741
4.34035
4.32201
4.30243
4.28166
4.25975
4.23673
4.21266
4.18755
4.16139
4.13422
4.10614
4.07724
4.04756
4.01716
3.98609
3.95437
3.92206
3.88918
3.85575
3.82176
3.78727
3.75235
3.71708
3.68152
3.64572
3.60972
3.57358
3.53733
3.50103
3.46473
3.42854
3.39254
3.35685
3.32153
3.2867
3.2517
3.21562
0.0038359
0.0426375
0.068256
0.0787696
0.0827264
0.0834484
0.082055
0.0794252
0.0765338
0.0740558
0.0723619
0.0715787
0.0714309
0.0720553
0.0736044
0.0760122
0.0792124
0.0831508
0.0877856
0.0930792
0.098997
0.105516
0.11262
0.120303
0.128586
0.137517
0.147176
0.157652
0.169051
0.181466
0.194946
0.209505
0.225117
0.241711
0.259206
0.277512
0.296553
0.316266
0.336613
0.357575
0.379155
0.401377
0.424284
0.447947
0.472442
0.497844
0.52426
0.551802
0.580578
0.610705
0.642292
0.675456
0.7103
0.746929
0.785434
0.825903
0.868416
0.913048
0.959855
1.00887
1.06012
1.11357
1.1692
1.22697
1.28681
1.34865
1.41235
1.47779
1.54478
1.61316
1.68272
1.7533
1.82473
1.89681
1.96935
2.04213
2.11514
2.18834
2.26168
2.33511
2.40846
2.48164
2.55458
2.62719
2.69934
2.77092
2.84181
2.91196
2.98136
3.04996
3.11772
3.18459
3.25051
3.31543
3.37928
3.44198
3.50349
3.56375
3.62271
3.68034
3.73657
3.79136
3.84464
3.89637
3.9465
3.995
4.04185
4.08702
4.13049
4.1722
4.21214
4.25027
4.28656
4.32101
4.35359
4.38432
4.41316
4.44012
4.46518
4.48833
4.50956
4.52886
4.54624
4.56169
4.57523
4.58685
4.59657
4.60439
4.61032
4.61439
4.61663
4.61705
4.61579
4.61267
4.60773
4.6011
4.5928
4.58288
4.57138
4.55834
4.54379
4.5278
4.5104
4.49165
4.47159
4.45028
4.42776
4.40409
4.37931
4.35346
4.32659
4.2987
4.26981
4.24003
4.20942
4.17804
4.14593
4.11314
4.07971
4.04568
4.01109
3.97596
3.94022
3.90397
3.86731
3.83029
3.79298
3.75542
3.71765
3.67973
3.6417
3.60356
3.56541
3.52734
3.48945
3.45185
3.4146
3.37784
3.34095
3.30337
0.00474886
0.048548
0.0752911
0.0860364
0.0899297
0.0904732
0.0886846
0.0859216
0.0833221
0.0814487
0.0805357
0.0802933
0.0807084
0.0819192
0.0839572
0.0867565
0.0902622
0.0944342
0.0992522
0.10471
0.110808
0.117559
0.124986
0.133129
0.142032
0.151747
0.162324
0.173801
0.186197
0.199499
0.213702
0.228767
0.244633
0.261237
0.278533
0.29648
0.31506
0.334268
0.354112
0.374614
0.395816
0.417784
0.440615
0.464404
0.489154
0.514926
0.541908
0.570222
0.599969
0.63127
0.664246
0.699024
0.735725
0.774462
0.815342
0.858465
0.903923
0.951792
1.00214
1.05502
1.11039
1.1682
1.22838
1.29086
1.35556
1.42234
1.49108
1.56159
1.63363
1.70693
1.78111
1.85603
1.93155
2.00756
2.08383
2.16016
2.23667
2.31326
2.38991
2.46646
2.54278
2.61889
2.69482
2.77036
2.84534
2.91964
2.99319
3.06595
3.1378
3.20871
3.27863
3.34752
3.4153
3.48193
3.54731
3.6114
3.67412
3.73542
3.79529
3.85367
3.91053
3.9658
4.01942
4.07136
4.12156
4.17001
4.21669
4.26159
4.30469
4.34594
4.38531
4.42277
4.45831
4.49192
4.5236
4.55334
4.58115
4.607
4.63091
4.65285
4.67282
4.69083
4.70686
4.72093
4.73305
4.74323
4.75147
4.75778
4.76218
4.7647
4.76536
4.76431
4.76138
4.75656
4.74999
4.7417
4.73174
4.72014
4.70694
4.69219
4.67594
4.65823
4.63911
4.61863
4.59684
4.5738
4.54955
4.52415
4.49765
4.4701
4.44153
4.412
4.38158
4.35028
4.31815
4.28524
4.25159
4.21727
4.1823
4.14674
4.11061
4.07397
4.03674
3.99901
3.96086