/*--------------------------------*- C++ -*----------------------------------*\
  =========                 |
  \\      /  F ield         | OpenFOAM: The Open Source CFD Toolbox
   \\    /   O peration     | Website:  https://openfoam.org
    \\  /    A nd           | Version:  8
     \\/     M anipulation  |
\*---------------------------------------------------------------------------*/
FoamFile
{
    version     2.0;
    format      ascii;
    class       volScalarField;
    location    "1900";
    object      nut;
}
// * * * * * * * * * * * * * * * * * * * * * * * * * * * * * * * * * * * * * //

dimensions      [0 2 -1 0 0 0 0];

internalField   nonuniform List<scalar> 
12225
(
2.88956e-06
2.04232e-05
1.96458e-05
1.87263e-05
1.8234e-05
1.77416e-05
2.5132e-05
2.13033e-05
1.72273e-05
2.9232e-05
2.9512e-05
3.32898e-05
2.58417e-05
2.16994e-05
2.29308e-05
1.8942e-05
1.78489e-05
1.9363e-05
0.000132813
4.06268e-05
2.9907e-05
2.81477e-05
2.32319e-05
2.74494e-05
2.79828e-05
2.8919e-05
3.19205e-05
3.79795e-05
4.15223e-05
4.25532e-05
4.30552e-05
4.35498e-05
4.30825e-05
4.60666e-05
4.39275e-05
4.58991e-05
0.000587967
0.00020883
0.000113664
7.31205e-05
5.15467e-05
4.38998e-05
3.94136e-05
3.72337e-05
3.58602e-05
3.53315e-05
3.52779e-05
3.52042e-05
3.52043e-05
3.49903e-05
3.46834e-05
3.47478e-05
3.44608e-05
3.47078e-05
0.000524101
0.000405574
0.000318549
0.000249504
0.000200925
0.000165759
0.00014762
0.00013079
0.000117211
0.000103909
9.5579e-05
8.90036e-05
8.46181e-05
7.99639e-05
7.66956e-05
7.27894e-05
7.04426e-05
6.74891e-05
0.000462608
0.000448871
0.000418484
0.0003936
0.000371251
0.00033988
0.000321122
0.00029671
0.00027804
0.000254606
0.000239653
0.000223175
0.000213775
0.000201582
0.000194807
0.00018478
0.000179778
0.000171398
0.000456149
0.000453634
0.000447768
0.000440923
0.000435115
0.000425768
0.0004187
0.000406635
0.000397995
0.000383205
0.000373529
0.000359615
0.000351419
0.000339359
0.000332558
0.000322024
0.000316556
0.000306959
0.000454529
0.00045369
0.000452712
0.000451418
0.000449946
0.000447577
0.000445573
0.000442442
0.000439949
0.000435875
0.00043227
0.00042674
0.000422892
0.000417058
0.000413312
0.000407642
0.000404149
0.000398689
0.00045428
0.000453627
0.000453292
0.000452599
0.000452227
0.000451465
0.000450913
0.000449841
0.000449055
0.000447642
0.000446277
0.000444515
0.000442736
0.00044068
0.000438778
0.000436537
0.000434563
0.000432179
0.000454215
0.000453656
0.000453327
0.000452811
0.000452518
0.000452039
0.000451756
0.000451238
0.000450894
0.000450301
0.000449823
0.000449082
0.000448504
0.00044761
0.000446967
0.000445958
0.000445293
0.000444198
0.000454185
0.000453678
0.000453305
0.000452849
0.000452519
0.000452106
0.000451812
0.000451426
0.000451149
0.000450773
0.000450496
0.000450107
0.000449822
0.000449415
0.000449118
0.0004487
0.00044839
0.000447967
0.000454167
0.00045369
0.000453283
0.000452855
0.00045249
0.000452105
0.000451776
0.000451427
0.000451128
0.000450809
0.000450533
0.000450239
0.000449981
0.000449706
0.000449463
0.000449206
0.000448974
0.000448733
0.000454158
0.000453695
0.000453269
0.000452853
0.000452469
0.000452095
0.000451747
0.000451409
0.000451093
0.000450786
0.000450499
0.000450219
0.000449956
0.000449701
0.00044946
0.000449227
0.000449004
0.000448791
0.000454155
0.000453695
0.000453261
0.000452847
0.000452457
0.000452082
0.000451729
0.00045139
0.000451069
0.000450761
0.000450469
0.000450189
0.000449922
0.000449666
0.000449422
0.000449188
0.000448965
0.000448751
0.000454154
0.000453694
0.000453257
0.000452843
0.000452449
0.000452074
0.000451717
0.000451377
0.000451053
0.000450744
0.000450449
0.000450167
0.000449897
0.00044964
0.000449394
0.000449158
0.000448933
0.000448717
0.000454155
0.000453695
0.000453261
0.000452846
0.000452454
0.000452078
0.000451724
0.000451383
0.000451061
0.000450751
0.000450457
0.000450174
0.000449907
0.000449648
0.000449404
0.000449167
0.000448943
0.000448726
0.000454165
0.000453724
0.000453309
0.000452909
0.000452534
0.000452171
0.000451832
0.000451501
0.000451193
0.000450891
0.000450611
0.000450334
0.00045008
0.000449825
0.000449593
0.000449359
0.000449148
0.000448932
0.000454192
0.000453805
0.000453435
0.000453081
0.000452744
0.000452422
0.000452115
0.00045182
0.000451538
0.000451268
0.00045101
0.000450762
0.000450526
0.000450297
0.00045008
0.00044987
0.000449669
0.000449476
0.000454192
0.000453804
0.000453434
0.00045308
0.000452742
0.000452419
0.000452111
0.000451816
0.000451534
0.000451263
0.000451005
0.000450756
0.000450518
0.000450291
0.000450071
0.000449862
0.000449659
0.000449467
0.000454163
0.000453724
0.000453302
0.000452905
0.000452522
0.000452163
0.000451815
0.000451489
0.000451172
0.000450875
0.000450586
0.000450315
0.00045005
0.000449802
0.000449558
0.000449332
0.000449108
0.000448901
0.000454154
0.000453694
0.000453257
0.000452841
0.000452446
0.000452069
0.00045171
0.000451368
0.000451042
0.00045073
0.000450433
0.000450148
0.000449877
0.000449617
0.000449368
0.00044913
0.000448902
0.000448684
0.000454153
0.000453693
0.000453255
0.000452839
0.000452441
0.000452064
0.000451704
0.000451361
0.000451033
0.000450721
0.000450422
0.000450137
0.000449864
0.000449603
0.000449352
0.000449113
0.000448884
0.000448665
0.000454151
0.000453696
0.000453256
0.000452844
0.000452445
0.000452071
0.000451709
0.00045137
0.000451041
0.000450732
0.000450431
0.000450148
0.000449873
0.000449613
0.00044936
0.00044912
0.000448887
0.000448667
0.000454141
0.000453708
0.000453252
0.000452856
0.000452442
0.000452084
0.000451708
0.000451383
0.000451038
0.000450734
0.00045041
0.000450122
0.000449812
0.000449533
0.000449234
0.000448964
0.000448677
0.000448415
0.000454103
0.000453755
0.000453227
0.00045286
0.000452369
0.000452048
0.00045158
0.000451241
0.000450745
0.000450344
0.000449773
0.000449311
0.000448647
0.000448101
0.000447368
0.000446767
0.000445999
0.000445366
0.000454031
0.000453921
0.000453061
0.000452388
0.000451398
0.000450826
0.000449542
0.000448345
0.000446596
0.000444624
0.000442573
0.000440416
0.00043759
0.000435206
0.000432073
0.000429588
0.000426466
0.000424026
0.0004544
0.000454694
0.000450869
0.000445336
0.000440577
0.000435146
0.000428596
0.000421833
0.000412234
0.000404244
0.000393964
0.000385691
0.000375708
0.000367992
0.000358928
0.000352152
0.000344139
0.000338294
0.000461789
0.000445713
0.000423731
0.000393112
0.000366034
0.000340443
0.000312681
0.000290953
0.000269106
0.000252697
0.000236147
0.000224009
0.000211485
0.00020253
0.000192958
0.000186296
0.00017883
0.000173768
0.000538379
0.000349327
0.00026821
0.000204386
0.000157727
0.000129969
0.000111136
9.8745e-05
8.92087e-05
8.24616e-05
7.68219e-05
7.27442e-05
6.91096e-05
6.65158e-05
6.40543e-05
6.2362e-05
6.06419e-05
5.94739e-05
0.000350756
9.40453e-05
6.05272e-05
4.92968e-05
4.50778e-05
4.30406e-05
4.25075e-05
4.22357e-05
4.26314e-05
4.29488e-05
4.37779e-05
4.44398e-05
4.5571e-05
4.64985e-05
4.78683e-05
4.90152e-05
5.04699e-05
5.06388e-05
4.40773e-06
1.16538e-05
1.61023e-05
1.9214e-05
2.1028e-05
2.20941e-05
2.24082e-05
2.25223e-05
2.24619e-05
2.22204e-05
2.19282e-05
2.16189e-05
2.1312e-05
2.10201e-05
2.07474e-05
2.05e-05
2.0273e-05
2.0073e-05
1.56777e-12
1.7732e-10
9.02316e-10
3.54835e-09
1.18389e-08
3.61492e-08
9.36858e-08
1.85191e-07
2.98869e-07
4.18326e-07
5.25038e-07
6.07563e-07
6.62172e-07
6.8193e-07
6.72756e-07
6.4456e-07
5.9203e-07
5.05475e-07
4.2963e-07
3.64733e-07
3.03669e-07
2.4459e-07
1.87822e-07
1.35178e-07
8.8409e-08
5.21191e-08
2.79246e-08
1.41881e-08
7.26614e-09
3.96872e-09
2.40254e-09
1.79669e-09
1.89097e-09
3.78896e-09
7.87156e-09
4.82035e-08
1.09386e-07
2.53846e-07
3.95064e-07
4.44577e-07
4.11065e-07
3.3231e-07
2.74074e-07
2.61722e-07
2.83476e-07
3.71888e-07
4.82938e-07
9.16641e-07
1.99091e-06
5.87578e-06
1.69368e-05
3.23791e-05
4.6422e-05
5.16894e-05
5.20577e-05
4.75558e-05
4.5999e-05
4.1935e-05
3.81071e-05
4.07985e-05
3.3138e-05
3.47868e-05
3.60524e-05
3.11954e-05
3.3195e-05
3.35316e-05
3.41902e-05
3.47259e-05
3.53217e-05
3.58568e-05
3.64161e-05
3.69493e-05
3.74858e-05
3.80114e-05
3.85347e-05
3.90517e-05
3.9566e-05
4.00757e-05
4.05831e-05
4.1087e-05
4.15889e-05
4.20885e-05
4.25862e-05
4.30822e-05
4.35767e-05
4.407e-05
4.45619e-05
4.50526e-05
4.55419e-05
4.60297e-05
4.65157e-05
4.69998e-05
4.74815e-05
4.79607e-05
4.84368e-05
4.89096e-05
4.93792e-05
4.98458e-05
5.03119e-05
5.07808e-05
5.12601e-05
5.17426e-05
5.22259e-05
5.27132e-05
5.32055e-05
5.37025e-05
5.42056e-05
5.47142e-05
5.52297e-05
5.5752e-05
5.6282e-05
5.68201e-05
5.73671e-05
5.79235e-05
5.84902e-05
5.90681e-05
5.96579e-05
6.02607e-05
6.08773e-05
6.1509e-05
6.21568e-05
6.28221e-05
6.35059e-05
6.42101e-05
6.49356e-05
6.56845e-05
6.6458e-05
6.72583e-05
6.80935e-05
6.89705e-05
6.98566e-05
7.08164e-05
7.17621e-05
7.27966e-05
7.38623e-05
7.50024e-05
7.61975e-05
7.73545e-05
7.71124e-05
7.68614e-05
7.65962e-05
7.63211e-05
7.60348e-05
7.57388e-05
7.54326e-05
7.51174e-05
7.47931e-05
7.44612e-05
7.41219e-05
7.37759e-05
7.3423e-05
7.30634e-05
7.26974e-05
7.23271e-05
7.19503e-05
7.15702e-05
7.11861e-05
7.07991e-05
7.04104e-05
7.00202e-05
6.9629e-05
6.92367e-05
6.88436e-05
6.845e-05
6.80559e-05
6.76619e-05
6.72684e-05
6.68761e-05
6.64853e-05
6.60965e-05
6.57098e-05
6.53246e-05
6.49399e-05
6.45537e-05
6.41619e-05
6.37563e-05
6.33272e-05
6.28445e-05
6.22544e-05
6.07388e-05
7.01839e-12
1.13071e-09
1.5347e-08
8.27267e-08
3.56364e-07
1.18534e-06
2.70048e-06
4.91096e-06
7.60004e-06
1.06643e-05
1.37582e-05
1.66244e-05
1.90516e-05
2.08654e-05
2.19465e-05
2.22498e-05
2.19045e-05
2.11735e-05
1.88441e-05
1.57979e-05
1.21623e-05
8.93349e-06
6.28992e-06
4.23336e-06
2.67221e-06
1.65555e-06
1.01422e-06
6.3167e-07
3.97879e-07
2.61702e-07
1.89464e-07
1.66481e-07
1.51086e-07
2.73422e-07
3.77573e-07
2.89954e-06
6.55372e-06
1.39434e-05
1.99559e-05
2.23869e-05
2.1228e-05
1.91357e-05
1.66601e-05
1.54467e-05
1.61877e-05
1.63523e-05
1.84086e-05
2.44752e-05
3.53292e-05
4.60158e-05
5.76994e-05
6.80035e-05
7.78003e-05
8.65125e-05
9.5278e-05
0.000105802
0.000118605
0.00013019
0.000142779
0.000159124
0.000168085
0.000182331
0.000197357
0.000204671
0.000218153
0.000229379
0.000240619
0.000251403
0.000261739
0.000271792
0.000281507
0.000290972
0.000300191
0.000309204
0.000318028
0.000326685
0.000335189
0.000343555
0.000351791
0.000359907
0.000367908
0.000375799
0.000383586
0.000391271
0.000398857
0.000406346
0.000413739
0.000421038
0.00042824
0.000435346
0.000442352
0.000449257
0.000456054
0.000462737
0.000469289
0.000475691
0.000481906
0.000487882
0.00049354
0.000498764
0.000503409
0.00050781
0.000512151
0.000516345
0.000520439
0.000524407
0.000528258
0.000531984
0.000535587
0.000539062
0.000542408
0.000545623
0.000548704
0.000551649
0.000554456
0.000557122
0.000559647
0.000562028
0.000564262
0.000566349
0.000568287
0.000570073
0.000571707
0.000573187
0.000574511
0.000575679
0.000576689
0.000577538
0.000578222
0.000578745
0.000579118
0.000579365
0.00057935
0.000579294
0.000578988
0.000578671
0.000578342
0.000578027
0.000577912
0.0005776
0.000577154
0.000576581
0.000575886
0.000575071
0.00057414
0.000573095
0.000571939
0.000570679
0.00056932
0.000567863
0.00056631
0.000564659
0.00056292
0.000561077
0.00055916
0.000557155
0.000555068
0.000552917
0.000550693
0.000548416
0.000546079
0.000543689
0.000541246
0.000538751
0.000536202
0.000533601
0.000530953
0.000528259
0.000525524
0.000522749
0.000519935
0.000517073
0.000514151
0.000511158
0.000508025
0.000504674
0.000500984
0.000496652
0.000490933
0.000475266
1.89095e-11
3.24509e-09
6.11233e-08
3.71514e-07
1.03403e-06
2.92516e-06
6.1569e-06
1.06944e-05
1.63125e-05
2.2698e-05
2.94882e-05
3.6203e-05
4.22487e-05
4.72753e-05
5.10976e-05
5.35955e-05
5.49378e-05
5.52305e-05
5.37208e-05
5.08566e-05
4.62863e-05
4.03755e-05
3.32645e-05
2.61517e-05
1.96358e-05
1.40383e-05
9.54566e-06
6.37589e-06
4.06002e-06
2.70688e-06
1.9253e-06
1.53783e-06
1.31599e-06
2.04724e-06
3.63902e-06
1.54928e-05
3.31611e-05
5.17301e-05
6.21842e-05
6.16955e-05
5.05373e-05
4.03286e-05
3.82773e-05
4.38156e-05
5.08855e-05
5.95779e-05
7.21442e-05
8.45809e-05
9.71292e-05
0.000113409
0.000131636
0.00015226
0.00017537
0.000200611
0.000229556
0.00025879
0.000290224
0.000320609
0.000351394
0.000380626
0.000408278
0.000435624
0.000462666
0.000486592
0.000511006
0.000533859
0.00055585
0.000577
0.000597451
0.000617311
0.000636625
0.000655487
0.000673936
0.000692026
0.000709789
0.000727256
0.000744449
0.000761387
0.000778083
0.000794548
0.000810789
0.000826813
0.000842625
0.000858226
0.00087362
0.000888804
0.00090378
0.000918543
0.000933089
0.000947411
0.0009615
0.000975345
0.000988929
0.00100224
0.00101524
0.00102791
0.0010402
0.00105208
0.00106351
0.00107447
0.00108502
0.00109535
0.00110545
0.00111529
0.00112489
0.00113422
0.00114329
0.0011521
0.00116062
0.00116887
0.00117684
0.00118452
0.00119191
0.001199
0.00120579
0.00121228
0.00121845
0.00122432
0.00122987
0.00123509
0.00124
0.00124458
0.00124882
0.00125274
0.00125633
0.00125958
0.00126249
0.00126507
0.00126731
0.00126921
0.0012708
0.00127206
0.00127297
0.0012736
0.00127384
0.00127392
0.0012739
0.00127366
0.00127328
0.00127258
0.0012716
0.00127033
0.00126878
0.00126697
0.0012649
0.00126258
0.00126
0.0012572
0.00125416
0.00125091
0.00124744
0.00124376
0.00123987
0.00123576
0.00123146
0.00122696
0.00122229
0.00121747
0.00121249
0.00120737
0.00120213
0.00119678
0.00119131
0.00118572
0.00118003
0.00117422
0.00116831
0.00116231
0.00115623
0.00115007
0.00114383
0.0011375
0.00113105
0.00112443
0.00111754
0.0011102
0.00110214
0.00109261
0.00107974
0.00105132
6.83092e-11
1.1555e-08
1.83018e-07
7.91806e-07
2.47697e-06
6.82634e-06
1.35351e-05
2.2572e-05
3.32459e-05
4.44513e-05
5.5305e-05
6.52888e-05
7.37866e-05
8.02305e-05
8.50278e-05
8.80459e-05
8.92283e-05
8.8959e-05
8.73673e-05
8.42608e-05
7.97636e-05
7.42874e-05
6.69961e-05
5.8291e-05
4.86682e-05
3.8985e-05
3.00677e-05
2.26176e-05
1.6912e-05
1.23128e-05
9.54934e-06
7.08148e-06
7.61995e-06
1.11983e-05
2.49354e-05
4.77961e-05
6.69188e-05
7.73088e-05
7.47255e-05
7.13459e-05
7.08639e-05
7.39022e-05
8.0952e-05
9.14306e-05
0.000106141
0.000117866
0.000135516
0.000158661
0.000183391
0.000214927
0.000248994
0.000287363
0.000328227
0.000371435
0.000416033
0.00046056
0.000505131
0.000548265
0.000590475
0.000630254
0.000669398
0.000706674
0.000743152
0.000777522
0.000810812
0.00084281
0.000873784
0.000903838
0.000933096
0.000961655
0.000989591
0.00101698
0.00104387
0.00107031
0.00109634
0.00112199
0.00114726
0.00117219
0.00119677
0.00122103
0.00124496
0.00126857
0.00129185
0.00131482
0.00133747
0.00135979
0.00138178
0.00140343
0.00142474
0.0014457
0.00146629
0.00148649
0.0015063
0.00152569
0.00154465
0.00156315
0.00158119
0.00159874
0.00161581
0.00163241
0.00164862
0.00166447
0.00167996
0.00169507
0.00170979
0.00172412
0.00173804
0.00175156
0.00176465
0.00177733
0.00178958
0.00180139
0.00181276
0.00182368
0.00183416
0.00184417
0.00185373
0.00186281
0.00187143
0.00187957
0.00188723
0.0018944
0.00190109
0.0019073
0.00191301
0.00191823
0.00192296
0.0019272
0.00193095
0.00193422
0.00193701
0.00193933
0.00194117
0.00194255
0.0019434
0.00194401
0.0019443
0.00194419
0.00194372
0.0019428
0.00194147
0.00193972
0.00193756
0.00193501
0.00193207
0.00192875
0.00192507
0.00192104
0.00191667
0.00191197
0.00190695
0.0019016
0.00189594
0.00188997
0.0018837
0.00187714
0.00187032
0.00186326
0.00185596
0.00184847
0.00184077
0.0018329
0.00182485
0.00181663
0.00180824
0.00179969
0.00179098
0.00178214
0.00177317
0.00176409
0.00175489
0.00174558
0.00173609
0.00172637
0.00171629
0.00170564
0.00169404
0.00168048
0.00166238
0.00162863
2.32508e-10
3.45511e-08
4.09594e-07
1.93922e-06
6.70616e-06
1.61111e-05
2.98902e-05
4.62683e-05
6.33327e-05
7.94181e-05
9.32661e-05
0.000103869
0.000111729
0.000117177
0.000120255
0.000121529
0.00012122
0.000119516
0.000116605
0.000112523
0.000107273
0.000101326
9.40486e-05
8.55e-05
7.56195e-05
6.47003e-05
5.35417e-05
4.33962e-05
3.49877e-05
2.82412e-05
2.2434e-05
2.08132e-05
2.5566e-05
4.21525e-05
6.64061e-05
8.23816e-05
9.02728e-05
9.36609e-05
9.60518e-05
0.000100473
0.000108558
0.00012119
0.000135312
0.000147519
0.000167374
0.000195587
0.000225919
0.000264051
0.000305321
0.00035245
0.00040152
0.000453759
0.000507143
0.000561463
0.000615718
0.000669228
0.000721781
0.000772816
0.000822369
0.00086977
0.000916521
0.000961551
0.00100487
0.00104675
0.00108737
0.00112681
0.00116522
0.0012027
0.00123935
0.00127526
0.0013105
0.00134514
0.00137922
0.00141278
0.00144584
0.00147845
0.00151059
0.0015423
0.00157357
0.0016044
0.00163481
0.00166479
0.00169434
0.00172345
0.00175214
0.00178038
0.00180817
0.00183551
0.00186239
0.0018888
0.00191472
0.00194015
0.00196507
0.00198947
0.00201335
0.00203669
0.0020595
0.00208177
0.00210353
0.00212478
0.00214556
0.00216585
0.00218566
0.00220498
0.00222379
0.00224209
0.00225987
0.00227712
0.00229384
0.00231001
0.00232563
0.00234069
0.00235519
0.00236913
0.00238249
0.00239527
0.00240748
0.00241909
0.00243011
0.00244054
0.00245037
0.0024596
0.00246822
0.00247624
0.00248366
0.00249047
0.00249667
0.00250227
0.00250728
0.0025117
0.00251552
0.00251877
0.00252145
0.00252351
0.00252496
0.0025261
0.00252672
0.00252684
0.00252645
0.00252553
0.0025241
0.00252215
0.00251971
0.00251678
0.00251336
0.00250948
0.00250515
0.00250038
0.00249519
0.00248959
0.00248357
0.00247716
0.00247035
0.00246314
0.00245556
0.00244762
0.00243935
0.00243076
0.00242187
0.00241272
0.00240331
0.00239367
0.00238379
0.00237369
0.00236337
0.00235284
0.0023421
0.00233119
0.00232011
0.00230888
0.0022975
0.00228594
0.00227419
0.00226218
0.00224977
0.00223677
0.00222277
0.00220678
0.00218585
0.00215176
7.41161e-10
8.51586e-08
1.03023e-06
5.23531e-06
1.70383e-05
3.59306e-05
5.85794e-05
8.16613e-05
0.000101745
0.000117518
0.000129232
0.000137857
0.000143195
0.00014608
0.000147032
0.000146443
0.000144567
0.000141583
0.000137635
0.00013269
0.000126848
0.000120402
0.000112839
0.000104221
9.32034e-05
7.79182e-05
6.31218e-05
4.92107e-05
3.7537e-05
3.23874e-05
3.32086e-05
4.42685e-05
6.53826e-05
8.71072e-05
0.00010252
0.000111785
0.000117533
0.000123381
0.00013284
0.00014796
0.000160465
0.000173006
0.000194937
0.000223045
0.000256808
0.000298109
0.000343602
0.000395273
0.000449423
0.00050708
0.000565936
0.000626264
0.000686809
0.000747282
0.000807094
0.0008659
0.000923441
0.000979307
0.00103409
0.00108736
0.00113921
0.00118957
0.00123844
0.00128603
0.00133242
0.00137771
0.00142201
0.00146539
0.00150795
0.00154976
0.00159087
0.00163133
0.00167118
0.00171046
0.00174918
0.00178735
0.00182499
0.00186209
0.00189867
0.00193471
0.00197023
0.00200521
0.00203966
0.00207356
0.00210693
0.00213975
0.00217202
0.00220373
0.00223488
0.00226545
0.00229545
0.00232487
0.00235369
0.00238191
0.00240953
0.00243655
0.00246298
0.00248881
0.00251406
0.00253874
0.00256284
0.00258636
0.0026093
0.00263165
0.0026534
0.00267455
0.00269508
0.00271499
0.00273427
0.00275291
0.00277092
0.00278827
0.00280498
0.00282102
0.00283641
0.00285114
0.0028652
0.0028786
0.00289132
0.00290336
0.00291473
0.00292541
0.00293542
0.00294475
0.0029534
0.00296137
0.00296867
0.00297529
0.00298125
0.00298657
0.00299123
0.00299524
0.00299861
0.00300126
0.0030033
0.00300491
0.00300591
0.00300632
0.00300616
0.00300541
0.00300409
0.0030022
0.00299976
0.00299676
0.00299323
0.00298918
0.00298462
0.00297957
0.00297403
0.00296803
0.00296156
0.00295463
0.00294725
0.00293942
0.00293116
0.00292249
0.00291343
0.002904
0.00289423
0.00288414
0.00287375
0.00286307
0.00285211
0.00284087
0.00282937
0.00281762
0.00280563
0.00279342
0.002781
0.00276841
0.00275563
0.00274267
0.00272949
0.00271605
0.00270224
0.00268787
0.00267259
0.00265552
0.00263404
0.00260171
2.3723e-09
2.18061e-07
2.72663e-06
1.42816e-05
3.7258e-05
6.61574e-05
9.37642e-05
0.000116147
0.000133046
0.000145593
0.00015438
0.000159733
0.000162543
0.000163447
0.000162878
0.000161124
0.000158371
0.000154715
0.000150099
0.000144452
0.000137991
0.000130521
0.000121759
0.000105692
9.04196e-05
7.70046e-05
6.50773e-05
5.64081e-05
5.49834e-05
6.25094e-05
7.5483e-05
9.9349e-05
0.000117332
0.00013014
0.00013939
0.000147183
0.000157287
0.000172916
0.000183648
0.00019545
0.000216706
0.000243936
0.000278129
0.000318964
0.000366093
0.000419098
0.00047575
0.000535985
0.000597863
0.00066148
0.000725689
0.000790304
0.000854677
0.000918544
0.000981386
0.00104299
0.00110388
0.00116337
0.00122154
0.00127837
0.00133387
0.00138806
0.00144096
0.0014927
0.00154334
0.00159296
0.00164164
0.00168944
0.00173644
0.00178268
0.00182822
0.00187308
0.0019173
0.00196089
0.00200387
0.00204624
0.002088
0.00212915
0.00216968
0.0022096
0.00224889
0.00228756
0.00232559
0.00236299
0.00239976
0.00243589
0.00247138
0.00250622
0.00254043
0.00257398
0.00260688
0.00263913
0.00267072
0.00270165
0.00273192
0.00276153
0.00279048
0.00281875
0.00284636
0.0028733
0.0028996
0.00292525
0.00295024
0.00297456
0.00299822
0.0030212
0.0030435
0.00306512
0.00308604
0.00310628
0.00312583
0.00314468
0.00316284
0.00318028
0.00319702
0.00321304
0.00322834
0.00324292
0.00325678
0.00326992
0.00328234
0.00329403
0.00330499
0.00331524
0.00332476
0.00333356
0.00334165
0.00334903
0.00335571
0.00336175
0.00336702
0.00337163
0.00337556
0.0033787
0.00338127
0.00338329
0.00338467
0.00338541
0.00338553
0.00338503
0.00338393
0.00338223
0.00337995
0.00337713
0.00337377
0.00336986
0.00336541
0.00336044
0.00335496
0.00334897
0.00334248
0.00333549
0.00332802
0.00332007
0.00331166
0.00330279
0.0032935
0.00328381
0.00327374
0.00326331
0.00325254
0.00324144
0.00323002
0.00321829
0.00320626
0.00319394
0.00318134
0.00316849
0.00315541
0.00314211
0.00312861
0.00311491
0.00310099
0.00308681
0.00307231
0.00305734
0.00304161
0.00302439
0.00300368
0.00297429
7.11074e-09
5.76011e-07
7.32974e-06
3.04645e-05
6.42186e-05
9.80546e-05
0.000125979
0.000146603
0.000160711
0.000169314
0.00017366
0.000175415
0.000175453
0.00017417
0.00017189
0.000168777
0.000164806
0.00015988
0.000154104
0.000147614
0.000140263
0.000131647
0.000114567
9.80435e-05
8.43702e-05
7.48715e-05
7.19802e-05
7.61342e-05
8.55014e-05
0.000105476
0.000130172
0.00015256
0.000166217
0.000175725
0.000186533
0.000197515
0.000204015
0.000215685
0.000234621
0.000259538
0.000292083
0.000331038
0.000376711
0.000428364
0.000485102
0.000545657
0.000608609
0.000673461
0.000739311
0.00080591
0.000872671
0.000939318
0.00100536
0.00107047
0.00113505
0.00119869
0.00126122
0.00132256
0.00138271
0.00144166
0.00149943
0.00155604
0.00161153
0.00166596
0.00171939
0.00177188
0.00182349
0.00187426
0.00192426
0.00197353
0.0020221
0.00207
0.00211723
0.00216382
0.00220975
0.00225503
0.00229965
0.00234359
0.00238685
0.00242943
0.0024713
0.00251247
0.00255293
0.00259268
0.00263172
0.00267004
0.00270766
0.00274458
0.00278079
0.0028163
0.00285111
0.00288521
0.00291861
0.00295131
0.00298331
0.00301461
0.00304519
0.00307505
0.0031042
0.00313266
0.00316042
0.00318749
0.00321387
0.00323954
0.00326449
0.00328874
0.00331227
0.00333507
0.00335715
0.0033785
0.00339911
0.00341898
0.00343811
0.00345651
0.00347415
0.00349106
0.00350722
0.00352263
0.0035373
0.00355123
0.0035644
0.00357684
0.00358853
0.00359948
0.00360969
0.00361916
0.00362791
0.00363593
0.00364328
0.00364991
0.00365579
0.00366098
0.00366548
0.00366918
0.00367233
0.00367485
0.00367672
0.00367793
0.0036785
0.00367845
0.00367778
0.00367649
0.00367461
0.00367214
0.00366909
0.00366547
0.0036613
0.00365659
0.00365134
0.00364556
0.00363926
0.00363245
0.00362513
0.0036173
0.00360898
0.0036002
0.00359096
0.0035813
0.00357123
0.00356078
0.00354995
0.00353876
0.00352722
0.00351534
0.00350313
0.0034906
0.00347776
0.00346464
0.00345126
0.00343764
0.00342379
0.00340973
0.00339545
0.00338092
0.00336612
0.00335092
0.00333515
0.0033183
0.00329881
0.00327286
1.8441e-08
1.42917e-06
1.62876e-05
5.11938e-05
9.11583e-05
0.000125173
0.000150885
0.000168256
0.00017906
0.000184612
0.000186331
0.000185342
0.000182601
0.000178828
0.00017442
0.000169494
0.000163972
0.000157899
0.000151203
0.000144015
0.000136117
0.000124831
0.000112774
0.000105791
0.000101402
9.72064e-05
0.00010141
0.000115958
0.00013514
0.000155886
0.000175527
0.000191869
0.000203667
0.000212187
0.000220994
0.000232222
0.000249307
0.000271636
0.000301165
0.000337145
0.000379842
0.000428417
0.000482547
0.000541244
0.000603392
0.000667852
0.000733776
0.000800685
0.000868093
0.000935712
0.00100322
0.00106999
0.0011363
0.00120218
0.00126713
0.00133113
0.0013941
0.00145601
0.00151684
0.0015766
0.00163529
0.00169295
0.00174961
0.00180532
0.00186012
0.00191407
0.0019672
0.00201955
0.00207118
0.00212212
0.0021724
0.00222205
0.00227106
0.00231944
0.00236715
0.00241419
0.00246054
0.0025062
0.00255113
0.00259532
0.00263876
0.00268145
0.00272336
0.00276452
0.00280494
0.00284466
0.00288361
0.0029218
0.00295923
0.00299591
0.00303184
0.00306703
0.00310147
0.00313518
0.00316816
0.0032004
0.00323192
0.00326272
0.00329281
0.00332218
0.00335084
0.00337877
0.00340598
0.00343246
0.0034582
0.0034832
0.00350746
0.00353098
0.00355375
0.00357577
0.00359704
0.00361755
0.0036373
0.0036563
0.00367455
0.00369204
0.00370878
0.00372476
0.00373999
0.00375448
0.00376821
0.0037812
0.00379344
0.00380495
0.00381571
0.00382574
0.00383504
0.00384364
0.00385159
0.00385874
0.0038652
0.00387097
0.00387604
0.00388034
0.00388409
0.00388717
0.0038896
0.00389137
0.00389251
0.00389302
0.00389291
0.00389219
0.00389088
0.00388897
0.00388649
0.00388344
0.00387983
0.00387567
0.00387098
0.00386575
0.00385999
0.00385371
0.0038469
0.00383958
0.00383177
0.00382347
0.00381471
0.00380551
0.00379588
0.00378585
0.00377542
0.00376462
0.00375344
0.00374189
0.00372999
0.00371774
0.00370516
0.00369227
0.0036791
0.00366566
0.00365197
0.00363805
0.00362391
0.00360953
0.0035949
0.00357997
0.00356459
0.00354833
0.00352994
0.00350701
4.09612e-08
3.29453e-06
2.94067e-05
7.45216e-05
0.000118158
0.000151785
0.000173928
0.000187728
0.000194324
0.000195518
0.000193203
0.000188754
0.000183098
0.00017681
0.000170145
0.000163004
0.000155687
0.000147693
0.000139816
0.000131681
0.000123306
0.000115665
0.000110545
0.0001102
0.000116153
0.000127822
0.000143427
0.000160727
0.000178468
0.000195282
0.000209416
0.000220422
0.000231889
0.000244589
0.000260645
0.000280873
0.000307355
0.000339863
0.000378754
0.000423408
0.000473536
0.000528457
0.000587546
0.000649828
0.000714328
0.000780216
0.000846936
0.000914122
0.000981462
0.00104849
0.00111496
0.00118142
0.00124712
0.00131208
0.00137616
0.00143931
0.00150149
0.00156268
0.00162287
0.00168209
0.00174033
0.00179763
0.00185405
0.00190962
0.0019644
0.00201843
0.00207173
0.0021243
0.00217623
0.00222757
0.00227834
0.00232855
0.00237822
0.00242739
0.00247612
0.00252431
0.0025718
0.00261854
0.00266451
0.00270969
0.00275405
0.00279758
0.00284027
0.00288213
0.00292316
0.00296332
0.00300268
0.00304128
0.00307913
0.00311624
0.00315261
0.00318826
0.00322319
0.0032574
0.00329089
0.00332367
0.00335573
0.0033871
0.00341774
0.00344766
0.00347685
0.00350532
0.00353305
0.00356004
0.00358629
0.00361179
0.00363654
0.00366054
0.00368379
0.00370628
0.00372801
0.00374899
0.0037692
0.00378866
0.00380736
0.00382531
0.00384251
0.00385896
0.00387466
0.00388963
0.00390385
0.00391733
0.00393008
0.0039421
0.00395339
0.00396396
0.00397382
0.00398302
0.00399149
0.00399925
0.00400631
0.0040127
0.00401839
0.00402338
0.00402777
0.0040315
0.00403458
0.00403703
0.00403885
0.00404004
0.00404063
0.00404061
0.00404001
0.00403882
0.00403706
0.00403474
0.00403188
0.00402847
0.00402452
0.00402004
0.00401503
0.00400949
0.00400343
0.00399685
0.00398977
0.0039822
0.00397416
0.00396568
0.00395677
0.00394744
0.0039377
0.00392756
0.00391703
0.00390612
0.00389482
0.00388316
0.00387115
0.00385881
0.00384615
0.00383321
0.00382001
0.00380654
0.00379285
0.00377892
0.00376476
0.00375035
0.00373561
0.00372021
0.00370315
0.00368354
7.77218e-08
6.73731e-06
4.31482e-05
9.40784e-05
0.000139366
0.000172413
0.000192885
0.000202546
0.000204748
0.00020207
0.000196386
0.000188985
0.000180693
0.000171817
0.000163168
0.000154447
0.000146514
0.000139511
0.000134046
0.000129906
0.000127962
0.000129175
0.000133991
0.000142512
0.000154214
0.000168219
0.000183418
0.000198806
0.00021307
0.000225298
0.000238056
0.000252611
0.000268814
0.000288002
0.000311919
0.000341122
0.000376108
0.000416521
0.000462121
0.000512394
0.000566915
0.000625093
0.000686252
0.00074957
0.000814286
0.000879806
0.000945718
0.00101175
0.00107727
0.00114262
0.00120764
0.00127204
0.00133565
0.00139842
0.00146025
0.00152116
0.00158113
0.00164016
0.00169829
0.00175552
0.00181184
0.00186728
0.00192198
0.00197597
0.00202932
0.0020821
0.00213445
0.00218662
0.00223834
0.00228954
0.00234024
0.00239043
0.00244012
0.00248932
0.00253793
0.00258594
0.00263333
0.00268001
0.00272598
0.00277121
0.00281565
0.00285928
0.00290208
0.00294405
0.00298521
0.00302559
0.0030652
0.00310407
0.0031422
0.0031796
0.00321628
0.00325225
0.00328752
0.00332209
0.00335596
0.00338912
0.00342159
0.00345336
0.00348441
0.00351476
0.00354438
0.00357328
0.00360145
0.00362888
0.00365557
0.00368152
0.00370672
0.00373117
0.00375487
0.00377782
0.00380001
0.00382144
0.00384212
0.00386205
0.00388123
0.00389966
0.00391734
0.00393429
0.0039505
0.00396598
0.00398073
0.00399476
0.00400807
0.00402066
0.00403254
0.00404371
0.00405421
0.00406403
0.00407314
0.00408157
0.00408932
0.00409641
0.00410282
0.00410859
0.00411373
0.00411822
0.00412207
0.0041253
0.00412791
0.00412992
0.00413132
0.00413214
0.00413238
0.00413205
0.00413116
0.00412972
0.00412774
0.00412522
0.00412218
0.00411861
0.00411452
0.0041099
0.00410475
0.00409908
0.00409291
0.00408625
0.00407913
0.00407156
0.00406356
0.00405513
0.00404628
0.00403703
0.00402737
0.0040173
0.00400684
0.00399599
0.00398478
0.00397321
0.00396132
0.00394911
0.00393661
0.00392384
0.00391081
0.00389755
0.00388406
0.00387036
0.0038564
0.00384195
0.00382614
0.00380942
1.24136e-07
1.15509e-05
5.92367e-05
0.000116768
0.000162621
0.000192703
0.000208778
0.000214453
0.000213151
0.000207507
0.00019946
0.000190045
0.000180626
0.000171565
0.000163653
0.000156852
0.000151658
0.00014868
0.000147732
0.000149049
0.000152895
0.000159319
0.000168127
0.000178942
0.000191257
0.000204519
0.000217679
0.000229948
0.00024285
0.000258068
0.000275145
0.000293748
0.000316027
0.00034255
0.000373935
0.000410216
0.00045126