/*--------------------------------*- C++ -*----------------------------------*\
  =========                 |
  \\      /  F ield         | OpenFOAM: The Open Source CFD Toolbox
   \\    /   O peration     | Website:  https://openfoam.org
    \\  /    A nd           | Version:  8
     \\/     M anipulation  |
\*---------------------------------------------------------------------------*/
FoamFile
{
    version     2.0;
    format      ascii;
    class       volScalarField;
    location    "1900";
    object      p;
}
// * * * * * * * * * * * * * * * * * * * * * * * * * * * * * * * * * * * * * //

dimensions      [0 2 -2 0 0 0 0];

internalField   nonuniform List<scalar> 
12225
(
-4.22537
-5.09805
-5.48797
-5.61928
-5.76316
-5.92588
-6.05952
-6.16184
-6.249
-6.32272
-6.3882
-6.45323
-6.51252
-6.57226
-6.6366
-6.70507
-6.78828
-6.87897
-4.49232
-5.12339
-5.45028
-5.57865
-5.72105
-5.88381
-6.0212
-6.1218
-6.21152
-6.2947
-6.36467
-6.42996
-6.49233
-6.55028
-6.61304
-6.67939
-6.74905
-6.81424
-4.68313
-5.1153
-5.4314
-5.58893
-5.73444
-5.89015
-6.02332
-6.12449
-6.21366
-6.29549
-6.36537
-6.4285
-6.48812
-6.54463
-6.60357
-6.66295
-6.72265
-6.77635
-4.82774
-5.14114
-5.44281
-5.60925
-5.7443
-5.88589
-6.01226
-6.11296
-6.20057
-6.28033
-6.35014
-6.41305
-6.47245
-6.52929
-6.58644
-6.64347
-6.69937
-6.74861
-4.95709
-5.18999
-5.45936
-5.62445
-5.75214
-5.88431
-6.00638
-6.10688
-6.19334
-6.27146
-6.34119
-6.40432
-6.46359
-6.52012
-6.57564
-6.63007
-6.68176
-6.72663
-5.07477
-5.2461
-5.47611
-5.6372
-5.76116
-5.88538
-6.00203
-6.10065
-6.1855
-6.26199
-6.33119
-6.39418
-6.45295
-6.50866
-6.56239
-6.61395
-6.6619
-6.70364
-5.18145
-5.30596
-5.4979
-5.65131
-5.7711
-5.88704
-5.99727
-6.09322
-6.17655
-6.25171
-6.32023
-6.38289
-6.44107
-6.49582
-6.54783
-6.59692
-6.64211
-6.68185
-5.26357
-5.35903
-5.52165
-5.6651
-5.78027
-5.88942
-5.99397
-6.0871
-6.16891
-6.24279
-6.3104
-6.37242
-6.42986
-6.48361
-6.53417
-6.58142
-6.62473
-6.66307
-5.33064
-5.40663
-5.54545
-5.67849
-5.78904
-5.89246
-5.99189
-6.08214
-6.16232
-6.2349
-6.30148
-6.36274
-6.4194
-6.4722
-6.52152
-6.56731
-6.60917
-6.64642
-5.39759
-5.4576
-5.57371
-5.69451
-5.79937
-5.89682
-5.99069
-6.07742
-6.15551
-6.22648
-6.29175
-6.35196
-6.40764
-6.45932
-6.50735
-6.55171
-6.59223
-6.62848
-5.46346
-5.51057
-5.60608
-5.71342
-5.81135
-5.90257
-5.99055
-6.07315
-6.14863
-6.21764
-6.28128
-6.34014
-6.39459
-6.44503
-6.49172
-6.53473
-6.57401
-6.60934
-5.52711
-5.56401
-5.64168
-5.7351
-5.82493
-5.90963
-5.99153
-6.0695
-6.14182
-6.20848
-6.27018
-6.32739
-6.38041
-6.42948
-6.47482
-6.51653
-6.55466
-6.58915
-5.58718
-5.61621
-5.67899
-5.75895
-5.83986
-5.91777
-5.99354
-6.0665
-6.13521
-6.19914
-6.25861
-6.31392
-6.36531
-6.41291
-6.4569
-6.49736
-6.53444
-6.56813
-5.64211
-5.66514
-5.71596
-5.78368
-5.85551
-5.92648
-5.99621
-6.06407
-6.12881
-6.18973
-6.24673
-6.3
-6.3496
-6.39568
-6.43829
-6.47758
-6.51366
-6.54661
-5.68979
-5.70837
-5.74996
-5.80731
-5.87059
-5.93485
-5.99884
-6.06176
-6.12251
-6.18027
-6.23473
-6.28585
-6.33365
-6.37816
-6.41945
-6.45761
-6.49279
-6.52508
-5.72745
-5.74286
-5.77771
-5.82698
-5.88303
-5.94137
-6.00029
-6.05881
-6.11589
-6.17066
-6.22267
-6.27174
-6.3178
-6.36085
-6.40091
-6.43808
-6.47247
-6.50419
-5.75111
-5.76448
-5.79501
-5.83888
-5.88978
-5.94369
-5.99877
-6.05393
-6.10813
-6.16049
-6.21049
-6.25786
-6.30249
-6.34433
-6.38341
-6.41978
-6.45357
-6.48488
-5.75455
-5.76721
-5.79624
-5.83811
-5.88697
-5.93895
-5.99232
-6.04593
-6.09877
-6.14992
-6.1989
-6.24536
-6.28922
-6.33039
-6.36893
-6.40487
-6.43834
-6.46946
-5.7376
-5.7509
-5.78123
-5.82459
-5.87459
-5.92738
-5.98131
-6.03542
-6.0886
-6.14001
-6.18907
-6.2356
-6.27943
-6.32059
-6.35906
-6.39498
-6.42842
-6.45957
-5.70562
-5.72071
-5.75479
-5.80248
-5.85609
-5.91161
-5.96786
-6.02396
-6.07882
-6.13147
-6.1815
-6.22872
-6.27311
-6.31464
-6.35342
-6.38953
-6.42315
-6.45444
-5.66194
-5.68009
-5.72052
-5.7751
-5.83405
-5.89359
-5.95336
-6.01261
-6.06998
-6.12455
-6.17603
-6.22439
-6.26963
-6.3118
-6.35102
-6.38747
-6.42133
-6.45282
-5.60848
-5.63146
-5.68135
-5.74516
-5.81045
-5.87474
-5.93893
-6.00211
-6.06254
-6.1194
-6.17262
-6.22234
-6.26857
-6.31146
-6.35118
-6.38799
-6.42209
-6.45378
-5.54625
-5.57668
-5.63995
-5.71485
-5.78668
-5.85609
-5.92542
-5.99304
-6.05675
-6.11604
-6.17117
-6.22234
-6.26963
-6.31323
-6.35342
-6.3905
-6.42479
-6.45656
-5.47549
-5.51758
-5.59907
-5.6858
-5.76344
-5.83832
-5.91353
-5.98581
-6.05275
-6.11442
-6.17146
-6.22406
-6.27234
-6.31659
-6.35717
-6.3945
-6.42892
-6.46081
-5.39572
-5.45607
-5.5617
-5.65935
-5.74102
-5.82163
-5.90334
-5.98043
-6.05053
-6.1146
-6.17351
-6.22746
-6.27657
-6.32124
-6.36196
-6.39924
-6.43349
-6.46518
-5.30622
-5.39395
-5.52978
-5.63641
-5.72047
-5.80672
-5.89458
-5.97584
-6.04877
-6.11519
-6.17607
-6.2315
-6.28164
-6.32696
-6.36803
-6.40542
-6.43968
-6.47151
-5.20692
-5.3353
-5.50129
-5.61308
-5.70082
-5.79442
-5.8882
-5.97269
-6.04766
-6.11568
-6.17774
-6.23388
-6.28436
-6.32975
-6.37064
-6.40773
-6.44174
-6.47354
-5.09281
-5.29336
-5.47716
-5.58154
-5.67384
-5.77872
-5.88114
-5.971
-6.05014
-6.12171
-6.18646
-6.24439
-6.29596
-6.34181
-6.3826
-6.41906
-6.4525
-6.48486
-4.92933
-5.28422
-5.49053
-5.57291
-5.65965
-5.76851
-5.87377
-5.96457
-6.04467
-6.11765
-6.18384
-6.24303
-6.29558
-6.3421
-6.38309
-6.41894
-6.45073
-6.47976
-4.66619
-5.21488
-5.48173
-5.57024
-5.66466
-5.78336
-5.89502
-5.98925
-6.07105
-6.1448
-6.21122
-6.27032
-6.32258
-6.36864
-6.40889
-6.44332
-6.47176
-6.49367
-7.39727
-7.39738
-7.39742
-7.39738
-7.39705
-7.39583
-7.39336
-7.39013
-7.38707
-7.38517
-7.38537
-7.38787
-7.39216
-7.3975
-7.40313
-7.4084
-7.41277
-7.41582
-7.41754
-7.41826
-7.41825
-7.4177
-7.41683
-7.41592
-7.41519
-7.41474
-7.41452
-7.41439
-7.41417
-7.41379
-7.41326
-7.41258
-7.41171
-7.41056
-7.4092
-7.40786
-7.40715
-7.4077
-7.40966
-7.41241
-7.41508
-7.41712
-7.41867
-7.42017
-7.42202
-7.42477
-7.4283
-7.43155
-7.43383
-7.4365
-7.44304
-7.45769
-7.48134
-7.51292
-7.55215
-7.59991
-7.65615
-7.71925
-7.78725
-7.85825
-7.93027
-8.00142
-8.07009
-8.13557
-8.19729
-8.25447
-8.307
-8.35481
-8.39796
-8.43651
-8.47058
-8.50026
-8.52564
-8.54678
-8.56373
-8.5765
-8.58508
-8.58945
-8.58959
-8.58543
-8.57693
-8.56402
-8.54664
-8.5247
-8.49816
-8.46693
-8.43097
-8.3902
-8.34459
-8.29406
-8.23852
-8.17791
-8.11216
-8.04122
-7.96507
-7.88366
-7.79701
-7.70513
-7.60812
-7.50606
-7.39875
-7.28584
-7.16736
-7.04348
-6.91425
-6.77971
-6.63988
-6.49479
-6.34446
-6.18893
-6.02825
-5.86246
-5.69162
-5.5158
-5.33506
-5.14949
-4.95919
-4.76426
-4.5648
-4.36095
-4.15282
-3.94058
-3.72436
-3.50432
-3.28065
-3.05352
-2.82312
-2.58965
-2.35332
-2.11433
-1.87286
-1.62914
-1.3834
-1.13587
-0.88678
-0.636364
-0.384902
-0.132615
0.1206
0.374643
0.629152
0.88389
1.13867
1.39329
1.6476
1.90142
2.15461
2.40698
2.65838
2.90863
3.15761
3.40517
3.65118
3.89549
4.13797
4.37849
4.61693
4.85318
5.08713
5.31867
5.54772
5.77415
5.99787
6.21876
6.43671
6.65161
6.86332
7.07173
7.27673
7.4782
7.67601
7.87004
8.06015
8.24621
8.4281
8.60572
8.77913
8.94828
9.11617
9.27395
-7.39846
-7.39864
-7.39898
-7.39932
-7.39928
-7.39845
-7.39657
-7.39421
-7.39255
-7.39251
-7.39438
-7.398
-7.40286
-7.40833
-7.41381
-7.4188
-7.42294
-7.42605
-7.42794
-7.4284
-7.42753
-7.42566
-7.42319
-7.42058
-7.41825
-7.41645
-7.41522
-7.41439
-7.41373
-7.4131
-7.41251
-7.41192
-7.41129
-7.41052
-7.40956
-7.4088
-7.40892
-7.41041
-7.4131
-7.4161
-7.41828
-7.41917
-7.41918
-7.41848
-7.41707
-7.41625
-7.41826
-7.42434
-7.43102
-7.43714
-7.44617
-7.46007
-7.48016
-7.50946
-7.55048
-7.60287
-7.66415
-7.73189
-7.80365
-7.87691
-7.94956
-8.01994
-8.08754
-8.15126
-8.21018
-8.26454
-8.31438
-8.35974
-8.40075
-8.43748
-8.47005
-8.49852
-8.52296
-8.54337
-8.55979
-8.57218
-8.58054
-8.58481
-8.58493
-8.58086
-8.57251
-8.55982
-8.54272
-8.52111
-8.49494
-8.46413
-8.42862
-8.38834
-8.34326
-8.2933
-8.23837
-8.17841
-8.11335
-8.04315
-7.96776
-7.88714
-7.80126
-7.71007
-7.6135
-7.51147
-7.40403
-7.2914
-7.17361
-7.05052
-6.92212
-6.78843
-6.64946
-6.50523
-6.35576
-6.2011
-6.04128
-5.87635
-5.70637
-5.5314
-5.35151
-5.16678
-4.97731
-4.78318
-4.58452
-4.38144
-4.17407
-3.96256
-3.74705
-3.5277
-3.30468
-3.07818
-2.84838
-2.61549
-2.37969
-2.14119
-1.90019
-1.6569
-1.41154
-1.16434
-0.915477
-0.665126
-0.413435
-0.160645
0.0927941
0.346691
0.60105
0.85566
1.11033
1.36487
1.61911
1.87289
2.12605
2.37842
2.62983
2.88011
3.12913
3.37676
3.62286
3.86728
4.1099
4.35056
4.58917
4.82559
5.05972
5.29146
5.52071
5.74736
5.97131
6.19245
6.41066
6.62582
6.83781
7.04653
7.25184
7.45364
7.65181
7.84623
8.03677
8.22336
8.40591
8.58432
8.7588
8.92862
9.09858
9.25572
-7.39975
-7.39975
-7.39977
-7.39983
-7.39989
-7.39992
-7.40015
-7.40108
-7.40317
-7.40657
-7.41106
-7.4163
-7.42187
-7.42734
-7.43236
-7.43662
-7.43994
-7.4422
-7.44332
-7.44325
-7.44202
-7.43975
-7.4366
-7.43278
-7.42853
-7.42411
-7.41982
-7.41592
-7.41261
-7.40997
-7.40796
-7.40637
-7.40494
-7.40368
-7.40305
-7.40369
-7.40614
-7.41021
-7.41461
-7.41757
-7.41772
-7.41563
-7.41327
-7.4124
-7.41284
-7.41405
-7.41821
-7.42731
-7.44057
-7.45803
-7.48068
-7.5089
-7.54322
-7.58431
-7.63234
-7.68635
-7.74479
-7.80623
-7.86931
-7.9327
-7.99524
-8.05606
-8.11466
-8.17048
-8.223
-8.27206
-8.31755
-8.35941
-8.3976
-8.43211
-8.46294
-8.49008
-8.51349
-8.53317
-8.54906
-8.56113
-8.5693
-8.57353
-8.57373
-8.56982
-8.56173
-8.54937
-8.53266
-8.51152
-8.48586
-8.4556
-8.42068
-8.38104
-8.33662
-8.28734
-8.23314
-8.17393
-8.10966
-8.04027
-7.96572
-7.88598
-7.80102
-7.71083
-7.61534
-7.51447
-7.4082
-7.29665
-7.17986
-7.0578
-6.93045
-6.79782
-6.65993
-6.51679
-6.36842
-6.21487
-6.05616
-5.89235
-5.72348
-5.54962
-5.37084
-5.18721
-4.99882
-4.80577
-4.60816
-4.40612
-4.19977
-3.98925
-3.77471
-3.5563
-3.33419
-3.10856
-2.8796
-2.64751
-2.41247
-2.1747
-1.93438
-1.69174
-1.44699
-1.20036
-0.952045
-0.702238
-0.4511
-0.198845
0.0541612
0.307719
0.561747
0.816053
1.07044
1.32474
1.57876
1.83235
2.08534
2.33756
2.58883
2.83901
3.08796
3.33554
3.58161
3.82603
4.06866
4.30936
4.54802
4.78451
5.01872
5.25055
5.4799
5.70665
5.9307
6.15195
6.37027
6.58555
6.79767
7.00652
7.21196
7.4139
7.6122
7.80678
7.99751
8.18426
8.36698
8.54564
8.7207
8.89095
9.06367
9.21696
-7.4009
-7.40063
-7.40027
-7.40029
-7.40145
-7.40414
-7.40817
-7.41318
-7.41883
-7.42484
-7.43089
-7.43676
-7.44221
-7.44707
-7.45118
-7.45439
-7.45661
-7.45778
-7.45788
-7.45687
-7.45476
-7.45164
-7.44757
-7.44266
-7.43698
-7.43068
-7.42393
-7.41702
-7.4103
-7.40412
-7.39876
-7.3944
-7.39129
-7.38988
-7.39088
-7.39456
-7.4
-7.40527
-7.40877
-7.41009
-7.40972
-7.40903
-7.40966
-7.41252
-7.41799
-7.42675
-7.43964
-7.45747
-7.48036
-7.50799
-7.53996
-7.57595
-7.61586
-7.65952
-7.7067
-7.75697
-7.8097
-7.86419
-7.9197
-7.97545
-8.03069
-8.08477
-8.13718
-8.18747
-8.23528
-8.28035
-8.32251
-8.3616
-8.39753
-8.43022
-8.45959
-8.48559
-8.50814
-8.52717
-8.54261
-8.55439
-8.56242
-8.56662
-8.56689
-8.56315
-8.55531
-8.54327
-8.52693
-8.50622
-8.48104
-8.45131
-8.41695
-8.3779
-8.3341
-8.28546
-8.23193
-8.17342
-8.10987
-8.04121
-7.96741
-7.88843
-7.80424
-7.71481
-7.6201
-7.52009
-7.41477
-7.30419
-7.18835
-7.06725
-6.94087
-6.80923
-6.67234
-6.53021
-6.38287
-6.23034
-6.07267
-5.9099
-5.74207
-5.56926
-5.39151
-5.20891
-5.02155
-4.82951
-4.6329
-4.43184
-4.22645
-4.01687
-3.80324
-3.58572
-3.36447
-3.13967
-2.9115
-2.68017
-2.44587
-2.20878
-1.96912
-1.72711
-1.48294
-1.23686
-0.989063
-0.73975
-0.489116
-0.237379
0.0151915
0.268406
0.522114
0.776125
1.03024
1.2843
1.5381
1.7915
2.04431
2.29637
2.54751
2.79758
3.04643
3.29395
3.53997
3.78437
4.027
4.26772
4.50641
4.74294
4.97721
5.20911
5.43852
5.66535
5.88949
6.11082
6.32924
6.54462
6.75683
6.96577
7.17131
7.37333
7.57174
7.76641
7.95726
8.14417
8.32712
8.50604
8.68149
8.85171
9.02529
9.17262
-7.4032
-7.40263
-7.40225
-7.40368
-7.40786
-7.41409
-7.4213
-7.42883
-7.4362
-7.44313
-7.44944
-7.45508
-7.46001
-7.46414
-7.46741
-7.46974
-7.47105
-7.4713
-7.47047
-7.46853
-7.46549
-7.4614
-7.45628
-7.45019
-7.44321
-7.43539
-7.42683
-7.41772
-7.40838
-7.39931
-7.39109
-7.38448
-7.38041
-7.37981
-7.38271
-7.38738
-7.39213
-7.39617
-7.39929
-7.40185
-7.40462
-7.40869
-7.41508
-7.42469
-7.43834
-7.45646
-7.47876
-7.50465
-7.53384
-7.56601
-7.60092
-7.6385
-7.67873
-7.72153
-7.76673
-7.81397
-7.8628
-7.91272
-7.9632
-8.01368
-8.06365
-8.11267
-8.16034
-8.20629
-8.25024
-8.29192
-8.33115
-8.36776
-8.40161
-8.43258
-8.46055
-8.48542
-8.50708
-8.52544
-8.54038
-8.55181
-8.55962
-8.56371
-8.56397
-8.5603
-8.5526
-8.54077
-8.52471
-8.50432
-8.47951
-8.45019
-8.41627
-8.37769
-8.33438
-8.28627
-8.23328
-8.17533
-8.11235
-8.0443
-7.97112
-7.89278
-7.80925
-7.72049
-7.62648
-7.5272
-7.42265
-7.31284
-7.19778
-7.07745
-6.95187
-6.82104
-6.68496
-6.54366
-6.39715
-6.24547
-6.08865
-5.92674
-5.75977
-5.5878
-5.41091
-5.22916
-5.04262
-4.85141
-4.65561
-4.45535
-4.25073
-4.04191
-3.82902
-3.61221
-3.39165
-3.16751
-2.93998
-2.70926
-2.47553
-2.23899
-1.99986
-1.75834
-1.51464
-1.269
-1.02161
-0.772674
-0.522407
-0.271037
-0.0187896
0.234138
0.487584
0.741344
0.995239
1.24908
1.5027
1.75593
2.00858
2.2605
2.51151
2.76147
3.01024
3.25769
3.50367
3.74804
3.99065
4.23138
4.47008
4.70665
4.94097
5.17292
5.4024
5.6293
5.85352
6.07495
6.29345
6.50892
6.72124
6.93028
7.13594
7.33809
7.53663
7.73145
7.92245
8.10953
8.29266
8.47169
8.64719
8.81685
8.99006
9.13086
-7.40744
-7.40655
-7.40709
-7.41153
-7.41889
-7.42726
-7.43573
-7.44384
-7.4513
-7.45804
-7.46406
-7.46933
-7.47381
-7.47743
-7.48011
-7.4818
-7.48245
-7.48201
-7.48048
-7.47783
-7.47408
-7.46926
-7.46337
-7.45642
-7.44841
-7.43944
-7.42964
-7.4192
-7.40847
-7.3981
-7.38888
-7.38198
-7.37847
-7.37827
-7.38
-7.38245
-7.38546
-7.38938
-7.39448
-7.40079
-7.40855
-7.41883
-7.43265
-7.45026
-7.47146
-7.49586
-7.52323
-7.55317
-7.5854
-7.61979
-7.65616
-7.69445
-7.73456
-7.77637
-7.81971
-7.86431
-7.90986
-7.95602
-8.00243
-8.04872
-8.09452
-8.13952
-8.1834
-8.22588
-8.26668
-8.30558
-8.34238
-8.37689
-8.40896
-8.43844
-8.46517
-8.48903
-8.50988
-8.5276
-8.54205
-8.55312
-8.56069
-8.56463
-8.56483
-8.56117
-8.55355
-8.54185
-8.52598
-8.50582
-8.48128
-8.45225
-8.41867
-8.38044
-8.3375
-8.28977
-8.23718
-8.17965
-8.1171
-8.0495
-7.97678
-7.89892
-7.81589
-7.72764
-7.63416
-7.53543
-7.43145
-7.32222
-7.20773
-7.088
-6.96302
-6.83279
-6.69733
-6.55666
-6.41079
-6.25976
-6.10359
-5.94233
-5.77602
-5.60471
-5.42847
-5.24737
-5.06147
-4.87089
-4.67571
-4.47604
-4.27201
-4.06376
-3.85141
-3.63513
-3.41508
-3.19143
-2.96436
-2.73408
-2.50077
-2.26463
-2.02588
-1.78471
-1.54136
-1.29604
-1.04895
-0.800298
-0.550308
-0.299203
-0.0471992
0.205508
0.45874
0.712299
0.966004
1.21967
1.47313
1.72619
1.9787
2.23048
2.48136
2.73121
2.97989
3.22726
3.47317
3.71749
3.96006
4.20076
4.43945
4.67602
4.91035
5.14232
5.37184
5.59879
5.82306
6.04455
6.26313
6.47868
6.69108
6.90022
7.10597
7.30823
7.50688
7.70181
7.89292
8.08009
8.26328
8.44225
8.61752
8.78632
8.95889
9.09332
-7.41269
-7.41226
-7.41497
-7.42209
-7.43077
-7.4394
-7.44761
-7.45529
-7.46237
-7.46881
-7.47456
-7.47956
-7.48373
-7.48698
-7.48927
-7.49054
-7.49073
-7.48985
-7.48785
-7.48474
-7.48054
-7.47526
-7.46883
-7.4612
-7.45247
-7.44285
-7.43253
-7.42178
-7.41104
-7.40105
-7.39291
-7.38742
-7.38418
-7.38228
-7.3816
-7.38256
-7.38575
-7.39119
-7.39873
-7.40893
-7.42236
-7.43911
-7.45896
-7.48172
-7.50718
-7.53502
-7.56501
-7.59702
-7.63084
-7.66634
-7.70335
-7.74174
-7.78138
-7.82214
-7.86386
-7.90635
-7.9494
-7.99278
-8.03622
-8.07946
-8.12224
-8.1643
-8.20539
-8.24525
-8.28367
-8.32042
-8.35532
-8.38818
-8.41882
-8.44707
-8.47278
-8.49578
-8.51594
-8.5331
-8.54712
-8.55786
-8.56518
-8.56896
-8.56907
-8.56538
-8.55778
-8.54616
-8.5304
-8.51039
-8.48603
-8.45721
-8.42385
-8.38586
-8.34317
-8.29571
-8.24339
-8.18614
-8.12388
-8.05657
-7.98416
-7.90663
-7.82392
-7.73602
-7.6429
-7.54454
-7.44094
-7.33209
-7.218
-7.09868
-6.97411
-6.84431
-6.70929
-6.56906
-6.42365
-6.27308
-6.11739
-5.9566
-5.79077
-5.61994
-5.44418
-5.26354
-5.07812
-4.88798
-4.69325
-4.49401
-4.2904
-4.08254
-3.87058
-3.65466
-3.43496
-3.21164
-2.98489
-2.75491
-2.52188
-2.28601
-2.04751
-1.80659
-1.56347
-1.31837
-1.07149
-0.823039
-0.573254
-0.322344
-0.0705272
0.18201
0.435069
0.688467
0.942012
1.19553
1.44883
1.70175
1.95411
2.20575
2.4565
2.70623
2.95481
3.20209
3.44792
3.69217
3.93468
4.17532
4.41396
4.65049
4.88479
5.11676
5.34627
5.57324
5.79755
6.01907
6.23769
6.4533
6.66575
6.87495
7.08077
7.2831
7.48183
7.67683
7.868
8.05519
8.23833
8.41711
8.59201
8.75986
8.9318
9.06032
-7.41679
-7.41762
-7.42291
-7.43107
-7.43941
-7.44741
-7.45507
-7.46234
-7.46913
-7.47536
-7.48093
-7.48574
-7.48971
-7.49277
-7.49484
-7.49588
-7.49584
-7.49471
-7.49248
-7.48915
-7.48473
-7.47915
-7.47232
-7.4644
-7.45562
-7.44612
-7.43611
-7.42602
-7.41655
-7.40844
-7.40205
-7.3968
-7.39218
-7.38879
-7.38755
-7.38877
-7.39282
-7.40026
-7.41124
-7.42558
-7.44306
-7.46344
-7.4865
-7.51198
-7.53967
-7.56935
-7.60084
-7.63398
-7.6686
-7.70454
-7.74166
-7.77984
-7.81894
-7.85884
-7.89939
-7.94044
-7.98181
-8.02332
-8.06478
-8.10597
-8.14669
-8.18671
-8.22583
-8.26385
-8.30055
-8.33574
-8.36924
-8.40086
-8.43041
-8.45772
-8.48262
-8.50496
-8.52455
-8.54124
-8.55489
-8.56533
-8.57243
-8.57605
-8.57605
-8.57231
-8.56469
-8.55309
-8.53739
-8.51746
-8.49321
-8.46452
-8.43129
-8.39344
-8.3509
-8.30358
-8.25141
-8.19431
-8.13221
-8.06507
-7.99283
-7.91547
-7.83294
-7.74523
-7.6523
-7.55415
-7.45076
-7.34213
-7.22827
-7.10918
-6.98487
-6.85533
-6.72059
-6.58065
-6.43554
-6.28528
-6.1299
-5.96944
-5.80394
-5.63345
-5.45801
-5.2777
-5.09259
-4.90277
-4.70833
-4.50939
-4.30605
-4.09846
-3.88675
-3.67106
-3.45158
-3.22847
-3.00192
-2.77211
-2.53925
-2.30354
-2.06519
-1.82443
-1.58146
-1.3365
-1.08975
-0.841441
-0.5918
-0.341034
-0.0893536
0.163047
0.41597
0.669232
0.922643
1.17602
1.42919
1.68197
1.93418
2.18567
2.43629
2.6859
2.93436
3.18155
3.42729
3.67144
3.91385
4.1544
4.39296
4.62943
4.86368
5.0956
5.3251
5.55206
5.77638
5.99792
6.21656
6.43219
6.64467
6.85391
7.05977
7.26215
7.46092
7.65598
7.84716
8.03433
8.21737
8.3959
8.57036
8.73725
8.90865
9.03184
-7.41802
-7.42048
-7.42729
-7.43515
-7.44282
-7.45033
-7.45765
-7.46469
-7.47133
-7.47747
-7.48298
-7.48775
-7.49169
-7.49471
-7.49675
-7.49776
-7.49772
-7.49659
-7.49436
-7.49103
-7.48656
-7.48087
-7.47406
-7.46638
-7.45801
-7.44916
-7.44026
-7.43178
-7.42411
-7.41728
-7.41105
-7.4053
-7.40034
-7.39713
-7.39653
-7.3991
-7.4052
-7.41497
-7.42816
-7.44458
-7.46398
-7.4861
-7.5107
-7.53752
-7.56635
-7.59699
-7.62925
-7.66297
-7.69798
-7.73413
-7.77129
-7.80932
-7.8481
-7.88748
-7.92733
-7.96751
-8.00787
-8.04826
-8.0885
-8.12842
-8.16783
-8.20656
-8.24442
-8.28122
-8.31679
-8.35094
-8.38348
-8.41424
-8.44303
-8.46966
-8.49397
-8.51579
-8.53494
-8.55126
-8.5646
-8.57479
-8.58167
-8.58513
-8.585
-8.58118
-8.57352
-8.5619
-8.54621
-8.52631
-8.50209
-8.47345
-8.44027
-8.40248
-8.35998
-8.31273
-8.26061
-8.20355
-8.1415
-8.0744
-8.00221
-7.92488
-7.84241
-7.75473
-7.66186
-7.56375
-7.46043
-7.35187
-7.2381
-7.11911
-6.99491
-6.8655
-6.7309
-6.59112
-6.44618
-6.29611
-6.14093
-5.98068
-5.81538
-5.6451
-5.46987
-5.28978
-5.10487
-4.91525
-4.72099
-4.52223
-4.31906
-4.11162
-3.90005
-3.6845
-3.46513
-3.24213
-3.01568
-2.78596
-2.55318
-2.31755
-2.07929
-1.8386
-1.59571
-1.35083
-1.10417
-0.855949
-0.606405
-0.355745
-0.104166
0.148121
0.400933
0.654073
0.907363
1.16061
1.41364
1.66627
1.91834
2.16968
2.42016
2.66963
2.91797
3.16504
3.41067
3.6547
3.897
4.13744
4.37591
4.61228
4.84646
5.07832
5.30778
5.53472
5.75904
5.98058
6.19922
6.41484
6.62734
6.83659
7.04247
7.24488
7.44369
7.63877
7.82995
8.01706
8.19996
8.37819
8.55218
8.71815
8.88905
9.0076
-7.41485
-7.41866
-7.42565
-7.43299
-7.44034
-7.44768
-7.4549
-7.46192
-7.4686
-7.47482
-7.48047
-7.4854
-7.48951
-7.49273
-7.49496
-7.49616
-7.49628
-7.49529
-7.49319
-7.48995
-7.48557
-7.48007
-7.47363
-7.46652
-7.45899
-7.45134
-7.44383
-7.43652
-7.42948
-7.42282
-7.41663
-7.41124
-7.40725
-7.40542
-7.40634
-7.41042
-7.41787
-7.42879
-7.44303
-7.46041
-7.48071
-7.50365
-7.52897
-7.55645
-7.58586
-7.61702
-7.64972
-7.68381
-7.71912
-7.7555
-7.7928
-7.83088
-7.8696
-7.90883
-7.94843
-7.98827
-8.02819
-8.06806
-8.10771
-8.14699
-8.18573
-8.22377
-8.26094
-8.29708
-8.332
-8.36554
-8.39751
-8.42774
-8.45602
-8.48219
-8.50606
-8.52748
-8.54626
-8.56226
-8.5753
-8.58524
-8.59193
-8.59522
-8.59497
-8.59105
-8.58334
-8.57169
-8.55597
-8.53607
-8.51185
-8.4832
-8.45001
-8.41219
-8.36968
-8.32238
-8.27023
-8.21312
-8.15101
-8.08385
-8.01158
-7.93419
-7.85163
-7.76388
-7.67092
-7.57275
-7.46936
-7.36076
-7.24696
-7.12795
-7.00376
-6.87437
-6.73981
-6.60009
-6.45522
-6.30524
-6.15016
-5.99002
-5.82485
-5.65469
-5.47959
-5.29961
-5.11483
-4.92531
-4.73117
-4.5325
-4.32941
-4.12205
-3.91054
-3.69505
-3.47573
-3.25277
-3.02634
-2.79665
-2.5639
-2.3283
-2.09006
-1.8494
-1.60655
-1.36171
-1.1151
-0.866943
-0.61747
-0.366887
-0.115397
0.136797
0.389505
0.642535
0.895702
1.14882
1.4017
1.65417
1.90608
2.15726
2.40758
2.6569
2.9051
3.15206
3.39756
3.64145
3.88361
4.12392
4.36225
4.59852
4.83259
5.06438
5.29378
5.52069
5.74499
5.96651
6.18513
6.40074
6.61323
6.82247
7.02837
7.2308
7.42963
7.62472
7.81588
8.0029
8.18562
8.36353
8.53705
8.70213
8.87255
8.9872
-7.40538
-7.40985
-7.41659
-7.42391
-7.43147
-7.439
-7.44641
-7.45363
-7.46056
-7.46707
-7.47303
-7.4783
-7.48274
-7.48626
-7.48878
-7.49024
-7.49061
-7.48986
-7.48799
-7.48502
-7.481
-7.47605
-7.47037
-7.46414
-7.45751
-7.45063
-7.44365
-7.43668
-7.42985
-7.42341
-7.41776
-7.41333
-7.41055
-7.40996
-7.41206
-7.41721
-7.4256
-7.43729
-7.45221
-7.47017
-7.49097
-7.51435
-7.54008
-7.56794
-7.59773
-7.62926
-7.66235
-7.69682
-7.73251
-7.76924
-7.80687
-7.84525
-7.88423
-7.92367
-7.96344
-8.00338
-8.04335
-8.0832
-8.12278
-8.16195
-8.20055
-8.2384
-8.27533
-8.3112
-8.34583
-8.37906
-8.41071
-8.4406
-8.46856
-8.49441
-8.51796
-8.53906
-8.55753
-8.57324
-8.58601
-8.59571
-8.6022
-8.60533
-8.60495
-8.60093
-8.59314
-8.58144
-8.56569
-8.54576
-8.5215
-8.49279
-8.45952
-8.42162
-8.379
-8.3316
-8.27932
-8.22209
-8.15983
-8.09251
-8.02008
-7.94252
-7.85978
-7.77186
-7.67873
-7.58039
-7.47685
-7.36812
-7.2542
-7.13511
-7.01084
-6.8814
-6.74681
-6.60708
-6.46222
-6.31226
-6.15722
-5.99714
-5.83203
-5.66194
-5.48692
-5.307
-5.12229
-4.93283
-4.73874
-4.54012
-4.33708
-4.12974
-3.91826
-3.70278
-3.48347
-3.2605
-3.03407
-2.80437
-2.57162
-2.33601
-2.09778
-1.85713
-1.6143
-1.36948
-1.1229
-0.8748
-0.625394
-0.374885
-0.123484
0.128615
0.381212
0.634123
0.887155
1.14012
1.39285
1.64516
1.89689
2.1479
2.39804
2.64719
2.89526
3.14208
3.38743
3.63117
3.87316
4.11331
4.3515
4.58763
4.8216
5.05329
5.28261
5.50949
5.73377
5.95527
6.17386
6.38944
6.6019
6.81114
7.01704
7.21948
7.41833
7.61342
7.80454
7.99146
8.17398
8.35156
8.52461
8.68887
8.8588
8.97023
-7.38816
-7.39265
-7.39955
-7.40764
-7.41589
-7.4239
-7.43166
-7.43922
-7.44655
-7.45353
-7.45997
-7.4657
-7.47057
-7.47448
-7.47738
-7.47922
-7.47997
-7.47963
-7.47821
-7.47575
-7.47232
-7.46802
-7.46298
-7.45732
-7.45118
-7.44467
-7.43793
-7.43114
-7.42461
-7.41867
-7.41365
-7.40994
-7.40803
-7.40839
-7.41144
-7.41746
-7.42664
-7.43899
-7.45445
-7.47286
-7.49402
-7.51773
-7.54377
-7.57197
-7.60213
-7.63408
-7.66762
-7.70258
-7.73878
-7.77606
-7.81425
-7.85321
-7.89278
-7.9328
-7.97311
-8.01355
-8.05395
-8.09418
-8.13409
-8.1735
-8.21227
-8.25024
-8.28726
-8.32315
-8.35775
-8.3909
-8.42242
-8.45215
-8.47991
-8.50552
-8.5288
-8.5496
-8.56777
-8.58317
-8.59564
-8.60505
-8.61128
-8.61419
-8.61364
-8.60948
-8.6016
-8.58984
-8.57405
-8.55407
-8.52975
-8.50093
-8.46751
-8.42945
-8.3867
-8.33914
-8.28671
-8.22929
-8.16684
-8.0993
-8.02666
-7.94887
-7.86592
-7.77776
-7.6844
-7.58584
-7.4821
-7.37319
-7.25911
-7.13989
-7.01551
-6.88599
-6.75133
-6.61156
-6.46668
-6.31673
-6.16171
-6.00166
-5.83661
-5.66657
-5.49159
-5.31174
-5.12706
-4.93766
-4.74361
-4.54502
-4.34201
-4.13471
-3.92324
-3.70777
-3.48847
-3.26549
-3.03905
-2.80934
-2.57658
-2.34098
-2.10275
-1.86212
-1.6193
-1.37452
-1.12799
-0.879948
-0.630614
-0.38019
-0.128884
0.123106
0.375585
0.628361
0.881244
1.13405
1.3866
1.63872
1.89026
2.14108
2.39104
2.64
2.88794
3.13465
3.37984
3.62338
3.86519
4.10515
4.34318
4.57916
4.813
5.04458
5.27382
5.50067
5.72494
5.94639
6.16493
6.38048
6.59291
6.80214
7.00803
7.21047
7.40934
7.60444
7.79551
7.98231
8.16463
8.34187
8.51446
8.67796
8.84737
8.9563
-7.36281
-7.36716
-7.37496
-7.38442
-7.39366
-7.40222
-7.4104
-7.41846
-7.42645
-7.43417
-7.44133
-7.44769
-7.4531
-7.4575
-7.46089
-7.46323
-7.46451
-7.46471
-7.46385
-7.46195
-7.45909
-7.45531
-7.45073
-7.44544
-7.43954
-7.4332
-7.42664
-7.4201
-7.41387
-7.40825
-7.40366
-7.40055
-7.39936
-7.40052
-7.40437
-7.41115
-7.42099
-7.4339
-7.44979
-7.46855
-7.49
-7.514
-7.54036
-7.56893
-7.59954
-7.63202
-7.66617
-7.7018
-7.73873
-7.77677
-7.81576
-7.85554
-7.89594
-7.93677
-7.97788
-8.01907
-8.06021
-8.10111
-8.14161
-8.18153
-8.22073
-8.25906
-8.29635
-8.33246
-8.3672
-8.40042
-8.43195
-8.4616
-8.48917
-8.51448
-8.53736
-8.55771
-8.57542
-8.59036
-8.60238
-8.61136
-8.61722
-8.61985
-8.6191
-8.61482
-8.6069
-8.59513
-8.57934
-8.55935
-8.53495
-8.50596
-8.4723
-8.43404
-8.39115
-8.34349
-8.2909
-8.23329
-8.17063
-8.10287
-8.03002
-7.952
-7.86882
-7.78042
-7.68683
-7.58803
-7.48407
-7.37497
-7.26075
-7.1414
-7.01693
-6.88733
-6.75261
-6.6128
-6.46792
-6.31799
-6.16301
-6.00303
-5.83804
-5.66809
-5.49318
-5.3134
-5.1288
-4.93946
-4.74548
-4.54697
-4.34403
-4.13679
-3.92539
-3.70997
-3.4907
-3.26776
-3.04133
-2.81164
-2.5789
-2.34333
-2.10514
-1.86456
-1.6218
-1.37708
-1.13063
-0.882695
-0.633469
-0.383169
-0.131996
0.119846
0.372166
0.624765
0.877457
1.13006
1.38239
1.63429
1.88562
2.13621
2.38594
2.63471
2.88257
3.12924
3.37427
3.61759
3.85918
4.09895
4.3368
4.57263
4.80634
5.03781
5.26699
5.49385
5.71815
5.93955
6.15803
6.37352
6.58593
6.79513
7.00103
7.20347
7.40238
7.59749
7.78851
7.97517
8.15727
8.33417
8.50631
8.66911
8.83795
8.94505
-7.33055
-7.33519
-7.34446
-7.35568
-7.366
-7.37527
-7.38419
-7.39293
-7.4016
-7.41019
-7.41838
-7.4257
-7.4318
-7.43669
-7.44056
-7.44345
-7.4453
-7.44608
-7.44577
-7.44439
-7.44198
-7.43858
-7.43427
-7.42915
-7.42338
-7.41715
-7.41066
-7.40419
-7.39808
-7.3927
-7.38849
-7.38588
-7.38529
-7.38708
-7.39155
-7.3989
-7.4092
-7.42248
-7.43867
-7.45771
-7.47944
-7.50375
-7.53046
-7.55946
-7.59057
-7.62364
-7.65847
-7.69486
-7.73262
-7.77158
-7.81155
-7.85234
-7.89375
-7.93558
-7.97767
-8.01983
-8.06187
-8.10361
-8.14486
-8.18545
-8.22521
-8.26398
-8.3016
-8.33792
-8.37277
-8.40599
-8.43739
-8.46678
-8.49394
-8.51867
-8.54087
-8.56051
-8.57754
-8.59186
-8.60322
-8.61149
-8.6168
-8.61911
-8.61824
-8.614
-8.60623
-8.59468
-8.57909
-8.55923
-8.53484
-8.50565
-8.47167
-8.43323
-8.39032
-8.3426
-8.28987
-8.23206
-8.16916
-8.10117
-8.02808
-7.94986
-7.86643
-7.77777
-7.68387
-7.5848
-7.4806
-7.3713
-7.25692
-7.13744
-7.01287
-6.88318
-6.74839
-6.60855
-6.46367
-6.31377
-6.15886
-5.99896
-5.83408
-5.66423
-5.48943
-5.30976
-5.12528
-4.93606
-4.74221
-4.54381
-4.34099
-4.13386
-3.92256
-3.70723
-3.48804
-3.26519
-3.03888
-2.8093
-2.57667
-2.34123
-2.10317
-1.86273
-1.62011
-1.37556
-1.12931
-0.881584
-0.63258
-0.382518
-0.1316
0.11997
0.371998
0.624286
0.876648
1.1289
1.38088
1.63242
1.88337
2.13359
2.38293
2.63132
2.87894
3.12548
3.37027
3.6133
3.85463
4.09418
4.33183
4.5675
4.80106
5.03242
5.26151
5.48847
5.7129
5.9343
6.15272
6.36816
6.58055
6.78975
6.99565
7.19812
7.3971
7.59227
7.78323
7.96975
8.15163
8.32821
8.49991
8.66205
8.83026
8.93618
-7.29427
-7.29979
-7.31104
-7.32441
-7.33586
-7.34542
-7.35471
-7.36446
-7.37435
-7.38404
-7.39325
-7.40156
-7.40843
-7.41384
-7.41816
-7.42158
-7.42398
-7.42529
-7.42547
-7.4245
-7.42241
-7.41923
-7.41506
-7.41
-7.4042
-7.39788
-7.39129
-7.38478
-7.3787
-7.37347
-7.36951
-7.36723
-7.367
-7.36914
-7.37392
-7.38149
-7.39195
-7.40534
-7.42162
-7.44076
-7.46263
-7.48714
-7.51416
-7.54358
-7.57521
-7.60889
-7.64442
-7.68162
-7.7203
-7.76027
-7.8013
-7.84319
-7.88573
-7.9287
-7.97189
-8.01509
-8.05807
-8.10063
-8.14255
-8.18367
-8.2238
-8.26279
-8.30048
-8.33673
-8.37139
-8.40429
-8.43524
-8.46405
-8.49045
-8.51418
-8.53517
-8.55365
-8.56977
-8.58334
-8.59379
-8.60087
-8.60515
-8.60696
-8.60601
-8.60204
-8.59475
-8.58378
-8.56875
-8.54936
-8.52547
-8.49706
-8.46404
-8.42631
-8.38372
-8.3361
-8.28329
-8.2253
-8.16216
-8.09391
-8.02051
-7.94194
-7.85814
-7.7691
-7.67479
-7.57534
-7.47077
-7.36115
-7.24648
-7.12676
-7.00196
-6.87208
-6.73714
-6.59718
-6.45223
-6.3023
-6.1474
-5.98753
-5.82271
-5.65292
-5.47821
-5.29863
-5.11426
-4.92516
-4.73142
-4.53314
-4.33042
-4.1234
-3.9122
-3.69697
-3.47788
-3.25514
-3.02895
-2.79951
-2.56703
-2.33173
-2.09383
-1.85354
-1.61111
-1.36677
-1.12077
-0.873299
-0.624575
-0.374813
-0.124225
0.126994
0.378642
0.630528
0.882462
1.13426
1.38577
1.63681
1.88724
2.13691
2.38564
2.63333
2.87986
3.12517
3.36914
3.61165
3.85254
4.09171
4.32902
4.56437
4.79763
5.0287
5.25754
5.48442
5.7089
5.93026
6.1486
6.364
6.57636
6.78557
6.99149
7.19401
7.39313
7.58846
7.77942
7.96581
8.14748
8.32374
8.49503
8.65655
8.82408
8.92944
-7.25753
-7.26424
-7.27793
-7.2932
-7.30498
-7.31495
-7.32529
-7.33613
-7.34704
-7.35772
-7.3679
-7.37711
-7.38473
-7.39074
-7.39563
-7.39962
-7.40257
-7.40437
-7.40496
-7.4043
-7.40242
-7.39932
-7.3951
-7.38989
-7.38388
-7.37729
-7.37045
-7.36368
-7.35741
-7.35202
-7.34793
-7.34552
-7.34513
-7.34709
-7.35162
-7.35891
-7.36907
-7.38215
-7.39817
-7.4171
-7.43889
-7.46347
-7.49073
-7.52055
-7.55274
-7.58711
-7.62344
-7.66156
-7.70126
-7.74232
-7.78449
-7.82752
-7.87117
-7.9152
-7.95936
-8.00341
-8.04709
-8.09018
-8.13246
-8.17375
-8.21389
-8.25271
-8.29008
-8.32587
-8.35996
-8.3922
-8.42245
-8.45048
-8.47589
-8.49805
-8.51686
-8.53307
-8.5476
-8.56056
-8.57142
-8.5796
-8.58472
-8.58677
-8.58591
-8.58212
-8.57509
-8.56445
-8.54976
-8.5307
-8.50729
-8.47971
-8.44772
-8.41075
-8.36852
-8.32103
-8.26827
-8.21025
-8.14702
-8.07858
-8.00493
-7.92607
-7.84196
-7.75258
-7.65797
-7.55821
-7.45339
-7.34351
-7.22861
-7.10869
-6.98373
-6.85372
-6.71871
-6.57872
-6.43378
-6.2839
-6.12907
-5.9693
-5.8046
-5.63496
-5.4604
-5.281