/*--------------------------------*- C++ -*----------------------------------*\
  =========                 |
  \\      /  F ield         | OpenFOAM: The Open Source CFD Toolbox
   \\    /   O peration     | Website:  https://openfoam.org
    \\  /    A nd           | Version:  8
     \\/     M anipulation  |
\*---------------------------------------------------------------------------*/
FoamFile
{
    version     2.0;
    format      ascii;
    class       volScalarField;
    location    "1300";
    object      nut;
}
// * * * * * * * * * * * * * * * * * * * * * * * * * * * * * * * * * * * * * //

dimensions      [0 2 -1 0 0 0 0];

internalField   nonuniform List<scalar> 
12225
(
2.95103e-06
2.03287e-05
1.94333e-05
2.04628e-05
1.4329e-05
2.98193e-05
3.01801e-05
3.65178e-05
3.98719e-05
3.74299e-05
2.80721e-05
2.9467e-05
3.85511e-05
3.68871e-05
2.96098e-05
2.14323e-05
1.94415e-05
1.8612e-05
2.59894e-05
3.99978e-05
3.04373e-05
3.5706e-05
2.39914e-05
4.02286e-05
4.2884e-05
4.61408e-05
4.21079e-05
4.47272e-05
4.29041e-05
4.47587e-05
4.69824e-05
5.04908e-05
5.07322e-05
4.85397e-05
5.09595e-05
4.60594e-05
0.000520583
0.000198408
0.000119502
8.07715e-05
5.90955e-05
4.93955e-05
4.31123e-05
4.00567e-05
3.79703e-05
3.71763e-05
3.63844e-05
3.55998e-05
3.50346e-05
3.50759e-05
3.514e-05
3.43205e-05
3.45758e-05
3.41294e-05
0.00049641
0.000411018
0.000340637
0.000268089
0.000218651
0.000180167
0.000154491
0.000133046
0.000118892
0.000107568
0.000100543
9.30895e-05
8.83164e-05
8.21616e-05
7.8909e-05
7.34906e-05
7.10351e-05
6.67613e-05
0.000457625
0.000448833
0.000436419
0.000411546
0.000387256
0.000352227
0.000325873
0.000295678
0.000275966
0.000254405
0.000242426
0.000226465
0.000217934
0.000204574
0.000197889
0.000186537
0.000181148
0.000171792
0.000455183
0.000453039
0.00045096
0.000447248
0.000440917
0.000431018
0.000420382
0.000403766
0.000393257
0.000378153
0.000369823
0.000356857
0.000349868
0.000338266
0.000332033
0.000321553
0.00031609
0.000306507
0.00045423
0.000453833
0.000453225
0.000452481
0.000451769
0.000449416
0.000446688
0.000441912
0.000437831
0.000432295
0.0004286
0.00042345
0.000420095
0.000414864
0.000411552
0.000406294
0.000403111
0.000397765
0.000454172
0.000453719
0.000453365
0.000452859
0.000452657
0.000451892
0.000451051
0.000449542
0.000448068
0.000446215
0.000444651
0.000442828
0.000441136
0.000439224
0.000437521
0.000435489
0.000433837
0.000431432
0.000454185
0.000453676
0.000453334
0.000452868
0.000452606
0.000452151
0.000451767
0.00045114
0.000450594
0.000449852
0.000449281
0.00044852
0.000447931
0.000447082
0.000446478
0.00044554
0.000444932
0.000443899
0.000454179
0.000453681
0.000453303
0.000452858
0.000452531
0.000452127
0.000451816
0.000451407
0.000451092
0.000450678
0.000450376
0.000449974
0.000449685
0.000449284
0.000448995
0.000448589
0.000448291
0.000447882
0.000454166
0.000453691
0.000453282
0.000452856
0.000452492
0.000452108
0.000451778
0.000451425
0.000451121
0.000450795
0.000450515
0.000450216
0.000449957
0.000449682
0.00044944
0.000449184
0.000448954
0.000448715
0.000454158
0.000453695
0.000453269
0.000452853
0.00045247
0.000452095
0.000451748
0.000451409
0.000451093
0.000450785
0.000450496
0.000450216
0.000449952
0.000449697
0.000449455
0.000449223
0.000449
0.000448788
0.000454154
0.000453695
0.000453261
0.000452848
0.000452456
0.000452083
0.00045173
0.000451391
0.00045107
0.000450762
0.000450469
0.000450188
0.000449921
0.000449664
0.00044942
0.000449187
0.000448963
0.00044875
0.000454154
0.000453694
0.000453258
0.000452842
0.000452449
0.000452074
0.000451718
0.000451377
0.000451054
0.000450744
0.000450449
0.000450166
0.000449897
0.000449639
0.000449392
0.000449157
0.000448932
0.000448716
0.000454155
0.000453695
0.000453261
0.000452846
0.000452454
0.000452079
0.000451724
0.000451383
0.000451061
0.000450751
0.000450457
0.000450174
0.000449906
0.000449648
0.000449403
0.000449166
0.000448943
0.000448726
0.000454166
0.000453724
0.000453309
0.000452909
0.000452534
0.000452171
0.000451831
0.000451501
0.000451193
0.000450891
0.00045061
0.000450334
0.000450079
0.000449825
0.000449593
0.000449359
0.000449148
0.000448932
0.000454192
0.000453804
0.000453435
0.000453081
0.000452745
0.000452422
0.000452115
0.00045182
0.000451538
0.000451268
0.00045101
0.000450762
0.000450525
0.000450297
0.000450079
0.00044987
0.000449669
0.000449476
0.000454191
0.000453805
0.000453433
0.000453081
0.000452742
0.00045242
0.000452111
0.000451817
0.000451534
0.000451264
0.000451004
0.000450757
0.000450518
0.00045029
0.00045007
0.000449861
0.000449658
0.000449467
0.000454163
0.000453723
0.000453303
0.000452904
0.000452524
0.000452163
0.000451817
0.000451489
0.000451173
0.000450875
0.000450586
0.000450314
0.00045005
0.000449801
0.000449558
0.000449331
0.000449108
0.0004489
0.000454153
0.000453695
0.000453257
0.000452842
0.000452446
0.000452069
0.00045171
0.000451369
0.000451042
0.000450731
0.000450433
0.000450149
0.000449877
0.000449617
0.000449368
0.00044913
0.000448901
0.000448684
0.000454153
0.000453693
0.000453255
0.000452838
0.000452441
0.000452064
0.000451704
0.000451361
0.000451033
0.000450721
0.000450422
0.000450137
0.000449864
0.000449602
0.000449352
0.000449113
0.000448884
0.000448665
0.000454151
0.000453696
0.000453255
0.000452844
0.000452445
0.000452071
0.00045171
0.00045137
0.000451041
0.000450731
0.000450431
0.000450147
0.000449872
0.000449611
0.000449358
0.000449118
0.000448884
0.000448663
0.000454145
0.000453707
0.00045325
0.000452856
0.000452444
0.000452086
0.00045171
0.000451382
0.000451034
0.000450728
0.0004504
0.00045011
0.000449795
0.000449515
0.000449211
0.000448937
0.000448643
0.000448378
0.000454133
0.000453735
0.000453207
0.000452877
0.000452402
0.000452073
0.0004516
0.000451239
0.000450721
0.0004503
0.000449693
0.000449204
0.000448509
0.000447946
0.000447189
0.000446567
0.000445772
0.000445118
0.000454232
0.000453677
0.000452861
0.000452646
0.000451773
0.000451105
0.000449722
0.000448544
0.000446637
0.00044464
0.000442247
0.000439929
0.000436903
0.000434446
0.000431265
0.000428733
0.000425573
0.000423095
0.000454875
0.000451756
0.000448262
0.00044665
0.000443353
0.000437423
0.00042987
0.000422715
0.000412324
0.00040357
0.000392751
0.000384152
0.000374025
0.000366244
0.000357185
0.000350413
0.000342463
0.000336664
0.000453082
0.00042221
0.000412706
0.000400704
0.000371464
0.000344791
0.000315683
0.000292583
0.000269554
0.000252281
0.000235223
0.000222803
0.000210204
0.000201232
0.000191732
0.000185125
0.000177772
0.000172784
0.000459719
0.000285247
0.000260648
0.000205877
0.000159835
0.00013183
0.000112352
9.93898e-05
8.94511e-05
8.24351e-05
7.66535e-05
7.25069e-05
6.88447e-05
6.62413e-05
6.37982e-05
6.21209e-05
6.04242e-05
5.92742e-05
5.46813e-05
6.75211e-05
5.7095e-05
4.80579e-05
4.473e-05
4.29498e-05
4.24678e-05
4.22083e-05
4.26189e-05
4.29501e-05
4.3794e-05
4.44613e-05
4.55966e-05
4.65187e-05
4.78831e-05
4.9025e-05
5.05046e-05
5.06688e-05
4.30244e-06
1.00827e-05
1.59021e-05
1.92332e-05
2.10425e-05
2.20823e-05
2.24057e-05
2.25193e-05
2.24605e-05
2.22214e-05
2.19312e-05
2.16232e-05
2.1317e-05
2.10253e-05
2.07526e-05
2.05049e-05
2.02775e-05
2.0077e-05
1.54686e-12
1.75075e-10
8.9194e-10
3.50966e-09
1.1719e-08
3.56978e-08
9.32989e-08
1.85389e-07
3.00144e-07
4.2095e-07
5.29098e-07
6.12758e-07
6.68321e-07
6.88611e-07
6.79446e-07
6.51179e-07
5.98162e-07
5.10769e-07
4.34456e-07
3.69187e-07
3.07474e-07
2.47737e-07
1.90006e-07
1.36521e-07
8.89029e-08
5.20717e-08
2.76512e-08
1.39304e-08
7.08142e-09
3.83518e-09
2.31265e-09
1.71344e-09
2.09324e-09
3.9851e-09
7.15189e-09
5.0199e-08
1.15091e-07
2.64391e-07
4.09126e-07
4.58875e-07
4.23813e-07
3.41908e-07
2.81753e-07
2.67842e-07
2.88027e-07
3.77546e-07
4.94054e-07
9.49842e-07
2.11097e-06
6.3379e-06
1.77841e-05
3.27268e-05
4.43994e-05
4.71055e-05
3.70312e-05
5.07914e-05
4.32829e-05
3.85863e-05
3.80204e-05
4.07742e-05
3.31356e-05
3.47874e-05
3.60595e-05
3.11986e-05
3.32064e-05
3.35332e-05
3.4203e-05
3.47339e-05
3.53382e-05
3.58682e-05
3.64372e-05
3.69641e-05
3.75098e-05
3.80303e-05
3.85601e-05
3.90743e-05
3.95923e-05
4.01008e-05
4.061e-05
4.11135e-05
4.1616e-05
4.21153e-05
4.26125e-05
4.31081e-05
4.36009e-05
4.40932e-05
4.4582e-05
4.5071e-05
4.55571e-05
4.60432e-05
4.65271e-05
4.70087e-05
4.74874e-05
4.79631e-05
4.8435e-05
4.89033e-05
4.93677e-05
4.98296e-05
5.02902e-05
5.07538e-05
5.12258e-05
5.17071e-05
5.21867e-05
5.26722e-05
5.31621e-05
5.36581e-05
5.41601e-05
5.46688e-05
5.51847e-05
5.57083e-05
5.62401e-05
5.67808e-05
5.73311e-05
5.78915e-05
5.84631e-05
5.90463e-05
5.96425e-05
6.0252e-05
6.08765e-05
6.15163e-05
6.21737e-05
6.28486e-05
6.35438e-05
6.42595e-05
6.49989e-05
6.57624e-05
6.65542e-05
6.73752e-05
6.82373e-05
6.91298e-05
7.00184e-05
7.1008e-05
7.19517e-05
7.30136e-05
7.40955e-05
7.52599e-05
7.64683e-05
7.73395e-05
7.70888e-05
7.68299e-05
7.65577e-05
7.62757e-05
7.59835e-05
7.5681e-05
7.53694e-05
7.50482e-05
7.47184e-05
7.43797e-05
7.40329e-05
7.36781e-05
7.33161e-05
7.29471e-05
7.25723e-05
7.21907e-05
7.18047e-05
7.14136e-05
7.10193e-05
7.06219e-05
7.02224e-05
6.98215e-05
6.94198e-05
6.90177e-05
6.86156e-05
6.82138e-05
6.78125e-05
6.74124e-05
6.70137e-05
6.66175e-05
6.62239e-05
6.58338e-05
6.5447e-05
6.50635e-05
6.46818e-05
6.43005e-05
6.39148e-05
6.35174e-05
6.30974e-05
6.26256e-05
6.20517e-05
6.05694e-05
6.93392e-12
1.12247e-09
1.52571e-08
8.14962e-08
3.52245e-07
1.16281e-06
2.6879e-06
4.91088e-06
7.61596e-06
1.06973e-05
1.38112e-05
1.66955e-05
1.9143e-05
2.09732e-05
2.2064e-05
2.23821e-05
2.20265e-05
2.1273e-05
1.89243e-05
1.58854e-05
1.22333e-05
8.99089e-06
6.32762e-06
4.26079e-06
2.68224e-06
1.65648e-06
1.0107e-06
6.26435e-07
3.92533e-07
2.55695e-07
1.84863e-07
1.56096e-07
1.72362e-07
2.79227e-07
2.99491e-07
3.0244e-06
6.79393e-06
1.43411e-05
2.04296e-05
2.28189e-05
2.16048e-05
1.94233e-05
1.68655e-05
1.55375e-05
1.6084e-05
1.63548e-05
1.87023e-05
2.50391e-05
3.63171e-05
4.73092e-05
5.9494e-05
7.00299e-05
7.96204e-05
8.75243e-05
9.41939e-05
0.000108078
0.000116926
0.00013004
0.000141945
0.000159251
0.000167475
0.0001818
0.000196575
0.000204251
0.0002179
0.000229001
0.00024019
0.000250875
0.000261217
0.000271219
0.000280902
0.000290341
0.000299513
0.000308502
0.000317282
0.000325913
0.000334382
0.000342722
0.000350932
0.000359027
0.000367013
0.000374894
0.000382678
0.000390367
0.000397964
0.000405471
0.000412889
0.000420222
0.00042747
0.000434634
0.00044172
0.000448713
0.000455611
0.000462402
0.000469069
0.00047559
0.000481927
0.000488032
0.000493827
0.000499213
0.000504056
0.000508483
0.000512909
0.000517162
0.000521318
0.000525343
0.000529247
0.000533022
0.000536669
0.000540183
0.000543562
0.000546805
0.000549908
0.000552869
0.000555687
0.00055836
0.000560885
0.00056326
0.000565485
0.000567557
0.000569475
0.000571238
0.000572843
0.000574291
0.000575578
0.000576705
0.00057767
0.000578474
0.000579119
0.000579629
0.000579943
0.000580185
0.000580129
0.000580003
0.000579681
0.000579357
0.000578944
0.000578665
0.000578433
0.000578057
0.00057755
0.000576917
0.000576164
0.000575292
0.000574303
0.0005732
0.000571986
0.00057066
0.000569227
0.000567684
0.000566033
0.000564301
0.00056245
0.00056052
0.000558485
0.00055637
0.000554173
0.000551903
0.000549569
0.000547174
0.000544726
0.000542228
0.000539684
0.000537094
0.000534461
0.000531787
0.000529075
0.00052633
0.000523555
0.000520755
0.000517931
0.000515077
0.000512179
0.000509223
0.000506145
0.000502869
0.000499272
0.000495054
0.00048951
0.000474146
1.84868e-11
3.16386e-09
5.96801e-08
3.61767e-07
1.06184e-06
2.89337e-06
6.14031e-06
1.06828e-05
1.63045e-05
2.26987e-05
2.94985e-05
3.6232e-05
4.23014e-05
4.73557e-05
5.11989e-05
5.37197e-05
5.50838e-05
5.5405e-05
5.38619e-05
5.10086e-05
4.63447e-05
4.04739e-05
3.3346e-05
2.6229e-05
1.96842e-05
1.40773e-05
9.54924e-06
6.36613e-06
4.02679e-06
2.6654e-06
1.88672e-06
1.48846e-06
1.27193e-06
1.96893e-06
3.44478e-06
1.56792e-05
3.35496e-05
5.24464e-05
6.28914e-05
6.22148e-05
5.13591e-05
4.09627e-05
3.89158e-05
4.45693e-05
5.16321e-05
6.04828e-05
7.29424e-05
8.52594e-05
9.78422e-05
0.000114288
0.00013261
0.000152922
0.000175222
0.000199192
0.000227886
0.000259535
0.000289019
0.000320243
0.000350587
0.000381293
0.000407942
0.00043515
0.000462207
0.000485698
0.000510037
0.000532868
0.000554764
0.000575877
0.000596289
0.000616097
0.000635366
0.000654185
0.000672584
0.000690635
0.000708352
0.000725786
0.000742944
0.000759858
0.000776535
0.000792991
0.000809234
0.00082527
0.000841107
0.000856745
0.00087219
0.000887439
0.000902494
0.000917351
0.000932009
0.000946464
0.000960708
0.000974723
0.000988493
0.00100199
0.0010152
0.00102807
0.00104058
0.00105267
0.00106432
0.0010755
0.00108625
0.00109672
0.00110699
0.00111698
0.00112672
0.00113619
0.0011454
0.00115432
0.00116295
0.0011713
0.00117936
0.00118711
0.00119456
0.0012017
0.00120852
0.00121503
0.00122122
0.00122708
0.00123262
0.00123782
0.00124269
0.00124723
0.00125143
0.00125529
0.00125881
0.00126199
0.00126483
0.00126733
0.0012695
0.00127134
0.00127283
0.00127402
0.00127481
0.00127531
0.00127548
0.00127556
0.00127544
0.00127514
0.00127462
0.00127379
0.00127267
0.00127127
0.0012696
0.00126766
0.00126545
0.00126299
0.00126028
0.00125732
0.00125412
0.00125068
0.001247
0.00124312
0.00123899
0.00123466
0.00123012
0.00122538
0.00122047
0.00121539
0.00121017
0.00120481
0.00119934
0.00119376
0.00118808
0.0011823
0.00117643
0.00117047
0.00116444
0.00115834
0.00115219
0.00114598
0.00113974
0.00113344
0.00112705
0.00112053
0.00111377
0.00110661
0.00109876
0.0010895
0.001077
0.00104918
6.76865e-11
1.14516e-08
1.81503e-07
8.04626e-07
2.45979e-06
6.80354e-06
1.34977e-05
2.25157e-05
3.31727e-05
4.4376e-05
5.52008e-05
6.50913e-05
7.35757e-05
8.00748e-05
8.49603e-05
8.81003e-05
8.939e-05
8.91824e-05
8.76056e-05
8.44626e-05
7.99248e-05
7.44165e-05
6.70757e-05
5.83542e-05
4.8692e-05
3.90164e-05
3.00586e-05
2.26016e-05
1.68706e-05
1.22137e-05
9.45475e-06
6.90604e-06
7.33839e-06
1.06716e-05
2.45177e-05
4.71376e-05
6.67596e-05
7.82409e-05
7.57139e-05
7.22812e-05
7.17655e-05
7.47783e-05
8.18519e-05
9.23252e-05
0.00010706
0.000118386
0.000135756
0.000158998
0.000183681
0.00021523
0.000249195
0.000287278
0.000327762
0.00037059
0.000415107
0.000460106
0.000503961
0.00054755
0.00058959
0.000630397
0.000668811
0.000705968
0.000742022
0.000776269
0.000809501
0.000841445
0.000872358
0.000902367
0.000931574
0.000960081
0.000987967
0.0010153
0.00104215
0.00106855
0.00109453
0.00112014
0.00114538
0.00117029
0.00119486
0.00121912
0.00124306
0.00126669
0.00129002
0.00131304
0.00133576
0.00135817
0.00138027
0.00140205
0.00142351
0.00144463
0.00146541
0.00148582
0.00150586
0.00152549
0.00154469
0.00156345
0.00158174
0.00159955
0.00161687
0.00163373
0.00165017
0.00166624
0.00168195
0.00169727
0.00171219
0.00172671
0.00174081
0.00175449
0.00176774
0.00178055
0.00179292
0.00180483
0.00181629
0.00182728
0.0018378
0.00184785
0.00185742
0.00186651
0.00187511
0.00188322
0.00189084
0.00189796
0.00190458
0.00191071
0.00191634
0.00192148
0.00192612
0.00193026
0.00193392
0.00193709
0.00193976
0.00194195
0.00194365
0.00194485
0.00194561
0.0019462
0.00194636
0.00194613
0.00194549
0.00194441
0.0019429
0.00194098
0.00193864
0.00193591
0.00193279
0.00192928
0.00192539
0.00192114
0.00191653
0.00191157
0.00190626
0.00190062
0.00189463
0.00188833
0.00188172
0.00187481
0.00186764
0.00186022
0.00185257
0.00184472
0.00183669
0.0018285
0.00182014
0.00181165
0.00180301
0.00179424
0.00178536
0.00177638
0.00176731
0.00175817
0.00174897
0.00173969
0.0017303
0.00172073
0.00171085
0.00170046
0.00168917
0.00167594
0.00165841
0.00162545
2.30897e-10
3.44112e-08
4.08704e-07
1.91549e-06
6.65537e-06
1.60134e-05
2.97341e-05
4.6063e-05
6.30779e-05
7.9053e-05
9.28371e-05
0.000103621
0.000111548
0.000117012
0.000120073
0.000121321
0.000120992
0.000119312
0.000116455
0.000112454
0.000107219
0.000101308
9.40678e-05
8.54733e-05
7.55669e-05
6.46388e-05
5.34388e-05
4.32627e-05
3.47931e-05
2.80805e-05
2.19891e-05
2.05778e-05
2.48299e-05
4.08716e-05
6.56022e-05
8.22045e-05
9.04931e-05
9.4109e-05
9.66214e-05
0.000101124
0.000109285
0.000121959
0.000135675
0.000147865
0.000167473
0.000195833
0.000225883
0.000264062
0.000305227
0.000352291
0.000401209
0.000453253
0.000506431
0.00056057
0.000614734
0.000668329
0.000720665
0.000771896
0.000821508
0.000869248
0.000915409
0.000960284
0.0010036
0.00104538
0.00108596
0.00112535
0.0011637
0.00120114
0.00123774
0.0012736
0.0013088
0.00134339
0.00137742
0.00141094
0.00144397
0.00147654
0.00150866
0.00154035
0.00157161
0.00160245
0.00163288
0.00166289
0.00169248
0.00172166
0.00175042
0.00177875
0.00180666
0.00183413
0.00186116
0.00188774
0.00191385
0.00193949
0.00196464
0.00198929
0.00201341
0.00203701
0.00206008
0.00208261
0.00210463
0.00212614
0.00214715
0.00216769
0.00218774
0.00220728
0.00222631
0.00224481
0.00226278
0.00228021
0.00229709
0.0023134
0.00232915
0.00234432
0.00235891
0.00237292
0.00238633
0.00239915
0.00241137
0.00242299
0.002434
0.0024444
0.00245418
0.00246335
0.00247191
0.00247985
0.00248718
0.0024939
0.00250002
0.00250552
0.00251043
0.00251474
0.00251845
0.00252154
0.00252407
0.00252594
0.00252734
0.0025284
0.00252889
0.00252886
0.0025283
0.0025272
0.00252558
0.00252344
0.0025208
0.00251767
0.00251404
0.00250993
0.00250536
0.00250033
0.00249486
0.00248894
0.0024826
0.00247583
0.00246864
0.00246105
0.00245306
0.00244471
0.00243601
0.002427
0.0024177
0.00240813
0.00239832
0.00238829
0.00237806
0.00236762
0.00235701
0.00234622
0.00233527
0.00232419
0.002313
0.0023017
0.0022903
0.0022788
0.00226716
0.00225533
0.00224317
0.00223047
0.00221685
0.00220123
0.00218097
0.00214776
7.3354e-10
8.44721e-08
1.01892e-06
5.17715e-06
1.6899e-05
3.56893e-05
5.82267e-05
8.12561e-05
0.000101571
0.000117757
0.00012977
0.00013851
0.000143775
0.000146512
0.00014731
0.000146598
0.000144638
0.000141607
0.000137644
0.000132724
0.000126859
0.000120411
0.000112874
0.000104216
9.44787e-05
7.89685e-05
6.39462e-05
4.98791e-05
3.79605e-05
3.20166e-05
3.23586e-05
4.23853e-05
6.31749e-05
8.56247e-05
0.0001018
0.000111575
0.000117626
0.000123592
0.000133113
0.000148262
0.000160862
0.000173332
0.000194957
0.000223108
0.000256649
0.000298003
0.000343295
0.000394982
0.000449028
0.000506612
0.000565347
0.000625551
0.000685979
0.000746358
0.000806108
0.000864942
0.000922296
0.00097829
0.0010331
0.00108639
0.00113806
0.00118831
0.00123718
0.00128471
0.00133106
0.00137632
0.00142057
0.00146392
0.00150645
0.00154822
0.00158929
0.00162972
0.00166955
0.00170879
0.00174749
0.00178564
0.00182326
0.00186036
0.00189694
0.00193299
0.00196853
0.00200354
0.00203803
0.002072
0.00210543
0.00213834
0.00217071
0.00220254
0.00223382
0.00226454
0.00229471
0.00232431
0.00235334
0.00238178
0.00240962
0.00243687
0.00246352
0.00248958
0.00251507
0.00253997
0.00256429
0.00258804
0.00261119
0.00263375
0.0026557
0.00267703
0.00269773
0.0027178
0.00273723
0.00275601
0.00277412
0.00279157
0.00280836
0.00282447
0.00283991
0.00285467
0.00286875
0.00288214
0.00289484
0.00290686
0.00291819
0.00292882
0.00293877
0.00294803
0.0029566
0.00296449
0.0029717
0.00297825
0.00298412
0.00298936
0.00299387
0.00299773
0.00300095
0.00300343
0.00300545
0.00300696
0.00300784
0.00300811
0.00300779
0.00300687
0.00300537
0.00300329
0.00300065
0.00299746
0.00299371
0.00298943
0.00298462
0.0029793
0.00297348
0.00296715
0.00296034
0.00295305
0.00294528
0.00293705
0.00292837
0.00291927
0.00290977
0.0028999
0.00288969
0.00287916
0.00286834
0.00285725
0.00284591
0.00283432
0.00282251
0.00281048
0.00279826
0.00278587
0.00277333
0.00276066
0.00274787
0.00273495
0.0027219
0.00270865
0.00269509
0.00268105
0.00266617
0.00264952
0.00262863
0.00259729
2.3464e-09
2.15707e-07
2.69488e-06
1.41281e-05
3.69239e-05
6.56825e-05
9.31505e-05
0.000115548
0.000132636
0.000145359
0.000154344
0.000159865
0.000162761
0.000163684
0.000163099
0.000161321
0.000158547
0.000154882
0.000150283
0.000144674
0.000138221
0.000130815
0.000122106
0.000107208
9.16108e-05
7.78601e-05
6.55147e-05
5.61854e-05
5.36129e-05
6.00636e-05
7.24079e-05
9.60673e-05
0.000115714
0.000129181
0.000138895
0.000146921
0.000157058
0.00017267
0.000184018
0.000195682
0.000216694
0.000243889
0.000277875
0.000318689
0.000365674
0.000418697
0.000475245
0.000535483
0.000597301
0.000660866
0.000725002
0.000789543
0.000853845
0.00091765
0.000980382
0.00104203
0.00110286
0.0011624
0.00122058
0.00127738
0.00133281
0.00138694
0.00143983
0.00149154
0.00154216
0.00159176
0.00164042
0.0016882
0.00173518
0.00178141
0.00182693
0.00187178
0.00191599
0.00195958
0.00200255
0.00204491
0.00208667
0.00212783
0.00216837
0.0022083
0.00224762
0.00228631
0.00232439
0.00236184
0.00239866
0.00243485
0.00247042
0.00250535
0.00253965
0.00257332
0.00260634
0.00263873
0.00267047
0.00270157
0.002732
0.00276178
0.0027909
0.00281936
0.00284714
0.00287426
0.00290073
0.00292655
0.0029517
0.00297618
0.00299998
0.00302311
0.00304554
0.00306728
0.00308832
0.00310867
0.00312832
0.00314726
0.00316549
0.00318299
0.00319977
0.00321582
0.00323114
0.00324572
0.00325958
0.0032727
0.00328508
0.00329674
0.00330766
0.00331785
0.00332731
0.00333606
0.00334408
0.0033514
0.00335804
0.00336397
0.00336911
0.00337361
0.00337741
0.00338043
0.00338298
0.00338492
0.00338619
0.00338682
0.00338681
0.00338618
0.00338492
0.00338306
0.0033806
0.00337757
0.00337402
0.0033699
0.00336523
0.00336001
0.00335426
0.00334798
0.00334117
0.00333385
0.00332602
0.00331769
0.00330887
0.0032996
0.0032899
0.00327978
0.00326928
0.00325843
0.00324724
0.00323574
0.00322394
0.00321187
0.00319952
0.00318692
0.00317409
0.00316106
0.00314784
0.00313446
0.00312093
0.00310727
0.00309346
0.00307946
0.00306521
0.00305055
0.0030352
0.0030184
0.00299824
0.00296979
7.04235e-09
5.69766e-07
7.23889e-06
3.01977e-05
6.36318e-05
9.74611e-05
0.000125657
0.000146452
0.000160624
0.000169267
0.000173685
0.000175495
0.00017559
0.000174346
0.000172094
0.00016901
0.000165081
0.000160197
0.000154442
0.00014797
0.000140677
0.000132164
0.000116326
9.94084e-05
8.51608e-05
7.48937e-05
7.08731e-05
7.46175e-05
8.25934e-05
0.000101977
0.000127193
0.000150245
0.000165028
0.000174924
0.000185929
0.000197771
0.000204261
0.000215754
0.000234523
0.000259367
0.000291733
0.000330622
0.000376175
0.00042781
0.000484497
0.000545083
0.000608019
0.000672886
0.000738713
0.000805276
0.000871987
0.000938581
0.00100457
0.00106964
0.0011342
0.00119785
0.00126037
0.00132172
0.00138187
0.00144081
0.00149855
0.00155514
0.00161062
0.00166504
0.00171847
0.00177096
0.00182257
0.00187335
0.00192336
0.00197264
0.00202122
0.00206913
0.00211638
0.00216298
0.00220893
0.00225423
0.00229886
0.00234283
0.00238611
0.0024287
0.0024706
0.00251179
0.00255228
0.00259207
0.00263115
0.00266951
0.00270717
0.00274413
0.00278039
0.00281596
0.00285083
0.00288501
0.00291849
0.00295128
0.00298337
0.00301476
0.00304544
0.00307541
0.00310466
0.00313321
0.00316107
0.00318824
0.00321471
0.00324048
0.00326553
0.00328987
0.00331348
0.00333637
0.00335853
0.00337996
0.00340064
0.00342057
0.00343976
0.0034582
0.00347589
0.00349283
0.00350901
0.00352444
0.00353912
0.00355304
0.0035662
0.00357862
0.00359029
0.00360121
0.00361139
0.00362083
0.00362954
0.00363753
0.00364487
0.00365139
0.00365718
0.00366231
0.00366671
0.00367034
0.00367349
0.00367595
0.00367775
0.00367889
0.00367937
0.00367922
0.00367844
0.00367704
0.00367503
0.00367243
0.00366922
0.00366544
0.00366109
0.00365617
0.0036507
0.00364468
0.00363811
0.003631
0.00362337
0.00361521
0.00360654
0.00359739
0.00358778
0.00357773
0.00356727
0.00355642
0.0035452
0.00353364
0.00352174
0.00350953
0.00349701
0.00348421
0.00347113
0.00345782
0.00344429
0.00343057
0.00341668
0.00340263
0.00338843
0.00337405
0.00335944
0.00334452
0.00332908
0.00331263
0.00329363
0.00326854
1.83116e-08
1.41456e-06
1.61369e-05
5.09147e-05
9.14309e-05
0.000125966
0.000151489
0.000168586
0.000179263
0.000184774
0.00018651
0.000185563
0.000182859
0.000179124
0.000174762
0.000169888
0.00016444
0.000158428
0.000151805
0.000144647
0.000136811
0.000126204
0.000113458
0.00010558
0.000101661
9.6342e-05
9.90542e-05
0.000112874
0.000132151
0.000153244
0.000173531
0.000190592
0.000203096
0.000212011
0.000220991
0.000232151
0.000249133
0.000271305
0.000300693
0.000336581
0.000379177
0.000427721
0.000481826
0.000540558
0.000602741
0.00066726
0.000733208
0.000800139
0.000867545
0.000935147
0.00100263
0.00106937
0.00113566
0.00120154
0.00126648
0.00133047
0.00139345
0.00145536
0.00151619
0.00157594
0.00163464
0.0016923
0.00174897
0.00180469
0.00185951
0.00191348
0.00196664
0.00201903
0.0020707
0.00212168
0.002172
0.00222169
0.00227074
0.00231917
0.00236693
0.00241401
0.00246041
0.00250611
0.00255107
0.0025953
0.00263877
0.00268148
0.00272342
0.0027646
0.00280503
0.00284474
0.00288371
0.00292191
0.00295934
0.00299602
0.00303195
0.00306713
0.00310158
0.00313529
0.00316827
0.00320051
0.00323203
0.00326283
0.00329292
0.00332229
0.00335096
0.0033789
0.00340612
0.00343262
0.00345839
0.00348342
0.00350771
0.00353127
0.00355407
0.00357613
0.00359744
0.00361799
0.00363778
0.00365682
0.00367511
0.00369263
0.0037094
0.00372541
0.00374067
0.00375517
0.00376892
0.00378191
0.00379416
0.00380567
0.00381643
0.00382647
0.00383577
0.0038444
0.0038523
0.00385941
0.00386584
0.00387158
0.00387659
0.0038809
0.00388465
0.00388772
0.00389012
0.00389187
0.00389297
0.00389344
0.00389328
0.0038925
0.00389112
0.00388913
0.00388655
0.0038834
0.00387967
0.00387537
0.00387051
0.0038651
0.00385914
0.00385263
0.00384558
0.003838
0.00382989
0.00382129
0.00381221
0.00380268
0.00379271
0.00378233
0.00377156
0.00376041
0.0037489
0.00373704
0.00372484
0.00371232
0.0036995
0.0036864
0.00367306
0.00365949
0.00364572
0.00363178
0.00361765
0.00360336
0.00358887
0.00357414
0.00355901
0.00354303
0.00352505
0.00350276
4.07953e-08
3.26784e-06
2.91946e-05
7.46867e-05
0.000118776
0.000152097
0.000174132
0.000187993
0.000194629
0.000195858
0.000193574
0.000189155
0.000183537
0.00017729
0.000170711
0.000163617
0.000156415
0.000148513
0.000140614
0.00013245
0.000123864
0.000115793
0.000109964
0.000108762
0.000114006
0.000125215
0.000140832
0.000158229
0.000176346
0.000193659
0.000208395
0.000219751
0.00023145
0.000244284
0.000260332
0.000280425
0.000306766
0.000339149
0.00037796
0.000422581
0.000472703
0.000527665
0.000586814
0.000649181
0.000713759
0.00077972
0.000846489
0.000913708
0.00098106
0.00104808
0.00111455
0.00118101
0.0012467
0.00131166
0.00137573
0.00143887
0.00150105
0.00156224
0.00162244
0.00168167
0.00173992
0.00179724
0.00185369
0.0019093
0.00196412
0.00201819
0.00207156
0.0021242
0.0021762
0.00222762
0.00227847
0.00232876
0.00237851
0.00242774
0.00247652
0.00252478
0.00257236
0.00261918
0.00266522
0.00271046
0.00275487
0.00279845
0.00284118
0.00288306
0.0029241
0.00296427
0.0030036
0.00304216
0.00307995
0.00311699
0.00315329
0.00318885
0.00322368
0.00325779
0.00329118
0.00332384
0.0033558
0.00338704
0.00341758
0.0034474
0.0034765
0.00350488
0.00353253
0.00355945
0.00358564
0.0036111
0.00363581
0.00365978
0.00368301
0.0037055
0.00372723
0.00374822
0.00376845
0.00378794
0.00380667
0.00382466
0.00384189
0.00385838
0.00387413
0.00388914
0.0039034
0.00391692
0.00392972
0.00394177
0.0039531
0.00396371
0.00397362
0.00398286
0.00399133
0.0039991
0.00400618
0.00401259
0.00401828
0.00402332
0.00402776
0.00403152
0.00403464
0.00403711
0.00403894
0.00404016
0.00404075
0.00404074
0.00404013
0.00403893
0.00403715
0.00403479
0.00403187
0.00402839
0.00402436
0.00401977
0.00401463
0.00400894
0.00400271
0.00399594
0.00398864
0.00398084
0.00397256
0.00396381
0.00395461
0.00394497
0.00393493
0.00392448
0.00391365
0.00390244
0.00389085
0.00387892
0.00386666
0.00385409
0.00384124
0.00382813
0.00381479
0.00380123
0.00378749
0.00377357
0.00375947
0.00374516
0.00373057
0.00371536
0.00369858
0.00367942
7.76387e-08
6.70777e-06
4.33392e-05
9.47683e-05
0.00014035
0.000172856
0.000193219
0.000202913
0.000205176
0.000202556
0.000196921
0.000189566
0.000181338
0.000172473
0.000163881
0.000155117
0.000147069
0.000139978
0.00013426
0.000129836
0.000127469
0.000128177
0.000132547
0.000140686
0.00015217
0.000166139
0.000181486
0.000197115
0.000211771
0.000224375
0.000237293
0.00025198
0.000268252
0.000287408
0.000311229
0.000340313
0.000375213
0.000415586
0.000461194
0.000511514
0.000566112
0.000624393
0.000685664
0.000749094
0.000813909
0.00087951
0.00094548
0.00101155
0.00107708
0.00114245
0.00120747
0.00127186
0.00133547
0.00139822
0.00146004
0.00152094
0.0015809
0.00163994
0.00169808
0.00175533
0.00181167
0.00186715
0.00192189
0.00197594
0.00202936
0.00208221
0.00213463
0.00218686
0.00223867
0.00228999
0.00234081
0.00239113
0.00244097
0.00249031
0.00253908
0.00258723
0.00263475
0.00268155
0.00272763
0.00277295
0.00281747
0.00286117
0.00290401
0.00294601
0.00298717
0.00302751
0.00306708
0.00310587
0.0031439
0.00318117
0.0032177
0.00325351
0.00328859
0.00332296
0.00335662
0.00338957
0.00342181
0.00345335
0.00348418
0.00351431
0.00354372
0.00357242
0.00360041
0.00362767
0.00365421
0.00368002
0.0037051
0.00372945
0.00375307
0.00377596
0.0037981
0.00381951
0.00384018
0.00386012
0.00387931
0.00389778
0.00391551
0.0039325
0.00394878
0.00396432
0.00397914
0.00399324
0.00400663
0.0040193
0.00403126
0.00404251
0.00405311
0.00406298
0.00407215
0.00408065
0.00408847
0.00409563
0.00410211
0.00410796
0.0041132
0.00411777
0.00412171
0.00412502
0.00412771
0.0041298
0.00413128
0.00413216
0.00413247
0.00413219
0.00413135
0.00412994
0.00412798
0.00412547
0.00412242
0.00411882
0.00411467
0.00410998
0.00410474
0.00409895
0.00409265
0.00408583
0.00407852
0.00407074
0.00406251
0.00405382
0.00404471
0.00403518
0.00402524
0.00401489
0.00400414
0.00399302
0.00398153
0.00396971
0.00395757
0.00394514
0.00393245
0.00391952
0.00390636
0.00389301
0.00387947
0.00386576
0.00385184
0.00383746
0.00382179
0.00380532
1.24282e-07
1.15861e-05
5.96365e-05
0.000117166
0.000162504
0.000192854
0.000209119
0.00021493
0.000213728
0.000208159
0.000200167
0.000190808
0.000181376
0.000172329
0.000164302
0.000157399
0.000151932
0.000148708
0.000147487
0.00014851
0.000152053
0.000158191
0.00016677
0.000177439
0.000189708
0.000203048
0.0002164
0.000228925
0.00024188
0.000257153
0.000274304
0.000292985
0.000315226
0.000341683
0.000373002
0.000409244