/*--------------------------------*- C++ -*----------------------------------*\
  =========                 |
  \\      /  F ield         | OpenFOAM: The Open Source CFD Toolbox
   \\    /   O peration     | Website:  https://openfoam.org
    \\  /    A nd           | Version:  8
     \\/     M anipulation  |
\*---------------------------------------------------------------------------*/
FoamFile
{
    version     2.0;
    format      ascii;
    class       volScalarField;
    location    "1300";
    object      omega;
}
// * * * * * * * * * * * * * * * * * * * * * * * * * * * * * * * * * * * * * //

dimensions      [0 0 -1 0 0 0 0];

internalField   nonuniform List<scalar> 
12225
(
32582.3
32582.3
39666.8
38905.9
38189.5
32582.3
32582.3
32582.3
32582.3
32582.3
41643.7
32582.3
32582.3
32582.3
41502.2
46581.7
43566.9
46504.6
7368.84
6820.99
11108.2
12823.2
18267.4
13302.1
13709.4
14076
16861.7
17093
17866.5
17302.6
17238.3
16493.7
16799.6
17817.6
16856
19284.4
24.0245
1022.14
1755.73
2747.71
3783.49
4639.64
5364.51
5921.89
6370.94
6626.77
6881.05
7051.6
7225.21
7374.06
7492.5
7803.89
7867.33
8169.27
401.465
483.269
584.036
746.775
917.825
1111.9
1289.18
1487.3
1654.84
1815.05
1929.32
2067.97
2162.32
2311.71
2391.52
2552.55
2625.29
2776.76
435.756
441.524
452.252
477.976
506.456
553.919
595.647
652.199
695.175
749.51
782.837
833.49
862.033
913.856
940.534
992.993
1017.95
1068.33
438.113
437.421
437.184
438.476
442.743
450.435
459.591
475.904
486.42
503.428
512.748
529.176
537.804
554.158
562.652
578.921
586.96
603.169
438.988
436.681
434.879
433.197
431.72
431.729
432.301
434.855
436.996
440.682
442.772
446.462
448.478
452.585
454.781
459.215
461.445
466.234
439.021
436.785
434.678
432.777
430.764
429.323
428.095
427.546
427.101
427.083
426.922
427.08
427.218
427.634
427.929
428.602
428.958
430.109
438.99
436.825
434.672
432.739
430.758
429.047
427.388
426.037
424.715
423.657
422.536
421.669
420.726
420.096
419.305
418.891
418.219
417.998
438.988
436.81
434.671
432.716
430.779
429.021
427.287
425.739
424.197
422.833
421.45
420.24
419.001
417.939
416.841
415.917
414.946
414.14
438.993
436.793
434.67
432.691
430.778
428.994
427.267
425.66
424.1
422.649
421.236
419.924
418.644
417.456
416.3
415.225
414.181
413.209
439
436.782
434.667
432.673
430.767
428.968
427.247
425.621
424.063
422.589
421.177
419.838
418.556
417.339
416.174
415.068
414.008
413.001
439
436.777
434.663
432.66
430.756
428.947
427.228
425.592
424.036
422.552
421.14
419.793
418.509
417.285
416.117
415.003
413.938
412.923
439.001
436.774
434.659
432.652
430.745
428.934
427.209
425.573
424.009
422.526
421.106
419.76
418.469
417.245
416.07
414.955
413.885
412.868
438.999
436.77
434.651
432.641
430.728
428.912
427.183
425.54
423.974
422.484
421.062
419.708
418.416
417.185
416.008
414.888
413.815
412.794
438.988
436.741
434.601
432.575
430.644
428.814
427.068
425.413
423.831
422.33
420.894
419.532
418.226
416.989
415.799
414.673
413.588
412.563
438.962
436.663
434.479
432.408
430.44
428.572
426.795
425.107
423.499
421.97
420.513
419.124
417.802
416.54
415.338
414.189
413.095
412.048
438.963
436.661
434.48
432.406
430.442
428.57
426.797
425.104
423.5
421.966
420.513
419.12
417.801
416.535
415.335
414.184
413.091
412.042
438.99
436.74
434.604
432.575
430.646
428.814
427.069
425.411
423.83
422.327
420.892
419.527
418.223
416.981
415.794
414.662
413.582
412.549
439
436.769
434.651
432.637
430.725
428.905
427.177
425.528
423.962
422.467
421.046
419.687
418.395
417.158
415.982
414.855
413.784
412.756
439.002
436.772
434.657
432.646
430.737
428.921
427.194
425.55
423.986
422.494
421.075
419.72
418.429
417.197
416.022
414.9
413.829
412.806
439.003
436.773
434.662
432.651
430.746
428.929
427.206
425.563
424.002
422.513
421.096
419.745
418.457
417.229
416.058
414.941
413.875
412.859
439.012
436.767
434.676
432.652
430.763
428.936
427.231
425.581
424.045
422.555
421.172
419.83
418.587
417.38
416.265
415.18
414.18
413.205
439.023
436.75
434.727
432.65
430.822
428.976
427.371
425.765
424.4
423.034
421.925
420.785
419.909
418.981
418.298
417.551
417.022
416.417
438.941
436.817
435.054
432.88
431.441
429.96
429.263
428.496
428.51
428.713
429.375
430.055
431.504
432.475
434.244
435.436
437.342
438.612
438.381
438.588
439.413
438.708
439.85
443.941
449.91
455.83
465.566
473.983
485.302
494.466
506.116
515.143
526.465
534.89
545.561
553.185
440.113
468.527
477.304
490.325
528.159
568.489
620.079
668.021
723.473
771.19
824.673
868.02
916.928
954.434
998.072
1029.68
1068.29
1094.6
431.6
692.094
767.053
984.492
1289.06
1582.37
1876.45
2134.34
2383.46
2592.15
2792.16
2952.98
3109.71
3230.27
3352.82
3441.95
3539.49
3606.23
3556.5
3086.19
4251.02
5718.09
6848.64
7757.47
8435.54
8941.62
9309.64
9574.78
9750.61
9872.68
9939.75
9981.69
9989.31
9986.16
9970.23
9951.18
16112.1
19448.6
21754.6
23312.4
24151.1
24589.8
24631.7
24568.9
24403.4
24158.3
23891.4
23622
23360.9
23114.6
22885.1
22675.5
22482.4
22309.3
11463.3
2494.65
2496.87
2499.12
2501.38
2503.67
2505.98
2508.3
2510.65
2513.02
2515.42
2517.83
2520.27
2522.73
2525.21
2527.72
2530.25
2532.8
2535.37
2537.97
2540.6
2543.25
2545.92
2548.62
2551.34
2554.09
2556.87
2559.67
2562.5
2565.35
2568.23
2571.14
2574.08
2577.04
2580.04
2583.06
2586.11
2589.19
2592.3
2595.43
2598.6
2601.8
2605.03
2608.29
2611.59
2614.91
2618.27
2621.66
2625.08
2628.54
2632.03
2635.55
2639.11
2642.71
3104.63
2650
2653.7
2657.44
3129.86
2665.03
3262.94
3427.6
2676.69
3370.42
3405.1
3501.61
3583.59
3657.93
3735.26
3805.8
3877.05
3944.33
4011.33
4075.63
4139.28
4200.98
4261.82
4321.18
4379.58
4436.77
4492.95
4548.1
4602.21
4655.39
4707.5
4758.74
4808.88
4858.14
4906.31
4953.55
4999.73
5044.82
5088.78
5131.58
5173.14
5213.46
5252.47
5290.21
5326.7
5362.16
5396.9
5430.95
5463.85
5495.86
5526.88
5556.96
5586.07
5614.19
5641.33
5667.46
5692.59
5716.71
5739.82
5761.89
5782.95
5802.97
5821.97
5839.93
5856.88
5872.77
5887.67
5901.52
5914.4
5926.23
5937.12
5947
5956
5964.08
5971.74
5977.08
5983.56
5986.08
5990.56
5991.59
5993.87
5995.28
5995.76
5995.21
5993.04
5990.27
5986.57
5982.16
5977.04
5971.19
5964.68
5957.49
5949.69
5941.25
5932.23
5922.63
5912.5
5901.88
5890.76
5879.21
5867.26
5854.99
5842.44
5829.69
5816.79
5803.81
5790.78
5777.77
5764.78
5751.86
5739.02
5726.32
5713.77
5701.48
5689.45
5677.77
5666.42
5655.4
5644.59
5633.88
5622.81
5610.78
5596.77
5578.16
5550.4
5441.33
11463.3
1992.29
993.948
806.844
689.079
619.767
626.459
622.897
611.275
588.744
564.727
541.175
519.657
501.95
489.882
481.357
481.146
482.255
511.146
558.555
642.44
743.522
853.394
962.474
1060.31
1136.03
1179.24
1173.65
1132.41
1055.15
932.501
782.96
649.825
566.237
498.966
460.058
451.813
458.769
477.521
509.664
538.966
580.073
656.05
778.057
956.812
1251.55
1569.09
1800.86
1948.71
2027.15
2051.71
2048.27
2007.58
1971.43
1940.82
1839.61
1815.54
1766.57
1744.61
1671.72
1690.85
1664.38
1631.6
1661.28
1644.02
1645.27
1644.72
1646.31
1649.46
1653.47
1658.72
1664.42
1670.96
1677.74
1685.03
1692.44
1700.13
1707.88
1715.73
1723.61
1731.49
1739.33
1747.12
1754.84
1762.44
1769.93
1777.28
1784.47
1791.48
1798.32
1804.92
1811.32
1817.5
1823.47
1829.27
1834.94
1840.57
1846.29
1852.33
1859
1866.72
1875.13
1882.96
1890.74
1898.24
1905.55
1912.63
1919.49
1926.13
1932.55
1938.75
1944.72
1950.47
1956
1961.3
1966.39
1971.25
1975.89
1980.32
1984.53
1988.53
1992.32
1995.9
1999.28
2002.46
2005.45
2008.26
2010.89
2013.33
2015.51
2017.62
2019.36
2021.14
2022.59
2024.1
2025.32
2026.11
2026.19
2025.72
2025.04
2024.19
2023.16
2021.96
2020.59
2019.05
2017.34
2015.48
2013.47
2011.31
2009.01
2006.61
2004.01
2001.36
1998.54
1995.68
1992.7
1989.66
1986.57
1983.42
1980.23
1977.01
1973.77
1970.52
1967.27
1964.01
1960.78
1957.58
1954.41
1951.3
1948.26
1945.29
1942.42
1939.65
1936.99
1934.53
1932.32
1930.41
1929.27
1927.92
1937.22
11463.3
2006.63
811.89
636.958
676.046
676.984
649.75
594.576
535.113
479.302
429.881
388.305
355.614
329.976
310.226
295.025
284.433
276.282
274.258
276.541
287.031
305.33
337.378
380.919
435.799
495.79
557.521
604.532
636.784
635.286
614.311
574.26
512.748
443.088
391.025
378.401
387.026
409.013
441.444
506.416
610.252
752.693
943.272
1124.39
1273.63
1403.04
1513.09
1543.58
1546.59
1506.31
1453.26
1393.83
1335.74
1286.05
1242.57
1200.01
1172.21
1145.45
1127.09
1109
1103.79
1097.1
1090.07
1090.77
1088.39
1088.39
1089.37
1091.09
1093.43
1096.24
1099.45
1102.94
1106.69
1110.59
1114.66
1118.82
1123.06
1127.35
1131.67
1136.01
1140.34
1144.67
1148.97
1153.24
1157.47
1161.65
1165.77
1169.83
1173.82
1177.76
1181.63
1185.44
1189.21
1192.94
1196.66
1200.4
1204.2
1208.09
1212.11
1216.28
1220.57
1224.78
1228.83
1232.79
1236.62
1240.34
1243.93
1247.4
1250.74
1253.96
1257.06
1260.03
1262.87
1265.59
1268.19
1270.65
1272.99
1275.21
1277.3
1279.27
1281.11
1282.83
1284.42
1285.9
1287.26
1288.5
1289.62
1290.63
1291.52
1292.28
1292.95
1293.46
1293.92
1294.22
1294.44
1294.5
1294.35
1293.95
1293.4
1292.74
1291.98
1291.12
1290.16
1289.09
1287.93
1286.67
1285.31
1283.86
1282.33
1280.71
1279.02
1277.23
1275.4
1273.48
1271.51
1269.48
1267.41
1265.29
1263.12
1260.92
1258.69
1256.44
1254.16
1251.86
1249.56
1247.25
1244.94
1242.64
1240.35
1238.09
1235.87
1233.69
1231.6
1229.63
1227.84
1226.34
1225.28
1225.24
1226.56
1236.62
11463.3
2037.68
1007.93
970.313
896.726
769.082
652.929
546.694
462.749
400.196
353.224
316.576
288.027
266.088
249.294
236.477
226.848
219.857
215.197
213.459
214.443
217.42
225.607
239.575
260.875
289.105
323.661
358.64
390.638
414.048
421.351
415.33
394.084
388.522
420.376
505.154
572.416
627.649
694.483
788.331
918.298
1042.43
1122.75
1190.57
1249.96
1273.29
1253.54
1202.29
1163.01
1108.23
1062.91
1020.31
985.358
956.312
932.745
913.265
899.196
887.727
879.759
873.66
870.696
868.841
867.616
867.842
868.48
869.861
871.715
873.945
876.483
879.262
882.241
885.371
888.631
891.985
895.42
898.912
902.451
906.02
909.611
913.212
916.817
920.418
924.007
927.579
931.13
934.655
938.15
941.614
945.046
948.451
951.825
955.174
958.502
961.816
965.124
968.435
971.754
975.085
978.423
981.753
985.034
988.23
991.328
994.34
997.256
1000.08
1002.8
1005.43
1007.96
1010.39
1012.71
1014.94
1017.06
1019.08
1020.99
1022.8
1024.51
1026.11
1027.6
1028.99
1030.27
1031.45
1032.52
1033.49
1034.35
1035.11
1035.77
1036.32
1036.77
1037.11
1037.35
1037.49
1037.53
1037.46
1037.29
1036.99
1036.55
1035.97
1035.29
1034.52
1033.65
1032.7
1031.66
1030.54
1029.33
1028.03
1026.66
1025.2
1023.67
1022.07
1020.4
1018.65
1016.86
1015
1013.09
1011.12
1009.11
1007.06
1004.96
1002.83
1000.67
998.473
996.257
994.022
991.771
989.51
987.241
984.971
982.706
980.454
978.224
976.034
973.911
971.891
970.034
968.434
967.232
966.918
967.918
974.024
11463.3
2308.7
1458.93
1178.04
935.862
723.98
558.279
447.36
371.837
319.266
281.865
255.11
235.707
221.055
209.658
200.765
193.963
188.955
185.553
183.798
183.932
185.141
188.761
195.371
205.91
221.361
242.127
265.729
289.895
309.661
324.336
350.81
402.1
500.274
592.191
660.852
728.541
803.113
876.108
940.603
996.373
1044.4
1080.75
1091.52
1069.84
1020.29
987.758
943.416
908.282
872.577
844.973
820.677
801.49
785.949
773.865
764.545
757.918
753.119
750.112
748.656
748.26
748.504
749.472
751.095
753.089
755.455
758.091
760.945
763.977
767.15
770.44
773.824
777.286
780.81
784.384
787.997
791.639
795.303
798.981
802.665
806.35
810.031
813.702
817.359
820.998
824.616
828.211
831.78
835.323
838.839
842.33
845.794
849.231
852.643
856.03
859.393
862.726
866.025
869.276
872.47
875.591
878.63
881.582
884.449
887.225
889.911
892.504
895.002
897.403
899.708
901.913
904.018
906.021
907.92
909.716
911.407
912.992
914.47
915.841
917.105
918.26
919.308
920.247
921.078
921.801
922.415
922.921
923.318
923.607
923.786
923.857
923.831
923.693
923.443
923.084
922.61
922.015
921.303
920.49
919.583
918.585
917.496
916.316
915.049
913.698
912.261
910.742
909.142
907.465
905.714
903.893
902.005
900.057
898.047
895.981
893.861
891.692
889.477
887.219
884.923
882.592
880.231
877.844
875.437
873.012
870.573
868.124
865.669
863.216
860.773
858.354
855.975
853.655
851.426
849.337
847.467
845.934
845.088
845.347
848.405
11463.3
2914.22
1722.24
1201.87
829.515
585.131
442.593
354.283
299.04
263.047
238.21
220.15
206.442
195.787
187.292
180.493
175.185
171.267
168.659
167.455
167.694
168.958
171.995
177.047
184.526
195.749
211.672
232.342
258.861
297.404
351.338
435.744
544.938
638.287
706.811
769.204
822.728
863.91
898.625
931.501
953.135
958.127
934.021
902.084
871.984
836.884
808.34
778.89
755.618
734.694
718.248
704.507
693.821
685.556
679.497
675.25
672.786
671.613
671.328
671.92
673.307
675.234
677.613
680.37
683.396
686.649
690.077
693.647
697.332
701.112
704.969
708.892
712.868
716.888
720.943
725.026
729.13
733.246
737.37
741.494
745.614
749.725
753.823
757.903
761.962
765.996
770.002
773.977
777.921
781.832
785.708
789.546
793.345
797.102
800.816
804.483
808.097
811.652
815.136
818.545
821.873
825.113
828.264
831.323
834.287
837.154
839.922
842.587
845.148
847.604
849.955
852.196
854.326
856.343
858.246
860.035
861.706
863.261
864.697
866.014
867.211
868.288
869.244
870.081
870.796
871.391
871.864
872.216
872.446
872.546
872.547
872.425
872.18
871.814
871.328
870.722
869.995
869.151
868.198
867.141
865.983
864.724
863.367
861.913
860.37
858.734
857.008
855.195
853.297
851.32
849.268
847.143
844.951
842.693
840.373
837.995
835.563
833.081
830.553
827.984
825.378
822.739
820.073
817.385
814.677
811.953
809.218
806.475
803.733
800.999
798.285
795.607
792.981
790.437
788.015
785.777
783.814
782.373
781.75
782.757
11463.3
3419.84
1768.15
1032.25
648.808
456.142
357.231
301.604
266.19
241.322
222.603
207.949
196.184
186.482
178.439
171.873
166.706
162.922
160.614
159.89
160.603
162.91
167.354
174.277
184.619
198.534
218.997
250.757
300.467
378.943
484.253
579.128
649.738
710.191
758.306
794.183
822.343
845.778
856.291
856.67
836.156
812.928
787.848
762.13
737.624
713.674
693.38
675.022
660.214
647.69
637.805
629.984
624.171
620.068
617.652
616.568
616.379
617.149
618.712
620.928
623.681
626.849
630.348
634.114
638.086
642.223
646.492
650.868
655.33
659.865
664.459
669.105
673.792
678.513
683.262
688.03
692.811
697.598
702.385
707.165
711.933
716.683
721.412
726.116
730.789
735.429
740.032
744.594
749.112
753.584
758.009
762.381
766.698
770.956
775.152
779.283
783.345
787.333
791.245
795.072
798.806
802.443
805.979
809.412
812.737
815.953
819.055
822.042
824.91
827.655
830.271
832.762
835.125
837.36
839.465
841.439
843.28
844.988
846.561
847.998
849.299
850.464
851.491
852.383
853.137
853.754
854.235
854.579
854.776
854.841
854.791
854.597
854.268
853.804
853.209
852.482
851.626
850.644
849.542
848.324
846.993
845.55
843.998
842.335
840.556
838.674
836.691
834.612
832.439
830.178
827.832
825.408
822.908
820.335
817.694
814.988
812.224
809.405
806.537
803.624
800.67
797.682
794.665
791.623
788.56
785.481
782.388
779.289
776.19
773.098
770.026
766.987
763.998
761.081
758.271
755.618
753.187
751.155
749.659
749.134
11463.3
3565.36
1559.17
814.649
515.4
381.022
311.776
271.637
245.85
227.782
213.853
202.168
191.94
183.089
175.565
169.427
164.84
161.989
160.838
161.259
163.406
167.849
175.126
186.75
205.337
233.794
277.045
344.741
431.713
515.782
582.381
638.772
686.075
723.646
753.37
773.784
781.7
776.927
760.842
743.405
723.003
703.212
683.634
664.688
646.983
630.917
617.278
605.627
596.195
588.592
582.791
578.572
575.904
574.659
574.377
575.061
576.632
578.954
581.903
585.376
589.28
593.53
598.058
602.81
607.741
612.815
618.005
623.29
628.653
634.079
639.559
645.081
650.639
656.224
661.831
667.451
673.076
678.698
684.31
689.905
695.477
701.02
706.529
712
717.428
722.811
728.144
733.42
738.636
743.791
748.881
753.9
758.846
763.713
768.5
773.203
777.817
782.343
786.776
791.104
795.32
799.421
803.403
807.262
810.995
814.6
818.073
821.412
824.613
827.675
830.594
833.37
835.999
838.482
840.815
842.997
845.028
846.906
848.63
850.199
851.612
852.869
853.969
854.913
855.702
856.334
856.811
857.13
857.28
857.297
857.166
856.877
856.435
855.844
855.105
854.221
853.193
852.027
850.727
849.296
847.738
846.056
844.252
842.328
840.29
838.138
835.877
833.51
831.04
828.473
825.813
823.066
820.236
817.327
814.342
811.288
808.17
804.994
801.764
798.486
795.165
791.806
788.416
785
781.562
778.105
774.636
771.16
767.684
764.218
760.77
757.355
753.988
750.688
747.483
744.412
741.525
738.919
736.655
734.862
11463.3
3398.33
1280.71
659.849
440.307
344.512
293.86
263.149
242.003
225.99
213.238
202.648
193.624
185.879
179.426
174.485
171.365
170.242
171.339
174.743
181.156
191.915
208.357
234.041
274.922
331.762
399.168
464.077
522.173
572.789
615.98
652.04
682.671
705.385
714.265
712.637
700.177
686.486
670.231
654.572
639.016
624.233
609.907
596.341
583.973
573.144
564.044
556.554
550.658
546.215
543.14
541.525
540.998
541.372
542.734
544.936
547.881
551.469
555.606
560.208
565.2
570.513
576.09
581.881
587.847
593.957
600.184
606.51
612.913
619.379
625.894
632.446
639.026
645.624
652.236
658.854
665.465
672.061
678.634
685.175
691.677
698.136
704.545
710.897
717.186
723.398
729.539
735.609
741.607
747.526
753.366
759.119
764.78
770.346
775.813
781.175
786.428
791.566
796.582
801.47
806.227
810.848
815.329
819.666
823.856
827.897
831.784
835.516
839.088
842.499
845.745
848.825
851.737
854.478
857.048
859.446
861.67
863.719
865.591
867.285
868.801
870.139
871.298
872.28
873.084
873.711
874.162
874.425
874.515
874.448
874.204
873.787
873.2
872.445
871.525
870.442
869.202
867.806
866.262
864.571
862.739
860.768
858.662
856.425
854.06
851.571
848.961
846.235
843.396
840.449
837.4
834.256
831.02
827.698
824.294
820.814
817.267
813.656
809.989
806.271
802.506
798.701
794.863
790.997
787.108
783.2
779.28
775.354
771.431
767.518
763.626
759.766
755.954
752.206
748.544
745
741.611
738.469
735.565
732.78
11463.3
2976.38
1033.27
558.253
396.653
324.682
285.972
260.687
243.332
230.582
220.345
211.684
204.307
198.3
193.961
192.013
192.465
196.279
203.438
214.441
231.137
255.619
289.522
332.325
379.519
428.05
474.497
516.625
554.25
586.559
614.772
639.542
651.822
653.959
647.541
637.804
625.107
612.659
600.351
588.793
577.623
566.876
556.542
546.93
538.364
531.055
525.073
520.385
516.954
514.834
513.948
513.894
514.888
516.787
519.532
523.036
527.216
531.992
537.289
543.036
549.171
555.633
562.365
569.321
576.462
583.754
591.173
598.71
606.327
614.004
621.725
629.474
637.233
644.981
652.686
660.347
667.989
675.612
683.204
690.756
698.259
705.707
713.094
720.416
727.668
734.85
741.951
748.954
755.853
762.646
769.329
775.896
782.342
788.663
794.855
800.912
806.831
812.606
818.232
823.708
829.027
834.186
839.179
844.004
848.656
853.133
857.431
861.549
865.483
869.229
872.786
876.151
879.322
882.298
885.078
887.661
890.045
892.23
894.213
895.995
897.574
898.951
900.126
901.099
901.872
902.447
902.818
902.981
902.963
902.75
902.344
901.745
900.957
899.982
898.824
897.487
895.974
894.29
892.441
890.431
888.264
885.945
883.477
880.866
878.114
875.227
872.209
869.065
865.797
862.412
858.916
855.315
851.616
847.822
843.942
839.982
835.949
831.851
827.693
823.48
819.219
814.916
810.577
806.209
801.817
797.406
792.985
788.561
784.141
779.735
775.352
771.003
766.701
762.462
758.303
754.251
750.333
746.617
743.075
739.37
11463.3
2500.2
887.926
517.303
382.996
320.847
286.501
266.213
252.716
242.787
234.979
228.791
224.29
222.229
222.437
226.283
233.929
244.666
258.676
278.106
303.389
333.758
367.67
403.028
437.981
471.45
502.534
530.152
555.083
578.3
593.438
598.512
597.666
592.642
584.364
575.112
565.611
556.672
548.128
539.944
531.948
524.187
516.812
510.096
504.276
499.495
495.809
493.212
491.87
491.488
492.043
493.554
495.989
499.282
503.373
508.188
513.655
519.708
526.279
533.309
540.753
548.558
556.649
564.98
573.509
582.19
590.972
599.769
608.629
617.558
626.54
635.554
644.58
653.595
662.596
671.571
680.5
689.385
698.203
706.945
715.605
724.178
732.66
741.046
749.329
757.5
765.546
773.462
781.245
788.889
796.397
803.759
810.971
818.029
824.929
831.664
838.231
844.625
850.845
856.884
862.739
868.403
873.874
879.145
884.215
889.082
893.741
898.192
902.43
906.454
910.26
913.846
917.211
920.354
923.274
925.971
928.444
930.692
932.713
934.507
936.073
937.413
938.526
939.414
940.078
940.521
940.731
940.73
940.512
940.079
939.432
938.574
937.507
936.236
934.764
933.094
931.233
929.185
926.956
924.552
921.978
919.237
916.336
913.28
910.072
906.719
903.225
899.595
895.834
891.946
887.94
883.821
879.595
875.271
870.856
866.358
861.785
857.144
852.442
847.683
842.873
838.02
833.13
828.209
823.264
818.302
813.332
808.363
803.402
798.458
793.541
788.659
783.827
779.056
774.362
769.769
765.294
760.995
756.834
752.293
11463.3
2075.93
778.103
481.758
373.562
321.367
293.927
277.795
267.429
260.342
255.445
252.83
252.222
254.328
259.834
268.813
280.769
295.404
313.491
334.851
358.726
384.131
410.075
435.652
460.15
482.693
503.816
523.966
539.726
547.303
549.315
548.934
545.185
539.673
533.284
526.84
520.575
514.581
508.727
502.96
497.273
491.79
486.704
482.243
478.586
475.843
474.188
473.565
473.808
475.055
477.235
480.327
484.299
489.121
494.774
501.139
508.151
515.747
523.86
532.41
541.279
550.413
559.862
569.599
579.586
589.779
600.145
610.678
621.314
631.999
642.7
653.396
664.053
674.627
685.099
695.454
705.676
715.752
725.701
735.535
745.254
754.859
764.352
773.727
782.974
792.082
801.036
809.827
818.448
826.9
835.179
843.282
851.202
858.934
866.473
873.814
880.952
887.886
894.611
901.125
907.421
913.494
919.341
924.956
930.337
935.482
940.391
945.06
949.487
953.67
957.607
961.296
964.735
967.925
970.864
973.555
975.996
978.187
980.126
981.813
983.25
984.435
985.369
986.057
986.497
986.694
986.645
986.357
985.831
985.07
984.078
982.856
981.409
979.74
977.853
975.754
973.448
970.942
968.242
965.353
962.282
959.034
955.615
952.03
948.285
944.386
940.339
936.149
931.822
927.362
922.777
918.072
913.256
908.339
903.329
898.236
893.067
887.829
882.528
877.171
871.762
866.309
860.817
855.294
849.748
844.189
838.626
833.069
827.524
822.001
816.508
811.055
805.652
800.311
795.048
789.881
784.826
779.929
775.161
769.842
11463.3
1940.74
765.204
480.225
376.216
329.789
306.161
292.983
285.191
280.824
279.037
278.978
281.578
286.969
295.109
305.754
318.599
333.661
350.603
368.86
387.854
406.939
425.559
443.304
460.495
477.398
491.607
500.723
505.106
506.639
506.75
505.034
501.979
498.304
494.389
490.46
486.554
482.663
478.762
474.888
471.133
467.659
464.645
462.273
460.791
460.232
460.547
461.977
464.347
467.635
471.814
476.853
482.7
489.257
496.365
504.189
512.719
521.903
531.68
541.992
552.807
564.078
575.72
587.678
599.907
612.353
624.959
637.687
650.479
663.225
675.855
688.303
700.53
712.527
724.282
735.789
747.054
758.098
768.956
779.664
790.232
800.67
810.987
821.179
831.229
841.114
850.814
860.317
869.615
878.708
887.596
896.274
904.733
912.969
920.975
928.746
936.277
943.568
950.615
957.415
963.964
970.256
976.286
982.051
987.548
992.778
997.739
1002.43
1006.85
1011
1014.88
1018.48
1021.8
1024.85
1027.62
1030.12
1032.35
1034.31
1035.99
1037.4
1038.54
1039.4
1039.99
1040.32
1040.38
1040.18
1039.72
1038.99
1038.02
1036.79
1035.31
1033.59
1031.64
1029.44
1027.02
1024.37
1021.5
1018.42
1015.13
1011.65
1007.98
1004.12
1000.09
995.878
991.503
986.969
982.281
977.448
972.473
967.364
962.128
956.765
951.291
945.717
940.052
934.306
928.484
922.595
916.643
910.635
904.577
898.475
892.333
886.161
879.97
873.771
867.574
861.389
855.222
849.082
842.976
836.913
830.903
824.959
819.094
813.327
807.669
802.159
796.789
790.734
11463.3
1880.94
741.784
477.856
383.484
341.416
320.67
309.635
303.736
301.12
300.556
302.346
306.692
313.263
321.786
331.962
343.528
356.234
369.727
383.613
397.487
411.175
424.837
438.354
450.108
458.475
464.338
468.251
470.367
471.215
471.36
470.632
469.302
467.661
465.843
463.922
461.93
459.912
457.939
456.148
454.753
453.94
453.674
454.076
455.315
457.368
460.155
463.496
467.672
472.805
478.906
485.954
493.917
502.774
512.549
523.154
534.554
546.674
559.436
572.77
586.616
600.9
615.524
630.413
645.521
660.787
676.061
691.222
706.155
720.811
735.124
749.035
762.504
775.515
788.066
800.163
811.85
823.198
834.306
845.287
856.135
866.872
877.533
888.108
898.558
908.83
918.888
928.726
938.334
947.713
956.857
965.761
974.416
982.814
990.948
998.812
1006.4
1013.72
1020.75
1027.51
1033.99
1040.17
1046.07
1051.66
1056.96
1061.96
1066.67
1071.08
1075.2
1079.02
1082.54
1085.77
1088.7
1091.33
1093.67
1095.72
1097.48
1098.95
1100.13
1101.02
1101.64
1101.96
1101.98
1101.75
1101.22
1100.42
1099.34
1098
1096.39
1094.52
1092.39
1090.01
1087.37
1084.5
1081.38
1078.04
1074.47
1070.68
1066.68
1062.48
1058.08
1053.5
1048.73
1043.79
1038.68
1033.41
1027.99
1022.42
1016.71
1010.86
1004.9
998.805
992.604
986.311
979.932
973.474
966.945
960.348
953.692
946.983
940.226
933.429
926.591
919.727
912.851
905.975
899.109
892.26
885.437
878.646
871.894
865.189
858.54
851.962
845.47
839.08
832.8
826.66
820.69
813.931
11463.3
1847.38
739.387
484.099
394.321
354.707
335.267
325.036
319.791
317.653
317.366
319.629
324.106
330.294
337.784
346.257
355.504
365.309
375.437
385.688
396.224
406.52
415.406
422.726
428.732
433.86
437.933
441.098
443.562
445.519
447.135
448.48
449.632
450.563
451.333
452.002
452.632
453.292
454.044
454.924
455.848
457.099
459.059
461.979
465.995
470.998
476.983
484.064
492.201
501.408
511.696
523.027
535.347
548.621
562.823
577.882
593.847
610.5
627.689
645.297
663.22
681.349
699.57
717.769
735.811
753.567
770.99
787.983
804.44
820.263
835.356
849.669
863.185
875.945
887.987
899.295
909.982
920.188
930.139
940.234
950.263
960.265
970.372
980.527
990.632
1000.61
1010.41
1020
1029.36
1038.46
1047.31
1055.91
1064.23
1072.28
1080.04
1087.5
1094.66
1101.51
1108.06
1114.31
1120.24
1125.87
1131.17
1136.15
1140.81
1145.15
1149.17
1152.88
1156.28
1159.36
1162.13
1164.6
1166.75
1168.59
1170.12
1171.35
1172.3
1172.95
1173.3
1173.34
1173.12
1172.6
1171.77
1170.66
1169.27
1167.6
1165.65
1163.43
1160.95
1158.19
1155.18
1151.91
1148.39
1144.63
1140.62
1136.38
1131.92
1127.24
1122.34
1117.25
1111.97
1106.49
1100.84
1095.02
1089.03
1082.89
1076.59
1070.16
1063.59
1056.9
1050.09
1043.19
1036.2
1029.13
1021.98
1014.76
1007.46
1000.11
992.694
985.233
977.73
970.194
962.62
955.028
947.436
939.854
932.289
924.748
917.237
909.766
902.341
894.966
887.652
880.418
873.279
866.248
859.332
852.551
845.98
838.549
11463.3
1821.7
737.647
491.748
404.004
365.466
346.782
336.583
331.142
328.85
328.426
330.288
334.061
339.188
345.25
352.002
359.321
367.104
375.16
382.967
390.429
397.421
404.26
410.619
416.595
422.253
427.582
432.605
437.337
441.727
445.733
449.198
452.194
455.08
457.959
460.919
464.045
467.436
471.191
475.436
480.391
486.236
493.154
501.423
511.051
521.76
533.583
546.575
560.697
575.945
592.429
609.99
628.438
647.631
667.441
687.718
708.235
728.955
749.789
770.624
791.351
811.862
832.058
851.848
871.142
889.863
907.951
925.342
941.962
957.724
972.477
986.189
998.934
1010.85
1022.03
1032.55
1042.44
1051.71
1060.45
1068.85
1076.99
1085.12
1093.8
1102.74
1111.68
1120.54
1129.26
1137.76
1146.01
1154.01
1161.74
1169.21
1176.4
1183.32
1189.93
1196.23
1202.21
1207.87
1213.23
1218.27
1223
1227.4
1231.47
1235.21
1238.61
1241.69
1244.45
1246.89
1249.02
1250.84
1252.36
1253.56
1254.46
1255.05
1255.34
1255.32
1255.07
1254.51
1253.65
1252.5
1251.09
1249.38
1247.4
1245.13
1242.59
1239.79
1236.72
1233.38
1229.79
1225.95
1221.86
1217.51
1212.93
1208.1
1203.05
1197.77
1192.28
1186.58
1180.68
1174.58
1168.31
1161.85
1155.23
1148.44
1141.5
1134.41
1127.18
1119.82
1112.33
1104.73
1097.01
1089.23
1081.38
1073.45
1065.44
1057.37
1049.23
1041.03
1032.79
1024.5
1016.18
1007.83
999.488
991.151
982.826
974.516
966.23
957.972
949.751
941.575
933.453
925.388
917.394
909.493
901.696
894.017
886.459
879.032
871.862
863.793
11463.3
1805.47
738.747
496.925
410.456
372.825
354.38
344.038
338.449
336.02
335.492
337.073
340.48
345.217
350.872
357.225
364.093
371.313
378.788
386.63
394.497
402.195
409.891
417.501
425.09
432.68
440.291
447.945
455.614
463.173
470.706
478.305
486.102
494.134
502.496
511.291
520.628
530.627
541.41
553.103
565.844
579.69
594.632
610.561
627.341
645.127
663.957
683.871
704.807
726.572
748.905
771.887
795.369
819.072
842.807
866.391
889.663
912.506
934.813
956.48
977.435
997.623
1017.01
1035.58
1053.29
1070.16
1086.17
1101.33
1115.64
1129.13
1141.81
1153.72
1164.66
1174.92
1184.62
1193.9
1202.68
1210.83
1218.3
1224.94
1231.25
1237.68
1244.46
1251.26
1257.95
1264.46
1270.77
1276.85
1282.7
1288.31
1293.69
1298.84
1303.75
1308.4
1312.78
1316.87
1320.67
1324.19
1327.42
1330.39
1333.07
1335.46
1337.53
1339.31
1340.78
1341.97
1342.87
1343.5
1343.85
1343.9
1343.73
1343.27
1342.52
1341.5
1340.23
1338.7
1336.93
1334.91
1332.63
1330.1
1327.32
1324.29
1321.01
1317.47
1313.7
1309.69
1305.44
1300.96
1296.24
1291.3
1286.13
1280.74
1275.12
1269.29
1263.26
1257.01
1250.58
1243.95
1237.14
1230.16
1223.01
1215.7
1208.23
1200.62
1192.86
1184.96
1176.93
1168.78
1160.51
1152.12
1143.63
1135.05
1126.38
1117.63
1108.81
1099.92
1090.97
1081.97
1072.91
1063.83
1054.71
1045.57
1036.45
1027.34
1018.25
1009.18
1000.13
991.122
982.152
973.236
964.384
955.616
946.947
938.385
929.936
921.612
913.417
905.353
897.588
888.928
11463.3
1789.75
738.873
499.045
413.72
378.186
360.395
350.76
346.514
345.039
345.447
348.313
352.845
358.674
365.678
374.084
383.247
392.774
403.168
414.679
426.947
439.412
452.494
466.197
480.53
495.428
510.894
526.868
543.337
560.339
577.919
596.106
614.91
634.262
654.203
674.795
696.139
718.394
741.697
765.98
791.112
816.97
843.38
870.152
897.153
924.397
951.901
979.915
1008.45
1036.71
1064.2
1090.56
1115.69
1139.64
1162.36
1183.8
1203.9
1222.64
1240.01
1256.07
1270.85
1284.41
1296.83
1308.18
1318.51
1327.88
1336.35
1344
1350.9
1357.14
1362.98
1368.57
1373.98
1379.13
1383.96
1388.44
1392.57
1396.11
1399.33
1402.47
1406.03
1409.82
1413.15
1416.08
1418.7
1421.12
1423.37
1425.5
1427.5
1429.38
1431.12
1432.72
1434.17
1435.43
1436.52
1437.41
1438.11
1438.62
1438.95
1439.07
1439.03
1438.74
1438.19
1437.43
1436.46
1435.29
1433.91
1432.33
1430.55
1428.55
1426.37
1423.98
1421.37
1418.57
1415.57
1412.38
1409
1405.43
1401.66
1397.7
1393.53
1389.16