/*--------------------------------*- C++ -*----------------------------------*\
  =========                 |
  \\      /  F ield         | OpenFOAM: The Open Source CFD Toolbox
   \\    /   O peration     | Website:  https://openfoam.org
    \\  /    A nd           | Version:  8
     \\/     M anipulation  |
\*---------------------------------------------------------------------------*/
FoamFile
{
    version     2.0;
    format      ascii;
    class       volScalarField;
    location    "1300";
    object      p;
}
// * * * * * * * * * * * * * * * * * * * * * * * * * * * * * * * * * * * * * //

dimensions      [0 2 -2 0 0 0 0];

internalField   nonuniform List<scalar> 
12225
(
-4.31412
-5.18448
-5.57777
-5.71131
-5.85271
-6.01382
-6.15149
-6.26045
-6.34693
-6.41764
-6.48186
-6.53926
-6.58918
-6.64137
-6.70444
-6.77366
-6.85906
-6.9597
-4.5778
-5.20821
-5.537
-5.66981
-5.81061
-5.97076
-6.11304
-6.22479
-6.31593
-6.39233
-6.45781
-6.51519
-6.56815
-6.61892
-6.67611
-6.75171
-6.83292
-6.90096
-4.76909
-5.20029
-5.51852
-5.67959
-5.82361
-5.97777
-6.11562
-6.22526
-6.31516
-6.39115
-6.45539
-6.51189
-6.56506
-6.61773
-6.67584
-6.74402
-6.81113
-6.86351
-4.91534
-5.22689
-5.53019
-5.69904
-5.83324
-5.97438
-6.10457
-6.21102
-6.29921
-6.37449
-6.43925
-6.49722
-6.55208
-6.60631
-6.66342
-6.72499
-6.78409
-6.83177
-5.04422
-5.27624
-5.54664
-5.71348
-5.84098
-5.9731
-6.09784
-6.20228
-6.2895
-6.36456
-6.4302
-6.48934
-6.54491
-6.59907
-6.65404
-6.71025
-6.76356
-6.80796
-5.16148
-5.33244
-5.5632
-5.72562
-5.84975
-5.97406
-6.09254
-6.19391
-6.27952
-6.35392
-6.4198
-6.47942
-6.53509
-6.58872
-6.64174
-6.69412
-6.74326
-6.7853
-5.26795
-5.39238
-5.58486
-5.73929
-5.85942
-5.97555
-6.08705
-6.18486
-6.2688
-6.3425
-6.40842
-6.46833
-6.52406
-6.57713
-6.62852
-6.67798
-6.7239
-6.76386
-5.34993
-5.44543
-5.60848
-5.75275
-5.86829
-5.97765
-6.0831
-6.17754
-6.25981
-6.33265
-6.39824
-6.45807
-6.51355
-6.56594
-6.61591
-6.66323
-6.70686
-6.74525
-5.41689
-5.493
-5.63218
-5.76587
-5.87679
-5.98041
-6.08048
-6.17164
-6.25215
-6.32398
-6.38902
-6.44853
-6.50362
-6.55527
-6.60401
-6.64967
-6.69159
-6.72872
-5.48378
-5.5439
-5.66029
-5.78159
-5.8868
-5.98445
-6.07875
-6.16607
-6.24438
-6.31482
-6.37895
-6.43781
-6.49224
-6.54298
-6.59045
-6.63455
-6.67492
-6.71098
-5.54958
-5.59679
-5.69253
-5.80024
-5.89846
-5.98987
-6.07812
-6.16107
-6.23666
-6.30529
-6.36812
-6.42597
-6.47944
-6.52913
-6.57529
-6.61797
-6.65699
-6.69208
-5.61318
-5.65015
-5.72798
-5.82168
-5.91174
-5.9966
-6.07867
-6.15681
-6.22915
-6.29554
-6.35665
-6.41311
-6.46539
-6.51385
-6.55873
-6.60009
-6.63793
-6.67213
-5.67315
-5.70224
-5.76515
-5.84529
-5.92638
-6.00441
-6.08028
-6.1533
-6.22197
-6.28567
-6.34472
-6.39948
-6.45033
-6.49744
-6.54105
-6.58117
-6.61796
-6.65137
-5.72797
-5.75104
-5.80195
-5.8698
-5.94174
-6.0128
-6.08256
-6.15042
-6.21508
-6.27582
-6.3325
-6.38538
-6.43457
-6.4803
-6.52257
-6.56159
-6.59738
-6.63009
-5.77552
-5.79413
-5.83577
-5.89319
-5.95653
-6.02083
-6.08481
-6.14769
-6.20835
-6.26595
-6.32019
-6.37103
-6.41855
-6.46278
-6.50382
-6.54173
-6.57667
-6.60871
-5.813
-5.82843
-5.86331
-5.91261
-5.96867
-6.02699
-6.08587
-6.14433
-6.20132
-6.25597
-6.30783
-6.35671
-6.40259
-6.44543
-6.48529
-6.52224
-6.55643
-6.58792
-5.83643
-5.8498
-5.88034
-5.9242
-5.97508
-6.02894
-6.08397
-6.13906
-6.19317
-6.24545
-6.29536
-6.34261
-6.38712
-6.42881
-6.46773
-6.50392
-6.53753
-6.56865
-5.8396
-5.85226
-5.88129
-5.92313
-5.97194
-6.02385
-6.07717
-6.13069
-6.18348
-6.23456
-6.2835
-6.32986
-6.37366
-6.4147
-6.45315
-6.48892
-6.52227
-6.5532
-5.82245
-5.83574
-5.86606
-5.90938
-5.9593
-6.01201
-6.06587
-6.11992
-6.17304
-6.22442
-6.27342
-6.31992
-6.36368
-6.40478
-6.44314
-6.47898
-6.51228
-6.54332
-5.79036
-5.80544
-5.8395
-5.88712
-5.94064
-5.99606
-6.05223
-6.10826
-6.16307
-6.21568
-6.26569
-6.31288
-6.35724
-6.39871
-6.43743
-6.47345
-6.50698
-6.53815
-5.74665
-5.76478
-5.80517
-5.85966
-5.91851
-5.97794
-6.03761
-6.09678
-6.15409
-6.20863
-6.2601
-6.30844
-6.35366
-6.39579
-6.43498
-6.47136
-6.50514
-6.53654
-5.69317
-5.71614
-5.76598
-5.82969
-5.89485
-5.95901
-6.02308
-6.08618
-6.14656
-6.20339
-6.2566
-6.30632
-6.35255
-6.39544
-6.4351
-6.47189
-6.50591
-6.53753
-5.63096
-5.66137
-5.72459
-5.79936
-5.87104
-5.94029
-6.0095
-6.07702
-6.14068
-6.19995
-6.25509
-6.30628
-6.35359
-6.39719
-6.43737
-6.47442
-6.50866
-6.54035
-5.56019
-5.60231
-5.68374
-5.77031
-5.84775
-5.92245
-5.99752
-6.06971
-6.13659
-6.19825
-6.25531
-6.30796
-6.35628
-6.40055
-6.44114
-6.47845
-6.51282
-6.54467
-5.48053
-5.54087
-5.64643
-5.74382
-5.82522
-5.90563
-5.98722
-6.06421
-6.13427
-6.19833
-6.25729
-6.3113
-6.36047
-6.40517
-6.44591
-6.48318
-6.51739
-6.54903
-5.39116
-5.47881
-5.61459
-5.72089
-5.80457
-5.89054
-5.97824
-6.05943
-6.13234
-6.19879
-6.25975
-6.31527
-6.36549
-6.41086
-6.45194
-6.48932
-6.52355
-6.55532
-5.29151
-5.42001
-5.58604
-5.69759
-5.78492
-5.87818
-5.97174
-6.05613
-6.13109
-6.19917
-6.26134
-6.3176
-6.36817
-6.41362
-6.45453
-6.4916
-6.52556
-6.55731
-5.17561
-5.37802
-5.56176
-5.66593
-5.75793
-5.86251
-5.96467
-6.0544
-6.13351
-6.20515
-6.27004
-6.32811
-6.37979
-6.42571
-6.46651
-6.50295
-6.53633
-6.56864
-5.01213
-5.36895
-5.57504
-5.65706
-5.74347
-5.85207
-5.95707
-6.0477
-6.12775
-6.20082
-6.26718
-6.32654
-6.37924
-6.42586
-6.46688
-6.50273
-6.53447
-6.56345
-4.75584
-5.30002
-5.56573
-5.65379
-5.74792
-5.86644
-5.9779
-6.07197
-6.15377
-6.22765
-6.29429
-6.3536
-6.40603
-6.45222
-6.49253
-6.52697
-6.55538
-6.57723
-7.48103
-7.48114
-7.48118
-7.48116
-7.48085
-7.47965
-7.47718
-7.47392
-7.47083
-7.46886
-7.469
-7.47143
-7.47567
-7.48098
-7.48659
-7.49184
-7.49619
-7.49922
-7.5009
-7.50156
-7.50147
-7.50083
-7.49987
-7.49887
-7.49807
-7.49759
-7.49737
-7.49725
-7.49707
-7.49672
-7.4962
-7.49553
-7.49467
-7.49354
-7.49217
-7.49082
-7.49004
-7.49055
-7.4925
-7.49533
-7.49817
-7.50041
-7.50216
-7.50381
-7.50577
-7.50856
-7.51207
-7.51529
-7.51758
-7.52044
-7.52745
-7.54301
-7.56784
-7.60031
-7.63948
-7.6861
-7.74104
-7.80334
-7.87087
-7.94134
-8.01289
-8.08374
-8.15218
-8.21746
-8.27905
-8.33616
-8.38868
-8.43654
-8.47978
-8.51847
-8.55276
-8.58271
-8.60843
-8.63
-8.64745
-8.66082
-8.6701
-8.67529
-8.67634
-8.67323
-8.66587
-8.65423
-8.63822
-8.6178
-8.59285
-8.56334
-8.5291
-8.49008
-8.44614
-8.39725
-8.3434
-8.28452
-8.2205
-8.15125
-8.07667
-7.99671
-7.91132
-7.82051
-7.72436
-7.62289
-7.5158
-7.40279
-7.28393
-7.15937
-7.02917
-6.89337
-6.752
-6.6051
-6.4527
-6.29487
-6.13166
-5.96315
-5.78942
-5.61055
-5.42666
-5.23783
-5.04421
-4.84591
-4.64307
-4.43584
-4.22438
-4.00883
-3.7894
-3.56624
-3.33955
-3.10951
-2.87635
-2.64025
-2.40145
-2.16014
-1.91655
-1.67086
-1.42328
-1.17405
-0.923447
-0.671726
-0.419172
-0.165909
0.088144
0.342849
0.597821
0.852816
1.10762
1.36205
1.61593
1.86908
2.12134
2.37255
2.62255
2.87117
3.11827
3.36368
3.60725
3.84884
4.0883
4.32552
4.56036
4.79274
5.02254
5.24969
5.4741
5.69569
5.91439
6.13011
6.34279
6.55233
6.75867
6.96173
7.16145
7.35775
7.55057
7.73982
7.92542
8.10729
8.28536
8.45956
8.63
8.79659
8.96234
9.11831
-7.48222
-7.4824
-7.48275
-7.4831
-7.48307
-7.48225
-7.48037
-7.47798
-7.47628
-7.47619
-7.47801
-7.48159
-7.48641
-7.49186
-7.49732
-7.5023
-7.50643
-7.50953
-7.51138
-7.51181
-7.51088
-7.50893
-7.50638
-7.50368
-7.50126
-7.4994
-7.49813
-7.4973
-7.49665
-7.49604
-7.49546
-7.49491
-7.49431
-7.49356
-7.49261
-7.4918
-7.49183
-7.49324
-7.49593
-7.49903
-7.50139
-7.50248
-7.50268
-7.50214
-7.50086
-7.50014
-7.50222
-7.50829
-7.51494
-7.52127
-7.53085
-7.54539
-7.56574
-7.59468
-7.635
-7.68706
-7.74839
-7.81586
-7.88698
-7.95975
-8.0321
-8.10216
-8.16947
-8.23301
-8.29181
-8.34611
-8.39593
-8.44132
-8.48242
-8.51929
-8.55205
-8.58077
-8.60552
-8.62633
-8.64322
-8.65619
-8.66521
-8.67026
-8.67128
-8.66821
-8.66099
-8.64955
-8.6338
-8.61369
-8.58912
-8.56002
-8.52627
-8.48777
-8.4444
-8.39614
-8.34296
-8.2848
-8.22153
-8.15307
-8.07932
-8.00021
-7.91564
-7.82553
-7.72978
-7.62827
-7.52111
-7.40849
-7.29038
-7.16668
-7.03737
-6.90247
-6.762
-6.616
-6.4645
-6.30757
-6.14526
-5.97764
-5.80478
-5.62679
-5.44375
-5.25577
-5.06298
-4.86549
-4.66344
-4.45699
-4.24627
-4.03145
-3.81271
-3.59023
-3.36418
-3.13477
-2.90219
-2.66665
-2.42836
-2.18754
-1.9444
-1.69911
-1.45189
-1.20296
-0.952541
-0.700831
-0.447999
-0.194279
0.0599439
0.314505
0.569338
0.824211
1.07892
1.33328
1.58712
1.84025
2.09252
2.34376
2.59381
2.84251
3.08971
3.33524
3.57896
3.82072
4.06038
4.2978
4.53287
4.76549
4.99555
5.22295
5.44763
5.6695
5.88848
6.1045
6.31748
6.52733
6.73399
6.93738
7.13743
7.33407
7.52724
7.71687
7.90289
8.08525
8.26393
8.43887
8.6103
8.77759
8.94546
9.10071
-7.4835
-7.48349
-7.48352
-7.48359
-7.48366
-7.48368
-7.4839
-7.48481
-7.48688
-7.49024
-7.49471
-7.49994
-7.5055
-7.51097
-7.51599
-7.52026
-7.52357
-7.52582
-7.52693
-7.52684
-7.52557
-7.52324
-7.52004
-7.51616
-7.51184
-7.50736
-7.50301
-7.49906
-7.4957
-7.49304
-7.49103
-7.48944
-7.48802
-7.48675
-7.48604
-7.48654
-7.48883
-7.49282
-7.49728
-7.50043
-7.50082
-7.49896
-7.49679
-7.4961
-7.49665
-7.49795
-7.5022
-7.51134
-7.52464
-7.54223
-7.56513
-7.5935
-7.62769
-7.66836
-7.71592
-7.76974
-7.82818
-7.88947
-7.95223
-8.01528
-8.07757
-8.13815
-8.19653
-8.25219
-8.3046
-8.3536
-8.39907
-8.44095
-8.47921
-8.51384
-8.54484
-8.5722
-8.5959
-8.61594
-8.63227
-8.64487
-8.65368
-8.65864
-8.65968
-8.65674
-8.64974
-8.63859
-8.62321
-8.60353
-8.57946
-8.5509
-8.51775
-8.47989
-8.43723
-8.38971
-8.33732
-8.27996
-8.21754
-8.14996
-8.07712
-7.99895
-7.91539
-7.82635
-7.73175
-7.63147
-7.52554
-7.41403
-7.29699
-7.17437
-7.04617
-6.91239
-6.77305
-6.62819
-6.47783
-6.32204
-6.16087
-5.99438
-5.82266
-5.64579
-5.46386
-5.27699
-5.08528
-4.88887
-4.68787
-4.48244
-4.27272
-4.05889
-3.8411
-3.61954
-3.39438
-3.16582
-2.93406
-2.6993
-2.46176
-2.22165
-1.97917
-1.73451
-1.48788
-1.23951
-0.989627
-0.738451
-0.486149
-0.232933
0.0208883
0.275124
0.529645
0.784231
1.03869
1.29283
1.54648
1.79946
2.0516
2.30275
2.55273
2.8014
3.04858
3.29413
3.5379
3.77973
4.01948
4.25703
4.49224
4.725
4.95522
5.1828
5.40766
5.6297
5.84886
6.06505
6.27821
6.48823
6.69507
6.89862
7.09883
7.29563
7.48895
7.67874
7.86493
8.04744
8.22627
8.40142
8.57337
8.74093
8.91144
9.06275
-7.48463
-7.48436
-7.484
-7.48401
-7.48515
-7.48783
-7.49185
-7.49686
-7.50252
-7.50854
-7.51461
-7.52049
-7.52596
-7.53084
-7.53496
-7.53819
-7.54042
-7.5416
-7.54169
-7.54066
-7.53854
-7.53539
-7.53129
-7.52633
-7.52061
-7.51425
-7.50745
-7.50048
-7.49369
-7.48744
-7.48199
-7.47754
-7.47432
-7.47274
-7.47351
-7.47698
-7.48233
-7.48766
-7.49134
-7.4929
-7.49279
-7.49231
-7.49312
-7.49611
-7.50169
-7.51052
-7.52345
-7.5413
-7.56423
-7.59193
-7.62395
-7.65994
-7.69969
-7.74306
-7.78994
-7.83997
-7.89255
-7.94689
-8.00219
-8.05772
-8.11274
-8.16662
-8.21885
-8.269
-8.31671
-8.36172
-8.40385
-8.44296
-8.47895
-8.51174
-8.54127
-8.56747
-8.59028
-8.60965
-8.62551
-8.63779
-8.64642
-8.65132
-8.65241
-8.64961
-8.64282
-8.63197
-8.61696
-8.5977
-8.5741
-8.54606
-8.51349
-8.47626
-8.43427
-8.38747
-8.33582
-8.27924
-8.21761
-8.15083
-8.07882
-8.00147
-7.91873
-7.83052
-7.73678
-7.63745
-7.53253
-7.42206
-7.30603
-7.18443
-7.05725
-6.9245
-6.7862
-6.64238
-6.49308
-6.33834
-6.17821
-6.01278
-5.8421
-5.66627
-5.48537
-5.29952
-5.10882
-4.91339
-4.71337
-4.5089
-4.30012
-4.0872
-3.8703
-3.6496
-3.42527
-3.19752
-2.96653
-2.73252
-2.49569
-2.25625
-2.01441
-1.77035
-1.52429
-1.27646
-1.0271
-0.77641
-0.524596
-0.271864
-0.0184444
0.235463
0.489677
0.743985
0.998196
1.25212
1.50559
1.75841
2.01043
2.26148
2.51139
2.76
3.00716
3.25272
3.49651
3.7384
3.97823
4.21587
4.4512
4.68409
4.91445
5.14218
5.36719
5.58939
5.80871
6.02507
6.23838
6.44856
6.65554
6.85924
7.05958
7.2565
7.44993
7.63982
7.82612
8.00877
8.18779
8.36313
8.53538
8.7028
8.87407
9.01934
-7.4869
-7.48633
-7.48594
-7.48735
-7.49152
-7.49775
-7.50498
-7.51253
-7.51994
-7.5269
-7.53326
-7.53894
-7.5439
-7.54807
-7.55137
-7.55372
-7.55505
-7.55532
-7.5545
-7.55256
-7.54951
-7.5454
-7.54026
-7.53414
-7.52712
-7.51926
-7.51064
-7.50145
-7.49202
-7.48281
-7.47441
-7.46759
-7.46324
-7.46233
-7.46498
-7.46955
-7.47433
-7.47851
-7.48183
-7.48462
-7.48761
-7.49187
-7.49841
-7.50814
-7.52189
-7.54007
-7.56241
-7.58831
-7.61751
-7.6497
-7.68459
-7.72209
-7.76215
-7.80473
-7.84968
-7.89669
-7.94532
-7.99504
-8.04531
-8.09558
-8.14536
-8.1942
-8.24171
-8.28753
-8.33138
-8.373
-8.41221
-8.44883
-8.48274
-8.5138
-8.54191
-8.56697
-8.58888
-8.60755
-8.62288
-8.63478
-8.64316
-8.64793
-8.64898
-8.64623
-8.63958
-8.62893
-8.61418
-8.59525
-8.57204
-8.54444
-8.51234
-8.47564
-8.43421
-8.38802
-8.33702
-8.2811
-8.22014
-8.15406
-8.08275
-8.00612
-7.92411
-7.83664
-7.74367
-7.64514
-7.54106
-7.43142
-7.31622
-7.19545
-7.0691
-6.93718
-6.79972
-6.65674
-6.50827
-6.35437
-6.19509
-6.03048
-5.86064
-5.68564
-5.50556
-5.32052
-5.13062
-4.93598
-4.73673
-4.53301
-4.32498
-4.11278
-3.89659
-3.67656
-3.4529
-3.22578
-2.99541
-2.76198
-2.52571
-2.2868
-2.04545
-1.80187
-1.55626
-1.30887
-1.05991
-0.809599
-0.558144
-0.305749
-0.0526343
0.201002
0.454959
0.709035
0.963038
1.21678
1.47009
1.72279
1.97469
2.22565
2.47549
2.72406
2.9712
3.21675
3.46056
3.70248
3.94237
4.18008
4.41549
4.64848
4.87896
5.10681
5.33195
5.55428
5.77374
5.99024
6.20369
6.41401
6.62112
6.82495
7.02543
7.22248
7.41604
7.60606
7.79248
7.97526
8.1544
8.32979
8.50202
8.66881
8.83966
8.97836
-7.49112
-7.49023
-7.49075
-7.49518
-7.50255
-7.51094
-7.51945
-7.52762
-7.53513
-7.54193
-7.548
-7.55332
-7.55785
-7.56151
-7.56424
-7.56596
-7.56664
-7.56623
-7.56471
-7.56207
-7.55832
-7.55349
-7.54758
-7.54061
-7.53257
-7.52354
-7.51367
-7.50312
-7.49225
-7.48168
-7.4722
-7.46498
-7.46112
-7.46065
-7.46226
-7.46471
-7.46779
-7.47183
-7.47709
-7.4836
-7.49155
-7.50199
-7.51595
-7.53367
-7.55496
-7.57943
-7.60683
-7.63678
-7.669
-7.70334
-7.73963
-7.77778
-7.81771
-7.8593
-7.90239
-7.94674
-7.99206
-8.03798
-8.08415
-8.13022
-8.17583
-8.22065
-8.26438
-8.30673
-8.34744
-8.38629
-8.42306
-8.45759
-8.48971
-8.51927
-8.54614
-8.57017
-8.59125
-8.60926
-8.62407
-8.63559
-8.6437
-8.6483
-8.64927
-8.64651
-8.63993
-8.62941
-8.61487
-8.59619
-8.57327
-8.54602
-8.51432
-8.47804
-8.43708
-8.39138
-8.34091
-8.28553
-8.22513
-8.1596
-8.08885
-8.0128
-7.93136
-7.84448
-7.75212
-7.65422
-7.55077
-7.44176
-7.32718
-7.20703
-7.0813
-6.95
-6.81315
-6.67079
-6.52294
-6.36965
-6.21098
-6.047
-5.87776
-5.70336
-5.52388
-5.33943
-5.15011
-4.95605
-4.75736
-4.55419
-4.34669
-4.13501
-3.91932
-3.69978
-3.47659
-3.24993
-3.01999
-2.78699
-2.55112
-2.31258
-2.07159
-1.82835
-1.58307
-1.336
-1.08734
-0.837308
-0.586116
-0.333969
-0.0810849
0.172333
0.426085
0.679973
0.933805
1.1874
1.44057
1.69315
1.94495
2.19582
2.44559
2.69411
2.9412
3.18673
3.43054
3.67246
3.91236
4.1501
4.38556
4.6186
4.84914
5.07707
5.30229
5.52471
5.74426
5.96085
6.17439
6.38481
6.59202
6.79594
6.99651
7.19365
7.3873
7.5774
7.76388
7.94669
8.12582
8.30108
8.47302
8.6389
8.80907
8.94136
-7.49637
-7.49592
-7.49862
-7.50576
-7.51447
-7.52315
-7.53142
-7.53916
-7.5463
-7.55281
-7.55862
-7.56368
-7.5679
-7.57122
-7.57355
-7.57486
-7.5751
-7.57424
-7.57226
-7.56917
-7.56497
-7.55969
-7.55325
-7.54559
-7.53682
-7.52712
-7.5167
-7.50581
-7.49488
-7.48462
-7.47616
-7.47035
-7.46686
-7.46485
-7.46415
-7.46513
-7.46837
-7.47391
-7.48159
-7.49194
-7.50553
-7.52242
-7.54241
-7.56528
-7.59082
-7.61871
-7.64872
-7.6807
-7.71446
-7.74986
-7.78672
-7.82492
-7.86433
-7.90482
-7.94626
-7.98847
-8.03124
-8.07434
-8.11752
-8.16053
-8.2031
-8.24497
-8.2859
-8.32564
-8.36397
-8.40068
-8.43556
-8.46843
-8.49912
-8.52746
-8.55328
-8.57645
-8.59681
-8.61424
-8.62859
-8.63975
-8.64759
-8.652
-8.65286
-8.65006
-8.64351
-8.63307
-8.61867
-8.60017
-8.57749
-8.55051
-8.51911
-8.48318
-8.44259
-8.39729
-8.34723
-8.29228
-8.23231
-8.1672
-8.09688
-8.02125
-7.94024
-7.8538
-7.76187
-7.66441
-7.56141
-7.45284
-7.33869
-7.21895
-7.09364
-6.96276
-6.82633
-6.68437
-6.53693
-6.38406
-6.2258
-6.06222
-5.89339
-5.7194
-5.54032
-5.35626
-5.16733
-4.97364
-4.77532
-4.57252
-4.36537
-4.15403
-3.93867
-3.71946
-3.49657
-3.27021
-3.04056
-2.80784
-2.57222
-2.33393
-2.09317
-1.85016
-1.60511
-1.35827
-1.10982
-0.859983
-0.608981
-0.357023
-0.104316
0.148928
0.402518
0.656251
0.909943
1.16341
1.41646
1.66893
1.92064
2.17142
2.42111
2.66956
2.9166
3.16209
3.40586
3.64776
3.88764
4.12537
4.36083
4.59388
4.82443
5.05238
5.27763
5.50009
5.71969
5.93633
6.14992
6.36039
6.56764
6.7716
6.9722
7.16938
7.36306
7.55317
7.73965
7.92242
8.10143
8.27643
8.44793
8.61279
8.78231
8.90864
-7.50048
-7.50129
-7.50659
-7.51478
-7.52318
-7.53125
-7.53897
-7.54631
-7.55317
-7.55947
-7.5651
-7.56998
-7.57402
-7.57713
-7.57926
-7.58035
-7.58035
-7.57926
-7.57705
-7.57374
-7.56933
-7.56375
-7.55691
-7.54896
-7.54011
-7.53051
-7.52036
-7.51007
-7.50035
-7.49197
-7.48533
-7.4799
-7.47518
-7.47176
-7.47053
-7.47178
-7.47588
-7.4834
-7.49449
-7.50898
-7.52661
-7.54713
-7.57032
-7.59589
-7.62363
-7.65333
-7.68479
-7.71785
-7.75234
-7.78811
-7.82501
-7.86293
-7.90173
-7.94131
-7.98152
-8.02222
-8.06325
-8.10445
-8.1456
-8.18653
-8.22701
-8.26684
-8.3058
-8.34369
-8.38032
-8.41547
-8.44896
-8.4806
-8.5102
-8.5376
-8.56261
-8.58509
-8.60487
-8.62181
-8.63576
-8.64659
-8.65418
-8.6584
-8.65913
-8.65627
-8.6497
-8.63931
-8.62499
-8.60663
-8.58412
-8.55734
-8.52618
-8.49051
-8.4502
-8.40522
-8.35548
-8.30086
-8.2412
-8.1764
-8.10638
-8.03104
-7.95033
-7.86417
-7.77253
-7.67535
-7.57261
-7.4643
-7.3504
-7.23092
-7.10584
-6.9752
-6.839
-6.69728
-6.55008
-6.39743
-6.23941
-6.07606
-5.90747
-5.73371
-5.55486
-5.37103
-5.18232
-4.98886
-4.79075
-4.58816
-4.38121
-4.17007
-3.95489
-3.73586
-3.51315
-3.28696
-3.05748
-2.8249
-2.58943
-2.35129
-2.11066
-1.86779
-1.6229
-1.3762
-1.12789
-0.878189
-0.627324
-0.375505
-0.122937
0.130171
0.383627
0.637233
0.890805
1.14415
1.3971
1.64947
1.90108
2.15177
2.40138
2.64974
2.89673
3.14216
3.38588
3.62773
3.86756
4.10525
4.34066
4.57368
4.80421
5.03215
5.2574
5.47987
5.69949
5.91614
6.12974
6.34021
6.54746
6.75142
6.95203
7.1492
7.34287
7.53296
7.71939
7.90206
8.08089
8.25555
8.42655
8.59038
8.75931
8.88028
-7.50173
-7.50418
-7.51102
-7.51893
-7.52666
-7.53423
-7.54162
-7.54873
-7.55544
-7.56165
-7.56724
-7.57209
-7.5761
-7.57919
-7.58129
-7.58236
-7.58236
-7.58127
-7.57907
-7.57576
-7.5713
-7.56561
-7.55877
-7.55104
-7.54257
-7.53359
-7.52452
-7.51583
-7.50793
-7.50092
-7.49457
-7.48874
-7.48376
-7.48055
-7.47997
-7.48259
-7.48877
-7.49865
-7.51198
-7.52856
-7.54811
-7.57037
-7.59506
-7.62195
-7.6508
-7.68141
-7.71359
-7.74716
-7.78196
-7.81786
-7.85471
-7.89239
-7.93077
-7.96974
-8.00917
-8.04893
-8.08889
-8.12889
-8.16878
-8.20839
-8.24754
-8.28605
-8.32375
-8.36044
-8.39594
-8.43006
-8.46262
-8.49342
-8.52227
-8.54899
-8.57341
-8.59536
-8.61468
-8.63122
-8.64483
-8.65536
-8.6627
-8.66672
-8.66731
-8.66436
-8.65774
-8.64736
-8.63308
-8.61481
-8.59241
-8.56579
-8.5348
-8.49933
-8.45925
-8.41451
-8.36501
-8.31063
-8.25119
-8.1866
-8.11676
-8.0416
-7.96105
-7.87505
-7.78355
-7.6865
-7.58388
-7.47567
-7.36187
-7.24248
-7.11749
-6.98693
-6.85082
-6.70918
-6.56206
-6.4095
-6.25157
-6.08832
-5.91983
-5.74616
-5.56741
-5.38367
-5.19506
-5.00168
-4.80367
-4.60115
-4.3943
-4.18323
-3.96814
-3.74917
-3.52654
-3.30041
-3.071
-2.83848
-2.60308
-2.36499
-2.12444
-1.88164
-1.63684
-1.39022
-1.142
-0.892389
-0.641626
-0.38991
-0.137456
0.115542
0.368883
0.622379
0.875838
1.12908
1.38192
1.63418
1.88569
2.13628
2.38579
2.63407
2.88097
3.12634
3.36998
3.61175
3.85151
4.08912
4.32446
4.55743
4.7879
5.0158
5.24101
5.46347
5.68307
5.89971
6.11328
6.32372
6.53094
6.73488
6.93545
7.13258
7.32622
7.51626
7.70261
7.88513
8.06373
8.23802
8.40847
8.57132
8.73969
8.856
-7.49858
-7.5024
-7.50943
-7.51681
-7.52422
-7.53162
-7.53891
-7.54599
-7.55275
-7.55906
-7.56478
-7.56979
-7.57399
-7.57728
-7.57958
-7.58084
-7.58101
-7.58006
-7.57799
-7.57478
-7.57039
-7.56487
-7.55839
-7.55119
-7.54355
-7.53576
-7.52808
-7.52061
-7.51344
-7.50668
-7.50043
-7.49502
-7.49105
-7.48926
-7.49026
-7.49445
-7.50205
-7.51313
-7.52755
-7.5451
-7.56556
-7.58863
-7.61405
-7.64156
-7.67095
-7.70202
-7.73457
-7.76843
-7.80344
-7.83947
-7.87636
-7.91397
-7.95219
-7.99089
-8.02996
-8.06928
-8.10871
-8.14811
-8.18735
-8.22628
-8.26473
-8.30255
-8.33956
-8.37559
-8.41046
-8.444
-8.47601
-8.5063
-8.53467
-8.56094
-8.58493
-8.60647
-8.6254
-8.64158
-8.65485
-8.6651
-8.67219
-8.67601
-8.67644
-8.67338
-8.66671
-8.65631
-8.64207
-8.62385
-8.60155
-8.57503
-8.54418
-8.50886
-8.46896
-8.42438
-8.37507
-8.32084
-8.26154
-8.19705
-8.1273
-8.05221
-7.97172
-7.88576
-7.79427
-7.69722
-7.5946
-7.48637
-7.37254
-7.25311
-7.12809
-6.99749
-6.86134
-6.71967
-6.57252
-6.41993
-6.26198
-6.09871
-5.9302
-5.75653
-5.57777
-5.39403
-5.20541
-5.01203
-4.81402
-4.6115
-4.40463
-4.19357
-3.97847
-3.7595
-3.53686
-3.31074
-3.08132
-2.8488
-2.6134
-2.37532
-2.13479
-1.89203
-1.64727
-1.4007
-1.15253
-0.902985
-0.652299
-0.40067
-0.14831
0.104589
0.357827
0.611218
0.864568
1.1177
1.37042
1.62257
1.87395
2.12442
2.37382
2.62199
2.86881
3.11409
3.35764
3.59931
3.83896
4.07647
4.31171
4.54459
4.77498
5.0028
5.22796
5.45038
5.66995
5.88654
6.10007
6.31045
6.51762
6.72149
6.92201
7.11909
7.31267
7.50264
7.68888
7.87123
8.04957
8.22345
8.39335
8.55525
8.72307
8.83544
-7.48913
-7.49361
-7.50038
-7.50773
-7.51533
-7.52292
-7.53039
-7.53769
-7.5447
-7.5513
-7.55735
-7.5627
-7.56723
-7.57083
-7.57342
-7.57495
-7.57537
-7.57466
-7.57282
-7.56985
-7.56581
-7.56082
-7.55507
-7.54874
-7.542
-7.53499
-7.52788
-7.52081
-7.51389
-7.50741
-7.50176
-7.49737
-7.49467
-7.49421
-7.49647
-7.50182
-7.51043
-7.52235
-7.53749
-7.55568
-7.57666
-7.60019
-7.626
-7.65388
-7.68361
-7.715
-7.74785
-7.782
-7.81729
-7.85354
-7.89063
-7.9284
-7.96674
-8.00552
-8.04463
-8.08393
-8.12329
-8.16259
-8.2017
-8.24046
-8.27874
-8.31635
-8.35313
-8.38892
-8.42354
-8.4568
-8.48853
-8.51853
-8.54661
-8.57258
-8.59626
-8.61747
-8.63607
-8.65191
-8.66487
-8.67481
-8.68165
-8.68526
-8.68553
-8.68234
-8.6756
-8.66518
-8.65094
-8.63277
-8.61053
-8.58409
-8.55333
-8.51813
-8.47834
-8.43389
-8.38469
-8.33055
-8.27131
-8.20685
-8.13711
-8.06201
-7.98148
-7.89546
-7.8039
-7.70676
-7.60402
-7.49568
-7.38173
-7.26218
-7.13703
-7.00631
-6.87003
-6.72823
-6.58096
-6.42828
-6.27022
-6.10687
-5.93828
-5.76453
-5.5857
-5.40189
-5.2132
-5.01976
-4.82168
-4.61912
-4.41219
-4.20108
-3.98592
-3.76692
-3.54423
-3.31807
-3.0886
-2.85605
-2.62062
-2.38253
-2.142
-1.89927
-1.65453
-1.40799
-1.15985
-0.910377
-0.659762
-0.408225
-0.155958
0.0968365
0.349969
0.603243
0.856478
1.10948
1.36208
1.6141
1.86535
2.11569
2.36495
2.613
2.85972
3.10491
3.34834
3.58987
3.82938
4.06675
4.30187
4.53463
4.76492
4.99265
5.21773
5.44009
5.65962
5.87616
6.08961
6.29991
6.507
6.7108
6.91125
7.10826
7.30176
7.49165
7.67777
7.85992
8.03798
8.21144
8.38079
8.5418
8.70908
8.81821
-7.47187
-7.47637
-7.48329
-7.4914
-7.49969
-7.50775
-7.51557
-7.52321
-7.53062
-7.53768
-7.54422
-7.55004
-7.555
-7.55899
-7.56197
-7.56388
-7.56468
-7.56436
-7.56295
-7.56047
-7.557
-7.55263
-7.54749
-7.54172
-7.53546
-7.52883
-7.52199
-7.51513
-7.50856
-7.50264
-7.49768
-7.49409
-7.49236
-7.49295
-7.49627
-7.5026
-7.5121
-7.52479
-7.54057
-7.55927
-7.58067
-7.60455
-7.6307
-7.6589
-7.68897
-7.72071
-7.75394
-7.78847
-7.82414
-7.86079
-7.89827
-7.93646
-7.97522
-8.01442
-8.05391
-8.09355
-8.13323
-8.17281
-8.21215
-8.25111
-8.28953
-8.32726
-8.36415
-8.4
-8.43464
-8.46789
-8.49956
-8.52945
-8.55737
-8.58313
-8.60655
-8.62745
-8.64572
-8.6612
-8.67379
-8.68338
-8.68989
-8.69322
-8.69327
-8.68994
-8.68311
-8.67265
-8.65842
-8.64027
-8.61806
-8.59166
-8.56095
-8.52583
-8.48614
-8.44181
-8.39269
-8.3386
-8.27936
-8.21489
-8.14511
-8.06995
-7.98934
-7.90322
-7.81152
-7.71423
-7.61132
-7.50281
-7.38868
-7.26895
-7.14363
-7.01273
-6.87628
-6.73432
-6.5869
-6.43407
-6.27589
-6.11241
-5.94372
-5.76986
-5.59094
-5.40703
-5.21826
-5.02473
-4.82658
-4.62394
-4.41695
-4.20578
-3.99058
-3.77152
-3.54878
-3.32256
-3.09305
-2.86046
-2.625
-2.38691
-2.14639
-1.90368
-1.65897
-1.41247
-1.16439
-0.91499
-0.664463
-0.413022
-0.16086
0.0918218
0.344834
0.597983
0.851085
1.10395
1.35641
1.60827
1.85937
2.10954
2.35865
2.60656
2.8532
3.09831
3.3416
3.58295
3.82229
4.05951
4.29448
4.5271
4.75727
4.98488
5.20987
5.43217
5.65165
5.86812
6.08147
6.29168
6.49868
6.70239
6.90276
7.09969
7.29312
7.48293
7.66891
7.85085
8.02861
8.20166
8.37046
8.53065
8.69733
8.80395
-7.44643
-7.45077
-7.45856
-7.46804
-7.4773
-7.48591
-7.49415
-7.50228
-7.51035
-7.51817
-7.52542
-7.53187
-7.53738
-7.54188
-7.54534
-7.54774
-7.54906
-7.54927
-7.54838
-7.54644
-7.54348
-7.5396
-7.53489
-7.52945
-7.52342
-7.51695
-7.51029
-7.5037
-7.49748
-7.49194
-7.4875
-7.48462
-7.48373
-7.48525
-7.48951
-7.49675
-7.50706
-7.52044
-7.53678
-7.55594
-7.57772
-7.60196
-7.62846
-7.65704
-7.68753
-7.71974
-7.75348
-7.78856
-7.8248
-7.86203
-7.90012
-7.93893
-7.97831
-8.01811
-8.0582
-8.09844
-8.1387
-8.17883
-8.21869
-8.25811
-8.29695
-8.33505
-8.37225
-8.40837
-8.44323
-8.47663
-8.50839
-8.53828
-8.56608
-8.59158
-8.61461
-8.63505
-8.6528
-8.66777
-8.67982
-8.68889
-8.69496
-8.69795
-8.69776
-8.69429
-8.68743
-8.67699
-8.66282
-8.64474
-8.62258
-8.59616
-8.56542
-8.53034
-8.49079
-8.44658
-8.39755
-8.34351
-8.28426
-8.21977
-8.14995
-8.07475
-7.99406
-7.90782
-7.81597
-7.7185
-7.61541
-7.50671
-7.39241
-7.2725
-7.14701
-7.01592
-6.8793
-6.73717
-6.5896
-6.43663
-6.27833
-6.11476
-5.94597
-5.77203
-5.59304
-5.40905
-5.22022
-5.02663
-4.82843
-4.62574
-4.41873
-4.20754
-3.99233
-3.77324
-3.55049
-3.32424
-3.09472
-2.86211
-2.62668
-2.38861
-2.14815
-1.90548
-1.66084
-1.4144
-1.16643
-0.917139
-0.666744
-0.415436
-0.163423
0.0891075
0.341956
0.594939
0.847865
1.10055
1.35282
1.60449
1.85539
2.10537
2.35428
2.60202
2.84859
3.0937
3.33687
3.57802
3.81717
4.05421
4.28902
4.52149
4.75152
4.97902
5.20391
5.42617
5.64565
5.86205
6.07529
6.28539
6.49228
6.69591
6.89619
7.09304
7.2864
7.47613
7.66197
7.8437
8.02115
8.19378
8.36206
8.52148
8.68752
8.79229
-7.41397
-7.41859
-7.42785
-7.43906
-7.44939
-7.45869
-7.46766
-7.47648
-7.48525
-7.49394
-7.50223
-7.50966
-7.51585
-7.52084
-7.52479
-7.52774
-7.52961
-7.53036
-7.52999
-7.5285
-7.52595
-7.52238
-7.51787
-7.51255
-7.5066
-7.50021
-7.49362
-7.48712
-7.48105
-7.47583
-7.47187
-7.46961
-7.46946
-7.47179
-7.47686
-7.48485
-7.49582
-7.50976
-7.52658
-7.54618
-7.56837
-7.59302
-7.61994
-7.64897
-7.67994
-7.71267
-7.74697
-7.78265
-7.81953
-7.85747
-7.8963
-7.93586
-7.976
-8.01657
-8.05743
-8.09843
-8.13944
-8.18028
-8.22082
-8.26087
-8.30027
-8.33885
-8.37644
-8.41287
-8.44793
-8.48144
-8.51317
-8.54289
-8.57036
-8.59534
-8.61769
-8.6374
-8.65443
-8.66868
-8.67996
-8.68823
-8.69369
-8.69633
-8.69598
-8.69253
-8.68584
-8.67566
-8.66176
-8.64392
-8.6219
-8.59543
-8.56457
-8.52953
-8.49018
-8.44614
-8.39722
-8.34318
-8.28391
-8.21938
-8.14954
-8.07429
-7.99352
-7.90714
-7.81509
-7.71741
-7.6141
-7.5052
-7.3907
-7.27061
-7.14492
-7.01365
-6.87682
-6.73452
-6.58679
-6.43369
-6.27529
-6.11163
-5.94277
-5.76878
-5.58971
-5.40569
-5.21682
-5.02321
-4.82501
-4.62234
-4.41534
-4.20417
-3.98899
-3.76995
-3.54723
-3.32103
-3.09157
-2.85905
-2.62371
-2.38578
-2.14545
-1.90293
-1.65844
-1.41218
-1.16443
-0.915375
-0.665223
-0.414172
-0.162429
0.0898184
0.342373
0.59505
0.84766
1.10002
1.35195
1.60327
1.85382
2.10344
2.35198
2.59935
2.84569
3.09068
3.33367
3.57458
3.8135
4.05033
4.28495
4.51726
4.74713
4.97449
5.19927
5.42155
5.64113
5.85751
6.07065
6.28064
6.48744
6.69098
6.89119
7.08798
7.2813
7.471
7.65673
7.83823
8.01538
8.18759
8.35536
8.51406
8.6794
8.78297
-7.37742
-7.38289
-7.39412
-7.40746
-7.41891
-7.4285
-7.43784
-7.44767
-7.45767
-7.46749
-7.47683
-7.48526
-7.49225
-7.49776
-7.50217
-7.50563
-7.50802
-7.50926
-7.50932
-7.50817
-7.50584
-7.50239
-7.49793
-7.49257
-7.48651
-7.47996
-7.47324
-7.46668
-7.46068
-7.45567
-7.45206
-7.45028
-7.45067
-7.45357
-7.45918
-7.46765
-7.47904
-7.49335
-7.5105
-7.53042
-7.55294
-7.57794
-7.60525
-7.63472
-7.66619
-7.69945
-7.7343
-7.7706
-7.80817
-7.84684
-7.88644
-7.92682
-7.9678
-8.00923
-8.05094
-8.09278
-8.13457
-8.17612
-8.21727
-8.25783
-8.29763
-8.3365
-8.37426
-8.41073
-8.44573
-8.47904
-8.51045
-8.53969
-8.56648
-8.59049
-8.61165
-8.63018
-8.64625
-8.65968
-8.66992
-8.67689
-8.68129
-8.6834
-8.68296
-8.67975
-8.67352
-8.66396
-8.65069
-8.63343
-8.61208
-8.58657
-8.55678
-8.52254
-8.48363
-8.43987
-8.39109
-8.3371
-8.27785
-8.21329
-8.14337
-8.06799
-7.98704
-7.90042
-7.80809
-7.71009
-7.60647
-7.49725
-7.38243
-7.26204
-7.13604
-7.00447
-6.86735
-6.72478
-6.57681
-6.42351
-6.26493
-6.10112
-5.93214
-5.75803
-5.57887
-5.39478
-5.20584
-5.01222
-4.81399
-4.61132
-4.40432
-4.19317
-3.978
-3.759
-3.53634
-3.31021
-3.08082
-2.84842
-2.61321
-2.37544
-2.13528
-1.89294
-1.64863
-1.40263
-1.15514
-0.906382
-0.656534
-0.405818
-0.154424
0.0974481
0.349614
0.60188
0.854064
1.10597
1.35744
1.60827
1.85831
2.10738
2.35532
2.60199
2.84727
3.09106
3.33325
3.57369
3.81221
4.04868
4.28296
4.51494
4.74451
4.97157
5.19607
5.4182
5.63776
5.85409
6.06711
6.27699
6.4837
6.68717
6.88732
7.08406
7.27742
7.46719
7.65286
7.83415
8.01101
8.18284
8.35013
8.50815
8.67275
8.77576
-7.34032
-7.34698
-7.36062
-7.37585
-7.38762
-7.39762
-7.40801
-7.41894
-7.42999
-7.44084
-7.45119
-7.46056
-7.46832
-7.47446
-7.47946
-7.48349
-7.4864
-7.48808
-7.48847
-7.48752
-7.48528
-7.48176
-7.4771
-7.47144
-7.46502
-7.4581
-7.45102
-7.44417
-7.43797
-7.43286
-7.42924
-7.42749
-7.42796
-7.43093
-7.4366
-7.44513
-7.45655
-7.47089
-7.48809
-7.50809
-7.53076
-7.55601
-7.58367
-7.61358
-7.64555
-7.67937
-7.71485
-7.75182
-7.79012
-7.82957
-7.86999
-7.91117
-7.95295
-7.99515
-8.03758
-8.08006
-8.1224
-8.16439
-8.20585
-8.2466
-8.28648
-8.32528
-8.36285
-8.399
-8.43358
-8.46638
-8.49722
-8.52579
-8.55167
-8.57413
-8.59309
-8.60936
-8.62384
-8.6367
-8.64741
-8.65544
-8.66051
-8.66269
-8.66221
-8.65909
-8.65308
-8.64381
-8.63089
-8.61404
-8.59328
-8.56875
-8.54007
-8.50664
-8.46817
-8.42475
-8.37621
-8.32244
-8.26334
-8.19887
-8.12894
-8.05349
-7.97242
-7.88564
-7.79312
-7.69492
-7.59109
-7.48164
-7.36658
-7.24593
-7.1197
-6.9879
-6.85059
-6.70785
-6.55974
-6.40632
-6.24764
-6.08376