/*--------------------------------*- C++ -*----------------------------------*\
  =========                 |
  \\      /  F ield         | OpenFOAM: The Open Source CFD Toolbox
   \\    /   O peration     | Website:  https://openfoam.org
    \\  /    A nd           | Version:  8
     \\/     M anipulation  |
\*---------------------------------------------------------------------------*/
FoamFile
{
    version     2.0;
    format      ascii;
    class       surfaceScalarField;
    location    "1300";
    object      phi;
}
// * * * * * * * * * * * * * * * * * * * * * * * * * * * * * * * * * * * * * //

dimensions      [0 3 -1 0 0 0 0];

internalField   nonuniform List<scalar> 
24170
(
2.99283e-06
1.41125e-07
2.84469e-06
1.48317e-07
2.71058e-06
1.34297e-07
2.59058e-06
1.20096e-07
2.48552e-06
1.05158e-07
2.39731e-06
8.82876e-08
2.32569e-06
7.16559e-08
2.2683e-06
5.71894e-08
2.22262e-06
4.5546e-08
2.18614e-06
3.63609e-08
2.15708e-06
2.90604e-08
2.1336e-06
2.34626e-08
2.11445e-06
1.91972e-08
2.09772e-06
1.68007e-08
2.08187e-06
1.59383e-08
2.06937e-06
1.26208e-08
2.06144e-06
8.06905e-09
8.66002e-10
2.06072e-06
3.52528e-06
7.23559e-08
3.56249e-06
1.11569e-07
3.58077e-06
1.1648e-07
3.58291e-06
1.1837e-07
3.57235e-06
1.16116e-07
3.55155e-06
1.09444e-07
3.52386e-06
9.95738e-08
3.49167e-06
8.93922e-08
3.45771e-06
7.9459e-08
3.42271e-06
7.12704e-08
3.38804e-06
6.36967e-08
3.35532e-06
5.6107e-08
3.32455e-06
4.98978e-08
3.29555e-06
4.57191e-08
3.26782e-06
4.36038e-08
3.24152e-06
3.88798e-08
3.21719e-06
3.24027e-08
2.46661e-08
3.19334e-06
3.83224e-06
5.23456e-08
3.85082e-06
9.299e-08
3.86772e-06
9.95718e-08
3.88328e-06
1.02794e-07
3.89632e-06
1.0307e-07
3.90633e-06
9.9434e-08
3.91286e-06
9.29739e-08
3.91627e-06
8.5843e-08
3.91678e-06
7.8818e-08
3.91527e-06
7.27156e-08
3.91209e-06
6.68836e-08
3.90716e-06
6.10406e-08
3.90103e-06
5.60592e-08
3.89457e-06
5.2222e-08
3.8888e-06
4.94413e-08
3.88259e-06
4.51601e-08
3.8756e-06
3.94682e-08
3.22965e-08
3.868e-06
4.2159e-06
4.10407e-08
4.2282e-06
8.10279e-08
4.23828e-06
8.98045e-08
4.24783e-06
9.35445e-08
4.25664e-06
9.45546e-08
4.26448e-06
9.18544e-08
4.27115e-06
8.64541e-08
4.27679e-06
8.02568e-08
4.28145e-06
7.41409e-08
4.28554e-06
6.8623e-08
4.28905e-06
6.33513e-08
4.29177e-06
5.82905e-08
4.29398e-06
5.3807e-08
4.29608e-06
5.00948e-08
4.29858e-06
4.6903e-08
4.30086e-06
4.28616e-08
4.30256e-06
3.77582e-08
3.17597e-08
4.30304e-06
4.64566e-06
3.27162e-08
4.65673e-06
6.98772e-08
4.66536e-06
8.11182e-08
4.67338e-06
8.54552e-08
4.68088e-06
8.70175e-08
4.68759e-06
8.51117e-08
4.69335e-06
8.06306e-08
4.6983e-06
7.51957e-08
4.70262e-06
6.97516e-08
4.70657e-06
6.46396e-08
4.71019e-06
5.97493e-08
4.71338e-06
5.51044e-08
4.71631e-06
5.0894e-08
4.71924e-06
4.71858e-08
4.72244e-06
4.37415e-08
4.72555e-06
3.97918e-08
4.7282e-06
3.51281e-08
3.00408e-08
4.72997e-06
5.12117e-06
2.6167e-08
5.1314e-06
5.99439e-08
5.13972e-06
7.3077e-08
5.14745e-06
7.79755e-08
5.1548e-06
7.99217e-08
5.16141e-06
7.87037e-08
5.16714e-06
7.50526e-08
5.17208e-06
7.03159e-08
5.17644e-06
6.54327e-08
5.18042e-06
6.06797e-08
5.18406e-06
5.61082e-08
5.18737e-06
5.17588e-08
5.19048e-06
4.77416e-08
5.19357e-06
4.40522e-08
5.19676e-06
4.0506e-08
5.19983e-06
3.66763e-08
5.2025e-06
3.24426e-08
2.79672e-08
5.20448e-06
5.64623e-06
2.0967e-08
5.65554e-06
5.0527e-08
5.66377e-06
6.47428e-08
5.67145e-06
7.02285e-08
5.67884e-06
7.24981e-08
5.6856e-06
7.1923e-08
5.69153e-06
6.90617e-08
5.69674e-06
6.50616e-08
5.70137e-06
6.07528e-08
5.70561e-06
5.64535e-08
5.70947e-06
5.22376e-08
5.71304e-06
4.81988e-08
5.71639e-06
4.43752e-08
5.71967e-06
4.07743e-08
5.72291e-06
3.72566e-08
5.72598e-06
3.35976e-08
5.72865e-06
2.97321e-08
2.58406e-08
5.7308e-06
4.4092e-06
1.78752e-08
4.41526e-06
4.47031e-08
4.42116e-06
5.9032e-08
4.42672e-06
6.4874e-08
4.43206e-06
6.73352e-08
4.43702e-06
6.7112e-08
4.44147e-06
6.47136e-08
4.44541e-06
6.11781e-08
4.44896e-06
5.72454e-08
4.45219e-06
5.32546e-08
4.45515e-06
4.92859e-08
4.45788e-06
4.54496e-08
4.46045e-06
4.17792e-08
4.46292e-06
3.8283e-08
4.4653e-06
3.48454e-08
4.46753e-06
3.1348e-08
4.46949e-06
2.77612e-08
2.41512e-08
4.47112e-06
5.14271e-06
1.50496e-08
5.14871e-06
3.85928e-08
5.15495e-06
5.27264e-08
5.16094e-06
5.88518e-08
5.16676e-06
6.15265e-08
5.17222e-06
6.16432e-08
5.17717e-06
5.97582e-08
5.18161e-06
5.6716e-08
5.18565e-06
5.32167e-08
5.18934e-06
4.95651e-08
5.19273e-06
4.58912e-08
5.19588e-06
4.22872e-08
5.19883e-06
3.88051e-08
5.20164e-06
3.54359e-08
5.20431e-06
3.21511e-08
5.20679e-06
2.88417e-08
5.20898e-06
2.55218e-08
2.22861e-08
5.21086e-06
5.99838e-06
1.24336e-08
6.00422e-06
3.28472e-08
6.01071e-06
4.63375e-08
6.01711e-06
5.25481e-08
6.02339e-06
5.53376e-08
6.02936e-06
5.57397e-08
6.03485e-06
5.432e-08
6.03983e-06
5.17585e-08
6.04439e-06
4.8684e-08
6.04858e-06
4.53848e-08
6.05245e-06
4.20232e-08
6.05605e-06
3.86768e-08
6.05942e-06
3.5399e-08
6.06261e-06
3.22549e-08
6.06559e-06
2.91327e-08
6.06834e-06
2.60803e-08
6.07081e-06
2.30635e-08
2.01316e-08
6.07295e-06
6.9966e-06
1.01357e-08
7.00216e-06
2.72597e-08
7.00881e-06
3.96905e-08
7.01558e-06
4.58192e-08
7.02229e-06
4.86564e-08
7.02877e-06
4.93009e-08
7.03481e-06
4.82933e-08
7.04036e-06
4.62281e-08
7.04549e-06
4.35645e-08
7.05023e-06
4.06581e-08
7.05461e-06
3.76168e-08
7.05869e-06
3.45651e-08
7.06254e-06
3.15892e-08
7.06611e-06
2.86545e-08
7.06946e-06
2.58129e-08
7.07252e-06
2.3018e-08
7.07528e-06
2.03072e-08
1.76993e-08
7.07771e-06
8.16108e-06
8.04208e-09
8.16634e-06
2.20279e-08
8.17304e-06
3.30244e-08
8.1801e-06
3.87878e-08
8.18721e-06
4.15676e-08
8.19417e-06
4.23527e-08
8.20078e-06
4.17205e-08
8.20692e-06
4.00491e-08
8.21266e-06
3.78571e-08
8.21797e-06
3.53073e-08
8.22292e-06
3.26617e-08
8.22755e-06
2.99505e-08
8.23187e-06
2.72852e-08
8.23591e-06
2.46549e-08
8.23964e-06
2.21053e-08
8.24305e-06
1.96133e-08
8.24614e-06
1.72307e-08
1.49413e-08
8.2489e-06
9.5196e-06
6.20117e-09
9.52448e-06
1.71646e-08
9.53113e-06
2.64189e-08
9.5384e-06
3.15452e-08
9.54588e-06
3.41212e-08
9.55332e-06
3.49625e-08
9.56046e-06
3.45466e-08
9.56725e-06
3.33046e-08
9.57358e-06
3.14606e-08
9.57955e-06
2.93731e-08
9.58509e-06
2.70797e-08
9.59032e-06
2.47843e-08
9.59517e-06
2.24427e-08
9.59971e-06
2.01832e-08
9.60385e-06
1.79311e-08
9.60769e-06
1.58014e-08
9.61115e-06
1.37344e-08
1.17976e-08
9.61428e-06
1.11044e-05
4.51059e-09
1.1109e-05
1.25836e-08
1.11155e-05
1.99073e-08
1.11229e-05
2.4119e-08
1.11307e-05
2.63337e-08
1.11386e-05
2.70953e-08
1.11463e-05
2.68586e-08
1.11537e-05
2.58816e-08
1.11607e-05
2.44566e-08
1.11673e-05
2.27301e-08
1.11736e-05
2.08846e-08
1.11794e-05
1.89526e-08
1.11849e-05
1.70333e-08
1.11899e-05
1.51072e-08
1.11946e-05
1.32599e-08
1.11988e-05
1.14737e-08
1.12028e-05
9.79524e-09
8.20216e-09
1.12063e-05
1.29532e-05
2.94061e-09
1.29575e-05
8.21213e-09
1.29639e-05
1.34422e-08
1.29715e-05
1.65455e-08
1.29796e-05
1.81948e-08
1.29879e-05
1.87661e-08
1.29962e-05
1.85745e-08
1.30042e-05
1.78358e-08
1.3012e-05
1.67303e-08
1.30193e-05
1.53989e-08
1.30262e-05
1.39508e-08
1.30327e-05
1.24436e-08
1.30388e-05
1.09266e-08
1.30445e-05
9.42941e-09
1.30497e-05
7.9865e-09
1.30546e-05
6.61412e-09
1.3059e-05
5.32555e-09
4.1224e-09
1.3063e-05
1.51099e-05
1.42964e-09
1.51141e-05
3.92193e-09
1.51205e-05
7.00763e-09
1.51282e-05
8.75998e-09
1.51367e-05
9.66893e-09
1.51456e-05
9.90511e-09
1.51545e-05
9.65317e-09
1.51633e-05
9.06365e-09
1.51718e-05
8.2343e-09
1.51799e-05
7.26831e-09
1.51876e-05
6.22423e-09
1.51949e-05
5.15442e-09
1.52017e-05
4.08494e-09
1.52081e-05
3.04544e-09
1.5214e-05
2.05225e-09
1.52195e-05
1.12183e-09
1.52245e-05
2.57184e-10
-5.3508e-10
1.52292e-05
1.76259e-05
-7.48331e-11
1.76302e-05
-3.75736e-10
1.76368e-05
3.96714e-10
1.7645e-05
5.95352e-10
1.76541e-05
5.91378e-10
1.76637e-05
3.08403e-10
1.76734e-05
-7.65488e-11
1.76831e-05
-6.20941e-10
1.76925e-05
-1.18266e-09
1.77016e-05
-1.81836e-09
1.77102e-05
-2.42259e-09
1.77184e-05
-3.0465e-09
1.77261e-05
-3.61805e-09
1.77333e-05
-4.17584e-09
1.774e-05
-4.67258e-09
1.77463e-05
-5.13492e-09
1.7752e-05
-5.53715e-09
-5.89616e-09
1.77574e-05
1.78276e-05
-1.49321e-09
1.78318e-05
-4.38794e-09
1.78381e-05
-5.92406e-09
1.78461e-05
-7.21732e-09
1.78549e-05
-8.24666e-09
1.78643e-05
-8.99204e-09
1.78738e-05
-9.65092e-09
1.78834e-05
-1.00923e-08
1.78926e-05
-1.0507e-08
1.79016e-05
-1.07575e-08
1.79101e-05
-1.101e-08
1.79183e-05
-1.11422e-08
1.79258e-05
-1.12821e-08
1.79331e-05
-1.13314e-08
1.79397e-05
-1.13832e-08
1.7946e-05
-1.13646e-08
1.79517e-05
-1.13452e-08
-1.12689e-08
1.79571e-05
1.58827e-05
-2.83166e-09
1.58866e-05
-8.13749e-09
1.58925e-05
-1.17042e-08
1.58997e-05
-1.4369e-08
1.59077e-05
-1.61752e-08
1.59161e-05
-1.74281e-08
1.59248e-05
-1.81817e-08
1.59333e-05
-1.86486e-08
1.59417e-05
-1.87875e-08
1.59496e-05
-1.87967e-08
1.59573e-05
-1.86191e-08
1.59645e-05
-1.83991e-08
1.59713e-05
-1.80684e-08
1.59776e-05
-1.77325e-08
1.59836e-05
-1.73316e-08
1.59891e-05
-1.69398e-08
1.59944e-05
-1.65098e-08
-1.60904e-08
1.59991e-05
1.41501e-05
-4.21235e-09
1.4154e-05
-1.19679e-08
1.41598e-05
-1.7433e-08
1.41667e-05
-2.12378e-08
1.41743e-05
-2.37055e-08
1.41822e-05
-2.52569e-08
1.41902e-05
-2.61419e-08
1.41981e-05
-2.64605e-08
1.42057e-05
-2.64092e-08
1.4213e-05
-2.60655e-08
1.42199e-05
-2.55581e-08
1.42264e-05
-2.49181e-08
1.42325e-05
-2.42135e-08
1.42383e-05
-2.34592e-08
1.42436e-05
-2.26948e-08
1.42486e-05
-2.19185e-08
1.42532e-05
-2.11577e-08
-2.03955e-08
1.42576e-05
1.26066e-05
-5.74419e-09
1.26107e-05
-1.61217e-08
1.26167e-05
-2.33464e-08
1.26235e-05
-2.80412e-08
1.26309e-05
-3.09968e-08
1.26384e-05
-3.27777e-08
1.2646e-05
-3.36454e-08
1.26533e-05
-3.37991e-08
1.26604e-05
-3.3456e-08
1.26672e-05
-3.27747e-08
1.26735e-05
-3.18969e-08
1.26795e-05
-3.08625e-08
1.2685e-05
-2.97805e-08
1.26902e-05
-2.86408e-08
1.2695e-05
-2.75267e-08
1.26995e-05
-2.64036e-08
1.27037e-05
-2.53323e-08
-2.42714e-08
1.27076e-05
1.12316e-05
-7.50669e-09
1.12362e-05
-2.07869e-08
1.12425e-05
-2.95706e-08
1.12493e-05
-3.49173e-08
1.12565e-05
-3.81607e-08
1.12638e-05
-4.00597e-08
1.1271e-05
-4.08264e-08
1.1278e-05
-4.07306e-08
1.12846e-05
-4.00479e-08
1.12908e-05
-3.90073e-08
1.12967e-05
-3.77221e-08
1.13021e-05
-3.63209e-08
1.13072e-05
-3.48304e-08
1.13119e-05
-3.33575e-08
1.13163e-05
-3.18748e-08
1.13204e-05
-3.04653e-08
1.13241e-05
-2.90771e-08
-2.77724e-08
1.13276e-05
1.00067e-05
-9.66052e-09
1.00121e-05
-2.61058e-08
1.00186e-05
-3.61272e-08
1.00255e-05
-4.17669e-08
1.00326e-05
-4.52281e-08
1.00397e-05
-4.71572e-08
1.00466e-05
-4.77378e-08
1.00532e-05
-4.73036e-08
1.00594e-05
-4.62466e-08
1.00652e-05
-4.48093e-08
1.00706e-05
-4.31321e-08
1.00757e-05
-4.13206e-08
1.00803e-05
-3.94695e-08
1.00846e-05
-3.76238e-08
1.00886e-05
-3.58409e-08
1.00923e-05
-3.4111e-08
1.00956e-05
-3.24811e-08
-3.09061e-08
1.00988e-05
8.91582e-06
-1.23576e-08
8.92199e-06
-3.23206e-08
8.92884e-06
-4.30014e-08
8.9357e-06
-4.86705e-08
8.94268e-06
-5.22028e-08
8.94959e-06
-5.4075e-08
8.95623e-06
-5.43568e-08
8.96248e-06
-5.3554e-08
8.96834e-06
-5.20984e-08
8.97379e-06
-5.02501e-08
8.97884e-06
-4.8163e-08
8.98349e-06
-4.59591e-08
8.98777e-06
-4.37348e-08
8.99171e-06
-4.15514e-08
8.99535e-06
-3.94478e-08
8.99869e-06
-3.74539e-08
9.0018e-06
-3.55671e-08
-3.37911e-08
9.00468e-06
7.94417e-06
-1.58866e-08
7.95144e-06
-3.95756e-08
7.95845e-06
-5.00173e-08
7.96526e-06
-5.54618e-08
7.97216e-06
-5.9135e-08
7.97895e-06
-6.08675e-08
7.98536e-06
-6.07967e-08
7.99138e-06
-5.95625e-08
7.99697e-06
-5.76855e-08
8.00215e-06
-5.54223e-08
8.00692e-06
-5.29231e-08
8.0113e-06
-5.03298e-08
8.01531e-06
-4.77348e-08
8.01899e-06
-4.52148e-08
8.02237e-06
-4.28164e-08
8.02549e-06
-4.05569e-08
8.02838e-06
-3.84445e-08
-3.64493e-08
8.03106e-06
7.07892e-06
-2.04657e-08
7.08746e-06
-4.81584e-08
7.09464e-06
-5.72372e-08
7.10154e-06
-6.24043e-08
7.10857e-06
-6.61777e-08
7.11539e-06
-6.77094e-08
7.12183e-06
-6.72252e-08
7.12783e-06
-6.55793e-08
7.1334e-06
-6.32626e-08
7.13856e-06
-6.05739e-08
7.1433e-06
-5.76602e-08
7.14765e-06
-5.46675e-08
7.15163e-06
-5.17121e-08
7.15527e-06
-4.88447e-08
7.15861e-06
-4.6146e-08
7.16169e-06
-4.36278e-08
7.16456e-06
-4.1295e-08
-3.91158e-08
7.16725e-06
6.30905e-06
-2.70169e-08
6.31902e-06
-5.81775e-08
6.32713e-06
-6.53633e-08
6.33513e-06
-7.04199e-08
6.34321e-06
-7.42922e-08
6.35097e-06
-7.54907e-08
6.35827e-06
-7.45445e-08
6.36511e-06
-7.24063e-08
6.37146e-06
-6.96389e-08
6.37735e-06
-6.64585e-08
6.38276e-06
-6.30668e-08
6.38771e-06
-5.96195e-08
6.39223e-06
-5.62011e-08
6.39631e-06
-5.29371e-08
6.40002e-06
-4.98536e-08
6.40342e-06
-4.70127e-08
6.40653e-06
-4.43897e-08
-4.19497e-08
6.40938e-06
5.62786e-06
-3.9981e-08
5.64193e-06
-7.23385e-08
5.65533e-06
-7.88163e-08
5.66895e-06
-8.40861e-08
5.68227e-06
-8.76483e-08
5.69473e-06
-8.79852e-08
5.70617e-06
-8.59785e-08
5.71649e-06
-8.27384e-08
5.7256e-06
-7.87784e-08
5.73351e-06
-7.43766e-08
5.74023e-06
-6.9785e-08
5.74581e-06
-6.51811e-08
5.75033e-06
-6.07093e-08
5.75385e-06
-5.64572e-08
5.75648e-06
-5.24916e-08
5.75838e-06
-4.89027e-08
5.75967e-06
-4.56666e-08
-4.29866e-08
5.76072e-06
5.05555e-06
-9.32438e-08
5.09255e-06
-1.0945e-07
5.12299e-06
-1.09319e-07
5.14638e-06
-1.07525e-07
5.16212e-06
-1.03435e-07
5.17068e-06
-9.65702e-08
5.17299e-06
-8.83024e-08
5.17012e-06
-7.98772e-08
5.16308e-06
-7.17681e-08
5.15283e-06
-6.41418e-08
5.14017e-06
-5.7118e-08
5.12574e-06
-5.0731e-08
5.11003e-06
-4.49919e-08
5.09345e-06
-3.98769e-08
5.07631e-06
-3.53574e-08
5.05889e-06
-3.14758e-08
5.04152e-06
-2.82888e-08
-2.61883e-08
5.02474e-06
4.3633e-06
4.25384e-06
4.14452e-06
4.03699e-06
3.93355e-06
3.83698e-06
3.74868e-06
3.6688e-06
3.59703e-06
3.53288e-06
3.47577e-06
3.42504e-06
3.38005e-06
3.34017e-06
3.30482e-06
3.27334e-06
3.24506e-06
3.21887e-06
-8.11419e-09
8.1155e-09
-2.20183e-08
1.39035e-08
-3.71726e-08
1.51552e-08
-5.01749e-08
1.30067e-08
-5.59671e-08
5.79352e-09
-4.86156e-08
-7.34323e-09
-2.60338e-08
-2.25764e-08
9.47983e-09
-3.55113e-08
5.38742e-08
-4.43839e-08
1.02391e-07
-4.85221e-08
1.50647e-07
-4.8241e-08
1.95525e-07
-4.48847e-08
2.35054e-07
-3.9513e-08
2.67957e-07
-3.29071e-08
2.93565e-07
-2.55882e-08
3.11421e-07
-1.78583e-08
3.21295e-07
-9.85148e-09
3.2282e-07
-1.52574e-09
3.15845e-07
7.00133e-09
3.00494e-07
1.53478e-08
2.77426e-07
2.31012e-08
2.47547e-07
2.98754e-08
2.12311e-07
3.52693e-08
1.7349e-07
3.88231e-08
1.33442e-07
4.00893e-08
9.4717e-08
3.87393e-08
6.00276e-08
3.4739e-08
3.1498e-08
2.85604e-08
1.02974e-08
2.12635e-08
-3.80768e-09
1.41436e-08
-1.16769e-08
7.93935e-09
-1.39239e-08
2.27453e-09
-1.0303e-08
-3.55754e-09
2.74093e-10
-1.05666e-08
1.94906e-08
-1.91785e-08
4.76319e-08
-2.8138e-08
8.1343e-08
-3.37033e-08
1.14563e-07
-3.32037e-08
1.41632e-07
-2.70774e-08
1.59144e-07
-1.74788e-08
1.66659e-07
-7.53526e-09
1.66811e-07
-1.24237e-10
1.62967e-07
3.83492e-09
1.58678e-07
4.29809e-09
1.5651e-07
2.16658e-09
1.52268e-07
4.18188e-09
1.36748e-07
1.55825e-08
1.01567e-07
3.49426e-08
4.08066e-08
6.09014e-08
-4.48041e-08
8.5288e-08
-1.48748e-07
1.0402e-07
-2.68254e-07
1.19341e-07
-3.99523e-07
1.31336e-07
-5.39468e-07
1.39906e-07
-6.83611e-07
1.44213e-07
-8.28026e-07
1.44416e-07
-9.68871e-07
1.40905e-07
-1.10384e-06
1.34981e-07
-1.23179e-06
1.27983e-07
-1.35114e-06
1.19369e-07
-1.46135e-06
1.10217e-07
-1.56315e-06
1.0183e-07
-1.65587e-06
9.27278e-08
-1.74052e-06
8.46832e-08
-1.81867e-06
7.8144e-08
-1.89041e-06
7.17774e-08
-1.95673e-06
6.63159e-08
-2.01819e-06
6.14933e-08
-2.07545e-06
5.72486e-08
-2.12894e-06
5.35329e-08
-2.1792e-06
5.02388e-08
-2.22649e-06
4.7321e-08
-2.2712e-06
4.46928e-08
-2.31349e-06
4.23228e-08
-2.35366e-06
4.01431e-08
-2.39177e-06
3.81374e-08
-2.42805e-06
3.62548e-08
-2.46253e-06
3.44887e-08
-2.49535e-06
3.28023e-08
-2.52655e-06
3.11935e-08
-2.5562e-06
2.96367e-08
-2.58434e-06
2.81301e-08
-2.61101e-06
2.66576e-08
-2.63624e-06
2.52149e-08
-2.66004e-06
2.37948e-08
-2.68246e-06
2.23895e-08
-2.70347e-06
2.10008e-08
-2.7231e-06
1.96166e-08
-2.74133e-06
1.82324e-08
-2.75813e-06
1.6856e-08
-2.77355e-06
1.5458e-08
-2.78756e-06
1.4043e-08
-2.80014e-06
1.26039e-08
-2.81128e-06
1.11324e-08
-2.82091e-06
9.62635e-09
-2.82902e-06
8.06942e-09
-2.83551e-06
6.46285e-09
-2.84033e-06
4.78432e-09
-2.84339e-06
3.03969e-09
-2.84467e-06
1.25498e-09
-2.84424e-06
-4.36648e-10
-2.84232e-06
-1.92276e-09
-2.83905e-06
-3.2593e-09
-2.83447e-06
-4.568e-09
-2.82858e-06
-5.86301e-09
-2.8214e-06
-7.1602e-09
-2.81292e-06
-8.45551e-09
-2.80313e-06
-9.75297e-09
-2.79205e-06
-1.10482e-08
-2.77967e-06
-1.23424e-08
-2.766e-06
-1.36328e-08
-2.75105e-06
-1.49186e-08
-2.73481e-06
-1.61988e-08
-2.7173e-06
-1.7471e-08
-2.69852e-06
-1.87358e-08
-2.67849e-06
-1.99889e-08
-2.65722e-06
-2.12329e-08
-2.63471e-06
-2.24617e-08
-2.61099e-06
-2.36798e-08
-2.58606e-06
-2.4879e-08
-2.55996e-06
-2.6066e-08
-2.53268e-06
-2.72307e-08
-2.50425e-06
-2.83821e-08
-2.4747e-06
-2.95077e-08
-2.44404e-06
-3.06189e-08
-2.4123e-06
-3.17012e-08
-2.3795e-06
-3.27677e-08
-2.34565e-06
-3.38019e-08
-2.31081e-06
-3.4816e-08
-2.27499e-06
-3.58016e-08
-2.23824e-06
-3.67653e-08
-2.20055e-06
-3.76933e-08
-2.16197e-06
-3.85901e-08
-2.12252e-06
-3.94309e-08
-2.08228e-06
-4.02282e-08
-2.0413e-06
-4.09599e-08
-1.99968e-06
-4.16391e-08
-1.95742e-06
-4.22779e-08
-1.91444e-06
-4.30117e-08
-1.87068e-06
-4.37515e-08
-1.82628e-06
-4.43958e-08
-1.78127e-06
-4.4998e-08
-1.73571e-06
-4.55752e-08
-1.68962e-06
-4.61179e-08
-1.64303e-06
-4.66373e-08
-1.59595e-06
-4.7123e-08
-1.54844e-06
-4.75844e-08
-1.5005e-06
-4.8014e-08
-1.45215e-06
-4.84171e-08
-1.40342e-06
-4.87901e-08
-1.35434e-06
-4.91339e-08
-1.30494e-06
-4.94472e-08
-1.25525e-06
-4.97304e-08
-1.2053e-06
-4.99841e-08
-1.15512e-06
-5.02099e-08
-1.10474e-06
-5.04124e-08
-1.05418e-06
-5.05943e-08
-1.00344e-06
-5.07623e-08
-9.5255e-07
-5.09183e-08
-9.01509e-07
-5.10693e-08
-8.50319e-07
-5.12157e-08
-7.98986e-07
-5.13627e-08
-7.47506e-07
-5.15063e-08
-6.9589e-07
-5.16487e-08
-6.44132e-07
-5.17846e-08
-5.92247e-07
-5.19184e-08
-5.40225e-07
-5.20474e-08
-4.88076e-07
-5.21792e-08
-4.35786e-07
-5.23108e-08
-3.83364e-07
-5.24463e-08
-3.30801e-07
-5.25748e-08
-2.78132e-07
-5.26849e-08
-2.25392e-07
-5.27413e-08
-1.727e-07
-5.26991e-08
-1.20228e-07
-5.24627e-08
-6.84017e-08
-5.18246e-08
-1.78024e-08
-5.05829e-08
2.99072e-08
-4.77055e-08
7.452e-08
-4.45976e-08
-2.17458e-08
9.62536e-08
-3.47613e-09
1.15964e-08
-9.5811e-09
2.0005e-08
-1.24637e-08
1.80407e-08
-5.15442e-09
5.70662e-09
1.73611e-08
-1.67174e-08
5.43768e-08
-4.43509e-08
1.01519e-07
-6.97141e-08
1.53276e-07
-8.72676e-08
2.04541e-07
-9.56438e-08
2.52034e-07
-9.60179e-08
2.94287e-07
-9.04866e-08
3.30584e-07
-8.11847e-08
3.60833e-07
-6.97542e-08
3.85204e-07
-5.72804e-08
4.04044e-07
-4.44173e-08
4.17708e-07
-3.15227e-08
4.26637e-07
-1.8767e-08
4.31351e-07
-6.23903e-09
4.3227e-07
6.09885e-09
4.29267e-07
1.83537e-08
4.21903e-07
3.04846e-08
4.09538e-07
4.22442e-08
3.91633e-07
5.3194e-08
3.67785e-07
6.26773e-08
3.3803e-07
6.98667e-08
3.02919e-07
7.38642e-08
2.63778e-07
7.39054e-08
2.22723e-07
6.96339e-08
1.82751e-07
6.12743e-08
1.47387e-07
4.95327e-08
1.20148e-07
3.52295e-08
1.03508e-07
1.89412e-08
9.9011e-08
9.92197e-10
1.06255e-07
-1.7802e-08
1.23577e-07
-3.64787e-08
1.46116e-07
-5.0677e-08
1.66867e-07
-5.44571e-08
1.805e-07
-4.68257e-08
1.84992e-07
-3.15799e-08
1.80262e-07
-1.27227e-08
1.67264e-07
5.44694e-09
1.48156e-07
1.9012e-08
1.19321e-07
3.26399e-08
7.12879e-08
5.23451e-08
-5.54939e-09
7.89744e-08
-1.1392e-07
1.1249e-07
-2.46593e-07
1.48238e-07
-3.93818e-07
1.82107e-07
-5.46555e-07
2.13625e-07
-7.01687e-07
2.40364e-07
-8.57553e-07
2.59874e-07
-1.01078e-06
2.72539e-07
-1.15803e-06
2.78587e-07
-1.29608e-06
2.77951e-07
-1.4227e-06
2.70842e-07
-1.53662e-06
2.58342e-07
-1.638e-06
2.42292e-07
-1.72756e-06
2.24551e-07
-1.80616e-06
2.06591e-07
-1.8758e-06
1.89017e-07
-1.93806e-06
1.72485e-07
-1.99367e-06
1.57457e-07
-2.04463e-06
1.43698e-07
-2.09145e-06
1.31514e-07
-2.13438e-06
1.21088e-07
-2.1745e-06
1.1191e-07
-2.21212e-06
1.03946e-07
-2.24761e-06
9.69934e-08
-2.28124e-06
9.08834e-08
-2.31318e-06
8.54828e-08
-2.34359e-06
8.06583e-08
-2.37257e-06
7.63109e-08
-2.40022e-06
7.23441e-08
-2.42658e-06
6.86914e-08
-2.45173e-06
6.52854e-08
-2.47567e-06
6.20845e-08
-2.49847e-06
5.90424e-08
-2.52011e-06
5.61341e-08
-2.54065e-06
5.33278e-08
-2.56007e-06
5.06082e-08
-2.57839e-06
4.79535e-08
-2.59562e-06
4.53535e-08
-2.61177e-06
4.2793e-08
-2.62683e-06
4.02641e-08
-2.6408e-06
3.77573e-08
-2.65369e-06
3.52654e-08
-2.66549e-06
3.27837e-08
-2.67619e-06
3.03033e-08
-2.68576e-06
2.78263e-08
-2.69421e-06
2.53326e-08
-2.70155e-06
2.28255e-08
-2.70777e-06
2.02935e-08
-2.7129e-06
1.77323e-08
-2.71691e-06
1.51447e-08
-2.71984e-06
1.25284e-08
-2.72168e-06
9.88636e-09
-2.72248e-06
7.225e-09
-2.72227e-06
4.55574e-09
-2.72116e-06
1.90545e-09
-2.71923e-06
-6.94697e-10
-2.71643e-06
-3.23958e-09
-2.71258e-06
-5.7749e-09
-2.70751e-06
-8.32197e-09
-2.70119e-06
-1.08743e-08
-2.69361e-06
-1.34285e-08
-2.68476e-06
-1.59876e-08
-2.67465e-06
-1.85488e-08
-2.66327e-06
-2.11117e-08
-2.65062e-06
-2.36728e-08
-2.6367e-06
-2.62307e-08
-2.62153e-06
-2.87819e-08
-2.60509e-06
-3.13246e-08
-2.58741e-06
-3.38555e-08
-2.56848e-06
-3.63727e-08
-2.54831e-06
-3.8873e-08
-2.52692e-06
-4.1354e-08
-2.5043e-06
-4.3813e-08
-2.48049e-06
-4.62473e-08
-2.45548e-06
-4.86545e-08
-2.4293e-06
-5.10314e-08
-2.40195e-06
-5.33766e-08
-2.37347e-06
-5.56862e-08
-2.34386e-06
-5.79593e-08
-2.31314e-06
-6.01917e-08
-2.28135e-06
-6.23831e-08
-2.2485e-06
-6.45286e-08
-2.21461e-06
-6.66287e-08
-2.17971e-06
-6.86774e-08
-2.14383e-06
-7.06762e-08
-2.107e-06
-7.26237e-08
-2.06926e-06
-7.45168e-08
-2.03062e-06
-7.63451e-08
-1.9911e-06
-7.81046e-08
-1.95074e-06
-7.97813e-08
-1.90956e-06
-8.13832e-08
-1.8676e-06
-8.29167e-08
-1.82486e-06
-8.43889e-08
-1.78135e-06
-8.5811e-08
-1.73714e-06
-8.72317e-08
-1.69229e-06
-8.85994e-08
-1.64681e-06
-8.98733e-08
-1.60073e-06
-9.1073e-08
-1.5541e-06
-9.22141e-08
-1.50694e-06
-9.32933e-08
-1.45929e-06
-9.43181e-08
-1.41116e-06
-9.52827e-08
-1.3626e-06
-9.61936e-08
-1.31361e-06
-9.70463e-08
-1.26423e-06
-9.78463e-08
-1.21446e-06
-9.85896e-08
-1.16435e-06
-9.92784e-08
-1.11391e-06
-9.99083e-08
-1.06318e-06
-1.00481e-07
-1.01219e-06
-1.00994e-07
-9.60963e-07
-1.01453e-07
-9.09527e-07
-1.01864e-07
-8.57901e-07
-1.02236e-07
-8.06101e-07
-1.02577e-07
-7.54139e-07
-1.02896e-07
-7.02023e-07
-1.03201e-07
-6.49756e-07
-1.03499e-07
-5.97342e-07
-1.03794e-07
-5.44778e-07
-1.04088e-07
-4.9207e-07
-1.04376e-07
-4.39218e-07
-1.04656e-07
-3.86226e-07
-1.0493e-07
-3.33092e-07
-1.052e-07
-2.79818e-07
-1.05472e-07
-2.26396e-07
-1.05749e-07
-1.72827e-07
-1.06029e-07
-1.1911e-07
-1.06302e-07
-6.52646e-08
-1.06538e-07
-1.13343e-08
-1.06674e-07
4.25879e-08
-1.06621e-07
9.63558e-08
-1.06227e-07
1.49709e-07
-1.05172e-07
2.02144e-07
-1.03007e-07
2.53222e-07
-9.87726e-08
2.9962e-07
-9.09832e-08
-6.63796e-08
3.44255e-07
3.79041e-10
1.12199e-08
4.09346e-09
1.62896e-08
1.87437e-08
3.39662e-09
5.2043e-08
-2.75869e-08
1.02578e-07
-6.72493e-08
1.60842e-07
-1.02612e-07
2.1703e-07
-1.259e-07
2.65608e-07
-1.35846e-07
3.04933e-07
-1.34966e-07
3.35669e-07
-1.26757e-07
3.59394e-07
-1.14208e-07
3.77612e-07
-9.94051e-08
3.91504e-07
-8.36425e-08
4.01867e-07
-6.76454e-08
4.09249e-07
-5.17938e-08
4.14001e-07
-3.62758e-08
4.16417e-07
-2.11758e-08
4.16718e-07
-6.54009e-09
4.15211e-07
7.61556e-09
4.12233e-07
2.13326e-08
4.08069e-07
3.46611e-08
4.02732e-07
4.75843e-08
3.9597e-07
5.9969e-08
3.87166e-07
7.14877e-08
3.75482e-07
8.15667e-08
3.59986e-07
8.93667e-08
3.40073e-07
9.38361e-08
3.15845e-07
9.38743e-08
2.8851e-07
8.86262e-08
2.60379e-07
7.76786e-08
2.34447e-07
6.11841e-08
2.13523e-07
3.98756e-08
1.99394e-07
1.51386e-08
1.92253e-07
-1.06591e-08
1.88189e-07
-3.24124e-08
1.79765e-07
-4.22552e-08
1.62466e-07
-3.71673e-08
1.36075e-07
-2.04313e-08
1.01483e-07
3.00051e-09
5.72662e-08
3.15119e-08
-1.60923e-09
6.43112e-08
-8.21976e-08
9.96077e-08
-1.87467e-07
1.379e-07
-3.14721e-07
1.79594e-07
-4.58309e-07
2.22554e-07
-6.09543e-07
2.63701e-07
-7.61735e-07
3.0042e-07
-9.101e-07
3.30446e-07
-1.04926e-06
3.52776e-07
-1.17603e-06
3.67113e-07
-1.28946e-06
3.73294e-07
-1.3889e-06
3.71968e-07
-1.47433e-06
3.64014e-07
-1.54686e-06
3.50476e-07
-1.60864e-06
3.32612e-07
-1.66224e-06
3.11938e-07
-1.70992e-06
2.89982e-07
-1.75337e-06
2.67997e-07
-1.79365e-06
2.46876e-07
-1.83175e-06
2.27124e-07
-1.8683e-06
2.09042e-07
-1.90356e-06
1.92721e-07
-1.93795e-06
1.78099e-07
-1.97156e-06
1.65127e-07
-2.00418e-06
1.53723e-07
-2.03592e-06
1.43657e-07
-2.06674e-06
1.34767e-07
-2.09661e-06
1.26875e-07
-2.12554e-06
1.19816e-07
-2.1535e-06
1.13453e-07
-2.1805e-06
1.07663e-07
-2.20653e-06
1.02343e-07
-2.23158e-06
9.74049e-08
-2.25567e-06
9.27775e-08
-2.27878e-06
8.83995e-08
-2.30092e-06
8.42243e-08
-2.32209e-06
8.02103e-08
-2.34228e-06
7.63272e-08
-2.36151e-06
7.25474e-08
-2.37976e-06
6.88508e-08
-2.39703e-06
6.52183e-08
-2.41332e-06
6.16361e-08
-2.42862e-06
5.80907e-08
-2.44294e-06
5.45718e-08
-2.45626e-06
5.10701e-08
-2.46858e-06
4.75778e-08
-2.47989e-06
4.40883e-08
-2.49019e-06
4.05966e-08
-2.49945e-06
3.7093e-08
-2.50767e-06
3.35803e-08
-2.51486e-06
3.00383e-08
-2.52103e-06
2.6468e-08
-2.52616e-06
2.28664e-08
-2.53027e-06
1.9235e-08
-2.53334e-06
1.55743e-08
-2.53537e-06
1.18936e-08
-2.53638e-06
8.19656e-09
-2.53634e-06
4.49889e-09
-2.53526e-06
8.08265e-10
-2.5331e-06
-2.86647e-09
-2.5298e-06
-6.54438e-09
-2.52532e-06
-1.02471e-08
-2.51966e-06
-1.39822e-08
-2.51279e-06
-1.7736e-08
-2.5047e-06
-2.15047e-08
-2.49539e-06
-2.52826e-08
-2.48486e-06
-2.90673e-08
-2.4731e-06
-3.28544e-08
-2.46011e-06
-3.66406e-08
-2.4459e-06
-4.04219e-08
-2.43047e-06
-4.41945e-08
-2.41382e-06
-4.79549e-08
-2.39595e-06
-5.1699e-08
-2.37688e-06
-5.54234e-08
-2.35661e-06
-5.91236e-08
-2.33514e-06
-6.27964e-08
-2.3125e-06
-6.64369e-08
-2.28868e-06
-7.00421e-08
-2.2637e-06
-7.36069e-08
-2.23758e-06
-7.71288e-08
-2.21033e-06
-8.06024e-08
-2.18197e-06
-8.40255e-08
-2.15251e-06
-8.73927e-08
-2.12198e-06
-9.0702e-08
-2.09039e-06
-9.39476e-08
-2.05778e-06
-9.71275e-08
-2.02415e-06
-1.00236e-07
-1.98954e-06
-1.03272e-07
-1.95397e-06
-1.06231e-07
-1.91747e-06
-1.09114e-07
-1.88008e-06
-1.11913e-07
-1.84181e-06
-1.14619e-07
-1.80269e-06
-1.17225e-07
-1.76273e-06
-1.19722e-07
-1.72198e-06
-1.22117e-07
-1.68047e-06
-1.24425e-07
-1.63821e-06
-1.2665e-07
-1.59523e-06
-1.28797e-07
-1.55159e-06
-1.30879e-07
-1.50732e-06
-1.32868e-07
-1.46243e-06
-1.3475e-07
-1.41697e-06
-1.36532e-07
-1.37096e-06
-1.38225e-07
-1.32444e-06
-1.39829e-07
-1.27743e-06
-1.41347e-07
-1.22996e-06
-1.4278e-07
-1.18205e-06
-1.44131e-07
-1.13373e-06
-1.45399e-07
-1.08501e-06
-1.46588e-07
-1.03593e-06
-1.47697e-07
-9.86502e-07
-1.48727e-07
-9.36753e-07
-1.49673e-07
-8.86714e-07
-1.50534e-07
-8.36412e-07
-1.51309e-07
-7.85872e-07
-1.52004e-07
-7.35119e-07
-1.52628e-07
-6.84173e-07
-1.53192e-07
-6.33049e-07
-1.5371e-07
-5.81759e-07
-1.54193e-07
-5.30313e-07
-1.54655e-07
-4.78715e-07
-1.55105e-07
-4.26966e-07
-1.55551e-07
-3.75068e-07
-1.55994e-07
-3.23021e-07
-1.56431e-07
-2.70826e-07
-1.56858e-07
-2.18487e-07
-1.57278e-07
-1.66e-07
-1.57694e-07
-1.13366e-07
-1.58115e-07
-6.05762e-08
-1.58545e-07
-7.63039e-09
-1.58982e-07
4.54721e-08
-1.59409e-07
9.87182e-08
-1.59791e-07
1.52086e-07
-1.60046e-07
2.05507e-07
-1.60049e-07
2.58866e-07
-1.59589e-07
3.11979e-07
-1.58292e-07
3.6455e-07
-1.55582e-07
4.16212e-07
-1.50439e-07
4.66017e-07
-1.40793e-07
-1.17609e-07
5.17237e-07
-8.56113e-11
1.13092e-08
1.30573e-08
3.14992e-09
5.27625e-08
-3.63035e-08
1.14515e-07
-8.93359e-08
1.81148e-07
-1.33881e-07
2.38573e-07
-1.60035e-07
2.81222e-07
-1.68547e-07
3.0999e-07
-1.64616e-07
3.28448e-07
-1.53423e-07
3.40219e-07
-1.3853e-07
3.47961e-07
-1.21948e-07
3.53249e-07
-1.04696e-07
3.56896e-07
-8.72867e-08
3.59235e-07
-6.99875e-08
3.60395e-07
-5.29518e-08
3.60398e-07
-3.62812e-08
3.59275e-07
-2.00495e-08
3.57053e-07
-4.32e-09
3.53817e-07
1.08561e-08
3.49697e-07
2.54511e-08
3.44922e-07
3.94412e-08
3.39716e-07
5.27911e-08
3.34261e-07
6.54321e-08
3.28547e-07
7.72023e-08
3.22333e-07
8.77913e-08
3.15074e-07
9.66305e-08
3.06047e-07
1.02875e-07
2.94508e-07
1.05416e-07
2.80095e-07
1.03053e-07
2.62955e-07
9.48198e-08
2.44064e-07
8.00871e-08
2.24785e-07
5.91531e-08
2.05904e-07
3.40309e-08
1.84434e-07
1.08056e-08
1.53301e-07
-1.27698e-09
1.09208e-07
1.83206e-09
5.33038e-08
1.87325e-08
-1.48399e-08
4.77145e-08
-9.80872e-08
8.62441e-08
-1.97761e-07
1.31191e-07
-3.12964e-07
1.79513e-07
-4.41743e-07
2.28388e-07
-5.79718e-07
2.75874e-07
-7.2057e-07
3.20441e-07
-8.58282e-07
3.60264e-07
-9.87401e-07
3.92809e-07
-1.10361e-06
4.16622e-07
-1.2051e-06
4.31928e-07
-1.29129e-06
4.38959e-07
-1.36262e-06
4.38433e-07
-1.42076e-06
4.31425e-07
-1.46784e-06
4.1904e-07
-1.50629e-06
4.02466e-07
-1.53867e-06
3.8285e-07
-1.56738e-06
3.61313e-07
-1.59436e-06
3.38916e-07
-1.62093e-06
3.16545e-07
-1.64779e-06
2.94864e-07
-1.67524e-06
2.74328e-07
-1.70334e-06
2.5522e-07
-1.73197e-06
2.37683e-07
-1.76098e-06
2.21735e-07
-1.7902e-06
2.07321e-07
-1.81942e-06
1.94359e-07
-1.84843e-06
1.82737e-07
-1.87707e-06
1.72303e-07
-1.90521e-06
1.62911e-07
-1.93274e-06
1.54414e-07
-1.95959e-06
1.46675e-07
-1.98571e-06
1.39573e-07
-2.01104e-06
1.33e-07
-2.03556e-06
1.26863e-07
-2.05923e-06
1.21083e-07
-2.08205e-06
1.15594e-07
-2.10398e-06
1.1034e-07
-2.12504e-06
1.05277e-07
-2.14519e-06
1.00365e-07
-2.16444e-06
9.55758e-08
-2.18278e-06
9.08833e-08
-2.2002e-06
8.6267e-08
-2.2167e-06
8.1709e-08
-2.23226e-06
7.71948e-08
-2.24689e-06
7.27113e-08
-2.26057e-06
6.82479e-08
-2.2733e-06
6.37949e-08
-2.28507e-06
5.93441e-08
-2.29588e-06
5.48889e-08
-2.30571e-06
5.04221e-08
-2.31454e-06
4.59426e-08
-2.32238e-06
4.14316e-08
-2.32923e-06
3.68971e-08
-2.33508e-06
3.23227e-08
-2.33993e-06
2.7708e-08
-2.34377e-06
2.30551e-08
-2.34659e-06
1.83647e-08
-2.34837e-06
1.36454e-08
-2.3491e-06
8.90001e-09
-2.34876e-06
4.13916e-09
-2.34733e-06
-6.36507e-10
-2.34477e-06
-5.4256e-09
-2.34108e-06
-1.0243e-08
-2.33623e-06
-1.50964e-08
-2.33022e-06
-1.99883e-08
-2.32304e-06
-2.49073e-08
-2.31468e-06
-2.98487e-08
-2.30515e-06
-3.48044e-08
-2.29443e-06
-3.97706e-08
-2.28253e-06
-4.47408e-08
-2.26945e-06
-4.97108e-08
-2.25518e-06
-5.4675e-08
-2.23973e-06
-5.96288e-08
-2.2231e-06
-6.45673e-08
-2.2053e-06
-6.94854e-08
-2.18632e-06
-7.43786e-08
-2.16619e-06
-7.9241e-08
-2.1449e-06
-8.40684e-08
-2.12247e-06
-8.88541e-08