/*--------------------------------*- C++ -*----------------------------------*\
  =========                 |
  \\      /  F ield         | OpenFOAM: The Open Source CFD Toolbox
   \\    /   O peration     | Website:  https://openfoam.org
    \\  /    A nd           | Version:  8
     \\/     M anipulation  |
\*---------------------------------------------------------------------------*/
FoamFile
{
    version     2.0;
    format      ascii;
    class       volVectorField;
    location    "1300";
    object      U;
}
// * * * * * * * * * * * * * * * * * * * * * * * * * * * * * * * * * * * * * //

dimensions      [0 1 -1 0 0 0 0];

internalField   nonuniform List<vector> 
12225
(
(9.75207 0.0489336 0)
(9.30311 0.0954779 0)
(8.86547 0.100822 0)
(8.45267 0.0944545 0)
(8.08802 0.0835091 0)
(7.77819 0.0698249 0)
(7.526 0.0532585 0)
(7.31997 0.0402598 0)
(7.16065 0.025746 0)
(7.02666 0.0223967 0)
(6.92594 0.0215079 0)
(6.84237 0.0122661 0)
(6.77659 0.00316912 0)
(6.71998 0.0061146 0)
(6.66743 0.0234307 0)
(6.62004 0.0224205 0)
(6.58734 0.0145047 0)
(6.57747 0.00274243 0)
(10.1016 0.0593729 0)
(10.2612 0.0914997 0)
(10.3521 0.0918858 0)
(10.3739 0.0880462 0)
(10.3585 0.0840733 0)
(10.3117 0.0785344 0)
(10.2395 0.0725138 0)
(10.1527 0.0665828 0)
(10.0532 0.062112 0)
(9.95696 0.0555483 0)
(9.85047 0.0490947 0)
(9.75508 0.0458012 0)
(9.66157 0.0438014 0)
(9.57744 0.0396444 0)
(9.49538 0.0326192 0)
(9.41417 0.0283091 0)
(9.3432 0.0249079 0)
(9.27399 0.0196922 0)
(10.013 0.0408038 0)
(10.0741 0.0637072 0)
(10.1261 0.0687087 0)
(10.1685 0.0754147 0)
(10.2045 0.0809234 0)
(10.2352 0.0828216 0)
(10.2576 0.0811729 0)
(10.2706 0.0776224 0)
(10.2754 0.0736377 0)
(10.274 0.0701906 0)
(10.2673 0.0666395 0)
(10.2566 0.0627281 0)
(10.2419 0.0591651 0)
(10.2249 0.0571167 0)
(10.2088 0.0569397 0)
(10.193 0.0542689 0)
(10.1765 0.0485063 0)
(10.1566 0.0397364 0)
(10.0064 0.0294799 0)
(10.0387 0.0549664 0)
(10.0693 0.0635084 0)
(10.093 0.0696802 0)
(10.1135 0.0733713 0)
(10.1332 0.0738753 0)
(10.1509 0.0719835 0)
(10.1657 0.0692533 0)
(10.1778 0.0662823 0)
(10.1882 0.0636319 0)
(10.1971 0.0609613 0)
(10.2045 0.0582219 0)
(10.2103 0.0559966 0)
(10.2153 0.0544491 0)
(10.2206 0.0533978 0)
(10.2264 0.0507482 0)
(10.2314 0.0463265 0)
(10.2345 0.0400995 0)
(10.0043 0.0231703 0)
(10.0271 0.0490812 0)
(10.0517 0.0587017 0)
(10.0703 0.0640497 0)
(10.0861 0.0674064 0)
(10.1012 0.0682641 0)
(10.1149 0.067109 0)
(10.1266 0.06507 0)
(10.1365 0.062784 0)
(10.1453 0.0606139 0)
(10.1534 0.0583738 0)
(10.1607 0.0560706 0)
(10.1673 0.0540045 0)
(10.1735 0.0523196 0)
(10.1801 0.0507539 0)
(10.187 0.0481457 0)
(10.1933 0.0442223 0)
(10.1984 0.0391761 0)
(10.0029 0.0185176 0)
(10.0202 0.0424535 0)
(10.041 0.0528158 0)
(10.0575 0.0582881 0)
(10.0717 0.0619876 0)
(10.0851 0.0634064 0)
(10.0974 0.0628224 0)
(10.1079 0.0611817 0)
(10.1169 0.0592002 0)
(10.125 0.0571513 0)
(10.1324 0.0550207 0)
(10.1391 0.0528367 0)
(10.1454 0.0507734 0)
(10.1514 0.0488875 0)
(10.1575 0.0469724 0)
(10.1637 0.0443653 0)
(10.1694 0.0408315 0)
(10.1741 0.0365512 0)
(10.002 0.0148585 0)
(10.0152 0.0360249 0)
(10.0326 0.0469846 0)
(10.0477 0.0527064 0)
(10.0608 0.0565059 0)
(10.0731 0.0582176 0)
(10.0845 0.0580605 0)
(10.0944 0.0568373 0)
(10.1031 0.0552034 0)
(10.1109 0.0533977 0)
(10.1181 0.0514644 0)
(10.1246 0.0494608 0)
(10.1307 0.0474809 0)
(10.1365 0.0455421 0)
(10.1423 0.0434793 0)
(10.148 0.0409192 0)
(10.1531 0.0377179 0)
(10.1575 0.0340206 0)
(10.0015 0.0122848 0)
(10.012 0.0312546 0)
(10.0269 0.0423826 0)
(10.0408 0.0482518 0)
(10.053 0.0520186 0)
(10.0645 0.0538674 0)
(10.0753 0.0539853 0)
(10.0849 0.0530601 0)
(10.0934 0.0516486 0)
(10.101 0.0500056 0)
(10.108 0.0481884 0)
(10.1145 0.0462876 0)
(10.1205 0.0443445 0)
(10.1262 0.0423728 0)
(10.1317 0.0402398 0)
(10.1369 0.0377458 0)
(10.1417 0.0348092 0)
(10.1459 0.0315404 0)
(10.0011 0.0103493 0)
(10.0097 0.0272196 0)
(10.0226 0.0381697 0)
(10.0353 0.0440874 0)
(10.0468 0.047839 0)
(10.0577 0.0497981 0)
(10.0679 0.0501624 0)
(10.0771 0.0495042 0)
(10.0853 0.0483237 0)
(10.0928 0.0468597 0)
(10.0997 0.0451854 0)
(10.106 0.043387 0)
(10.1119 0.0415057 0)
(10.1175 0.039547 0)
(10.1228 0.0374308 0)
(10.1279 0.035023 0)
(10.1324 0.0322955 0)
(10.1364 0.0293234 0)
(10.0008 0.00863299 0)
(10.0077 0.0232965 0)
(10.0186 0.0337626 0)
(10.0302 0.0396288 0)
(10.0409 0.0433324 0)
(10.051 0.0453562 0)
(10.0606 0.0459408 0)
(10.0694 0.0455276 0)
(10.0774 0.0445668 0)
(10.0847 0.043269 0)
(10.0914 0.0417395 0)
(10.0976 0.0400426 0)
(10.1034 0.0382286 0)
(10.1088 0.0363218 0)
(10.114 0.0342485 0)
(10.1188 0.0319671 0)
(10.1231 0.029457 0)
(10.127 0.0267914 0)
(10.0006 0.00710736 0)
(10.0061 0.0195825 0)
(10.0152 0.0292659 0)
(10.0255 0.0349444 0)
(10.0353 0.0385243 0)
(10.0447 0.0405533 0)
(10.0537 0.0412937 0)
(10.062 0.0411004 0)
(10.0697 0.040326 0)
(10.0767 0.0391945 0)
(10.0832 0.037798 0)
(10.0893 0.0362146 0)
(10.0949 0.0345029 0)
(10.1002 0.0326756 0)
(10.1052 0.0306992 0)
(10.1097 0.0285719 0)
(10.1139 0.0262889 0)
(10.1177 0.0238901 0)
(10.0005 0.0057356 0)
(10.0047 0.016042 0)
(10.0123 0.0246969 0)
(10.0212 0.0300117 0)
(10.0302 0.0333862 0)
(10.0388 0.0353524 0)
(10.0471 0.0361906 0)
(10.055 0.0361612 0)
(10.0623 0.0355687 0)
(10.0691 0.0345834 0)
(10.0754 0.0333377 0)
(10.0812 0.0318859 0)
(10.0867 0.0303104 0)
(10.0918 0.0285874 0)
(10.0966 0.0267626 0)
(10.101 0.0247982 0)
(10.1049 0.0227448 0)
(10.1086 0.0206036 0)
(10.0004 0.00450585 0)
(10.0037 0.0127458 0)
(10.0099 0.0201511 0)
(10.0176 0.0248983 0)
(10.0256 0.0279627 0)
(10.0335 0.0297822 0)
(10.0411 0.0306266 0)
(10.0485 0.0307098 0)
(10.0554 0.030252 0)
(10.0619 0.0294199 0)
(10.0679 0.0283176 0)
(10.0736 0.0270307 0)
(10.0789 0.0255846 0)
(10.0838 0.0240281 0)
(10.0884 0.0223463 0)
(10.0926 0.020588 0)
(10.0964 0.0187512 0)
(10.0999 0.0168682 0)
(10.0003 0.00339857 0)
(10.0029 0.00966133 0)
(10.0079 0.0156679 0)
(10.0145 0.0196538 0)
(10.0216 0.0222828 0)
(10.0287 0.0238565 0)
(10.0358 0.024614 0)
(10.0426 0.0247365 0)
(10.0491 0.0243656 0)
(10.0553 0.0236662 0)
(10.061 0.0227044 0)
(10.0665 0.0215732 0)
(10.0716 0.0202853 0)
(10.0763 0.0188905 0)
(10.0807 0.0173915 0)
(10.0847 0.0158417 0)
(10.0884 0.0142366 0)
(10.0918 0.0126084 0)
(10.0002 0.00237178 0)
(10.0023 0.00674077 0)
(10.0065 0.0112465 0)
(10.012 0.0143104 0)
(10.0183 0.0163595 0)
(10.0247 0.0175808 0)
(10.0312 0.0181633 0)
(10.0375 0.0182263 0)
(10.0436 0.0179053 0)
(10.0494 0.0172814 0)
(10.0549 0.0164566 0)
(10.0601 0.0154561 0)
(10.065 0.0143413 0)
(10.0696 0.0131123 0)
(10.0738 0.0118282 0)
(10.0777 0.0104907 0)
(10.0812 0.00913685 0)
(10.0845 0.00776067 0)
(10.0002 0.00139656 0)
(10.0019 0.00391491 0)
(10.0054 0.00686259 0)
(10.0102 0.00885646 0)
(10.0157 0.0101814 0)
(10.0216 0.010934 0)
(10.0275 0.01123 0)
(10.0334 0.0111621 0)
(10.0391 0.0108044 0)
(10.0446 0.0102297 0)
(10.0499 0.00949193 0)
(10.0549 0.00862903 0)
(10.0595 0.00767026 0)
(10.0639 0.00664049 0)
(10.0679 0.00556626 0)
(10.0717 0.00446718 0)
(10.0752 0.0033572 0)
(10.0784 0.00224612 0)
(10.0002 0.000436901 0)
(10.0017 0.00112354 0)
(10.0047 0.00245122 0)
(10.009 0.00322929 0)
(10.014 0.00369616 0)
(10.0194 0.00383807 0)
(10.0249 0.00375145 0)
(10.0305 0.00344523 0)
(10.0359 0.00299506 0)
(10.0412 0.00240506 0)
(10.0462 0.00173652 0)
(10.051 0.000983868 0)
(10.0555 0.000190465 0)
(10.0598 -0.00064869 0)
(10.0637 -0.00149958 0)
(10.0674 -0.00236424 0)
(10.0708 -0.00322268 0)
(10.0739 -0.00407541 0)
(10.0002 -0.000493538 0)
(10.0016 -0.00156914 0)
(10.0045 -0.00189765 0)
(10.0086 -0.00237163 0)
(10.0134 -0.00285862 0)
(10.0186 -0.00337844 0)
(10.024 -0.00393934 0)
(10.0293 -0.00451647 0)
(10.0346 -0.00512986 0)
(10.0398 -0.00574566 0)
(10.0447 -0.00638939 0)
(10.0494 -0.00702746 0)
(10.0538 -0.00768432 0)
(10.058 -0.00832811 0)
(10.0618 -0.00897892 0)
(10.0655 -0.00960867 0)
(10.0688 -0.0102375 0)
(10.0719 -0.0108391 0)
(10.0002 -0.00137076 0)
(10.0017 -0.00408681 0)
(10.0047 -0.00597725 0)
(10.009 -0.00763276 0)
(10.0139 -0.00901241 0)
(10.0192 -0.010171 0)
(10.0246 -0.0111723 0)
(10.03 -0.0120274 0)
(10.0353 -0.0127794 0)
(10.0405 -0.0134388 0)
(10.0454 -0.0140411 0)
(10.0501 -0.0145885 0)
(10.0545 -0.0151026 0)
(10.0587 -0.0155818 0)
(10.0626 -0.0160383 0)
(10.0662 -0.0164691 0)
(10.0695 -0.0168834 0)
(10.0727 -0.0172735 0)
(10.0002 -0.00223534 0)
(10.0019 -0.0065512 0)
(10.0053 -0.00987383 0)
(10.01 -0.0125888 0)
(10.0153 -0.0147194 0)
(10.0208 -0.0164333 0)
(10.0265 -0.0177913 0)
(10.0321 -0.0188751 0)
(10.0376 -0.0197147 0)
(10.0429 -0.0203962 0)
(10.0479 -0.0209324 0)
(10.0527 -0.0213879 0)
(10.0572 -0.0217539 0)
(10.0613 -0.0220811 0)
(10.0653 -0.0223546 0)
(10.0689 -0.0226087 0)
(10.0723 -0.0228307 0)
(10.0754 -0.0230361 0)
(10.0002 -0.00315933 0)
(10.0024 -0.00914536 0)
(10.0064 -0.0138185 0)
(10.0117 -0.0174375 0)
(10.0175 -0.0202076 0)
(10.0234 -0.0223579 0)
(10.0294 -0.0240101 0)
(10.0354 -0.0252271 0)
(10.0411 -0.026123 0)
(10.0466 -0.0267594 0)
(10.0518 -0.0272285 0)
(10.0567 -0.0275461 0)
(10.0613 -0.0277824 0)
(10.0656 -0.0279317 0)
(10.0695 -0.028051 0)
(10.0732 -0.0281186 0)
(10.0767 -0.0281813 0)
(10.0798 -0.0282055 0)
(10.0003 -0.00420221 0)
(10.003 -0.0120036 0)
(10.0079 -0.017936 0)
(10.014 -0.0223052 0)
(10.0205 -0.0255754 0)
(10.027 -0.0280792 0)
(10.0334 -0.0299246 0)
(10.0398 -0.031219 0)
(10.0459 -0.0320919 0)
(10.0516 -0.0326602 0)
(10.057 -0.0330065 0)
(10.062 -0.0331875 0)
(10.0667 -0.0332534 0)
(10.0711 -0.0332434 0)
(10.0751 -0.0331821 0)
(10.0789 -0.0330933 0)
(10.0824 -0.0329832 0)
(10.0856 -0.0328638 0)
(10.0004 -0.00543733 0)
(10.004 -0.015229 0)
(10.0101 -0.022277 0)
(10.0173 -0.0272093 0)
(10.0244 -0.0308801 0)
(10.0315 -0.033655 0)
(10.0385 -0.0356123 0)
(10.0453 -0.0368942 0)
(10.0517 -0.03769 0)
(10.0577 -0.038147 0)
(10.0633 -0.0383451 0)
(10.0686 -0.0383663 0)
(10.0734 -0.0382541 0)
(10.0779 -0.0380741 0)
(10.082 -0.0378393 0)
(10.0858 -0.0375889 0)
(10.0893 -0.0373234 0)
(10.0926 -0.0370557 0)
(10.0006 -0.00696159 0)
(10.0054 -0.0189693 0)
(10.0132 -0.0268576 0)
(10.0215 -0.0321206 0)
(10.0293 -0.0361083 0)
(10.037 -0.0391054 0)
(10.0446 -0.0411035 0)
(10.0519 -0.0423093 0)
(10.0587 -0.0429767 0)
(10.0651 -0.043272 0)
(10.071 -0.0432923 0)
(10.0764 -0.0431175 0)
(10.0814 -0.042823 0)
(10.086 -0.0424552 0)
(10.0903 -0.042062 0)
(10.0942 -0.041657 0)
(10.0978 -0.0412682 0)
(10.1011 -0.0408783 0)
(10.0009 -0.00889764 0)
(10.0076 -0.0233857 0)
(10.0174 -0.0317135 0)
(10.0268 -0.0370464 0)
(10.0354 -0.0412347 0)
(10.0438 -0.0443714 0)
(10.0522 -0.0463674 0)
(10.0601 -0.0474896 0)
(10.0675 -0.0480316 0)
(10.0742 -0.0481666 0)
(10.0805 -0.0479947 0)
(10.0863 -0.0476118 0)
(10.0915 -0.0470967 0)
(10.0964 -0.0465153 0)
(10.1008 -0.0459162 0)
(10.1049 -0.045332 0)
(10.1087 -0.0447745 0)
(10.1121 -0.0442404 0)
(10.0014 -0.0114421 0)
(10.0107 -0.0284251 0)
(10.0233 -0.036799 0)
(10.034 -0.0422072 0)
(10.0435 -0.046533 0)
(10.0531 -0.0495975 0)
(10.0625 -0.0513979 0)
(10.0715 -0.0523324 0)
(10.0797 -0.0527044 0)
(10.0872 -0.0526897 0)
(10.0942 -0.0523731 0)
(10.1006 -0.0518566 0)
(10.1065 -0.051219 0)
(10.1119 -0.050519 0)
(10.1168 -0.0498236 0)
(10.1214 -0.0491552 0)
(10.1256 -0.0485296 0)
(10.1294 -0.0479157 0)
(10.0023 -0.0152358 0)
(10.016 -0.0335162 0)
(10.0327 -0.0412727 0)
(10.046 -0.0472882 0)
(10.0582 -0.0522439 0)
(10.0705 -0.0553818 0)
(10.0827 -0.0569302 0)
(10.094 -0.0575177 0)
(10.1045 -0.0575107 0)
(10.1142 -0.0570811 0)
(10.1231 -0.0563505 0)
(10.1314 -0.0554404 0)
(10.1389 -0.0544372 0)
(10.1457 -0.0534251 0)
(10.1519 -0.0524638 0)
(10.1575 -0.0516002 0)
(10.1627 -0.0508377 0)
(10.1672 -0.0501119 0)
(10.0051 -0.0225284 0)
(10.033 -0.0399476 0)
(10.0608 -0.0442372 0)
(10.0849 -0.0499308 0)
(10.108 -0.0560325 0)
(10.1309 -0.060322 0)
(10.1526 -0.0628155 0)
(10.1721 -0.0641751 0)
(10.1894 -0.0647802 0)
(10.2046 -0.0647505 0)
(10.2176 -0.0642354 0)
(10.2286 -0.0633661 0)
(10.2376 -0.0622662 0)
(10.2447 -0.0610566 0)
(10.2501 -0.0598175 0)
(10.2541 -0.0586641 0)
(10.257 -0.0576553 0)
(10.2587 -0.0569261 0)
(10.0482 -0.0362249 0)
(10.1435 -0.0633805 0)
(10.2168 -0.0681081 0)
(10.2693 -0.0702286 0)
(10.3067 -0.0722876 0)
(10.3308 -0.0729317 0)
(10.3417 -0.0722819 0)
(10.3409 -0.0709042 0)
(10.3304 -0.0690985 0)
(10.3128 -0.0669933 0)
(10.2895 -0.0646875 0)
(10.2622 -0.0622694 0)
(10.2319 -0.0598182 0)
(10.1995 -0.0574036 0)
(10.1656 -0.0550785 0)
(10.131 -0.052981 0)
(10.096 -0.0510998 0)
(10.0617 -0.0498823 0)
(9.8832 -0.0300382 0)
(9.66807 -0.0654454 0)
(9.4303 -0.0780944 0)
(9.18213 -0.0830021 0)
(8.94088 -0.0836675 0)
(8.7152 -0.080912 0)
(8.508 -0.0758397 0)
(8.31927 -0.0698044 0)
(8.14911 -0.0633888 0)
(7.99666 -0.0569453 0)
(7.86088 -0.0507608 0)
(7.74006 -0.0449657 0)
(7.63295 -0.0396244 0)
(7.53789 -0.0347449 0)
(7.45375 -0.030329 0)
(7.37902 -0.0264038 0)
(7.31232 -0.0230512 0)
(7.25254 -0.0207291 0)
(-0.00272095 0.00749366 0)
(-0.0126647 0.0124595 0)
(-0.0262414 0.0135472 0)
(-0.0405219 0.0115527 0)
(-0.0508526 0.00583202 0)
(-0.0498132 -0.00360648 0)
(-0.034123 -0.0164079 -8.27265e-19)
(-0.00706778 -0.0297922 9.36295e-19)
(0.0282091 -0.0398418 0)
(0.068796 -0.0447854 5.36934e-19)
(0.111734 -0.0452424 0)
(0.15361 -0.0423784 0)
(0.191703 -0.0372478 0)
(0.224359 -0.0306624 -2.63641e-19)
(0.250716 -0.0231913 0)
(0.270348 -0.0151976 0)
(0.282921 -0.00688077 2.27847e-19)
(0.288633 0.00182129 0)
(0.286384 0.0108008 0)
(0.276363 0.0195804 0)
(0.259201 0.0274223 -2.44035e-19)
(0.235537 0.0335446 0)
(0.20629 0.0372316 -2.88562e-19)
(0.172853 0.0378636 0)
(0.137053 0.035012 0)
(0.10115 0.0286567 -4.68854e-19)
(0.067623 0.0194754 0)
(0.0389064 0.00916192 7.7992e-19)
(0.016737 0.000343461 0)
(0.00145785 -0.00491372 -1.32589e-18)
(-0.00815422 -0.00724696 0)
(-0.0131152 -0.00875408 0)
(-0.0124992 -0.0107373 0)
(-0.00564124 -0.0141404 0)
(0.00817876 -0.0194076 0)
(0.029748 -0.0255535 8.79809e-19)
(0.0577063 -0.0302981 0)
(0.0881231 -0.0310957 -1.02312e-18)
(0.115952 -0.0273259 0)
(0.136841 -0.0201971 7.99423e-19)
(0.148606 -0.0121184 0)
(0.152117 -0.00531732 0)
(0.149755 -0.00129435 -7.81151e-19)
(0.145392 -0.00087306 0)
(0.142439 -0.00496135 -8.10794e-19)
(0.14015 -0.0132948 8.1733e-19)
(0.132831 -0.0220975 0)
(0.112977 -0.0217954 8.76177e-19)
(0.0754999 -0.00520612 1.00656e-18)
(0.00891307 0.0144014 0)
(-0.0868185 0.0320946 0)
(-0.189479 0.0550436 0)
(-0.303133 0.0788552 0)
(-0.426323 0.0996044 0)
(-0.55552 0.111701 -1.92025e-19)
(-0.688133 0.114447 0)
(-0.81954 0.11006 1.54456e-19)
(-0.947035 0.104344 0)
(-1.06766 0.100449 0)
(-1.18117 0.0941315 -1.185e-19)
(-1.28678 0.0867969 0)
(-1.38419 0.0808998 1.05496e-19)
(-1.4742 0.0715686 0)
(-1.55617 0.0640013 0)
(-1.6316 0.0592306 0)
(-1.7014 0.053668 -9.12822e-20)
(-1.76581 0.0492605 0)
(-1.82565 0.0453409 0)
(-1.88147 0.0419017 -8.46359e-20)
(-1.93374 0.0389252 0)
(-1.9829 0.036299 -8.12651e-20)
(-2.02931 0.0339945 0)
(-2.07326 0.0319351 0)
(-2.11501 0.0300952 0)
(-2.15475 0.0284185 7.59058e-20)
(-2.19264 0.0268911 0)
(-2.22883 0.025472 0)
(-2.2634 0.024155 7.26074e-20)
(-2.29646 0.0229107 7.15973e-20)
(-2.32807 0.0217369 0)
(-2.35827 0.0206133 6.96777e-20)
(-2.38713 0.0195384 0)
(-2.41467 0.0184991 1.35728e-19)
(-2.44093 0.0174927 0)
(-2.46591 0.0165118 1.32261e-19)
(-2.48965 0.0155518 0)
(-2.51215 0.0146102 -1.28907e-19)
(-2.53341 0.0136787 0)
(-2.55341 0.0127543 0)
(-2.57215 0.0118364 0)
(-2.58964 0.0109068 1.22394e-19)
(-2.60587 0.00996636 0)
(-2.62082 0.00900678 -1.19182e-19)
(-2.63447 0.00802085 0)
(-2.64679 0.00700448 1.15973e-19)
(-2.65772 0.00594901 1.14363e-19)
(-2.66721 0.00485968 1.12747e-19)
(-2.6752 0.00374143 0)
(-2.68163 0.00263431 0)
(-2.68641 0.00159706 0)
(-2.68949 0.000698819 0)
(-2.69104 -5.64665e-05 0)
(-2.69137 -0.000733515 0)
(-2.69046 -0.00139417 0)
(-2.68833 -0.00204185 0)
(-2.68498 -0.00268479 -9.7215e-20)
(-2.68041 -0.0033204 -9.5294e-20)
(-2.67462 -0.00395132 0)
(-2.66759 -0.00457522 0)
(-2.65934 -0.0051934 0)
(-2.64985 -0.0058043 -8.7132e-20)
(-2.63913 -0.00640838 0)
(-2.62717 -0.00700488 0)
(-2.61399 -0.00759349 0)
(-2.59959 -0.00817418 0)
(-2.58396 -0.00874589 7.5726e-20)
(-2.56712 -0.00930935 0)
(-2.54906 -0.00986272 0)
(-2.52981 -0.0104076 -6.81497e-20)
(-2.50937 -0.0109412 6.54896e-20)
(-2.48775 -0.0114662 0)
(-2.46496 -0.0119788 5.99529e-20)
(-2.44101 -0.0124826 0)
(-2.41592 -0.012973 -5.41112e-20)
(-2.38971 -0.0134544 0)
(-2.36239 -0.0139212 0)
(-2.33398 -0.0143784 0)
(-2.3045 -0.0148186 0)
(-2.27396 -0.0152425 0)
(-2.24241 -0.0156572 6.90963e-20)
(-2.20985 -0.0160538 6.19242e-20)
(-2.17632 -0.0164314 0)
(-2.14181 -0.016787 0)
(-2.10637 -0.017089 0)
(-2.07002 -0.0173207 -3.11454e-20)
(-2.03285 -0.0174036 0)
(-1.99494 -0.0172929 0)
(-1.95632 -0.017087 0)
(-1.91692 -0.0171729 3.32525e-21)
(-1.87666 -0.0174704 -1.261e-20)
(-1.83562 -0.0177036 0)
(-1.79386 -0.0179281 0)
(-1.75142 -0.0181447 -4.23219e-20)
(-1.70833 -0.0183508 -5.28943e-20)
(-1.66461 -0.0185508 0)
(-1.62029 -0.0187408 0)
(-1.5754 -0.0189248 8.68804e-20)
(-1.52994 -0.0191003 -9.90436e-20)
(-1.48395 -0.0192697 0)
(-1.43743 -0.0194318 0)
(-1.39041 -0.0195875 -1.3843e-19)
(-1.34291 -0.0197365 0)
(-1.29497 -0.0198799 0)
(-1.24661 -0.0200181 -1.82876e-19)
(-1.19787 -0.0201531 0)
(-1.14875 -0.0202867 -2.1587e-19)
(-1.09929 -0.0204209 0)
(-1.04949 -0.0205583 0)
(-0.999375 -0.0207004 0)
(-0.94894 -0.0208499 2.91942e-19)
(-0.898189 -0.0210076 0)
(-0.84712 -0.0211753 0)
(-0.795731 -0.0213523 0)
(-0.744021 -0.0215398 0)
(-0.69199 -0.0217373 0)
(-0.639639 -0.0219474 0)
(-0.586966 -0.022171 4.72768e-19)
(-0.533968 -0.0224123 5.0587e-19)
(-0.480637 -0.0226718 0)
(-0.426965 -0.0229522 0)
(-0.372947 -0.0232507 0)
(-0.318589 -0.0235624 -6.66725e-19)
(-0.263919 -0.0238764 0)
(-0.209009 -0.0241945 1.54099e-18)
(-0.154004 -0.0244746 -1.66092e-18)
(-0.0991897 -0.0246032 -1.79395e-18)
(-0.0449493 -0.0244196 1.94204e-18)
(0.00591491 -0.0232279 -2.03255e-18)
(0.0621694 -0.0210995 2.01122e-18)
(0.0788785 -0.0104254 0)
(-0.000288754 0.020207 0)
(-0.00577166 0.0353207 0)
(-0.0122941 0.0364317 2.19014e-18)
(-0.0126702 0.0269645 0)
(0.00117776 0.00520546 -2.28589e-18)
(0.0304134 -0.0313793 -1.45702e-18)
(0.0691673 -0.0723893 -4.5992e-19)
(0.113451 -0.106029 -3.2859e-19)
(0.159288 -0.126722 0)
(0.203261 -0.134109 -2.15078e-19)
(0.243205 -0.130795 0)
(0.27818 -0.120128 0)
(0.307861 -0.104966 3.2059e-19)
(0.332261 -0.0873755 1.52708e-19)
(0.351598 -0.0686959 -2.97638e-19)
(0.366181 -0.0496998 -2.94132e-19)
(0.376387 -0.0307668 -1.47071e-19)
(0.382396 -0.0120375 0)
(0.385177 0.00650597 0)
(0.384643 0.0246919 0)
(0.380414 0.0421755 -1.55314e-19)
(0.371989 0.0584129 0)
(0.358802 0.0726701 4.96647e-19)
(0.340372 0.0839701 0)
(0.316471 0.091199 0)
(0.28732 0.093274 2.00931e-19)
(0.253781 0.089454 0)
(0.217473 0.0797856 -2.545e-19)
(0.180706 0.0653039 -5.96401e-19)
(0.146361 0.0477969 3.57199e-19)
(0.117541 0.0289066 0)
(0.0974951 0.00956434 0)
(0.0877222 -0.0103267 0)
(0.0897972 -0.0300541 -1.06821e-18)
(0.102091 -0.0498092 -9.04427e-19)
(0.121398 -0.0673905 -3.73069e-19)
(0.1419 -0.0760649 0)
(0.157622 -0.0717762 5.32249e-19)
(0.165714 -0.0570002 0)
(0.165692 -0.0369276 -5.0668e-19)
(0.15812 -0.0179189 0)
(0.143906 -0.00479587 0)
(0.123481 0.00271817 6.42701e-19)
(0.0917932 0.00866471 0)
(0.0398959 0.0194645 2.64134e-18)
(-0.0460028 0.0464217 -7.19238e-19)
(-0.161376 0.087657 0)
(-0.289798 0.131592 -2.93937e-19)
(-0.424252 0.174649 -2.14815e-19)
(-0.564796 0.211447 0)
(-0.707932 0.23942 0)
(-0.848944 0.259124 0)
(-0.986506 0.270591 0)
(-1.11733 0.273956 0)
(-1.23936 0.270108 8.70551e-20)
(-1.35014 0.260546 1.64008e-19)
(-1.44911 0.24701 -7.72845e-20)
(-1.5365 0.230628 0)
(-1.61375 0.212769 1.41959e-19)
(-1.68222 0.194703 -6.87964e-20)
(-1.74318 0.177322 0)
(-1.79794 0.161221 -6.43335e-20)
(-1.84801 0.146552 0)
(-1.89372 0.133364 0)
(-1.93612 0.121908 -1.21306e-19)
(-1.97549 0.111809 5.94692e-20)
(-2.01255 0.103005 -1.17001e-19)
(-2.04759 0.0953359 1.1508e-19)
(-2.08086 0.0886252 5.66339e-20)
(-2.11259 0.0827345 0)
(-2.14291 0.0775151 5.49904e-20)
(-2.17194 0.0728627 0)
(-2.19975 0.0686642 0)
(-2.22643 0.0648506 0)
(-2.252 0.0613403 5.1974e-20)
(-2.27652 0.0580918 0)
(-2.3 0.0550475 1.01345e-19)
(-2.32248 0.0521841 -1.50117e-19)
(-2.34396 0.0494613 -4.94348e-20)
(-2.36447 0.046866 0)
(-2.384 0.0443704 -4.81932e-20)
(-2.40257 0.0419659 0)
(-2.42017 0.0396342 -9.39667e-20)
(-2.43681 0.0373679 0)
(-2.45249 0.0351567 -9.15909e-20)
(-2.4672 0.0329927 1.80678e-19)
(-2.48094 0.0308727 8.92408e-20)
(-2.4937 0.0287862 0)
(-2.50545 0.0267316 0)
(-2.5162 0.0247007 0)
(-2.52593 0.022683 -8.45423e-20)
(-2.53467 0.0206739 0)
(-2.5424 0.018668 8.21694e-20)
(-2.54912 0.0166631 0)
(-2.55485 0.0146552 -2.39294e-19)
(-2.55957 0.0126368 -7.85528e-20)
(-2.56332 0.0106071 -7.73265e-20)
(-2.56613 0.00855908 0)
(-2.56805 0.00650986 0)
(-2.56918 0.00449831 0)
(-2.56958 0.00259576 0)
(-2.56916 0.000825707 0)
(-2.5676 -0.000856973 -1.39183e-19)
(-2.56489 -0.00250493 -1.36407e-19)
(-2.561 -0.00412388 0)
(-2.55592 -0.00572283 6.52635e-20)
(-2.54964 -0.00729921 6.37882e-20)
(-2.54216 -0.00885506 0)
(-2.53349 -0.0103872 1.21744e-19)
(-2.5236 -0.011896 0)
(-2.51251 -0.0133791 -5.78794e-20)
(-2.50021 -0.014836 0)
(-2.4867 -0.0162651 0)
(-2.47198 -0.0176654 1.05657e-19)
(-2.45606 -0.019036 0)
(-2.43894 -0.0203752 -4.92127e-20)
(-2.42063 -0.0216829 0)
(-2.40113 -0.0229569 0)
(-2.38045 -0.0241977 -4.42096e-20)
(-2.3586 -0.0254026 -4.19128e-20)
(-2.33559 -0.0265731 0)
(-2.31143 -0.0277057 3.85298e-20)
(-2.28614 -0.028803 0)
(-2.25972 -0.0298605 -3.45611e-20)
(-2.23219 -0.0308818 -6.45123e-20)
(-2.20358 -0.0318617 0)
(-2.1739 -0.0328047 0)
(-2.14316 -0.0337048 0)
(-2.11139 -0.0345679 0)
(-2.07862 -0.0353894 -4.22427e-20)
(-2.04487 -0.0361736 -1.14218e-19)
(-2.01016 -0.0369121 0)
(-1.97451 -0.0376064 0)
(-1.93794 -0.0382505 0)
(-1.90046 -0.0388589 1.84979e-20)
(-1.86212 -0.0394489 0)
(-1.82292 -0.0400369 0)
(-1.78286 -0.0406074 -7.89135e-21)
(-1.74198 -0.0411401 5.97723e-22)
(-1.70033 -0.0415979 7.33868e-21)
(-1.65795 -0.0419937 0)
(-1.61485 -0.0423444 0)
(-1.57108 -0.0426637 2.38847e-20)
(-1.52665 -0.0429485 -2.80836e-20)
(-1.4816 -0.0432052 0)
(-1.43595 -0.0434299 0)
(-1.38972 -0.0436278 -4.72191e-20)
(-1.34292 -0.0437963 1.58323e-19)
(-1.29559 -0.0439392 0)
(-1.24772 -0.0440548 0)
(-1.19936 -0.0441444 7.21478e-20)
(-1.15051 -0.0442067 0)
(-1.10121 -0.0442433 1.68904e-19)
(-1.05147 -0.0442543 -9.03577e-20)
(-1.00134 -0.044243 0)
(-0.950829 -0.0442126 1.05841e-19)
(-0.899955 -0.0441678 2.24214e-19)
(-0.848735 -0.0441131 0)
(-0.79718 -0.0440526 0)
(-0.745295 -0.043991 -1.35072e-19)
(-0.693084 -0.043931 0)
(-0.640543 -0.0438755 2.99304e-19)
(-0.587672 -0.0438239 0)
(-0.534466 -0.0437762 0)
(-0.480925 -0.043731 0)
(-0.427048 -0.0436899 0)
(-0.372831 -0.043654 -1.91915e-19)
(-0.318271 -0.0436271 -2.00713e-19)
(-0.263359 -0.0436104 0)
(-0.208086 -0.0436048 0)
(-0.152448 -0.0436063 0)
(-0.0964457 -0.0436041 2.3787e-19)
(-0.0401048 -0.0435714 0)
(0.0165062 -0.0434589 -5.08452e-19)
(0.0732847 -0.0431945 5.12173e-19)
(0.129988 -0.0426517 5.13729e-19)
(0.186533 -0.0416282 5.12185e-19)
(0.240901 -0.0396771 5.18128e-19)
(0.298139 -0.0359238 5.20046e-19)
(0.334221 -0.0244058 0)
(0.000289675 0.0229935 0)
(0.000734215 0.0395418 0)
(0.00647216 0.032181 -2.3411e-18)
(0.0264112 -0.000994043 -1.64623e-18)
(0.0655962 -0.0601216 9.81254e-19)
(0.116517 -0.125473 6.37937e-19)
(0.168891 -0.177389 -3.54028e-22)
(0.215829 -0.207223 0)
(0.254683 -0.215777 0)
(0.285455 -0.208199 0)
(0.309349 -0.19024 0)
(0.327801 -0.166571 0)
(0.342012 -0.140364 -7.28838e-19)
(0.352831 -0.113499 0)
(0.360818 -0.0869865 2.32472e-19)
(0.366347 -0.0613057 2.31848e-19)
(0.369683 -0.0366411 0)
(0.37102 -0.0130648 0)
(0.370607 0.00945433 0)
(0.368765 0.0310809 0)
(0.365752 0.0519545 2.46839e-19)
(0.361739 0.0720094 0)
(0.356644 0.0908845 -2.64333e-19)
(0.350075 0.107842 0)
(0.341342 0.121781 0)
(0.329585 0.1313 0)
(0.314009 0.134926 -6.6043e-19)
(0.294278 0.131463 0)
(0.270915 0.120395 3.92019e-19)
(0.245502 0.102063 -8.74798e-19)
(0.220587 0.0775865 0)
(0.199119 0.0483671 0)
(0.183746 0.0160577 0)
(0.174779 -0.0183603 6.53751e-19)
(0.171356 -0.051968 5.78834e-19)
(0.16719 -0.07514 0)
(0.155315 -0.0780659 0)
(0.135075 -0.0624414 -7.76816e-19)
(0.107608 -0.0362269 -7.94431e-19)
(0.0730834 -0.00436995 8.69726e-19)
(0.0300052 0.0290147 0)
(-0.0301205 0.0599465 0)
(-0.116329 0.0958797 0)
(-0.223015 0.142907 0)
(-0.346398 0.196245 -4.29448e-19)
(-0.481497 0.251028 -3.37808e-19)
(-0.620942 0.303872 2.75283e-19)
(-0.758617 0.349403 0)
(-0.89004 0.385729 0)
(-1.01164 0.412074 0)
(-1.12139 0.427204 0)
(-1.21878 0.431675 -1.49756e-19)
(-1.30331 0.426499 0)
(-1.37558 0.412965 0)
(-1.43714 0.39264 -1.24439e-19)
(-1.49016 0.367536 -1.17539e-19)
(-1.53686 0.339852 0)
(-1.57905 0.311575 2.19438e-19)
(-1.61803 0.284185 -1.05256e-19)
(-1.65475 0.258431 1.02127e-19)
(-1.68991 0.234887 0)
(-1.72388 0.213794 0)
(-1.75698 0.195013 0)
(-1.78938 0.178546 0)
(-1.82104 0.164284 9.07586e-20)
(-1.85191 0.151826 1.78164e-19)
(-1.882 0.140967 8.73352e-20)
(-1.91131 0.131448 -8.57772e-20)
(-1.93979 0.123042 0)
(-1.96746 0.115564 1.65725e-19)
(-1.9943 0.108846 1.63002e-19)
(-2.02029 0.102756 1.6039e-19)
(-2.04545 0.0971771 -1.57877e-19)
(-2.06976 0.0920221 0)
(-2.09323 0.0872118 -2.29721e-19)
(-2.11585 0.08269 0)
(-2.13762 0.0784047 7.42124e-20)
(-2.15855 0.0743205 7.3284e-20)
(-2.17862 0.0704029 0)
(-2.19784 0.0666294 0)
(-2.2162 0.0629766 1.40139e-19)
(-2.23369 0.0594293 0)
(-2.25032 0.0559714 1.36127e-19)
(-2.26607 0.0525917 0)
(-2.28095 0.0492798 -1.32211e-19)
(-2.29494 0.0460269 -2.60683e-19)
(-2.30803 0.0428267 0)
(-2.32022 0.0396715 0)
(-2.33149 0.0365564 0)
(-2.34182 0.0334747 -1.22658e-19)
(-2.35121 0.0304164 0)
(-2.35969 0.0273782 -1.18868e-19)
(-2.36723 0.0243573 0)
(-2.37384 0.0213568 0)
(-2.3795 0.018378 2.26359e-19)
(-2.38422 0.015429 0)
(-2.388 0.0125174 1.09342e-19)
(-2.39082 0.0096576 0)
(-2.39269 0.0068597 1.05467e-19)
(-2.39358 0.00412603 0)
(-2.39345 0.00143465 0)
(-2.39224 -0.00124237 0)
(-2.38992 -0.00390639 2.91421e-19)
(-2.38647 -0.00654267 9.49152e-20)
(-2.38189 -0.0091484 0)
(-2.37616 -0.011722 0)
(-2.36927 -0.014262 0)
(-2.36122 -0.0167664 0)
(-2.352 -0.0192332 -8.36908e-20)
(-2.34161 -0.0216604 1.63105e-19)
(-2.33005 -0.0240459 7.89877e-20)
(-2.31732 -0.0263879 -1.53626e-19)
(-2.30342 -0.0286842 -1.48791e-19)
(-2.28834 -0.0309334 -7.16948e-20)
(-2.27209 -0.0331333 0)
(-2.25467 -0.0352824 -1.33894e-19)
(-2.2361 -0.0373787 0)
(-2.21636 -0.0394208 1.2363e-19)
(-2.19548 -0.0414069 5.88841e-20)
(-2.17345 -0.0433359 0)
(-2.15029 -0.045206 -1.07726e-19)
(-2.12601 -0.0470162 -5.07915e-20)
(-2.10062 -0.0487651 0)
(-2.07413 -0.0504517 -4.5974e-20)
(-2.04656 -0.0520749 1.27935e-19)
(-2.01793 -0.0536334 0)
(-1.98825 -0.0551264 0)
(-1.95753 -0.0565525 0)
(-1.92582 -0.0579123 0)
(-1.89311 -0.0592066 5.6259e-20)
(-1.85945 -0.0604327 4.93015e-20)
(-1.82485 -0.0615855 0)
(-1.78932 -0.0626622 0)
(-1.75289 -0.0636569 0)
(-1.71557 -0.0645759 0)
(-1.6774 -0.0654303 0)
(-1.6384 -0.0662274 0)
(-1.59858 -0.066974 4.95049e-21)
(-1.55797 -0.0676794 -1.01961e-21)
(-1.51663 -0.0683203 0)
(-1.47457 -0.0688867 0)
(-1.43181 -0.0693882 -2.06027e-20)
(-1.38838 -0.0698335 0)
(-1.34431 -0.0702235 3.52553e-20)
(-1.29962 -0.0705628 4.10478e-20)
(-1.25433 -0.0708508 0)
(-1.20848 -0.0710914 0)
(-1.16206 -0.0712844 -6.30179e-20)
(-1.11512 -0.0714335 -1.37932e-19)
(-1.06765 -0.071538 0)
(-1.01968 -0.0716 0)
(-0.97124 -0.0716174 0)
(-0.922343 -0.0715914 -9.87675e-20)
(-0.873017 -0.0715223 1.06056e-19)
(-0.823285 -0.0714144 0)
(-0.773169 -0.0712726 2.39234e-19)
(-0.722688 -0.0711038 1.25879e-19)
(-0.671856 -0.0709143 -2.68982e-19)
(-0.620684 -0.0707109 0)
(-0.569179 -0.0704996 0)
(-0.517344 -0.0702855 -3.14201e-19)
(-0.465178 -0.070072 -1.65884e-19)
(-0.412676 -0.0698593 0)
(-0.359838 -0.0696461 0)
(-0.306659 -0.0694307 0)
(-0.253139 -0.0692142 0)
(-0.199272 -0.0689981 -4.06522e-19)
(-0.145054 -0.0687861 0)
(-0.0904753 -0.0685795 0)
(-0.0355269 -0.0683785 0)
(0.0197968 -0.0681758 0)
(0.0754965 -0.0679547 0)
(0.131564 -0.0676793 0)
(0.187956 -0.0672848 -4.86955e-19)
(0.244595 -0.066677 0)
(0.301283 -0.0657015 0)
(0.358025 -0.0641122 -1.01353e-18)
(0.413349 -0.0614407 5.12391e-19)
(0.471166 -0.0567945 -5.23255e-19)
(0.516698 -0.0452404 5.33924e-19)
(-0.00112711 0.0231145 0)
(0.00199665 0.0263472 5.0781e-18)
(0.0235458 -0.0151407 0)
(0.0709445 -0.0974542 8.75277e-19)
(0.13128 -0.184593 0)
(0.188438 -0.248106 0)
(0.233225 -0.27915 -3.29364e-19)
(0.264326 -0.282541 0)
(0.284496 -0.267634 0)
(0.297325 -0.242716 0)
(0.305679 -0.213247 0)
(0.311372 -0.18226 0)
(0.315381 -0.151275 8.23092e-19)
(0.318157 -0.120996 4.04709e-19)
(0.319863 -0.0917305 -4.01999e-19)
(0.320541 -0.0636184 0)
(0.320205 -0.0367186 0)
(0.318869 -0.011069 0)
(0.316585 0.0133247 0)
(0.313448 0.0364931 0)
(0.309602 0.0584794 4.34486e-19)
(0.305261 0.0792929 4.46072e-19)
(0.300638 0.0988502 -4.62324e-19)
(0.295844 0.116852 4.84454e-19)
(0.290781 0.132684 0)
(0.285104 0.145339 0)
(0.278214 0.153398 5.85842e-19)
(0.269354 0.155175 0)
(0.257935 0.149103 0)
(0.243766 0.134061 7.53447e-19)
(0.227507 0.109799 8.40319e-19)
(0.210287 0.0772889 9.5148e-19)
(0.193567 0.0386677 0)
(0.177036 -0.00194074 0)
(0.154103 -0.0334859 -9.88745e-19)
(0.119494 -0.0421841 0)
(0.0741588 -0.0275294 0)
(0.019559 0.0043324 7.84038e-19)
(-0.0468205 0.047405 -7.22351e-19)
(-0.129205 0.0995156 5.79967e-19)
(-0.226276 0.158794 0)
(-0.337383 0.220914 0)
(-0.459677 0.283792 6.20455e-19)
(-0.587263 0.346187 0)
(-0.714649 0.405097 4.40686e-19)
(-0.836944 0.455283 5.78195e-19)
(-0.949152 0.493991 -5.14549e-19)
(-1.0485 0.5212 3.10053e-19)
(-1.13425 0.53663 0)
(-1.20607 0.540907 0)
(-1.26507 0.535117 2.4495e-19)
(-1.31311 0.520729 1.14124e-19)
(-1.3522 0.499475 0)
(-1.38472 0.473079 0)
(-1.41296 0.443323 9.78446e-20)
(-1.43894 0.412001 1.89164e-19)
(-1.46411 0.380663 0)
(-1.48936 0.350453 -1.74271e-19)
(-1.51512 0.322097 1.6965e-19)
(-1.54155 0.295997 -1.64464e-19)
(-1.5686 0.27233 0)
(-1.59612 0.251081 0)
(-1.62397 0.2321 0)
(-1.65196 0.215243 0)
(-1.6799 0.200334 0)
(-1.70761 0.18711 -1.41691e-19)
(-1.73497 0.175352 0)
(-1.76188 0.164841 0)
(-1.78823 0.155381 0)
(-1.81399 0.146803 -2.62915e-19)