/*--------------------------------*- C++ -*----------------------------------*\
  =========                 |
  \\      /  F ield         | OpenFOAM: The Open Source CFD Toolbox
   \\    /   O peration     | Website:  https://openfoam.org
    \\  /    A nd           | Version:  8
     \\/     M anipulation  |
\*---------------------------------------------------------------------------*/
FoamFile
{
    version     2.0;
    format      ascii;
    class       volVectorField;
    location    "1300";
    object      wallShearStress;
}
// * * * * * * * * * * * * * * * * * * * * * * * * * * * * * * * * * * * * * //

dimensions      [0 2 -2 0 0 0 0];

internalField   uniform (0 0 0);

boundaryField
{
    inlet
    {
        type            calculated;
        value           uniform (0 0 0);
    }
    outlet
    {
        type            calculated;
        value           uniform (0 0 0);
    }
    upperWall
    {
        type            calculated;
        value           nonuniform List<vector> 
223
(
(-0.44384 0.00275162 0)
(-0.434038 0.00491054 0)
(-0.464439 0.00634626 0)
(-0.485559 0.00722407 0)
(-0.487789 0.00749258 0)
(-0.482492 0.00735088 0)
(-0.471639 0.00692051 0)
(-0.460109 0.00638619 0)
(-0.448367 0.00580401 0)
(-0.436394 0.00520841 0)
(-0.425179 0.00463946 0)
(-0.414869 0.00411088 0)
(-0.405516 0.00362851 0)
(-0.397098 0.00319269 0)
(-0.38956 0.00280257 0)
(-0.382842 0.00246084 0)
(-0.376816 0.00217065 0)
(-0.371456 0.00198353 0)
(-0.367182 0.00187035 0)
(-0.363819 0.00179346 6.00068e-22)
(-0.360544 0.00169933 0)
(-0.357362 0.00159647 0)
(-0.354273 0.00148991 0)
(-0.351281 0.00138293 6.11557e-22)
(-0.348391 0.00127678 0)
(-0.345605 0.00117349 0)
(-0.342927 0.0010732 0)
(-0.340353 0.000977346 -1.24314e-21)
(-0.337885 0.000885297 1.24784e-21)
(-0.335522 0.000797896 1.25243e-21)
(-0.333264 0.000714813 0)
(-0.331107 0.000636483 -1.26135e-21)
(-0.329052 0.000562487 0)
(-0.327093 0.000493205 1.26997e-21)
(-0.325231 0.00042834 1.27419e-21)
(-0.323461 0.000367979 -1.27835e-21)
(-0.321782 0.000311882 0)
(-0.320188 0.000260022 0)
(-0.318679 0.000212274 0)
(-0.317249 0.000168558 0)
(-0.315898 0.000128753 -1.29867e-21)
(-0.314617 9.2766e-05 0)
(-0.313409 6.04728e-05 0)
(-0.312263 3.16108e-05 1.31075e-21)
(-0.311183 6.17363e-06 0)
(-0.310158 -1.60433e-05 1.31887e-21)
(-0.309193 -3.50977e-05 -1.32297e-21)
(-0.308272 -5.10493e-05 1.32709e-21)
(-0.307408 -6.39482e-05 0)
(-0.306576 -7.38189e-05 0)
(-0.305796 -8.08934e-05 0)
(-0.305036 -8.53709e-05 1.34405e-21)
(-0.304328 -8.7316e-05 -1.34847e-21)
(-0.303622 -8.69866e-05 0)
(-0.302972 -8.45751e-05 0)
(-0.302308 -8.0127e-05 0)
(-0.301695 -7.34307e-05 0)
(-0.301073 -6.55615e-05 0)
(-0.300463 -5.39506e-05 0)
(-0.299859 -4.30597e-05 0)
(-0.299299 -9.38273e-05 0)
(-0.298631 -5.24486e-05 1.39033e-21)
(-0.29884 0.000118364 -1.40012e-21)
(-0.299508 0.000219735 0)
(-0.298353 0.000337238 0)
(-0.302023 0.000456339 0)
(-0.308054 0.000481791 -1.48606e-21)
(-0.304046 0.000350044 0)
(-0.304298 0.000153358 0)
(-0.3036 4.33142e-05 0)
(-0.299874 -1.28531e-05 0)
(-0.29903 -9.7228e-05 0)
(-0.295314 -0.000159707 -2.95719e-21)
(-0.312148 -0.000124312 0)
(-0.356095 0.000168514 0)
(-0.338217 0.00036703 0)
(-0.324696 0.000489171 0)
(-0.314893 0.000340677 0)
(-0.308481 0.000125523 0)
(-0.301249 0.000268684 0)
(-0.299657 0.000286881 3.1199e-21)
(-0.294322 0.000395497 0)
(-0.294071 0.000343451 0)
(-0.296359 0.000105702 0)
(-0.293858 2.53595e-05 -3.14391e-21)
(-0.312528 -2.81696e-05 0)
(-0.356 1.49426e-05 -3.8407e-21)
(-0.370672 2.54263e-05 0)
(-0.375602 0.000578003 0)
(-0.347357 0.000734735 0)
(-0.32875 0.000309245 -3.56203e-21)
(-0.3056 0.000404092 0)
(-0.297168 0.000329412 3.24917e-21)
(-0.292106 8.72953e-05 3.20918e-21)
(-0.322493 9.38475e-05 0)
(-0.322626 5.93795e-05 3.56386e-21)
(-0.350813 0.000323125 0)
(-0.321687 0.00113789 0)
(-0.321595 0.00180313 0)
(-0.300838 0.00127676 -3.27846e-21)
(-0.292682 0.00094846 0)
(-0.289064 0.000628032 -3.17153e-21)
(-0.298511 -3.62747e-05 3.30797e-21)
(-0.288526 8.23154e-06 0)
(-0.288135 -0.000109561 0)
(-0.298226 -0.000376102 0)
(-0.341152 0.000132762 0)
(-0.318223 0.000591473 0)
(-0.289811 0.00086388 0)
(-0.285803 0.00079295 0)
(-0.28529 4.9701e-05 -3.19242e-21)
(-0.330764 0.000348005 0)
(-0.304018 0.000650507 0)
(-0.283544 0.000267153 0)
(-0.336022 0.000620983 0)
(-0.307934 0.0012771 0)
(-0.298487 0.00149644 0)
(-0.280471 0.000539366 0)
(-0.280097 -1.11259e-05 0)
(-0.279542 0.000706019 0)
(-0.27841 0.00137848 0)
(-0.277149 0.0012281 0)
(-0.276022 0.000689812 0)
(-0.275068 0.000579342 -5.88779e-21)
(-0.273841 0.000294194 0)
(-0.273041 -0.000277363 0)
(-0.287766 -0.000443635 0)
(-0.290584 -0.00023552 6.11096e-21)
(-0.292157 -0.000138909 0)
(-0.290837 0.000542036 0)
(-0.266841 0.000803154 5.3217e-21)
(-0.294563 0.00109557 0)
(-0.264682 0.000953301 -5.04493e-21)
(-0.296361 0.00102589 0)
(-0.262611 0.000814158 0)
(-0.294653 0.000825364 0)
(-0.260356 0.000687554 4.46706e-21)
(-0.289852 0.00071274 0)
(-0.257809 0.000643404 -4.14823e-21)
(-0.282871 0.000670545 0)
(-0.254967 0.000632384 0)
(-0.274559 0.000807419 0)
(-0.251709 0.00124298 0)
(-0.25 0.000438478 0)
(-0.254834 0.000459617 0)
(-0.246667 0.000522799 0)
(-0.248149 0.00054046 0)
(-0.243022 0.000548138 0)
(-0.240739 0.000837751 0)
(-0.239325 0.00192773 0)
(-0.23749 0.00206866 -1.47139e-21)
(-0.235506 0.00183996 1.19456e-21)
(-0.233203 0.00144643 0)
(-0.231338 0.000288095 0)
(-0.229342 -0.00073026 0)
(-0.226253 3.78127e-05 0)
(-0.235363 0.000734411 -3.78168e-22)
(-0.23977 0.000142876 7.75935e-22)
(-0.229008 0.00072774 -1.13025e-21)
(-0.217908 0.000716855 0)
(-0.214789 0.000264992 -1.90928e-21)
(-0.212791 0.000355289 -4.59942e-21)
(-0.210113 0.000315315 0)
(-0.21868 0.00160576 -6.56761e-21)
(-0.208074 0.00214521 6.86257e-21)
(-0.207254 0.00186296 0)
(-0.206219 0.000390052 0)
(-0.203225 -0.00117871 0)
(-0.200006 -0.000958681 0)
(-0.19572 -0.000457731 0)
(-0.191596 0.000150681 -1.37362e-20)
(-0.189125 0.00143209 0)
(-0.190082 0.000792756 -1.48223e-20)
(-0.186518 0.000489392 0)
(-0.185889 0.00205789 0)
(-0.188226 0.00185059 0)
(-0.184932 0.000953907 0)
(-0.182537 0.000945244 0)
(-0.183911 0.0014062 2.20907e-20)
(-0.184198 0.00123842 0)
(-0.17857 0.000708206 0)
(-0.174863 0.000479449 -2.66754e-20)
(-0.171383 0.000494291 0)
(-0.167944 0.000474092 0)
(-0.163561 0.000309849 0)
(-0.157252 0.000129382 3.57386e-20)
(-0.14821 0.000274767 0)
(-0.137144 0.000680743 0)
(-0.124869 0.0011677 0)
(-0.112703 0.00145013 0)
(-0.10159 0.00149382 -6.57159e-20)
(-0.0920792 0.00132577 0)
(-0.0842306 0.00110688 0)
(-0.077394 0.000953963 0)
(-0.0715076 0.0009619 9.70851e-20)
(-0.0633955 0.00108882 0)
(-0.0595696 0.00162633 0)
(-0.032244 0.00143155 -1.39393e-19)
(-0.0630563 0.00030944 6.01853e-36)
(-0.0954718 0.00536746 1.1953e-17)
(-0.117756 0.00959029 2.15028e-17)
(-0.129581 0.0120366 2.02556e-17)
(-0.136538 0.0133668 1.94888e-17)
(-0.141804 0.0141791 1.88632e-17)
(-0.145927 0.0147593 -1.83351e-17)
(-0.148995 0.0151787 -1.7844e-17)
(-0.15134 0.0154785 -6.01853e-36)
(-0.153512 0.0157088 -3.40104e-17)
(-0.155769 0.0159276 -1.6583e-17)
(-0.158135 0.016149 5.83798e-34)
(-0.16071 0.0163772 0)
(-0.163664 0.0166333 -3.03732e-17)
(-0.167177 0.0169295 -2.92083e-17)
(-0.17126 0.0172865 -2.78655e-17)
(-0.176118 0.0177038 0)
(-0.181633 0.0181976 4.91281e-17)
(-0.188138 0.0187689 2.25504e-17)
(-0.195279 0.0194216 2.40741e-35)
(-0.203941 0.0201922 -3.51505e-17)
(-0.212292 0.0209815 -1.24628e-20)
(-0.225509 0.0221161 0)
(-0.230212 0.0228568 1.31973e-17)
(-0.254914 0.0244049 -6.91907e-18)
)
;
    }
    lowerWall
    {
        type            calculated;
        value           nonuniform List<vector> 
250
(
(-0.622821 -0.00617281 0)
(-0.623729 -0.0105747 0)
(-0.579174 -0.0107702 0)
(-0.558651 -0.0102385 0)
(-0.516073 -0.00877514 0)
(-0.587013 -0.0087408 0)
(-0.56645 -0.00679692 0)
(-0.590496 -0.00562212 0)
(-0.594787 -0.00396413 0)
(-0.566063 -0.00330379 0)
(-0.494952 -0.00270181 0)
(-0.496284 -0.001745 0)
(-0.545172 -0.000869167 0)
(-0.529624 -0.00112424 0)
(-0.479778 -0.00266702 0)
(-0.422427 -0.00221754 0)
(-0.420274 -0.00140448 0)
(-0.419169 -0.000467685 0)
(0.00205792 0.000229906 0)
(0.00230964 -0.00260088 0)
(0.00258075 -0.00555037 0)
(0.00290751 -0.00868117 1.19229e-19)
(0.00323675 -0.011769 -1.00585e-19)
(0.00347399 -0.015511 8.87613e-20)
(0.00316742 -0.0155373 -7.9393e-20)
(0.00805992 -0.0347275 0)
(-0.0531592 -0.118896 0)
(0.000218822 -0.000270382 0)
(6.01717e-05 -0.000778197 0)
(-6.06705e-06 -0.000866692 0)
(5.3798e-05 -0.000866732 0)
(3.10571e-05 -0.000834135 1.55271e-19)
(-0.000139842 -0.000278565 -1.51545e-19)
(-0.00056267 0.00112558 0)
(-0.00114523 0.00375691 -1.75581e-19)
(-0.00152217 0.00712496 1.34463e-19)
(-0.0014801 0.0103223 0)
(-0.00110378 0.0126974 0)
(-0.00058445 0.0139599 0)
(-8.12262e-05 0.0140772 0)
(0.000317169 0.0132264 0)
(0.000645776 0.0116936 0)
(0.00096439 0.00952589 0)
(0.00131263 0.00676073 0)
(0.00170729 0.00344093 0)
(-0.00014068 -0.000273169 0)
(0.00016656 -0.000440483 0)
(0.000471835 -0.000492091 0)
(0.000787334 -0.000423967 0)
(0.00103814 -0.000194461 -0)
(0.00108368 0.000186463 -0)
(0.000840687 0.000644628 1.46324e-20)
(0.000335636 0.00107598 -1.65651e-20)
(-0.000365833 0.00139115 0)
(-0.00117112 0.00155011 -9.49835e-21)
(-0.00200188 0.00156522 0)
(-0.0027942 0.00146615 0)
(-0.00350327 0.00128865 0)
(-0.00410414 0.00106307 4.67011e-21)
(-0.00458546 0.00081012 0)
(-0.0049428 0.000541502 0)
(-0.00517371 0.000265483 -4.04848e-21)
(-0.00528233 -2.36171e-05 -0)
(-0.00524446 -0.000323256 0)
(-0.00505823 -0.000612565 -0)
(-0.00473242 -0.000871689 4.35535e-21)
(-0.00427868 -0.00108065 -0)
(-0.00371478 -0.00121856 5.15785e-21)
(-0.00306794 -0.00126608 0)
(-0.00237553 -0.00120878 -0)
(-0.00168656 -0.00104314 8.38841e-21)
(-0.00105844 -0.000784857 0)
(-0.000549305 -0.000478586 -1.39586e-20)
(-0.000192483 -0.000198065 0)
(3.11387e-05 -7.82526e-06 2.37468e-20)
(0.00017478 0.000100514 0)
(0.000261009 0.000187891 0)
(0.000263943 0.000293761 0)
(0.000164802 0.000439548 0)
(-6.37773e-05 0.000636388 0)
(-0.000455735 0.00085062 -1.58014e-20)
(-0.000997539 0.00100517 0)
(-0.00160617 0.00102203 1.83892e-20)
(-0.00216387 0.000885116 0)
(-0.00257106 0.000637603 -1.43898e-20)
(-0.00278162 0.000362091 0)
(-0.00281792 0.00013322 0)
(-0.00273285 4.6042e-07 1.40963e-20)
(-0.00260056 -1.22396e-05 0)
(-0.00249019 9.56981e-05 1.46516e-20)
(-0.00241965 0.000277268 -1.4782e-20)
(-0.00234693 0.000412364 0)
(-0.00215648 0.000273918 -1.58781e-20)
(-0.00160451 -0.000327834 -1.82592e-20)
(-0.000403961 -0.00104981 0)
(0.0013129 -0.00162757 0)
(0.00314021 -0.00225313 0)
(0.00522297 -0.00291026 0)
(0.00754136 -0.00347181 -0)
(0.0100103 -0.00379782 3.54839e-21)
(0.0130201 -0.00401719 0)
(0.0151818 -0.00378148 -2.90178e-21)
(0.0173185 -0.00354411 -0)
(0.0199087 -0.00345198 -0)
(0.0232154 -0.00339827 2.36411e-21)
(0.0237758 -0.00294406 0)
(0.0265665 -0.00283567 -2.05295e-21)
(0.0291812 -0.00260704 -0)
(0.029459 -0.00224132 0)
(0.0320506 -0.0021466 -0)
(0.0339468 -0.00198207 1.84234e-21)
(0.0358775 -0.00185333 0)
(0.0376845 -0.00173476 -0)
(0.0394567 -0.00163029 1.79284e-21)
(0.0411376 -0.00153723 0)
(0.0427846 -0.00145485 1.7696e-21)
(0.0443655 -0.00138102 0)
(0.0459132 -0.00131461 0)
(0.0474103 -0.00125422 0)
(0.0488762 -0.00119856 -1.73507e-21)
(0.0503004 -0.001147 -0)
(0.0516948 -0.0010984 0)
(0.0530527 -0.00105243 -1.71339e-21)
(0.0543808 -0.00100834 -1.7064e-21)
(0.0556758 -0.000965811 -0)
(0.0569399 -0.000924399 -1.69225e-21)
(0.0581724 -0.000884034 0)
(0.0593732 -0.000844245 -3.35512e-21)
(0.0605424 -0.000804927 -0)
(0.0616782 -0.000765881 -3.32396e-21)
(0.0627818 -0.000727026 -0)
(0.0638504 -0.000688122 3.29028e-21)
(0.064885 -0.000648865 0)
(0.0658819 -0.000609167 0)
(0.066842 -0.000569187 0)
(0.0677631 -0.000528269 -3.21281e-21)
(0.068644 -0.000486329 -0)
(0.0694827 -0.000443049 3.16795e-21)
(0.0702775 -0.000398145 0)
(0.071026 -0.00035131 -3.11838e-21)
(0.0717256 -0.00030216 -3.09167e-21)
(0.0723733 -0.000250899 -3.06361e-21)
(0.072967 -0.000197686 -0)
(0.0735043 -0.000143881 0)
(0.073984 -9.1736e-05 0)
(0.0744078 -4.49776e-05 0)
(0.0747819 -5.36078e-06 0)
(0.0751086 3.02578e-05 0)
(0.0753903 6.53739e-05 0)
(0.0756252 0.000100007 0)
(0.0758137 0.00013453 2.74212e-21)
(0.075955 0.000168827 2.69683e-21)
(0.0760488 0.000203062 0)
(0.0760941 0.000237046 0)
(0.0760914 0.000270809 0)
(0.0760397 0.000304316 2.49434e-21)
(0.0759392 0.000337526 0)
(0.0757893 0.000370353 0)
(0.0755905 0.000402729 0)
(0.0753428 0.000434757 0)
(0.0750458 0.000466301 -2.19062e-21)
(0.0747001 0.000497374 0)
(0.0743054 0.000527853 0)
(0.073863 0.00055775 1.97969e-21)
(0.0733725 0.000587018 -1.90437e-21)
(0.0728349 0.000615715 0)
(0.0722502 0.000643679 -1.74599e-21)
(0.0716196 0.000671008 0)
(0.0709434 0.000697472 1.57698e-21)
(0.0702233 0.00072328 0)
(0.0694593 0.0007482 0)
(0.0686534 0.000772398 0)
(0.0678061 0.000795609 0)
(0.0669221 0.0008178 0)
(0.0659981 0.00083922 -2.00643e-21)
(0.0650208 0.000859373 -1.79442e-21)
(0.0640303 0.000878762 0)
(0.0629715 0.000896483 0)
(0.0619043 0.000912003 0)
(0.0607933 0.000924031 8.86075e-22)
(0.0596616 0.000929608 0)
(0.0584997 0.000927009 0)
(0.0573135 0.000920631 0)
(0.0560952 0.000925846 -1.25973e-22)
(0.0548482 0.000939139 3.97308e-22)
(0.0535731 0.000949248 0)
(0.0522755 0.000958514 0)
(0.0509565 0.000967064 1.2601e-21)
(0.0496175 0.000974865 1.565e-21)
(0.04826 0.000982104 0)
(0.0468851 0.000988598 0)
(0.0454946 0.000994607 -2.53737e-21)
(0.0440888 0.00100001 2.88247e-21)
(0.0426697 0.0010049 0)
(0.0412377 0.00100928 0)
(0.0397945 0.00101312 3.98974e-21)
(0.0383411 0.00101641 0)
(0.0368792 0.0010192 0)
(0.03541 0.0010215 5.22172e-21)
(0.0339352 0.00102348 0)
(0.0324554 0.00102519 6.12554e-21)
(0.0309724 0.00102675 0)
(0.0294865 0.00102828 0)
(0.027999 0.00102988 0)
(0.0265101 0.0010317 -8.1813e-21)
(0.0250202 0.00103377 0)
(0.0235296 0.00103618 0)
(0.0220383 0.00103889 0)
(0.0205465 0.00104196 0)
(0.0190542 0.00104534 0)
(0.0175618 0.00104916 0)
(0.0160693 0.00105345 -1.29659e-20)
(0.0145767 0.00105839 -1.38321e-20)
(0.0130837 0.001064 0)
(0.0115903 0.00107038 0)
(0.0100962 0.00107739 0)
(0.00860128 0.00108478 1.80193e-20)
(0.0071062 0.001092 0)
(0.00561266 0.00109886 -4.14129e-20)
(0.00412393 0.00110335 4.45073e-20)
(0.00264733 0.00110089 4.7926e-20)
(0.00119174 0.00108064 -5.17091e-20)
(-0.000166601 0.0010362 5.39027e-20)
(-0.00167649 0.000886884 -5.30534e-20)
(-0.00204759 0.000528135 0)
(-0.00397299 0.00118638 -3.15006e-18)
(-0.00695401 0.000974055 -2.84426e-18)
(-0.00990733 0.000649965 0)
(-0.0129928 0.000343953 -4.81312e-18)
(-0.0162984 1.71025e-05 -8.93168e-18)
(-0.0198233 -0.000330399 -4.15978e-18)
(-0.0235797 -0.000699468 3.88572e-18)
(-0.0275897 -0.0010934 -2.40741e-35)
(-0.0318751 -0.00151567 0)
(-0.0364588 -0.00196867 3.20257e-18)
(-0.0413553 -0.00245927 3.00797e-18)
(-0.0465846 -0.00295367 0)
(-0.0521562 -0.00346342 0)
(-0.0581149 -0.00404193 0)
(-0.0645268 -0.00468885 -4.09542e-35)
(-0.0713987 -0.00539387 3.89794e-35)
(-0.0788674 -0.00615497 6.01853e-35)
(-0.0868159 -0.00697782 -3.71289e-18)
(-0.0957666 -0.00787021 -3.38184e-18)
(-0.104857 -0.00883906 6.01853e-36)
(-0.116383 -0.00990274 5.32071e-18)
(-0.125985 -0.0110719 8.83242e-18)
(-0.143343 -0.0123051 -6.01853e-36)
(-0.150824 -0.0138127 -4.26011e-18)
(-0.185353 -0.0161512 -1.50463e-35)
)
;
    }
    frontAndBack
    {
        type            empty;
    }
}


// ************************************************************************* //
