/*--------------------------------*- C++ -*----------------------------------*\
  =========                 |
  \\      /  F ield         | OpenFOAM: The Open Source CFD Toolbox
   \\    /   O peration     | Website:  https://openfoam.org
    \\  /    A nd           | Version:  8
     \\/     M anipulation  |
\*---------------------------------------------------------------------------*/
FoamFile
{
    version     2.0;
    format      ascii;
    class       surfaceScalarField;
    location    "3700";
    object      phi;
}
// * * * * * * * * * * * * * * * * * * * * * * * * * * * * * * * * * * * * * //

dimensions      [0 3 -1 0 0 0 0];

internalField   nonuniform List<scalar> 
24170
(
3.92539e-06
-7.91498e-07
3.76465e-06
1.6075e-07
3.63345e-06
1.31209e-07
3.43331e-06
2.00143e-07
3.28028e-06
1.53027e-07
3.18901e-06
9.11904e-08
3.13092e-06
5.81106e-08
3.08609e-06
4.58916e-08
3.04612e-06
4.23235e-08
3.01059e-06
3.81624e-08
2.97875e-06
3.3802e-08
2.94904e-06
3.077e-08
2.92187e-06
2.73778e-08
2.89642e-06
2.52003e-08
2.87227e-06
2.36057e-08
2.85194e-06
1.94833e-08
2.84098e-06
9.85813e-09
-6.39346e-09
2.8467e-06
3.58445e-06
-9.19499e-07
3.80424e-06
-5.90413e-08
3.74282e-06
1.92629e-07
3.6906e-06
2.52374e-07
3.63729e-06
2.06332e-07
3.59023e-06
1.3828e-07
3.55289e-06
9.55995e-08
3.52309e-06
7.56595e-08
3.49853e-06
6.65693e-08
3.47732e-06
5.9215e-08
3.45871e-06
5.25296e-08
3.44253e-06
4.72655e-08
3.42795e-06
4.23391e-08
3.41466e-06
3.87878e-08
3.40269e-06
3.57316e-08
3.39122e-06
3.10525e-08
3.38037e-06
2.08418e-08
4.77058e-09
3.36944e-06
3.68518e-06
-7.92482e-07
3.83639e-06
-2.10251e-07
3.91494e-06
1.14082e-07
3.94502e-06
2.22293e-07
3.94408e-06
2.07264e-07
3.92749e-06
1.54897e-07
3.90755e-06
1.15615e-07
3.88932e-06
9.36444e-08
3.874e-06
8.11967e-08
3.86056e-06
7.19164e-08
3.84834e-06
6.4257e-08
3.83728e-06
5.81367e-08
3.82692e-06
5.27807e-08
3.8174e-06
4.84767e-08
3.80891e-06
4.4435e-08
3.80098e-06
3.92538e-08
3.79196e-06
3.02065e-08
1.77901e-08
3.77944e-06
4.05359e-06
-6.4151e-07
4.1146e-06
-2.71259e-07
4.20799e-06
2.06914e-08
4.26635e-06
1.63932e-07
4.2907e-06
1.82926e-07
4.29287e-06
1.52748e-07
4.28571e-06
1.22818e-07
4.27631e-06
1.02843e-07
4.26727e-06
8.96866e-08
4.25873e-06
7.98185e-08
4.25056e-06
7.1951e-08
4.24283e-06
6.56364e-08
4.23535e-06
6.02481e-08
4.22824e-06
5.56948e-08
4.22149e-06
5.13538e-08
4.21464e-06
4.63458e-08
4.20599e-06
3.91828e-08
3.06551e-08
4.19351e-06
4.50491e-06
-5.09114e-07
4.51536e-06
-2.81708e-07
4.58529e-06
-4.92345e-08
4.64665e-06
1.02566e-07
4.68258e-06
1.46992e-07
4.69688e-06
1.38473e-07
4.69946e-06
1.20237e-07
4.69723e-06
1.04926e-07
4.69331e-06
9.32557e-08
4.68868e-06
8.40585e-08
4.68367e-06
7.66434e-08
4.67851e-06
7.06098e-08
4.67321e-06
6.54962e-08
4.66783e-06
6.11074e-08
4.66227e-06
5.70062e-08
4.65606e-06
5.27036e-08
4.64787e-06
4.75902e-08
4.2602e-08
4.63612e-06
5.00014e-06
-3.94663e-07
4.98614e-06
-2.67704e-07
5.03069e-06
-9.37793e-08
5.08506e-06
4.81976e-08
5.12454e-06
1.07516e-07
5.14609e-06
1.1694e-07
5.15584e-06
1.10489e-07
5.1594e-06
1.01285e-07
5.15985e-06
9.26085e-08
5.15859e-06
8.50848e-08
5.15629e-06
7.87444e-08
5.15333e-06
7.34443e-08
5.14984e-06
6.89354e-08
5.14589e-06
6.50652e-08
5.14136e-06
6.1588e-08
5.13584e-06
5.83102e-08
5.12839e-06
5.51482e-08
5.30499e-08
5.11808e-06
5.54382e-06
-2.97475e-07
5.51664e-06
-2.40529e-07
5.54055e-06
-1.17686e-07
5.58388e-06
4.86996e-09
5.62166e-06
6.9734e-08
5.64656e-06
9.20458e-08
5.66107e-06
9.59683e-08
5.66906e-06
9.32473e-08
5.67315e-06
8.8425e-08
5.67482e-06
8.33021e-08
5.67491e-06
7.85531e-08
5.6739e-06
7.4377e-08
5.67204e-06
7.07673e-08
5.6694e-06
6.76973e-08
5.66591e-06
6.5101e-08
5.66127e-06
6.2989e-08
5.65494e-06
6.15474e-08
6.15318e-08
5.6465e-06
4.34788e-06
-2.39242e-07
4.32251e-06
-2.15162e-07
4.33078e-06
-1.25951e-07
4.35419e-06
-1.85367e-08
4.3784e-06
4.55256e-08
4.39646e-06
7.39846e-08
4.40841e-06
8.40226e-08
4.41597e-06
8.56738e-08
4.42059e-06
8.37682e-08
4.42325e-06
8.05985e-08
4.42456e-06
7.71977e-08
4.4249e-06
7.4004e-08
4.42447e-06
7.11814e-08
4.42335e-06
6.88116e-08
4.42151e-06
6.69381e-08
4.41885e-06
6.56719e-08
4.41514e-06
6.52693e-08
6.63492e-08
4.41035e-06
5.08621e-06
-1.856e-07
5.05777e-06
-1.86718e-07
5.0584e-06
-1.26578e-07
5.07686e-06
-3.70028e-08
5.09918e-06
2.32136e-08
5.11773e-06
5.54359e-08
5.13124e-06
7.05069e-08
5.14059e-06
7.63168e-08
5.14686e-06
7.7476e-08
5.15094e-06
7.64978e-08
5.15344e-06
7.46771e-08
5.15477e-06
7.26674e-08
5.15514e-06
7.07979e-08
5.15468e-06
6.92654e-08
5.15341e-06
6.82112e-08
5.15128e-06
6.78142e-08
5.14821e-06
6.83512e-08
7.02727e-08
5.14429e-06
5.94839e-06
-1.38194e-07
5.91832e-06
-1.56649e-07
5.91161e-06
-1.19866e-07
5.924e-06
-4.93972e-08
5.94286e-06
4.3582e-09
5.96058e-06
3.77164e-08
5.9748e-06
5.62909e-08
5.98546e-06
6.56464e-08
5.9932e-06
6.97359e-08
5.99867e-06
7.10177e-08
6.00242e-06
7.0916e-08
6.00485e-06
7.02405e-08
6.00618e-06
6.94589e-08
6.00658e-06
6.8868e-08
6.0061e-06
6.86886e-08
6.00478e-06
6.91362e-08
6.00267e-06
7.04621e-08
7.29761e-08
5.99997e-06
6.95439e-06
-9.83131e-08
6.92402e-06
-1.26279e-07
6.91113e-06
-1.06984e-07
6.9168e-06
-5.50662e-08
6.93087e-06
-9.71096e-09
6.94635e-06
2.22389e-08
6.96015e-06
4.24925e-08
6.9714e-06
5.4396e-08
6.98017e-06
6.09614e-08
6.98684e-06
6.43478e-08
6.9918e-06
6.59554e-08
6.99538e-06
6.6665e-08
6.9978e-06
6.70309e-08
6.99924e-06
6.74245e-08
6.99982e-06
6.81137e-08
6.99963e-06
6.93247e-08
6.99883e-06
7.12677e-08
7.41296e-08
6.99768e-06
8.12719e-06
-6.64879e-08
8.09793e-06
-9.70215e-08
8.08056e-06
-8.96095e-08
8.07955e-06
-5.40594e-08
8.08793e-06
-1.809e-08
8.09985e-06
1.03222e-08
8.11198e-06
3.03583e-08
8.12286e-06
4.35216e-08
8.13202e-06
5.1795e-08
8.1395e-06
5.68675e-08
8.14548e-06
5.99753e-08
8.15018e-06
6.19699e-08
8.15378e-06
6.34312e-08
8.15645e-06
6.4757e-08
8.15833e-06
6.62335e-08
8.15958e-06
6.80742e-08
8.1604e-06
7.04411e-08
7.34394e-08
8.16109e-06
9.49368e-06
-4.24389e-08
9.4668e-06
-7.01434e-08
9.44683e-06
-6.96411e-08
9.43991e-06
-4.71327e-08
9.44229e-06
-2.04688e-08
9.44965e-06
2.95454e-09
9.45895e-06
2.10635e-08
9.4684e-06
3.40696e-08
9.47716e-06
4.30355e-08
9.48491e-06
4.91199e-08
9.49159e-06
5.32929e-08
9.49727e-06
5.62909e-08
9.50205e-06
5.86458e-08
9.50607e-06
6.07377e-08
9.50947e-06
6.28338e-08
9.51243e-06
6.512e-08
9.51515e-06
6.77145e-08
7.0671e-08
9.51792e-06
1.10854e-05
-2.51593e-08
1.10618e-05
-4.65034e-08
1.1041e-05
-4.88077e-08
1.10294e-05
-3.55528e-08
1.10261e-05
-1.7171e-08
1.10284e-05
6.03621e-10
1.1034e-05
1.54733e-08
1.10411e-05
2.69694e-08
1.10487e-05
3.54903e-08
1.10561e-05
4.17143e-08
1.1063e-05
4.63119e-08
1.10695e-05
4.98416e-08
1.10754e-05
5.27335e-08
1.10808e-05
5.53019e-08
1.10859e-05
5.77668e-08
1.10908e-05
6.02723e-08
1.10956e-05
6.28985e-08
6.56691e-08
1.11006e-05
1.29396e-05
-1.3119e-08
1.29194e-05
-2.62796e-08
1.28988e-05
-2.82532e-08
1.28839e-05
-2.06891e-08
1.28758e-05
-8.9974e-09
1.28732e-05
3.14311e-09
1.28748e-05
1.39381e-08
1.28789e-05
2.27864e-08
1.28847e-05
2.97424e-08
1.28913e-05
3.5141e-08
1.28982e-05
3.93812e-08
1.29052e-05
4.28262e-08
1.29122e-05
4.57679e-08
1.29191e-05
4.84234e-08
1.29259e-05
5.09417e-08
1.29327e-05
5.34145e-08
1.29398e-05
5.58848e-08
5.83558e-08
1.29471e-05
1.50998e-05
-4.4835e-09
1.50822e-05
-8.67721e-09
1.50621e-05
-8.11512e-09
1.50448e-05
-3.46009e-09
1.50327e-05
3.1076e-09
1.50259e-05
9.93628e-09
1.50237e-05
1.61592e-08
1.5025e-05
2.14614e-08
1.50289e-05
2.58502e-08
1.50346e-05
2.94816e-08
1.50414e-05
3.25514e-08
1.5049e-05
3.52402e-08
1.50571e-05
3.76911e-08
1.50655e-05
4.00055e-08
1.50742e-05
4.22459e-08
1.50832e-05
4.44415e-08
1.50925e-05
4.6595e-08
4.86882e-08
1.51021e-05
1.76171e-05
2.89262e-09
1.75999e-05
8.52174e-09
1.75787e-05
1.30277e-08
1.7559e-05
1.62756e-08
1.75436e-05
1.84697e-08
1.75336e-05
1.99546e-08
1.75287e-05
2.10485e-08
1.75282e-05
2.19897e-08
1.75311e-05
2.29353e-08
1.75366e-05
2.39812e-08
1.7544e-05
2.51731e-08
1.75527e-05
2.65242e-08
1.75624e-05
2.80229e-08
1.75727e-05
2.9644e-08
1.75836e-05
3.13506e-08
1.7595e-05
3.31017e-08
1.76067e-05
3.48515e-08
3.6555e-08
1.76188e-05
1.78181e-05
1.09998e-08
1.77994e-05
2.72109e-08
1.77768e-05
3.56219e-08
1.7756e-05
3.70555e-08
1.77402e-05
3.43229e-08
1.77302e-05
2.99422e-08
1.77257e-05
2.54957e-08
1.77259e-05
2.17726e-08
1.77298e-05
1.90697e-08
1.77364e-05
1.73944e-08
1.7745e-05
1.66274e-08
1.77549e-05
1.65989e-08
1.77658e-05
1.71382e-08
1.77773e-05
1.80875e-08
1.77894e-05
1.93143e-08
1.78018e-05
2.07051e-08
1.78144e-05
2.21699e-08
2.36332e-08
1.78274e-05
1.58702e-05
2.21329e-08
1.58478e-05
4.95797e-08
1.58233e-05
6.01298e-08
1.58032e-05
5.72315e-08
1.57899e-05
4.76064e-08
1.57834e-05
3.63669e-08
1.57827e-05
2.61915e-08
1.57864e-05
1.81405e-08
1.57931e-05
1.23584e-08
1.58019e-05
8.60587e-09
1.5812e-05
6.49079e-09
1.5823e-05
5.62437e-09
1.58345e-05
5.66242e-09
1.58462e-05
6.32927e-09
1.58581e-05
7.40371e-09
1.58701e-05
8.72144e-09
1.58822e-05
1.01545e-08
1.16117e-08
1.58942e-05
1.41313e-05
3.95383e-08
1.41021e-05
7.87053e-08
1.40745e-05
8.77855e-08
1.40557e-05
7.60351e-08
1.40469e-05
5.64092e-08
1.40462e-05
3.7034e-08
1.40512e-05
2.12041e-08
1.40597e-05
9.57488e-09
1.40704e-05
1.75515e-09
1.4082e-05
-3.05593e-09
1.40941e-05
-5.61037e-09
1.41063e-05
-6.56481e-09
1.41184e-05
-6.41571e-09
1.41303e-05
-5.55468e-09
1.4142e-05
-4.25165e-09
1.41534e-05
-2.70742e-09
1.41646e-05
-1.06068e-09
5.90879e-10
1.41756e-05
1.25772e-05
6.73552e-08
1.25392e-05
1.16738e-07
1.25091e-05
1.17887e-07
1.24942e-05
9.0888e-08
1.24928e-05
5.78095e-08
1.25002e-05
2.96773e-08
1.25122e-05
9.12374e-09
1.25264e-05
-4.50457e-09
1.25409e-05
-1.28438e-08
1.25552e-05
-1.73556e-08
1.25689e-05
-1.92899e-08
1.25819e-05
-1.95022e-08
1.25941e-05
-1.86526e-08
1.26057e-05
-1.71465e-08
1.26167e-05
-1.52904e-08
1.26273e-05
-1.32777e-08
1.26375e-05
-1.12367e-08
-9.2547e-09
1.26473e-05
1.11862e-05
1.10916e-07
1.11384e-05
1.64569e-07
1.11088e-05
1.47519e-07
1.11022e-05
9.74821e-08
1.11117e-05
4.83091e-08
1.11289e-05
1.2396e-08
1.11486e-05
-1.04684e-08
1.11678e-05
-2.37361e-08
1.11855e-05
-3.05173e-08
1.12014e-05
-3.32995e-08
1.12157e-05
-3.35612e-08
1.12285e-05
-3.23627e-08
1.12402e-05
-3.03005e-08
1.12509e-05
-2.78418e-08
1.12608e-05
-2.52249e-08
1.12702e-05
-2.26062e-08
1.1279e-05
-2.00862e-08
-1.77068e-08
1.12875e-05
9.93908e-06
1.76451e-07
9.88248e-06
2.21162e-07
9.85873e-06
1.71261e-07
9.86593e-06
9.02735e-08
9.8896e-06
2.46356e-08
9.91759e-06
-1.55604e-08
9.94391e-06
-3.68018e-08
9.96668e-06
-4.64186e-08
9.98571e-06
-4.96213e-08
1.00017e-05
-4.92983e-08
1.00153e-05
-4.71371e-08
1.00269e-05
-4.40046e-08
1.00372e-05
-4.05351e-08
1.00463e-05
-3.69879e-08
1.00546e-05
-3.35455e-08
1.00624e-05
-3.03117e-08
1.00696e-05
-2.73073e-08
-2.45711e-08
1.00765e-05
8.81963e-06
2.69916e-07
8.75785e-06
2.82943e-07
8.74788e-06
1.81225e-07
8.77481e-06
6.33216e-08
8.81457e-06
-1.51314e-08
8.85211e-06
-5.30957e-08
8.88268e-06
-6.72354e-08
8.90623e-06
-7.00348e-08
8.92427e-06
-6.76299e-08
8.93843e-06
-6.33857e-08
8.94986e-06
-5.84182e-08
8.95927e-06
-5.33534e-08
8.96729e-06
-4.84867e-08
8.97431e-06
-4.39788e-08
8.9806e-06
-3.98369e-08
8.98639e-06
-3.60677e-08
8.99179e-06
-3.2711e-08
-2.9681e-08
8.99694e-06
7.81391e-06
3.96675e-07
7.75391e-06
3.42943e-07
7.76868e-06
1.6644e-07
7.82053e-06
1.14601e-08
7.87566e-06
-7.02757e-08
7.91912e-06
-9.64941e-08
7.94966e-06
-9.78403e-08
7.97057e-06
-9.06588e-08
7.98484e-06
-8.16029e-08
7.99525e-06
-7.35708e-08
8.00317e-06
-6.61383e-08
8.0094e-06
-5.94409e-08
8.01452e-06
-5.33563e-08
8.01894e-06
-4.82152e-08
8.02285e-06
-4.36854e-08
8.02641e-06
-3.96566e-08
8.02978e-06
-3.61036e-08
-3.29598e-08
8.03305e-06
6.90424e-06
5.66768e-07
6.86137e-06
3.85804e-07
6.91716e-06
1.10634e-07
6.99674e-06
-6.81335e-08
7.06253e-06
-1.36072e-07
7.10528e-06
-1.3927e-07
7.13031e-06
-1.22553e-07
7.14446e-06
-1.04625e-07
7.15207e-06
-8.90115e-08
7.15709e-06
-7.58292e-08
7.16038e-06
-6.67089e-08
7.16271e-06
-5.95931e-08
7.16422e-06
-5.41876e-08
7.16561e-06
-4.94116e-08
7.16682e-06
-4.49475e-08
7.16791e-06
-4.09119e-08
7.16902e-06
-3.74703e-08
-3.486e-08
7.17026e-06
6.07162e-06
7.97662e-07
6.08526e-06
3.72164e-07
6.19865e-06
-2.77334e-09
6.29989e-06
-1.69398e-07
6.36525e-06
-2.01462e-07
6.39753e-06
-1.71504e-07
6.4101e-06
-1.35219e-07
6.41341e-06
-1.06957e-07
6.41238e-06
-8.58194e-08
6.40988e-06
-7.40499e-08
6.40749e-06
-6.45637e-08
6.40488e-06
-5.76331e-08
6.40239e-06
-5.13666e-08
6.40038e-06
-4.68869e-08
6.3985e-06
-4.30426e-08
6.3967e-06
-3.93952e-08
6.39497e-06
-3.67813e-08
-3.49563e-08
6.39415e-06
5.35805e-06
1.05451e-06
5.50649e-06
2.23717e-07
5.64777e-06
-1.44085e-07
5.73564e-06
-2.57314e-07
5.77646e-06
-2.42346e-07
5.78323e-06
-1.78423e-07
5.77527e-06
-1.26645e-07
5.76327e-06
-9.40107e-08
5.74975e-06
-7.56763e-08
5.7393e-06
-6.4001e-08
5.73029e-06
-5.65905e-08
5.72233e-06
-5.00138e-08
5.71447e-06
-4.473e-08
5.7079e-06
-4.05371e-08
5.70198e-06
-3.70713e-08
5.69635e-06
-3.40403e-08
5.69144e-06
-3.15691e-08
-3.16827e-08
5.68729e-06
5.04576e-06
1.01105e-06
5.36491e-06
-9.54502e-08
5.35251e-06
-1.31767e-07
5.33284e-06
-2.37745e-07
5.296e-06
-2.05651e-07
5.25016e-06
-1.32587e-07
5.2089e-06
-8.47353e-08
5.17485e-06
-6.08273e-08
5.14636e-06
-4.98319e-08
5.12484e-06
-4.29204e-08
5.10671e-06
-3.93963e-08
5.09047e-06
-3.57038e-08
5.07532e-06
-3.15842e-08
5.06219e-06
-2.78954e-08
5.05016e-06
-2.496e-08
5.03935e-06
-2.25953e-08
5.02954e-06
-2.1146e-08
-2.24007e-08
5.02164e-06
5.4676e-06
5.37214e-06
5.24037e-06
5.0026e-06
4.79694e-06
4.66444e-06
4.57966e-06
4.51835e-06
4.46847e-06
4.42537e-06
4.38564e-06
4.34945e-06
4.31773e-06
4.28985e-06
4.26502e-06
4.24264e-06
4.22194e-06
4.20041e-06
2.31278e-08
-2.31288e-08
2.37204e-07
-2.14081e-07
4.8933e-07
-2.52096e-07
7.09597e-07
-2.20247e-07
8.77314e-07
-1.67698e-07
9.88443e-07
-1.11121e-07
1.04411e-06
-5.56532e-08
1.04653e-06
-2.42313e-09
1.00103e-06
4.55112e-08
9.17753e-07
8.32659e-08
8.11955e-07
1.05809e-07
7.02766e-07
1.09174e-07
6.09984e-07
9.27788e-08
5.43696e-07
6.62966e-08
4.92554e-07
5.11603e-08
4.33375e-07
5.98795e-08
3.47068e-07
8.61666e-08
2.21967e-07
1.25871e-07
4.36618e-08
1.77887e-07
-2.01804e-07
2.44834e-07
-5.0434e-07
3.0228e-07
-8.45331e-07
3.40739e-07
-1.20967e-06
3.64348e-07
-1.58707e-06
3.77407e-07
-1.96867e-06
3.81641e-07
-2.3445e-06
3.75852e-07
-2.70654e-06
3.62059e-07
-3.04961e-06
3.43089e-07
-3.36991e-06
3.20306e-07
-3.66508e-06
2.95178e-07
-3.93427e-06
2.69194e-07
-4.17779e-06
2.43528e-07
-4.39668e-06
2.18886e-07
-4.5924e-06
1.95725e-07
-4.76667e-06
1.7427e-07
-4.92127e-06
1.54603e-07
-5.05796e-06
1.36687e-07
-5.17836e-06
1.20402e-07
-5.28395e-06
1.0559e-07
-5.37602e-06
9.20692e-08
-5.45568e-06
7.96578e-08
-5.52386e-06
6.81835e-08
-5.58135e-06
5.74909e-08
-5.6288e-06
4.7446e-08
-5.66674e-06
3.79399e-08
-5.69562e-06
2.88853e-08
-5.71583e-06
2.02108e-08
-5.72772e-06
1.18866e-08
-5.73176e-06
4.04064e-09
-5.72882e-06
-2.93904e-09
-5.71999e-06
-8.83761e-09
-5.70602e-06
-1.39643e-08
-5.68734e-06
-1.86807e-08
-5.66419e-06
-2.31481e-08
-5.63675e-06
-2.74447e-08
-5.60515e-06
-3.15985e-08
-5.56953e-06
-3.56243e-08
-5.53e-06
-3.9529e-08
-5.48668e-06
-4.33136e-08
-5.43971e-06
-4.6977e-08
-5.38919e-06
-5.05167e-08
-5.33526e-06
-5.39292e-08
-5.27805e-06
-5.7211e-08
-5.21769e-06
-6.0359e-08
-5.15432e-06
-6.33705e-08
-5.08808e-06
-6.62426e-08
-5.01911e-06
-6.89717e-08
-4.94755e-06
-7.15557e-08
-4.87356e-06
-7.39927e-08
-4.79728e-06
-7.62816e-08
-4.71885e-06
-7.84217e-08
-4.63844e-06
-8.04126e-08
-4.55619e-06
-8.22545e-08
-4.47224e-06
-8.39482e-08
-4.38674e-06
-8.54948e-08
-4.29985e-06
-8.68961e-08
-4.21169e-06
-8.8154e-08
-4.12242e-06
-8.92712e-08
-4.03217e-06
-9.02506e-08
-3.94107e-06
-9.10959e-08
-3.84926e-06
-9.18108e-08
-3.75686e-06
-9.23998e-08
-3.664e-06
-9.28679e-08
-3.57078e-06
-9.32205e-08
-3.47731e-06
-9.3464e-08
-3.38371e-06
-9.36053e-08
-3.29005e-06
-9.3653e-08
-3.19644e-06
-9.36175e-08
-3.10292e-06
-9.35116e-08
-3.00957e-06
-9.33512e-08
-2.91642e-06
-9.31571e-08
-2.82346e-06
-9.29546e-08
-2.7307e-06
-9.27616e-08
-2.63814e-06
-9.25579e-08
-2.54588e-06
-9.22585e-08
-2.45412e-06
-9.17618e-08
-2.36314e-06
-9.09826e-08
-2.2732e-06
-8.9938e-08
-2.18442e-06
-8.87848e-08
-2.09679e-06
-8.76301e-08
-2.01031e-06
-8.6474e-08
-1.92501e-06
-8.53006e-08
-1.84091e-06
-8.41026e-08
-1.75803e-06
-8.28791e-08
-1.6764e-06
-8.16326e-08
-1.59604e-06
-8.03668e-08
-1.51695e-06
-7.90856e-08
-1.43916e-06
-7.77916e-08
-1.36268e-06
-7.64828e-08
-1.28754e-06
-7.51385e-08
-1.21377e-06
-7.37707e-08
-1.14136e-06
-7.24071e-08
-1.07032e-06
-7.10428e-08
-1.00064e-06
-6.96789e-08
-9.32328e-07
-6.83165e-08
-8.65372e-07
-6.69571e-08
-7.9977e-07
-6.56029e-08
-7.35515e-07
-6.42565e-08
-6.72596e-07
-6.292e-08
-6.11004e-07
-6.15927e-08
-5.50729e-07
-6.02752e-08
-4.9176e-07
-5.89704e-08
-4.34076e-07
-5.76844e-08
-3.77654e-07
-5.64226e-08
-3.22473e-07
-5.5181e-08
-2.68518e-07
-5.39561e-08
-2.15766e-07
-5.2752e-08
-1.64198e-07
-5.15678e-08
-1.13806e-07
-5.03917e-08
-6.45827e-08
-4.92235e-08
-1.66489e-08
-4.79332e-08
3.01269e-08
-4.6775e-08
7.60518e-08
-4.59239e-08
1.21019e-07
-4.49664e-08
1.64927e-07
-4.39061e-08
2.0777e-07
-4.28421e-08
2.49567e-07
-4.17952e-08
2.90347e-07
-4.07782e-08
3.30142e-07
-3.97931e-08
3.68982e-07
-3.88384e-08
4.06897e-07
-3.79124e-08
4.43912e-07
-3.70135e-08
4.80055e-07
-3.61407e-08
5.1535e-07
-3.52932e-08
5.49823e-07
-3.44707e-08
5.83497e-07
-3.36727e-08
6.16398e-07
-3.2899e-08
6.48549e-07
-3.21493e-08
6.79974e-07
-3.14238e-08
7.10698e-07
-3.07224e-08
7.40744e-07
-3.0045e-08
7.70136e-07
-2.93916e-08
7.98899e-07
-2.87624e-08
8.27057e-07
-2.81572e-08
8.54634e-07
-2.75762e-08
8.81653e-07
-2.70192e-08
9.08139e-07
-2.6486e-08
9.34116e-07
-2.59765e-08
9.59607e-07
-2.54901e-08
9.84633e-07
-2.5026e-08
1.00922e-06
-2.45829e-08
1.03337e-06
-2.41589e-08
1.05713e-06
-2.37513e-08
1.08048e-06
-2.33559e-08
1.10345e-06
-2.29671e-08
1.12603e-06
-2.25768e-08
1.1482e-06
-2.21735e-08
1.16994e-06
-2.17415e-08
1.1912e-06
-2.12587e-08
1.21189e-06
-2.0694e-08
1.2319e-06
-2.00031e-08
1.25102e-06
-1.91223e-08
1.26897e-06
-1.79542e-08
1.28533e-06
-1.63545e-08
1.29937e-06
-1.4048e-08
1.31e-06
-1.06244e-08
1.31457e-06
-4.56047e-09
1.30772e-06
6.85404e-09
1.27818e-06
2.95332e-08
7.23251e-08
1.20585e-06
2.54186e-07
-2.77336e-07
4.90088e-07
-4.4998e-07
6.39675e-07
-4.01679e-07
7.24308e-07
-3.04879e-07
7.63824e-07
-2.07204e-07
7.69771e-07
-1.17072e-07
7.4884e-07
-3.47165e-08
7.06658e-07
3.97505e-08
6.46299e-07
1.05876e-07
5.67671e-07
1.61883e-07
4.70058e-07
2.03429e-07
3.51788e-07
2.27432e-07
2.06827e-07
2.37747e-07
2.36295e-08
2.49509e-07
-2.08588e-07
2.83384e-07
-4.9423e-07
3.45615e-07
-8.32192e-07
4.24217e-07
-1.21205e-06
5.05746e-07
-1.61587e-06
5.81664e-07
-2.01731e-06
6.46222e-07
-2.40734e-06
6.92255e-07
-2.78282e-06
7.16204e-07
-3.13776e-06
7.19292e-07
-3.46519e-06
7.04837e-07
-3.75995e-06
6.7641e-07
-4.0211e-06
6.37003e-07
-4.24904e-06
5.90005e-07
-4.44505e-06
5.39109e-07
-4.61205e-06
4.87305e-07
-4.75353e-06
4.36666e-07
-4.87288e-06
3.88542e-07
-4.97326e-06
3.43906e-07
-5.05754e-06
3.03172e-07
-5.12824e-06
2.66427e-07
-5.18748e-06
2.33509e-07
-5.23699e-06
2.04114e-07
-5.27818e-06
1.77874e-07
-5.31218e-06
1.54397e-07
-5.33989e-06
1.333e-07
-5.36205e-06
1.14233e-07
-5.37927e-06
9.68839e-08
-5.39208e-06
8.09873e-08
-5.40091e-06
6.63212e-08
-5.40617e-06
5.27038e-08
-5.40822e-06
3.99883e-08
-5.40739e-06
2.80598e-08
-5.40402e-06
1.68405e-08
-5.39843e-06
6.2955e-09
-5.39077e-06
-3.61911e-09
-5.38062e-06
-1.30931e-08
-5.36709e-06
-2.23665e-08
-5.34958e-06
-3.14687e-08
-5.32793e-06
-4.03338e-08
-5.30212e-06
-4.89583e-08
-5.27222e-06
-5.7349e-08
-5.2383e-06
-6.5512e-08
-5.20048e-06
-7.34503e-08
-5.15884e-06
-8.11632e-08
-5.11351e-06
-8.86475e-08
-5.06459e-06
-9.58976e-08
-5.0122e-06
-1.02907e-07
-4.95646e-06
-1.09667e-07
-4.8975e-06
-1.16171e-07
-4.83545e-06
-1.22411e-07
-4.77043e-06
-1.28384e-07
-4.7026e-06
-1.34081e-07
-4.63207e-06
-1.39497e-07
-4.559e-06
-1.44625e-07
-4.48353e-06
-1.49464e-07
-4.4058e-06
-1.5401e-07
-4.32596e-06
-1.58262e-07
-4.24415e-06
-1.6222e-07
-4.16052e-06
-1.65884e-07
-4.07522e-06
-1.69255e-07
-3.98838e-06
-1.72335e-07
-3.90015e-06
-1.75128e-07
-3.81066e-06
-1.77638e-07
-3.72006e-06
-1.79871e-07
-3.62848e-06
-1.81831e-07
-3.53605e-06
-1.83526e-07
-3.4429e-06
-1.84964e-07
-3.34914e-06
-1.86153e-07
-3.25491e-06
-1.87102e-07
-3.16031e-06
-1.87821e-07
-3.06545e-06
-1.8832e-07
-2.97045e-06
-1.88612e-07
-2.87539e-06
-1.88707e-07
-2.78039e-06
-1.8862e-07
-2.68554e-06
-1.88363e-07
-2.59094e-06
-1.87949e-07
-2.49671e-06
-1.8739e-07
-2.40297e-06
-1.86692e-07
-2.30988e-06
-1.85851e-07
-2.2176e-06
-1.84839e-07
-2.12625e-06
-1.83612e-07
-2.03587e-06
-1.8214e-07
-1.94643e-06
-1.8042e-07
-1.85788e-06
-1.78492e-07
-1.77023e-06
-1.76434e-07
-1.68356e-06
-1.74299e-07
-1.59793e-06
-1.721e-07
-1.5134e-06
-1.69839e-07
-1.42998e-06
-1.67518e-07
-1.34772e-06
-1.65139e-07
-1.26665e-06
-1.62708e-07
-1.18678e-06
-1.60232e-07
-1.10815e-06
-1.57714e-07
-1.03079e-06
-1.55159e-07
-9.54703e-07
-1.52568e-07
-8.799e-07
-1.49942e-07
-8.06377e-07
-1.47295e-07
-7.34146e-07
-1.44638e-07
-6.63213e-07
-1.41977e-07
-5.93578e-07
-1.39314e-07
-5.25241e-07
-1.36654e-07
-4.58201e-07
-1.33998e-07
-3.92453e-07
-1.31351e-07
-3.27994e-07
-1.28717e-07
-2.64812e-07
-1.26103e-07
-2.02897e-07
-1.23508e-07
-1.4224e-07
-1.20933e-07
-8.28301e-08
-1.18381e-07
-2.46605e-08
-1.15855e-07
3.22829e-08
-1.13366e-07
8.80279e-08
-1.10926e-07
1.42592e-07
-1.0852e-07
1.95985e-07
-1.06145e-07
2.48223e-07
-1.03806e-07
2.99333e-07
-1.01501e-07
3.49344e-07
-9.92341e-08
3.98413e-07
-9.70028e-08
4.46516e-07
-9.48774e-08
4.93435e-07
-9.28424e-08
5.39238e-07
-9.07688e-08
5.84002e-07
-8.86702e-08
6.2776e-07
-8.65992e-08
6.7054e-07
-8.45751e-08
7.12368e-07
-8.26046e-08
7.53265e-07
-8.06892e-08
7.93255e-07
-7.88276e-08
8.32361e-07
-7.70182e-08
8.70608e-07
-7.52594e-08
9.08019e-07
-7.355e-08
9.44616e-07
-7.18891e-08
9.80422e-07
-7.02761e-08
1.01546e-06
-6.87105e-08
1.04975e-06
-6.71921e-08
1.08333e-06
-6.57206e-08
1.1162e-06
-6.42961e-08
1.1484e-06
-6.29185e-08
1.17994e-06
-6.15877e-08
1.21085e-06
-6.03039e-08
1.24116e-06
-5.90669e-08
1.27088e-06
-5.78768e-08
1.30004e-06
-5.67334e-08
1.32865e-06
-5.56367e-08
1.35675e-06
-5.4586e-08
1.38436e-06
-5.35808e-08
1.41149e-06
-5.26199e-08
1.43816e-06
-5.17014e-08
1.4644e-06
-5.08228e-08
1.49022e-06
-4.998e-08
1.51564e-06
-4.91677e-08
1.54066e-06
-4.83778e-08
1.5653e-06
-4.75994e-08
1.58954e-06
-4.6817e-08
1.61337e-06
-4.60094e-08
1.63678e-06
-4.51471e-08
1.65971e-06
-4.41889e-08
1.68209e-06
-4.30774e-08
1.70382e-06
-4.17308e-08
1.72473e-06
-4.00312e-08
1.74457e-06
-3.78018e-08
1.76299e-06
-3.47733e-08
1.77943e-06
-3.04848e-08
1.79299e-06
-2.41841e-08
1.80271e-06
-1.42774e-08
1.80758e-06
1.99288e-09
1.80569e-06
3.14181e-08
8.80244e-08
1.78998e-06
2.46012e-07
-5.23368e-07
3.42328e-07
-5.463e-07
3.58617e-07
-4.17966e-07
3.47574e-07
-2.93826e-07
3.19873e-07
-1.79498e-07
2.75791e-07
-7.29893e-08
2.14615e-07
2.64616e-08
1.35296e-07
1.19065e-07
3.67718e-08
2.04401e-07
-8.31208e-08
2.81772e-07
-2.30087e-07
3.50395e-07
-4.14646e-07
4.11991e-07
-6.50209e-07
4.73307e-07
-9.43697e-07
5.43001e-07
-1.28495e-06
6.24633e-07
-1.65205e-06
7.12716e-07
-2.02416e-06
7.96323e-07
-2.38442e-06
8.65991e-07
-2.71893e-06
9.16162e-07
-3.01715e-06
9.44434e-07
-3.27522e-06
9.50323e-07
-3.49412e-06
9.35106e-07
-3.67683e-06
9.02005e-07
-3.82739e-06
8.55403e-07
-3.95053e-06
7.99553e-07
-4.05166e-06
7.38138e-07
-4.13612e-06
6.74459e-07
-4.20828e-06
6.11276e-07
-4.2716e-06
5.5062e-07
-4.32868e-06
4.93746e-07
-4.38139e-06
4.41259e-07
-4.43088e-06
3.93396e-07
-4.47778e-06
3.5007e-07
-4.52235e-06
3.11001e-07
-4.56464e-06
2.75799e-07
-4.60455e-06
2.44024e-07
-4.64192e-06
2.15237e-07
-4.67654e-06
1.89021e-07
-4.70824e-06
1.64999e-07
-4.73685e-06
1.42842e-07
-4.76223e-06
1.22265e-07
-4.78428e-06
1.03033e-07
-4.8029e-06
8.49453e-08
-4.81803e-06
6.78382e-08
-4.82962e-06
5.15714e-08
-4.83758e-06
3.6026e-08
-4.84184e-06
2.10999e-08
-4.84225e-06
6.69952e-09
-4.83858e-06
-7.28197e-09
-4.83072e-06
-2.09588e-08
-4.81869e-06
-3.43907e-08
-4.8026e-06
-4.75653e-08
-4.78247e-06
-6.04602e-08
-4.75836e-06
-7.3067e-08
-4.73033e-06
-8.53794e-08
-4.69845e-06
-9.73915e-08
-4.66281e-06
-1.09097e-07
-4.62348e-06
-1.20486e-07
-4.58058e-06
-1.31549e-07
-4.53421e-06
-1.42274e-07
-4.48446e-06
-1.5265e-07
-4.43147e-06
-1.62664e-07
-4.37534e-06
-1.723e-07
-4.3162e-06
-1.8155e-07
-4.25418e-06
-1.90406e-07
-4.1894e-06
-1.98856e-07
-4.12201e-06
-2.0689e-07
-4.05213e-06
-2.14502e-07
-3.97991e-06
-2.21685e-07
-3.90548e-06
-2.28436e-07
-3.82899e-06
-2.34752e-07
-3.75058e-06
-2.40632e-07
-3.67039e-06
-2.46076e-07
-3.58856e-06
-2.51086e-07
-3.50523e-06
-2.55666e-07
-3.42054e-06
-2.59819e-07
-3.33462e-06
-2.63553e-07
-3.24762e-06
-2.66873e-07
-3.15966e-06
-2.69789e-07
-3.07088e-06
-2.72311e-07
-2.98139e-06
-2.74448e-07
-2.89133e-06
-2.76212e-07
-2.80082e-06
-2.77616e-07
-2.70997e-06
-2.78673e-07
-2.61889e-06
-2.79398e-07
-2.5277e-06
-2.79804e-07
-2.4365e-06
-2.79908e-07
-2.34539e-06
-2.79723e-07
-2.25449e-06
-2.79264e-07
-2.1639e-06
-2.78544e-07
-2.07371e-06
-2.77575e-07
-1.98404e-06
-2.76362e-07
-1.89499e-06
-2.74905e-07
-1.80664e-06
-2.73192e-07
-1.71904e-06
-2.71206e-07
-1.63224e-06
-2.68945e-07
-1.54623e-06
-2.66425e-07
-1.46104e-06
-2.63683e-07
-1.37671e-06
-2.60764e-07
-1.29331e-06
-2.57703e-07
-1.21089e-06
-2.54521e-07
-1.1295e-06
-2.51228e-07
-1.04918e-06
-2.47836e-07
-9.69969e-07
-2.44353e-07
-8.91889e-07
-2.40789e-07
-8.14969e-07
-2.37152e-07
-7.39231e-07
-2.33452e-07
-6.64696e-07
-2.29694e-07
-5.91376e-07
-2.25888e-07
-5.19279e-07
-2.2204e-07
-4.48413e-07
-2.18162e-07
-3.78787e-07
-2.14265e-07
-3.10407e-07
-2.10356e-07
-2.43277e-07
-2.06445e-07
-1.77395e-07
-2.02536e-07
-1.12761e-07
-1.98633e-07
-4.93694e-08
-1.94743e-07
1.27852e-08
-1.90872e-07
7.37073e-08
-1.87025e-07
1.33405e-07
-1.83206e-07
1.91891e-07
-1.79419e-07
2.49177e-07
-1.75668e-07
3.0528e-07
-1.71958e-07
3.60211e-07
-1.68297e-07
4.13976e-07
-1.64691e-07
4.6659e-07
-1.61135e-07
5.18075e-07
-1.5763e-07
5.68448e-07
-1.54179e-07
6.17733e-07
-1.50786e-07
6.65958e-07
-1.47459e-07
7.13166e-07
-1.44211e-07
7.59341e-07
-1.41052e-07
8.04447e-07
-1.37949e-07
8.48535e-07
-1.34856e-07
8.91647e-07
-1.31782e-07
9.33807e-07
-1.28759e-07
9.75034e-07
-1.25802e-07
1.01535e-06
-1.22917e-07
1.05476e-06
-1.20106e-07
1.09331e-06
-1.1737e-07
1.13099e-06
-1.14707e-07
1.16785e-06
-1.12116e-07
1.2039e-06
-1.09597e-07
1.23916e-06
-1.07148e-07
1.27365e-06
-1.04769e-07
1.3074e-06
-1.0246e-07
1.34043e-06
-1.0022e-07
1.37276e-06
-9.80491e-08
1.40441e-06
-9.59471e-08
1.43541e-06
-9.3914e-08
1.46577e-06
-9.19499e-08
1.49552e-06
-9.00547e-08
1.52468e-06
-8.82284e-08
1.55328e-06
-8.64711e-08
1.58133e-06
-8.47825e-08
1.60885e-06
-8.31622e-08
1.63587e-06
-8.16097e-08
1.66242e-06
-8.01238e-08
1.6885e-06
-7.87029e-08
1.71414e-06
-7.73442e-08
1.73937e-06
-7.6044e-08
1.76418e-06
-7.47965e-08
1.78861e-06
-7.35939e-08
1.81265e-06
-7.24249e-08
1.83633e-06
-7.12739e-08
1.85963e-06
-7.01192e-08
1.88255e-06
-6.89309e-08
1.90507e-06
-6.76676e-08
1.92716e-06
-6.62722e-08
1.94874e-06
-6.46643e-08
1.96974e-06
-6.27309e-08
1.99002e-06
-6.03093e-08
2.00938e-06
-5.71587e-08
2.02752e-06
-5.29159e-08
2.04402e-06
-4.69902e-08
2.05828e-06
-3.8442e-08
2.06952e-06
-2.55116e-08
2.07686e-06
-5.35527e-09
2.08077e-06
2.75151e-08
8.54838e-08
2.08331e-06
9.37376e-08
-6.17115e-07
6.23956e-08
-5.1497e-07
1.39132e-08
-3.69475e-07
-4.31771e-08
-2.36728e-07
-1.12673e-07
-1.09995e-07
-1.98045e-07
1.23861e-08
-3.02275e-07
1.30693e-07
-4.2778e-07
2.44571e-07
-5.77136e-07
3.53757e-07
-7.53727e-07
4.58363e-07
-9.6231e-07
5.58976e-07
-1.2072e-06
6.56883e-07
-1.48719e-06
7.53293e-07
-1.79148e-06
8.47286e-07
-2.10137e-06
9.34514e-07
-2.39723e-06
1.00856e-06
-2.66457e-06
1.06365e-06
-2.89512e-06
1.09653e-06
-3.08562e-06
1.10665e-06
-3.23688e-06
1.09569e-06
-3.35326e-06
1.0667e-06
-3.4413e-06
1.02315e-06
-3.50812e-06
9.68827e-07
-3.56023e-06
9.07524e-07
-3.60313e-06
8.42455e-07
-3.64125e-06
7.76254e-07
-3.67782e-06
7.11034e-07
-3.71489e-06
6.48342e-07
-3.75345e-06
5.89182e-07
-3.79378e-06
5.34074e-07
-3.83569e-06
4.83172e-07
-3.87869e-06
4.36398e-07
-3.92214e-06
3.93517e-07
-3.96535e-06
3.5421e-07
-4.00767e-06
3.18115e-07
-4.0485e-06
2.8486e-07
-4.08736e-06
2.54089e-07
-4.12381e-06
2.25471e-07
-4.15751e-06
1.98705e-07
-4.1882e-06
1.73528e-07
-4.21564e-06
1.4971e-07
-4.23966e-06
1.27054e-07
-4.26011e-06
1.05395e-07
-4.27687e-06
8.45908e-08
-4.28982e-06
6.4522e-08
-4.29888e-06
4.50867e-08
-4.30398e-06
2.6199e-08
-4.30506e-06
7.7819e-09
-4.3021e-06
-1.02383e-08
-4.29514e-06
-2.79226e-08
-4.28423e-06
-4.52991e-08
-4.26943e-06
-6.23647e-08
-4.25079e-06
-7.91065e-08
-4.22834e-06
-9.55119e-08
-4.20215e-06
-1.11568e-07
-4.17229e-06
-1.27259e-07
-4.13881e-06
-1.4257e-07
-4.10181e-06
-1.57485e-07
-4.06137e-06
-1.71986e-07
-4.01759e-06
-1.86055e-07
-3.97057e-06
-1.99673e-07
-3.92041e-06
-2.12823e-07
-3.86723e-06
-2.25483e-07
-3.81114e-06
-2.37639e-07
-3.75227e-06
-2.4928e-07
-3.69073e-06
-2.60391e-07
-3.62666e-06
-2.70958e-07
-3.56019e-06
-2.80972e-07
-3.49145e-06
-2.90425e-07
-3.42058e-06
-2.99312e-07
-3.3477e-06
-3.07627e-07
-3.27296e-06
-3.15371e-07
-3.19649e-06
-3.22541e-07
-3.11844e-06
-3.29142e-07
-3.03893e-06
-3.35177e-07
-2.9581e-06
-3.4065e-07
-2.87608e-06
-3.45571e-07
-2.793e-06
-3.49948e-07
-2.709e-06
-3.53792e-07
-2.6242e-06
-3.57114e-07
-2.53872e-06
-3.59929e-07
-2.45268e-06
-3.6225e-07
-2.3662e-06
-3.64094e-07
-2.2794e-06
-3.65477e-07
-2.19238e-06
-3.66416e-07
-2.10525e-06
-3.66929e-07
-2.01813e-06
-3.67034e-07
-1.9311e-06
-3.66748e-07
-1.84428e-06
-3.66089e-07
-1.75775e-06
-3.65072e-07
-1.67161e-06
-3.63712e-07
-1.58595e-06
-3.62019e-07
-1.50086e-06
-3.60001e-07
-1.41639e-06
-3.57658e-07
-1.3326e-06
-3.54994e-07
-1.24953e-06
-3.52017e-07
-1.16721e-06
-3.48748e-07
-1.08567e-06
-3.45218e-07
-1.00498e-06
-3.41462e-07
-9.25168e-07
-3.37511e-07
-8.46301e-07
-3.33388e-07
-7.68419e-07
-3.29111e-07
-6.91559e-07
-3.24695e-07
-6.15756e-07
-3.20157e-07
-5.41037e-07
-3.15508e-07
-4.67429e-07
-3.10761e-07
-3.94953e-07
-3.05928e-07
-3.23628e-07
-3.0102e-07
-2.53466e-07
-2.9605e-07
-1.84478e-07
-2.91028e-07
-1.16673e-07
-2.85967e-07
-5.00597e-08
-2.80878e-07
1.53565e-08
-2.75773e-07
7.9571e-08
-2.7066e-07
1.42582e-07
-2.65548e-07