/*--------------------------------*- C++ -*----------------------------------*\
  =========                 |
  \\      /  F ield         | OpenFOAM: The Open Source CFD Toolbox
   \\    /   O peration     | Website:  https://openfoam.org
    \\  /    A nd           | Version:  8
     \\/     M anipulation  |
\*---------------------------------------------------------------------------*/
FoamFile
{
    version     2.0;
    format      ascii;
    class       volVectorField;
    location    "3700";
    object      U;
}
// * * * * * * * * * * * * * * * * * * * * * * * * * * * * * * * * * * * * * //

dimensions      [0 1 -1 0 0 0 0];

internalField   nonuniform List<vector> 
12225
(
(9.2745 -4.73371 0)
(13.1094 -1.71343 0)
(12.4778 -0.395198 0)
(11.2771 -0.0422042 0)
(10.6314 0.0141382 0)
(10.2979 -9.41386e-05 0)
(10.0776 -0.0165234 0)
(9.91228 -0.00288851 0)
(9.77909 0.0348743 0)
(9.66231 0.0428928 0)
(9.55574 0.024884 0)
(9.45766 0.00214357 0)
(9.36675 -0.02279 0)
(9.28211 -0.0302233 0)
(9.20233 -0.0217857 0)
(9.13254 -0.0212264 0)
(9.07018 -0.021037 0)
(9.08956 -0.0277132 0)
(10.2592 0.0928019 0)
(10.7814 0.199339 0)
(10.9594 0.245656 0)
(10.7469 0.229143 0)
(10.5875 0.172969 0)
(10.4527 0.115535 0)
(10.33 0.0823314 0)
(10.2327 0.0647299 0)
(10.155 0.0524764 0)
(10.0894 0.0472336 0)
(10.0324 0.0469928 0)
(9.98213 0.0489908 0)
(9.93786 0.0517984 0)
(9.89834 0.0519435 0)
(9.86151 0.0483259 0)
(9.82887 0.0438428 0)
(9.7943 0.0300812 0)
(9.76827 0.0102686 0)
(9.87768 -0.24504 0)
(9.74285 0.00579107 0)
(10.1971 0.125744 0)
(10.3245 0.179364 0)
(10.3564 0.161548 0)
(10.3311 0.120077 0)
(10.2777 0.0904939 0)
(10.2252 0.0746656 0)
(10.1812 0.065875 0)
(10.1438 0.060029 0)
(10.1103 0.0562091 0)
(10.0799 0.0536521 0)
(10.052 0.0511378 0)
(10.026 0.0487636 0)
(10.0023 0.0460766 0)
(9.98119 0.041768 0)
(9.95916 0.0316697 0)
(9.93459 0.0135688 0)
(9.83416 -0.443933 0)
(9.57654 -0.163146 0)
(9.91603 0.0336706 0)
(10.0933 0.134224 0)
(10.1892 0.145473 0)
(10.2168 0.120738 0)
(10.205 0.097895 0)
(10.1824 0.0839093 0)
(10.1599 0.0756297 0)
(10.1389 0.0697127 0)
(10.119 0.0651353 0)
(10.1002 0.0616387 0)
(10.0821 0.0586146 0)
(10.0648 0.0562306 0)
(10.0483 0.0538557 0)
(10.0325 0.0501448 0)
(10.0148 0.042417 0)
(9.99179 0.0306069 0)
(9.87825 -0.387476 0)
(9.61653 -0.196147 0)
(9.81623 -0.0186702 0)
(9.96136 0.0916129 0)
(10.0698 0.122196 0)
(10.1219 0.113628 0)
(10.1354 0.099264 0)
(10.1332 0.0884209 0)
(10.1257 0.0809487 0)
(10.1162 0.0753972 0)
(10.1056 0.0711251 0)
(10.0946 0.067883 0)
(10.0833 0.0652555 0)
(10.0718 0.0631577 0)
(10.0601 0.0610454 0)
(10.0477 0.0581064 0)
(10.0329 0.0530795 0)
(10.0125 0.0468986 0)
(9.91439 -0.28804 0)
(9.68304 -0.185176 0)
(9.78717 -0.0532075 0)
(9.88917 0.0509992 0)
(9.98796 0.0936799 0)
(10.0476 0.0992038 0)
(10.0751 0.0938741 0)
(10.0861 0.0875181 0)
(10.0892 0.0821208 0)
(10.0879 0.0777652 0)
(10.0842 0.0743517 0)
(10.0789 0.0717612 0)
(10.0726 0.0697429 0)
(10.0654 0.068173 0)
(10.0572 0.0667264 0)
(10.0476 0.0650431 0)
(10.0354 0.0627818 0)
(10.0185 0.0611675 0)
(9.93763 -0.214041 0)
(9.74856 -0.167536 0)
(9.79244 -0.0752154 0)
(9.85608 0.0162205 0)
(9.93595 0.0644219 0)
(9.99281 0.0805951 0)
(10.0261 0.0835611 0)
(10.0447 0.0822435 0)
(10.0546 0.0797796 0)
(10.0593 0.077288 0)
(10.0606 0.0751766 0)
(10.0596 0.0735599 0)
(10.057 0.0723902 0)
(10.0531 0.0716361 0)
(10.0477 0.0711912 0)
(10.0407 0.0710158 0)
(10.0312 0.0712772 0)
(10.0182 0.0731503 0)
(9.95263 -0.167334 0)
(9.79947 -0.149677 0)
(9.81177 -0.0846414 0)
(9.84959 -0.00621034 0)
(9.9114 0.0419318 0)
(9.96107 0.063897 0)
(9.99432 0.0725499 0)
(10.0156 0.0752862 0)
(10.0289 0.0755301 0)
(10.0367 0.0749039 0)
(10.041 0.0741485 0)
(10.0427 0.0735826 0)
(10.0425 0.073324 0)
(10.0408 0.0734495 0)
(10.0375 0.0740065 0)
(10.0325 0.0751367 0)
(10.0254 0.0772045 0)
(10.0157 0.0812038 0)
(9.96406 -0.132089 0)
(9.84003 -0.131988 0)
(9.83337 -0.08769 0)
(9.85306 -0.0213328 0)
(9.89927 0.0244155 0)
(9.94102 0.0495129 0)
(9.97207 0.0621233 0)
(9.99385 0.0680768 0)
(10.0086 0.0706961 0)
(10.0184 0.071795 0)
(10.0246 0.0723181 0)
(10.0282 0.0727542 0)
(10.0298 0.0733612 0)
(10.0297 0.0743198 0)
(10.028 0.0757877 0)
(10.0248 0.0780081 0)
(10.0197 0.0814108 0)
(10.0129 0.0868077 0)
(9.97418 -0.100205 0)
(9.87757 -0.11239 0)
(9.85857 -0.0853664 0)
(9.86387 -0.032333 0)
(9.89487 0.00892879 0)
(9.92743 0.0352239 0)
(9.95439 0.050717 0)
(9.97502 0.059497 0)
(9.99015 0.0644443 0)
(10.0009 0.0673597 0)
(10.0085 0.0692986 0)
(10.0135 0.0708784 0)
(10.0166 0.0724772 0)
(10.018 0.0743699 0)
(10.0179 0.0768025 0)
(10.0164 0.0800768 0)
(10.0136 0.0846182 0)
(10.0095 0.0910435 0)
(9.98253 -0.0727092 0)
(9.91035 -0.0921965 0)
(9.88507 -0.0782444 0)
(9.88001 -0.0386076 0)
(9.89746 -0.00337407 0)
(9.92043 0.0221689 0)
(9.94196 0.0391843 0)
(9.95999 0.0500811 0)
(9.97425 0.0570564 0)
(9.98518 0.0617053 0)
(9.99339 0.0650799 0)
(9.99941 0.067864 0)
(10.0037 0.070517 0)
(10.0064 0.0733853 0)
(10.0078 0.0767706 0)
(10.0081 0.0809926 0)
(10.0073 0.0864252 0)
(10.0058 0.0935044 0)
(9.98894 -0.0502567 0)
(9.93733 -0.0723783 0)
(9.91073 -0.0674483 0)
(9.89917 -0.0399829 0)
(9.90566 -0.0116499 0)
(9.91955 0.0114521 0)
(9.93497 0.0285306 0)
(9.94934 0.0405804 0)
(9.96169 0.0490246 0)
(9.97188 0.0551119 0)
(9.98009 0.0597801 0)
(9.98659 0.0637034 0)
(9.99163 0.067372 0)
(9.99544 0.0711651 0)
(9.9982 0.075404 0)
(10.0001 0.0803913 0)
(10.0013 0.0864272 0)
(10.0021 0.0937952 0)
(9.99348 -0.0329087 0)
(9.9582 -0.0538112 0)
(9.93368 -0.0542837 0)
(9.91898 -0.0367874 0)
(9.91755 -0.0154535 0)
(9.92366 0.0039948 0)
(9.93301 0.0197755 0)
(9.94318 0.0318767 0)
(9.9529 0.0410107 0)
(9.96163 0.0480207 0)
(9.96922 0.0536476 0)
(9.9757 0.058484 0)
(9.98118 0.0629928 0)
(9.98578 0.0675419 0)
(9.98965 0.072435 0)
(9.99294 0.077932 0)
(9.99587 0.0842549 0)
(9.9987 0.0915753 0)
(9.99643 -0.0202025 0)
(9.97327 -0.0372101 0)
(9.95261 -0.0400457 0)
(9.93731 -0.0298109 0)
(9.9309 -0.0148238 0)
(9.93102 0.000366337 0)
(9.93504 0.0137741 0)
(9.94104 0.0248426 0)
(9.94782 0.0337587 0)
(9.95465 0.040991 0)
(9.96117 0.0470497 0)
(9.96724 0.0523948 0)
(9.97281 0.0574117 0)
(9.97791 0.0624153 0)
(9.98261 0.0676597 0)
(9.98705 0.0733472 0)
(9.99135 0.0796287 0)
(9.99573 0.0865974 0)
(9.99816 -0.0112877 0)
(9.9833 -0.0229309 0)
(9.96682 -0.025763 0)
(9.95243 -0.0200771 0)
(9.94344 -0.0102421 0)
(9.93952 0.000674602 0)
(9.9394 0.0110295 0)
(9.94183 0.0201434 0)
(9.94582 0.0279246 0)
(9.95069 0.0345712 0)
(9.95597 0.040385 0)
(9.96139 0.0456757 0)
(9.96681 0.0507214 0)
(9.97216 0.0557541 0)
(9.97744 0.0609578 0)
(9.9827 0.0664691 0)
(9.98803 0.0723773 0)
(9.99354 0.0787233 0)
(9.99906 -0.00508093 0)
(9.98922 -0.0107811 0)
(9.97612 -0.0119173 0)
(9.96309 -0.00848317 0)
(9.9531 -0.00243513 0)
(9.94685 0.00457809 0)
(9.94399 0.0115568 0)
(9.94384 0.0180198 0)
(9.9457 0.023838 0)
(9.94896 0.0290797 0)
(9.95317 0.0339005 0)
(9.95799 0.0384771 0)
(9.96321 0.0429743 0)
(9.96869 0.0475293 0)
(9.97435 0.0522464 0)
(9.9802 0.0571953 0)
(9.98623 0.0624113 0)
(9.99249 0.0678971 0)
(9.99942 -0.000367349 0)
(9.9918 0.000151368 0)
(9.98042 0.00183185 0)
(9.96821 0.00459321 0)
(9.9579 0.00791953 0)
(9.95061 0.0114009 0)
(9.94642 0.0148159 0)
(9.94498 0.0180876 0)
(9.94576 0.0212327 0)
(9.94825 0.0243175 0)
(9.95198 0.0274232 0)
(9.95661 0.030627 0)
(9.96186 0.0339911 0)
(9.96757 0.0375596 0)
(9.97362 0.0413562 0)
(9.97993 0.0453857 0)
(9.98648 0.0496338 0)
(9.99325 0.0540709 0)
(9.99935 0.00408466 0)
(9.9911 0.0111728 0)
(9.97897 0.0161329 0)
(9.96616 0.0187361 0)
(9.95552 0.0196122 0)
(9.94819 0.0195457 0)
(9.94419 0.0191587 0)
(9.94311 0.0188612 0)
(9.94438 0.0188941 0)
(9.94741 0.0193741 0)
(9.95174 0.0203425 0)
(9.95699 0.0217936 0)
(9.96287 0.023697 0)
(9.96919 0.0260076 0)
(9.97583 0.0286738 0)
(9.9827 0.031639 0)
(9.98974 0.034845 0)
(9.99692 0.0382314 0)
(9.99882 0.00972962 0)
(9.98675 0.0240483 0)
(9.97122 0.0318461 0)
(9.95641 0.0332932 0)
(9.94558 0.0307035 0)
(9.93942 0.0263493 0)
(9.93734 0.0217463 0)
(9.93845 0.0177373 0)
(9.94186 0.0146927 0)
(9.94687 0.0127084 0)
(9.95292 0.0117287 0)
(9.95963 0.0116349 0)
(9.96674 0.0122876 0)
(9.97408 0.0135511 0)
(9.98155 0.0153002 0)
(9.98909 0.0174248 0)
(9.99665 0.0198281 0)
(10.0042 0.0224259 0)
(9.99757 0.0182098 0)
(9.97773 0.0404549 0)
(9.95664 0.049577 0)
(9.93945 0.0474782 0)
(9.92961 0.039423 0)
(9.92658 0.0296459 0)
(9.92848 0.0204885 0)
(9.93357 0.0129644 0)
(9.94055 0.00734579 0)
(9.94856 0.00351475 0)
(9.95704 0.00122003 0)
(9.96568 0.00017226 0)
(9.97428 0.00010802 0)
(9.98277 0.000793822 0)
(9.99109 0.00204258 0)
(9.99926 0.00370153 0)
(10.0073 0.00564737 0)
(10.0151 0.00778216 0)
(9.99502 0.0318144 0)
(9.96177 0.0621333 0)
(9.93371 0.069551 0)
(9.91534 0.0601144 0)
(9.90932 0.0439499 0)
(9.91249 0.0276584 0)
(9.92084 0.0139912 0)
(9.93162 0.00363568 0)
(9.94323 -0.00364623 0)
(9.9548 -0.00837841 0)
(9.96595 -0.0111345 0)
(9.97653 -0.0123962 0)
(9.98652 -0.0125698 0)
(9.99596 -0.011955 0)
(10.0049 -0.0107873 0)
(10.0135 -0.00924174 0)
(10.0217 -0.00744855 0)
(10.0296 -0.00550894 0)
(9.99018 0.0534617 0)
(9.93561 0.0901516 0)
(9.90098 0.0906273 0)
(9.88514 0.0687561 0)
(9.8878 0.0418176 0)
(9.90121 0.0186562 0)
(9.91856 0.00141374 0)
(9.93626 -0.010401 0)
(9.95285 -0.0179465 0)
(9.96786 -0.0223991 0)
(9.9813 -0.0246541 0)
(9.99333 -0.0253931 0)
(10.0042 -0.0250938 0)
(10.0141 -0.0241125 0)
(10.0233 -0.022687 0)
(10.0318 -0.0209837 0)
(10.0399 -0.0191242 0)
(10.0476 -0.0171888 0)
(9.9819 0.086247 0)
(9.89548 0.124257 0)
(9.85817 0.109883 0)
(9.85209 0.0697731 0)
(9.87033 0.0303366 0)
(9.89842 0.0014463 0)
(9.92657 -0.0172084 0)
(9.95134 -0.0283262 0)
(9.9722 -0.0344267 0)
(9.9896 -0.0373368 0)
(10.0043 -0.038213 0)
(10.0168 -0.0378042 0)
(10.0276 -0.0366166 0)
(10.0372 -0.0349731 0)
(10.0459 -0.0330747 0)
(10.0539 -0.0310603 0)
(10.0614 -0.0290102 0)
(10.0684 -0.0269882 0)
(9.96925 0.133989 0)
(9.83823 0.163089 0)
(9.80793 0.12259 0)
(9.82311 0.0587993 0)
(9.86512 0.00730692 0)
(9.91138 -0.0240289 0)
(9.95034 -0.0405946 0)
(9.98048 -0.048377 0)
(10.0034 -0.0512431 0)
(10.0212 -0.051546 0)
(10.0354 -0.0504244 0)
(10.0469 -0.0485189 0)
(10.0566 -0.0462578 0)
(10.0649 -0.0438535 0)
(10.0723 -0.0414241 0)
(10.079 -0.039051 0)
(10.0853 -0.0367955 0)
(10.0912 -0.0346672 0)
(9.94951 0.20714 0)
(9.76128 0.207022 0)
(9.75726 0.123478 0)
(9.81042 0.0320106 0)
(9.88381 -0.0278619 0)
(9.94873 -0.0559968 0)
(9.99526 -0.0660763 0)
(10.0266 -0.0678071 0)
(10.048 -0.0659808 0)
(10.063 -0.0632018 0)
(10.0743 -0.0598968 0)
(10.083 -0.0565035 0)
(10.09 -0.0531572 0)
(10.0959 -0.0501272 0)
(10.1011 -0.0472935 0)
(10.1058 -0.0446558 0)
(10.1101 -0.0422572 0)
(10.1143 -0.0400672 0)
(9.91094 0.322718 0)
(9.65922 0.254544 0)
(9.71887 0.107407 0)
(9.83329 -0.0119234 0)
(9.94173 -0.0726532 0)
(10.0199 -0.0901641 0)
(10.0662 -0.0893252 0)
(10.0917 -0.0831437 0)
(10.1058 -0.0760477 0)
(10.1141 -0.0696291 0)
(10.1198 -0.0645108 0)
(10.1236 -0.0600992 0)
(10.1262 -0.056403 0)
(10.1282 -0.0532342 0)
(10.1299 -0.0503033 0)
(10.1315 -0.047597 0)
(10.133 -0.0452351 0)
(10.1347 -0.0433475 0)
(9.84404 0.43511 0)
(9.53798 0.261026 0)
(9.7269 0.0591349 0)
(9.92367 -0.0731156 0)
(10.0584 -0.121553 0)
(10.1344 -0.120193 0)
(10.1664 -0.105282 0)
(10.1758 -0.0906229 0)
(10.1759 -0.0784922 0)
(10.1725 -0.0703892 0)
(10.1686 -0.0644626 0)
(10.1647 -0.0597948 0)
(10.1606 -0.0557248 0)
(10.1569 -0.0525478 0)
(10.1537 -0.0497774 0)
(10.1507 -0.0472999 0)
(10.1479 -0.0454939 0)
(10.1459 -0.044356 0)
(9.83598 0.319666 0)
(9.55021 0.0912514 0)
(9.91738 -0.0687253 0)
(10.1507 -0.160112 0)
(10.2634 -0.172136 0)
(10.3032 -0.142727 0)
(10.2978 -0.112096 0)
(10.276 -0.0899605 0)
(10.2516 -0.0753955 0)
(10.2302 -0.067468 0)
(10.2132 -0.0619736 0)
(10.1983 -0.0574974 0)
(10.1843 -0.0529049 0)
(10.1715 -0.0488453 0)
(10.1602 -0.045218 0)
(10.1497 -0.0421517 0)
(10.1402 -0.0403437 0)
(10.1322 -0.0399494 0)
(10.2049 -0.0633775 0)
(10.4095 -0.191706 0)
(10.7164 -0.282558 0)
(10.6879 -0.282287 0)
(10.6191 -0.230103 0)
(10.5417 -0.163668 0)
(10.4545 -0.117045 0)
(10.3763 -0.0925041 0)
(10.3136 -0.0798733 0)
(10.2654 -0.067879 0)
(10.2262 -0.0589094 0)
(10.1916 -0.0543199 0)
(10.1604 -0.0537286 0)
(10.1326 -0.0533495 0)
(10.1074 -0.0525973 0)
(10.0841 -0.0508231 0)
(10.0638 -0.0467686 0)
(10.0461 -0.0416867 0)
(9.41631 4.45107 0)
(12.7294 2.07612 0)
(12.5649 0.621212 0)
(11.569 0.127657 0)
(10.9309 0.00343397 0)
(10.5866 -0.00206846 0)
(10.3638 0.0123085 0)
(10.2022 0.0302316 0)
(10.0795 0.0411925 0)
(9.97728 0.0358392 0)
(9.88475 0.0249755 0)
(9.79874 0.0218412 0)
(9.7222 0.024737 0)
(9.65548 0.0229238 0)
(9.59712 0.0192079 0)
(9.54562 0.0148753 0)
(9.49745 0.00355697 0)
(9.44942 -0.0253171 0)
(-0.0275182 0.0934327 0)
(0.137018 -0.18351 0)
(0.324987 -0.3059 0)
(0.525475 -0.315121 0)
(0.702952 -0.272075 0)
(0.833503 -0.211082 0)
(0.909823 -0.146343 -8.60193e-20)
(0.940405 -0.0824974 8.66434e-20)
(0.919533 -0.0201746 0)
(0.85885 0.0345358 9.1864e-20)
(0.771694 0.0739591 0)
(0.672432 0.0920047 0)
(0.578508 0.0877236 0)
(0.505706 0.066663 -1.43204e-19)
(0.455753 0.0377098 0)
(0.41241 0.00997332 0)
(0.352879 -0.00897393 1.87932e-19)
(0.262723 -0.0086817 0)
(0.135182 0.0293001 0)
(-0.0448033 0.112943 0)
(-0.300515 0.186489 -1.6482e-19)
(-0.594213 0.235259 0)
(-0.915635 0.266818 -7.62402e-20)
(-1.25189 0.296036 0)
(-1.59132 0.323655 0)
(-1.93106 0.336464 -4.13229e-20)
(-2.26348 0.335616 0)
(-2.5806 0.326494 3.45409e-20)
(-2.87938 0.310357 0)
(-3.15639 0.289556 -3.13418e-20)
(-3.41074 0.26642 0)
(-3.64204 0.24254 0)
(-3.85102 0.21895 0)
(-4.03876 0.196355 0)
(-4.20671 0.175134 0)
(-4.35643 0.155491 2.823e-20)
(-4.4895 0.137463 0)
(-4.60741 0.120978 -5.55714e-20)
(-4.71154 0.105909 0)
(-4.80311 0.0920971 5.47728e-20)
(-4.88317 0.0793795 0)
(-4.95263 0.0676044 0)
(-5.01223 0.0566439 -5.35508e-20)
(-5.06259 0.0464014 0)
(-5.10423 0.0368173 -5.26591e-20)
(-5.13755 0.0278748 5.21813e-20)
(-5.16295 0.019618 0)
(-5.18082 0.0121948 5.11544e-20)
(-5.19143 0.00585293 5.0602e-20)
(-5.19496 0.000802971 0)
(-5.19264 -0.00315078 0)
(-5.18572 -0.00644916 0)
(-5.17434 -0.00937168 0)
(-5.15881 -0.0120825 0)
(-5.13931 -0.0146511 -4.61826e-20)
(-5.11597 -0.0170913 0)
(-5.0889 -0.0194143 4.43175e-20)
(-5.05821 -0.021629 0)
(-5.02399 -0.0237378 0)
(-4.98636 -0.0257425 -4.11394e-20)
(-4.9454 -0.0276435 0)
(-4.90124 -0.0294408 3.87638e-20)
(-4.85398 -0.0311341 0)
(-4.80374 -0.0327234 0)
(-4.75062 -0.0342088 0)
(-4.69476 -0.0355901 -3.33844e-20)
(-4.63627 -0.0368676 0)
(-4.57528 -0.0380424 0)
(-4.51192 -0.0391149 -2.87871e-20)
(-4.44632 -0.040086 0)
(-4.3786 -0.0409571 -2.54458e-20)
(-4.3089 -0.0417295 0)
(-4.23734 -0.0424049 0)
(-4.16407 -0.042985 0)
(-4.08922 -0.0434719 1.80684e-20)
(-4.0129 -0.0438676 0)
(-3.93526 -0.0441743 0)
(-3.85641 -0.0443945 1.18864e-20)
(-3.77649 -0.0445306 9.69264e-21)
(-3.69561 -0.0445856 0)
(-3.6139 -0.0445625 5.0909e-21)
(-3.53146 -0.044465 0)
(-3.44842 -0.0442972 3.65905e-22)
(-3.36487 -0.044064 0)
(-3.28093 -0.0437718 -1.01239e-20)
(-3.19667 -0.043429 0)
(-3.11221 -0.0430481 2.13666e-20)
(-3.02761 -0.0426479 0)
(-2.94295 -0.0422573 0)
(-2.85828 -0.0419193 0)
(-2.77364 -0.0416961 -4.65588e-20)
(-2.68905 -0.0416703 0)
(-2.60454 -0.0419318 6.08341e-20)
(-2.52005 -0.0425369 0)
(-2.43555 -0.0434268 -7.65041e-20)
(-2.3513 -0.0443295 -8.48829e-20)
(-2.26753 -0.0447844 -9.35914e-20)
(-2.18451 -0.0445766 0)
(-2.1024 -0.0439717 0)
(-2.02121 -0.0432733 0)
(-1.94097 -0.0425683 0)
(-1.86168 -0.0418681 0)
(-1.78337 -0.0411736 0)
(-1.70605 -0.0404866 0)
(-1.62977 -0.0398109 0)
(-1.55452 -0.0391522 1.92705e-19)
(-1.48034 -0.0385176 2.07026e-19)
(-1.40724 -0.0379125 0)
(-1.33523 -0.037326 0)
(-1.26434 -0.0367006 0)
(-1.19461 -0.0360429 2.74296e-19)
(-1.12603 -0.0354088 0)
(-1.05862 -0.0347932 0)
(-0.992367 -0.0341975 0)
(-0.927283 -0.0336234 0)
(-0.863363 -0.0330728 -3.90941e-19)
(-0.800608 -0.0325484 0)
(-0.739013 -0.0320533 0)
(-0.678571 -0.031591 4.89126e-19)
(-0.619275 -0.031163 -5.28827e-19)
(-0.56112 -0.0307728 0)
(-0.504097 -0.0304309 -6.22445e-19)
(-0.448192 -0.0301611 0)
(-0.393388 -0.0300079 7.41435e-19)
(-0.339663 -0.0299824 0)
(-0.287003 -0.030046 0)
(-0.235393 -0.0301856 0)
(-0.184805 -0.0304124 0)
(-0.135211 -0.0307417 0)
(-0.0866586 -0.0311925 -2.84681e-18)
(-0.0393572 -0.0316465 -3.27759e-18)
(0.00674605 -0.0313462 0)
(0.0521615 -0.0298478 0)
(0.0968992 -0.0279973 0)
(0.140818 -0.0262793 2.68464e-18)
(0.183825 -0.0247464 0)
(0.225899 -0.023373 0)
(0.267064 -0.0221354 0)
(0.307351 -0.0210138 2.03989e-18)
(0.346792 -0.0199911 -1.93362e-18)
(0.385414 -0.0190529 0)
(0.423244 -0.0181879 0)
(0.460306 -0.0173869 -1.68688e-18)
(0.496625 -0.0166423 -1.62222e-18)
(0.532225 -0.0159479 0)
(0.567127 -0.0152986 0)
(0.601354 -0.0146903 1.46396e-18)
(0.63493 -0.0141191 -1.42047e-18)
(0.667877 -0.0135821 0)
(0.700217 -0.0130766 0)
(0.731973 -0.0126002 -1.3102e-18)
(0.763167 -0.0121511 0)
(0.793824 -0.0117273 0)
(0.823965 -0.0113273 -1.22269e-18)
(0.853614 -0.0109498 0)
(0.882795 -0.0105935 -1.17361e-18)
(0.911531 -0.0102572 0)
(0.939844 -0.00993979 0)
(0.967758 -0.00964028 0)
(0.995296 -0.00935759 1.09162e-18)
(1.02248 -0.00909058 0)
(1.04933 -0.00883801 0)
(1.07586 -0.00859842 0)
(1.10209 -0.00837002 0)
(1.12802 -0.00815055 0)
(1.15367 -0.0079371 0)
(1.17902 -0.00772581 9.82804e-19)
(1.20405 -0.00751152 9.69882e-19)
(1.22872 -0.00728723 0)
(1.25296 -0.00704343 0)
(1.27668 -0.00676657 0)
(1.29969 -0.00643809 -9.2453e-19)
(1.32177 -0.00602824 0)
(1.3425 -0.00549829 1.81395e-18)
(1.36144 -0.00476123 -1.80057e-18)
(1.37718 -0.00372559 -1.79184e-18)
(1.38977 -0.00195431 1.79014e-18)
(1.39019 0.0013272 -1.79552e-18)
(1.3875 0.00807453 1.80884e-18)
(1.30823 0.019888 0)
(0.0963184 -0.268989 0)
(0.334075 -0.681282 0)
(0.514183 -0.706533 1.5736e-19)
(0.611824 -0.571356 0)
(0.662822 -0.408906 -1.11139e-19)
(0.683263 -0.253833 -1.08105e-19)
(0.677238 -0.112181 -5.6255e-20)
(0.646866 0.0155779 -5.62002e-20)
(0.60389 0.125397 0)
(0.544696 0.21192 -6.08086e-20)
(0.467886 0.267399 0)
(0.373403 0.283202 0)
(0.257602 0.256436 1.70493e-19)
(0.110272 0.211436 9.82855e-20)
(-0.0747525 0.206279 -1.84468e-19)
(-0.30102 0.271824 -1.43803e-19)
(-0.578997 0.383397 -5.71919e-20)
(-0.904926 0.513234 0)
(-1.25851 0.642598 0)
(-1.61662 0.756429 0)
(-1.97224 0.841988 -2.85761e-20)
(-2.31783 0.895558 0)
(-2.64773 0.919046 6.90653e-20)
(-2.95445 0.915468 0)
(-3.23396 0.889033 0)
(-3.4846 0.844868 1.98201e-20)
(-3.70498 0.788302 0)
(-3.89592 0.724868 -1.97624e-20)
(-4.05932 0.658794 -4.1799e-20)
(-4.19871 0.592793 2.01692e-20)
(-4.317 0.528967 0)
(-4.4171 0.469098 0)
(-4.50172 0.414018 0)
(-4.57325 0.364079 -4.42604e-20)
(-4.63376 0.31924 -4.47668e-20)
(-4.68494 0.279229 -2.21906e-20)
(-4.72817 0.243637 0)
(-4.76456 0.211982 4.5309e-20)
(-4.795 0.183764 0)
(-4.82021 0.158504 -4.58807e-20)
(-4.84077 0.13576 0)
(-4.85718 0.115139 0)
(-4.86986 0.0962995 4.60912e-20)
(-4.87918 0.0789509 0)
(-4.88548 0.0628529 1.38175e-19)
(-4.88908 0.0478109 -4.56118e-20)
(-4.89025 0.0336898 0)
(-4.88924 0.0204589 -4.49426e-20)
(-4.88631 0.00823455 -4.4486e-20)
(-4.88172 -0.00282129 0)
(-4.87457 -0.0127643 0)
(-4.86374 -0.0218905 0)
(-4.84924 -0.0304428 0)
(-4.83095 -0.038536 0)
(-4.8089 -0.0462397 4.022e-20)
(-4.78317 -0.0535908 7.91705e-20)
(-4.75381 -0.0606104 -3.84427e-20)
(-4.72092 -0.0673098 0)
(-4.68459 -0.0736948 7.34922e-20)
(-4.6449 -0.0797679 -3.59698e-20)
(-4.60196 -0.08553 0)
(-4.55587 -0.0909808 -3.32697e-20)
(-4.50673 -0.0961201 0)
(-4.45465 -0.100949 0)
(-4.39975 -0.10547 -5.98977e-20)
(-4.34214 -0.109683 2.83883e-20)
(-4.28194 -0.113588 -5.47061e-20)
(-4.21928 -0.117187 5.19873e-20)
(-4.15427 -0.120485 2.42966e-20)
(-4.08704 -0.123486 0)
(-4.01772 -0.126196 2.13636e-20)
(-3.94644 -0.128619 0)
(-3.87332 -0.130763 0)
(-3.7985 -0.132635 0)
(-3.72209 -0.134243 1.56371e-20)
(-3.64424 -0.135595 0)
(-3.56506 -0.136702 2.37712e-20)
(-3.48467 -0.137572 -2.99809e-20)
(-3.40321 -0.138216 -7.94392e-21)
(-3.32078 -0.138646 0)
(-3.2375 -0.138871 -4.14322e-21)
(-3.15349 -0.138904 0)
(-3.06886 -0.138756 -2.95524e-22)
(-2.9837 -0.13844 0)
(-2.89812 -0.137967 8.1105e-21)
(-2.81223 -0.137349 -2.3563e-20)
(-2.72611 -0.136598 -1.69639e-20)
(-2.63985 -0.135725 0)
(-2.55355 -0.134738 0)
(-2.46729 -0.133642 0)
(-2.38118 -0.132436 3.61824e-20)
(-2.29532 -0.131112 0)
(-2.20986 -0.129642 -4.66541e-20)
(-2.12494 -0.127971 0)
(-2.04069 -0.126045 1.71876e-19)
(-1.9572 -0.12389 6.36307e-20)
(-1.87448 -0.121607 6.96622e-20)
(-1.79246 -0.119302 0)
(-1.71113 -0.117033 0)
(-1.63054 -0.114799 0)
(-1.55075 -0.112577 0)
(-1.47182 -0.110353 0)
(-1.39378 -0.108122 2.19491e-19)
(-1.31668 -0.105885 2.34984e-19)
(-1.24054 -0.103646 0)
(-1.16538 -0.101407 -1.34761e-19)
(-1.09124 -0.0991708 -1.43541e-19)
(-1.01814 -0.0969398 0)
(-0.946094 -0.0947156 -3.23037e-19)
(-0.875131 -0.0925027 0)
(-0.80524 -0.0903146 1.81324e-19)
(-0.73643 -0.0881571 0)
(-0.668712 -0.0860304 0)
(-0.60209 -0.0839369 -4.34454e-19)
(-0.536567 -0.0818781 0)
(-0.472144 -0.0798555 2.44834e-19)
(-0.40882 -0.0778721 0)
(-0.346595 -0.0759336 0)
(-0.285463 -0.0740489 2.89772e-19)
(-0.225414 -0.072216 3.09078e-19)
(-0.166441 -0.0704294 0)
(-0.10854 -0.0686923 -3.46373e-19)
(-0.0517148 -0.0670046 0)
(0.00403702 -0.065358 3.82636e-19)
(0.0587571 -0.0637454 7.66174e-19)
(0.112479 -0.0621782 0)
(0.165203 -0.0606711 0)
(0.21693 -0.0592286 0)
(0.267674 -0.0578485 0)
(0.317469 -0.056533 7.09227e-19)
(0.366384 -0.055271 2.09641e-18)
(0.414505 -0.0538921 0)
(0.461746 -0.0522463 0)
(0.507965 -0.050472 0)
(0.553233 -0.048725 -6.65619e-19)
(0.597631 -0.0470572 0)
(0.641187 -0.0454769 0)
(0.683919 -0.0439817 1.28792e-18)
(0.725847 -0.0425649 6.36942e-19)
(0.766993 -0.0412194 6.32418e-19)
(0.807378 -0.0399382 0)
(0.847024 -0.0387161 0)
(0.885952 -0.0375486 6.15876e-19)
(0.924184 -0.036432 -6.09641e-19)
(0.961741 -0.0353633 0)
(0.998644 -0.0343401 0)
(1.03492 -0.0333602 -5.96784e-19)
(1.07057 -0.0324218 1.77637e-18)
(1.10564 -0.0315233 0)
(1.14015 -0.0306632 0)
(1.1741 -0.0298403 5.80317e-19)
(1.20753 -0.0290535 0)
(1.24046 -0.0283015 1.14493e-18)
(1.27291 -0.0275834 -5.68533e-19)
(1.3049 -0.0268983 0)
(1.33645 -0.0262451 5.62421e-19)
(1.36759 -0.0256228 1.11756e-18)
(1.39834 -0.0250304 0)
(1.42871 -0.0244665 0)
(1.45874 -0.0239298 -5.49588e-19)
(1.48843 -0.0234183 0)
(1.51781 -0.02293 1.08647e-18)
(1.54689 -0.0224618 0)
(1.57569 -0.02201 0)
(1.60421 -0.0215697 0)
(1.63246 -0.021134 0)
(1.66043 -0.0206941 -5.29012e-19)
(1.68809 -0.020238 -5.26244e-19)
(1.71542 -0.0197491 0)
(1.74235 -0.019205 0)
(1.76879 -0.0185739 0)
(1.7946 -0.0178102 5.16149e-19)
(1.81958 -0.0168469 0)
(1.8434 -0.0155809 -1.02488e-18)
(1.86563 -0.0138353 1.02262e-18)
(1.88537 -0.0113253 1.02224e-18)
(1.90217 -0.0073106 1.02333e-18)
(1.91238 -0.000520329 1.02849e-18)
(1.92468 0.0124228 1.02039e-18)
(1.90512 0.0361838 0)
(0.116442 -0.859725 0)
(0.269019 -1.05685 0)
(0.316113 -0.826023 -1.2633e-19)
(0.315421 -0.584249 -1.08169e-19)
(0.297991 -0.373782 1.00489e-19)
(0.266784 -0.188654 1.0067e-19)
(0.220603 -0.0231931 -6.44931e-22)
(0.158707 0.124551 0)
(0.0809712 0.255094 0)
(-0.0138417 0.366013 0)
(-0.129288 0.451725 0)
(-0.273434 0.512788 0)
(-0.459193 0.566614 -2.67337e-19)
(-0.697054 0.641349 0)
(-0.983279 0.753905 6.62775e-20)
(-1.30201 0.895872 5.71765e-20)
(-1.6353 1.04398 0)
(-1.96624 1.178 0)
(-2.27958 1.28538 0)
(-2.56347 1.35909 0)
(-2.81258 1.39484 3.49046e-20)
(-3.02652 1.3924 0)
(-3.20667 1.35644 -3.23473e-20)
(-3.35586 1.29419 0)
(-3.47857 1.21299 0)
(-3.57939 1.11923 0)
(-3.66315 1.01898 -6.85894e-20)
(-3.73419 0.917586 0)
(-3.79606 0.819179 3.31183e-20)
(-3.85152 0.726553 -7.0703e-20)
(-3.90249 0.641224 0)
(-3.95028 0.563927 0)
(-3.99564 0.494713 0)
(-4.03894 0.433197 3.65655e-20)
(-4.08027 0.378732 3.71529e-20)
(-4.11961 0.330543 0)
(-4.15681 0.287836 0)
(-4.19169 0.249849 -7.78028e-20)
(-4.22409 0.215887 -7.81958e-20)
(-4.25383 0.185341 7.84288e-20)
(-4.28078 0.157692 0)
(-4.30481 0.132512 0)
(-4.32584 0.10945 0)
(-4.3438 0.0882244 0)
(-4.35861 0.0686003 -7.70125e-20)
(-4.37024 0.050378 -7.69145e-20)
(-4.37861 0.0333734 7.62716e-20)
(-4.38358 0.0173855 0)
(-4.38497 0.00215804 0)
(-4.38264 -0.0125955 0)
(-4.37652 -0.0270081 0)
(-4.36667 -0.0409933 -7.1108e-20)
(-4.35315 -0.0544591 0)
(-4.336 -0.0673943 0)
(-4.31524 -0.0798031 -6.69964e-20)
(-4.29095 -0.0916944 -6.49707e-20)
(-4.26317 -0.103075 0)
(-4.23198 -0.11395 1.24573e-19)
(-4.19747 -0.124321 -6.00328e-20)
(-4.15971 -0.134188 5.82562e-20)
(-4.11879 -0.143549 0)
(-4.07481 -0.152402 0)
(-4.02787 -0.160745 0)
(-3.97807 -0.168577 0)
(-3.92551 -0.175902 4.84246e-20)
(-3.87032 -0.18272 9.37801e-20)
(-3.81261 -0.189032 4.40593e-20)
(-3.75249 -0.194839 -4.17872e-20)
(-3.69007 -0.200149 0)
(-3.6255 -0.204968 7.54289e-20)
(-3.55888 -0.209305 7.05459e-20)
(-3.49034 -0.213167 6.55464e-20)
(-3.42001 -0.216565 -6.04312e-20)
(-3.34801 -0.219511 0)
(-3.27446 -0.222018 -7.41054e-20)
(-3.1995 -0.224098 0)
(-3.12324 -0.225767 2.00974e-20)
(-3.0458 -0.22704 1.58744e-20)
(-2.96731 -0.227933 0)
(-2.88788 -0.228462 0)
(-2.80763 -0.228645 1.53658e-20)
(-2.72666 -0.228499 0)
(-2.6451 -0.228044 2.93141e-21)
(-2.56304 -0.227297 0)
(-2.4806 -0.226278 9.99144e-21)
(-2.39787 -0.225006 3.47106e-20)
(-2.31494 -0.2235 0)
(-2.23193 -0.221779 0)
(-2.14892 -0.219863 0)
(-2.06602 -0.217769 4.45759e-20)
(-1.9833 -0.215511 0)
(-1.90088 -0.213102 5.93973e-20)
(-1.81885 -0.210542 0)
(-1.7373 -0.207817 0)
(-1.6563 -0.204901 -1.6704e-19)
(-1.57589 -0.201778 0)
(-1.49608 -0.198462 -9.93063e-20)
(-1.41688 -0.194996 0)
(-1.33832 -0.191438 -1.16585e-19)
(-1.26046 -0.187826 0)
(-1.18335 -0.184178 0)
(-1.10705 -0.180502 0)
(-1.0316 -0.176804 -4.62669e-19)
(-0.957026 -0.17309 -1.65036e-19)
(-0.88337 -0.169368 0)
(-0.810656 -0.165643 0)
(-0.738908 -0.161923 0)
(-0.668148 -0.158211 0)
(-0.598394 -0.154513 2.1883e-19)
(-0.529656 -0.150834 -4.5845e-19)
(-0.461942 -0.147184 -2.42663e-19)
(-0.395262 -0.14357 5.07641e-19)
(-0.329628 -0.139999 5.33438e-19)
(-0.265044 -0.136476 2.81368e-19)
(-0.201513 -0.133004 0)
(-0.139035 -0.129583 6.16204e-19)
(-0.0776133 -0.126216 0)
(-0.0172479 -0.122906 -6.73533e-19)
(0.042067 -0.119655 -3.45149e-19)
(0.100345 -0.116464 0)
(0.157592 -0.113335 6.93105e-19)
(0.213814 -0.110272 3.48822e-19)
(0.269022 -0.107274 0)
(0.323225 -0.104333 3.48716e-19)
(0.376432 -0.101437 -1.05279e-18)
(0.428652 -0.0985947 0)
(0.479898 -0.0958177 0)
(0.530188 -0.0931081 0)
(0.579538 -0.0904667 0)
(0.627972 -0.0878982 -7.07736e-19)
(0.675523 -0.0854094 -7.10228e-19)
(0.722215 -0.0830156 0)
(0.768014 -0.0807038 0)
(0.812904 -0.0784349 0)
(0.856939 -0.0762077 0)
(0.900161 -0.0740384 0)
(0.942586 -0.0719356 0)
(0.984229 -0.0699019 -7.14007e-19)
(1.0251 -0.0679371 -1.08867e-21)
(1.06523 -0.0660397 0)
(1.10463 -0.0642076 0)
(1.14332 -0.0624388 -7.13843e-19)
(1.18131 -0.0607314 0)
(1.21864 -0.059084 7.14892e-19)
(1.25532 -0.0574949 7.14031e-19)
(1.29137 -0.0559629 0)
(1.32681 -0.0544868 0)
(1.36167 -0.0530654 -7.14566e-19)
(1.39595 -0.0516978 -1.42734e-18)
(1.4297 -0.0503829 0)
(1.46291 -0.0491197 0)
(1.49563 -0.0479074 0)
(1.52786 -0.046745 -7.13262e-19)
(1.55963 -0.0456315 7.12881e-19)
(1.59097 -0.044566 0)
(1.62188 -0.0435474 1.42289e-18)
(1.6524 -0.0425745 7.10425e-19)
(1.68254 -0.041646 -1.42083e-18)
(1.71233 -0.0407602 0)
(1.74178 -0.0399152 0)
(1.77092 -0.0391082 -1.41703e-18)
(1.79976 -0.0383361 -7.08225e-19)
(1.82833 -0.0375945 0)
(1.85662 -0.0368776 0)
(1.88466 -0.0361779 0)
(1.91244 -0.0354853 0)
(1.93997 -0.0347862 -1.40689e-18)
(1.96722 -0.0340623 0)
(1.99418 -0.0332887 0)
(2.02078 -0.0324311 0)
(2.04696 -0.0314416 0)
(2.0726 -0.0302519 0)
(2.09753 -0.0287611 0)
(2.12149 -0.0268179 -1.39755e-18)
(2.14414 -0.0241707 0)
(2.16481 -0.0204142 0)
(2.18327 -0.0147562 -2.81632e-18)
(2.19671 -0.00587918 1.41818e-18)
(2.2114 0.00887416 -1.4163e-18)
(2.2063 0.0362518 1.41175e-18)
(0.0333221 -1.16609 0)
(0.0696844 -1.02978 3.59935e-19)
(0.0339319 -0.746816 0)
(-0.0105249 -0.506336 1.10879e-19)
(-0.0658601 -0.283614 0)
(-0.133725 -0.0740239 0)
(-0.216971 0.122831 -8.28075e-20)
(-0.31797 0.306215 0)
(-0.43885 0.475686 0)
(-0.582213 0.6318 0)
(-0.751917 0.777096 0)
(-0.953171 0.917673 0)
(-1.18861 1.06164 2.04196e-19)
(-1.45263 1.21242 9.24358e-20)
(-1.73078 1.36374 -8.36878e-20)
(-2.00468 1.50227 0)
(-2.2586 1.61416 0)
(-2.48249 1.6901 0)
(-2.67156 1.72634 0)
(-2.82439 1.72416 0)
(-2.94354 1.6874 6.01631e-20)
(-3.03457 1.62132 5.88465e-20)
(-3.10356 1.53277 -5.79936e-20)
(-3.15686 1.42939 5.76921e-20)
(-3.19986 1.3179 0)
(-3.23688 1.20369 0)
(-3.27142 1.09113 5.58452e-20)
(-3.3058 0.983494 0)
(-3.34132 0.882916 0)
(-3.37848 0.79043 5.86997e-20)
(-3.41729 0.706279 6.15177e-20)
(-3.4574 0.630237 6.22294e-20)
(-3.49829 0.561772 0)
(-3.53933 0.500189 0)
(-3.57991 0.444727 -6.40396e-20)
(-3.61947 0.39463 0)
(-3.65752 0.349187 0)
(-3.69365 0.307754 6.43126e-20)
(-3.7275 0.269767 -6.60327e-20)
(-3.7588 0.234738 6.60432e-20)
(-3.78732 0.202252 0)
(-3.81289 0.171958 0)
(-3.83534 0.143559 1.3002e-19)
(-3.85455 0.116806 0)
(-3.87042 0.0914859 1.28631e-19)
(-3.88284 0.067423 1.91044e-19)
(-3.89174 0.0444732 -1.89402e-19)
(-3.89706 0.0225163 1.25334e-19)
(-3.89874 0.00143511 0)
(-3.8968 -0.0188863 0)
(-3.89126 -0.038526 1.19878e-19)
(-3.88219 -0.057503 5.84079e-20)
(-3.8696 -0.0758132 0)
(-3.85355 -0.0934555 0)
(-3.83406 -0.110429 5.49017e-20)
(-3.81118 -0.126734 1.08254e-19)
(-3.78498 -0.142368 0)
(-3.75551 -0.157328 -1.01801e-19)
(-3.72284 -0.171612 9.99717e-20)
(-3.68705 -0.185213 -9.69998e-20)
(-3.64822 -0.198128 0)
(-3.60644 -0.210351 0)
(-3.5618 -0.221876 0)
(-3.5144 -0.232701 0)
(-3.46434 -0.242831 0)
(-3.41173 -0.252265 -7.59269e-20)
(-3.35668 -0.261003 0)
(-3.2993 -0.26905 0)
(-3.2397 -0.276412 0)
(-3.17801 -0.283098 -1.2263e-19)
(-3.11433 -0.28912 -5.67075e-20)
(-3.0488 -0.294488 -5.26063e-20)
(-2.98153 -0.299217 9.80474e-20)
(-2.91263 -0.303323 -4.53662e-20)
(-2.84224 -0.306823 3.98143e-20)
(-2.77047 -0.309734 0)
(-2.69744 -0.312077 -3.08916e-20)
(-2.62327 -0.313873 0)
(-2.54808 -0.315142 0)
(-2.47197 -0.315909 0)
(-2.39506 -0.316195 -2.54968e-20)
(-2.31747 -0.316025 8.48852e-21)
(-2.23929 -0.315424 4.77106e-21)
(-2.16064 -0.314414 -2.97513e-21)
(-2.08161 -0.313022 -2.09967e-20)