/*--------------------------------*- C++ -*----------------------------------*\
  =========                 |
  \\      /  F ield         | OpenFOAM: The Open Source CFD Toolbox
   \\    /   O peration     | Website:  https://openfoam.org
    \\  /    A nd           | Version:  8
     \\/     M anipulation  |
\*---------------------------------------------------------------------------*/
FoamFile
{
    version     2.0;
    format      ascii;
    class       surfaceScalarField;
    location    "1000";
    object      phi;
}
// * * * * * * * * * * * * * * * * * * * * * * * * * * * * * * * * * * * * * //

dimensions      [0 3 -1 0 0 0 0];

internalField   nonuniform List<scalar> 
24170
(
2.99773e-06
1.36157e-07
2.84922e-06
1.48478e-07
2.72105e-06
1.28199e-07
2.60976e-06
1.11366e-07
2.51267e-06
9.72624e-08
2.43072e-06
8.2184e-08
2.36252e-06
6.84247e-08
2.30493e-06
5.75246e-08
2.25835e-06
4.65388e-08
2.21938e-06
3.89326e-08
2.18506e-06
3.4328e-08
2.15671e-06
2.83746e-08
2.13362e-06
2.31222e-08
2.11445e-06
1.918e-08
2.09816e-06
1.6306e-08
2.08404e-06
1.41301e-08
2.07582e-06
8.24914e-09
4.76145e-10
2.07539e-06
3.51888e-06
7.37621e-08
3.55534e-06
1.12302e-07
3.5697e-06
1.14097e-07
3.56851e-06
1.12754e-07
3.55293e-06
1.13041e-07
3.52761e-06
1.0768e-07
3.4983e-06
9.77437e-08
3.46614e-06
8.94631e-08
3.43237e-06
8.00364e-08
3.39873e-06
7.23107e-08
3.36579e-06
6.7076e-08
3.33387e-06
6.01599e-08
3.30446e-06
5.24323e-08
3.27796e-06
4.56122e-08
3.25346e-06
4.0761e-08
3.23108e-06
3.64953e-08
3.21017e-06
2.9189e-08
2.23222e-08
3.18834e-06
3.83204e-06
5.39167e-08
3.8517e-06
9.25386e-08
3.86751e-06
9.82562e-08
3.88034e-06
9.99636e-08
3.89119e-06
1.02253e-07
3.89892e-06
1.00073e-07
3.90271e-06
9.40076e-08
3.9041e-06
8.80394e-08
3.90285e-06
8.12595e-08
3.8999e-06
7.52625e-08
3.89647e-06
7.05219e-08
3.89175e-06
6.49019e-08
3.88569e-06
5.85284e-08
3.87876e-06
5.25557e-08
3.87181e-06
4.77258e-08
3.86532e-06
4.30019e-08
3.85786e-06
3.66677e-08
3.02823e-08
3.8499e-06
4.21596e-06
4.25331e-08
4.22884e-06
7.98308e-08
4.23891e-06
8.83527e-08
4.24784e-06
9.11829e-08
4.25652e-06
9.36949e-08
4.26421e-06
9.24465e-08
4.27032e-06
8.78402e-08
4.27556e-06
8.26483e-08
4.2797e-06
7.69519e-08
4.28313e-06
7.16913e-08
4.28645e-06
6.70856e-08
4.28923e-06
6.20255e-08
4.29121e-06
5.64914e-08
4.29251e-06
5.12112e-08
4.29365e-06
4.6554e-08
4.29479e-06
4.18568e-08
4.29507e-06
3.63993e-08
3.10381e-08
4.29433e-06
4.6459e-06
3.394e-08
4.6568e-06
6.88225e-08
4.6654e-06
7.97105e-08
4.6731e-06
8.34928e-08
4.68068e-06
8.61424e-08
4.68761e-06
8.55307e-08
4.69348e-06
8.19628e-08
4.69868e-06
7.74196e-08
4.70317e-06
7.24467e-08
4.70723e-06
6.76625e-08
4.71117e-06
6.31658e-08
4.7148e-06
5.8423e-08
4.71791e-06
5.33974e-08
4.7206e-06
4.85379e-08
4.72316e-06
4.40056e-08
4.72557e-06
3.94602e-08
4.72738e-06
3.46133e-08
2.99322e-08
4.72841e-06
5.12143e-06
2.71044e-08
5.13123e-06
5.9142e-08
5.13946e-06
7.16007e-08
5.14687e-06
7.61853e-08
5.15418e-06
7.89049e-08
5.16096e-06
7.87547e-08
5.16689e-06
7.59745e-08
5.17216e-06
7.20343e-08
5.17686e-06
6.76472e-08
5.18116e-06
6.32648e-08
5.18527e-06
5.8972e-08
5.18909e-06
5.45316e-08
5.1925e-06
4.99284e-08
5.19557e-06
4.54257e-08
5.19844e-06
4.1102e-08
5.20108e-06
3.68098e-08
5.20322e-06
3.24427e-08
2.83469e-08
5.20483e-06
5.64643e-06
2.16732e-08
5.65531e-06
5.01632e-08
5.6634e-06
6.34654e-08
5.67078e-06
6.88102e-08
5.67804e-06
7.16358e-08
5.68488e-06
7.18993e-08
5.691e-06
6.98179e-08
5.69651e-06
6.64939e-08
5.7015e-06
6.26631e-08
5.70611e-06
5.86843e-08
5.71044e-06
5.46564e-08
5.71446e-06
5.05135e-08
5.71812e-06
4.62788e-08
5.72144e-06
4.20957e-08
5.72452e-06
3.80297e-08
5.72729e-06
3.40318e-08
5.72965e-06
3.00966e-08
2.64018e-08
5.73155e-06
4.40928e-06
1.84889e-08
4.41512e-06
4.43873e-08
4.42093e-06
5.77253e-08
4.4263e-06
6.35022e-08
4.43153e-06
6.64371e-08
4.43649e-06
6.69203e-08
4.44103e-06
6.52287e-08
4.44515e-06
6.23152e-08
4.44892e-06
5.88552e-08
4.45239e-06
5.51692e-08
4.45564e-06
5.13693e-08
4.45866e-06
4.74576e-08
4.46143e-06
4.34774e-08
4.46397e-06
3.95324e-08
4.4663e-06
3.5683e-08
4.4684e-06
3.19211e-08
4.47022e-06
2.82622e-08
2.48443e-08
4.47176e-06
5.14275e-06
1.56013e-08
5.14856e-06
3.84919e-08
5.15466e-06
5.15955e-08
5.16046e-06
5.76894e-08
5.16615e-06
6.07323e-08
5.17159e-06
6.14443e-08
5.17662e-06
6.01565e-08
5.18125e-06
5.76685e-08
5.18551e-06
5.45891e-08
5.18947e-06
5.12128e-08
5.19317e-06
4.76685e-08
5.1966e-06
4.40142e-08
5.19976e-06
4.03024e-08
5.20267e-06
3.66197e-08
5.20532e-06
3.30156e-08
5.20772e-06
2.95237e-08
5.20982e-06
2.61527e-08
2.30185e-08
5.21162e-06
5.99838e-06
1.29906e-08
6.00405e-06
3.28224e-08
6.01037e-06
4.53008e-08
6.01656e-06
5.15101e-08
6.0227e-06
5.459e-08
6.02862e-06
5.54938e-08
6.03418e-06
5.45789e-08
6.03933e-06
5.24983e-08
6.04413e-06
4.97911e-08
6.0486e-06
4.67381e-08
6.05278e-06
4.34888e-08
6.05666e-06
4.01224e-08
6.06024e-06
3.6706e-08
6.06354e-06
3.33138e-08
6.06655e-06
3.00063e-08
6.06928e-06
2.67968e-08
6.07169e-06
2.37334e-08
2.08816e-08
6.07379e-06
6.99658e-06
1.06826e-08
7.00199e-06
2.736e-08
7.00844e-06
3.88392e-08
7.01498e-06
4.49535e-08
7.02154e-06
4.80047e-08
7.02795e-06
4.90475e-08
7.03404e-06
4.84592e-08
7.03976e-06
4.67723e-08
7.04511e-06
4.44329e-08
7.05011e-06
4.17268e-08
7.05479e-06
3.88008e-08
7.05914e-06
3.57548e-08
7.06316e-06
3.26704e-08
7.06687e-06
2.96076e-08
7.07026e-06
2.66076e-08
7.07335e-06
2.37311e-08
7.07608e-06
2.09659e-08
1.8441e-08
7.07852e-06
8.16108e-06
8.60088e-09
8.16617e-06
2.22394e-08
8.17265e-06
3.23472e-08
8.17948e-06
3.81028e-08
8.18643e-06
4.10238e-08
8.19333e-06
4.21259e-08
8.19997e-06
4.18191e-08
8.20626e-06
4.04753e-08
8.21219e-06
3.85133e-08
8.21775e-06
3.61606e-08
8.22295e-06
3.35917e-08
8.2278e-06
3.09065e-08
8.23229e-06
2.81699e-08
8.23643e-06
2.54633e-08
8.24023e-06
2.28168e-08
8.24368e-06
2.02729e-08
8.2468e-06
1.78573e-08
1.56268e-08
8.24956e-06
9.51959e-06
6.73793e-09
9.52434e-06
1.74585e-08
9.53076e-06
2.59091e-08
9.53782e-06
3.10247e-08
9.54513e-06
3.368e-08
9.55249e-06
3.47746e-08
9.55966e-06
3.46322e-08
9.56655e-06
3.36164e-08
9.57307e-06
3.1996e-08
9.57923e-06
3.00238e-08
9.58501e-06
2.78324e-08
9.59038e-06
2.55179e-08
9.59538e-06
2.31795e-08
9.59999e-06
2.08405e-08
9.60424e-06
1.85795e-08
9.6081e-06
1.63935e-08
9.61161e-06
1.43436e-08
1.24447e-08
9.61479e-06
1.11044e-05
5.02531e-09
1.11089e-05
1.29807e-08
1.11152e-05
1.95714e-08
1.11224e-05
2.3773e-08
1.113e-05
2.60274e-08
1.11378e-05
2.69689e-08
1.11456e-05
2.69344e-08
1.1153e-05
2.61527e-08
1.11602e-05
2.48698e-08
1.1167e-05
2.32623e-08
1.11733e-05
2.14587e-08
1.11793e-05
1.95589e-08
1.11849e-05
1.76134e-08
1.119e-05
1.56974e-08
1.11947e-05
1.38235e-08
1.11991e-05
1.20487e-08
1.1203e-05
1.03585e-08
8.82924e-09
1.12067e-05
1.29532e-05
3.42858e-09
1.29574e-05
8.72507e-09
1.29637e-05
1.33166e-08
1.2971e-05
1.6388e-08
1.2979e-05
1.80334e-08
1.29873e-05
1.87242e-08
1.29956e-05
1.86712e-08
1.30037e-05
1.80637e-08
1.30115e-05
1.7068e-08
1.30189e-05
1.58179e-08
1.3026e-05
1.44156e-08
1.30326e-05
1.2933e-08
1.30387e-05
1.14284e-08
1.30445e-05
9.94206e-09
1.30498e-05
8.50478e-09
1.30547e-05
7.13985e-09
1.30592e-05
5.8564e-09
4.6891e-09
1.30633e-05
1.511e-05
1.8856e-09
1.51141e-05
4.55192e-09
1.51204e-05
7.05728e-09
1.5128e-05
8.7714e-09
1.51364e-05
9.64737e-09
1.51452e-05
9.9374e-09
1.51541e-05
9.772e-09
1.51628e-05
9.26488e-09
1.51714e-05
8.51713e-09
1.51796e-05
7.61102e-09
1.51874e-05
6.61346e-09
1.51947e-05
5.57222e-09
1.52016e-05
4.52604e-09
1.5208e-05
3.50119e-09
1.5214e-05
2.51967e-09
1.52195e-05
1.59528e-09
1.52246e-05
7.35556e-10
-3.79531e-11
1.52293e-05
1.7626e-05
3.139e-10
1.76303e-05
2.61141e-10
1.76368e-05
5.32958e-10
1.76449e-05
7.06433e-10
1.76539e-05
6.37994e-10
1.76634e-05
4.105e-10
1.76731e-05
5.42194e-11
1.76828e-05
-4.05443e-10
1.76922e-05
-9.30913e-10
1.77013e-05
-1.49692e-09
1.771e-05
-2.0793e-09
1.77182e-05
-2.65811e-09
1.77259e-05
-3.22113e-09
1.77332e-05
-3.75385e-09
1.77399e-05
-4.25122e-09
1.77462e-05
-4.70286e-09
1.77521e-05
-5.11178e-09
-5.45887e-09
1.77574e-05
1.78277e-05
-1.21072e-09
1.78319e-05
-3.91878e-09
1.78383e-05
-5.81688e-09
1.78462e-05
-7.15374e-09
1.7855e-05
-8.16702e-09
1.78643e-05
-8.90577e-09
1.78738e-05
-9.46958e-09
1.78833e-05
-9.89207e-09
1.78925e-05
-1.02134e-08
1.79015e-05
-1.04567e-08
1.791e-05
-1.06404e-08
1.79181e-05
-1.07801e-08
1.79258e-05
-1.08758e-08
1.79329e-05
-1.09422e-08
1.79397e-05
-1.09699e-08
1.79459e-05
-1.09758e-08
1.79518e-05
-1.09464e-08
-1.08905e-08
1.79572e-05
1.58828e-05
-2.65833e-09
1.58868e-05
-7.88516e-09
1.58927e-05
-1.1734e-08
1.59e-05
-1.43886e-08
1.5908e-05
-1.61809e-08
1.59164e-05
-1.73395e-08
1.5925e-05
-1.80418e-08
1.59335e-05
-1.83999e-08
1.59418e-05
-1.85085e-08
1.59497e-05
-1.84419e-08
1.59573e-05
-1.82594e-08
1.59645e-05
-1.79934e-08
1.59713e-05
-1.76763e-08
1.59777e-05
-1.73183e-08
1.59836e-05
-1.69417e-08
1.59892e-05
-1.65433e-08
1.59944e-05
-1.6143e-08
-1.57217e-08
1.59992e-05
1.41502e-05
-4.13779e-09
1.41542e-05
-1.1941e-08
1.41601e-05
-1.7616e-08
1.41671e-05
-2.13878e-08
1.41747e-05
-2.37887e-08
1.41826e-05
-2.52437e-08
1.41906e-05
-2.60036e-08
1.41984e-05
-2.62372e-08
1.4206e-05
-2.60952e-08
1.42132e-05
-2.57071e-08
1.42201e-05
-2.51575e-08
1.42266e-05
-2.45063e-08
1.42327e-05
-2.37931e-08
1.42384e-05
-2.30493e-08
1.42438e-05
-2.22923e-08
1.42488e-05
-2.15389e-08
1.42534e-05
-2.07932e-08
-2.00589e-08
1.42577e-05
1.26066e-05
-5.76044e-09
1.2611e-05
-1.63041e-08
1.26171e-05
-2.36997e-08
1.26241e-05
-2.8349e-08
1.26315e-05
-3.11885e-08
1.26391e-05
-3.28211e-08
1.26466e-05
-3.35406e-08
1.26539e-05
-3.35717e-08
1.26609e-05
-3.31366e-08
1.26676e-05
-3.2401e-08
1.26739e-05
-3.14776e-08
1.26798e-05
-3.0442e-08
1.26854e-05
-2.93467e-08
1.26906e-05
-2.82338e-08
1.26954e-05
-2.71232e-08
1.26999e-05
-2.60384e-08
1.27041e-05
-2.49795e-08
-2.3956e-08
1.2708e-05
1.12317e-05
-7.62434e-09
1.12366e-05
-2.12082e-08
1.1243e-05
-3.01301e-08
1.125e-05
-3.5382e-08
1.12573e-05
-3.84761e-08
1.12647e-05
-4.01683e-08
1.12719e-05
-4.07484e-08
1.12788e-05
-4.05018e-08
1.12854e-05
-3.97208e-08
1.12916e-05
-3.86157e-08
1.12974e-05
-3.73084e-08
1.13028e-05
-3.58893e-08
1.13079e-05
-3.4422e-08
1.13126e-05
-3.29504e-08
1.13169e-05
-3.15096e-08
1.1321e-05
-3.01085e-08
1.13248e-05
-2.87674e-08
-2.74728e-08
1.13283e-05
1.00069e-05
-9.91125e-09
1.00125e-05
-2.67977e-08
1.00193e-05
-3.69484e-08
1.00264e-05
-4.24859e-08
1.00337e-05
-4.56946e-08
1.00408e-05
-4.73379e-08
1.00477e-05
-4.767e-08
1.00543e-05
-4.70776e-08
1.00605e-05
-4.59205e-08
1.00663e-05
-4.44205e-08
1.00717e-05
-4.27209e-08
1.00767e-05
-4.09138e-08
1.00814e-05
-3.90796e-08
1.00857e-05
-3.72649e-08
1.00897e-05
-3.55028e-08
1.00933e-05
-3.38136e-08
1.00968e-05
-3.2198e-08
-3.06647e-08
1.01e-05
8.91602e-06
-1.28172e-08
8.92252e-06
-3.33169e-08
8.92971e-06
-4.41494e-08
8.93688e-06
-4.96658e-08
8.94406e-06
-5.28818e-08
8.95109e-06
-5.43698e-08
8.95778e-06
-5.43673e-08
8.96407e-06
-5.33664e-08
8.96995e-06
-5.17949e-08
8.97541e-06
-4.98865e-08
8.98046e-06
-4.77775e-08
8.98512e-06
-4.55837e-08
8.98942e-06
-4.33797e-08
8.99337e-06
-4.12274e-08
8.99702e-06
-3.91583e-08
9.00039e-06
-3.719e-08
9.00351e-06
-3.53261e-08
-3.35606e-08
9.00641e-06
7.94452e-06
-1.66812e-08
7.9521e-06
-4.08782e-08
7.9596e-06
-5.16451e-08
7.96687e-06
-5.69359e-08
7.9741e-06
-6.012e-08
7.98108e-06
-6.13582e-08
7.98765e-06
-6.09268e-08
7.99376e-06
-5.94806e-08
7.99943e-06
-5.74657e-08
8.00466e-06
-5.51126e-08
8.00945e-06
-5.25778e-08
8.01385e-06
-4.99746e-08
8.01786e-06
-4.73962e-08
8.02153e-06
-4.49022e-08
8.02491e-06
-4.25309e-08
8.02802e-06
-4.03e-08
8.03089e-06
-3.82021e-08
-3.62153e-08
8.03354e-06
7.07951e-06
-2.18488e-08
7.08839e-06
-4.97605e-08
7.09639e-06
-5.96747e-08
7.10401e-06
-6.45687e-08
7.11153e-06
-6.76465e-08
7.11869e-06
-6.85182e-08
7.12535e-06
-6.75945e-08
7.13151e-06
-6.56362e-08
7.13719e-06
-6.31361e-08
7.14238e-06
-6.03038e-08
7.14711e-06
-5.73016e-08
7.15139e-06
-5.42607e-08
7.15528e-06
-5.12757e-08
7.1588e-06
-4.84221e-08
7.16201e-06
-4.5742e-08
7.16496e-06
-4.32473e-08
7.16769e-06
-4.09252e-08
-3.8747e-08
7.17021e-06
6.31e-06
-2.93415e-08
6.32077e-06
-6.06141e-08
6.33014e-06
-6.89837e-08
6.33906e-06
-7.34931e-08
6.34767e-06
-7.62719e-08
6.35571e-06
-7.65583e-08
6.36311e-06
-7.49879e-08
6.36989e-06
-7.24239e-08
6.37608e-06
-6.93113e-08
6.38165e-06
-6.58785e-08
6.38665e-06
-6.22995e-08
6.39111e-06
-5.87158e-08
6.39508e-06
-5.52362e-08
6.3986e-06
-5.19454e-08
6.40175e-06
-4.88854e-08
6.40459e-06
-4.60799e-08
6.40714e-06
-4.34783e-08
-4.10614e-08
6.40945e-06
5.62939e-06
-4.38491e-08
5.64502e-06
-7.63083e-08
5.65913e-06
-8.3085e-08
5.67257e-06
-8.6927e-08
5.685e-06
-8.87128e-08
5.69611e-06
-8.76627e-08
5.70583e-06
-8.47174e-08
5.71419e-06
-8.07769e-08
5.72123e-06
-7.63393e-08
5.72702e-06
-7.1658e-08
5.73166e-06
-6.69439e-08
5.73528e-06
-6.23314e-08
5.73796e-06
-5.79141e-08
5.73981e-06
-5.37868e-08
5.74091e-06
-4.99872e-08
5.7414e-06
-4.65722e-08
5.7414e-06
-4.34705e-08
-4.09073e-08
5.74124e-06
5.05117e-06
-9.27314e-08
5.08677e-06
-1.11986e-07
5.11281e-06
-1.09117e-07
5.13099e-06
-1.05108e-07
5.14189e-06
-9.9624e-08
5.14617e-06
-9.19437e-08
5.14487e-06
-8.34227e-08
5.13917e-06
-7.50708e-08
5.13007e-06
-6.7219e-08
5.11843e-06
-6.00114e-08
5.10489e-06
-5.34067e-08
5.08994e-06
-4.73797e-08
5.07396e-06
-4.19315e-08
5.05726e-06
-3.70765e-08
5.04016e-06
-3.28912e-08
5.02302e-06
-2.94252e-08
5.00624e-06
-2.66851e-08
-2.49569e-08
4.99029e-06
4.36381e-06
4.25183e-06
4.14271e-06
4.0376e-06
3.93798e-06
3.84603e-06
3.76261e-06
3.68754e-06
3.62033e-06
3.56031e-06
3.50691e-06
3.45953e-06
3.4176e-06
3.38052e-06
3.34763e-06
3.31821e-06
3.29152e-06
3.26657e-06
-8.24584e-09
8.21113e-09
-2.23772e-08
1.40694e-08
-3.77182e-08
1.52893e-08
-5.08625e-08
1.30839e-08
-5.66127e-08
5.71272e-09
-4.89942e-08
-7.68824e-09
-2.59214e-08
-2.30858e-08
1.00782e-08
-3.60774e-08
5.50223e-08
-4.49359e-08
1.03989e-07
-4.90301e-08
1.52686e-07
-4.86795e-08
1.97885e-07
-4.52524e-08
2.37711e-07
-3.98105e-08
2.70805e-07
-3.3142e-08
2.96574e-07
-2.57656e-08
3.14517e-07
-1.79884e-08
3.24449e-07
-9.94264e-09
3.25998e-07
-1.58868e-09
3.19012e-07
6.95492e-09
3.03679e-07
1.53077e-08
2.80585e-07
2.30479e-08
2.50783e-07
2.97971e-08
2.15583e-07
3.5147e-08
1.76937e-07
3.86546e-08
1.36985e-07
3.98816e-08
9.84513e-08
3.85393e-08
6.37506e-08
3.46127e-08
3.51617e-08
2.85738e-08
1.36403e-08
2.13938e-08
-6.19435e-10
1.42264e-08
-8.5862e-09
7.80476e-09
-1.04229e-08
1.82963e-09
-6.20185e-09
-4.3957e-09
5.51174e-09
-1.16746e-08
2.56761e-08
-2.03116e-08
5.44414e-08
-2.87244e-08
8.7678e-08
-3.33362e-08
1.19677e-07
-3.20042e-08
1.44968e-07
-2.53463e-08
1.60448e-07
-1.55246e-08
1.66356e-07
-5.9454e-09
1.65562e-07
7.27896e-10
1.61645e-07
3.8825e-09
1.58155e-07
3.40417e-09
1.57219e-07
9.27878e-10
1.52141e-07
4.96694e-09
1.3348e-07
1.86866e-08
9.28817e-08
4.04899e-08
2.54794e-08
6.74378e-08
-6.56678e-08
9.10885e-08
-1.75432e-07
1.09787e-07
-3.00821e-07
1.25368e-07
-4.3794e-07
1.37137e-07
-5.82435e-07
1.44477e-07
-7.29428e-07
1.47013e-07
-8.76066e-07
1.4662e-07
-1.01905e-06
1.43015e-07
-1.1552e-06
1.36126e-07
-1.28327e-06
1.28106e-07
-1.40264e-06
1.19354e-07
-1.5124e-06
1.09787e-07
-1.6128e-06
1.00386e-07
-1.70481e-06
9.20322e-08
-1.7894e-06
8.45724e-08
-1.86697e-06
7.75905e-08
-1.93834e-06
7.13725e-08
-2.00427e-06
6.59451e-08
-2.06542e-06
6.11504e-08
-2.12236e-06
5.6956e-08
-2.17561e-06
5.32543e-08
-2.22558e-06
4.99763e-08
-2.27261e-06
4.70466e-08
-2.31701e-06
4.44043e-08
-2.35899e-06
4.19993e-08
-2.39877e-06
3.97831e-08
-2.43648e-06
3.7725e-08
-2.47226e-06
3.57898e-08
-2.5062e-06
3.396e-08
-2.53841e-06
3.22097e-08
-2.56892e-06
3.05307e-08
-2.59783e-06
2.89031e-08
-2.62514e-06
2.73247e-08
-2.65093e-06
2.57804e-08
-2.67519e-06
2.42709e-08
-2.69798e-06
2.27844e-08
-2.71929e-06
2.13218e-08
-2.73917e-06
1.98718e-08
-2.75759e-06
1.84333e-08
-2.7746e-06
1.6995e-08
-2.79016e-06
1.55559e-08
-2.80426e-06
1.41067e-08
-2.81688e-06
1.26454e-08
-2.82803e-06
1.11632e-08
-2.83766e-06
9.65289e-09
-2.84574e-06
8.10431e-09
-2.85223e-06
6.50774e-09
-2.85706e-06
4.85144e-09
-2.86017e-06
3.12735e-09
-2.8615e-06
1.35498e-09
-2.86113e-06
-3.50155e-10
-2.85927e-06
-1.83684e-09
-2.85609e-06
-3.1566e-09
-2.85163e-06
-4.44318e-09
-2.8459e-06
-5.71092e-09
-2.8389e-06
-6.97889e-09
-2.83064e-06
-8.23999e-09
-2.82112e-06
-9.50369e-09
-2.81034e-06
-1.0759e-08
-2.79832e-06
-1.2016e-08
-2.78504e-06
-1.32618e-08
-2.77053e-06
-1.4508e-08
-2.75479e-06
-1.57406e-08
-2.73783e-06
-1.6972e-08
-2.71965e-06
-1.81881e-08
-2.70027e-06
-1.9401e-08
-2.67969e-06
-2.05976e-08
-2.65794e-06
-2.17888e-08
-2.63502e-06
-2.29637e-08
-2.61094e-06
-2.41311e-08
-2.58571e-06
-2.5283e-08
-2.55934e-06
-2.64249e-08
-2.53186e-06
-2.75527e-08
-2.50326e-06
-2.86675e-08
-2.47356e-06
-2.97697e-08
-2.44278e-06
-3.08556e-08
-2.41093e-06
-3.19298e-08
-2.37801e-06
-3.2984e-08
-2.34406e-06
-3.40276e-08
-2.30908e-06
-3.50462e-08
-2.27308e-06
-3.60481e-08
-2.23609e-06
-3.70192e-08
-2.19812e-06
-3.79766e-08
-2.15923e-06
-3.89082e-08
-2.11946e-06
-3.98076e-08
-2.07884e-06
-4.06528e-08
-2.03743e-06
-4.1446e-08
-1.99527e-06
-4.21461e-08
-1.9523e-06
-4.29525e-08
-1.90844e-06
-4.38233e-08
-1.86385e-06
-4.45943e-08
-1.81852e-06
-4.53217e-08
-1.7725e-06
-4.6015e-08
-1.7258e-06
-4.66643e-08
-1.67848e-06
-4.72817e-08
-1.63055e-06
-4.78627e-08
-1.58207e-06
-4.84136e-08
-1.53307e-06
-4.89425e-08
-1.4836e-06
-4.94346e-08
-1.43367e-06
-4.99015e-08
-1.38335e-06
-5.03261e-08
-1.33264e-06
-5.07198e-08
-1.2816e-06
-5.10661e-08
-1.23026e-06
-5.1376e-08
-1.17866e-06
-5.16444e-08
-1.12683e-06
-5.1873e-08
-1.07481e-06
-5.20698e-08
-1.02263e-06
-5.22376e-08
-9.70294e-07
-5.23816e-08
-9.17837e-07
-5.25097e-08
-8.65261e-07
-5.26237e-08
-8.12582e-07
-5.27302e-08
-7.59801e-07
-5.28276e-08
-7.06931e-07
-5.29186e-08
-6.53974e-07
-5.29991e-08
-6.00946e-07
-5.30727e-08
-5.47843e-07
-5.3139e-08
-4.94675e-07
-5.32045e-08
-4.41431e-07
-5.32716e-08
-3.88116e-07
-5.33438e-08
-3.34714e-07
-5.34199e-08
-2.81241e-07
-5.34922e-08
-2.27712e-07
-5.35408e-08
-1.74189e-07
-5.35368e-08
-1.20773e-07
-5.3424e-08
-6.76709e-08
-5.31119e-08
-1.53433e-08
-5.23343e-08
3.5608e-08
-5.09577e-08
8.3477e-08
-4.78725e-08
1.27499e-07
-4.40229e-08
-1.92747e-08
1.46761e-07
-3.52233e-09
1.16708e-08
-9.79739e-09
2.02355e-08
-1.26969e-08
1.80811e-08
-5.09402e-09
5.35455e-09
1.79765e-08
-1.74288e-08
5.55098e-08
-4.52956e-08
1.03118e-07
-7.07112e-08
1.55227e-07
-8.82294e-08
2.0681e-07
-9.65212e-08
2.54529e-07
-9.67824e-08
2.96976e-07
-9.11238e-08
3.33391e-07
-8.16971e-08
3.63735e-07
-7.01521e-08
3.88144e-07
-5.75794e-08
4.07006e-07
-4.46322e-08
4.20658e-07
-3.16706e-08
4.29565e-07
-1.88641e-08
4.34252e-07
-6.30392e-09
4.35135e-07
6.04528e-09
4.32123e-07
1.82954e-08
4.24739e-07
3.03969e-08
4.12424e-07
4.20985e-08
3.94583e-07
5.29504e-08
3.70932e-07
6.22968e-08
3.41464e-07
6.93102e-08
3.06879e-07
7.31103e-08
2.68483e-07
7.29611e-08
2.28504e-07
6.85327e-08
1.8977e-07
6.00521e-08
1.5575e-07
4.82192e-08
1.29599e-07
3.38393e-08
1.13915e-07
1.74937e-08
1.0982e-07
-4.36973e-10
1.17369e-07
-1.92126e-08
1.34376e-07
-3.74158e-08
1.55986e-07
-5.03208e-08
1.75019e-07
-5.24269e-08
1.86715e-07
-4.3713e-08
1.89244e-07
-2.79157e-08
1.82516e-07
-8.83858e-09
1.68036e-07
8.48963e-09
1.47307e-07
2.13787e-08
1.14902e-07
3.62479e-08
6.04085e-08
5.77925e-08
-2.52928e-08
8.65968e-08
-1.42676e-07
1.22277e-07
-2.82938e-07
1.58938e-07
-4.35618e-07
1.93146e-07
-5.92639e-07
2.24457e-07
-7.51695e-07
2.50136e-07
-9.1043e-07
2.68524e-07
-1.06511e-06
2.80043e-07
-1.21249e-06
2.84522e-07
-1.34971e-06
2.81692e-07
-1.47502e-06
2.72322e-07
-1.58694e-06
2.5853e-07
-1.6859e-06
2.41983e-07
-1.77351e-06
2.23723e-07
-1.85073e-06
2.0533e-07
-1.91901e-06
1.87627e-07
-1.9801e-06
1.70886e-07
-2.03532e-06
1.55603e-07
-2.08546e-06
1.42182e-07
-2.13134e-06
1.30452e-07
-2.17388e-06
1.20133e-07
-2.21362e-06
1.1112e-07
-2.25094e-06
1.03268e-07
-2.28617e-06
9.63869e-08
-2.31953e-06
9.03261e-08
-2.35121e-06
8.49377e-08
-2.38133e-06
8.01027e-08
-2.40999e-06
7.57179e-08
-2.43728e-06
7.16961e-08
-2.46323e-06
6.79681e-08
-2.48792e-06
6.4476e-08
-2.51136e-06
6.1175e-08
-2.53359e-06
5.80264e-08
-2.55462e-06
5.5003e-08
-2.57448e-06
5.2079e-08
-2.59318e-06
4.92378e-08
-2.61074e-06
4.64618e-08
-2.62715e-06
4.37414e-08
-2.64243e-06
4.10638e-08
-2.65658e-06
3.84235e-08
-2.66961e-06
3.58108e-08
-2.68151e-06
3.32213e-08
-2.69228e-06
3.06463e-08
-2.70192e-06
2.80801e-08
-2.71045e-06
2.55163e-08
-2.71784e-06
2.29471e-08
-2.7241e-06
2.03713e-08
-2.72923e-06
1.77841e-08
-2.73323e-06
1.51826e-08
-2.73613e-06
1.25658e-08
-2.73794e-06
9.93418e-09
-2.73871e-06
7.29054e-09
-2.73848e-06
4.64376e-09
-2.73735e-06
2.01064e-09
-2.73541e-06
-5.75111e-10
-2.73265e-06
-3.09535e-09
-2.72888e-06
-5.58876e-09
-2.72393e-06
-8.09271e-09
-2.71776e-06
-1.05969e-08
-2.71035e-06
-1.30992e-08
-2.70171e-06
-1.56007e-08
-2.69184e-06
-1.81e-08
-2.68073e-06
-2.0596e-08
-2.66839e-06
-2.30859e-08
-2.65483e-06
-2.55689e-08
-2.64004e-06
-2.80411e-08
-2.62404e-06
-3.0503e-08
-2.60684e-06
-3.29494e-08
-2.58843e-06
-3.53823e-08
-2.56883e-06
-3.77957e-08
-2.54805e-06
-4.01927e-08
-2.5261e-06
-4.25666e-08
-2.50299e-06
-4.49216e-08
-2.47874e-06
-4.72514e-08
-2.45334e-06
-4.95606e-08
-2.42682e-06
-5.18435e-08
-2.39919e-06
-5.41044e-08
-2.37045e-06
-5.6338e-08
-2.34062e-06
-5.85475e-08
-2.30971e-06
-6.07286e-08
-2.27774e-06
-6.28823e-08
-2.24471e-06
-6.50056e-08
-2.21065e-06
-6.70972e-08
-2.17557e-06
-6.91555e-08
-2.13949e-06
-7.11758e-08
-2.10241e-06
-7.31526e-08
-2.06436e-06
-7.50848e-08
-2.02536e-06
-7.69774e-08
-1.98546e-06
-7.88273e-08
-1.94466e-06
-8.06283e-08
-1.90298e-06
-8.23685e-08
-1.8604e-06
-8.40437e-08
-1.81688e-06
-8.56519e-08
-1.77254e-06
-8.72738e-08
-1.72747e-06
-8.88781e-08
-1.68167e-06
-9.03979e-08
-1.63515e-06
-9.18411e-08
-1.58795e-06
-9.32149e-08
-1.54008e-06
-9.4511e-08
-1.49159e-06
-9.57398e-08
-1.44252e-06
-9.68977e-08
-1.3929e-06
-9.79938e-08
-1.34278e-06
-9.90324e-08
-1.29219e-06
-1.00007e-07
-1.24116e-06
-1.00918e-07
-1.18974e-06
-1.01758e-07
-1.13794e-06
-1.02525e-07
-1.08582e-06
-1.03213e-07
-1.03341e-06
-1.03818e-07
-9.80736e-07
-1.0435e-07
-9.27844e-07
-1.04799e-07
-8.74764e-07
-1.05188e-07
-8.21521e-07
-1.05516e-07
-7.68138e-07
-1.05801e-07
-7.14634e-07
-1.06049e-07
-6.61019e-07
-1.06274e-07
-6.07303e-07
-1.0648e-07
-5.5349e-07
-1.06672e-07
-4.99589e-07
-1.0685e-07
-4.45604e-07
-1.07013e-07
-3.91542e-07
-1.07162e-07
-3.37402e-07
-1.07301e-07
-2.8319e-07
-1.07438e-07
-2.28896e-07
-1.07581e-07
-1.74518e-07
-1.07735e-07
-1.20047e-07
-1.07898e-07
-6.54869e-08
-1.08058e-07
-1.08547e-08
-1.08173e-07
4.38018e-08
-1.08194e-07
9.84002e-08
-1.08019e-07
1.52761e-07
-1.0747e-07
2.06653e-07
-1.06221e-07
2.59443e-07
-1.03744e-07
3.10563e-07
-9.89859e-08
3.56737e-07
-9.01917e-08
-6.32451e-08
4.00707e-07
4.22248e-10
1.11923e-08
4.06058e-09
1.64862e-08
1.90519e-08
2.99898e-09
5.2986e-08
-2.86504e-08
1.04168e-07
-6.86408e-08
1.62855e-07
-1.04019e-07
2.19327e-07
-1.27193e-07
2.68053e-07
-1.36983e-07
3.07456e-07
-1.35927e-07
3.38192e-07
-1.27541e-07
3.61892e-07
-1.14824e-07
3.80046e-07
-9.98722e-08
3.93874e-07
-8.39808e-08
4.04149e-07
-6.78754e-08
4.11447e-07
-5.19348e-08
4.161e-07
-3.63463e-08
4.1842e-07
-2.11961e-08
4.18624e-07
-6.53208e-09
4.17021e-07
7.62724e-09
4.13968e-07
2.13245e-08
4.09731e-07
3.46044e-08
4.04362e-07
4.7447e-08
3.9757e-07
5.97089e-08
3.88794e-07
7.10527e-08
3.77178e-07
8.08892e-08
3.61899e-07
8.83728e-08
3.42365e-07
9.24556e-08
3.18808e-07
9.20671e-08
2.92411e-07
8.64069e-08
2.65484e-07
7.51221e-08
2.40826e-07
5.84411e-08
2.21146e-07
3.71581e-08
2.07917e-07
1.27345e-08
2.01028e-07
-1.23246e-08
1.9593e-07
-3.23618e-08
1.85419e-07
-3.98096e-08
1.65614e-07
-3.26528e-08
1.36757e-07
-1.48698e-08
9.94543e-08
9.34575e-09
5.15115e-08
3.90638e-08
-1.30698e-08
7.30218e-08
-1.01211e-07
1.09467e-07
-2.1447e-07
1.49476e-07
-3.49384e-07
1.92676e-07
-4.99297e-07
2.36495e-07
-6.54841e-07
2.77801e-07
-8.09742e-07
3.13832e-07
-9.59171e-07
3.42564e-07
-1.09803e-06
3.63314e-07
-1.22368e-06
3.75781e-07
-1.33521e-06
3.80059e-07
-1.43204e-06
3.76871e-07
-1.5146e-06
3.67082e-07
-1.58468e-06
3.51762e-07
-1.64479e-06
3.32432e-07
-1.69714e-06
3.10879e-07
-1.7437e-06
2.8854e-07
-1.78635e-06
2.66365e-07
-1.82622e-06
2.45193e-07
-1.8641e-06
2.25503e-07
-1.9007e-06
2.07489e-07
-1.93635e-06
1.91246e-07
-1.97101e-06
1.76847e-07
-2.0047e-06
1.64139e-07
-2.03747e-06
1.52908e-07
-2.06933e-06
1.42978e-07
-2.10023e-06
1.34175e-07
-2.13016e-06
1.26325e-07
-2.1591e-06
1.19272e-07
-2.18704e-06
1.1288e-07
-2.21396e-06
1.07031e-07
-2.23986e-06
1.01624e-07
-2.26473e-06
9.65769e-08
-2.28858e-06
9.18206e-08
-2.31139e-06
8.72985e-08
-2.33318e-06
8.2966e-08
-2.35393e-06
7.87862e-08
-2.37365e-06
7.47303e-08
-2.39234e-06
7.07743e-08
-2.41e-06
6.68999e-08
-2.42662e-06
6.30911e-08
-2.44221e-06
5.93361e-08
-2.45677e-06
5.56238e-08
-2.4703e-06
5.19463e-08
-2.48278e-06
4.82954e-08
-2.49422e-06
4.46649e-08
-2.50462e-06
4.10472e-08
-2.51398e-06
3.74364e-08
-2.52229e-06
3.38251e-08
-2.52955e-06
3.021e-08
-2.53576e-06
2.65849e-08
-2.54092e-06
2.29486e-08
-2.54502e-06
1.93002e-08
-2.54808e-06
1.56401e-08
-2.55011e-06
1.1971e-08
-2.55111e-06
8.29778e-09
-2.55108e-06
4.62734e-09
-2.55003e-06
9.68918e-10
-2.54792e-06
-2.67006e-09
-2.54471e-06
-6.29963e-09
-2.54034e-06
-9.94518e-09
-2.5348e-06
-1.36168e-08
-2.52808e-06
-1.73015e-08
-2.52018e-06
-2.09945e-08
-2.51107e-06
-2.46896e-08
-2.50078e-06
-2.83855e-08
-2.48928e-06
-3.20756e-08
-2.4766e-06
-3.57598e-08
-2.46273e-06
-3.94314e-08
-2.44767e-06
-4.30908e-08
-2.43144e-06
-4.67314e-08
-2.41404e-06
-5.0354e-08
-2.39546e-06
-5.39524e-08
-2.37574e-06
-5.75273e-08
-2.35487e-06
-6.10732e-08
-2.33286e-06
-6.45905e-08
-2.30972e-06
-6.80753e-08
-2.28546e-06
-7.1528e-08
-2.2601e-06
-7.49465e-08
-2.23364e-06
-7.8331e-08
-2.2061e-06
-8.16802e-08
-2.17748e-06
-8.4993e-08
-2.14779e-06
-8.82689e-08
-2.11706e-06
-9.15051e-08
-2.08528e-06
-9.47008e-08
-2.05247e-06
-9.78523e-08
-2.01865e-06
-1.00958e-07
-1.98383e-06
-1.04014e-07
-1.94802e-06
-1.07016e-07
-1.91124e-06
-1.09956e-07
-1.8735e-06
-1.12834e-07
-1.83483e-06
-1.15652e-07
-1.79527e-06
-1.18409e-07
-1.75483e-06
-1.21099e-07
-1.71351e-06
-1.23713e-07
-1.67133e-06
-1.26244e-07
-1.62828e-06
-1.28698e-07
-1.58445e-06
-1.31102e-07
-1.53988e-06
-1.3344e-07
-1.4946e-06
-1.35683e-07
-1.44863e-06
-1.37824e-07
-1.40198e-06
-1.39862e-07
-1.35469e-06
-1.41791e-07
-1.30679e-06
-1.43616e-07
-1.25832e-06
-1.45338e-07
-1.20932e-06
-1.46962e-07
-1.15984e-06
-1.48493e-07
-1.1099e-06
-1.4993e-07
-1.05954e-06
-1.51268e-07
-1.00879e-06
-1.52504e-07
-9.57683e-07
-1.5363e-07
-9.06253e-07
-1.54644e-07
-8.5454e-07
-1.55537e-07
-8.02576e-07
-1.56319e-07
-7.50398e-07
-1.56985e-07
-6.98034e-07
-1.57557e-07
-6.45513e-07
-1.58044e-07
-5.92856e-07
-1.58463e-07
-5.4008e-07
-1.58831e-07
-4.87197e-07
-1.5916e-07
-4.34216e-07
-1.59465e-07
-3.81142e-07
-1.5975e-07
-3.27979e-07
-1.60017e-07
-2.74732e-07
-1.60263e-07
-2.21405e-07
-1.60492e-07
-1.67998e-07
-1.60709e-07
-1.1451e-07
-1.60928e-07
-6.0935e-08
-1.61157e-07
-7.26455e-09
-1.61408e-07
4.65095e-08
-1.61673e-07
1.00384e-07
-1.61935e-07
1.54352e-07
-1.62143e-07
2.08374e-07
-1.6222e-07
2.62378e-07
-1.62026e-07
3.16239e-07
-1.61337e-07
3.69766e-07
-1.59753e-07
4.22614e-07
-1.56598e-07
4.74374e-07
-1.50751e-07
5.24115e-07
-1.39937e-07
-1.14411e-07
5.75273e-07
-9.71562e-11
1.12367e-08
1.32626e-08
3.03022e-09
5.37477e-08
-3.75366e-08
1.16182e-07
-9.11248e-08
1.83214e-07
-1.35688e-07
2.40788e-07
-1.61618e-07
2.8345e-07
-1.69861e-07
3.12126e-07
-1.65679e-07
3.30457e-07
-1.54262e-07
3.42074e-07
-1.39176e-07
3.49674e-07
-1.22425e-07
3.54812e-07
-1.05027e-07
3.58321e-07
-8.74918e-08
3.60513e-07
-7.00849e-08
3.61533e-07
-5.29596e-08
3.61385e-07
-3.62182e-08
3.60114e-07
-1.99368e-08
3.57739e-07
-4.18065e-09
3.5435e-07
1.09968e-08
3.50082e-07
2.55672e-08
3.45158e-07
3.95019e-08
3.39815e-07
5.27639e-08
3.34212e-07
6.52788e-08
3.28364e-07
7.68758e-08
3.22005e-07
8.7211e-08
3.14647e-07
9.57061e-08
3.0555e-07
1.01512e-07
2.94071e-07
1.03527e-07
2.79817e-07
1.00618e-07
2.63047e-07
9.18819e-08
2.44645e-07
7.67988e-08
2.25989e-07
5.58152e-08
2.07273e-07
3.14026e-08
1.84571e-07
1.03822e-08
1.50927e-07
1.23736e-09
1.04108e-07
7.00981e-09
4.49714e-08
2.64399e-08
-2.76196e-08
5.7696e-08
-1.16389e-07
9.80792e-08
-2.22044e-07
1.44689e-07
-3.43301e-07
1.94255e-07
-4.7779e-07
2.43934e-07
-6.2018e-07
2.91853e-07
-7.63883e-07
3.36363e-07
-9.02737e-07
3.75342e-07
-1.03125e-06
4.06305e-07
-1.14571e-06
4.28288e-07
-1.24477e-06
4.41615e-07
-1.32807e-06
4.46617e-07
-1.3965e-06
4.44207e-07
-1.45194e-06
4.35497e-07
-1.4967e-06
4.21625e-07
-1.53338e-06
4.03769e-07
-1.56471e-06
3.83087e-07
-1.59304e-06
3.60764e-07
-1.62007e-06
3.37903e-07
-1.64686e-06
3.15325e-07
-1.67409e-06
2.93587e-07
-1.702e-06
2.73097e-07
-1.73059e-06
2.54095e-07
-1.75978e-06
2.36677e-07
-1.78939e-06
2.20849e-07
-1.81913e-06
2.06587e-07
-1.84877e-06
1.93778e-07
-1.87813e-06
1.8227e-07
-1.90706e-06
1.71912e-07
-1.93543e-06
1.62551e-07
-1.96315e-06
1.54044e-07
-1.99013e-06
1.46258e-07
-2.01631e-06
1.39072e-07
-2.04166e-06
1.32383e-07
-2.06613e-06
1.26102e-07
-2.0897e-06
1.20154e-07
-2.11235e-06
1.14476e-07
-2.13406e-06
1.09016e-07
-2.15482e-06
1.03734e-07
-2.17463e-06
9.85939e-08
-2.19346e-06
9.35704e-08
-2.21132e-06
8.86407e-08
-2.22821e-06
8.37875e-08
-2.24411e-06
7.8996e-08
-2.25902e-06
7.42543e-08
-2.27295e-06
6.95523e-08
-2.28589e-06
6.48817e-08
-2.29783e-06
6.02348e-08
-2.30876e-06
5.56048e-08
-2.3187e-06
5.09851e-08
-2.32763e-06
4.63688e-08
-2.33556e-06
4.17506e-08
-2.34247e-06
3.71218e-08
-2.34837e-06
3.24826e-08
-2.35324e-06
2.7827e-08
-2.35708e-06
2.31548e-08
-2.3599e-06
1.8466e-08
-2.36168e-06
1.37619e-08
-2.36243e-06
9.04578e-09
-2.36211e-06
4.32046e-09
-2.36072e-06
-4.10371e-10
-2.35824e-06
-5.1481e-09
-2.35463e-06
-9.90108e-09
-2.34988e-06
-1.46822e-08
-2.34399e-06
-1.94928e-08
-2.33696e-06
-2.43236e-08
-2.32878e-06
-2.91675e-08
-2.31944e-06
-3.40172e-08
-2.30895e-06
-3.88684e-08
-2.2973e-06
-4.37139e-08
-2.2845e-06
-4.85515e-08
-2.27055e-06
-5.33734e-08
-2.25545e-06
-5.81796e-08
-2.23922e-06
-6.29616e-08
-2.22185e-06
-6.77209e-08
-2.20335e-06
-7.24486e-08
-2.18374e-06
-7.71469e-08
-2.16301e-06
-8.18066e-08
-2.14118e-06
-8.64305e-08
-2.11826e-06
-9.10107e-08
-2.09426e-06
-9.5551e-08