/*--------------------------------*- C++ -*----------------------------------*\
  =========                 |
  \\      /  F ield         | OpenFOAM: The Open Source CFD Toolbox
   \\    /   O peration     | Website:  https://openfoam.org
    \\  /    A nd           | Version:  8
     \\/     M anipulation  |
\*---------------------------------------------------------------------------*/
FoamFile
{
    version     2.0;
    format      ascii;
    class       volVectorField;
    location    "1000";
    object      U;
}
// * * * * * * * * * * * * * * * * * * * * * * * * * * * * * * * * * * * * * //

dimensions      [0 1 -1 0 0 0 0];

internalField   nonuniform List<vector> 
12225
(
(9.7658 0.0434446 0)
(9.31547 0.0887016 0)
(8.88595 0.0939603 0)
(8.49962 0.0833381 0)
(8.1638 0.0833909 0)
(7.87529 0.0765061 0)
(7.6421 0.0612893 0)
(7.43941 0.0546396 0)
(7.27385 0.0413104 0)
(7.14223 0.0346139 0)
(7.02422 0.0389523 0)
(6.9222 0.0318438 0)
(6.84307 0.0167478 0)
(6.77522 0.0046164 0)
(6.72005 0.00395185 0)
(6.67117 0.00725718 0)
(6.62961 -0.00271281 0)
(6.61981 -0.00722944 0)
(10.0836 0.0588186 0)
(10.2466 0.09085 0)
(10.3241 0.0878805 0)
(10.3373 0.0844523 0)
(10.3143 0.0795313 0)
(10.2445 0.0735115 0)
(10.1673 0.0682136 0)
(10.078 0.0628859 0)
(9.97969 0.0589249 0)
(9.88318 0.0543762 0)
(9.78668 0.0482668 0)
(9.69048 0.0440179 0)
(9.60099 0.0426506 0)
(9.52042 0.0411482 0)
(9.44898 0.0375994 0)
(9.37933 0.0336765 0)
(9.31578 0.0285387 0)
(9.25803 0.019519 0)
(10.0173 0.0426499 0)
(10.0739 0.0659271 0)
(10.1285 0.0694308 0)
(10.1648 0.0733221 0)
(10.1945 0.0791112 0)
(10.2189 0.0814839 0)
(10.2345 0.0800511 0)
(10.2412 0.0776454 0)
(10.241 0.0737084 0)
(10.235 0.0706265 0)
(10.2264 0.0691977 0)
(10.2158 0.0663267 0)
(10.2012 0.0618437 0)
(10.1841 0.0574924 0)
(10.1659 0.0541817 0)
(10.148 0.0507163 0)
(10.1299 0.0444263 0)
(10.1092 0.0375002 0)
(10.0075 0.0302254 0)
(10.0396 0.054715 0)
(10.0713 0.0626263 0)
(10.0938 0.0676907 0)
(10.1136 0.0724682 0)
(10.1329 0.0740817 0)
(10.1497 0.0728114 0)
(10.1633 0.0711386 0)
(10.1743 0.0687129 0)
(10.1832 0.0665729 0)
(10.191 0.064985 0)
(10.1983 0.0624771 0)
(10.2039 0.0590483 0)
(10.2078 0.0556088 0)
(10.2107 0.052732 0)
(10.2134 0.0494138 0)
(10.2151 0.0443302 0)
(10.215 0.038952 0)
(10.0047 0.0238683 0)
(10.0279 0.0483118 0)
(10.0521 0.0575541 0)
(10.07 0.0623688 0)
(10.0856 0.0666518 0)
(10.101 0.0685646 0)
(10.1151 0.0681376 0)
(10.1271 0.0669666 0)
(10.1375 0.0651878 0)
(10.1466 0.0634058 0)
(10.1551 0.0617684 0)
(10.1633 0.0595343 0)
(10.1705 0.0566261 0)
(10.1768 0.0535728 0)
(10.1824 0.0506629 0)
(10.1878 0.0474033 0)
(10.1924 0.043175 0)
(10.1958 0.0387177 0)
(10.0031 0.0190936 0)
(10.0207 0.041843 0)
(10.0408 0.0518324 0)
(10.0567 0.0569347 0)
(10.0704 0.0612733 0)
(10.084 0.0635545 0)
(10.0967 0.0636777 0)
(10.1077 0.0627852 0)
(10.1174 0.0613101 0)
(10.1261 0.0596824 0)
(10.1342 0.0579833 0)
(10.142 0.0558415 0)
(10.149 0.0532008 0)
(10.1554 0.0503844 0)
(10.1612 0.0475229 0)
(10.1666 0.0443608 0)
(10.1713 0.0406369 0)
(10.1752 0.0368123 0)
(10.0021 0.0153248 0)
(10.0154 0.0356035 0)
(10.0323 0.0460294 0)
(10.0469 0.0516069 0)
(10.0594 0.0558801 0)
(10.0717 0.0583143 0)
(10.0834 0.0588248 0)
(10.0938 0.0582465 0)
(10.103 0.0570872 0)
(10.1114 0.0556557 0)
(10.1193 0.0540151 0)
(10.1267 0.0520006 0)
(10.1335 0.0495947 0)
(10.1397 0.0469816 0)
(10.1454 0.0442361 0)
(10.1506 0.0412453 0)
(10.1551 0.0379269 0)
(10.1591 0.0345924 0)
(10.0015 0.012665 0)
(10.0121 0.0310061 0)
(10.0267 0.0414699 0)
(10.0401 0.0472224 0)
(10.0519 0.0513103 0)
(10.0633 0.0537111 0)
(10.0742 0.0544128 0)
(10.0841 0.0540492 0)
(10.093 0.0531039 0)
(10.1012 0.0518195 0)
(10.1088 0.050264 0)
(10.1159 0.0483844 0)
(10.1225 0.0461866 0)
(10.1285 0.0437681 0)
(10.134 0.0411835 0)
(10.139 0.0383972 0)
(10.1435 0.0354075 0)
(10.1475 0.032403 0)
(10.0012 0.0106883 0)
(10.0097 0.0270619 0)
(10.0223 0.0373119 0)
(10.0347 0.0431674 0)
(10.0457 0.0472093 0)
(10.0564 0.0496518 0)
(10.0667 0.0505313 0)
(10.0762 0.0503783 0)
(10.0848 0.0496232 0)
(10.0928 0.0484769 0)
(10.1002 0.0470119 0)
(10.1071 0.0452284 0)
(10.1135 0.043151 0)
(10.1194 0.0408561 0)
(10.1248 0.0383944 0)
(10.1298 0.0357741 0)
(10.1341 0.0330064 0)
(10.1381 0.0302477 0)
(10.0009 0.0089663 0)
(10.0076 0.0232449 0)
(10.0184 0.0330127 0)
(10.0295 0.0388466 0)
(10.0399 0.0427753 0)
(10.0498 0.0452068 0)
(10.0594 0.0462253 0)
(10.0684 0.0462514 0)
(10.0767 0.0456594 0)
(10.0844 0.0446387 0)
(10.0916 0.0432746 0)
(10.0983 0.0416034 0)
(10.1045 0.0396596 0)
(10.1103 0.0375114 0)
(10.1156 0.0352077 0)
(10.1203 0.0327718 0)
(10.1246 0.0302361 0)
(10.1285 0.0277206 0)
(10.0007 0.00743676 0)
(10.0059 0.0196026 0)
(10.0149 0.0286277 0)
(10.0248 0.0342808 0)
(10.0343 0.0380253 0)
(10.0436 0.0403864 0)
(10.0525 0.0414879 0)
(10.061 0.0416574 0)
(10.069 0.0412006 0)
(10.0763 0.0403015 0)
(10.0832 0.0390519 0)
(10.0897 0.0375055 0)
(10.0957 0.0357143 0)
(10.1012 0.0337343 0)
(10.1063 0.0316109 0)
(10.1109 0.0293829 0)
(10.1151 0.0270757 0)
(10.1189 0.0248123 0)
(10.0005 0.00607002 0)
(10.0046 0.0161382 0)
(10.012 0.0241787 0)
(10.0207 0.0294746 0)
(10.0293 0.0329623 0)
(10.0378 0.0351899 0)
(10.0461 0.0363218 0)
(10.0541 0.0365881 0)
(10.0616 0.0362501 0)
(10.0686 0.0354663 0)
(10.0752 0.0343404 0)
(10.0814 0.0329357 0)
(10.0871 0.0313077 0)
(10.0924 0.0295124 0)
(10.0973 0.0275836 0)
(10.1017 0.0255775 0)
(10.1057 0.023503 0)
(10.1094 0.0214848 0)
(10.0004 0.00483688 0)
(10.0036 0.012904 0)
(10.0096 0.0197508 0)
(10.0171 0.024486 0)
(10.0249 0.0276174 0)
(10.0326 0.0296441 0)
(10.0403 0.0307245 0)
(10.0477 0.0310407 0)
(10.0548 0.0307885 0)
(10.0614 0.0301146 0)
(10.0677 0.0291165 0)
(10.0735 0.0278615 0)
(10.079 0.0264085 0)
(10.0841 0.0248021 0)
(10.0887 0.0230931 0)
(10.093 0.021303 0)
(10.0968 0.0194865 0)
(10.1004 0.0176956 0)
(10.0003 0.00371604 0)
(10.0029 0.00988491 0)
(10.0078 0.0153876 0)
(10.0141 0.0193643 0)
(10.021 0.0220272 0)
(10.0281 0.0237593 0)
(10.0351 0.0247019 0)
(10.042 0.025003 0)
(10.0486 0.0247967 0)
(10.0549 0.024215 0)
(10.0608 0.0233385 0)
(10.0664 0.0222346 0)
(10.0715 0.02096 0)
(10.0764 0.0195546 0)
(10.0808 0.0180621 0)
(10.0849 0.0165126 0)
(10.0886 0.0149378 0)
(10.0921 0.0134 0)
(10.0003 0.00267575 0)
(10.0023 0.00703743 0)
(10.0064 0.0110957 0)
(10.0118 0.0141454 0)
(10.0179 0.0162046 0)
(10.0243 0.0175341 0)
(10.0307 0.0182525 0)
(10.037 0.0184526 0)
(10.0432 0.0182472 0)
(10.0491 0.0177227 0)
(10.0547 0.0169535 0)
(10.06 0.0159979 0)
(10.0649 0.0148965 0)
(10.0695 0.0136987 0)
(10.0738 0.0124251 0)
(10.0777 0.0111213 0)
(10.0813 0.00978784 0)
(10.0847 0.00849944 0)
(10.0002 0.00168698 0)
(10.0019 0.00429011 0)
(10.0054 0.00683865 0)
(10.0101 0.00881208 0)
(10.0155 0.0101235 0)
(10.0213 0.0109413 0)
(10.0272 0.0113274 0)
(10.0331 0.011352 0)
(10.0388 0.0110823 0)
(10.0444 0.0105795 0)
(10.0497 0.00989597 0)
(10.0547 0.00907302 0)
(10.0594 0.00814759 0)
(10.0638 0.00714901 0)
(10.0679 0.00610375 0)
(10.0717 0.00503366 0)
(10.0752 0.00395234 0)
(10.0785 0.00289947 0)
(10.0002 0.000703352 0)
(10.0017 0.00153821 0)
(10.0048 0.00251414 0)
(10.009 0.0032735 0)
(10.014 0.00370765 0)
(10.0193 0.00389154 0)
(10.0248 0.00385336 0)
(10.0303 0.00361929 0)
(10.0358 0.00322614 0)
(10.041 0.00270164 0)
(10.0461 0.00207531 0)
(10.0509 0.00137017 0)
(10.0554 0.000607184 0)
(10.0597 -0.0001949 0)
(10.0636 -0.00102127 0)
(10.0673 -0.00185653 0)
(10.0708 -0.00269475 0)
(10.074 -0.00350631 0)
(10.0002 -0.000279727 0)
(10.0017 -0.0012013 0)
(10.0046 -0.0018109 0)
(10.0087 -0.00230494 0)
(10.0135 -0.00280886 0)
(10.0186 -0.00330357 0)
(10.0239 -0.00381494 0)
(10.0293 -0.00434486 0)
(10.0346 -0.0048972 0)
(10.0397 -0.00546974 0)
(10.0446 -0.00606118 0)
(10.0493 -0.00666803 0)
(10.0537 -0.00728404 0)
(10.0579 -0.00790711 0)
(10.0618 -0.00852758 0)
(10.0654 -0.00914594 0)
(10.0688 -0.00975328 0)
(10.072 -0.0103393 0)
(10.0002 -0.00122559 0)
(10.0018 -0.00384081 0)
(10.0049 -0.00593991 0)
(10.0092 -0.00760601 0)
(10.0141 -0.00897585 0)
(10.0193 -0.0100972 0)
(10.0247 -0.01104 0)
(10.0301 -0.0118396 0)
(10.0354 -0.0125326 0)
(10.0405 -0.0131451 0)
(10.0455 -0.0137015 0)
(10.0501 -0.0142162 0)
(10.0545 -0.0146994 0)
(10.0587 -0.0151589 0)
(10.0626 -0.0155975 0)
(10.0662 -0.0160198 0)
(10.0696 -0.0164265 0)
(10.0727 -0.0168086 0)
(10.0002 -0.00215439 0)
(10.0021 -0.00644805 0)
(10.0056 -0.00992965 0)
(10.0103 -0.0126343 0)
(10.0156 -0.0147374 0)
(10.0211 -0.0163823 0)
(10.0268 -0.0176707 0)
(10.0324 -0.0186734 0)
(10.0378 -0.0194533 0)
(10.0431 -0.0200724 0)
(10.0481 -0.0205731 0)
(10.0528 -0.0209875 0)
(10.0573 -0.021339 0)
(10.0615 -0.0216432 0)
(10.0654 -0.0219155 0)
(10.069 -0.0221609 0)
(10.0724 -0.0223906 0)
(10.0756 -0.0225939 0)
(10.0003 -0.00313511 0)
(10.0025 -0.00918314 0)
(10.0067 -0.0139863 0)
(10.0121 -0.0175848 0)
(10.0179 -0.0202942 0)
(10.0239 -0.0223559 0)
(10.0299 -0.0239035 0)
(10.0359 -0.0250312 0)
(10.0416 -0.0258422 0)
(10.047 -0.0264227 0)
(10.0522 -0.0268388 0)
(10.057 -0.0271341 0)
(10.0616 -0.0273437 0)
(10.0658 -0.0274943 0)
(10.0698 -0.0276025 0)
(10.0735 -0.0276861 0)
(10.0769 -0.0277479 0)
(10.0801 -0.0277944 0)
(10.0004 -0.00423303 0)
(10.0032 -0.0121876 0)
(10.0083 -0.0182347 0)
(10.0146 -0.0225662 0)
(10.0212 -0.0257501 0)
(10.0277 -0.0281299 0)
(10.0342 -0.0298461 0)
(10.0405 -0.0310231 0)
(10.0466 -0.0318037 0)
(10.0523 -0.0323052 0)
(10.0576 -0.0326044 0)
(10.0626 -0.0327598 0)
(10.0673 -0.0328136 0)
(10.0716 -0.0328021 0)
(10.0757 -0.032749 0)
(10.0794 -0.0326715 0)
(10.0829 -0.0325807 0)
(10.0862 -0.0324766 0)
(10.0005 -0.00553584 0)
(10.0042 -0.0155821 0)
(10.0107 -0.022733 0)
(10.0181 -0.0276065 0)
(10.0254 -0.0311474 0)
(10.0326 -0.0337541 0)
(10.0396 -0.0355474 0)
(10.0464 -0.036698 0)
(10.0528 -0.0373977 0)
(10.0588 -0.037784 0)
(10.0644 -0.0379429 0)
(10.0696 -0.0379393 0)
(10.0744 -0.037828 0)
(10.0789 -0.0376484 0)
(10.083 -0.0374325 0)
(10.0869 -0.037197 0)
(10.0904 -0.0369564 0)
(10.0937 -0.0367115 0)
(10.0007 -0.00715473 0)
(10.0059 -0.0195063 0)
(10.014 -0.027505 0)
(10.0226 -0.0326835 0)
(10.0308 -0.0364815 0)
(10.0386 -0.0392451 0)
(10.0464 -0.0410446 0)
(10.0537 -0.042109 0)
(10.0605 -0.0426854 0)
(10.0669 -0.0429228 0)
(10.0728 -0.0429152 0)
(10.0782 -0.0427342 0)
(10.0833 -0.0424437 0)
(10.0879 -0.0420905 0)
(10.0922 -0.0417094 0)
(10.0961 -0.0413222 0)
(10.0997 -0.0409373 0)
(10.1031 -0.0405622 0)
(10.001 -0.00922572 0)
(10.0083 -0.0240759 0)
(10.0186 -0.0325963 0)
(10.0286 -0.0378585 0)
(10.0376 -0.0417984 0)
(10.0464 -0.0446287 0)
(10.055 -0.0463743 0)
(10.0631 -0.0473251 0)
(10.0705 -0.0477565 0)
(10.0774 -0.0478219 0)
(10.0837 -0.0476189 0)
(10.0895 -0.0472335 0)
(10.0948 -0.0467351 0)
(10.0996 -0.0461838 0)
(10.104 -0.0456175 0)
(10.1081 -0.0450631 0)
(10.1118 -0.0445262 0)
(10.1153 -0.0440013 0)
(10.0015 -0.0119911 0)
(10.012 -0.029251 0)
(10.0252 -0.0380307 0)
(10.037 -0.0434073 0)
(10.0474 -0.0474216 0)
(10.0576 -0.0501098 0)
(10.0674 -0.0516144 0)
(10.0766 -0.0523367 0)
(10.085 -0.0525622 0)
(10.0926 -0.0524268 0)
(10.0996 -0.0520315 0)
(10.106 -0.0514619 0)
(10.1118 -0.0507953 0)
(10.117 -0.0500919 0)
(10.1217 -0.0493962 0)
(10.1261 -0.0487334 0)
(10.1301 -0.0481022 0)
(10.1338 -0.0474771 0)
(10.0026 -0.016399 0)
(10.0185 -0.0350684 0)
(10.0364 -0.043251 0)
(10.0516 -0.0489533 0)
(10.065 -0.0533422 0)
(10.078 -0.0559654 0)
(10.0903 -0.0571758 0)
(10.1017 -0.0575455 0)
(10.112 -0.0573966 0)
(10.1213 -0.0568692 0)
(10.1297 -0.0560823 0)
(10.1372 -0.0551423 0)
(10.1438 -0.054135 0)
(10.1498 -0.053141 0)
(10.1551 -0.0522141 0)
(10.1598 -0.0513802 0)
(10.1641 -0.0506131 0)
(10.1678 -0.0498629 0)
(10.0074 -0.0244626 0)
(10.0376 -0.0432101 0)
(10.0671 -0.0484282 0)
(10.0918 -0.053508 0)
(10.114 -0.0584963 0)
(10.1349 -0.0618141 0)
(10.1537 -0.0635564 0)
(10.1699 -0.0642833 0)
(10.1836 -0.0643165 0)
(10.1949 -0.0638182 0)
(10.2042 -0.0629152 0)
(10.2115 -0.0617475 0)
(10.2171 -0.0604342 0)
(10.2211 -0.05909 0)
(10.2237 -0.0578103 0)
(10.2251 -0.0566748 0)
(10.2255 -0.0556879 0)
(10.2251 -0.0549504 0)
(10.0411 -0.0348169 0)
(10.1352 -0.0634025 0)
(10.2016 -0.0685185 0)
(10.2438 -0.0701325 0)
(10.271 -0.0712983 0)
(10.2859 -0.0711688 0)
(10.2888 -0.0699508 0)
(10.2814 -0.0681538 0)
(10.2662 -0.0660772 0)
(10.245 -0.0637986 0)
(10.2197 -0.0614078 0)
(10.191 -0.0589425 0)
(10.16 -0.0564643 0)
(10.1272 -0.0540707 0)
(10.0932 -0.0518248 0)
(10.0589 -0.0498384 0)
(10.0247 -0.048044 0)
(9.99184 -0.0469493 0)
(9.88991 -0.0363009 0)
(9.66472 -0.0677186 0)
(9.42413 -0.0776939 0)
(9.17995 -0.0802878 0)
(8.9459 -0.0793274 0)
(8.73005 -0.0754892 0)
(8.53362 -0.070081 0)
(8.35597 -0.0640469 0)
(8.19632 -0.0578662 0)
(8.05383 -0.0519142 0)
(7.92663 -0.0462775 0)
(7.81387 -0.0409963 0)
(7.71376 -0.0360866 0)
(7.62543 -0.0315674 0)
(7.54719 -0.0275166 0)
(7.47767 -0.024025 0)
(7.41501 -0.0212207 0)
(7.35823 -0.0194213 0)
(-0.00274214 0.00757815 0)
(-0.0128953 0.0125782 0)
(-0.0266097 0.0135721 0)
(-0.0410782 0.0114031 0)
(-0.0515053 0.00547774 0)
(-0.0503024 -0.00418717 0)
(-0.034238 -0.0171858 -8.15352e-19)
(-0.00671912 -0.0306603 9.22877e-19)
(0.0290033 -0.0407013 0)
(0.0699989 -0.0455939 5.28075e-19)
(0.113332 -0.0459651 0)
(0.155556 -0.0430122 0)
(0.193935 -0.037796 0)
(0.226814 -0.0311333 -2.59329e-19)
(0.253328 -0.0235908 0)
(0.273073 -0.0155345 0)
(0.285704 -0.00716238 2.24319e-19)
(0.291457 0.00158802 0)
(0.289198 0.0106135 0)
(0.279169 0.0194273 0)
(0.262005 0.0272656 -2.40467e-19)
(0.23836 0.0333463 0)
(0.209167 0.036955 -2.84214e-19)
(0.175828 0.0375062 0)
(0.140186 0.0346157 0)
(0.104465 0.0283441 -4.58878e-19)
(0.0710868 0.019416 0)
(0.0423344 0.00947643 7.52229e-19)
(0.0198556 0.000894493 0)
(0.00419734 -0.0044868 -1.31862e-18)
(-0.00551287 -0.00712771 0)
(-0.0103609 -0.00899519 0)
(-0.00893772 -0.0111938 0)
(-0.00141024 -0.0146538 0)
(0.0133104 -0.0197302 0)
(0.0355322 -0.0253371 7.97108e-19)
(0.0636451 -0.0292828 0)
(0.0934871 -0.029317 -9.67867e-19)
(0.120072 -0.0249751 0)
(0.139182 -0.0175657 7.79987e-19)
(0.149181 -0.00961292 0)
(0.151256 -0.00335623 0)
(0.148313 -0.000111834 -7.73859e-19)
(0.144317 -0.000876095 0)
(0.142451 -0.00651149 -8.02244e-19)
(0.140627 -0.0162564 8.05537e-19)
(0.131891 -0.0244275 0)
(0.108585 -0.0205162 8.79096e-19)
(0.065798 -0.00134608 1.03329e-18)
(-0.0101492 0.017511 0)
(-0.10902 0.0379562 0)
(-0.215755 0.0635404 0)
(-0.334354 0.0869831 0)
(-0.462518 0.103544 0)
(-0.596752 0.110928 -1.84019e-19)
(-0.73211 0.114667 0)
(-0.864402 0.113994 1.4487e-19)
(-0.993229 0.108135 0)
(-1.11456 0.102006 0)
(-1.22812 0.0950867 -1.14122e-19)
(-1.33349 0.0859086 0)
(-1.43055 0.0768261 1.02753e-19)
(-1.51922 0.0700095 0)
(-1.60083 0.0644588 0)
(-1.67613 0.0586677 0)
(-1.74547 0.0534846 -8.87152e-20)
(-1.80959 0.0490735 0)
(-1.86915 0.0451505 0)
(-1.92471 0.0417656 -8.25337e-20)
(-1.97676 0.0387883 0)
(-2.02571 0.0361746 -7.93762e-20)
(-2.07191 0.0338567 0)
(-2.11564 0.0317838 0)
(-2.15714 0.0299138 0)
(-2.19659 0.0282072 7.4317e-20)
(-2.23415 0.0266379 0)
(-2.26995 0.0251785 0)
(-2.30408 0.0238132 7.11652e-20)
(-2.33664 0.0225228 7.01915e-20)
(-2.36768 0.021299 0)
(-2.39726 0.0201271 6.83284e-20)
(-2.42542 0.0190034 0)
(-2.4522 0.0179165 1.33104e-19)
(-2.47763 0.0168643 0)
(-2.50172 0.0158379 1.29675e-19)
(-2.5245 0.0148355 0)
(-2.54598 0.0138494 -1.26329e-19)
(-2.56617 0.0128772 0)
(-2.58507 0.0119116 0)
(-2.60269 0.0109505 0)
(-2.61901 0.00998603 1.19754e-19)
(-2.634 0.0090145 0)
(-2.64766 0.0080275 -1.1648e-19)
(-2.65995 0.00701799 0)
(-2.67085 0.00597865 1.13196e-19)
(-2.68032 0.00490433 1.11547e-19)
(-2.68829 0.00379621 1.09892e-19)
(-2.69472 0.00267249 0)
(-2.69954 0.00158943 0)
(-2.70269 0.000641445 0)
(-2.70427 -0.000131847 0)
(-2.70467 -0.000812019 0)
(-2.70385 -0.0014714 0)
(-2.70184 -0.0021145 0)
(-2.69865 -0.0027506 0)
(-2.69426 -0.00337623 -9.38116e-20)
(-2.6887 -0.00399564 -9.18185e-20)
(-2.68194 -0.00460375 0)
(-2.674 -0.00520532 0)
(-2.66487 -0.00579432 0)
(-2.65456 -0.00637644 -8.33539e-20)
(-2.64306 -0.00694504 0)
(-2.63039 -0.00750646 0)
(-2.61655 -0.008054 0)
(-2.60153 -0.00859411 0)
(-2.58536 -0.00912055 7.1571e-20)
(-2.56803 -0.00963941 0)
(-2.54955 -0.0101454 0)
(-2.52992 -0.0106438 -6.38043e-20)
(-2.50916 -0.0111307 6.10915e-20)
(-2.48727 -0.0116097 0)
(-2.46425 -0.0120789 5.54697e-20)
(-2.44012 -0.01254 0)
(-2.41489 -0.0129931 -4.95724e-20)
(-2.38855 -0.0134381 0)
(-2.36112 -0.0138775 0)
(-2.3326 -0.0143101 0)
(-2.30301 -0.0147415 0)
(-2.27235 -0.0151632 0)
(-2.24064 -0.0155739 6.00085e-20)
(-2.20787 -0.015966 5.28583e-20)
(-2.17408 -0.0163524 0)
(-2.13929 -0.0167167 0)
(-2.10353 -0.0170239 0)
(-2.06685 -0.0172152 -2.21528e-20)
(-2.02929 -0.0172081 0)
(-1.9909 -0.0169693 0)
(-1.95164 -0.0170047 0)
(-1.91143 -0.0173668 1.24923e-20)
(-1.87033 -0.017668 -2.18959e-20)
(-1.8284 -0.0179608 0)
(-1.78567 -0.0182431 0)
(-1.74214 -0.0185126 -5.22183e-20)
(-1.69785 -0.0187749 -6.31001e-20)
(-1.65283 -0.0190281 0)
(-1.60712 -0.0192756 0)
(-1.56074 -0.0195187 9.8386e-20)
(-1.51376 -0.0197482 -1.11123e-19)
(-1.46616 -0.0199735 0)
(-1.41802 -0.0201829 0)
(-1.36933 -0.0203863 -1.52626e-19)
(-1.32016 -0.020572 0)
(-1.27051 -0.0207507 0)
(-1.22044 -0.0209157 -1.9995e-19)
(-1.16997 -0.0210721 0)
(-1.11914 -0.0212222 -2.3532e-19)
(-1.06796 -0.0213675 0)
(-1.01647 -0.0215113 0)
(-0.964682 -0.0216567 0)
(-0.912599 -0.0218055 3.17503e-19)
(-0.860233 -0.0219604 0)
(-0.807587 -0.0221214 0)
(-0.754665 -0.0222903 0)
(-0.701473 -0.0224669 0)
(-0.648016 -0.0226539 0)
(-0.594297 -0.0228531 0)
(-0.540316 -0.0230691 5.15534e-19)
(-0.486067 -0.0233047 5.52165e-19)
(-0.431542 -0.0235633 0)
(-0.376731 -0.0238462 0)
(-0.321628 -0.024152 0)
(-0.266243 -0.0244773 -7.31932e-19)
(-0.210606 -0.0248336 0)
(-0.154793 -0.025199 1.69917e-18)
(-0.0989664 -0.0255054 -1.83639e-18)
(-0.0435289 -0.0256102 -1.98969e-18)
(0.0113993 -0.0249983 2.06805e-18)
(0.0624872 -0.0231066 -2.02566e-18)
(0.118807 -0.0205828 1.96419e-18)
(0.134551 -0.00916651 0)
(-0.000205766 0.020411 0)
(-0.00598901 0.0358013 0)
(-0.0124585 0.0367842 2.16486e-18)
(-0.0128238 0.0271445 0)
(0.00148355 0.00495869 -2.24923e-18)
(0.0312294 -0.0322967 -1.42649e-18)
(0.0703974 -0.0736634 -4.5091e-19)
(0.115026 -0.10743 -3.22334e-19)
(0.161155 -0.128093 0)
(0.205371 -0.135359 -2.11155e-19)
(0.245507 -0.131873 0)
(0.280624 -0.121022 0)
(0.3104 -0.105681 3.15124e-19)
(0.33486 -0.0879309 1.50149e-19)
(0.354225 -0.0691096 -2.92787e-19)
(0.368812 -0.0499975 -2.89428e-19)
(0.379002 -0.0309719 -1.44779e-19)
(0.384986 -0.0121773 0)
(0.387738 0.00639938 0)
(0.387181 0.0245975 0)
(0.382933 0.0420541 -1.53217e-19)
(0.374516 0.058227 0)
(0.361376 0.0723659 4.90457e-19)
(0.343059 0.083505 0)
(0.319378 0.0905382 0)
(0.290601 0.0924278 1.98401e-19)
(0.257642 0.0884942 0)
(0.22214 0.0788425 -2.50138e-19)
(0.186378 0.0644993 -5.82879e-19)
(0.153193 0.0471978 3.46125e-19)
(0.125548 0.0284844 0)
(0.106542 0.00914799 0)
(0.0973467 -0.0109085 0)
(0.0996428 -0.0308587 -9.77115e-19)
(0.111919 -0.0506084 -8.2979e-19)
(0.130742 -0.0674323 -3.46458e-19)
(0.150155 -0.074462 0)
(0.164269 -0.0687083 5.10868e-19)
(0.170588 -0.0530931 0)
(0.16874 -0.0328826 -5.01158e-19)
(0.159541 -0.0150304 0)
(0.14397 -0.00354611 0)
(0.121525 0.00288019 6.37192e-19)
(0.0857665 0.00882888 0)
(0.0267847 0.0218652 2.47484e-18)
(-0.0689726 0.0542859 -6.23502e-19)
(-0.191796 0.0987195 0)
(-0.324971 0.144367 -2.64875e-19)
(-0.464131 0.187699 -1.96865e-19)
(-0.608975 0.223634 0)
(-0.754602 0.250575 0)
(-0.897568 0.268948 0)
(-1.03601 0.278679 0)
(-1.16694 0.279858 0)
(-1.2882 0.27377 8.35593e-20)
(-1.39668 0.262644 1.57233e-19)
(-1.49344 0.247873 -7.40365e-20)
(-1.57925 0.230414 0)
(-1.65497 0.212002 1.3698e-19)
(-1.72215 0.193759 -6.66989e-20)
(-1.78223 0.176238 0)
(-1.83629 0.16003 -6.28078e-20)
(-1.88548 0.145461 0)
(-1.93065 0.132509 0)
(-1.97244 0.121102 -1.18316e-19)
(-2.01151 0.111122 5.80451e-20)
(-2.0483 0.102429 -1.14266e-19)
(-2.0831 0.0948377 1.12458e-19)
(-2.11617 0.0881884 5.5381e-20)
(-2.14769 0.0823247 0)
(-2.17778 0.0771149 5.38297e-20)
(-2.20656 0.0724429 0)
(-2.23409 0.0682119 0)
(-2.26043 0.064344 0)
(-2.28563 0.060772 5.09594e-20)
(-2.30973 0.0574463 0)
(-2.33275 0.0543215 9.9414e-20)
(-2.35471 0.0513679 -1.47278e-19)
(-2.37563 0.0485543 -4.85016e-20)
(-2.39551 0.0458641 0)
(-2.41438 0.0432754 -4.72828e-20)
(-2.43223 0.0407794 0)
(-2.44908 0.0383602 -9.21675e-20)
(-2.46492 0.0360131 0)
(-2.47976 0.0337257 -8.97911e-20)
(-2.49359 0.0314941 1.77091e-19)
(-2.5064 0.0293074 8.74199e-20)
(-2.51821 0.0271606 0)
(-2.52901 0.0250451 0)
(-2.5388 0.0229561 0)
(-2.54756 0.020889 -8.26329e-20)
(-2.55529 0.0188401 0)
(-2.56199 0.0168036 8.01965e-20)
(-2.56768 0.0147753 0)
(-2.57237 0.0127497 -2.3319e-19)
(-2.57608 0.0107215 -7.64727e-20)
(-2.57886 0.00868637 -7.52109e-20)
(-2.58075 0.00664674 0)
(-2.58185 0.00463396 0)
(-2.58225 0.00271918 0)
(-2.58189 0.000951879 0)
(-2.58042 -0.000719162 0)
(-2.57783 -0.00235045 -1.34448e-19)
(-2.57408 -0.00394895 -1.31593e-19)
(-2.56918 -0.00552407 0)
(-2.56312 -0.0070736 6.27609e-20)
(-2.55589 -0.00860075 6.12445e-20)
(-2.54749 -0.0101008 0)
(-2.53792 -0.0115772 1.16519e-19)
(-2.52719 -0.0130241 0)
(-2.51529 -0.0144462 -5.51965e-20)
(-2.50223 -0.0158366 0)
(-2.488 -0.0172011 0)
(-2.47262 -0.0185323 1.00018e-19)
(-2.45609 -0.0198365 0)
(-2.43841 -0.0211066 -4.63106e-20)
(-2.41959 -0.0223489 0)
(-2.39964 -0.0235571 0)
(-2.37856 -0.0247372 -4.12348e-20)
(-2.35636 -0.0258842 -3.89107e-20)
(-2.33305 -0.0270026 0)
(-2.30862 -0.028089 3.55053e-20)
(-2.2831 -0.0291461 0)
(-2.25648 -0.0301722 -3.15321e-20)
(-2.22877 -0.0311677 -5.84789e-20)
(-2.19999 -0.0321325 0)
(-2.17014 -0.0330645 0)
(-2.13923 -0.0339658 0)
(-2.10727 -0.0348319 0)
(-2.07427 -0.0356647 -3.64682e-20)
(-2.04024 -0.036462 -9.70561e-20)
(-2.0052 -0.0372294 0)
(-1.96918 -0.0379663 0)
(-1.9322 -0.0386783 0)
(-1.89426 -0.0393697 1.30757e-20)
(-1.85535 -0.040059 0)
(-1.81545 -0.0407346 0)
(-1.77458 -0.0413873 2.64809e-21)
(-1.73285 -0.0419722 5.83021e-21)
(-1.69029 -0.0424948 1.25441e-20)
(-1.64691 -0.0429696 0)
(-1.60273 -0.0434051 0)
(-1.55776 -0.0437962 2.91381e-20)
(-1.51203 -0.044151 -3.33652e-20)
(-1.46558 -0.0444678 0)
(-1.41843 -0.0447521 0)
(-1.37064 -0.0450104 -5.28737e-20)
(-1.32223 -0.0452343 1.75732e-19)
(-1.27322 -0.0454295 0)
(-1.22367 -0.0455879 0)
(-1.17357 -0.0457138 7.85895e-20)
(-1.12299 -0.0458011 0)
(-1.07193 -0.0458532 1.82768e-19)
(-1.02045 -0.0458724 -9.75554e-20)
(-0.96856 -0.0458554 0)
(-0.916308 -0.0458147 1.13791e-19)
(-0.863713 -0.0457502 2.40737e-19)
(-0.810798 -0.0456706 0)
(-0.75758 -0.0455797 0)
(-0.704069 -0.0454831 -1.44549e-19)
(-0.650272 -0.0453841 0)
(-0.596193 -0.045285 3.19861e-19)
(-0.541833 -0.0451858 0)
(-0.487196 -0.0450863 0)
(-0.432284 -0.0449881 0)
(-0.377098 -0.0448931 0)
(-0.321636 -0.044806 -2.04543e-19)
(-0.265891 -0.0447303 -2.13831e-19)
(-0.209852 -0.0446693 0)
(-0.15351 -0.0446231 0)
(-0.0968539 -0.0445873 0)
(-0.0398939 -0.0445448 2.53055e-19)
(0.0173477 -0.0444627 0)
(0.074813 -0.0442926 -5.22658e-19)
(0.132389 -0.043972 5.24021e-19)
(0.189802 -0.0433588 5.25408e-19)
(0.246989 -0.0420891 5.23745e-19)
(0.301691 -0.0397405 5.29645e-19)
(0.358949 -0.0355153 5.31736e-19)
(0.394623 -0.0229242 0)
(0.000351078 0.0230761 0)
(0.000672354 0.0400877 0)
(0.00658422 0.0322479 -2.31534e-18)
(0.0269391 -0.0021133 -1.61535e-18)
(0.0667616 -0.0621461 9.62138e-19)
(0.118148 -0.127797 6.25709e-19)
(0.170809 -0.179658 -3.75614e-22)
(0.217941 -0.209309 0)
(0.256893 -0.217602 0)
(0.287698 -0.209725 0)
(0.31158 -0.191464 0)
(0.329992 -0.167516 0)
(0.344146 -0.141067 -7.1698e-19)
(0.354897 -0.114 0)
(0.362809 -0.0873237 2.28849e-19)
(0.368257 -0.0615145 2.28317e-19)
(0.371506 -0.0367572 0)
(0.372759 -0.0131239 0)
(0.372258 0.00941279 0)
(0.370336 0.0310233 0)
(0.367254 0.051841 2.43655e-19)
(0.363194 0.0717949 0)
(0.35807 0.0905024 -2.61424e-19)
(0.351499 0.107215 0)
(0.342806 0.120814 0)
(0.33117 0.129905 0)
(0.315847 0.133039 -6.55286e-19)
(0.296569 0.129072 0)
(0.273916 0.117565 3.88542e-19)
(0.24949 0.0989332 -8.65181e-19)
(0.225758 0.0743249 0)
(0.205528 0.0451617 0)
(0.191078 0.0130996 0)
(0.182653 -0.0210129 6.17658e-19)
(0.178934 -0.0534721 5.43823e-19)
(0.173287 -0.0739241 0)
(0.159366 -0.0739166 0)
(0.136994 -0.0568485 -7.62731e-19)
(0.107064 -0.029968 -7.85131e-19)
(0.0700624 0.00249539 8.78632e-19)
(0.0234407 0.0356422 0)
(-0.0440107 0.0669951 0)
(-0.137521 0.106393 0)
(-0.251035 0.156815 0)
(-0.38084 0.212558 -3.96067e-19)
(-0.521 0.268997 -3.13617e-19)
(-0.66365 0.321871 2.57237e-19)
(-0.802835 0.366313 0)
(-0.934659 0.40107 0)
(-1.05551 0.425142 0)
(-1.16385 0.437829 0)
(-1.25914 0.439865 -1.43331e-19)
(-1.34116 0.432243 0)
(-1.41104 0.416176 0)
(-1.47072 0.393572 -1.20094e-19)
(-1.5223 0.366942 -1.13503e-19)
(-1.56798 0.338507 0)
(-1.60937 0.309755 2.12304e-19)
(-1.64787 0.282101 -1.01981e-19)
(-1.68435 0.256368 9.9143e-20)
(-1.71947 0.232872 0)
(-1.75367 0.211804 0)
(-1.78708 0.193348 0)
(-1.81968 0.177275 0)
(-1.85147 0.163229 8.84781e-20)
(-1.88248 0.150968 1.73774e-19)
(-1.9127 0.140241 8.52399e-20)
(-1.94209 0.130805 -8.37663e-20)
(-1.97064 0.122443 0)
(-1.99832 0.114967 1.62001e-19)
(-2.02513 0.10822 1.59415e-19)
(-2.05106 0.102071 1.5693e-19)
(-2.0761 0.0964122 -1.54534e-19)
(-2.10024 0.0911559 0)
(-2.12349 0.086231 -2.25002e-19)
(-2.14583 0.081582 0)
(-2.16727 0.0771627 7.27297e-20)
(-2.1878 0.0729384 7.18161e-20)
(-2.20743 0.0688789 0)
(-2.22615 0.064963 0)
(-2.24396 0.0611704 1.37353e-19)
(-2.26086 0.0574878 0)
(-2.27684 0.0539014 1.3338e-19)
(-2.2919 0.0504025 0)
(-2.30604 0.0469808 -1.2947e-19)
(-2.31925 0.0436296 -2.55159e-19)
(-2.33153 0.0403397 0)
(-2.34287 0.0371044 0)
(-2.35327 0.0339161 0)
(-2.36273 0.0307695 -1.19817e-19)
(-2.37124 0.0276606 0)
(-2.3788 0.0245871 -1.15954e-19)
(-2.3854 0.0215478 0)
(-2.39105 0.0185439 0)
(-2.39575 0.0155784 2.20247e-19)
(-2.3995 0.0126577 0)
(-2.40232 0.0097917 1.06204e-19)
(-2.4042 0.00699155 0)
(-2.40512 0.00426399 1.02193e-19)
(-2.40505 0.00159165 0)
(-2.40392 -0.00106022 0)
(-2.40171 -0.00369851 0)
(-2.39839 -0.00630552 2.80976e-19)
(-2.39397 -0.00887842 9.13766e-20)
(-2.38842 -0.0114144 0)
(-2.38174 -0.0139131 0)
(-2.37393 -0.0163714 0)
(-2.36499 -0.0187889 0)
(-2.35491 -0.0211628 -7.9931e-20)
(-2.3437 -0.0234927 1.55534e-19)
(-2.33135 -0.0257762 7.51408e-20)
(-2.31788 -0.0280129 -1.45881e-19)
(-2.30327 -0.030201 -1.40963e-19)
(-2.28754 -0.03234 -6.77273e-20)
(-2.27069 -0.0344289 0)
(-2.25272 -0.0364668 -1.25846e-19)
(-2.23365 -0.0384541 0)
(-2.21346 -0.0403899 1.15477e-19)
(-2.19218 -0.0422755 5.47854e-20)
(-2.1698 -0.0441102 0)
(-2.14633 -0.0458955 -9.95037e-20)
(-2.12178 -0.0476304 -4.66868e-20)
(-2.09615 -0.0493163 0)
(-2.06945 -0.0509518 -4.18889e-20)
(-2.04168 -0.0525378 1.15794e-19)
(-2.01286 -0.0540727 0)
(-1.98299 -0.0555566 0)
(-1.95208 -0.0569882 0)
(-1.92014 -0.0583654 0)
(-1.88717 -0.0596845 4.86434e-20)
(-1.85319 -0.0609464 4.18384e-20)
(-1.81822 -0.0621546 0)
(-1.78227 -0.0633087 0)
(-1.74538 -0.0644057 0)
(-1.70754 -0.0654399 0)
(-1.66875 -0.0664132 0)
(-1.62901 -0.0673321 0)
(-1.58835 -0.0682183 -1.65718e-21)
(-1.54686 -0.069055 -1.0199e-21)
(-1.50455 -0.0698217 0)
(-1.46143 -0.0705191 0)
(-1.41751 -0.0711496 -2.69315e-20)
(-1.37283 -0.0717114 0)
(-1.32741 -0.0722099 4.16107e-20)
(-1.28127 -0.072646 4.74154e-20)
(-1.23446 -0.0730243 0)
(-1.18702 -0.0733508 0)
(-1.13897 -0.0736229 -6.97202e-20)
(-1.09034 -0.07384 -1.51508e-19)
(-1.04116 -0.0740013 0)
(-0.991466 -0.0741033 0)
(-0.941278 -0.0741472 0)
(-0.890634 -0.0741275 -1.06416e-19)
(-0.839562 -0.0740545 1.13964e-19)
(-0.788098 -0.0739228 0)
(-0.73627 -0.0737475 2.56016e-19)
(-0.684103 -0.0735319 1.34501e-19)
(-0.631619 -0.0732867 -2.86947e-19)
(-0.578834 -0.0730191 0)
(-0.525759 -0.0727369 0)
(-0.472402 -0.0724457 -3.34035e-19)
(-0.418764 -0.0721485 -1.76171e-19)
(-0.364846 -0.071846 0)
(-0.31065 -0.071537 0)
(-0.256177 -0.0712235 0)
(-0.201425 -0.0709078 0)
(-0.146391 -0.0705955 -4.30094e-19)
(-0.0910662 -0.0702907 0)
(-0.0354397 -0.0699984 0)
(0.020503 -0.0697166 0)
(0.0767718 -0.0694374 0)
(0.133367 -0.0691368 0)
(0.190271 -0.068771 0)
(0.247432 -0.0682755 -5.0328e-19)
(0.304766 -0.0675646 0)
(0.36206 -0.0664668 0)
(0.419312 -0.0646837 -1.04558e-18)
(0.474971 -0.0617025 5.28416e-19)
(0.532902 -0.056531 -5.39455e-19)
(0.578394 -0.0438617 5.50829e-19)
(-0.00114733 0.0230423 0)
(0.00200205 0.0266375 5.0376e-18)
(0.0240901 -0.0167289 0)
(0.0721565 -0.100385 8.56592e-19)
(0.13296 -0.187836 0)
(0.190364 -0.25109 0)
(0.235211 -0.281715 -3.23438e-19)
(0.266271 -0.284658 0)
(0.286338 -0.269323 0)
(0.299038 -0.244025 0)
(0.307261 -0.21423 0)
(0.312825 -0.182969 0)
(0.316707 -0.151756 8.09432e-19)
(0.319357 -0.121287 3.98148e-19)
(0.320936 -0.0918688 -3.95669e-19)
(0.321485 -0.0636377 0)
(0.321016 -0.0366556 0)
(0.319548 -0.0109632 0)
(0.317128 0.0134307 0)
(0.313854 0.0365585 0)
(0.309874 0.0584573 4.29105e-19)
(0.305405 0.0791342 4.40921e-19)
(0.300656 0.0984947 -4.57486e-19)
(0.295736 0.116224 4.80097e-19)
(0.290549 0.131673 0)
(0.284761 0.143812 0)
(0.277788 0.151212 5.83527e-19)
(0.268915 0.152217 0)
(0.257572 0.145327 0)
(0.243662 0.129533 7.53507e-19)
(0.227814 0.104758 8.40459e-19)
(0.211153 0.0721092 9.48687e-19)
(0.194901 0.0338481 0)
(0.177849 -0.00541564 0)
(0.153108 -0.033351 -9.36863e-19)
(0.116146 -0.037647 0)
(0.068596 -0.0194455 0)
(0.0107205 0.0145837 7.68397e-19)
(-0.0607451 0.0595539 -6.82967e-19)
(-0.148273 0.114207 5.45031e-19)
(-0.250908 0.175817 0)
(-0.367687 0.239721 0)
(-0.494545 0.304275 5.80729e-19)
(-0.625448 0.367784 0)
(-0.754729 0.426385 4.15916e-19)
(-0.877217 0.474965 5.47692e-19)
(-0.98821 0.511556 -4.88609e-19)
(-1.08567 0.536181 2.95723e-19)
(-1.16896 0.548841 0)
(-1.23803 0.550357 0)
(-1.29449 0.541975 2.35219e-19)
(-1.34022 0.525264 1.09781e-19)
(-1.37746 0.501929 0)
(-1.40873 0.473726 0)
(-1.43635 0.442593 9.4568e-20)
(-1.46221 0.410484 1.82955e-19)
(-1.48756 0.378826 0)
(-1.51313 0.348527 -1.68795e-19)
(-1.53931 0.320243 1.645e-19)
(-1.56621 0.29431 -1.59647e-19)
(-1.59375 0.270813 0)
(-1.62182 0.249724 0)
(-1.6502 0.230985 0)
(-1.67864 0.214381 0)
(-1.70695 0.199651 0)
(-1.73498 0.186558 -1.38175e-19)
(-1.76261 0.174876 0)
(-1.78972 0.164392 0)
(-1.81624 0.154915 0)