/*--------------------------------*- C++ -*----------------------------------*\
| =========                 |                                                 |
| \\      /  F ield         | OpenFOAM: The Open Source CFD Toolbox           |
|  \\    /   O peration     | Version:  v2012                                 |
|   \\  /    A nd           | Website:  www.openfoam.com                      |
|    \\/     M anipulation  |                                                 |
\*---------------------------------------------------------------------------*/
FoamFile
{
    version     2.0;
    format      ascii;
    class       volScalarField;
    location    "3800";
    object      nuTilda;
}
// * * * * * * * * * * * * * * * * * * * * * * * * * * * * * * * * * * * * * //

dimensions      [0 2 -1 0 0 0 0];


internalField   nonuniform List<scalar> 
12225
(
0.0122671
0.00158833
0.000666932
0.0004122
0.000298016
0.000234158
0.000195366
0.000157557
0.000177091
0.000222701
0.000230389
0.000221272
0.000203463
0.000178139
0.000172628
0.000158585
0.000147171
0.00013688
0.0323823
0.00744532
0.00330641
0.00204337
0.00146819
0.00114457
0.000939066
0.000785447
0.000691132
0.000627801
0.000570646
0.000520035
0.000476783
0.00043743
0.000407122
0.00037478
0.000350014
0.000324454
0.0490123
0.01515
0.00728196
0.00457856
0.00330642
0.00258052
0.00211335
0.00178199
0.0015469
0.00137269
0.0012317
0.00111557
0.00101869
0.00093651
0.000867167
0.000804843
0.000754191
0.000701718
0.063054
0.0237783
0.0122894
0.00788815
0.00573398
0.00448498
0.00367443
0.00310422
0.00268721
0.00237002
0.00211798
0.00191325
0.00174412
0.00160235
0.00148258
0.00137879
0.00129128
0.00120476
0.074932
0.0328517
0.0181452
0.0119262
0.00874549
0.00686413
0.00563087
0.00476131
0.0041187
0.00362573
0.00323518
0.00291878
0.00265804
0.0024401
0.00225603
0.0020984
0.00196343
0.0018399
0.0849536
0.0420208
0.0246655
0.0166359
0.0123325
0.00972587
0.00799541
0.00676741
0.00585404
0.00515005
0.00459191
0.00413984
0.00376744
0.00345637
0.00319355
0.0029691
0.00277616
0.00260661
0.0933822
0.0510219
0.0316642
0.0219415
0.016474
0.0130717
0.0107779
0.00913539
0.00790598
0.00695436
0.00619833
0.00558533
0.0050801
0.00465803
0.00430138
0.00399704
0.00373536
0.00350916
0.0993794
0.0583363
0.0378386
0.0268568
0.0204171
0.0163053
0.0134892
0.011453
0.00991905
0.00872671
0.00777697
0.0070057
0.00636944
0.00583763
0.00538817
0.00500469
0.00467517
0.00439184
0.104023
0.0645454
0.0433804
0.0314239
0.0241571
0.0194092
0.0161097
0.0137018
0.0118767
0.0104523
0.00931473
0.0083894
0.00762525
0.00698616
0.00644587
0.00598492
0.005589
0.00524917
0.108368
0.0708939
0.0493757
0.0365496
0.0284517
0.0230231
0.0191863
0.0163548
0.0141927
0.0124969
0.0111382
0.0100306
0.00911457
0.00834785
0.00769937
0.00714607
0.00667098
0.00626329
0.112368
0.0772557
0.0557282
0.0421918
0.0332976
0.0271652
0.0227468
0.0194433
0.0168984
0.0148904
0.013275
0.0119546
0.0108607
0.00994396
0.00916816
0.00850607
0.00793759
0.0074494
0.115994
0.0834975
0.0623054
0.0482611
0.0386474
0.0318167
0.026789
0.0229739
0.0200047
0.0176453
0.0157379
0.0141737
0.012875
0.0117851
0.010862
0.0100738
0.0093969
0.00881485
0.119234
0.0894856
0.0689377
0.0546109
0.0443919
0.0369007
0.0312597
0.0269089
0.0234837
0.02074
0.0185097
0.0166735
0.015145
0.0138601
0.0127705
0.0118397
0.0110398
0.010351
0.122086
0.095084
0.075415
0.0610223
0.0503361
0.0422535
0.0360231
0.0311353
0.0272402
0.0240931
0.0215191
0.0193909
0.0176141
0.0161175
0.0148467
0.0137601
0.0128258
0.0120198
0.124546
0.100135
0.0814619
0.0671726
0.056158
0.047577
0.0408126
0.0354174
0.031066
0.0275197
0.0246013
0.0221778
0.0201482
0.018435
0.0169783
0.0157315
0.0146584
0.0137312
0.126578
0.104396
0.0866605
0.0725515
0.0613228
0.0523526
0.0451453
0.0393148
0.0345631
0.0306611
0.0274325
0.024741
0.0224806
0.020569
0.0189413
0.0175468
0.0163455
0.0153062
0.128011
0.107322
0.0902141
0.0762353
0.0648743
0.0556509
0.0481493
0.0420254
0.0370012
0.0328553
0.0294126
0.0265352
0.0241143
0.0220643
0.0203171
0.0188191
0.0175275
0.0164083
0.128006
0.107313
0.0902048
0.0762269
0.0648674
0.0556454
0.048145
0.0420221
0.0369988
0.0328537
0.0294117
0.0265349
0.0241147
0.0220651
0.0203184
0.0188205
0.0175286
0.0164082
0.126509
0.104255
0.0864922
0.0723807
0.0611613
0.052205
0.0450128
0.0391967
0.0344584
0.0305685
0.0273506
0.0246684
0.0224163
0.0205118
0.0188902
0.0175006
0.0163023
0.015263
0.124267
0.0995604
0.0807712
0.0664676
0.0554886
0.0469631
0.0402594
0.0349227
0.0306248
0.0271258
0.0242487
0.0218611
0.0198625
0.0181762
0.0167425
0.0155151
0.0144574
0.0135404
0.12136
0.0936399
0.0737261
0.0593348
0.0487592
0.0408248
0.0347467
0.0300003
0.0262308
0.0231928
0.0207127
0.018665
0.0169572
0.0155197
0.0142998
0.0132566
0.0123582
0.0115797
0.117686
0.0865903
0.0656967
0.0514791
0.0415374
0.0343608
0.0290183
0.0249322
0.0217348
0.0191848
0.0171184
0.0154211
0.0140105
0.0128262
0.0118228
0.0109656
0.0102279
0.00958885
0.11305
0.0784122
0.056921
0.0432687
0.0342296
0.0279652
0.0234365
0.0200435
0.0174263
0.0153598
0.0136967
0.012337
0.0112107
0.0102671
0.00946865
0.00878716
0.00820096
0.00769339
0.107169
0.0691009
0.0476372
0.035029
0.0271566
0.021922
0.0182437
0.0155401
0.0134818
0.0118708
0.0105819
0.00953231
0.00866515
0.00793988
0.00732684
0.00680389
0.00635418
0.00596494
0.0996761
0.0587036
0.0381279
0.0270699
0.0205782
0.0164329
0.0135949
0.0115437
0.00999935
0.00879953
0.00784423
0.00706854
0.00642881
0.0058944
0.00544292
0.00505791
0.00472683
0.00444036
0.0901097
0.0473665
0.0287363
0.0196847
0.0146976
0.0116311
0.0095785
0.00811521
0.00702351
0.00618081
0.00551236
0.00497026
0.00452346
0.00415042
0.00383511
0.0035663
0.00333506
0.00313492
0.0779076
0.0353826
0.0198606
0.0131383
0.00966106
0.00759296
0.0062335
0.00527411
0.00456427
0.0040204
0.00359045
0.00324086
0.00295212
0.00271106
0.00250637
0.00233219
0.00218221
0.00205178
0.06238
0.0232554
0.0119461
0.00765493
0.00556338
0.00435255
0.00356723
0.00301619
0.00261337
0.00231041
0.00207212
0.00187482
0.00171031
0.00157289
0.00145404
0.00135329
0.00126677
0.00118924
0.0426105
0.0117794
0.00546931
0.00341388
0.00246076
0.00192014
0.0015728
0.00132962
0.00115856
0.00104155
0.000949999
0.000865358
0.000793019
0.000729813
0.000674469
0.00062237
0.000583625
0.000546066
0.0168348
0.0025599
0.00110031
0.000684193
0.00049518
0.00038916
0.000321436
0.000273103
0.000272253
0.000339095
0.000377454
0.000355864
0.000327017
0.000283155
0.000288906
0.000233685
0.000267317
0.000264321
3.70915e-06
1.38327e-05
2.56089e-05
3.8243e-05
4.60366e-05
4.9833e-05
5.0218e-05
4.77924e-05
4.45836e-05
3.94349e-05
3.40894e-05
2.93614e-05
2.67524e-05
2.73208e-05
2.96399e-05
3.13298e-05
3.11009e-05
2.80735e-05
2.28048e-05
1.91807e-05
1.96938e-05
2.60191e-05
3.895e-05
6.515e-05
8.76129e-05
0.000101034
0.000113666
0.000124633
0.000134561
0.000143029
0.000150585
0.000157176
0.000163013
0.000168146
0.000172661
0.000176673
0.000180248
0.000183457
0.000186345
0.000188949
0.000191292
0.000193392
0.000195265
0.000196924
0.00019838
0.000199644
0.000200726
0.00020163
0.000202355
0.000202896
0.00020314
0.000203371
0.000203416
0.000203297
0.000203019
0.000202604
0.000202047
0.000201353
0.000200524
0.000199562
0.000198468
0.000197246
0.000195898
0.000194428
0.000192837
0.000191129
0.000189305
0.000187368
0.000185322
0.00018317
0.000180914
0.000178558
0.000176105
0.000173556
0.000170916
0.000168186
0.000165369
0.000162467
0.000159481
0.000156413
0.000153261
0.000150026
0.000146705
0.000143295
0.000139794
0.000136195
0.000132495
0.000128684
0.000124753
0.000120687
0.000116472
0.00011209
0.000107544
0.000102887
9.83278e-05
9.43621e-05
9.1562e-05
8.9819e-05
8.85084e-05
8.73045e-05
8.61213e-05
8.49426e-05
8.37668e-05
8.25944e-05
8.14265e-05
8.02639e-05
7.91081e-05
7.79632e-05
7.68508e-05
7.58995e-05
7.49653e-05
7.40375e-05
7.31177e-05
7.22062e-05
7.13032e-05
7.04093e-05
6.95247e-05
6.86498e-05
6.77849e-05
6.69301e-05
6.60856e-05
6.52516e-05
6.44287e-05
6.3617e-05
6.28166e-05
6.20273e-05
6.12504e-05
6.05135e-05
5.98364e-05
5.91679e-05
5.85044e-05
5.78546e-05
5.7223e-05
5.6596e-05
5.59741e-05
5.53604e-05
5.47557e-05
5.41606e-05
5.35753e-05
5.29996e-05
5.24333e-05
5.18764e-05
5.13287e-05
5.079e-05
5.02603e-05
4.97394e-05
4.92271e-05
4.87235e-05
4.82283e-05
4.77415e-05
4.72631e-05
4.6793e-05
4.63312e-05
4.58777e-05
4.54323e-05
4.49953e-05
4.45665e-05
4.41463e-05
4.37345e-05
4.33315e-05
4.29374e-05
4.25525e-05
4.21769e-05
4.18111e-05
4.1455e-05
4.1109e-05
4.07728e-05
4.04465e-05
4.01294e-05
3.98207e-05
3.9519e-05
3.92227e-05
3.89279e-05
3.86345e-05
3.83235e-05
3.80264e-05
3.75974e-05
3.72912e-05
3.63602e-05
3.48412e-05
5.88179e-06
3.99425e-05
9.08996e-05
0.000151921
0.000191202
0.00021357
0.000222525
0.000221111
0.000213147
0.000197492
0.000178394
0.000160496
0.000151696
0.000156435
0.000168611
0.000176132
0.000178031
0.000178817
0.000183783
0.000192712
0.000207737
0.000224922
0.000241165
0.000256467
0.000267367
0.000276831
0.000285411
0.000298235
0.000316685
0.000330309
0.000342754
0.000353461
0.000363214
0.000372143
0.000379914
0.000387017
0.000393638
0.000399997
0.000406222
0.000412374
0.00041845
0.000424405
0.000430188
0.000435758
0.000441087
0.000446158
0.000450956
0.000455468
0.000459695
0.000463645
0.000467324
0.000470754
0.000473925
0.000476846
0.000479518
0.000481943
0.000484122
0.000486054
0.00048774
0.000489181
0.000490377
0.000491329
0.00049204
0.000492513
0.000492759
0.000492783
0.000492579
0.000492144
0.000491494
0.000490633
0.000489566
0.000488301
0.000486844
0.000485201
0.000483381
0.000481389
0.000479234
0.000476924
0.000474465
0.000471866
0.000469133
0.000466276
0.0004633
0.000460216
0.000457029
0.000453749
0.000450385
0.000446943
0.000443434
0.000439865
0.000436242
0.00043257
0.00042885
0.000425073
0.000421221
0.000417268
0.000413197
0.000409039
0.000404842
0.000400631
0.000396413
0.000392192
0.000387972
0.000383757
0.000379549
0.000375352
0.000371169
0.000367003
0.000362852
0.000358716
0.000354604
0.000350522
0.00034647
0.000342452
0.000338468
0.00033452
0.000330611
0.000326741
0.000322911
0.000319124
0.000315379
0.000311678
0.000308022
0.000304411
0.000300848
0.000297331
0.000293861
0.000290435
0.000287053
0.000283718
0.000280428
0.000277192
0.00027401
0.000270866
0.000267761
0.000264699
0.000261683
0.000258715
0.000255793
0.000252918
0.000250088
0.000247305
0.000244566
0.000241872
0.000239221
0.000236613
0.000234047
0.000231524
0.000229042
0.000226601
0.0002242
0.000221841
0.000219521
0.000217242
0.000215003
0.000212804
0.000210646
0.000208529
0.000206453
0.000204421
0.000202432
0.000200489
0.000198593
0.000196745
0.000194947
0.000193201
0.000191506
0.000189863
0.000188272
0.00018673
0.000185233
0.00018378
0.000182353
0.00018098
0.000179539
0.000178323
0.000176484
0.000175947
0.000173182
0.000171885
1.28753e-05
7.44303e-05
0.000173975
0.000251166
0.000302737
0.000332285
0.000342977
0.000340014
0.000327259
0.000308327
0.000289127
0.000277093
0.000275203
0.000281962
0.000292205
0.000302963
0.000315727
0.000332549
0.000353832
0.000378836
0.000405949
0.000433897
0.000472889
0.000518796
0.000564189
0.000608109
0.000651043
0.000694587
0.000733571
0.00076459
0.000789386
0.000809051
0.000824645
0.000837024
0.000846967
0.000855242
0.000862546
0.000869519
0.000876694
0.000884421
0.000892804
0.000901719
0.000910926
0.000920189
0.000929334
0.000938239
0.000946831
0.000955061
0.000962893
0.000970299
0.000977253
0.000983733
0.000989729
0.000995238
0.00100026
0.00100478
0.00100882
0.00101236
0.00101541
0.00101797
0.00102004
0.00102161
0.00102269
0.00102324
0.00102339
0.0010231
0.00102231
0.00102107
0.00101938
0.00101726
0.00101472
0.00101178
0.00100844
0.00100473
0.00100065
0.00099622
0.000991456
0.000986371
0.00098098
0.000975299
0.000969342
0.000963126
0.000956664
0.000949972
0.000943066
0.000935959
0.000928667
0.000921204
0.000913584
0.00090582
0.000897924
0.000889908
0.00088178
0.000873549
0.000865223
0.000856811
0.000848327
0.000839786
0.000831204
0.000822596
0.00081397
0.000805337
0.000796703
0.000788078
0.000779468
0.00077088
0.00076232
0.000753795
0.00074531
0.00073687
0.000728482
0.000720151
0.00071188
0.000703675
0.000695539
0.000687475
0.000679486
0.000671575
0.000663746
0.000656
0.000648339
0.000640765
0.00063328
0.000625886
0.000618584
0.000611374
0.000604258
0.000597235
0.000590306
0.000583472
0.000576732
0.000570089
0.000563539
0.000557077
0.000550702
0.000544417
0.000538223
0.000532121
0.000526111
0.000520193
0.000514365
0.000508627
0.000502978
0.000497416
0.000491941
0.000486551
0.000481245
0.000476021
0.00047088
0.000465819
0.000460837
0.000455934
0.000451108
0.000446359
0.000441685
0.000437085
0.000432558
0.000428103
0.000423719
0.000419404
0.000415158
0.000410978
0.000406862
0.000402809
0.000398816
0.00039488
0.000390997
0.000387161
0.000383365
0.000379603
0.00037586
0.000372124
0.000368368
0.000364583
0.000360671
0.000356725
0.000352262
0.000348081
0.000341624
0.000330134
2.18267e-05
0.000106502
0.000220162
0.000312459
0.000374797
0.000411448
0.000426588
0.000426802
0.0004168
0.000403609
0.000395863
0.000395302
0.000404796
0.000422117
0.000444909
0.000472689
0.000506048
0.000545265
0.000589514
0.000653139
0.000727083
0.000806913
0.000890685
0.000960881
0.001023
0.00107886
0.00112904
0.00117373
0.0012128
0.00124651
0.00127562
0.00130084
0.00132288
0.00134236
0.00135986
0.00137585
0.00139075
0.0014049
0.00141856
0.0014319
0.00144506
0.00145811
0.00147106
0.00148391
0.0014966
0.00150906
0.00152118
0.00153288
0.00154406
0.00155465
0.0015646
0.00157387
0.00158244
0.0015903
0.00159743
0.00160383
0.0016095
0.00161444
0.00161863
0.00162209
0.00162481
0.00162679
0.00162794
0.00162838
0.00162825
0.00162733
0.0016257
0.00162338
0.00162038
0.00161672
0.00161242
0.0016075
0.00160198
0.00159588
0.00158922
0.00158203
0.00157432
0.00156612
0.00155746
0.00154835
0.00153882
0.00152889
0.00151859
0.00150793
0.00149695
0.00148566
0.00147408
0.00146225
0.00145017
0.00143787
0.00142538
0.00141269
0.00139985
0.00138685
0.00137372
0.00136047
0.00134713
0.0013337
0.00132021
0.00130669
0.00129313
0.00127956
0.00126599
0.00125244
0.00123891
0.00122541
0.00121196
0.00119856
0.00118523
0.00117197
0.00115879
0.00114569
0.00113269
0.0011198
0.001107
0.00109432
0.00108176
0.00106932
0.001057
0.00104482
0.00103276
0.00102084
0.00100905
0.000997409
0.000985907
0.000974547
0.00096333
0.000952259
0.000941333
0.000930553
0.000919921
0.000909434
0.000899091
0.000888887
0.000878822
0.000868896
0.000859112
0.000849468
0.000839966
0.000830604
0.000821381
0.000812297
0.000803348
0.000794535
0.000785854
0.000777305
0.000768884
0.000760592
0.000752425
0.000744382
0.000736462
0.000728662
0.000720981
0.000713417
0.000705967
0.000698632
0.000691407
0.000684292
0.000677284
0.000670382
0.000663583
0.000656883
0.000650282
0.000643774
0.000637356
0.000631023
0.000624768
0.000618586
0.000612464
0.000606392
0.000600353
0.000594327
0.000588282
0.000582184
0.000575961
0.000569587
0.000562784
0.000555812
0.000547387
0.000531211
2.69608e-05
0.000121964
0.000240947
0.000357444
0.000435167
0.000482037
0.000505331
0.000513689
0.000515315
0.000516535
0.000523753
0.000540251
0.00056661
0.000601856
0.000645237
0.000696802
0.00075736
0.000841149
0.000937133
0.00103281
0.00112152
0.00120564
0.00128469
0.00135711
0.00142363
0.00148483
0.0015411
0.00159278
0.00164023
0.00168387
0.00172419
0.00176167
0.00179674
0.00182976
0.00186105
0.00189086
0.00191937
0.00194673
0.00197304
0.00199835
0.0020227
0.00204609
0.00206852
0.00208998
0.00211044
0.00212986
0.00214823
0.0021655
0.00218165
0.00219666
0.00221053
0.00222325
0.00223484
0.00224531
0.00225468
0.00226296
0.00227017
0.00227633
0.00228146
0.00228556
0.00228865
0.0022907
0.00229161
0.0022917
0.00229082
0.00228894
0.0022861
0.00228233
0.00227764
0.00227205
0.0022656
0.00225831
0.00225021
0.00224133
0.0022317
0.00222134
0.0022103
0.00219859
0.00218626
0.00217333
0.00215983
0.0021458
0.00213126
0.00211625
0.00210079
0.00208493
0.00206868
0.00205209
0.00203517
0.00201795
0.00200047
0.00198274
0.0019648
0.00194666
0.00192836
0.0019099
0.00189132
0.00187264
0.00185389
0.00183508
0.00181624
0.00179738
0.00177853
0.00175969
0.0017409
0.00172215
0.00170347
0.00168486
0.00166634
0.00164792
0.00162962
0.00161143
0.00159338
0.00157546
0.00155769
0.00154008
0.00152263
0.00150534
0.00148823
0.00147129
0.00145453
0.00143796
0.00142157
0.00140538
0.00138938
0.00137358
0.00135797
0.00134256
0.00132735
0.00131234
0.00129753
0.00128291
0.0012685
0.00125427
0.00124024
0.00122641
0.00121276
0.00119931
0.00118605
0.00117297
0.00116009
0.0011474
0.00113489
0.00112257
0.00111042
0.00109845
0.00108666
0.00107505
0.0010636
0.00105232
0.00104121
0.00103026
0.00101948
0.00100885
0.000998375
0.000988054
0.000977885
0.000967863
0.000957985
0.00094825
0.000938654
0.000929193
0.000919863
0.00091066
0.000901579
0.000892614
0.000883756
0.000874998
0.000866326
0.000857727
0.000849182
0.000840665
0.000832142
0.000823571
0.000814881
0.000806012
0.000796759
0.00078716
0.000777007
0.000757265
3.08044e-05
0.000135308
0.000261397
0.000392187
0.000488185
0.000549571
0.000587176
0.000610588
0.000628472
0.000648059
0.000674539
0.0007105
0.000756649
0.000813261
0.000880887
0.000971728
0.00107707
0.00117867
0.00127772
0.00137295
0.0014634
0.00154916
0.00163018
0.00170642
0.00177819
0.00184583
0.00190969
0.0019701
0.00202739
0.00208189
0.00213393
0.00218377
0.00223169
0.00227787
0.00232249
0.00236566
0.00240747
0.00244798
0.00248721
0.00252517
0.00256186
0.00259726
0.00263133
0.00266405
0.00269538
0.00272527
0.00275369
0.00278059
0.00280594
0.00282971
0.00285186
0.00287237
0.00289124
0.00290844
0.00292397
0.00293784
0.00295004
0.00296057
0.00296947
0.00297673
0.00298238
0.00298646
0.00298889
0.00298979
0.00298932
0.00298735
0.002984
0.0029793
0.00297329
0.00296604
0.00295759
0.00294799
0.00293731
0.00292558
0.00291285
0.00289919
0.00288462
0.0028692
0.00285297
0.00283598
0.00281827
0.00279987
0.00278084
0.0027612
0.00274101
0.0027203
0.00269911
0.00267748
0.00265545
0.00263305
0.00261031
0.00258728
0.00256399
0.00254046
0.00251672
0.00249282
0.00246876
0.00244459
0.00242033
0.00239601
0.00237165
0.00234728
0.00232292
0.00229858
0.0022743
0.00225009
0.00222596
0.00220193
0.00217802
0.00215424
0.00213061
0.00210713
0.00208382
0.00206069
0.00203775
0.002015
0.00199247
0.00197014
0.00194804
0.00192616
0.00190451
0.0018831
0.00186192
0.00184099
0.00182031
0.00179988
0.00177969
0.00175976
0.00174008
0.00172065
0.00170147
0.00168255
0.00166388
0.00164545
0.00162727
0.00160933
0.00159164
0.00157419
0.00155699
0.00154002
0.0015233
0.00150681
0.00149055
0.00147453
0.00145873
0.00144316
0.00142781
0.00141268
0.00139777
0.00138306
0.00136857
0.00135428
0.00134019
0.0013263
0.00131261
0.00129911
0.0012858
0.00127268
0.00125974
0.00124697
0.00123438
0.00122196
0.00120971
0.00119761
0.00118568
0.00117388
0.00116223
0.00115071
0.0011393
0.00112799
0.00111676
0.00110558
0.00109442
0.00108322
0.00107193
0.00106046
0.00104865
0.00103651
0.00102423
0.0010018
3.23465e-05
0.000142476
0.000273858
0.000409591
0.000527333
0.00060841
0.000664429
0.000706445
0.000743666
0.000783316
0.000830407
0.00088784
0.000957344
0.00105004
0.00115727
0.00126386
0.0013699
0.00147312
0.00157302
0.00166917
0.00176136
0.0018496
0.00193398
0.00201467
0.0020919
0.00216595
0.00223709
0.0023056
0.00237173
0.00243571
0.00249775
0.00255803
0.0026167
0.00267387
0.00272963
0.00278402
0.0028371
0.00288886
0.00293931
0.00298841
0.00303616
0.00308249
0.00312738
0.00317077
0.00321261
0.00325285
0.00329143
0.00332831
0.00336342
0.00339673
0.00342819
0.00345776
0.00348542
0.00351111
0.00353483
0.00355655
0.00357626
0.00359394
0.0036096
0.00362322
0.00363481
0.0036444
0.00365197
0.00365759
0.00366124
0.00366286
0.00366277
0.00366078
0.00365701
0.00365149
0.00364428
0.00363544
0.00362502
0.00361309
0.00359971
0.00358494
0.00356884
0.0035515
0.00353297
0.00351332
0.00349261
0.00347093
0.00344832
0.00342486
0.00340061
0.00337563
0.00334998
0.00332373
0.00329692
0.00326961
0.00324186
0.00321371
0.0031852
0.00315639
0.0031273
0.00309799
0.0030685
0.00303885
0.00300908
0.00297924
0.00294934
0.00291942
0.00288951
0.00285963
0.00282981
0.00280007
0.00277043
0.00274091
0.00271154
0.00268232
0.00265328
0.00262442
0.00259578
0.00256734
0.00253914
0.00251118
0.00248346
0.00245601
0.00242881
0.00240189
0.00237526
0.0023489
0.00232283
0.00229706
0.00227159
0.00224641
0.00222153
0.00219696
0.00217269
0.00214873
0.00212507
0.00210172
0.00207866
0.00205591
0.00203345
0.00201128
0.00198942
0.00196784
0.00194656
0.00192556
0.00190485
0.00188443
0.00186429
0.00184442
0.00182483
0.00180551
0.00178645
0.00176766
0.00174912
0.00173084
0.00171282
0.00169503
0.0016775
0.0016602
0.00164313
0.0016263
0.0016097
0.00159331
0.00157715
0.0015612
0.00154547
0.00152994
0.00151461
0.00149947
0.00148452
0.00146976
0.00145516
0.00144072
0.00142643
0.00141227
0.00139822
0.00138424
0.00137031
0.00135637
0.00134235
0.00132819
0.00131372
0.001299
0.00128395
0.00125973
3.27875e-05
0.000144067
0.00027514
0.000409104
0.000538807
0.000642021
0.00071915
0.00078064
0.000836628
0.000894812
0.000963196
0.00105576
0.00116587
0.00128735
0.00140282
0.001514
0.00162171
0.00172614
0.00182724
0.00192495
0.00201928
0.00211032
0.00219822
0.00228317
0.00236538
0.00244509
0.00252252
0.00259787
0.00267133
0.00274309
0.00281327
0.002882
0.00294937
0.00301543
0.00308024
0.00314381
0.00320614
0.00326721
0.003327
0.00338547
0.00344256
0.00349823
0.00355241
0.00360503
0.00365605
0.00370538
0.00375297
0.00379875
0.00384266
0.00388465
0.00392464
0.0039626
0.00399848
0.00403223
0.00406382
0.00409322
0.00412039
0.00414532
0.00416799
0.00418839
0.00420652
0.00422237
0.00423595
0.00424728
0.00425636
0.00426323
0.00426795
0.00427041
0.00427084
0.0042692
0.00426553
0.00425988
0.00425232
0.00424289
0.00423165
0.00421868
0.00420403
0.00418778
0.00416998
0.00415071
0.00413005
0.00410805
0.00408481
0.00406038
0.00403484
0.00400826
0.00398072
0.00395227
0.003923
0.00389297
0.00386225
0.00383088
0.00379895
0.00376651
0.00373361
0.00370032
0.00366668
0.00363274
0.00359857
0.00356419
0.00352967
0.00349504
0.00346034
0.0034256
0.00339087
0.00335618
0.00332155
0.00328701
0.0032526
0.00321833
0.00318424
0.00315033
0.00311662
0.00308315
0.00304992
0.00301694
0.00298423
0.00295181
0.00291968
0.00288785
0.00285634
0.00282514
0.00279427
0.00276372
0.00273352
0.00270365
0.00267413
0.00264495
0.00261612
0.00258764
0.0025595
0.00253171
0.00250427
0.00247718
0.00245042
0.00242401
0.00239794
0.0023722
0.0023468
0.00232173
0.002297
0.00227259
0.00224851
0.00222475
0.0022013
0.00217817
0.00215534
0.00213282
0.0021106
0.00208868
0.00206705
0.0020457
0.00202464
0.00200386
0.00198335
0.00196311
0.00194314
0.00192342
0.00190397
0.00188476
0.00186581
0.00184709
0.00182861
0.00181036
0.00179233
0.00177452
0.00175691
0.00173949
0.00172225
0.00170517
0.00168823
0.00167139
0.00165462
0.00163787
0.00162106
0.00160414
0.00158695
0.00156957
0.00155162
0.0015255
3.22246e-05
0.000141103
0.000268667
0.000397581
0.000521175
0.000633028
0.000726751
0.000808114
0.000891949
0.000987802
0.00109756
0.00122263
0.00135907
0.00148645
0.00160663
0.00172154
0.00183213
0.00193878
0.00204179
0.00214153
0.00223821
0.00233204
0.00242323
0.00251196
0.00259847
0.00268293
0.00276556
0.00284651
0.00292595
0.003004
0.00308076
0.00315632
0.00323073
0.00330403
0.00337623
0.00344732
0.00351727
0.00358606
0.00365363
0.00371992
0.00378488
0.00384842
0.00391048
0.00397098
0.00402984
0.00408699
0.00414234
0.00419581
0.00424735
0.00429687
0.00434432
0.00438963
0.00443274
0.00447361
0.00451218
0.00454842
0.0045823
0.00461378
0.00464284
0.00466946
0.00469364
0.00471537
0.00473464
0.00475147
0.00476588
0.00477787
0.00478747
0.0047947
0.00479964
0.0048022
0.00480259
0.00480077
0.00479681
0.00479075
0.00478265
0.00477256
0.00476056
0.00474671
0.00473107
0.00471371
0.0046947
0.00467412
0.00465203
0.0046285
0.00460362
0.00457745
0.00455006
0.00452154
0.00449194
0.00446135
0.00442983
0.00439744
0.00436427
0.00433036
0.0042958
0.00426063
0.00422493
0.00418874
0.00415214
0.00411517
0.00407789
0.00404034
0.00400259
0.00396467
0.00392664
0.00388852
0.00385036
0.00381221
0.00377408
0.00373602
0.00369806
0.00366022
0.00362253
0.00358502
0.00354771
0.00351062
0.00347377
0.00343718
0.00340086
0.00336483
0.00332911
0.00329369
0.0032586
0.00322384
0.00318943
0.00315536
0.00312165
0.0030883
0.00305532
0.0030227
0.00299045
0.00295857
0.00292706
0.00289592
0.00286516
0.00283476
0.00280473
0.00277507
0.00274578
0.00271685
0.00268829
0.00266009
0.00263224
0.00260475
0.00257761
0.00255082
0.00252437
0.00249825
0.00247248
0.00244703
0.00242191
0.00239711
0.00237263
0.00234847
0.00232461
0.00230105
0.0022778
0.00225484
0.00223217
0.00220979
0.00218769
0.00216586
0.0021443
0.002123
0.00210196
0.00208116
0.0020606
0.00204026
0.00202013
0.00200019
0.00198041
0.00196076
0.0019412
0.00192168
0.00190213
0.00188249
0.00186261
0.00184256
0.00182181
0.00179349
3.08503e-05
0.000135009
0.000257902
0.000383066
0.000504918
0.000620948
0.000731682
0.000841007
0.000956301
0.00108259
0.00122101
0.00137103
0.00151319
0.00164505
0.00176919
0.0018875
0.00200111
0.00211064
0.00221649
0.00231885
0.00241814
0.00251472
0.00260891
0.00270096
0.0027911
0.00287953
0.00296643
0.00305196
0.00313625
0.00321942
0.00330154
0.00338268
0.00346286
0.0035421
0.00362039
0.00369772
0.00377402
0.00384926
0.00392337
0.00399627
0.00406789
0.00413813
0.00420691
0.00427415
0.00433974
0.0044036
0.00446563
0.00452576
0.0045839
0.00463997
0.0046939
0.00474561
0.00479504
0.00484213
0.00488683
0.00492909
0.00496888
0.00500615
0.00504088
0.00507305
0.00510264
0.00512965
0.00515407
0.0051759
0.00519517
0.00521187
0.00522604
0.00523769
0.00524686
0.00525359
0.00525791
0.00525984
0.0052595
0.00525689
0.00525208
0.00524511
0.00523606
0.00522498
0.00521194
0.00519701
0.00518024
0.00516173
0.00514152
0.00511971
0.00509635
0.00507152
0.0050453
0.00501776
0.00498896
0.00495899
0.00492791
0.00489579
0.0048627
0.0048287
0.00479387
0.00475828
0.00472197
0.00468502
0.00464749
0.00460944
0.00457093
0.004532
0.00449273
0.00445315
0.00441331
0.00437327
0.00433307
0.00429275
0.00425235
0.00421191
0.00417147
0.00413106
0.00409071
0.00405046
0.00401033
0.00397036
0.00393055
0.00389094
0.00385155
0.00381241
0.00377351
0.00373489
0.00369656
0.00365853
0.00362081
0.00358342
0.00354637
0.00350965
0.00347329
0.00343728
0.00340164
0.00336636
0.00333146
0.00329692
0.00326276
0.00322898
0.00319557
0.00316254
0.00312988
0.00309761
0.0030657
0.00303418
0.00300302
0.00297224
0.00294183
0.00291178
0.0028821
0.00285277
0.0028238
0.00279519
0.00276692
0.002739
0.00271142
0.00268417
0.00265726
0.00263068
0.00260443
0.00257849
0.00255287
0.00252756
0.00250256
0.00247786
0.00245346
0.00242934
0.00240551
0.00238194
0.00235864
0.00233559
0.00231277
0.00229016
0.00226773
0.00224546
0.0022233
0.0022012
0.0021791
0.00215691
0.00213451
0.00211194
0.00208865
0.00205799
2.93018e-05
0.00012871
0.000248083
0.000372259
0.000496873
0.000620857
0.000745761
0.000875336
0.00101298
0.00116062
0.00131839
0.00147997
0.00162758
0.00176387
0.00189185
0.0020135
0.00213008
0.00224242
0.00235105
0.00245635
0.00255863
0.00265809
0.00275516
0.00285019
0.00294349
0.00303527
0.00312575
0.00321507
0.00330338
0.00339078
0.00347733
0.00356308
0.00364806
0.00373225
0.00381565
0.00389821
0.00397988
0.00406058
0.00414024
0.00421878
0.00429608
0.00437207
0.00444663
0.00451967
0.00459107
0.00466075
0.00472859
0.0047945
0.00485839
0.00492017
0.00497975
0.00503707
0.00509204
0.0051446
0.0051947
0.00524227
0.00528729
0.00532969
0.00536947
0.00540658
0.00544102
0.00547276
0.00550182
0.00552817
0.00555185
0.00557285
0.0055912
0.00560692
0.00562004
0.0056306
0.00563863
0.00564417
0.00564728
0.00564801
0.00564641
0.00564253
0.00563644
0.00562819
0.00561786
0.00560549
0.00559117
0.00557496
0.00555693
0.00553715
0.0055157
0.00549264
0.00546805
0.005442
0.00541457
0.00538582
0.00535583
0.00532466
0.00529239
0.00525908
0.00522479
0.00518961
0.00515358
0.00511678
0.00507927
0.0050411
0.00500235
0.00496306
0.0049233
0.00488311
0.00484255
0.00480167
0.00476051
0.00471913
0.00467756
0.00463585
0.00459404
0.00455216
0.00451026
0.00446836
0.0044265
0.00438471
0.00434302
0.00430145
0.00426003
0.00421879
0.00417774
0.00413691
0.00409631
0.00405597
0.00401589
0.00397609
0.00393659
0.0038974
0.00385852
0.00381997
0.00378175
0.00374388
0.00370636
0.00366918
0.00363237
0.00359592
0.00355983
0.00352411
0.00348876
0.00345378
0.00341917
0.00338493
0.00335107
0.00331757
0.00328445
0.0032517
0.00321931
0.00318729
0.00315564
0.00312434
0.0030934
0.00306282
0.00303259
0.00300271
0.00297317
0.00294398
0.00291513
0.00288661
0.00285842
0.00283056
0.00280303
0.00277581
0.00274891
0.00272231
0.00269601
0.00267
0.00264428
0.00261882
0.00259361
0.00256863
0.00254386
0.00251926
0.00249479
0.0024704
0.00244602
0.00242157
0.00239696
0.00237216
0.00234666
0.00231385
2.76135e-05
0.00012212
0.000238096
0.000361637
0.00048912
0.000619941
0.000756355
0.000900142
0.00105292
0.00121517
0.00138739
0.00155314
0.00170473
0.00184488
0.00197636
0.00210113
0.00222052
0.00233547
0.00244664
0.00255452
0.0026595
0.00276188
0.00286194
0.00295985
0.00305605
0.00315083
0.00324442
0.00333702
0.00342875
0.00351974
0.00361005
0.00369972
0.00378877
0.00387718
0.00396494
0.00405197
0.00413823
0.00422362
0.00430805
0.00439144
0.00447366
0.00455461
0.00463418
0.00471224
0.0047887
0.00486343
0.00493632
0.00500728
0.0050762
0.00514298
0.00520753
0.00526976
0.00532961
0.005387
0.00544187
0.00549415
0.0055438
0.00559079
0.00563506
0.0056766
0.00571538
0.0057514
0.00578464
0.0058151
0.00584279
0.00586773
0.00588993
0.00590941
0.0059262
0.00594033
0.00595185
0.00596079
0.00596719
0.00597112
0.00597261
0.00597174
0.00596858
0.00596315
0.00595553
0.00594578
0.00593397
0.00592017
0.00590445
0.00588688
0.00586753
0.00584648
0.00582379
0.00579953
0.00577379
0.00574662
0.00571811
0.00568831
0.0056573
0.00562515
0.00559191
0.00555767
0.00552248
0.00548641
0.00544953
0.00541189
0.00537355
0.00533458
0.00529503
0.00525496
0.00521441
0.00517344
0.0051321
0.00509044
0.0050485
0.00500632
0.00496396
0.00492144
0.00487881
0.0048361
0.00479335