/*--------------------------------*- C++ -*----------------------------------*\
  =========                 |
  \\      /  F ield         | OpenFOAM: The Open Source CFD Toolbox
   \\    /   O peration     | Website:  https://openfoam.org
    \\  /    A nd           | Version:  8
     \\/     M anipulation  |
\*---------------------------------------------------------------------------*/
FoamFile
{
    version     2.0;
    format      ascii;
    class       volScalarField;
    location    "3800";
    object      p;
}
// * * * * * * * * * * * * * * * * * * * * * * * * * * * * * * * * * * * * * //

dimensions      [0 2 -2 0 0 0 0];

internalField   nonuniform List<scalar> 
12225
(
514.676
55.5281
2.36375
0.28164
-1.89883
-3.37438
-3.81162
-4.02202
-4.23176
-4.36866
-4.41581
-4.42542
-4.42842
-4.45638
-4.50976
-4.57621
-4.72159
-4.94415
-122.179
0.238844
-2.71847
-0.765155
-2.21652
-3.52497
-3.95269
-4.13679
-4.28047
-4.38446
-4.45938
-4.5177
-4.56863
-4.60101
-4.62194
-4.64748
-4.7141
-4.80812
-200.646
-16.1484
-2.34648
-0.358378
-1.90086
-3.24485
-3.77225
-4.02249
-4.19517
-4.31943
-4.41211
-4.47932
-4.52794
-4.55317
-4.56822
-4.58377
-4.61564
-4.59882
-110.616
-10.9741
-2.17719
-0.432086
-1.78779
-3.02886
-3.60135
-3.90853
-4.1178
-4.2636
-4.36597
-4.43664
-4.48536
-4.51394
-4.53127
-4.53909
-4.53805
-4.46935
-61.5729
-8.14591
-3.62265
-1.21009
-2.01531
-2.99842
-3.52931
-3.84908
-4.07158
-4.22626
-4.3339
-4.40854
-4.4599
-4.49101
-4.50629
-4.50367
-4.47747
-4.38731
-45.7309
-8.78535
-5.25886
-2.20043
-2.43005
-3.1012
-3.53667
-3.83364
-4.04962
-4.20344
-4.31249
-4.38922
-4.44166
-4.47257
-4.48412
-4.47337
-4.43328
-4.33873
-35.7947
-9.2766
-6.38065
-3.12487
-2.92207
-3.29016
-3.60407
-3.85497
-4.05038
-4.19556
-4.30155
-4.37734
-4.42894
-4.45868
-4.4676
-4.45299
-4.409
-4.32194
-27.7782
-8.90738
-6.97411
-3.80313
-3.36214
-3.49899
-3.70105
-3.90054
-4.0699
-4.20216
-4.30193
-4.37467
-4.42459
-4.45342
-4.46175
-4.44745
-4.40646
-4.33171
-21.6902
-8.52034
-7.13481
-4.31099
-3.72944
-3.7066
-3.81688
-3.96524
-4.10554
-4.22181
-4.31287
-4.38094
-4.42839
-4.45634
-4.46504
-4.45307
-4.41807
-4.35707
-16.6129
-8.14101
-7.08847
-4.75588
-4.08375
-3.93496
-3.95984
-4.05329
-4.15965
-4.25586
-4.33532
-4.39693
-4.44116
-4.46834
-4.47852
-4.47103
-4.4451
-4.40061
-12.6392
-7.68121
-6.90649
-5.10219
-4.40737
-4.17094
-4.12254
-4.16209
-4.23229
-4.30565
-4.37125
-4.42497
-4.46547
-4.49228
-4.50528
-4.50443
-4.49016
-4.46398
-9.69935
-7.14912
-6.62959
-5.32702
-4.67923
-4.39774
-4.29507
-4.28735
-4.32252
-4.37218
-4.42271
-4.46773
-4.50439
-4.53145
-4.54862
-4.55621
-4.55531
-4.54802
-7.66641
-6.60507
-6.30636
-5.432
-4.88367
-4.59788
-4.46427
-4.42112
-4.4264
-4.45418
-4.49017
-4.52677
-4.56008
-4.58826
-4.61078
-4.62798
-4.64105
-4.65196
-6.37132
-6.11341
-5.98609
-5.44074
-5.01632
-4.75815
-4.61671
-4.55305
-4.53705
-4.54764
-4.57171
-4.60155
-4.63281
-4.66324
-4.692
-4.71924
-4.74583
-4.77318
-5.62307
-5.72275
-5.7094
-5.39124
-5.08632
-4.87341
-4.74219
-4.67263
-4.64563
-4.64584
-4.66248
-4.68858
-4.71986
-4.75388
-4.78952
-4.82656
-4.86537
-4.9067
-5.24376
-5.46056
-5.50848
-5.32793
-5.1154
-4.94833
-4.83605
-4.77106
-4.74237
-4.73951
-4.75418
-4.78045
-4.81439
-4.85353
-4.89651
-4.9427
-4.992
-5.04456
-5.10252
-5.34465
-5.41732
-5.29932
-5.13528
-4.99616
-4.8985
-4.84059
-4.81547
-4.81527
-4.83311
-4.8637
-4.90329
-4.94933
-5.00023
-5.05502
-5.1132
-5.17453
-5.14024
-5.40045
-5.47454
-5.34838
-5.17456
-5.02882
-4.92854
-4.87132
-4.84939
-4.85422
-4.87841
-4.91624
-4.9636
-5.01768
-5.07658
-5.13911
-5.20449
-5.27231
-5.39252
-5.65488
-5.69057
-5.47543
-5.22619
-5.0358
-4.91468
-4.85159
-4.83253
-4.8448
-4.87844
-4.92627
-4.9834
-5.0466
-5.11377
-5.18355
-5.25518
-5.3282
-6.0019
-6.13671
-6.04246
-5.63493
-5.24692
-4.98714
-4.8406
-4.77564
-4.76612
-4.79247
-4.84103
-4.90287
-4.97241
-5.04623
-5.12228
-5.19936
-5.27684
-5.35449
-7.24952
-6.88934
-6.494
-5.76168
-5.18289
-4.85275
-4.69612
-4.64596
-4.65987
-4.71038
-4.78061
-4.86064
-4.94494
-5.03048
-5.11574
-5.19996
-5.28288
-5.36462
-9.64102
-7.9644
-6.98241
-5.77169
-4.97935
-4.61193
-4.4817
-4.47346
-4.5283
-4.61362
-4.71137
-4.8125
-4.91261
-5.00989
-5.10382
-5.19444
-5.28202
-5.36707
-13.9822
-9.39088
-7.40299
-5.56935
-4.59455
-4.26398
-4.21483
-4.27945
-4.39159
-4.51905
-4.64714
-4.76965
-4.88471
-4.99226
-5.09326
-5.18885
-5.27984
-5.36716
-20.8898
-10.9538
-7.55401
-5.05706
-4.01567
-3.83564
-3.92976
-4.09389
-4.27198
-4.4428
-4.59933
-4.74057
-4.86766
-4.98262
-5.08819
-5.18674
-5.27956
-5.36779
-29.7364
-11.9492
-7.03335
-4.12595
-3.26387
-3.37779
-3.67086
-3.94662
-4.18891
-4.3969
-4.57546
-4.72971
-4.86427
-4.98301
-5.09031
-5.18982
-5.28276
-5.3705
-43.1063
-12.6138
-5.47263
-2.72879
-2.41309
-2.96327
-3.48409
-3.8622
-4.15342
-4.38569
-4.57738
-4.73743
-4.87393
-4.99178
-5.09813
-5.19715
-5.28903
-5.37537
-84.5993
-17.3733
-3.66394
-1.26528
-1.69586
-2.72167
-3.43602
-3.86977
-4.17328
-4.41036
-4.60629
-4.7674
-4.89922
-5.00851
-5.10915
-5.2059
-5.29509
-5.37919
-177.886
-26.8494
-3.68
-0.770063
-1.53495
-2.84291
-3.61393
-4.01509
-4.2709
-4.4669
-4.65066
-4.81536
-4.95232
-5.05069
-5.13809
-5.22919
-5.30744
-5.38197
-154.79
-9.62713
-3.27224
-1.06814
-1.84296
-3.22073
-3.91354
-4.22486
-4.41733
-4.5588
-4.7019
-4.85364
-5.00597
-5.11972
-5.21021
-5.30281
-5.37699
-5.44283
428.057
66.6057
7.05611
1.59956
-0.915454
-2.85678
-3.65282
-3.99454
-4.31011
-4.57681
-4.70721
-4.75537
-4.80111
-4.9047
-5.02441
-5.11957
-5.22592
-5.33248
-8.52544
-8.51261
-8.50197
-8.54335
-8.63639
-8.74009
-8.82001
-8.86002
-8.86367
-8.84601
-8.81859
-8.79002
-8.76835
-8.75954
-8.76455
-8.77719
-8.78841
-8.79354
-8.79277
-8.7907
-8.7952
-8.82791
-8.91814
-9.0895
-9.34252
-9.6603
-10.0314
-10.4453
-10.8863
-11.3383
-11.7863
-12.2183
-12.625
-12.9998
-13.3384
-13.6384
-13.8987
-14.1195
-14.3012
-14.445
-14.5522
-14.624
-14.6619
-14.6673
-14.6413
-14.5854
-14.5012
-14.391
-14.2561
-14.0942
-13.9028
-13.6831
-13.4379
-13.1689
-12.8773
-12.5643
-12.2308
-11.8779
-11.5066
-11.1179
-10.713
-10.2929
-9.85884
-9.41191
-8.95329
-8.48419
-8.0058
-7.51932
-7.02595
-6.52686
-6.02322
-5.51617
-5.00684
-4.49628
-3.98556
-3.47567
-2.96756
-2.46216
-1.96032
-1.46284
-0.970495
-0.483974
-0.00392834
0.469051
0.934429
1.39173
1.84051
2.28042
2.71113
3.13238
3.54397
3.94573
4.33747
4.71918
5.0911
5.45323
5.80512
6.14636
6.47696
6.79713
7.10713
7.40715
7.69739
7.97803
8.24924
8.51123
8.76422
9.00841
9.24403
9.47129
9.6904
9.90161
10.1052
10.3013
10.4903
10.6724
10.8478
11.0168
11.1795
11.3363
11.4873
11.6328
11.7729
11.908
12.0381
12.1636
12.2845
12.4011
12.5135
12.622
12.7266
12.8277
12.9256
13.0203
13.1118
13.2001
13.2854
13.3679
13.4477
13.5248
13.5995
13.6719
13.7419
13.8098
13.8756
13.9393
14.0012
14.0611
14.1193
14.1757
14.2305
14.2836
14.3351
14.3851
14.4336
14.4806
14.5262
14.5703
14.6131
14.6545
14.6946
14.7334
14.7708
14.8069
14.8418
14.8754
14.9078
14.939
14.9692
14.9984
15.0267
15.0544
15.0819
15.1095
15.1382
15.169
15.2044
15.246
15.3039
15.3644
-8.58289
-8.61415
-8.6881
-8.78171
-8.88517
-8.97738
-9.03863
-9.06301
-9.04596
-8.9855
-8.89574
-8.79892
-8.7173
-8.66602
-8.64396
-8.64076
-8.65032
-8.67576
-8.71104
-8.73128
-8.75563
-8.8336
-8.99336
-9.23293
-9.53982
-9.9108
-10.3366
-10.7967
-11.2696
-11.7374
-12.1875
-12.6107
-13.0005
-13.353
-13.6665
-13.9407
-14.1761
-14.3736
-14.5344
-14.6597
-14.7507
-14.8084
-14.8338
-14.8279
-14.7914
-14.725
-14.6292
-14.5038
-14.3496
-14.1696
-13.9675
-13.7436
-13.4969
-13.2276
-12.9364
-12.624
-12.2912
-11.9391
-11.5686
-11.1807
-10.7765
-10.357
-9.92353
-9.47712
-9.01896
-8.55022
-8.07211
-7.58583
-7.09257
-6.59352
-6.08984
-5.58266
-5.07311
-4.56227
-4.05117
-3.54083
-3.0322
-2.5262
-2.02369
-1.52548
-1.03234
-0.544959
-0.0639977
0.409947
0.876331
1.33466
1.7845
2.22544
2.65715
3.07932
3.49169
3.89401
4.28606
4.66774
5.03913
5.40045
5.75187
6.09345
6.42503
6.74649
7.05788
7.35932
7.65097
7.933
8.20558
8.46892
8.72322
8.96869
9.20557
9.43409
9.65447
9.86694
10.0717
10.2691
10.4593
10.6425
10.819
10.9891
11.1529
11.3107
11.4628
11.6092
11.7504
11.8864
12.0176
12.1441
12.2661
12.3838
12.4973
12.6068
12.7126
12.8144
12.9125
13.0072
13.0988
13.1873
13.2729
13.3556
13.4357
13.5131
13.5881
13.6608
13.7311
13.7993
13.8654
13.9295
13.9916
14.0518
14.1103
14.167
14.222
14.2753
14.3271
14.3773
14.4261
14.4733
14.5191
14.5635
14.6064
14.648
14.6883
14.7272
14.7648
14.8011
14.8361
14.8699
14.9024
14.9338
14.9641
14.9934
15.0218
15.0496
15.0772
15.105
15.1337
15.1644
15.1992
15.2388
15.2924
15.3423
-8.70991
-8.79175
-8.90971
-9.01554
-9.09843
-9.15228
-9.1729
-9.15908
-9.1095
-9.02641
-8.91888
-8.80349
-8.70373
-8.63919
-8.61044
-8.60561
-8.62463
-8.68135
-8.78496
-8.93201
-9.12236
-9.36311
-9.65715
-9.99628
-10.3684
-10.7641
-11.1735
-11.5848
-11.9873
-12.3739
-12.7399
-13.0814
-13.3958
-13.6814
-13.9371
-14.1626
-14.3575
-14.5221
-14.6564
-14.7608
-14.8356
-14.8814
-14.8985
-14.8872
-14.8482
-14.7817
-14.6882
-14.5677
-14.4201
-14.2464
-14.0481
-13.8261
-13.581
-13.3134
-13.0239
-12.7133
-12.3824
-12.0321
-11.6633
-11.2771
-10.8745
-10.4565
-10.0243
-9.5791
-9.12197
-8.65412
-8.17676
-7.69108
-7.19828
-6.69954
-6.19603
-5.68889
-5.17924
-4.66816
-4.15671
-3.6459
-3.13669
-2.63
-2.12671
-1.62762
-1.13351
-0.645087
-0.163009
0.312121
0.779754
1.2394
1.6906
2.13299
2.56622
2.99
3.40409
3.80829
4.20246
4.5865
4.96039
5.32413
5.67776
6.02129
6.35468
6.67795
6.99115
7.2944
7.58785
7.87166
8.14602
8.4111
8.66712
8.91429
9.15284
9.38298
9.60495
9.81897
10.0253
10.2241
10.4158
10.6004
10.7783
10.9497
11.1148
11.2739
11.4272
11.5749
11.7172
11.8543
11.9864
12.1138
12.2365
12.3549
12.4691
12.5793
12.6856
12.7882
12.8873
12.983
13.0757
13.1651
13.2516
13.3352
13.4161
13.4944
13.5701
13.6434
13.7144
13.7832
13.8499
13.9146
13.9772
14.038
14.0969
14.1541
14.2095
14.2633
14.3155
14.3661
14.4152
14.4628
14.5089
14.5536
14.5969
14.6388
14.6793
14.7185
14.7563
14.7928
14.8281
14.862
14.8948
14.9263
14.9568
14.9862
15.0147
15.0427
15.0702
15.0979
15.1264
15.1565
15.19
15.2266
15.274
15.3075
-8.74932
-8.84677
-8.94804
-9.03456
-9.099
-9.1387
-9.15116
-9.13375
-9.08649
-9.01438
-8.92864
-8.84609
-8.78489
-8.75791
-8.77003
-8.82334
-8.92173
-9.06884
-9.26528
-9.50605
-9.78232
-10.0869
-10.4138
-10.7566
-11.11
-11.4688
-11.8275
-12.1812
-12.5251
-12.8551
-13.168
-13.4611
-13.7322
-13.9797
-14.2023
-14.3991
-14.5695
-14.7131
-14.8296
-14.9192
-14.9817
-15.0172
-15.0259
-15.0078
-14.9632
-14.8921
-14.795
-14.6721
-14.5238
-14.351
-14.1541
-13.9337
-13.6902
-13.4242
-13.1364
-12.8275
-12.4982
-12.1495
-11.7823
-11.3975
-10.9961
-10.5793
-10.1482
-9.70381
-9.24738
-8.78009
-8.30312
-7.81767
-7.32494
-6.82612
-6.32236
-5.81483
-5.30464
-4.79289
-4.28063
-3.76888
-3.2586
-2.75074
-2.24615
-1.74568
-1.25008
-0.76008
-0.276346
0.200515
0.669948
1.13145
1.58458
2.02894
2.46419
2.89004
3.30624
3.71261
4.109
4.49533
4.87154
5.2376
5.59349
5.93918
6.27468
6.60003
6.91531
7.22063
7.51613
7.80197
8.07833
8.3454
8.60337
8.85246
9.09288
9.32486
9.54862
9.7644
9.97243
10.173
10.3663
10.5525
10.732
10.9049
11.0715
11.232
11.3866
11.5356
11.6792
11.8175
11.9509
12.0794
12.2033
12.3228
12.4381
12.5493
12.6566
12.7603
12.8604
12.9572
13.0508
13.1412
13.2286
13.313
13.3947
13.4738
13.5502
13.6243
13.696
13.7655
13.8328
13.898
13.9612
14.0226
14.082
14.1397
14.1956
14.2499
14.3025
14.3536
14.403
14.451
14.4975
14.5426
14.5862
14.6284
14.6692
14.7087
14.7468
14.7836
14.8191
14.8533
14.8862
14.9179
14.9485
14.978
15.0066
15.0344
15.0619
15.0892
15.1171
15.146
15.1773
15.2098
15.2492
15.2678
-8.53745
-8.62236
-8.72246
-8.81956
-8.89691
-8.94964
-8.97673
-8.979
-8.96093
-8.93081
-8.90073
-8.88466
-8.89541
-8.94253
-9.03224
-9.16765
-9.34887
-9.57133
-9.82659
-10.1066
-10.4059
-10.7202
-11.0452
-11.3759
-11.708
-12.0377
-12.3616
-12.6766
-12.9799
-13.2692
-13.5424
-13.7979
-14.0341
-14.25
-14.4443
-14.6164
-14.7656
-14.8911
-14.9927
-15.0698
-15.1223
-15.1499
-15.1525
-15.1299
-15.0822
-15.0093
-14.9113
-14.7883
-14.6407
-14.4689
-14.2732
-14.0541
-13.812
-13.5475
-13.2612
-12.9537
-12.626
-12.2786
-11.9127
-11.5291
-11.1289
-10.7131
-10.2827
-9.83904
-9.38315
-8.91627
-8.43955
-7.95421
-7.46143
-6.9624
-6.4583
-5.95029
-5.43948
-4.92697
-4.41383
-3.90107
-3.38967
-2.88056
-2.37464
-1.87271
-1.37558
-0.88395
-0.398503
0.0801511
0.551451
1.01489
1.47002
1.91644
2.35381
2.78183
3.20025
3.60888
4.00756
4.3962
4.77471
5.14306
5.50121
5.84914
6.18687
6.51445
6.83195
7.13948
7.43718
7.7252
8.00372
8.27291
8.53299
8.78414
9.02661
9.26061
9.48636
9.70408
9.91402
10.1164
10.3115
10.4995
10.6807
10.8552
11.0235
11.1856
11.3417
11.4922
11.6373
11.7771
11.9118
12.0417
12.167
12.2878
12.4043
12.5167
12.6252
12.73
12.8312
12.929
13.0236
13.1149
13.2032
13.2886
13.3711
13.451
13.5283
13.6031
13.6755
13.7457
13.8137
13.8796
13.9435
14.0054
14.0655
14.1237
14.1802
14.235
14.2881
14.3396
14.3896
14.438
14.4849
14.5303
14.5744
14.6169
14.6581
14.6979
14.7363
14.7734
14.8091
14.8435
14.8767
14.9085
14.9392
14.9688
14.9974
15.0251
15.0522
15.079
15.1059
15.1332
15.1618
15.1896
15.2212
15.2273
-8.11748
-8.20588
-8.32682
-8.44952
-8.55475
-8.63517
-8.69348
-8.73556
-8.76904
-8.8037
-8.85051
-8.91975
-9.01947
-9.15447
-9.32696
-9.53596
-9.77677
-10.0438
-10.3318
-10.635
-10.948
-11.2659
-11.5849
-11.9014
-12.2127
-12.5166
-12.8113
-13.095
-13.3664
-13.6242
-13.8671
-14.094
-14.3039
-14.4958
-14.6687
-14.8218
-14.9544
-15.0658
-15.1553
-15.2225
-15.2668
-15.2878
-15.2852
-15.2587
-15.2082
-15.1335
-15.0345
-14.9113
-14.764
-14.5928
-14.3981
-14.1801
-13.9393
-13.6761
-13.3912
-13.0852
-12.7589
-12.4129
-12.0483
-11.666
-11.2669
-10.852
-10.4226
-9.97964
-9.52435
-9.05792
-8.5815
-8.09631
-7.60353
-7.10435
-6.59994
-6.09148
-5.58007
-5.06684
-4.55284
-4.03909
-3.52659
-3.01627
-2.50901
-2.00566
-1.507
-1.01375
-0.526599
-0.0461588
0.427004
0.89238
1.34951
1.798
2.23749
2.66768
3.08833
3.49922
3.9002
4.29114
4.67196
5.04261
5.40305
5.75327
6.09328
6.42314
6.74292
7.05273
7.35269
7.64297
7.92373
8.19515
8.45742
8.71074
8.95534
9.19142
9.41921
9.63895
9.85087
10.0552
10.2522
10.4421
10.6251
10.8015
10.9714
11.1352
11.2931
11.4452
11.5918
11.7332
11.8694
12.0008
12.1274
12.2496
12.3675
12.4812
12.591
12.6969
12.7993
12.8982
12.9938
13.0862
13.1755
13.2618
13.3453
13.4261
13.5042
13.5799
13.6532
13.7242
13.7929
13.8595
13.9241
13.9867
14.0474
14.1063
14.1634
14.2187
14.2724
14.3245
14.3749
14.4238
14.4712
14.5171
14.5616
14.6045
14.6461
14.6863
14.725
14.7624
14.7984
14.8331
14.8664
14.8984
14.9292
14.9588
14.9873
15.0148
15.0414
15.0675
15.0931
15.1185
15.144
15.1669
15.1913
15.1867
-7.65247
-7.75115
-7.89321
-8.042
-8.17995
-8.29858
-8.40148
-8.49798
-8.59747
-8.70889
-8.83985
-8.99524
-9.1778
-9.38799
-9.62411
-9.88403
-10.1648
-10.4617
-10.7695
-11.0832
-11.3984
-11.7116
-12.0203
-12.3222
-12.6157
-12.8997
-13.1731
-13.4349
-13.6843
-13.9205
-14.1425
-14.3496
-14.5409
-14.7157
-14.873
-15.012
-15.1321
-15.2325
-15.3125
-15.3714
-15.4088
-15.4241
-15.4168
-15.3867
-15.3333
-15.2565
-15.1561
-15.032
-14.8844
-14.7132
-14.5188
-14.3014
-14.0613
-13.7991
-13.5152
-13.2103
-12.8851
-12.5404
-12.177
-11.7958
-11.3979
-10.9842
-10.5557
-10.1137
-9.65929
-9.19359
-8.7178
-8.23311
-7.74071
-7.24179
-6.73751
-6.22903
-5.71748
-5.20397
-4.68955
-4.17526
-3.66209
-3.15096
-2.64278
-2.13838
-1.63856
-1.14404
-0.655507
-0.173584
0.301159
0.768206
1.2271
1.67742
2.11882
2.551
2.97369
3.38667
3.78979
4.1829
4.56591
4.93877
5.30142
5.65386
5.9961
6.32821
6.65024
6.9623
7.26452
7.55704
7.84003
8.11365
8.37812
8.63362
8.88036
9.11857
9.34847
9.57028
9.78424
9.99058
10.1895
10.3814
10.5663
10.7445
10.9163
11.0819
11.2415
11.3953
11.5436
11.6865
11.8243
11.9572
12.0854
12.209
12.3282
12.4433
12.5544
12.6616
12.7652
12.8653
12.9621
13.0556
13.1459
13.2333
13.3178
13.3995
13.4786
13.5552
13.6294
13.7012
13.7708
13.8382
13.9035
13.9668
14.0282
14.0878
14.1455
14.2015
14.2558
14.3084
14.3594
14.4089
14.4568
14.5031
14.548
14.5915
14.6335
14.674
14.7131
14.7508
14.7871
14.8221
14.8556
14.8878
14.9186
14.9482
14.9765
15.0037
15.0298
15.0549
15.0792
15.1023
15.1245
15.1426
15.1603
15.1465
-7.29682
-7.3903
-7.54234
-7.70806
-7.8749
-8.03587
-8.19048
-8.34659
-8.51246
-8.69388
-8.89492
-9.11677
-9.35801
-9.61778
-9.89549
-10.1888
-10.4941
-10.8068
-11.1228
-11.4386
-11.7511
-12.058
-12.3577
-12.6486
-12.9298
-13.2004
-13.4597
-13.7071
-13.942
-14.1638
-14.3718
-14.5655
-14.744
-14.9067
-15.0529
-15.1818
-15.2927
-15.3848
-15.4575
-15.5101
-15.5419
-15.5524
-15.5411
-15.5076
-15.4514
-15.3724
-15.2702
-15.1449
-14.9963
-14.8245
-14.6296
-14.412
-14.172
-13.9099
-13.6263
-13.3218
-12.9972
-12.653
-12.2903
-11.9098
-11.5126
-11.0997
-10.6721
-10.2309
-9.77731
-9.31239
-8.83736
-8.3534
-7.86167
-7.36337
-6.85965
-6.35166
-5.84051
-5.32731
-4.81311
-4.29893
-3.78576
-3.27453
-2.76612
-2.26139
-1.7611
-1.26601
-0.776778
-0.294043
0.181627
0.649714
1.10975
1.56133
2.00409
2.43772
2.86194
3.27654
3.68134
4.07619
4.461
4.83569
5.20023
5.55459
5.89879
6.23288
6.55693
6.87104
7.17532
7.46992
7.75499
8.03071
8.29726
8.55485
8.80367
9.04394
9.27589
9.49973
9.71569
9.92402
10.1249
10.3187
10.5055
10.6856
10.8592
11.0266
11.1879
11.3435
11.4934
11.638
11.7774
11.9119
12.0415
12.1666
12.2873
12.4038
12.5163
12.6248
12.7297
12.831
12.929
13.0236
13.1151
13.2035
13.2891
13.3718
13.4519
13.5295
13.6045
13.6772
13.7477
13.8159
13.882
13.9461
14.0083
14.0685
14.127
14.1836
14.2385
14.2917
14.3433
14.3933
14.4418
14.4887
14.5341
14.578
14.6204
14.6614
14.7009
14.7389
14.7755
14.8107
14.8445
14.8768
14.9077
14.9372
14.9653
14.9921
15.0175
15.0416
15.0643
15.0851
15.1039
15.1173
15.129
15.1071
-7.10651
-7.19261
-7.34673
-7.5191
-7.70249
-7.8948
-8.0926
-8.29786
-8.51517
-8.74695
-8.9935
-9.25478
-9.53073
-9.82096
-10.1236
-10.4353
-10.7526
-11.072
-11.3905
-11.7055
-12.0148
-12.3168
-12.6101
-12.8938
-13.1669
-13.429
-13.6794
-13.9177
-14.1434
-14.3561
-14.5552
-14.7402
-14.9104
-15.0652
-15.204
-15.326
-15.4304
-15.5167
-15.584
-15.6318
-15.6594
-15.6661
-15.6515
-15.615
-15.5563
-15.4751
-15.3711
-15.2441
-15.0942
-14.9213
-14.7256
-14.5072
-14.2666
-14.0041
-13.7203
-13.4156
-13.0909
-12.7468
-12.3843
-12.0041
-11.6072
-11.1947
-10.7676
-10.3269
-9.87394
-9.40969
-8.93536
-8.45212
-7.96113
-7.46358
-6.96061
-6.45335
-5.94293
-5.43041
-4.91686
-4.40328
-3.89064
-3.37988
-2.87186
-2.36743
-1.86736
-1.37239
-0.883169
-0.400343
0.0755263
0.543921
1.00438
1.45648
1.89986
2.33421
2.75926
3.17479
3.58061
3.97658
4.36258
4.73854
5.10442
5.46019
5.80587
6.1415
6.46714
6.7829
7.08887
7.3852
7.67204
7.94955
8.21792
8.47734
8.728
8.97013
9.20393
9.42962
9.64744
9.8576
10.0603
10.2559
10.4445
10.6264
10.8017
10.9708
11.1339
11.2911
11.4427
11.5889
11.7299
11.8658
11.997
12.1236
12.2457
12.3636
12.4774
12.5873
12.6935
12.796
12.8951
12.991
13.0836
13.1731
13.2597
13.3435
13.4246
13.5031
13.5791
13.6528
13.7241
13.7932
13.8601
13.925
13.9879
14.0489
14.108
14.1653
14.2209
14.2748
14.327
14.3776
14.4266
14.474
14.5199
14.5643
14.6072
14.6486
14.6885
14.7269
14.7638
14.7993
14.8332
14.8657
14.8966
14.926
14.9539
14.9802
15.0049
15.0278
15.0488
15.0672
15.0827
15.0916
15.0978
15.0688
-7.07864
-7.16547
-7.31317
-7.48196
-7.6687
-7.87326
-8.09249
-8.3244
-8.56922
-8.82757
-9.09896
-9.38252
-9.678
-9.98427
-10.2986
-10.618
-10.9396
-11.2607
-11.5789
-11.8921
-12.1985
-12.4969
-12.786
-13.0652
-13.3336
-13.5908
-13.8362
-14.0695
-14.2902
-14.4978
-14.6919
-14.8719
-15.0374
-15.1875
-15.3218
-15.4395
-15.5399
-15.6223
-15.6861
-15.7305
-15.7549
-15.7588
-15.7415
-15.7027
-15.6418
-15.5585
-15.4527
-15.3241
-15.1727
-14.9985
-14.8016
-14.5822
-14.3407
-14.0774
-13.793
-13.4879
-13.1628
-12.8185
-12.4558
-12.0757
-11.679
-11.2667
-10.84
-10.3998
-9.9474
-9.48381
-9.01023
-8.52781
-8.03772
-7.5411
-7.0391
-6.53284
-6.02343
-5.51194
-4.9994
-4.48682
-3.97515
-3.46532
-2.95818
-2.45458
-1.95527
-1.46098
-0.972372
-0.490068
-0.0146272
0.453439
0.913671
1.36566
1.80904
2.2435
2.66877
3.08461
3.49085
3.88733
4.27394
4.6506
5.01726
5.3739
5.72053
6.05719
6.38395
6.70088
7.0081
7.30573
7.59393
7.87285
8.14268
8.40358
8.65577
8.89945
9.13482
9.3621
9.58152
9.7933
9.99766
10.1948
10.385
10.5685
10.7455
10.9162
11.0808
11.2395
11.3927
11.5404
11.6828
11.8203
11.9529
12.0809
12.2044
12.3236
12.4387
12.5499
12.6573
12.7611
12.8614
12.9583
13.0521
13.1427
13.2304
13.3152
13.3973
13.4768
13.5537
13.6282
13.7004
13.7704
13.8381
13.9038
13.9675
14.0292
14.0891
14.1471
14.2033
14.2578
14.3106
14.3618
14.4114
14.4594
14.5058
14.5507
14.594
14.6359
14.6762
14.715
14.7522
14.788
14.8221
14.8547
14.8856
14.9149
14.9425
14.9683
14.9921
15.0138
15.0331
15.0491
15.0613
15.066
15.0673
15.0321
-7.18956
-7.26792
-7.39886
-7.55476
-7.7334
-7.9345
-8.15534
-8.39334
-8.64687
-8.91458
-9.19482
-9.48647
-9.78858
-10.0992
-10.4158
-10.7359
-11.057
-11.3766
-11.6928
-12.0038
-12.3079
-12.6039
-12.8908
-13.1677
-13.4341
-13.6893
-13.9328
-14.1642
-14.383
-14.5887
-14.7809
-14.9589
-15.1223
-15.2703
-15.4024
-15.5179
-15.6162
-15.6964
-15.758
-15.8003
-15.8226
-15.8244
-15.8051
-15.7643
-15.7016
-15.6166
-15.5091
-15.3789
-15.226
-15.0504
-14.8523
-14.6318
-14.3893
-14.1253
-13.8401
-13.5345
-13.209
-12.8645
-12.5017
-12.1217
-11.7252
-11.3133
-10.8871
-10.4476
-9.99597
-9.53331
-9.06076
-8.57948
-8.09061
-7.5953
-7.09468
-6.58985
-6.08191
-5.57192
-5.06089
-4.54983
-4.03966
-3.5313
-3.0256
-2.52337
-2.02538
-1.53232
-1.04487
-0.563629
-0.0891579
0.378037
0.8375
1.28882
1.73165
2.16566
2.59059
3.00621
3.41232
3.80879
4.19549
4.57234
4.9393
5.29633
5.64346
5.9807
6.30813
6.62582
6.93388
7.23243
7.52162
7.80159
8.07252
8.33459
8.58799
8.83291
9.06957
9.29818
9.51895
9.7321
9.93785
10.1364
10.3281
10.513
10.6913
10.8634
11.0295
11.1897
11.3442
11.4933
11.6371
11.7759
11.9099
12.0391
12.164
12.2845
12.4008
12.5132
12.6218
12.7268
12.8282
12.9263
13.0211
13.1128
13.2015
13.2873
13.3703
13.4508
13.5286
13.604
13.6771
13.7478
13.8164
13.8829
13.9473
14.0098
14.0704
14.1291
14.186
14.2411
14.2946
14.3464
14.3965
14.445
14.492
14.5374
14.5812
14.6235
14.6642
14.7034
14.741
14.7769
14.8113
14.844
14.8749
14.9041
14.9313
14.9566
14.9795
15
15.0175
15.0311
15.0402
15.0409
15.0377
14.9974
-7.36607
-7.43064
-7.54155
-7.67999
-7.84382
-8.03256
-8.24387
-8.47507
-8.72372
-8.98747
-9.2641
-9.55244
-9.85127
-10.1584
-10.4713
-10.7877
-11.1053
-11.4218
-11.7352
-12.044
-12.3465
-12.6415
-12.9278
-13.2047
-13.4712
-13.7268
-13.9709
-14.2029
-14.4222
-14.6285
-14.821
-14.9993
-15.1626
-15.3105
-15.4423
-15.5573
-15.6547
-15.7341
-15.7946
-15.8356
-15.8567
-15.8571
-15.8363
-15.794
-15.7298
-15.6433
-15.5343
-15.4027
-15.2484
-15.0716
-14.8724
-14.6509
-14.4076
-14.1428
-13.8571
-13.5511
-13.2255
-12.881
-12.5184
-12.1388
-11.7429
-11.3318
-10.9065
-10.4682
-10.0179
-9.55665
-9.08568
-8.60611
-8.11906
-7.62566
-7.12703
-6.62425
-6.1184
-5.61052
-5.10162
-4.59268
-4.08463
-3.57836
-3.0747
-2.57446
-2.07839
-1.58719
-1.1015
-0.621929
-0.149025
0.316711
0.774829
1.22493
1.66664
2.09967
2.52374
2.93862
3.34412
3.74009
4.12642
4.50302
4.86983
5.22684
5.57405
5.91148
6.2392
6.55729
6.86584
7.16497
7.45481
7.73552
8.00726
8.27021
8.52455
8.77047
9.00817
9.23786
9.45976
9.67407
9.88102
10.0808
10.2737
10.4598
10.6395
10.8129
10.9802
11.1416
11.2974
11.4478
11.5929
11.733
11.8681
11.9987
12.1247
12.2464
12.3639
12.4775
12.5872
12.6933
12.7958
12.8949
12.9908
13.0835
13.1732
13.2599
13.344
13.4253
13.504
13.5803
13.6542
13.7258
13.7952
13.8624
13.9276
13.9908
14.0521
14.1114
14.169
14.2248
14.2789
14.3313
14.382
14.4311
14.4786
14.5245
14.5688
14.6115
14.6527
14.6922
14.7301
14.7664
14.8009
14.8337
14.8647
14.8937
14.9206
14.9452
14.9673
14.9865
15.0023
15.0136
15.0197
15.0168
15.0095
14.9647
-7.53998
-7.59147
-7.68404
-7.80462
-7.95126
-8.1234
-8.31899
-8.53565
-8.77092
-9.02226
-9.28762
-9.5659
-9.85569
-10.1548
-10.4607
-10.7712
-11.0839
-11.3966
-11.7075
-12.0147
-12.3166
-12.6119
-12.8993
-13.1778
-13.4464
-13.7044
-13.951
-14.1856
-14.4075
-14.6161
-14.8108
-14.991
-15.156
-15.3052
-15.4378
-15.5534
-15.6511
-15.7305
-15.7907
-15.8312
-15.8515
-15.851
-15.8292
-15.7858
-15.7204
-15.6326
-15.5225
-15.3897
-15.2345
-15.0567
-14.8566
-14.6344
-14.3906
-14.1255
-13.8397
-13.5338
-13.2085
-12.8646
-12.5028
-12.1242
-11.7295
-11.3198
-10.8962
-10.4597
-10.0114
-9.55232
-9.08368
-8.60656
-8.12209
-7.63137
-7.1355
-6.63554
-6.13257
-5.62759
-5.1216
-4.61556
-4.11038
-3.60695
-3.10608
-2.60856
-2.11511
-1.62644
-1.14319
-0.665938
-0.195236
0.268427
0.724605
1.1729
1.61295
2.04446
2.46714
2.88078
3.28519
3.68021
4.06571
4.44163
4.80789
5.16448
5.5114
5.84867
6.17634
6.49449
6.80321
7.10262
7.39284
7.67402
7.94631
8.20989
8.46493
8.71162
8.95016
9.18074
9.40357
9.61887
9.82683
10.0277
10.2216
10.4089
10.5897
10.7642
10.9327
11.0953
11.2523
11.4038
11.5501
11.6913
11.8277
11.9594
12.0865
12.2094
12.328
12.4427
12.5535
12.6606
12.7642
12.8643
12.9612
13.0549
13.1455
13.2332
13.3182
13.4004
13.48
13.5571
13.6319
13.7043
13.7744
13.8424
13.9084
13.9723
14.0342
14.0943
14.1525
14.209
14.2637
14.3167
14.368
14.4176
14.4657
14.5121
14.5569
14.6001
14.6416
14.6816
14.7198
14.7564
14.7911
14.824
14.855
14.8838
14.9104
14.9345
14.9557
14.9736
14.9877
14.9968
15.0001
14.9939
14.9829
14.9344
-7.66679
-7.70896
-7.78615
-7.8901
-8.01933
-8.1734
-8.35055
-8.54884
-8.76623
-9.00056
-9.2504
-9.51505
-9.79308
-10.0822
-10.3799
-10.6839
-10.9917
-11.3012
-11.6103
-11.9171
-12.2198
-12.5168
-12.8069
-13.0887
-13.3612
-13.6233
-13.8741
-14.1129
-14.3388
-14.5511
-14.7492
-14.9324
-15.1
-15.2513
-15.3857
-15.5026
-15.6012
-15.681
-15.7414
-15.7819
-15.8018
-15.8007
-15.7782
-15.734
-15.6677
-15.5791
-15.468
-15.3345
-15.1786
-15.0003
-14.7999
-14.5776
-14.3338
-14.069
-13.7838
-13.4787
-13.1544
-12.8118
-12.4517
-12.0748
-11.6823
-11.2749
-10.8539
-10.4201
-9.97478
-9.51889
-9.05355
-8.57988
-8.09897
-7.6119
-7.11975
-6.62358
-6.12441
-5.62326
-5.12108
-4.61882
-4.11738
-3.61761
-3.12035
-2.62633
-2.13629
-1.6509
-1.17079
-0.696557
-0.228721
0.232227
0.685849
1.13175
1.56957
1.99901
2.41979
2.8317
3.23453
3.62814
4.0124
4.38722
4.75255
5.10835
5.45462
5.79139
6.1187
6.43661
6.74522
7.04464
7.33498
7.61638
7.88899
8.15298
8.40852
8.65579
8.89498
9.12628
9.34989
9.56601
9.77486
9.97663
10.1715
10.3598
10.5416
10.7172
10.8867
11.0504
11.2085
11.3611
11.5085
11.6508
11.7883
11.9211
12.0493
12.1733
12.293
12.4087
12.5206
12.6287
12.7333
12.8344
12.9322
13.0269
13.1185
13.2071
13.2929
13.376
13.4565
13.5345
13.61
13.6832
13.7542
13.8229
13.8896
13.9542
14.0169
14.0776
14.1365
14.1936
14.2489
14.3025
14.3544
14.4046
14.4532
14.5001
14.5454
14.5891
14.6311
14.6714
14.71
14.7469
14.7819
14.8149
14.8458
14.8746
14.9008
14.9243
14.9447
14.9615
14.9739
14.981
14.9817
14.9725
14.9582
14.9065
-7.72224
-7.76049
-7.82609
-7.91508
-8.02729
-8.16269
-8.32023
-8.49859
-8.6962
-8.91152
-9.14406
-9.3937
-9.65912
-9.93792
-10.2275
-10.5254
-10.8292
-11.1365
-11.445
-11.7527
-12.0576
-12.358
-12.6521
-12.9386
-13.2161
-13.4835
-13.7396
-13.9836
-14.2144
-14.4313
-14.6336
-14.8204
-14.9911
-15.145
-15.2816
-15.4
-15.4998
-15.5804
-15.6413
-15.6818
-15.7016
-15.7002
-15.6773
-15.6326
-15.5658
-15.4767
-15.3654
-15.2317
-15.0757
-14.8975
-14.6974
-14.4758
-14.2329
-13.9693
-13.6856
-13.3823
-13.0601
-12.7199
-12.3624
-11.9886
-11.5992
-11.1954
-10.7781
-10.3483
-9.9071
-9.45552
-8.99465
-8.52558
-8.04936
-7.56707
-7.07975
-6.58844
-6.09414
-5.59784
-5.10048
-4.60298
-4.10622
-3.61103
-3.11823
-2.62857
-2.14275
-1.66143
-1.18522
-0.714716
-0.250434
0.207144
0.657582
1.10049
1.53551
1.96234
2.38071
2.79039
3.19119
3.58295
3.96554
4.33888
4.7029
5.05756
5.40286
5.73881
6.06546
6.38287
6.69111
6.99029
7.28051
7.56192
7.83466
8.09887
8.35473
8.60241
8.84209
9.07396
9.29821
9.51504
9.72465
9.92723
10.123
10.3122
10.4949
10.6714
10.8419
11.0067
11.1657
11.3194
11.4679
11.6112
11.7498
11.8836
12.0129
12.1379
12.2586
12.3754
12.4882
12.5974
12.7029
12.805
12.9038
12.9994
13.0919
13.1815
13.2682
13.3521
13.4335
13.5122
13.5886
13.6626
13.7343
13.8038
13.8712
13.9366
13.9999
14.0613
14.1209
14.1786
14.2346
14.2888
14.3413
14.3921
14.4412
14.4887
14.5345
14.5787
14.6211
14.6619
14.7008
14.738
14.7732
14.8064
14.8374
14.866
14.892
14.915
14.9346
14.9502
14.9612
14.9663
14.9647
14.9527
14.9354
14.8811
-7.70784
-7.74252
-7.79935
-7.8745
-7.9695
-8.0852
-8.2216
-8.37834
-8.55463
-8.74977
-8.96421
-9.19844
-9.45126
-9.7202
-10.0025
-10.2956
-10.5967
-10.9034
-11.213
-11.5232
-11.8319
-12.1369
-12.4364
-12.7287
-13.0122
-13.2856
-13.5476
-13.7972
-14.0333
-14.255
-14.4615
-14.652
-14.8258
-14.9823
-15.1209
-15.241
-15.3419
-15.4233
-15.4847
-15.5255
-15.5454
-15.5441
-15.5211
-15.4764
-15.4096
-15.3208
-15.2097
-15.0766
-14.9213
-14.7442
-14.5455
-14.3255
-14.0847
-13.8235
-13.5424
-13.2421
-12.9234
-12.5869
-12.2334
-11.8639
-11.4792
-11.0803
-10.668
-10.2436
-9.80786
-9.36194
-8.90687
-8.44369
-7.97344
-7.49717
-7.0159
-6.53063
-6.04234
-5.552
-5.06053
-4.56882
-4.07774
-3.5881
-3.10068
-2.61624
-2.13548
-1.65904
-1.18752
-0.721471
-0.261431
0.192122
0.638754
1.07807
1.50973
1.93342
2.34888
2.75586
3.15418
3.54367
3.92421
4.29569
4.65805
5.01125
5.35528
5.69013
6.01586
6.3325
6.64014
6.93886
7.22877
7.51
7.78268
8.04695
8.30298
8.55092
8.79097
9.02328
9.24806
9.46549
9.67576
9.87906
10.0756
10.2656
10.4492
10.6266
10.7981
10.9637
11.1238
11.2784
11.4279
11.5723
11.7118
11.8467
11.977
12.103
12.2248
12.3425
12.4564
12.5665
12.673
12.7761
12.8758
12.9723
13.0657
13.1562
13.2438
13.3286
13.4108
13.4904
13.5675
13.6423
13.7148
13.7851
13.8532
13.9193
13.9833
14.0454
14.1057
14.164
14.2206
14.2755
14.3286
14.38
14.4297
14.4777
14.524
14.5687
14.6116
14.6528
14.6922
14.7297
14.7652
14.7986
14.8296
14.8582
14.8839
14.9064
14.9253
14.94
14.9495
14.9529
14.9491
14.9348
14.9148
14.8583
-7.64413
-7.66982
-7.71594
-7.77456
-7.84931
-7.94219
-8.05442
-8.18688
-8.3398
-8.51346
-8.70926
-8.92822
-9.16916
-9.42939
-9.70593
-9.9958
-10.296
-10.6037
-10.916
-11.2303
-11.5439
-11.8546
-12.1602
-12.4588
-12.7486
-13.0282
-13.2961
-13.5511
-13.7921
-14.0183
-14.2286
-14.4225
-14.5991
-14.7579
-14.8983
-15.0197
-15.1218
-15.2041
-15.2661
-15.3075
-15.3279
-15.327
-15.3046