/*--------------------------------*- C++ -*----------------------------------*\
| =========                 |                                                 |
| \\      /  F ield         | OpenFOAM: The Open Source CFD Toolbox           |
|  \\    /   O peration     | Version:  v2012                                 |
|   \\  /    A nd           | Website:  www.openfoam.com                      |
|    \\/     M anipulation  |                                                 |
\*---------------------------------------------------------------------------*/
FoamFile
{
    version     2.0;
    format      ascii;
    class       surfaceScalarField;
    location    "3800";
    object      phi;
}
// * * * * * * * * * * * * * * * * * * * * * * * * * * * * * * * * * * * * * //

dimensions      [0 3 -1 0 0 0 0];
oriented        oriented;


internalField   nonuniform List<scalar> 
24170
(
3.92539e-06
-7.91497e-07
3.76461e-06
1.60756e-07
3.63337e-06
1.31208e-07
3.4332e-06
2.00139e-07
3.28008e-06
1.53079e-07
3.18942e-06
9.06285e-08
3.12906e-06
6.02441e-08
3.08116e-06
4.76029e-08
3.04127e-06
3.94601e-08
3.00438e-06
3.63494e-08
2.96978e-06
3.40857e-08
2.93778e-06
3.153e-08
2.9085e-06
2.89074e-08
2.882e-06
2.6217e-08
2.85826e-06
2.35442e-08
2.83869e-06
1.95084e-08
2.83064e-06
8.14187e-09
-9.33111e-09
2.84009e-06
3.58444e-06
-9.19498e-07
3.80423e-06
-5.90407e-08
3.7428e-06
1.92621e-07
3.69054e-06
2.52364e-07
3.63725e-06
2.06337e-07
3.58984e-06
1.37983e-07
3.55258e-06
9.73813e-08
3.52379e-06
7.61699e-08
3.50039e-06
6.25278e-08
3.48092e-06
5.5383e-08
3.46385e-06
5.06778e-08
3.44835e-06
4.65523e-08
3.43406e-06
4.2787e-08
3.4206e-06
3.93302e-08
3.40798e-06
3.58863e-08
3.39619e-06
3.11181e-08
3.38453e-06
1.97553e-08
3.91218e-09
3.37101e-06
3.68518e-06
-7.92482e-07
3.83638e-06
-2.10251e-07
3.91492e-06
1.14076e-07
3.94499e-06
2.22288e-07
3.94406e-06
2.07264e-07
3.92721e-06
1.54824e-07
3.9078e-06
1.16801e-07
3.89027e-06
9.37471e-08
3.87466e-06
7.82327e-08
3.86142e-06
6.87499e-08
3.84986e-06
6.2353e-08
3.83927e-06
5.72296e-08
3.8293e-06
5.27844e-08
3.81988e-06
4.87319e-08
3.81116e-06
4.45474e-08
3.80305e-06
3.91435e-08
3.7932e-06
2.95166e-08
1.76468e-08
3.77918e-06
4.05359e-06
-6.41511e-07
4.11459e-06
-2.71264e-07
4.20798e-06
2.06786e-08
4.26634e-06
1.63917e-07
4.29068e-06
1.82906e-07
4.29272e-06
1.52751e-07
4.28601e-06
1.23489e-07
4.27703e-06
1.02743e-07
4.2676e-06
8.77556e-08
4.25883e-06
7.76287e-08
4.25083e-06
7.04457e-08
4.24331e-06
6.47967e-08
4.23611e-06
5.99923e-08
4.22914e-06
5.56557e-08
4.22235e-06
5.1238e-08
4.21537e-06
4.60073e-08
4.20615e-06
3.86029e-08
3.04333e-08
4.19309e-06
4.50491e-06
-5.09115e-07
4.51536e-06
-2.81713e-07
4.58528e-06
-4.9245e-08
4.64664e-06
1.02554e-07
4.68256e-06
1.46981e-07
4.6968e-06
1.38517e-07
4.69972e-06
1.20604e-07
4.69774e-06
1.04791e-07
4.69352e-06
9.20948e-08
4.68861e-06
8.26876e-08
4.68359e-06
7.56099e-08
4.67853e-06
6.99663e-08
4.67341e-06
6.51895e-08
4.66817e-06
6.09294e-08
4.66263e-06
5.67495e-08
4.65632e-06
5.22586e-08
4.6478e-06
4.70293e-08
4.21882e-08
4.63587e-06
5.00014e-06
-3.94665e-07
4.98614e-06
-2.67712e-07
5.03068e-06
-9.3795e-08
5.08505e-06
4.81769e-08
5.12452e-06
1.07494e-07
5.14606e-06
1.16957e-07
5.15605e-06
1.10618e-07
5.15976e-06
1.01112e-07
5.16001e-06
9.19214e-08
5.15853e-06
8.42702e-08
5.15617e-06
7.8069e-08
5.15326e-06
7.29554e-08
5.14989e-06
6.8601e-08
5.14605e-06
6.4773e-08
5.14155e-06
6.12096e-08
5.13595e-06
5.77886e-08
5.12834e-06
5.45512e-08
5.24118e-08
5.11794e-06
5.54382e-06
-2.97477e-07
5.51664e-06
-2.40535e-07
5.54055e-06
-1.17699e-07
5.58387e-06
4.85339e-09
5.62165e-06
6.97165e-08
5.64657e-06
9.20466e-08
5.66123e-06
9.59806e-08
5.6693e-06
9.30816e-08
5.67327e-06
8.80166e-08
5.6748e-06
8.28176e-08
5.67484e-06
7.81067e-08
5.67386e-06
7.39968e-08
5.67207e-06
7.04343e-08
5.66951e-06
6.73505e-08
5.66604e-06
6.46686e-08
5.66135e-06
6.24432e-08
5.65492e-06
6.09096e-08
6.08301e-08
5.64644e-06
4.34788e-06
-2.39245e-07
4.32251e-06
-2.15172e-07
4.33078e-06
-1.25969e-07
4.35419e-06
-1.85615e-08
4.3784e-06
4.54973e-08
4.39647e-06
7.39641e-08
4.40846e-06
8.39911e-08
4.41604e-06
8.55167e-08
4.42063e-06
8.34582e-08
4.42326e-06
8.02313e-08
4.42457e-06
7.6839e-08
4.42493e-06
7.36699e-08
4.42454e-06
7.08537e-08
4.42345e-06
6.84458e-08
4.42162e-06
6.64855e-08
4.41893e-06
6.51163e-08
4.41518e-06
6.46366e-08
6.56094e-08
4.41033e-06
5.08622e-06
-1.85603e-07
5.05777e-06
-1.86727e-07
5.0584e-06
-1.26596e-07
5.07686e-06
-3.7029e-08
5.09918e-06
2.31815e-08
5.11774e-06
5.54036e-08
5.13129e-06
7.04515e-08
5.14065e-06
7.61705e-08
5.14691e-06
7.72256e-08
5.15097e-06
7.61972e-08
5.15347e-06
7.43644e-08
5.15481e-06
7.23515e-08
5.15521e-06
7.04647e-08
5.15477e-06
6.88812e-08
5.1535e-06
6.77455e-08
5.15134e-06
6.72609e-08
5.14823e-06
6.77142e-08
6.95672e-08
5.14425e-06
5.94839e-06
-1.38197e-07
5.91832e-06
-1.56659e-07
5.91161e-06
-1.19887e-07
5.924e-06
-4.94285e-08
5.94286e-06
4.31755e-09
5.9606e-06
3.76663e-08
5.97484e-06
5.62107e-08
5.98552e-06
6.54981e-08
5.99325e-06
6.95151e-08
5.9987e-06
7.07539e-08
6.00245e-06
7.06283e-08
6.00488e-06
6.99327e-08
6.00623e-06
6.91159e-08
6.00664e-06
6.84734e-08
6.00616e-06
6.8222e-08
6.00482e-06
6.8593e-08
6.00267e-06
6.98585e-08
7.22958e-08
5.99991e-06
6.95439e-06
-9.83179e-08
6.92401e-06
-1.26289e-07
6.91113e-06
-1.07007e-07
6.9168e-06
-5.51023e-08
6.93088e-06
-9.76006e-09
6.94637e-06
2.21728e-08
6.96019e-06
4.23938e-08
6.97145e-06
5.42438e-08
6.98022e-06
6.07556e-08
6.98688e-06
6.41013e-08
6.99183e-06
6.56783e-08
6.99541e-06
6.6354e-08
6.99784e-06
6.66852e-08
6.99929e-06
6.70261e-08
6.99985e-06
6.76563e-08
6.99964e-06
6.88076e-08
6.9988e-06
7.06851e-08
7.3496e-08
6.99759e-06
8.12719e-06
-6.64931e-08
8.09793e-06
-9.70322e-08
8.08056e-06
-8.96349e-08
8.07955e-06
-5.40998e-08
8.08794e-06
-1.81467e-08
8.09987e-06
1.02433e-08
8.11202e-06
3.02471e-08
8.1229e-06
4.33677e-08
8.13206e-06
5.15954e-08
8.13954e-06
5.66307e-08
8.14551e-06
5.97013e-08
8.15021e-06
6.16647e-08
8.1538e-06
6.30829e-08
8.15646e-06
6.4368e-08
8.15833e-06
6.57929e-08
8.15955e-06
6.75828e-08
8.16034e-06
6.99004e-08
7.28454e-08
8.16097e-06
9.49368e-06
-4.24453e-08
9.4668e-06
-7.01553e-08
9.44683e-06
-6.96695e-08
9.43991e-06
-4.7178e-08
9.44229e-06
-2.05337e-08
9.44967e-06
2.86724e-09
9.45898e-06
2.09459e-08
9.46843e-06
3.39147e-08
9.47719e-06
4.28437e-08
9.48493e-06
4.88904e-08
9.49161e-06
5.30303e-08
9.49728e-06
5.59889e-08
9.50206e-06
5.83103e-08
9.50606e-06
6.03588e-08
9.50944e-06
6.24159e-08
9.51236e-06
6.46549e-08
9.51504e-06
6.72117e-08
7.01236e-08
9.51775e-06
1.10854e-05
-2.51664e-08
1.10618e-05
-4.65164e-08
1.1041e-05
-4.88386e-08
1.10294e-05
-3.56017e-08
1.10261e-05
-1.72393e-08
1.10284e-05
5.11483e-10
1.1034e-05
1.53539e-08
1.10411e-05
2.68186e-08
1.10487e-05
3.53056e-08
1.10561e-05
4.14961e-08
1.1063e-05
4.60583e-08
1.10695e-05
4.95541e-08
1.10754e-05
5.24082e-08
1.10808e-05
5.49409e-08
1.10858e-05
5.73667e-08
1.10906e-05
5.98386e-08
1.10954e-05
6.2429e-08
6.5173e-08
1.11004e-05
1.29396e-05
-1.31263e-08
1.29194e-05
-2.62929e-08
1.28988e-05
-2.82841e-08
1.28839e-05
-2.07382e-08
1.28758e-05
-9.06694e-09
1.28732e-05
3.05143e-09
1.28748e-05
1.38205e-08
1.2879e-05
2.26403e-08
1.28847e-05
2.95659e-08
1.28913e-05
3.49333e-08
1.28982e-05
3.9141e-08
1.29052e-05
4.25528e-08
1.29121e-05
4.54606e-08
1.2919e-05
4.80831e-08
1.29258e-05
5.05695e-08
1.29326e-05
5.30135e-08
1.29395e-05
5.54582e-08
5.79072e-08
1.29468e-05
1.50998e-05
-4.49051e-09
1.50822e-05
-8.69107e-09
1.50621e-05
-8.14524e-09
1.50448e-05
-3.50859e-09
1.50327e-05
3.04074e-09
1.50259e-05
9.84654e-09
1.50237e-05
1.60461e-08
1.5025e-05
2.13216e-08
1.50289e-05
2.56836e-08
1.50346e-05
2.92861e-08
1.50414e-05
3.23269e-08
1.50489e-05
3.49861e-08
1.5057e-05
3.74078e-08
1.50654e-05
3.96945e-08
1.5074e-05
4.1909e-08
1.50829e-05
4.40822e-08
1.50922e-05
4.62169e-08
4.82942e-08
1.51018e-05
1.76171e-05
2.88574e-09
1.75999e-05
8.5059e-09
1.75787e-05
1.29952e-08
1.7559e-05
1.62304e-08
1.75436e-05
1.84035e-08
1.75336e-05
1.98729e-08
1.75287e-05
2.09428e-08
1.75282e-05
2.18646e-08
1.75311e-05
2.27839e-08
1.75365e-05
2.38071e-08
1.75439e-05
2.49717e-08
1.75526e-05
2.62988e-08
1.75622e-05
2.77716e-08
1.75725e-05
2.93706e-08
1.75834e-05
3.10556e-08
1.75947e-05
3.27899e-08
1.76064e-05
3.45244e-08
3.62169e-08
1.76184e-05
1.78181e-05
1.09939e-08
1.77994e-05
2.71885e-08
1.77768e-05
3.55899e-08
1.7756e-05
3.70069e-08
1.77402e-05
3.42662e-08
1.77302e-05
2.98673e-08
1.77257e-05
2.54096e-08
1.77259e-05
2.16653e-08
1.77298e-05
1.89476e-08
1.77363e-05
1.72476e-08
1.77449e-05
1.64612e-08
1.77547e-05
1.6407e-08
1.77656e-05
1.69262e-08
1.77771e-05
1.78523e-08
1.77891e-05
1.90633e-08
1.78014e-05
2.04361e-08
1.78141e-05
2.18922e-08
2.33439e-08
1.7827e-05
1.58702e-05
2.21272e-08
1.58478e-05
4.95555e-08
1.58233e-05
6.00944e-08
1.58032e-05
5.71878e-08
1.57899e-05
4.7551e-08
1.57834e-05
3.63064e-08
1.57827e-05
2.61225e-08
1.57863e-05
1.80625e-08
1.5793e-05
1.22652e-08
1.58018e-05
8.49784e-09
1.58119e-05
6.36085e-09
1.58229e-05
5.47214e-09
1.58343e-05
5.48511e-09
1.5846e-05
6.13027e-09
1.58579e-05
7.18332e-09
1.58699e-05
8.48717e-09
1.58818e-05
9.90657e-09
1.13597e-08
1.58938e-05
1.41313e-05
3.95338e-08
1.41021e-05
7.86811e-08
1.40745e-05
8.77501e-08
1.40557e-05
7.59899e-08
1.40469e-05
5.63597e-08
1.40462e-05
3.69865e-08
1.40512e-05
2.11505e-08
1.40597e-05
9.52389e-09
1.40703e-05
1.69329e-09
1.40819e-05
-3.12258e-09
1.4094e-05
-5.69447e-09
1.41062e-05
-6.67368e-09
1.41182e-05
-6.55451e-09
1.41301e-05
-5.72385e-09
1.41417e-05
-4.44483e-09
1.41531e-05
-2.92339e-09
1.41643e-05
-1.28839e-09
3.54534e-10
1.41753e-05
1.25772e-05
6.73514e-08
1.25392e-05
1.16715e-07
1.25091e-05
1.17854e-07
1.24942e-05
9.08447e-08
1.24928e-05
5.77652e-08
1.25002e-05
2.96338e-08
1.25122e-05
9.09889e-09
1.25263e-05
-4.54501e-09
1.25409e-05
-1.28591e-08
1.25552e-05
-1.73741e-08
1.25688e-05
-1.93152e-08
1.25817e-05
-1.95614e-08
1.25939e-05
-1.87484e-08
1.26055e-05
-1.72785e-08
1.26165e-05
-1.54639e-08
1.26271e-05
-1.34789e-08
1.26372e-05
-1.14639e-08
-9.48896e-09
1.26471e-05
1.11862e-05
1.10913e-07
1.11384e-05
1.6455e-07
1.11088e-05
1.47487e-07
1.11022e-05
9.74416e-08
1.11117e-05
4.8267e-08
1.1129e-05
1.23699e-08
1.11486e-05
-1.05025e-08
1.11678e-05
-2.3731e-08
1.11855e-05
-3.05162e-08
1.12013e-05
-3.32415e-08
1.12156e-05
-3.35074e-08
1.12283e-05
-3.23308e-08
1.124e-05
-3.03393e-08
1.12506e-05
-2.79379e-08
1.12606e-05
-2.53674e-08
1.12699e-05
-2.28083e-08
1.12787e-05
-2.03232e-08
-1.79722e-08
1.12872e-05
9.93908e-06
1.7645e-07
9.88248e-06
2.21147e-07
9.85874e-06
1.71234e-07
9.86595e-06
9.0234e-08
9.88964e-06
2.45942e-08
9.91762e-06
-1.56017e-08
9.94395e-06
-3.67945e-08
9.9667e-06
-4.64317e-08
9.98575e-06
-4.95101e-08
1.00016e-05
-4.91379e-08
1.00151e-05
-4.69584e-08
1.00267e-05
-4.39202e-08
1.00369e-05
-4.04816e-08
1.0046e-05
-3.70067e-08
1.00543e-05
-3.36523e-08
1.0062e-05
-3.0506e-08
1.00693e-05
-2.75866e-08
-2.48898e-08
1.00762e-05
8.81963e-06
2.69915e-07
8.75785e-06
2.82933e-07
8.74788e-06
1.81199e-07
8.77483e-06
6.32836e-08
8.81462e-06
-1.51819e-08
8.85217e-06
-5.31257e-08
8.8827e-06
-6.72733e-08
8.90631e-06
-6.99663e-08
8.92434e-06
-6.75694e-08
8.93839e-06
-6.31242e-08
8.94964e-06
-5.81578e-08
8.95901e-06
-5.30978e-08
8.96697e-06
-4.83844e-08
8.97396e-06
-4.39281e-08
8.98022e-06
-3.98771e-08
8.986e-06
-3.62631e-08
8.99143e-06
-3.3019e-08
-3.00914e-08
8.9966e-06
7.81391e-06
3.96675e-07
7.7539e-06
3.42935e-07
7.76868e-06
1.66417e-07
7.82055e-06
1.14196e-08
7.87571e-06
-7.03318e-08
7.91917e-06
-9.65711e-08
7.94974e-06
-9.78289e-08
7.97064e-06
-9.07821e-08
7.98501e-06
-8.17479e-08
7.99521e-06
-7.32495e-08
8.00297e-06
-6.57458e-08
8.00907e-06
-5.92222e-08
8.01419e-06
-5.33406e-08
8.01855e-06
-4.82018e-08
8.02238e-06
-4.36508e-08
8.02592e-06
-3.98283e-08
8.0293e-06
-3.64659e-08
-3.33866e-08
8.03259e-06
6.90424e-06
5.66768e-07
6.86137e-06
3.85802e-07
6.91717e-06
1.10612e-07
6.99676e-06
-6.81783e-08
7.06257e-06
-1.3615e-07
7.10536e-06
-1.39366e-07
7.13034e-06
-1.2268e-07
7.14451e-06
-1.04916e-07
7.15244e-06
-8.9665e-08
7.15708e-06
-7.77395e-08
7.1601e-06
-6.86536e-08
7.1623e-06
-6.11564e-08
7.16392e-06
-5.49239e-08
7.16524e-06
-4.95308e-08
7.16627e-06
-4.47131e-08
7.16729e-06
-4.09156e-08
7.16845e-06
-3.76312e-08
-3.46403e-08
7.16959e-06
6.07162e-06
7.97663e-07
6.08525e-06
3.7216e-07
6.19865e-06
-2.79271e-09
6.29991e-06
-1.6944e-07
6.3653e-06
-2.01543e-07
6.3976e-06
-1.71646e-07
6.41008e-06
-1.35273e-07
6.41333e-06
-1.07865e-07
6.41231e-06
-8.87054e-08
6.40988e-06
-7.52871e-08
6.40735e-06
-6.60763e-08
6.40485e-06
-5.8712e-08
6.40236e-06
-5.26106e-08
6.40013e-06
-4.72105e-08
6.39789e-06
-4.25034e-08
6.39605e-06
-3.91183e-08
6.39464e-06
-3.63203e-08
-3.32646e-08
6.39335e-06
5.35805e-06
1.05451e-06
5.50649e-06
2.23711e-07
5.64777e-06
-1.4409e-07
5.73566e-06
-2.57337e-07
5.7765e-06
-2.42399e-07
5.7833e-06
-1.78555e-07
5.77504e-06
-1.26877e-07
5.76263e-06
-9.55369e-08
5.75013e-06
-7.63758e-08
5.73923e-06
-6.46381e-08
5.73033e-06
-5.73459e-08
5.72235e-06
-5.10235e-08
5.71479e-06
-4.52808e-08
5.70785e-06
-4.04483e-08
5.7015e-06
-3.62002e-08
5.6961e-06
-3.37556e-08
5.69176e-06
-3.19237e-08
-2.85938e-08
5.6871e-06
5.04576e-06
1.01105e-06
5.36491e-06
-9.54591e-08
5.35252e-06
-1.31739e-07
5.33288e-06
-2.37717e-07
5.29605e-06
-2.05632e-07
5.25015e-06
-1.32741e-07
5.20833e-06
-8.50773e-08
5.17427e-06
-6.16071e-08
5.14685e-06
-4.93137e-08
5.12476e-06
-4.29517e-08
5.10679e-06
-3.9727e-08
5.09092e-06
-3.56498e-08
5.07608e-06
-3.09425e-08
5.06247e-06
-2.70783e-08
5.05038e-06
-2.421e-08
5.04004e-06
-2.34315e-08
5.03132e-06
-2.31619e-08
-2.00834e-08
5.02288e-06
5.4676e-06
5.37214e-06
5.2404e-06
5.00267e-06
4.79703e-06
4.66429e-06
4.57919e-06
4.51753e-06
4.46814e-06
4.42513e-06
4.38531e-06
4.34955e-06
4.31854e-06
4.29144e-06
4.26722e-06
4.2438e-06
4.22066e-06
4.2006e-06
2.47702e-08
-2.47829e-08
2.38628e-07
-2.1384e-07
4.89944e-07
-2.5135e-07
7.09239e-07
-2.19296e-07
8.75919e-07
-1.6671e-07
9.86032e-07
-1.10113e-07
1.04057e-06
-5.45679e-08
1.04185e-06
-1.27785e-09
9.95229e-07
4.66005e-08
9.11056e-07
8.42003e-08
8.04635e-07
1.06411e-07
6.95382e-07
1.09321e-07
6.02942e-07
9.25054e-08
5.36816e-07
6.60648e-08
4.85325e-07
5.16001e-08
4.24039e-07
6.09621e-08
3.36303e-07
8.78534e-08
2.07929e-07
1.28285e-07
3.15879e-08
1.76492e-07
-2.13835e-07
2.45739e-07
-5.18781e-07
3.05014e-07
-8.60027e-07
3.41394e-07
-1.22355e-06
3.63501e-07
-1.60009e-06
3.76559e-07
-1.98086e-06
3.80729e-07
-2.35576e-06
3.74889e-07
-2.71685e-06
3.61055e-07
-3.05891e-06
3.42042e-07
-3.37817e-06
3.19241e-07
-3.67231e-06
2.94132e-07
-3.94052e-06
2.68203e-07
-4.18314e-06
2.4261e-07
-4.4012e-06
2.18054e-07
-4.59618e-06
1.94981e-07
-4.76979e-06
1.73613e-07
-4.92382e-06
1.54029e-07
-5.06001e-06
1.36188e-07
-5.17998e-06
1.19972e-07
-5.2852e-06
1.05218e-07
-5.37694e-06
9.17486e-08
-5.45632e-06
7.93808e-08
-5.52427e-06
6.79436e-08
-5.58155e-06
5.72821e-08
-5.62881e-06
4.72636e-08
-5.66659e-06
3.77794e-08
-5.69533e-06
2.87435e-08
-5.71541e-06
2.00844e-08
-5.72718e-06
1.17739e-08
-5.73113e-06
3.9472e-09
-5.7281e-06
-3.02406e-09
-5.7192e-06
-8.90091e-09
-5.70519e-06
-1.40071e-08
-5.68647e-06
-1.87277e-08
-5.66327e-06
-2.31904e-08
-5.63579e-06
-2.74839e-08
-5.60415e-06
-3.16351e-08
-5.5685e-06
-3.56591e-08
-5.52893e-06
-3.9562e-08
-5.48559e-06
-4.33453e-08
-5.43858e-06
-4.70073e-08
-5.38803e-06
-5.05459e-08
-5.33408e-06
-5.39572e-08
-5.27684e-06
-5.72381e-08
-5.21645e-06
-6.0385e-08
-5.15306e-06
-6.33958e-08
-5.08679e-06
-6.62669e-08
-5.01779e-06
-6.89952e-08
-4.94622e-06
-7.15781e-08
-4.8722e-06
-7.40143e-08
-4.7959e-06
-7.63022e-08
-4.71746e-06
-7.84414e-08
-4.63703e-06
-8.04312e-08
-4.55475e-06
-8.22722e-08
-4.47079e-06
-8.39648e-08
-4.38528e-06
-8.55104e-08
-4.29837e-06
-8.69105e-08
-4.2102e-06
-8.81674e-08
-4.12092e-06
-8.92836e-08
-4.03066e-06
-9.02622e-08
-3.93955e-06
-9.11068e-08
-3.84773e-06
-9.18212e-08
-3.75532e-06
-9.24098e-08
-3.66244e-06
-9.28776e-08
-3.56921e-06
-9.32298e-08
-3.47574e-06
-9.34727e-08
-3.38212e-06
-9.36132e-08
-3.28846e-06
-9.36602e-08
-3.19484e-06
-9.36239e-08
-3.10132e-06
-9.35175e-08
-3.00797e-06
-9.33568e-08
-2.9148e-06
-9.31629e-08
-2.82184e-06
-9.2961e-08
-2.72907e-06
-9.27689e-08
-2.6365e-06
-9.25654e-08
-2.54424e-06
-9.22639e-08
-2.45248e-06
-9.17632e-08
-2.3615e-06
-9.0979e-08
-2.27156e-06
-8.99314e-08
-2.18279e-06
-8.87782e-08
-2.09516e-06
-8.76242e-08
-2.00869e-06
-8.64685e-08
-1.9234e-06
-8.52953e-08
-1.8393e-06
-8.40974e-08
-1.75643e-06
-8.2874e-08
-1.6748e-06
-8.16276e-08
-1.59444e-06
-8.0362e-08
-1.51536e-06
-7.90812e-08
-1.43757e-06
-7.77875e-08
-1.36109e-06
-7.64791e-08
-1.28595e-06
-7.51345e-08
-1.21219e-06
-7.37669e-08
-1.13978e-06
-7.2404e-08
-1.06874e-06
-7.10403e-08
-9.99065e-07
-6.96769e-08
-9.3075e-07
-6.8315e-08
-8.63794e-07
-6.69561e-08
-7.98191e-07
-6.56025e-08
-7.33935e-07
-6.42567e-08
-6.71015e-07
-6.29208e-08
-6.09421e-07
-6.15939e-08
-5.49145e-07
-6.02771e-08
-4.90173e-07
-5.89729e-08
-4.32487e-07
-5.76878e-08
-3.76061e-07
-5.64272e-08
-3.20876e-07
-5.51866e-08
-2.66915e-07
-5.39627e-08
-2.14158e-07
-5.27597e-08
-1.62584e-07
-5.15762e-08
-1.12186e-07
-5.04002e-08
-6.2956e-08
-4.92323e-08
-1.50233e-08
-4.79342e-08
3.17607e-08
-4.6785e-08
7.76987e-08
-4.59399e-08
1.22669e-07
-4.49728e-08
1.66577e-07
-4.39115e-08
2.09421e-07
-4.28472e-08
2.51219e-07
-4.18005e-08
2.92e-07
-4.07837e-08
3.31795e-07
-3.97989e-08
3.70635e-07
-3.88448e-08
4.08548e-07
-3.79195e-08
4.45561e-07
-3.7022e-08
4.81703e-07
-3.61505e-08
5.16999e-07
-3.53049e-08
5.51474e-07
-3.4484e-08
5.85156e-07
-3.36879e-08
6.1807e-07
-3.29148e-08
6.5024e-07
-3.21654e-08
6.81687e-07
-3.14389e-08
7.12435e-07
-3.07364e-08
7.42506e-07
-3.00575e-08
7.71922e-07
-2.9403e-08
8.00709e-07
-2.87719e-08
8.28887e-07
-2.81653e-08
8.56482e-07
-2.75817e-08
8.83516e-07
-2.70228e-08
9.10013e-07
-2.64867e-08
9.35994e-07
-2.5975e-08
9.61485e-07
-2.54856e-08
9.86506e-07
-2.50193e-08
1.01108e-06
-2.45734e-08
1.03522e-06
-2.41476e-08
1.05896e-06
-2.37377e-08
1.08229e-06
-2.3341e-08
1.10523e-06
-2.29506e-08
1.12778e-06
-2.25595e-08
1.14993e-06
-2.21552e-08
1.17164e-06
-2.17226e-08
1.19286e-06
-2.1239e-08
1.21352e-06
-2.06735e-08
1.23349e-06
-1.99817e-08
1.25258e-06
-1.90994e-08
1.2705e-06
-1.79299e-08
1.28681e-06
-1.63275e-08
1.30082e-06
-1.402e-08
1.3114e-06
-1.05893e-08
1.31591e-06
-4.5267e-09
1.30899e-06
6.90205e-09
1.27936e-06
2.96135e-08
7.24487e-08
1.20691e-06
2.53693e-07
-2.78483e-07
4.88919e-07
-4.49062e-07
6.38082e-07
-4.00526e-07
7.22259e-07
-3.03473e-07
7.61227e-07
-2.05691e-07
7.66604e-07
-1.1549e-07
7.4511e-07
-3.30874e-08
7.0244e-07
4.13935e-08
6.41557e-07
1.07474e-07
5.6242e-07
1.63345e-07
4.64237e-07
2.04594e-07
3.45316e-07
2.28247e-07
1.99408e-07
2.3844e-07
1.473e-08
2.50685e-07
-2.19116e-07
2.85451e-07
-5.06382e-07
3.48154e-07
-8.45045e-07
4.26518e-07
-1.22391e-06
5.07164e-07
-1.62905e-06
5.81671e-07
-2.02939e-06
6.4614e-07
-2.41722e-06
6.92869e-07
-2.7921e-06
7.16303e-07
-3.14695e-06
7.18352e-07
-3.47368e-06
7.03289e-07
-3.76745e-06
6.74488e-07
-4.02746e-06
6.34889e-07
-4.25425e-06
5.87841e-07
-4.44922e-06
5.37003e-07
-4.61531e-06
4.85324e-07
-4.75603e-06
4.34846e-07
-4.87474e-06
3.86908e-07
-4.9746e-06
3.42464e-07
-5.05846e-06
3.01916e-07
-5.12883e-06
2.65344e-07
-5.18779e-06
2.32581e-07
-5.23709e-06
2.03324e-07
-5.2781e-06
1.77202e-07
-5.31195e-06
1.53825e-07
-5.33955e-06
1.32814e-07
-5.36162e-06
1.13818e-07
-5.37877e-06
9.65293e-08
-5.3915e-06
8.0683e-08
-5.40028e-06
6.60588e-08
-5.40549e-06
5.24765e-08
-5.4075e-06
3.97905e-08
-5.40664e-06
2.78869e-08
-5.40325e-06
1.66889e-08
-5.39763e-06
6.16267e-09
-5.38995e-06
-3.73618e-09
-5.37977e-06
-1.32013e-08
-5.3662e-06
-2.24666e-08
-5.34865e-06
-3.15597e-08
-5.32696e-06
-4.04196e-08
-5.30111e-06
-4.90388e-08
-5.27117e-06
-5.74248e-08
-5.23722e-06
-6.55837e-08
-5.19936e-06
-7.35185e-08
-5.15769e-06
-8.12283e-08
-5.11233e-06
-8.87099e-08
-5.06338e-06
-9.59575e-08
-5.01096e-06
-1.02964e-07
-4.95519e-06
-1.09723e-07
-4.8962e-06
-1.16224e-07
-4.83413e-06
-1.22463e-07
-4.76909e-06
-1.28434e-07
-4.70123e-06
-1.34129e-07
-4.63068e-06
-1.39543e-07
-4.55759e-06
-1.4467e-07
-4.48209e-06
-1.49506e-07
-4.40435e-06
-1.54051e-07
-4.32449e-06
-1.58302e-07
-4.24266e-06
-1.62258e-07
-4.15901e-06
-1.6592e-07
-4.07369e-06
-1.69288e-07
-3.98683e-06
-1.72367e-07
-3.89858e-06
-1.75158e-07
-3.80909e-06
-1.77666e-07
-3.71847e-06
-1.79897e-07
-3.62688e-06
-1.81856e-07
-3.53444e-06
-1.83549e-07
-3.44127e-06
-1.84985e-07
-3.34751e-06
-1.86173e-07
-3.25327e-06
-1.8712e-07
-3.15866e-06
-1.87837e-07
-3.0638e-06
-1.88335e-07
-2.96879e-06
-1.88625e-07
-2.87373e-06
-1.88719e-07
-2.77872e-06
-1.8863e-07
-2.68387e-06
-1.88372e-07
-2.58927e-06
-1.87957e-07
-2.49503e-06
-1.87396e-07
-2.4013e-06
-1.86697e-07
-2.30821e-06
-1.85855e-07
-2.21593e-06
-1.84841e-07
-2.12459e-06
-1.83611e-07
-2.03421e-06
-1.82135e-07
-1.94478e-06
-1.80412e-07
-1.85623e-06
-1.78482e-07
-1.76858e-06
-1.76424e-07
-1.68192e-06
-1.74289e-07
-1.5963e-06
-1.7209e-07
-1.51176e-06
-1.69829e-07
-1.42835e-06
-1.67508e-07
-1.3461e-06
-1.65129e-07
-1.26503e-06
-1.62699e-07
-1.18516e-06
-1.60222e-07
-1.10654e-06
-1.57705e-07
-1.02918e-06
-1.5515e-07
-9.53097e-07
-1.5256e-07
-8.78296e-07
-1.49935e-07
-8.04775e-07
-1.47288e-07
-7.32546e-07
-1.44633e-07
-6.61614e-07
-1.41972e-07
-5.9198e-07
-1.39311e-07
-5.23643e-07
-1.36651e-07
-4.56603e-07
-1.33996e-07
-3.90855e-07
-1.3135e-07
-3.26395e-07
-1.28717e-07
-2.63211e-07
-1.26104e-07
-2.01295e-07
-1.23511e-07
-1.40636e-07
-1.20936e-07
-8.12237e-08
-1.18386e-07
-2.30519e-08
-1.1586e-07
3.38937e-08
-1.13374e-07
8.96413e-08
-1.10935e-07
1.44208e-07
-1.0853e-07
1.97603e-07
-1.06156e-07
2.49843e-07
-1.03817e-07
3.00956e-07
-1.01514e-07
3.5097e-07
-9.92466e-08
4.00052e-07
-9.70153e-08
4.4816e-07
-9.48928e-08
4.95077e-07
-9.28578e-08
5.40884e-07
-9.07801e-08
5.85652e-07
-8.86808e-08
6.29414e-07
-8.66101e-08
6.72199e-07
-8.45865e-08
7.14032e-07
-8.26164e-08
7.54933e-07
-8.07018e-08
7.94928e-07
-7.88411e-08
8.34038e-07
-7.70332e-08
8.72289e-07
-7.52761e-08
9.09703e-07
-7.35688e-08
9.46305e-07
-7.19101e-08
9.82117e-07
-7.02996e-08
1.01716e-06
-6.87357e-08
1.05147e-06
-6.72184e-08
1.08506e-06
-6.57464e-08
1.11795e-06
-6.43211e-08
1.15016e-06
-6.29415e-08
1.18172e-06
-6.16095e-08
1.21265e-06
-6.03234e-08
1.24297e-06
-5.90846e-08
1.27271e-06
-5.78918e-08
1.30188e-06
-5.67458e-08
1.33051e-06
-5.56457e-08
1.35863e-06
-5.45916e-08
1.38624e-06
-5.35828e-08
1.41337e-06
-5.2618e-08
1.44005e-06
-5.1696e-08
1.46629e-06
-5.08135e-08
1.4921e-06
-4.99678e-08
1.51751e-06
-4.9152e-08
1.54252e-06
-4.83599e-08
1.56714e-06
-4.75787e-08
1.59137e-06
-4.6795e-08
1.61519e-06
-4.59851e-08
1.63857e-06
-4.51217e-08
1.66148e-06
-4.41612e-08
1.68384e-06
-4.30482e-08
1.70555e-06
-4.16987e-08
1.72643e-06
-3.99967e-08
1.74625e-06
-3.77632e-08
1.76464e-06
-3.4731e-08
1.78105e-06
-3.04374e-08
1.79457e-06
-2.41285e-08
1.80426e-06
-1.42238e-08
1.80907e-06
2.06952e-09
1.80715e-06
3.15291e-08
8.81786e-08
1.79141e-06
2.4503e-07
-5.23514e-07
3.40228e-07
-5.44258e-07
3.55993e-07
-4.16298e-07
3.44636e-07
-2.92112e-07
3.16601e-07
-1.77665e-07
2.72152e-07
-7.10368e-08
2.10549e-07
2.8506e-08
1.30778e-07
1.21167e-07
3.17311e-08
2.06514e-07
-8.87762e-08
2.83851e-07
-2.36583e-07
3.52398e-07
-4.22337e-07
4.1399e-07
-6.59395e-07
4.75498e-07
-9.54247e-07
5.45511e-07
-1.2961e-06
6.27299e-07
-1.66305e-06
7.1509e-07
-2.03447e-06
7.97946e-07
-2.39389e-06
8.66595e-07
-2.72799e-06
9.15786e-07
-3.02535e-06
9.43531e-07
-3.28162e-06
9.49146e-07
-3.49878e-06
9.33476e-07
-3.68029e-06
8.9986e-07
-3.82992e-06
8.52928e-07
-3.95235e-06
7.96913e-07
-4.05294e-06
7.35481e-07
-4.137e-06
6.71897e-07
-4.20889e-06
6.08884e-07
-4.27201e-06
5.48441e-07
-4.32896e-06
4.91792e-07
-4.38158e-06
4.39532e-07
-4.431e-06
3.91883e-07
-4.47784e-06
3.48755e-07
-4.52236e-06
3.09864e-07
-4.5646e-06
2.74817e-07
-4.60445e-06
2.43178e-07
-4.64175e-06
2.14506e-07
-4.67632e-06
1.88389e-07
-4.70795e-06
1.64452e-07
-4.7365e-06
1.42367e-07
-4.76182e-06
1.21852e-07
-4.78381e-06
1.02671e-07
-4.80238e-06
8.46276e-08
-4.81746e-06
6.75579e-08
-4.82899e-06
5.1323e-08
-4.83691e-06
3.58046e-08
-4.84112e-06
2.09014e-08
-4.84148e-06
6.51996e-09
-4.83776e-06
-7.44622e-09
-4.82985e-06
-2.1111e-08
-4.81779e-06
-3.45323e-08
-4.80165e-06
-4.76971e-08
-4.78148e-06
-6.05837e-08
-4.75734e-06
-7.31835e-08
-4.72927e-06
-8.54896e-08
-4.69736e-06
-9.74962e-08
-4.66168e-06
-1.09196e-07
-4.62233e-06
-1.20581e-07
-4.5794e-06
-1.3164e-07
-4.53299e-06
-1.42363e-07
-4.48322e-06
-1.52735e-07
-4.4302e-06
-1.62745e-07
-4.37404e-06
-1.72379e-07
-4.31488e-06
-1.81627e-07
-4.25283e-06
-1.90479e-07
-4.18804e-06
-1.98927e-07
-4.12062e-06
-2.06959e-07
-4.05072e-06
-2.14568e-07
-3.97848e-06
-2.21748e-07
-3.90403e-06
-2.28496e-07
-3.82753e-06
-2.3481e-07
-3.7491e-06
-2.40687e-07
-3.66889e-06
-2.46128e-07
-3.58704e-06
-2.51136e-07
-3.5037e-06
-2.55713e-07
-3.41899e-06
-2.59864e-07
-3.33306e-06
-2.63594e-07
-3.24605e-06
-2.66912e-07
-3.15808e-06
-2.69825e-07
-3.06928e-06
-2.72344e-07
-2.97979e-06
-2.74478e-07
-2.88972e-06
-2.7624e-07
-2.7992e-06
-2.77641e-07
-2.70834e-06
-2.78696e-07
-2.61726e-06
-2.79418e-07
-2.52606e-06
-2.79822e-07
-2.43486e-06
-2.79922e-07
-2.34376e-06
-2.79735e-07
-2.25285e-06
-2.79274e-07
-2.16226e-06
-2.78552e-07
-2.07207e-06
-2.7758e-07
-1.98241e-06
-2.76365e-07
-1.89336e-06
-2.74906e-07
-1.80501e-06
-2.73189e-07
-1.71742e-06
-2.712e-07
-1.63061e-06
-2.68936e-07
-1.54461e-06
-2.66414e-07
-1.45942e-06
-2.63671e-07
-1.3751e-06
-2.6075e-07
-1.2917e-06
-2.57689e-07
-1.20928e-06
-2.54506e-07
-1.1279e-06
-2.51213e-07
-1.04758e-06
-2.47821e-07
-9.68375e-07
-2.44338e-07
-8.90299e-07
-2.40775e-07
-8.13383e-07
-2.37139e-07
-7.37649e-07
-2.33438e-07
-6.63117e-07
-2.29682e-07
-5.89801e-07
-2.25876e-07
-5.17707e-07
-2.22029e-07
-4.46843e-07
-2.18152e-07
-3.77219e-07
-2.14256e-07
-3.08842e-07
-2.1035e-07
-2.41713e-07
-2.0644e-07
-1.75832e-07
-2.02532e-07
-1.11198e-07
-1.9863e-07
-4.78064e-08
-1.94742e-07
1.43483e-08
-1.90872e-07
7.52706e-08
-1.87027e-07
1.34969e-07
-1.8321e-07
1.93456e-07
-1.79424e-07
2.50743e-07
-1.75674e-07
3.06848e-07
-1.71965e-07
3.6178e-07
-1.68307e-07
4.15547e-07
-1.64702e-07
4.68163e-07
-1.61148e-07
5.1965e-07
-1.57644e-07
5.70026e-07
-1.54194e-07
6.19314e-07
-1.50802e-07
6.67543e-07
-1.47476e-07
7.14757e-07
-1.44229e-07
7.60935e-07
-1.41071e-07
8.06043e-07
-1.37967e-07
8.50135e-07
-1.34873e-07
8.93252e-07
-1.31799e-07
9.35418e-07
-1.28776e-07
9.7665e-07
-1.2582e-07
1.01697e-06
-1.22936e-07
1.05639e-06
-1.20126e-07
1.09494e-06
-1.17391e-07
1.13263e-06
-1.1473e-07
1.16949e-06
-1.12142e-07
1.20555e-06
-1.09625e-07
1.24081e-06
-1.07179e-07
1.27531e-06
-1.04803e-07
1.30907e-06
-1.02496e-07
1.34211e-06
-1.00257e-07
1.37445e-06
-9.80855e-08
1.40611e-06
-9.59823e-08
1.43712e-06
-9.39475e-08
1.4675e-06
-9.19816e-08
1.49726e-06
-9.00842e-08
1.52644e-06
-8.82556e-08
1.55505e-06
-8.64952e-08
1.58311e-06
-8.48032e-08
1.61064e-06
-8.3179e-08
1.63768e-06
-8.16221e-08
1.66423e-06
-8.01315e-08
1.69032e-06
-7.87055e-08
1.71597e-06
-7.7342e-08
1.74119e-06
-7.60366e-08
1.766e-06
-7.47847e-08
1.79043e-06
-7.35773e-08
1.81447e-06
-7.24046e-08
1.83814e-06
-7.12495e-08
1.86143e-06
-7.0092e-08
1.88434e-06
-6.89002e-08
1.90685e-06
-6.76345e-08
1.92892e-06
-6.62356e-08
1.9505e-06
-6.46249e-08
1.97148e-06
-6.26873e-08
1.99174e-06
-6.02616e-08
2.01108e-06
-5.71052e-08
2.0292e-06
-5.28569e-08
2.04568e-06
-4.69232e-08
2.05992e-06
-3.83671e-08
2.07112e-06
-2.54322e-08
2.07843e-06
-5.24696e-09
2.0823e-06
2.76582e-08
8.56629e-08
2.08481e-06
9.23621e-08
-6.15876e-07
6.09422e-08
-5.12831e-07
1.19227e-08
-3.67282e-07
-4.5714e-08
-2.34468e-07
-1.15769e-07
-1.07614e-07
-2.01703e-07
1.49022e-08
-3.06534e-07
1.33333e-07
-4.32674e-07
2.47307e-07
-5.82725e-07
3.56563e-07
-7.60089e-07
4.6121e-07
-9.69525e-07
5.61834e-07
-1.21527e-06
6.59727e-07
-1.49583e-06
7.56054e-07
-1.80013e-06
8.49798e-07
-2.10936e-06
9.36525e-07
-2.40409e-06
1.00983e-06
-2.67016e-06
1.06402e-06
-2.89953e-06
1.09598e-06
-3.08906e-06
1.10532e-06
-3.23932e-06
1.09381e-06
-3.35463e-06
1.06446e-06
-3.44178e-06
1.02063e-06
-3.50804e-06
9.66114e-07
-3.55984e-06
9.04736e-07
-3.60262e-06
8.39688e-07
-3.64073e-06
7.73591e-07
-3.67737e-06
7.08534e-07
-3.71452e-06
6.46041e-07
-3.75318e-06
5.87095e-07
-3.79359e-06
5.32202e-07
-3.83556e-06
4.81506e-07
-3.8786e-06
4.34923e-07
-3.92206e-06
3.92217e-07
-3.96526e-06
3.53067e-07
-4.00756e-06
3.1711e-07
-4.04836e-06
2.83977e-07
-4.08716e-06
2.53313e-07
-4.12356e-06
2.24787e-07
-4.15721e-06
1.98103e-07
-4.18784e-06
1.72996e-07
-4.21522e-06
1.49238e-07
-4.23919e-06
1.26635e-07
-4.25958e-06
1.05021e-07
-4.27628e-06
8.42564e-08
-4.28918e-06
6.42212e-08
-4.29819e-06
4.48149e-08
-4.30324e-06
2.5952e-08
-4.30427e-06
7.55589e-09
-4.30127e-06
-1.04466e-08
-4.29426e-06
-2.8116e-08
-4.28332e-06
-4.54796e-08
-4.26848e-06
-6.25337e-08
-4.2498e-06
-7.92655e-08
-4.22732e-06
-9.56623e-08
-4.2011e-06
-1.1171e-07
-4.1712e-06
-1.27395e-07
-4.13769e-06
-1.427e-07
-4.10066e-06
-1.5761e-07
-4.0602e-06
-1.72106e-07
-4.01639e-06
-1.8617e-07
-3.96934e-06
-1.99784e-07
-3.91915e-06
-2.1293e-07
-3.86595e-06
-2.25587e-07
-3.80983e-06
-2.37739e-07
-3.75094e-06
-2.49377e-07
-3.68938e-06
-2.60484e-07
-3.62529e-06
-2.71048e-07
-3.5588e-06
-2.81059e-07
-3.49004e-06
-2.90509e-07
-3.41914e-06
-2.99391e-07
-3.34625e-06
-3.07703e-07
-3.27149e-06
-3.15443e-07
-3.19501e-06
-3.2261e-07
-3.11694e-06
-3.29207e-07
-3.03742e-06
-3.35238e-07
-2.95657e-06
-3.40708e-07
-2.87454e-06
-3.45625e-07
-2.79145e-06
-3.49998e-07
-2.70744e-06
-3.53838e-07
-2.62263e-06
-3.57157e-07
-2.53714e-06
-3.59968e-07
-2.45109e-06
-3.62285e-07
-2.36461e-06
-3.64126e-07
-2.2778e-06
-3.65505e-07
-2.19078e-06
-3.6644e-07
-2.10365e-06
-3.66949e-07
-2.01652e-06
-3.67051e-07
-1.92949e-06
-3.66762e-07
-1.84267e-06
-3.66099e-07
-1.75614e-06
-3.65079e-07
-1.67e-06
-3.63716e-07
-1.58435e-06
-3.6202e-07
-1.49926e-06
-3.59998e-07
-1.41479e-06
-3.57653e-07
-1.33101e-06
-3.54985e-07
-1.24794e-06
-3.52005e-07
-1.16562e-06
-3.48734e-07
-1.08409e-06
-3.45202e-07
-1.00339e-06
-3.41445e-07
-9.2359e-07
-3.37492e-07
-8.44728e-07
-3.33368e-07
-7.6685e-07
-3.29091e-07
-6.89996e-07
-3.24676e-07
-6.14197e-07
-3.20137e-07
-5.39483e-07
-3.15488e-07
-4.65879e-07
-3.10742e-07
-3.93407e-07
-3.0591e-07