/*--------------------------------*- C++ -*----------------------------------*\
  =========                 |
  \\      /  F ield         | OpenFOAM: The Open Source CFD Toolbox
   \\    /   O peration     | Website:  https://openfoam.org
    \\  /    A nd           | Version:  8
     \\/     M anipulation  |
\*---------------------------------------------------------------------------*/
FoamFile
{
    version     2.0;
    format      ascii;
    class       volVectorField;
    location    "3800";
    object      U;
}
// * * * * * * * * * * * * * * * * * * * * * * * * * * * * * * * * * * * * * //

dimensions      [0 1 -1 0 0 0 0];

internalField   nonuniform List<vector> 
12225
(
(9.2745 -4.73371 0)
(13.1094 -1.71343 0)
(12.4778 -0.395198 0)
(11.2771 -0.0422042 0)
(10.6314 0.0141384 0)
(10.2979 -9.40366e-05 0)
(10.0776 -0.0165234 0)
(9.91227 -0.00288831 0)
(9.77909 0.0348746 0)
(9.66231 0.0428929 0)
(9.55574 0.0248834 0)
(9.45767 0.00214243 0)
(9.36675 -0.0227915 0)
(9.28211 -0.0302249 0)
(9.20232 -0.0217876 0)
(9.13253 -0.0212276 0)
(9.07016 -0.0210397 0)
(9.08962 -0.0276981 0)
(10.2592 0.0928019 0)
(10.7814 0.199339 0)
(10.9594 0.245656 0)
(10.7469 0.229143 0)
(10.5875 0.172969 0)
(10.4527 0.115535 0)
(10.33 0.0823314 0)
(10.2327 0.0647299 0)
(10.155 0.0524767 0)
(10.0894 0.0472339 0)
(10.0323 0.046993 0)
(9.98212 0.0489906 0)
(9.93785 0.0517978 0)
(9.89833 0.0519426 0)
(9.8615 0.0483249 0)
(9.82886 0.0438427 0)
(9.79429 0.0300798 0)
(9.76827 0.0102822 0)
(9.87768 -0.24504 0)
(9.74285 0.00579112 0)
(10.1971 0.125744 0)
(10.3245 0.179364 0)
(10.3564 0.161548 0)
(10.3311 0.120077 0)
(10.2777 0.0904939 0)
(10.2252 0.0746657 0)
(10.1812 0.0658752 0)
(10.1438 0.060029 0)
(10.1103 0.0562087 0)
(10.0799 0.0536513 0)
(10.052 0.0511366 0)
(10.026 0.0487622 0)
(10.0023 0.0460753 0)
(9.98118 0.0417676 0)
(9.95915 0.0316699 0)
(9.93459 0.0135766 0)
(9.83416 -0.443933 0)
(9.57654 -0.163146 0)
(9.91603 0.0336707 0)
(10.0933 0.134225 0)
(10.1892 0.145473 0)
(10.2168 0.120738 0)
(10.205 0.097895 0)
(10.1824 0.0839093 0)
(10.1599 0.0756296 0)
(10.1389 0.0697123 0)
(10.119 0.0651346 0)
(10.1001 0.0616377 0)
(10.0821 0.0586134 0)
(10.0648 0.0562293 0)
(10.0483 0.0538546 0)
(10.0325 0.0501446 0)
(10.0148 0.042418 0)
(9.99178 0.0306127 0)
(9.87825 -0.387476 0)
(9.61653 -0.196147 0)
(9.81623 -0.0186701 0)
(9.96136 0.0916131 0)
(10.0698 0.122197 0)
(10.1219 0.113628 0)
(10.1354 0.0992641 0)
(10.1332 0.0884209 0)
(10.1257 0.0809484 0)
(10.1162 0.0753966 0)
(10.1056 0.0711242 0)
(10.0946 0.0678819 0)
(10.0833 0.0652542 0)
(10.0718 0.0631565 0)
(10.0601 0.0610445 0)
(10.0477 0.0581064 0)
(10.0328 0.0530808 0)
(10.0125 0.046903 0)
(9.91439 -0.28804 0)
(9.68304 -0.185176 0)
(9.78717 -0.0532074 0)
(9.88917 0.0509994 0)
(9.98796 0.0936801 0)
(10.0476 0.0992039 0)
(10.0751 0.0938742 0)
(10.0861 0.0875179 0)
(10.0892 0.0821204 0)
(10.0879 0.0777644 0)
(10.0842 0.0743508 0)
(10.0789 0.0717601 0)
(10.0726 0.0697418 0)
(10.0654 0.068172 0)
(10.0572 0.0667257 0)
(10.0476 0.0650432 0)
(10.0354 0.0627831 0)
(10.0185 0.0611707 0)
(9.93763 -0.214041 0)
(9.74856 -0.167535 0)
(9.79244 -0.0752153 0)
(9.85608 0.0162207 0)
(9.93595 0.0644221 0)
(9.99281 0.0805952 0)
(10.0261 0.0835612 0)
(10.0447 0.0822433 0)
(10.0546 0.0797792 0)
(10.0593 0.0772873 0)
(10.0606 0.0751757 0)
(10.0596 0.073559 0)
(10.057 0.0723892 0)
(10.053 0.0716352 0)
(10.0477 0.0711906 0)
(10.0407 0.0710159 0)
(10.0312 0.0712782 0)
(10.0182 0.0731524 0)
(9.95263 -0.167334 0)
(9.79947 -0.149677 0)
(9.81177 -0.0846412 0)
(9.84959 -0.00621016 0)
(9.9114 0.041932 0)
(9.96107 0.0638971 0)
(9.99432 0.0725499 0)
(10.0156 0.075286 0)
(10.0288 0.0755297 0)
(10.0367 0.0749033 0)
(10.041 0.0741477 0)
(10.0427 0.0735816 0)
(10.0425 0.0733231 0)
(10.0408 0.0734486 0)
(10.0375 0.0740058 0)
(10.0325 0.0751364 0)
(10.0254 0.0772049 0)
(10.0157 0.0812048 0)
(9.96406 -0.132089 0)
(9.84003 -0.131988 0)
(9.83337 -0.0876898 0)
(9.85306 -0.0213326 0)
(9.89927 0.0244157 0)
(9.94102 0.049513 0)
(9.97207 0.0621233 0)
(9.99385 0.0680767 0)
(10.0086 0.0706958 0)
(10.0184 0.0717944 0)
(10.0246 0.0723174 0)
(10.0282 0.0727534 0)
(10.0298 0.0733603 0)
(10.0297 0.0743189 0)
(10.028 0.0757871 0)
(10.0248 0.0780078 0)
(10.0197 0.081411 0)
(10.0129 0.0868081 0)
(9.97418 -0.100205 0)
(9.87757 -0.11239 0)
(9.85857 -0.0853661 0)
(9.86387 -0.0323327 0)
(9.89487 0.008929 0)
(9.92743 0.035224 0)
(9.95439 0.050717 0)
(9.97502 0.0594968 0)
(9.99014 0.064444 0)
(10.0009 0.0673592 0)
(10.0085 0.0692979 0)
(10.0135 0.0708777 0)
(10.0166 0.0724763 0)
(10.018 0.0743691 0)
(10.0179 0.0768018 0)
(10.0164 0.0800763 0)
(10.0136 0.084618 0)
(10.0095 0.0910434 0)
(9.98253 -0.0727091 0)
(9.91035 -0.0921963 0)
(9.88507 -0.0782441 0)
(9.88001 -0.0386074 0)
(9.89746 -0.00337384 0)
(9.92043 0.022169 0)
(9.94196 0.0391844 0)
(9.95999 0.050081 0)
(9.97425 0.0570562 0)
(9.98518 0.0617049 0)
(9.99339 0.0650794 0)
(9.99941 0.0678633 0)
(10.0037 0.0705163 0)
(10.0064 0.0733845 0)
(10.0078 0.0767698 0)
(10.0081 0.080992 0)
(10.0073 0.0864246 0)
(10.0058 0.0935037 0)
(9.98894 -0.0502566 0)
(9.93733 -0.0723781 0)
(9.91073 -0.067448 0)
(9.89917 -0.0399826 0)
(9.90566 -0.0116496 0)
(9.91955 0.0114523 0)
(9.93496 0.0285308 0)
(9.94934 0.0405804 0)
(9.96169 0.0490245 0)
(9.97188 0.0551116 0)
(9.98009 0.0597797 0)
(9.98659 0.0637028 0)
(9.99163 0.0673713 0)
(9.99544 0.0711644 0)
(9.9982 0.0754033 0)
(10.0001 0.0803905 0)
(10.0013 0.0864263 0)
(10.0021 0.0937941 0)
(9.99348 -0.0329086 0)
(9.9582 -0.053811 0)
(9.93368 -0.0542834 0)
(9.91898 -0.0367871 0)
(9.91755 -0.0154532 0)
(9.92366 0.00399509 0)
(9.93301 0.0197757 0)
(9.94318 0.0318768 0)
(9.9529 0.0410108 0)
(9.96163 0.0480206 0)
(9.96922 0.0536474 0)
(9.9757 0.0584836 0)
(9.98118 0.0629923 0)
(9.98578 0.0675413 0)
(9.98965 0.0724342 0)
(9.99294 0.0779311 0)
(9.99587 0.0842539 0)
(9.99869 0.0915739 0)
(9.99643 -0.0202024 0)
(9.97327 -0.0372097 0)
(9.95261 -0.0400453 0)
(9.93731 -0.0298105 0)
(9.93089 -0.0148233 0)
(9.93102 0.000366768 0)
(9.93504 0.0137745 0)
(9.94104 0.0248429 0)
(9.94782 0.033759 0)
(9.95465 0.0409911 0)
(9.96117 0.0470496 0)
(9.96724 0.0523946 0)
(9.97281 0.0574113 0)
(9.9779 0.0624147 0)
(9.98261 0.067659 0)
(9.98704 0.0733463 0)
(9.99135 0.0796274 0)
(9.99573 0.0865958 0)
(9.99816 -0.0112876 0)
(9.9833 -0.0229304 0)
(9.96682 -0.0257625 0)
(9.95243 -0.0200765 0)
(9.94344 -0.0102415 0)
(9.93952 0.000675257 0)
(9.9394 0.0110302 0)
(9.94183 0.0201441 0)
(9.94582 0.0279251 0)
(9.95069 0.0345717 0)
(9.95597 0.0403853 0)
(9.96139 0.0456758 0)
(9.96681 0.0507212 0)
(9.97216 0.0557536 0)
(9.97744 0.060957 0)
(9.9827 0.066468 0)
(9.98803 0.0723759 0)
(9.99354 0.0787214 0)
(9.99906 -0.00508078 0)
(9.98922 -0.0107806 0)
(9.97612 -0.0119166 0)
(9.96309 -0.00848236 0)
(9.9531 -0.00243423 0)
(9.94685 0.00457908 0)
(9.94399 0.0115578 0)
(9.94384 0.0180209 0)
(9.9457 0.023839 0)
(9.94896 0.0290806 0)
(9.95317 0.0339012 0)
(9.95799 0.0384775 0)
(9.96321 0.0429743 0)
(9.96868 0.047529 0)
(9.97435 0.0522457 0)
(9.98019 0.0571942 0)
(9.98623 0.0624098 0)
(9.99249 0.0678951 0)
(9.99942 -0.000367163 0)
(9.9918 0.000152097 0)
(9.98042 0.0018328 0)
(9.96821 0.00459431 0)
(9.9579 0.00792083 0)
(9.95061 0.0114024 0)
(9.94642 0.0148175 0)
(9.94498 0.0180892 0)
(9.94576 0.0212344 0)
(9.94825 0.024319 0)
(9.95198 0.0274245 0)
(9.95661 0.0306278 0)
(9.96186 0.0339914 0)
(9.96757 0.0375593 0)
(9.97362 0.0413553 0)
(9.97993 0.0453843 0)
(9.98648 0.049632 0)
(9.99325 0.0540687 0)
(9.99935 0.00408486 0)
(9.9911 0.0111736 0)
(9.97897 0.016134 0)
(9.96616 0.0187375 0)
(9.95552 0.0196139 0)
(9.94819 0.0195477 0)
(9.94419 0.019161 0)
(9.94311 0.0188637 0)
(9.94438 0.0188966 0)
(9.94741 0.0193765 0)
(9.95174 0.0203444 0)
(9.95698 0.021795 0)
(9.96287 0.0236974 0)
(9.96919 0.026007 0)
(9.97583 0.0286723 0)
(9.9827 0.0316367 0)
(9.98974 0.0348423 0)
(9.99692 0.0382283 0)
(9.99882 0.00972982 0)
(9.98675 0.0240492 0)
(9.97122 0.0318473 0)
(9.95641 0.0332948 0)
(9.94558 0.0307055 0)
(9.93942 0.0263517 0)
(9.93734 0.0217492 0)
(9.93845 0.0177406 0)
(9.94186 0.0146962 0)
(9.94687 0.0127118 0)
(9.95291 0.0117316 0)
(9.95963 0.0116366 0)
(9.96674 0.0122879 0)
(9.97408 0.0135497 0)
(9.98155 0.015297 0)
(9.98908 0.0174203 0)
(9.99665 0.0198228 0)
(10.0042 0.0224205 0)
(9.99757 0.01821 0)
(9.97773 0.0404556 0)
(9.95664 0.0495782 0)
(9.93945 0.0474798 0)
(9.92961 0.0394251 0)
(9.92659 0.0296487 0)
(9.92848 0.020492 0)
(9.93357 0.0129685 0)
(9.94055 0.00735027 0)
(9.94856 0.00351908 0)
(9.95704 0.00122365 0)
(9.96567 0.00017431 0)
(9.97428 0.000107705 0)
(9.98276 0.000790626 0)
(9.99109 0.0020366 0)
(9.99925 0.00369276 0)
(10.0073 0.00563713 0)
(10.0151 0.00777168 0)
(9.99502 0.0318145 0)
(9.96177 0.062134 0)
(9.93372 0.069552 0)
(9.91534 0.0601158 0)
(9.90932 0.0439519 0)
(9.91249 0.0276613 0)
(9.92084 0.0139951 0)
(9.93162 0.00364039 0)
(9.94322 -0.00364098 0)
(9.95479 -0.00837314 0)
(9.96594 -0.0111301 0)
(9.97652 -0.012394 0)
(9.98651 -0.0125708 0)
(9.99595 -0.0119598 0)
(10.0049 -0.0107975 0)
(10.0135 -0.00925637 0)
(10.0217 -0.00746744 0)
(10.0296 -0.00552894 0)
(9.99018 0.0534618 0)
(9.93561 0.0901521 0)
(9.90098 0.0906282 0)
(9.88515 0.0687574 0)
(9.8878 0.0418195 0)
(9.90121 0.0186591 0)
(9.91856 0.00141781 0)
(9.93626 -0.0103958 0)
(9.95285 -0.0179405 0)
(9.96786 -0.0223929 0)
(9.98129 -0.0246488 0)
(9.99332 -0.02539 0)
(10.0042 -0.0250952 0)
(10.0141 -0.0241195 0)
(10.0232 -0.0227007 0)
(10.0318 -0.021007 0)
(10.0399 -0.0191553 0)
(10.0476 -0.0172271 0)
(9.9819 0.0862471 0)
(9.89548 0.124258 0)
(9.85817 0.109884 0)
(9.85209 0.0697742 0)
(9.87033 0.0303384 0)
(9.89842 0.00144912 0)
(9.92658 -0.0172042 0)
(9.95135 -0.0283205 0)
(9.9722 -0.0344198 0)
(9.9896 -0.0373295 0)
(10.0042 -0.0382059 0)
(10.0168 -0.0378007 0)
(10.0276 -0.0366177 0)
(10.0372 -0.0349806 0)
(10.0459 -0.0330919 0)
(10.0539 -0.031092 0)
(10.0613 -0.0290586 0)
(10.0684 -0.0270535 0)
(9.96925 0.13399 0)
(9.83823 0.163089 0)
(9.80793 0.122591 0)
(9.82311 0.0588002 0)
(9.86512 0.00730843 0)
(9.91138 -0.0240263 0)
(9.95035 -0.0405904 0)
(9.98048 -0.048371 0)
(10.0034 -0.0512353 0)
(10.0212 -0.0515372 0)
(10.0353 -0.0504153 0)
(10.0469 -0.0485125 0)
(10.0565 -0.0462603 0)
(10.0649 -0.0438596 0)
(10.0723 -0.0414376 0)
(10.079 -0.0390866 0)
(10.0852 -0.0368582 0)
(10.0911 -0.034764 0)
(9.94951 0.20714 0)
(9.76128 0.207022 0)
(9.75726 0.123478 0)
(9.81042 0.0320112 0)
(9.88382 -0.0278608 0)
(9.94874 -0.0559946 0)
(9.99526 -0.0660724 0)
(10.0266 -0.067801 0)
(10.048 -0.0659723 0)
(10.063 -0.0631914 0)
(10.0743 -0.0598827 0)
(10.083 -0.0564955 0)
(10.09 -0.0531568 0)
(10.0959 -0.0501243 0)
(10.101 -0.0472806 0)
(10.1057 -0.0446753 0)
(10.11 -0.0423213 0)
(10.1141 -0.0401936 0)
(9.91094 0.322718 0)
(9.65923 0.254545 0)
(9.71887 0.107407 0)
(9.83329 -0.011923 0)
(9.94173 -0.0726524 0)
(10.0199 -0.0901624 0)
(10.0662 -0.0893219 0)
(10.0917 -0.0831377 0)
(10.1058 -0.0760382 0)
(10.1141 -0.0696161 0)
(10.1197 -0.0644924 0)
(10.1236 -0.0600804 0)
(10.1262 -0.0564001 0)
(10.1281 -0.053201 0)
(10.1298 -0.050163 0)
(10.1314 -0.0476198 0)
(10.1329 -0.045547 0)
(10.1344 -0.0434257 0)
(9.84404 0.43511 0)
(9.53798 0.261026 0)
(9.7269 0.059135 0)
(9.92367 -0.0731154 0)
(10.0584 -0.121552 0)
(10.1344 -0.120192 0)
(10.1664 -0.10528 0)
(10.1758 -0.0906168 0)
(10.1759 -0.0784828 0)
(10.1725 -0.0703764 0)
(10.1686 -0.0644297 0)
(10.1646 -0.0597637 0)
(10.1606 -0.0556876 0)
(10.1569 -0.0524173 0)
(10.1536 -0.0496134 0)
(10.1503 -0.0474482 0)
(10.1479 -0.045848 0)
(10.146 -0.0439274 0)
(9.83598 0.319666 0)
(9.55021 0.0912513 0)
(9.91739 -0.0687253 0)
(10.1507 -0.160112 0)
(10.2634 -0.172136 0)
(10.3032 -0.142726 0)
(10.2978 -0.112095 0)
(10.276 -0.0899552 0)
(10.2516 -0.07539 0)
(10.2302 -0.067455 0)
(10.2132 -0.0619261 0)
(10.1983 -0.0574413 0)
(10.1844 -0.0528829 0)
(10.1713 -0.0486262 0)
(10.1597 -0.0448463 0)
(10.1497 -0.0425167 0)
(10.141 -0.0407811 0)
(10.1325 -0.0380696 0)
(10.2049 -0.0633775 0)
(10.4095 -0.191706 0)
(10.7164 -0.282558 0)
(10.6879 -0.282287 0)
(10.6191 -0.230103 0)
(10.5417 -0.163667 0)
(10.4546 -0.117044 0)
(10.3763 -0.092501 0)
(10.3137 -0.079872 0)
(10.2654 -0.0678614 0)
(10.2262 -0.0588595 0)
(10.1916 -0.0542988 0)
(10.1603 -0.0534854 0)
(10.1322 -0.0530821 0)
(10.107 -0.0522528 0)
(10.0852 -0.0482441 0)
(10.0638 -0.044035 0)
(10.0436 -0.0449087 0)
(9.41631 4.45107 0)
(12.7294 2.07612 0)
(12.5649 0.621213 0)
(11.569 0.127657 0)
(10.9309 0.00343445 0)
(10.5866 -0.00206815 0)
(10.3638 0.0123089 0)
(10.2022 0.0302324 0)
(10.0795 0.04119 0)
(9.97728 0.0358286 0)
(9.88477 0.0250302 0)
(9.79908 0.0218947 0)
(9.72267 0.0249851 0)
(9.65612 0.0228077 0)
(9.59983 0.0197965 0)
(9.54589 0.0108824 0)
(9.49516 -0.01439 0)
(9.45193 -0.010935 0)
(-0.0275178 0.0934335 0)
(0.13702 -0.18351 0)
(0.324988 -0.305897 0)
(0.525475 -0.315117 0)
(0.702951 -0.272072 0)
(0.8335 -0.211079 0)
(0.909818 -0.14634 -8.60184e-20)
(0.940399 -0.0824945 8.66426e-20)
(0.919525 -0.0201717 0)
(0.858841 0.0345387 9.18632e-20)
(0.771683 0.0739616 0)
(0.67242 0.0920067 0)
(0.578497 0.0877252 0)
(0.505696 0.0666643 -1.43203e-19)
(0.455744 0.0377108 0)
(0.4124 0.00997414 0)
(0.352868 -0.00897297 1.87931e-19)
(0.262709 -0.00867923 0)
(0.135165 0.029307 0)
(-0.0448282 0.112951 0)
(-0.300544 0.186494 -1.64808e-19)
(-0.594245 0.235262 0)
(-0.915668 0.26682 -7.6237e-20)
(-1.25192 0.296039 0)
(-1.59135 0.323656 0)
(-1.93109 0.336464 -4.13219e-20)
(-2.26351 0.335615 0)
(-2.58062 0.326492 3.45402e-20)
(-2.8794 0.310354 0)
(-3.15641 0.289554 -3.13413e-20)
(-3.41076 0.266418 0)
(-3.64206 0.242538 0)
(-3.85103 0.218947 0)
(-4.03877 0.196353 0)
(-4.20672 0.175131 0)
(-4.35644 0.155489 2.82296e-20)
(-4.4895 0.137461 0)
(-4.60741 0.120976 -5.55708e-20)
(-4.71154 0.105908 0)
(-4.80311 0.0920956 5.47721e-20)
(-4.88317 0.0793781 0)
(-4.95262 0.067603 0)
(-5.01222 0.0566426 -5.35501e-20)
(-5.06259 0.0464001 0)
(-5.10422 0.0368161 -5.26584e-20)
(-5.13755 0.0278737 5.21806e-20)
(-5.16295 0.019617 0)
(-5.18081 0.0121938 5.11538e-20)
(-5.19142 0.00585213 5.06014e-20)
(-5.19495 0.000802356 0)
(-5.19263 -0.00315126 0)
(-5.18571 -0.0064496 0)
(-5.17432 -0.00937209 0)
(-5.1588 -0.0120828 0)
(-5.1393 -0.0146515 -4.61819e-20)
(-5.11596 -0.0170916 0)
(-5.08889 -0.0194145 4.43167e-20)
(-5.05819 -0.0216293 0)
(-5.02398 -0.023738 0)
(-4.98634 -0.0257427 -4.11386e-20)
(-4.94539 -0.0276436 0)
(-4.90123 -0.0294408 3.8763e-20)
(-4.85397 -0.0311341 0)
(-4.80372 -0.0327234 0)
(-4.75061 -0.0342088 0)
(-4.69475 -0.0355899 -3.33835e-20)
(-4.63626 -0.0368674 0)
(-4.57527 -0.0380421 0)
(-4.51191 -0.0391145 -2.87861e-20)
(-4.4463 -0.0400854 0)
(-4.37858 -0.0409562 -2.54448e-20)
(-4.30888 -0.0417281 0)
(-4.23733 -0.0424028 0)
(-4.16406 -0.042982 0)
(-4.08921 -0.0434677 1.80674e-20)
(-4.01289 -0.0438621 0)
(-3.93525 -0.0441678 0)
(-3.8564 -0.0443877 1.18854e-20)
(-3.77648 -0.0445254 9.69164e-21)
(-3.69561 -0.0445843 0)
(-3.61389 -0.0445676 5.08988e-21)
(-3.53146 -0.0444771 0)
(-3.44841 -0.0443127 3.63584e-22)
(-3.36486 -0.0440749 0)
(-3.28092 -0.043769 -1.0126e-20)
(-3.19667 -0.0434112 0)
(-3.11221 -0.0430282 2.13689e-20)
(-3.02762 -0.0426448 0)
(-2.94295 -0.0422738 0)
(-2.85828 -0.0419331 0)
(-2.77364 -0.0416887 -4.65608e-20)
(-2.68906 -0.0416582 0)
(-2.60455 -0.041934 6.08379e-20)
(-2.52006 -0.0425392 0)
(-2.43557 -0.0434229 -7.65073e-20)
(-2.35132 -0.0443282 -8.48866e-20)
(-2.26755 -0.0447833 -9.3595e-20)
(-2.18453 -0.044575 0)
(-2.10241 -0.0439705 0)
(-2.02123 -0.043272 0)
(-1.94099 -0.0425671 0)
(-1.8617 -0.0418668 0)
(-1.78339 -0.0411724 0)
(-1.70608 -0.0404854 0)
(-1.62979 -0.0398097 0)
(-1.55455 -0.039151 1.92709e-19)
(-1.48037 -0.0385165 2.0703e-19)
(-1.40727 -0.0379114 0)
(-1.33526 -0.0373249 0)
(-1.26437 -0.0366996 0)
(-1.19464 -0.0360419 2.743e-19)
(-1.12606 -0.0354079 0)
(-1.05865 -0.0347923 0)
(-0.992398 -0.0341967 0)
(-0.927313 -0.0336227 0)
(-0.863394 -0.0330722 -3.90943e-19)
(-0.800639 -0.0325479 0)
(-0.739044 -0.0320529 0)
(-0.678601 -0.0315907 4.89127e-19)
(-0.619305 -0.0311627 -5.28827e-19)
(-0.56115 -0.0307726 0)
(-0.504125 -0.0304308 -6.22443e-19)
(-0.44822 -0.0301612 0)
(-0.393415 -0.0300082 7.4143e-19)
(-0.339689 -0.0299827 0)
(-0.287027 -0.0300465 0)
(-0.235415 -0.0301864 0)
(-0.184825 -0.0304133 0)
(-0.135229 -0.0307429 0)
(-0.0866743 -0.0311939 -2.84677e-18)
(-0.0393702 -0.0316482 -3.27754e-18)
(0.00673558 -0.0313483 0)
(0.0521537 -0.0298502 0)
(0.0968946 -0.0279998 0)
(0.140817 -0.0262817 2.68468e-18)
(0.183827 -0.0247488 0)
(0.225906 -0.0233753 0)
(0.267074 -0.0221378 0)
(0.307365 -0.0210162 2.03987e-18)
(0.34681 -0.0199934 -1.93359e-18)
(0.385437 -0.0190552 0)
(0.423271 -0.0181901 0)
(0.460338 -0.0173889 -1.68684e-18)
(0.496662 -0.0166441 -1.62218e-18)
(0.532265 -0.0159497 0)
(0.567171 -0.0153003 0)
(0.601403 -0.0146919 1.4639e-18)
(0.634982 -0.0141207 -1.42042e-18)
(0.667931 -0.0135838 0)
(0.700273 -0.0130783 0)
(0.732032 -0.0126021 -1.31015e-18)
(0.763229 -0.0121529 0)
(0.793888 -0.0117292 0)
(0.824033 -0.0113293 -1.22264e-18)
(0.853685 -0.0109518 0)
(0.882868 -0.0105955 -1.17356e-18)
(0.911607 -0.0102592 0)
(0.939923 -0.00994179 0)
(0.96784 -0.00964226 0)
(0.99538 -0.00935953 1.09157e-18)
(1.02256 -0.00909248 0)
(1.04941 -0.00883986 0)
(1.07595 -0.00860021 0)
(1.10218 -0.00837174 0)
(1.12811 -0.00815221 0)
(1.15376 -0.00793869 0)
(1.17911 -0.00772732 9.82768e-19)
(1.20414 -0.00751295 9.69847e-19)
(1.22881 -0.00728859 0)
(1.25306 -0.0070447 0)
(1.27677 -0.00676777 0)
(1.29978 -0.00643919 -9.24501e-19)
(1.32186 -0.00602925 0)
(1.3426 -0.0054992 1.81389e-18)
(1.36154 -0.00476203 -1.80052e-18)
(1.37728 -0.00372628 -1.7918e-18)
(1.38987 -0.00195481 1.7901e-18)
(1.39029 0.001327 -1.79548e-18)
(1.38759 0.00807498 1.8088e-18)
(1.30832 0.0198886 0)
(0.0963186 -0.268992 0)
(0.334074 -0.68128 0)
(0.51418 -0.706527 1.57358e-19)
(0.611819 -0.571349 0)
(0.662816 -0.408899 -1.11138e-19)
(0.683255 -0.253826 -1.08104e-19)
(0.677229 -0.112174 -5.62546e-20)
(0.646855 0.0155847 -5.61998e-20)
(0.603878 0.125404 0)
(0.544682 0.211925 -6.08084e-20)
(0.467871 0.267403 0)
(0.373387 0.283205 0)
(0.257584 0.256436 1.70494e-19)
(0.110252 0.211437 9.82861e-20)
(-0.0747754 0.206285 -1.84465e-19)
(-0.301046 0.271834 -1.43798e-19)
(-0.579027 0.383409 -5.71901e-20)
(-0.904958 0.513245 0)
(-1.25855 0.642609 0)
(-1.61665 0.756437 0)
(-1.97227 0.841993 -2.85756e-20)
(-2.31786 0.89556 0)
(-2.64776 0.919045 6.90641e-20)
(-2.95447 0.915465 0)
(-3.23398 0.889029 0)
(-3.48461 0.844862 1.98199e-20)
(-3.70499 0.788296 0)
(-3.89593 0.724861 -1.97622e-20)
(-4.05932 0.658787 -4.17986e-20)
(-4.19871 0.592786 2.0169e-20)
(-4.317 0.52896 0)
(-4.4171 0.469093 0)
(-4.50171 0.414013 0)
(-4.57324 0.364074 -4.426e-20)
(-4.63376 0.319235 -4.47664e-20)
(-4.68494 0.279225 -2.21904e-20)
(-4.72817 0.243634 0)
(-4.76456 0.211978 4.53086e-20)
(-4.79499 0.183761 0)
(-4.8202 0.158501 -4.58803e-20)
(-4.84076 0.135758 0)
(-4.85717 0.115137 0)
(-4.86985 0.0962974 4.60907e-20)
(-4.87917 0.0789489 0)
(-4.88547 0.0628509 1.38173e-19)
(-4.88906 0.0478091 -4.56112e-20)
(-4.89024 0.033688 0)
(-4.88922 0.0204572 -4.49421e-20)
(-4.88629 0.00823297 -4.44854e-20)
(-4.8817 -0.00282271 0)
(-4.87456 -0.0127656 0)
(-4.86373 -0.0218916 0)
(-4.84922 -0.0304439 0)
(-4.83093 -0.038537 0)
(-4.80889 -0.0462406 4.02194e-20)
(-4.78315 -0.0535916 7.91693e-20)
(-4.75379 -0.0606111 -3.84421e-20)
(-4.7209 -0.0673104 0)
(-4.68457 -0.0736953 7.34909e-20)
(-4.64488 -0.0797684 -3.59691e-20)
(-4.60194 -0.0855303 0)
(-4.55585 -0.090981 -3.32691e-20)
(-4.50671 -0.0961202 0)
(-4.45464 -0.100949 0)
(-4.39974 -0.10547 -5.98963e-20)
(-4.34213 -0.109683 2.83876e-20)
(-4.28193 -0.113587 -5.47046e-20)
(-4.21926 -0.117186 5.19858e-20)
(-4.15425 -0.120484 2.42958e-20)
(-4.08702 -0.123486 0)
(-4.0177 -0.126195 2.13628e-20)
(-3.94642 -0.128618 0)
(-3.87331 -0.130762 0)
(-3.79848 -0.132634 0)
(-3.72208 -0.134242 1.56362e-20)
(-3.64423 -0.135594 0)
(-3.56505 -0.136701 2.37695e-20)
(-3.48466 -0.137571 -2.99785e-20)
(-3.4032 -0.138216 -7.94311e-21)
(-3.32077 -0.138645 0)
(-3.23749 -0.138869 -4.1424e-21)
(-3.15348 -0.138901 0)
(-3.06885 -0.138752 -2.93758e-22)
(-2.9837 -0.138435 0)
(-2.89812 -0.137963 8.11224e-21)
(-2.81223 -0.137347 -2.35667e-20)
(-2.7261 -0.136598 -1.69656e-20)
(-2.63984 -0.135725 0)
(-2.55355 -0.134735 0)
(-2.4673 -0.133637 0)
(-2.38119 -0.132432 3.61842e-20)
(-2.29533 -0.131111 0)
(-2.20986 -0.12964 -4.66567e-20)
(-2.12495 -0.127967 0)
(-2.0407 -0.126042 1.71883e-19)
(-1.95721 -0.123887 6.36335e-20)
(-1.87449 -0.121604 6.9665e-20)
(-1.79247 -0.119299 0)
(-1.71114 -0.117031 0)
(-1.63055 -0.114797 0)
(-1.55076 -0.112574 0)
(-1.47183 -0.11035 0)
(-1.3938 -0.108119 2.19498e-19)
(-1.3167 -0.105883 2.3499e-19)
(-1.24056 -0.103643 0)
(-1.1654 -0.101404 -1.34764e-19)
(-1.09126 -0.0991685 -1.43544e-19)
(-1.01816 -0.0969375 0)
(-0.946119 -0.0947134 -3.23044e-19)
(-0.875157 -0.0925006 0)
(-0.805266 -0.0903127 1.81328e-19)
(-0.736456 -0.0881552 0)
(-0.668738 -0.0860287 0)
(-0.602117 -0.0839354 -4.34461e-19)
(-0.536594 -0.0818767 0)
(-0.472171 -0.0798543 2.44838e-19)
(-0.408848 -0.0778711 0)
(-0.346623 -0.0759328 0)
(-0.28549 -0.0740483 2.89776e-19)
(-0.22544 -0.0722156 3.09081e-19)
(-0.166467 -0.0704293 0)
(-0.108565 -0.0686924 -3.46376e-19)
(-0.0517391 -0.0670051 0)
(0.00401387 -0.0653587 3.82644e-19)
(0.0587353 -0.0637464 7.66201e-19)
(0.112459 -0.0621795 0)
(0.165185 -0.0606727 0)
(0.216914 -0.0592306 0)
(0.26766 -0.0578508 0)
(0.317457 -0.0565356 7.09245e-19)
(0.366374 -0.0552739 2.09646e-18)
(0.414498 -0.0538954 0)
(0.461742 -0.05225 0)
(0.507964 -0.0504759 0)
(0.553236 -0.0487291 -6.65629e-19)
(0.597637 -0.0470614 0)
(0.641197 -0.0454813 0)
(0.683932 -0.0439861 1.28793e-18)
(0.725864 -0.0425695 6.36946e-19)
(0.767014 -0.041224 6.32421e-19)
(0.807403 -0.0399428 0)
(0.847054 -0.0387206 0)
(0.885986 -0.037553 6.15876e-19)
(0.924223 -0.0364362 -6.09639e-19)
(0.961784 -0.0353675 0)
(0.998691 -0.0343442 0)
(1.03497 -0.0333643 -5.9678e-19)
(1.07063 -0.032426 1.77636e-18)
(1.1057 -0.0315276 0)
(1.14021 -0.0306677 0)
(1.17417 -0.0298449 5.80313e-19)
(1.2076 -0.0290582 0)
(1.24053 -0.0283062 1.14492e-18)
(1.27298 -0.0275882 -5.68529e-19)
(1.30497 -0.026903 0)
(1.33653 -0.0262498 5.62417e-19)
(1.36767 -0.0256274 1.11755e-18)
(1.39842 -0.0250348 0)
(1.4288 -0.0244708 0)
(1.45882 -0.0239339 -5.49585e-19)
(1.48852 -0.0234222 0)
(1.5179 -0.0229337 1.08646e-18)
(1.54699 -0.0224653 0)
(1.57579 -0.0220133 0)
(1.60431 -0.0215727 0)
(1.63256 -0.0211368 0)
(1.66052 -0.0206967 -5.2901e-19)
(1.68819 -0.0202403 -5.26243e-19)
(1.71552 -0.0197513 0)
(1.74245 -0.019207 0)
(1.76889 -0.0185756 0)
(1.7947 -0.0178118 5.1615e-19)
(1.81968 -0.0168483 0)
(1.8435 -0.0155821 -1.02489e-18)
(1.86573 -0.0138362 1.02263e-18)
(1.88547 -0.0113261 1.02225e-18)
(1.90227 -0.00731093 1.02334e-18)
(1.91248 -0.000520045 1.0285e-18)
(1.92478 0.0124241 1.0204e-18)
(1.90522 0.036186 0)
(0.11644 -0.859724 0)
(0.269015 -1.05684 0)
(0.316106 -0.826012 -1.26329e-19)
(0.315413 -0.584238 -1.08168e-19)
(0.297982 -0.373772 1.00488e-19)
(0.266773 -0.188644 1.0067e-19)
(0.22059 -0.0231838 -6.44869e-22)
(0.158693 0.12456 0)
(0.0809557 0.255103 0)
(-0.0138588 0.366022 0)
(-0.129307 0.451733 0)
(-0.273455 0.512795 0)
(-0.459217 0.566622 -2.67331e-19)
(-0.697081 0.641359 0)
(-0.983308 0.753917 6.6276e-20)
(-1.30204 0.895885 5.71752e-20)
(-1.63533 1.04399 0)
(-1.96626 1.17801 0)
(-2.2796 1.28539 0)
(-2.56349 1.35909 0)
(-2.8126 1.39484 3.49041e-20)
(-3.02653 1.39239 0)
(-3.20667 1.35643 -3.23469e-20)
(-3.35587 1.29418 0)
(-3.47857 1.21298 0)
(-3.57939 1.11921 0)
(-3.66314 1.01897 -6.85888e-20)
(-3.73419 0.917575 0)
(-3.79605 0.819168 3.3118e-20)
(-3.85151 0.726544 -7.07024e-20)
(-3.90249 0.641215 0)
(-3.95028 0.563919 0)
(-3.99564 0.494706 0)
(-4.03893 0.433191 3.65652e-20)
(-4.08027 0.378727 3.71525e-20)
(-4.1196 0.330538 0)
(-4.1568 0.287832 0)
(-4.19169 0.249845 -7.78021e-20)
(-4.22408 0.215883 -7.8195e-20)
(-4.25382 0.185338 7.8428e-20)
(-4.28077 0.157689 0)
(-4.3048 0.132509 0)
(-4.32583 0.109447 0)
(-4.34379 0.0882218 0)
(-4.3586 0.0685978 -7.70116e-20)
(-4.37023 0.0503757 -7.69136e-20)
(-4.3786 0.0333712 7.62707e-20)
(-4.38356 0.0173834 0)
(-4.38496 0.002156 0)
(-4.38263 -0.0125975 0)
(-4.37651 -0.02701 0)
(-4.36666 -0.0409951 -7.1107e-20)
(-4.35314 -0.0544609 0)
(-4.33598 -0.0673959 0)
(-4.31523 -0.0798046 -6.69953e-20)
(-4.29093 -0.0916958 -6.49697e-20)
(-4.26315 -0.103077 0)
(-4.23197 -0.113951 1.24571e-19)
(-4.19745 -0.124322 -6.00317e-20)
(-4.15969 -0.134189 5.82551e-20)
(-4.11877 -0.14355 0)
(-4.07479 -0.152402 0)
(-4.02785 -0.160745 0)
(-3.97805 -0.168577 0)
(-3.9255 -0.175902 4.84235e-20)
(-3.87031 -0.18272 9.37779e-20)
(-3.81259 -0.189031 4.40581e-20)
(-3.75247 -0.194838 -4.1786e-20)
(-3.69006 -0.200148 0)
(-3.62548 -0.204967 7.54266e-20)
(-3.55886 -0.209303 7.05435e-20)
(-3.49033 -0.213165 6.5544e-20)
(-3.41999 -0.216563 -6.04287e-20)
(-3.34799 -0.219509 0)
(-3.27445 -0.222016 -7.41016e-20)
(-3.19949 -0.224096 0)
(-3.12323 -0.225765 2.00962e-20)
(-3.04579 -0.227037 1.58731e-20)
(-2.9673 -0.22793 0)
(-2.88787 -0.228459 0)
(-2.80762 -0.228642 1.53633e-20)
(-2.72666 -0.228496 0)
(-2.64509 -0.228041 2.92883e-21)
(-2.56304 -0.227294 0)
(-2.48059 -0.226274 9.99429e-21)
(-2.39786 -0.225001 3.47165e-20)
(-2.31494 -0.223495 0)
(-2.23193 -0.221776 0)
(-2.14892 -0.21986 0)
(-2.06602 -0.217765 4.45792e-20)
(-1.9833 -0.215507 0)
(-1.90089 -0.213097 5.94007e-20)
(-1.81886 -0.210538 0)
(-1.73731 -0.207813 0)
(-1.65631 -0.204897 -1.67048e-19)
(-1.5759 -0.201774 0)
(-1.49609 -0.198458 -9.93105e-20)
(-1.41689 -0.194992 0)
(-1.33833 -0.191434 -1.1659e-19)
(-1.26047 -0.187822 0)
(-1.18336 -0.184174 0)
(-1.10706 -0.180498 0)
(-1.03161 -0.1768 -4.62684e-19)
(-0.957043 -0.173086 -1.65041e-19)
(-0.883388 -0.169364 0)
(-0.810675 -0.165639 0)
(-0.738928 -0.161919 0)
(-0.668169 -0.158208 0)
(-0.598415 -0.15451 2.18836e-19)
(-0.529678 -0.150831 -4.58461e-19)
(-0.461964 -0.147181 -2.42669e-19)
(-0.395285 -0.143568 5.07652e-19)
(-0.329651 -0.139997 5.3345e-19)
(-0.265068 -0.136474 2.81374e-19)
(-0.201536 -0.133003 0)
(-0.139059 -0.129582 6.16216e-19)
(-0.0776372 -0.126215 0)
(-0.0172716 -0.122906 -6.73551e-19)
(0.0420436 -0.119655 -3.4516e-19)
(0.100322 -0.116464 0)
(0.15757 -0.113335 6.93127e-19)
(0.213793 -0.110272 3.48832e-19)
(0.269001 -0.107275 0)
(0.323206 -0.104334 3.48726e-19)
(0.376414 -0.101439 -1.05282e-18)
(0.428636 -0.0985971 0)
(0.479884 -0.0958205 0)
(0.530175 -0.0931114 0)
(0.579527 -0.0904705 0)
(0.627963 -0.0879024 -7.07751e-19)
(0.675517 -0.0854141 -7.10243e-19)
(0.722211 -0.0830207 0)
(0.768013 -0.0807093 0)
(0.812906 -0.0784407 0)
(0.856944 -0.0762138 0)
(0.900169 -0.0740448 0)
(0.942598 -0.0719422 0)
(0.984244 -0.0699088 -7.14016e-19)
(1.02512 -0.0679441 -1.0889e-21)
(1.06525 -0.0660468 0)
(1.10465 -0.0642146 0)
(1.14335 -0.0624458 -7.13848e-19)
(1.18135 -0.0607383 0)
(1.21868 -0.0590907 7.14896e-19)
(1.25536 -0.0575015 7.14035e-19)
(1.29142 -0.0559695 0)
(1.32686 -0.0544934 0)
(1.36172 -0.0530721 -7.14569e-19)
(1.39601 -0.0517046 -1.42734e-18)
(1.42976 -0.0503899 0)
(1.46298 -0.0491268 0)
(1.4957 -0.0479145 0)
(1.52793 -0.0467521 -7.13265e-19)
(1.5597 -0.0456386 7.12885e-19)
(1.59104 -0.044573 0)
(1.62196 -0.0435542 1.4229e-18)
(1.65248 -0.0425812 7.1043e-19)
(1.68262 -0.0416525 -1.42084e-18)
(1.71241 -0.0407665 0)
(1.74187 -0.0399211 0)
(1.77101 -0.0391139 -1.41704e-18)
(1.79985 -0.0383415 -7.08232e-19)
(1.82842 -0.0375995 0)
(1.85671 -0.0368823 0)
(1.88475 -0.0361823 0)
(1.91253 -0.0354893 0)
(1.94006 -0.0347899 -1.40691e-18)
(1.96732 -0.0340657 0)
(1.99427 -0.0332918 0)
(2.02088 -0.0324339 0)
(2.04706 -0.0314441 0)
(2.0727 -0.0302541 0)
(2.09763 -0.0287631 0)
(2.12159 -0.0268197 -1.39758e-18)
(2.14424 -0.0241721 0)
(2.16491 -0.0204152 0)
(2.18336 -0.0147567 -2.81638e-18)
(2.1968 -0.00587898 1.41821e-18)
(2.21149 0.0088754 -1.41633e-18)
(2.2064 0.0362544 1.41179e-18)
(0.0333185 -1.16608 0)
(0.0696785 -1.02976 3.59933e-19)
(0.0339237 -0.746802 0)
(-0.0105345 -0.506323 1.10878e-19)
(-0.0658712 -0.283602 0)
(-0.133738 -0.074012 0)
(-0.216985 0.122843 -8.2806e-20)
(-0.317986 0.306226 0)
(-0.438867 0.475697 0)
(-0.582232 0.631812 0)
(-0.751937 0.777108 0)
(-0.953193 0.917685 0)
(-1.18863 1.06166 2.04192e-19)
(-1.45266 1.21243 9.24343e-20)
(-1.7308 1.36375 -8.36865e-20)
(-2.0047 1.50228 0)
(-2.25862 1.61417 0)
(-2.4825 1.6901 0)
(-2.67157 1.72634 0)
(-2.82439 1.72415 0)
(-2.94354 1.68739 6.01625e-20)
(-3.03456 1.62131 5.88459e-20)
(-3.10356 1.53276 -5.7993e-20)
(-3.15686 1.42938 5.76916e-20)
(-3.19985 1.31788 0)
(-3.23688 1.20367 0)
(-3.27141 1.09111 5.58448e-20)
(-3.30579 0.983483 0)
(-3.34131 0.882905 0)
(-3.37847 0.790421 5.86992e-20)
(-3.41728 0.706271 6.15172e-20)
(-3.4574 0.630229 6.22289e-20)
(-3.49828 0.561765 0)
(-3.53932 0.500183 0)
(-3.5799 0.444721 -6.40391e-20)
(-3.61947 0.394625 0)
(-3.65752 0.349182 0)
(-3.69364 0.30775 6.4312e-20)
(-3.72749 0.269763 -6.60321e-20)
(-3.75879 0.234734 6.60426e-20)
(-3.78731 0.202248 0)
(-3.81288 0.171954 0)
(-3.83533 0.143556 1.30018e-19)
(-3.85454 0.116802 0)
(-3.87041 0.0914827 1.2863e-19)
(-3.88283 0.0674199 1.91042e-19)
(-3.89173 0.0444702 -1.894e-19)
(-3.89705 0.0225134 1.25332e-19)
(-3.89873 0.00143227 0)
(-3.89679 -0.018889 0)
(-3.89125 -0.0385287 1.19876e-19)
(-3.88217 -0.0575055 5.84071e-20)
(-3.86959 -0.0758156 0)
(-3.85353 -0.0934577 0)
(-3.83404 -0.110431 5.49009e-20)
(-3.81117 -0.126736 1.08252e-19)
(-3.78496 -0.14237 0)
(-3.75549 -0.15733 -1.01799e-19)
(-3.72282 -0.171613 9.99699e-20)
(-3.68703 -0.185214 -9.69981e-20)
(-3.6482 -0.198129 0)
(-3.60642 -0.210351 0)
(-3.56178 -0.221876 0)
(-3.51438 -0.232701 0)
(-3.46432 -0.242831 0)
(-3.41171 -0.252265 -7.5925e-20)
(-3.35666 -0.261002 0)
(-3.29928 -0.269048 0)
(-3.23969 -0.27641 0)
(-3.17799 -0.283097 -1.22626e-19)
(-3.11432 -0.289118 -5.67055e-20)
(-3.04878 -0.294486 -5.26043e-20)
(-2.98151 -0.299215 9.80435e-20)
(-2.91262 -0.30332 -4.53642e-20)
(-2.84223 -0.306819 3.98123e-20)
(-2.77046 -0.30973 0)
(-2.69743 -0.312073 -3.08896e-20)
(-2.62326 -0.313869 0)
(-2.54807 -0.315138 0)
(-2.47196 -0.315905 0)
(-2.39505 -0.316191 -2.54928e-20)
(-2.31746 -0.316021 8.4865e-21)
(-2.23929 -0.315419 4.76895e-21)
(-2.16064 -0.31441 -2.97941e-21)
(-2.08161 -0.313017 -2.10034e-20)