/*--------------------------------*- C++ -*----------------------------------*\
| =========                 |                                                 |
| \\      /  F ield         | OpenFOAM: The Open Source CFD Toolbox           |
|  \\    /   O peration     | Version:  v2012                                 |
|   \\  /    A nd           | Website:  www.openfoam.com                      |
|    \\/     M anipulation  |                                                 |
\*---------------------------------------------------------------------------*/
FoamFile
{
    version     2.0;
    format      ascii;
    class       volScalarField;
    location    "200";
    object      nut;
}
// * * * * * * * * * * * * * * * * * * * * * * * * * * * * * * * * * * * * * //

dimensions      [0 2 -1 0 0 0 0];


internalField   nonuniform List<scalar> 
12225
(
2.68176e-05
3.54259e-05
4.03683e-05
4.29509e-05
4.41503e-05
4.45572e-05
4.4546e-05
4.43066e-05
4.40221e-05
4.36539e-05
4.32974e-05
4.29579e-05
4.26545e-05
4.23695e-05
4.21338e-05
4.18975e-05
4.1738e-05
4.15172e-05
0.000212632
8.33006e-05
5.47248e-05
4.31729e-05
3.76064e-05
3.4717e-05
3.32712e-05
3.25593e-05
3.23583e-05
3.24533e-05
3.27934e-05
3.32591e-05
3.38757e-05
3.45306e-05
3.52955e-05
3.60451e-05
3.6867e-05
3.76989e-05
0.000672646
0.00031089
0.000195693
0.000143034
0.000113839
9.49279e-05
8.23675e-05
7.35844e-05
6.70082e-05
6.21395e-05
5.81745e-05
5.52221e-05
5.26147e-05
5.07717e-05
4.89376e-05
4.78632e-05
4.64017e-05
4.56063e-05
0.000875612
0.000622534
0.000467556
0.00036344
0.000300137
0.000255945
0.000225159
0.000202074
0.000184906
0.000171066
0.000160341
0.000151184
0.000143904
0.000137376
0.000132138
0.00012733
0.000123091
0.000119015
0.0008811
0.000787923
0.000712947
0.000617711
0.000543902
0.000484069
0.000438393
0.000401106
0.000372391
0.000347823
0.000328787
0.000311528
0.000298386
0.000285559
0.000276234
0.000266237
0.000259505
0.000251284
0.000864177
0.000837726
0.000818739
0.000774966
0.000728393
0.000681685
0.000640651
0.000603037
0.00057179
0.000543071
0.000519904
0.000497814
0.000480669
0.000463198
0.000450563
0.000436256
0.000427052
0.00041455
0.000854472
0.000852062
0.000844944
0.000833278
0.000817238
0.000794242
0.000770902
0.000746204
0.000723515
0.000700679
0.000681009
0.000661095
0.00064488
0.000627726
0.000614792
0.000599839
0.000589924
0.000576376
0.000852234
0.000852216
0.000850458
0.000847136
0.000840843
0.000831975
0.000821453
0.000808212
0.000794783
0.00078026
0.000766952
0.000752688
0.000740458
0.000727133
0.000716496
0.000704226
0.000695408
0.000683803
0.000851801
0.000851652
0.000851177
0.00085028
0.000848411
0.000845176
0.000840909
0.000835271
0.00082831
0.000820923
0.000813229
0.00080461
0.000796734
0.000787899
0.000780362
0.000771803
0.000764796
0.000756439
0.00085177
0.000851406
0.000851079
0.00085069
0.000850163
0.000849194
0.000847827
0.000845876
0.000843379
0.000840175
0.000836845
0.000832726
0.000828787
0.000824115
0.000819909
0.000814982
0.00081084
0.000805514
0.000851783
0.000851364
0.000851007
0.000850643
0.000850326
0.000849913
0.000849462
0.000848797
0.000848052
0.000846947
0.000845808
0.000844254
0.000842745
0.000840787
0.000839025
0.000836721
0.000834879
0.000832246
0.000851785
0.000851365
0.00085099
0.000850615
0.000850291
0.000849949
0.000849651
0.000849296
0.000848975
0.000848544
0.00084814
0.000847588
0.000847073
0.000846372
0.000845749
0.000844896
0.00084419
0.000843196
0.000851783
0.000851365
0.000850982
0.000850608
0.000850268
0.000849932
0.00084963
0.000849323
0.000849049
0.000848758
0.000848495
0.000848202
0.000847936
0.000847627
0.000847345
0.00084701
0.000846708
0.000846343
0.000851781
0.000851365
0.000850975
0.000850602
0.000850254
0.000849919
0.000849607
0.000849305
0.000849024
0.00084875
0.000848495
0.000848244
0.000848009
0.000847775
0.000847555
0.000847334
0.000847123
0.000846911
0.00085178
0.000851364
0.00085097
0.000850597
0.000850244
0.000849908
0.000849591
0.000849288
0.000849001
0.000848727
0.000848467
0.000848218
0.000847981
0.000847754
0.000847537
0.000847329
0.000847129
0.000846937
0.000851779
0.000851363
0.000850967
0.000850592
0.000850237
0.0008499
0.00084958
0.000849275
0.000848985
0.000848709
0.000848446
0.000848195
0.000847955
0.000847725
0.000847506
0.000847296
0.000847095
0.000846902
0.000851779
0.000851362
0.000850966
0.00085059
0.000850233
0.000849894
0.000849572
0.000849266
0.000848975
0.000848697
0.000848431
0.000848178
0.000847936
0.000847705
0.000847484
0.000847272
0.000847069
0.000846875
0.000851779
0.000851362
0.000850965
0.000850589
0.000850231
0.000849892
0.000849569
0.000849262
0.000848969
0.00084869
0.000848424
0.00084817
0.000847927
0.000847694
0.000847472
0.000847259
0.000847055
0.00084686
0.000851779
0.000851362
0.000850966
0.000850589
0.000850232
0.000849893
0.00084957
0.000849263
0.00084897
0.000848691
0.000848424
0.000848169
0.000847926
0.000847693
0.00084747
0.000847257
0.000847052
0.000846856
0.000851779
0.000851363
0.000850967
0.000850591
0.000850234
0.000849896
0.000849573
0.000849267
0.000848974
0.000848695
0.000848428
0.000848173
0.000847928
0.000847694
0.000847467
0.000847251
0.00084704
0.000846839
0.000851779
0.000851364
0.000850968
0.000850595
0.000850238
0.000849902
0.000849578
0.000849273
0.000848975
0.000848693
0.000848412
0.000848145
0.000847874
0.000847614
0.000847346
0.000847089
0.000846819
0.000846562
0.000851778
0.000851367
0.000850969
0.000850603
0.000850243
0.000849906
0.000849561
0.000849225
0.00084886
0.000848491
0.000848073
0.000847645
0.000847152
0.000846654
0.000846075
0.00084551
0.000844848
0.000844229
0.000851779
0.000851383
0.000850973
0.000850623
0.00085019
0.000849725
0.000849095
0.00084836
0.000847395
0.000846288
0.000844933
0.000843452
0.000841734
0.000839945
0.000837916
0.000835942
0.000833673
0.000831611
0.000851859
0.000851472
0.000850928
0.000850331
0.000848934
0.000847062
0.000844298
0.000840954
0.000836726
0.000832089
0.000826798
0.000821335
0.00081545
0.000809498
0.000803501
0.000797605
0.000791424
0.000785945
0.000852723
0.000851367
0.000849164
0.000844914
0.000836674
0.000827525
0.000815446
0.000802431
0.000788031
0.000773947
0.000759304
0.00074561
0.000731716
0.000719124
0.000706323
0.000695144
0.000683496
0.000673814
0.000857406
0.000843081
0.000830282
0.000805602
0.000773705
0.000741356
0.000708131
0.000677892
0.000648529
0.000622942
0.000598379
0.00057746
0.000557211
0.00054028
0.000523541
0.000509904
0.000495892
0.000484926
0.000862011
0.000792012
0.000724541
0.000644839
0.000578109
0.000523921
0.000477042
0.000439732
0.00040699
0.000381071
0.000357504
0.000339007
0.000321483
0.00030794
0.0002945
0.000284326
0.000273692
0.000265913
0.000782217
0.000562152
0.000424453
0.00033836
0.000281908
0.000241063
0.00020998
0.000187112
0.000168521
0.000154552
0.000142472
0.000133376
0.000125016
0.000118799
0.000112718
0.00010831
0.000103706
0.000100473
0.000343384
0.000180406
0.000124381
9.6597e-05
7.95268e-05
6.85217e-05
6.11084e-05
5.61034e-05
5.25363e-05
5.00691e-05
4.82442e-05
4.70089e-05
4.60724e-05
4.55026e-05
4.50587e-05
4.48714e-05
4.4712e-05
4.47627e-05
3.41129e-05
4.01585e-05
4.47621e-05
4.78932e-05
5.04606e-05
5.25069e-05
5.40895e-05
5.52767e-05
5.61323e-05
5.67235e-05
5.71008e-05
5.73181e-05
5.74057e-05
5.74016e-05
5.73095e-05
5.72185e-05
5.70571e-05
5.68749e-05
3.89649e-06
1.06835e-05
1.2674e-05
1.41738e-05
1.52784e-05
1.60918e-05
1.67329e-05
1.72976e-05
1.77942e-05
1.82525e-05
1.86995e-05
1.91584e-05
1.96566e-05
2.02412e-05
2.09292e-05
2.16792e-05
2.24609e-05
2.32667e-05
2.4096e-05
2.49523e-05
2.58367e-05
2.67512e-05
2.76943e-05
2.86655e-05
2.96621e-05
3.06838e-05
3.17328e-05
3.27948e-05
3.38645e-05
3.49395e-05
3.60169e-05
3.7096e-05
3.81746e-05
3.92529e-05
4.03289e-05
4.14034e-05
4.24748e-05
4.35455e-05
4.46178e-05
4.56969e-05
4.67875e-05
4.79154e-05
4.90246e-05
5.01381e-05
5.12466e-05
5.2355e-05
5.34611e-05
5.4567e-05
5.56713e-05
5.67757e-05
5.78788e-05
5.89822e-05
6.00845e-05
6.11872e-05
6.22887e-05
6.33906e-05
6.44913e-05
6.55921e-05
6.66913e-05
6.77903e-05
6.88872e-05
6.99833e-05
7.10768e-05
7.21689e-05
7.32577e-05
7.43443e-05
7.54268e-05
7.65064e-05
7.7581e-05
7.86518e-05
7.97166e-05
8.07766e-05
8.18296e-05
8.28767e-05
8.39157e-05
8.49477e-05
8.59705e-05
8.69852e-05
8.79895e-05
8.89846e-05
8.9968e-05
9.0941e-05
9.19011e-05
9.28494e-05
9.37835e-05
9.47042e-05
9.56092e-05
9.64992e-05
9.7372e-05
9.82277e-05
9.90646e-05
9.98814e-05
0.000100677
0.000101449
0.000102196
0.000102918
0.000103612
0.000104282
0.000104942
0.000105572
0.000106181
0.000106765
0.000107324
0.000107858
0.000108366
0.000108847
0.0001093
0.000109725
0.00011012
0.000110486
0.000110821
0.000111124
0.000111396
0.000111634
0.000111839
0.000112009
0.000112145
0.000112245
0.000112309
0.000112336
0.000112325
0.000112269
0.000112188
0.000112089
0.000111926
0.000111718
0.000111473
0.000111214
0.000110913
0.000110568
0.000110188
0.000109773
0.000109323
0.00010884
0.000108324
0.000107778
0.000107202
0.000106596
0.000105961
0.000105302
0.00010462
0.000103915
0.00010319
0.000102447
0.000101689
0.000100918
0.000100134
9.93436e-05
9.85528e-05
9.77653e-05
9.69763e-05
9.61913e-05
9.54171e-05
9.46442e-05
9.38801e-05
9.31271e-05
9.23957e-05
9.16919e-05
9.10369e-05
9.04134e-05
8.97926e-05
8.91944e-05
8.86065e-05
8.80779e-05
8.75985e-05
8.7156e-05
8.67513e-05
8.6388e-05
8.60635e-05
8.5789e-05
8.55969e-05
8.57598e-05
8.57951e-05
8.58159e-05
8.58688e-05
8.59791e-05
8.61409e-05
8.62367e-05
8.61675e-05
8.5131e-05
6.14259e-06
2.98203e-05
6.35319e-05
8.95327e-05
0.000106894
0.000117834
0.000124244
0.000127933
0.000130588
0.000133019
0.00013551
0.000138062
0.000140555
0.000142857
0.000144984
0.000147053
0.000149141
0.000151307
0.000153605
0.000156089
0.000158806
0.000161796
0.000165085
0.00016869
0.000172617
0.000176866
0.000181441
0.000186354
0.000191576
0.000197052
0.000202762
0.00020869
0.000214854
0.000221258
0.000227883
0.000234715
0.000241722
0.000248814
0.000255967
0.000263165
0.000270405
0.000277706
0.000285075
0.000292507
0.000300007
0.000307578
0.000315222
0.00032294
0.000330736
0.000338611
0.000346568
0.000354608
0.000362736
0.000370953
0.000379262
0.000387664
0.000396164
0.000404761
0.00041346
0.000422259
0.000431162
0.000440168
0.000449279
0.000458493
0.000467812
0.000477235
0.000486762
0.000496391
0.000506122
0.000515953
0.000525884
0.00053591
0.000546031
0.000556244
0.000566546
0.000576933
0.000587403
0.000597952
0.000608578
0.000619275
0.000630041
0.000640871
0.000651764
0.000662712
0.000673715
0.000684767
0.000695864
0.000707003
0.00071818
0.000729392
0.000740633
0.000751893
0.000763153
0.000774382
0.000785526
0.000796488
0.000807109
0.000817154
0.000826626
0.000836059
0.000845374
0.000854575
0.000863653
0.000872597
0.000881395
0.000890036
0.000898505
0.00090679
0.000914877
0.000922752
0.000930399
0.000937804
0.000944952
0.000951826
0.000958412
0.000964694
0.000970657
0.000976284
0.000981561
0.000986473
0.000991009
0.00099517
0.000999015
0.00100253
0.00100563
0.00100798
0.00100979
0.00101161
0.00101307
0.00101395
0.00101441
0.00101445
0.00101408
0.00101329
0.00101212
0.00101055
0.00100861
0.00100632
0.00100368
0.00100073
0.000997455
0.000993891
0.000990054
0.000985962
0.000981643
0.000977112
0.000972396
0.000967529
0.000962558
0.00095751
0.000952412
0.000947331
0.000942283
0.000937278
0.000932324
0.000927477
0.000922738
0.000918176
0.000913945
0.000909935
0.000906267
0.000902865
0.000899632
0.000896695
0.00089419
0.000892145
0.000890505
0.000889168
0.000888248
0.000887679
0.000887285
0.000886147
0.000883609
0.000880764
0.000877662
0.000874165
0.000870676
0.000866061
0.000858524
0.000836954
7.65588e-06
4.73535e-05
0.000101185
0.000145922
0.000179457
0.000203642
0.000220735
0.000232791
0.000241588
0.000248442
0.000254217
0.000259425
0.000264349
0.000269154
0.000273971
0.000278918
0.000284087
0.000289556
0.000295388
0.000301644
0.000308376
0.000315622
0.000323409
0.000331747
0.000340627
0.000350024
0.000359883
0.000370349
0.000381482
0.000393383
0.000405739
0.000418466
0.000431531
0.000444903
0.000458544
0.000472418
0.000486489
0.000500728
0.000515123
0.000529666
0.000544356
0.000559196
0.000574185
0.000589309
0.000604557
0.00061995
0.000635495
0.000651194
0.000667051
0.000683069
0.000699253
0.000715604
0.000732129
0.000748828
0.000765708
0.00078277
0.000800018
0.000817454
0.000835079
0.000852894
0.000870899
0.000889094
0.000907478
0.00092605
0.000944808
0.000963749
0.000982871
0.00100217
0.00102164
0.00104128
0.00106109
0.00108105
0.00110116
0.00112142
0.00114181
0.00116234
0.00118299
0.00120375
0.00122463
0.00124559
0.00126665
0.00128779
0.001309
0.00133027
0.00135159
0.00137295
0.00139434
0.00141575
0.00143715
0.00145855
0.0014799
0.0015012
0.00152239
0.00154343
0.00156424
0.00158474
0.00160483
0.00162445
0.00164371
0.00166279
0.00168164
0.00170026
0.00171861
0.00173667
0.00175443
0.00177186
0.00178893
0.00180562
0.0018219
0.00183775
0.00185312
0.001868
0.00188235
0.00189614
0.00190935
0.00192194
0.00193389
0.00194515
0.00195571
0.00196555
0.00197463
0.00198296
0.00199053
0.00199732
0.00200354
0.00200866
0.00201232
0.00201562
0.0020184
0.00202011
0.00202095
0.00202091
0.00202004
0.00201832
0.0020158
0.00201248
0.0020084
0.00200357
0.00199804
0.00199184
0.001985
0.00197755
0.00196953
0.001961
0.00195199
0.00194255
0.00193274
0.00192262
0.00191225
0.00190171
0.00189107
0.0018804
0.00186977
0.00185922
0.00184879
0.00183857
0.00182858
0.00181892
0.00180974
0.001801
0.00179283
0.00178519
0.00177803
0.00177143
0.00176551
0.00176032
0.00175575
0.00175179
0.00174861
0.00174598
0.00174356
0.00174023
0.00173579
0.00173111
0.00172589
0.00171995
0.00171356
0.00170514
0.00169148
0.0016558
8.6752e-06
6.3839e-05
0.000133534
0.000191449
0.00023627
0.00026973
0.000294422
0.000312692
0.000326507
0.000337425
0.000346602
0.000354848
0.000362706
0.000370528
0.000378545
0.000386912
0.000395739
0.000405104
0.00041507
0.000425687
0.000436993
0.000449017
0.000461778
0.000475286
0.000489546
0.000504567
0.000520378
0.000536812
0.000553744
0.000571007
0.00058869
0.000606795
0.000625289
0.000644136
0.000663295
0.00068273
0.000702397
0.000722274
0.000742385
0.00076273
0.000783313
0.000804146
0.000825251
0.000846677
0.000868305
0.000890142
0.000912192
0.000934459
0.000956948
0.000979662
0.00100261
0.00102578
0.0010492
0.00107285
0.00109675
0.0011209
0.00114529
0.00116995
0.00119486
0.00122002
0.00124544
0.00127111
0.00129703
0.00132319
0.0013496
0.00137625
0.00140312
0.00143023
0.00145755
0.00148508
0.00151282
0.00154074
0.00156885
0.00159714
0.00162558
0.00165418
0.00168292
0.00171178
0.00174075
0.00176982
0.00179898
0.00182821
0.0018575
0.00188683
0.00191618
0.00194554
0.00197489
0.00200421
0.00203347
0.00206265
0.00209173
0.00212065
0.0021494
0.0021779
0.00220611
0.00223396
0.0022614
0.00228844
0.00231515
0.00234156
0.00236767
0.00239343
0.00241883
0.00244382
0.0024684
0.00249251
0.00251614
0.00253924
0.00256178
0.00258373
0.00260504
0.00262568
0.00264561
0.00266479
0.00268317
0.00270073
0.00271741
0.00273319
0.00274801
0.00276186
0.00277469
0.00278649
0.00279723
0.00280686
0.00281562
0.00282339
0.00282914
0.00283389
0.00283798
0.00284073
0.00284224
0.00284255
0.00284166
0.00283961
0.0028364
0.00283207
0.00282664
0.00282017
0.00281268
0.00280421
0.00279483
0.00278457
0.00277349
0.00276165
0.00274912
0.00273596
0.00272225
0.00270808
0.00269353
0.0026787
0.00266368
0.00264857
0.00263346
0.00261843
0.00260355
0.00258892
0.00257462
0.00256074
0.00254742
0.00253468
0.00252264
0.00251131
0.0025007
0.00249089
0.00248195
0.00247391
0.00246671
0.00246038
0.00245486
0.00245004
0.00244545
0.00244086
0.00243574
0.00243002
0.00242403
0.00241804
0.00241118
0.00240134
0.00238547
0.00234892
9.39927e-06
7.79767e-05
0.000161476
0.00023056
0.000284937
0.000326463
0.000357943
0.000381947
0.000400622
0.0004157
0.000428525
0.000440094
0.000451117
0.000462079
0.000473301
0.000484993
0.000497289
0.000510279
0.000524018
0.000538545
0.000553883
0.00057004
0.000587016
0.000604798
0.000623362
0.000642675
0.000662686
0.000683316
0.000704489
0.000726149
0.000748282
0.000770867
0.000793872
0.000817269
0.000841031
0.00086514
0.000889588
0.000914365
0.000939432
0.000964772
0.000990377
0.00101624
0.00104234
0.00106865
0.00109519
0.001122
0.00114907
0.00117641
0.00120403
0.00123193
0.00126011
0.00128858
0.00131733
0.00134636
0.00137568
0.00140529
0.0014352
0.00146541
0.00149592
0.00152673
0.00155784
0.00158924
0.00162092
0.00165288
0.00168512
0.00171763
0.00175039
0.0017834
0.00181665
0.00185013
0.00188383
0.00191772
0.00195181
0.00198607
0.0020205
0.00205507
0.00208977
0.00212458
0.00215949
0.00219448
0.00222954
0.00226463
0.00229975
0.00233488
0.00236999
0.00240506
0.00244008
0.002475
0.00250982
0.00254449
0.002579
0.0026133
0.00264736
0.00268115
0.00271462
0.00274774
0.00278051
0.00281292
0.00284497
0.00287667
0.00290799
0.00293891
0.00296939
0.00299941
0.00302892
0.00305791
0.00308631
0.00311412
0.00314127
0.00316774
0.00319348
0.00321844
0.00324259
0.00326587
0.00328825
0.00330968
0.0033301
0.00334947
0.00336776
0.00338491
0.00340088
0.00341565
0.00342917
0.00344139
0.00345244
0.00346254
0.00347064
0.00347707
0.00348266
0.00348675
0.00348937
0.00349053
0.00349025
0.00348853
0.00348541
0.00348092
0.00347508
0.00346793
0.00345953
0.00344992
0.00343915
0.00342728
0.00341438
0.00340051
0.00338576
0.00337021
0.00335394
0.00333707
0.00331968
0.0033019
0.00328383
0.00326558
0.00324726
0.00322898
0.00321085
0.00319296
0.00317543
0.00315837
0.0031419
0.00312609
0.00311104
0.00309681
0.00308347
0.00307108
0.0030597
0.00304937
0.00304007
0.00303179
0.00302448
0.00301803
0.00301208
0.00300645
0.00300073
0.00299471
0.00298875
0.00298266
0.00297584
0.00296659
0.00295121
0.00291911
9.94441e-06
8.99978e-05
0.000185151
0.000264231
0.000327152
0.000376237
0.000414257
0.000443924
0.000467512
0.000486883
0.000503513
0.000518532
0.000532774
0.000546829
0.000561103
0.000575861
0.000591272
0.000607442
0.000624429
0.000642267
0.000660964
0.000680517
0.000700909
0.000722113
0.000744093
0.000766804
0.000790195
0.00081421
0.000838798
0.000863917
0.000889537
0.000915627
0.00094216
0.000969107
0.000996445
0.00102415
0.00105222
0.00108061
0.00110933
0.00113834
0.00116765
0.00119724
0.0012271
0.00125724
0.00128767
0.00131838
0.0013494
0.00138071
0.00141234
0.00144427
0.00147651
0.00150907
0.00154195
0.00157516
0.0016087
0.00164256
0.00167675
0.00171124
0.00174605
0.00178117
0.00181659
0.0018523
0.00188831
0.0019246
0.00196116
0.00199798
0.00203506
0.00207238
0.00210993
0.0021477
0.00218567
0.00222383
0.00226216
0.00230065
0.00233928
0.00237803
0.00241689
0.00245584
0.00249486
0.00253394
0.00257304
0.00261216
0.00265127
0.00269035
0.00272938
0.00276834
0.0028072
0.00284594
0.00288453
0.00292296
0.00296118
0.00299917
0.00303691
0.00307436
0.00311151
0.00314833
0.00318481
0.00322093
0.00325668
0.00329205
0.00332701
0.00336153
0.00339559
0.00342915
0.00346218
0.00349465
0.00352651
0.00355773
0.00358828
0.0036181
0.00364716
0.00367541
0.0037028
0.0037293
0.00375484
0.00377937
0.00380286
0.00382523
0.00384646
0.00386647
0.00388524
0.00390271
0.00391883
0.00393357
0.0039469
0.00395921
0.00396979
0.00397836
0.00398564
0.00399146
0.00399564
0.00399818
0.00399908
0.00399836
0.00399604
0.00399214
0.0039867
0.00397975
0.00397134
0.00396152
0.00395035
0.00393788
0.00392419
0.00390935
0.00389344
0.00387657
0.00385882
0.0038403
0.00382114
0.00380145
0.00378134
0.00376096
0.0037404
0.00371981
0.0036993
0.00367899
0.00365901
0.00363948
0.00362051
0.00360223
0.00358472
0.00356809
0.00355241
0.00353777
0.00352423
0.00351183
0.00350058
0.00349049
0.00348152
0.00347357
0.00346647
0.00345998
0.00345384
0.00344786
0.00344214
0.00343652
0.00343054
0.00342287
0.00341031
0.0033844
1.06181e-05
9.75861e-05
0.000202888
0.000291623
0.000362872
0.000419447
0.000464013
0.000499411
0.000528025
0.00055182
0.00057237
0.000590909
0.000608367
0.000625425
0.00064256
0.000660098
0.000678249
0.000697142
0.000716851
0.000737412
0.000758832
0.000781103
0.000804202
0.000828098
0.000852753
0.000878122
0.000904161
0.000930822
0.000958064
0.00098585
0.00101414
0.00104292
0.00107214
0.00110179
0.00113185
0.00116228
0.00119308
0.00122422
0.00125569
0.00128749
0.00131959
0.001352
0.00138471
0.00141773
0.00145105
0.00148468
0.00151862
0.00155288
0.00158747
0.00162237
0.0016576
0.00169315
0.00172904
0.00176525
0.00180179
0.00183865
0.00187584
0.00191333
0.00195114
0.00198926
0.00202767
0.00206637
0.00210536
0.00214462
0.00218414
0.00222392
0.00226394
0.00230419
0.00234466
0.00238533
0.00242619
0.00246722
0.0025084
0.00254973
0.00259118
0.00263274
0.00267438
0.00271609
0.00275785
0.00279965
0.00284145
0.00288325
0.00292501
0.00296673
0.00300838
0.00304993
0.00309136
0.00313266
0.0031738
0.00321475
0.00325549
0.003296
0.00333625
0.00337623
0.0034159
0.00345526
0.00349429
0.00353296
0.00357126
0.00360918
0.00364669
0.00368376
0.00372037
0.00375648
0.00379207
0.0038271
0.00386153
0.00389534
0.00392848
0.00396091
0.00399258
0.00402347
0.00405351
0.00408265
0.00411086
0.00413807
0.00416423
0.00418928
0.00421318
0.00423585
0.00425726
0.00427735
0.00429606
0.00431333
0.00432913
0.00434376
0.00435681
0.0043679
0.00437724
0.00438516
0.00439133
0.00439573
0.00439834
0.00439916
0.00439823
0.00439555
0.00439116
0.0043851
0.00437739
0.0043681
0.00435727
0.00434497
0.00433126
0.00431622
0.00429994
0.00428251
0.00426405
0.00424465
0.00422445
0.00420356
0.00418212
0.00416026
0.0041381
0.00411578
0.00409344
0.00407122
0.00404923
0.00402763
0.00400654
0.00398608
0.00396638
0.00394753
0.00392965
0.00391284
0.00389716
0.00388269
0.00386945
0.00385746
0.00384673
0.00383719
0.00382873
0.00382121
0.00381444
0.00380825
0.00380266
0.00379754
0.00379256
0.0037867
0.00377741
0.00375879
1.13764e-05
0.000101657
0.000215284
0.000313019
0.000392286
0.000456228
0.000507309
0.000548466
0.00058217
0.000610463
0.000634998
0.000657084
0.000677727
0.000697683
0.000717497
0.000737549
0.000758097
0.000779302
0.000801261
0.000824021
0.000847601
0.000871996
0.000897185
0.000923141
0.000949829
0.00097721
0.00100524
0.00103389
0.0010631
0.00109286
0.00112312
0.00115386
0.00118505
0.00121666
0.00124868
0.00128108
0.00131385
0.00134697
0.00138043
0.00141421
0.0014483
0.00148271
0.00151743
0.00155245
0.00158779
0.00162344
0.00165941
0.00169569
0.0017323
0.00176922
0.00180646
0.00184402
0.00188191
0.00192011
0.00195862
0.00199745
0.00203659
0.00207603
0.00211577
0.0021558
0.00219611
0.00223671
0.00227757
0.00231869
0.00236006
0.00240167
0.0024435
0.00248555
0.00252781
0.00257025
0.00261287
0.00265564
0.00269856
0.00274161
0.00278477
0.00282802
0.00287135
0.00291474
0.00295816
0.00300162
0.00304507
0.00308851
0.00313191
0.00317526
0.00321853
0.00326171
0.00330477
0.0033477
0.00339046
0.00343305
0.00347544
0.0035176
0.00355953
0.0036012
0.00364258
0.00368368
0.00372446
0.00376491
0.00380501
0.00384474
0.00388408
0.00392301
0.0039615
0.00399953
0.00403706
0.00407407
0.00411053
0.00414639
0.00418164
0.00421621
0.00425009
0.00428321
0.00431555
0.00434704
0.00437763
0.00440728
0.00443593
0.00446351
0.00448997
0.00451525
0.00453928
0.00456201
0.00458338
0.00460331
0.00462175
0.00463892
0.00465456
0.00466839
0.00468024
0.00469062
0.00469917
0.00470585
0.00471062
0.00471346
0.00471441
0.00471347
0.00471067
0.00470604
0.0046996
0.0046914
0.00468149
0.00466993
0.00465677
0.00464211
0.00462602
0.0046086
0.00458996
0.0045702
0.00454946
0.00452785
0.00450552
0.00448259
0.00445921
0.00443551
0.00441165
0.00438777
0.004364
0.0043405
0.00431741
0.00429486
0.00427298
0.00425192
0.00423179
0.00421269
0.00419474
0.00417801
0.00416258
0.00414848
0.00413575
0.00412437
0.0041143
0.00410546
0.00409774
0.00409104
0.00408534
0.00408057
0.00407652
0.00407241
0.0040663
0.00405427
1.20318e-05
0.000103921
0.000223878
0.00032936
0.00041595
0.000486838
0.000544213
0.000591017
0.000629762
0.000662536
0.000691043
0.000716645
0.000740408
0.000763145
0.000785461
0.000807788
0.000830429
0.000853584
0.000877377
0.000901881
0.000927126
0.00095312
0.000979851
0.0010073
0.00103544
0.00106425
0.00109369
0.00112371
0.00115428
0.00118538
0.00121696
0.00124901
0.0012815
0.0013144
0.0013477
0.00138138
0.00141542
0.00144981
0.00148453
0.00151956
0.0015549
0.00159054
0.00162648
0.00166271
0.00169925
0.00173609
0.00177323
0.00181067
0.00184842
0.00188647
0.00192482
0.00196348
0.00200244
0.0020417
0.00208126
0.00212111
0.00216126
0.00220168
0.00224239
0.00228337
0.00232462
0.00236613
0.0024079
0.00244992
0.00249217
0.00253465
0.00257735
0.00262025
0.00266335
0.00270664
0.00275009
0.00279371
0.00283747
0.00288135
0.00292535
0.00296945
0.00301363
0.00305788
0.00310217
0.0031465
0.00319084
0.00323518
0.00327949
0.00332377
0.00336798
0.00341212
0.00345616
0.00350008
0.00354386
0.00358749
0.00363094
0.00367421
0.00371726
0.00376008
0.00380266
0.00384497
0.003887
0.00392873
0.00397015
0.00401124
0.00405198
0.00409234
0.00413231
0.00417186
0.00421097
0.00424961
0.00428775
0.00432536
0.00436242
0.00439887
0.0044347
0.00446985
0.00450428
0.00453794
0.00457079
0.00460277
0.00463382
0.00466388
0.00469289
0.00472078
0.00474748
0.00477294
0.00479707
0.00481981
0.00484109
0.00486104
0.00487946
0.00489616
0.00491098
0.00492412
0.00493542
0.00494478
0.0049521
0.00495737
0.00496062
0.00496186
0.0049611
0.00495835
0.00495363
0.00494699
0.00493846
0.00492809
0.00491594
0.00490209
0.00488662
0.00486962
0.00485119
0.00483144
0.00481051
0.0047885
0.00476557
0.00474184
0.00471746
0.00469258
0.00466735
0.00464193
0.00461645
0.00459109
0.00456599
0.00454131
0.00451718
0.00449377
0.00447122
0.00444965
0.00442918
0.00440995
0.00439203
0.00437552
0.00436048
0.00434695
0.00433495
0.00432446
0.00431544
0.00430788
0.00430177
0.00429712
0.00429379
0.00429124
0.00428798
0.0042811
1.25811e-05
0.000104885
0.000229402
0.000341261
0.000434424
0.000511499
0.000574814
0.000627013
0.000670622
0.000707747
0.000740118
0.000769132
0.000795895
0.000821265
0.000845893
0.000870261
0.000894712
0.000919485
0.00094474
0.000970576
0.000997043
0.00102416
0.00105192
0.0010803
0.00110936
0.00113905
0.00116934
0.00120018
0.00123153
0.00126337
0.00129566
0.00132839
0.00136153
0.00139507
0.00142898
0.00146325
0.00149789
0.00153287
0.0015682
0.0016038
0.00163966
0.00167578
0.00171218
0.00174884
0.00178578
0.00182299
0.00186048
0.00189824
0.00193629
0.00197461
0.00201322
0.0020521
0.00209126
0.0021307
0.00217042
0.00221041
0.00225067
0.00229119
0.00233199
0.00237305
0.00241436
0.00245593
0.00249775
0.00253982
0.00258212
0.00262466
0.00266741
0.00271039
0.00275357
0.00279695
0.00284051
0.00288425
0.00292816
0.00297221
0.00301641
0.00306072
0.00310515
0.00314968
0.00319428
0.00323894
0.00328366
0.0033284
0.00337315
0.00341789
0.00346262
0.00350729
0.00355191
0.00359644
0.00364088
0.00368519
0.00372938
0.0037734
0.00381726
0.00386093
0.00390439
0.00394762
0.00399062
0.00403336
0.00407583
0.00411802
0.00415989
0.00420145
0.00424266
0.00428351
0.00432398
0.00436405
0.00440369
0.00444287
0.00448156
0.00451975
0.00455738
0.00459443
0.00463085
0.0046666
0.00470162
0.00473588
0.0047693
0.00480183
0.0048334
0.00486394
0.00489338
0.00492165
0.00494867
0.00497436
0.00499866
0.0050216
0.00504301
0.00506277
0.00508081
0.00509709
0.00511147
0.00512388
0.00513409
0.00514215
0.00514808
0.00515187
0.00515353
0.00515306
0.00515046
0.00514577
0.005139
0.00513021
0.00511944
0.00510677
0.00509226
0.00507601
0.00505811
0.00503867
0.00501781
0.00499566
0.00497234
0.004948
0.00492278
0.00489684
0.00487034
0.00484342
0.00481626
0.00478901
0.00476185
0.00473494
0.00470844
0.00468252
0.00465735
0.00463307
0.00460984
0.00458781
0.00456712
0.00454787
0.0045302
0.00451419
0.00449991
0.00448743
0.00447678
0.00446801
0.00446117
0.00445632
0.00445345
0.00445216
0.00445138
0.00444912
1.30328e-05
0.000104833
0.000232371
0.000349288
0.000448124
0.00053064
0.000599298
0.000656466
0.000704617
0.000745835
0.000781852
0.000814078
0.000843643
0.000871438
0.000898151
0.000924302
0.00095027
0.000976324
0.00100265
0.00102944
0.00105673
0.00108454
0.00111286
0.00114164
0.00117103
0.00120098
0.00123147
0.00126248
0.00129396
0.0013259
0.00135828
0.00139106
0.00142424
0.0014578
0.00149172
0.00152599
0.0015606
0.00159555
0.00163082
0.00166625
0.0017019
0.00173777
0.00177385
0.00181016
0.00184668
0.00188344
0.00192044
0.00195768
0.00199517
0.00203291
0.00207091
0.00210916
0.00214767
0.00218643
0.00222546
0.00226474
0.00230428
0.00234409
0.00238416
0.0024245
0.0024651
0.00250597
0.0025471
0.0025885
0.00263015
0.00267206
0.00271423
0.00275665
0.00279931
0.00284221
0.00288534
0.00292869
0.00297225
0.00301601
0.00305996
0.00310409
0.00314838
0.00319282
0.0032374
0.00328209
0.00332688
0.00337176
0.00341669
0.00346168
0.00350669
0.00355171
0.00359671
0.00364169
0.00368661
0.00373146
0.00377622
0.00382087
0.00386539
0.00390977
0.00395399
0.00399802
0.00404186
0.00408549
0.00412889
0.00417205
0.00421496
0.00425759
0.00429993
0.00434197
0.00438369
0.00442508
0.0044661
0.00450675
0.00454699
0.0045868
0.00462616
0.00466503
0.00470336
0.00474113
0.00477829
0.00481479
0.00485056
0.00488555
0.0049197
0.00495292
0.00498515
0.0050163
0.0050463
0.00507507
0.00510252
0.00512861
0.00515324
0.00517627
0.00519775
0.00521744
0.00523519
0.005251
0.0052644
0.00527557
0.00528451
0.0052912
0.00529563
0.00529778
0.00529766
0.00529527
0.00529062
0.00528375
0.0052747
0.00526353
0.0052503
0.0052351
0.00521801
0.00519914
0.0051786
0.00515652
0.00513301
0.00510823
0.00508232
0.00505544
0.00502773
0.00499938
0.00497055
0.00494142
0.00491215
0.00488293
0.00485395
0.00482538
0.00479741
0.00477023
0.00474401
0.00471894
0.00469519
0.00467293
0.00465233
0.00463352
0.00461666
0.00460186
0.00458924
0.00457892
0.00457103
0.00456567
0.00456293
0.00456258
0.00456386
0.00456553
1.3396e-05
0.000103972
0.000233176
0.000353863
0.000457329
0.000544485
0.0006178
0.000679383
0.000731613
0.000776529
0.000815844
0.000850966
0.000883033
0.00091295
0.000941431
0.000969064
0.000996237
0.0010232
0.00105011
0.00107729
0.00110481
0.00113274
0.00116111
0.00119
0.0012194
0.00124928
0.0012796
0.00131033
0.00134145
0.00137294
0.00140478
0.00143697
0.00146947
0.00150229
0.00153538
0.0015687
0.00160233
0.00163628
0.00167055
0.00170505
0.00173973
0.00177458
0.00180957