/*--------------------------------*- C++ -*----------------------------------*\
| =========                 |                                                 |
| \\      /  F ield         | OpenFOAM: The Open Source CFD Toolbox           |
|  \\    /   O peration     | Version:  v2012                                 |
|   \\  /    A nd           | Website:  www.openfoam.com                      |
|    \\/     M anipulation  |                                                 |
\*---------------------------------------------------------------------------*/
FoamFile
{
    version     2.0;
    format      ascii;
    class       volVectorField;
    location    "200";
    object      U;
}
// * * * * * * * * * * * * * * * * * * * * * * * * * * * * * * * * * * * * * //

dimensions      [0 1 -1 0 0 0 0];


internalField   nonuniform List<vector> 
12225
(
(9.83552 -0.969414 0)
(9.57661 -0.895714 0)
(9.2909 -0.596672 0)
(8.97668 -0.36934 0)
(8.67814 -0.224385 0)
(8.4119 -0.136342 0)
(8.17887 -0.0831844 0)
(7.97629 -0.0507533 0)
(7.80096 -0.0308505 0)
(7.6496 -0.0184479 0)
(7.51878 -0.0107328 0)
(7.40542 -0.00595728 0)
(7.30708 -0.00308197 0)
(7.22186 -0.00146816 0)
(7.1479 -0.000668236 0)
(7.08647 -0.0011874 0)
(7.02761 0.00210362 0)
(7.00092 -0.0203459 0)
(10.0744 0.265642 0)
(10.1924 0.434364 0)
(10.2331 0.398401 0)
(10.232 0.321256 0)
(10.2109 0.253703 0)
(10.176 0.201351 0)
(10.127 0.16204 0)
(10.0664 0.132976 0)
(9.99818 0.111424 0)
(9.9259 0.0951268 0)
(9.85187 0.0825422 0)
(9.77782 0.0725993 0)
(9.7049 0.064533 0)
(9.63418 0.0578374 0)
(9.56615 0.0518445 0)
(9.50166 0.0469969 0)
(9.44142 0.0401303 0)
(9.38772 0.0398224 0)
(10.0026 0.0614277 0)
(10.0298 0.0474848 0)
(10.0597 0.00573792 0)
(10.0887 -0.00528524 0)
(10.1148 0.00349717 0)
(10.1381 0.0157478 0)
(10.1557 0.0262765 0)
(10.1671 0.0345572 0)
(10.1732 0.0407399 0)
(10.1749 0.045061 0)
(10.1732 0.047853 0)
(10.1685 0.0494518 0)
(10.1616 0.0501084 0)
(10.1529 0.0499827 0)
(10.143 0.0491081 0)
(10.1323 0.0474653 0)
(10.1217 0.0447485 0)
(10.1101 0.0394099 0)
(9.99667 0.00936679 0)
(10.0076 0.0255314 0)
(10.033 0.0385477 0)
(10.0549 0.0550778 0)
(10.0719 0.0676147 0)
(10.0873 0.0732712 0)
(10.1012 0.0743297 0)
(10.1132 0.0733108 0)
(10.1235 0.0714162 0)
(10.1326 0.0691253 0)
(10.1406 0.0666567 0)
(10.1477 0.0641381 0)
(10.154 0.061586 0)
(10.1595 0.0589638 0)
(10.1646 0.0561161 0)
(10.1692 0.0528702 0)
(10.1734 0.0486891 0)
(10.1766 0.0424547 0)
(9.99899 0.00656187 0)
(10.0076 0.0347066 0)
(10.0275 0.0494565 0)
(10.0433 0.0560694 0)
(10.0554 0.059209 0)
(10.0672 0.0600173 0)
(10.0787 0.0595152 0)
(10.0891 0.0586037 0)
(10.0984 0.0576111 0)
(10.107 0.0565423 0)
(10.1151 0.0553641 0)
(10.1227 0.0540558 0)
(10.1298 0.0525811 0)
(10.1367 0.0508699 0)
(10.1432 0.0487893 0)
(10.1495 0.0461651 0)
(10.1554 0.0426649 0)
(10.1604 0.0380337 0)
(10.0002 0.00923325 0)
(10.0077 0.0334381 0)
(10.0232 0.0443625 0)
(10.0364 0.0485727 0)
(10.0472 0.0518683 0)
(10.0579 0.054268 0)
(10.0683 0.05537 0)
(10.0778 0.0555774 0)
(10.0863 0.0552693 0)
(10.0943 0.0545851 0)
(10.1018 0.0535812 0)
(10.1089 0.0523012 0)
(10.1157 0.0507562 0)
(10.1222 0.0489138 0)
(10.1285 0.0466867 0)
(10.1345 0.043955 0)
(10.1401 0.0405667 0)
(10.145 0.0364441 0)
(10.0004 0.00902883 0)
(10.0067 0.0280738 0)
(10.0193 0.0384003 0)
(10.0314 0.0436617 0)
(10.0417 0.0477572 0)
(10.0516 0.0506041 0)
(10.0612 0.0518926 0)
(10.07 0.0521139 0)
(10.0781 0.0517484 0)
(10.0857 0.0509939 0)
(10.0928 0.0499239 0)
(10.0996 0.0485808 0)
(10.1061 0.0469786 0)
(10.1123 0.04509 0)
(10.1182 0.0428545 0)
(10.1238 0.0401935 0)
(10.1289 0.0370414 0)
(10.1334 0.0333957 0)
(10.0004 0.00802561 0)
(10.0058 0.0241642 0)
(10.0166 0.0345144 0)
(10.0277 0.0402692 0)
(10.0375 0.0442894 0)
(10.0469 0.0469781 0)
(10.056 0.0482622 0)
(10.0645 0.0485604 0)
(10.0723 0.0482853 0)
(10.0797 0.0476131 0)
(10.0866 0.0466115 0)
(10.0932 0.0453198 0)
(10.0994 0.0437561 0)
(10.1054 0.0419051 0)
(10.111 0.0397308 0)
(10.1163 0.0371898 0)
(10.1211 0.0342647 0)
(10.1254 0.0309942 0)
(10.0004 0.00717322 0)
(10.0051 0.0213869 0)
(10.0144 0.0312908 0)
(10.0246 0.0370584 0)
(10.0339 0.0409428 0)
(10.0429 0.0435588 0)
(10.0516 0.0449115 0)
(10.0598 0.0453208 0)
(10.0675 0.0451384 0)
(10.0746 0.0445356 0)
(10.0814 0.0435856 0)
(10.0878 0.0423321 0)
(10.0939 0.0408 0)
(10.0997 0.0389864 0)
(10.1052 0.0368751 0)
(10.1102 0.034449 0)
(10.1148 0.0317173 0)
(10.1189 0.0287389 0)
(10.0004 0.00635904 0)
(10.0045 0.0187441 0)
(10.0124 0.0278597 0)
(10.0216 0.0334718 0)
(10.0303 0.0372311 0)
(10.0388 0.039781 0)
(10.047 0.0411831 0)
(10.0549 0.0416815 0)
(10.0624 0.0415751 0)
(10.0694 0.0410336 0)
(10.076 0.0401356 0)
(10.0822 0.0389288 0)
(10.0882 0.0374439 0)
(10.0938 0.0356909 0)
(10.099 0.0336707 0)
(10.1039 0.0313875 0)
(10.1083 0.0288676 0)
(10.1122 0.0261787 0)
(10.0004 0.00553328 0)
(10.0038 0.0161368 0)
(10.0106 0.0243026 0)
(10.0187 0.0296395 0)
(10.0268 0.0332282 0)
(10.0347 0.0356561 0)
(10.0425 0.0370477 0)
(10.05 0.0375949 0)
(10.0571 0.0375443 0)
(10.0639 0.0370562 0)
(10.0703 0.0362125 0)
(10.0764 0.0350636 0)
(10.0821 0.0336449 0)
(10.0875 0.0319774 0)
(10.0925 0.0300764 0)
(10.0972 0.0279618 0)
(10.1014 0.0256684 0)
(10.1052 0.023265 0)
(10.0003 0.00469085 0)
(10.0033 0.0135912 0)
(10.0089 0.0207025 0)
(10.016 0.0256072 0)
(10.0234 0.0289375 0)
(10.0307 0.031179 0)
(10.038 0.0324991 0)
(10.0451 0.0330537 0)
(10.0518 0.0330362 0)
(10.0583 0.0325907 0)
(10.0645 0.0317999 0)
(10.0703 0.0307162 0)
(10.0758 0.029379 0)
(10.081 0.0278179 0)
(10.0858 0.0260587 0)
(10.0902 0.0241306 0)
(10.0943 0.022071 0)
(10.0979 0.0199443 0)
(10.0003 0.00384995 0)
(10.0027 0.0111248 0)
(10.0075 0.0170997 0)
(10.0136 0.0214067 0)
(10.0203 0.0243747 0)
(10.027 0.0263637 0)
(10.0337 0.0275492 0)
(10.0403 0.0280611 0)
(10.0467 0.0280464 0)
(10.0528 0.0276275 0)
(10.0587 0.0268843 0)
(10.0642 0.0258701 0)
(10.0695 0.0246267 0)
(10.0744 0.0231887 0)
(10.079 0.0215876 0)
(10.0832 0.0198567 0)
(10.0871 0.0180318 0)
(10.0906 0.0161697 0)
(10.0002 0.00302342 0)
(10.0023 0.00873283 0)
(10.0063 0.0135136 0)
(10.0116 0.0170763 0)
(10.0175 0.0195684 0)
(10.0236 0.0212276 0)
(10.0297 0.022208 0)
(10.0359 0.0226175 0)
(10.0419 0.022566 0)
(10.0476 0.022152 0)
(10.0532 0.0214475 0)
(10.0584 0.020504 0)
(10.0634 0.0193626 0)
(10.0681 0.0180591 0)
(10.0724 0.0166264 0)
(10.0765 0.0150972 0)
(10.0802 0.0135029 0)
(10.0836 0.0118922 0)
(10.0002 0.0022149 0)
(10.0019 0.0064002 0)
(10.0053 0.00994614 0)
(10.0099 0.0126424 0)
(10.0151 0.0145405 0)
(10.0206 0.0157808 0)
(10.0262 0.0164787 0)
(10.0319 0.0167196 0)
(10.0375 0.0165837 0)
(10.0429 0.0161453 0)
(10.0481 0.015464 0)
(10.0531 0.0145855 0)
(10.0578 0.0135473 0)
(10.0622 0.0123824 0)
(10.0664 0.0111208 0)
(10.0702 0.00979161 0)
(10.0738 0.00842013 0)
(10.0771 0.0070466 0)
(10.0002 0.00141907 0)
(10.0016 0.00409873 0)
(10.0045 0.00637136 0)
(10.0085 0.00809706 0)
(10.0131 0.00928507 0)
(10.0181 0.0100086 0)
(10.0233 0.0103415 0)
(10.0286 0.0103434 0)
(10.0338 0.0100686 0)
(10.0388 0.00956853 0)
(10.0437 0.00888717 0)
(10.0484 0.00806032 0)
(10.0529 0.00711812 0)
(10.0571 0.00608734 0)
(10.0611 0.00499226 0)
(10.0648 0.0038557 0)
(10.0682 0.00269642 0)
(10.0714 0.00154617 0)
(10.0002 0.000620034 0)
(10.0014 0.00177947 0)
(10.004 0.00272788 0)
(10.0075 0.00338695 0)
(10.0117 0.00375394 0)
(10.0163 0.00385997 0)
(10.0211 0.00374148 0)
(10.026 0.00343063 0)
(10.0309 0.00295774 0)
(10.0357 0.00235205 0)
(10.0404 0.00163955 0)
(10.0448 0.000842678 0)
(10.0491 -1.90994e-05 0)
(10.0532 -0.000928056 0)
(10.057 -0.0018682 0)
(10.0605 -0.0028244 0)
(10.0639 -0.00378506 0)
(10.067 -0.00472686 0)
(10.0001 -0.000161857 0)
(10.0013 -0.000495092 0)
(10.0037 -0.000868494 0)
(10.0071 -0.00130528 0)
(10.011 -0.00180473 0)
(10.0154 -0.00236361 0)
(10.02 -0.00297856 0)
(10.0247 -0.00364395 0)
(10.0294 -0.00435156 0)
(10.0341 -0.0050934 0)
(10.0386 -0.00586207 0)
(10.0429 -0.00665072 0)
(10.047 -0.00745217 0)
(10.051 -0.00825947 0)
(10.0547 -0.00906562 0)
(10.0582 -0.00986392 0)
(10.0615 -0.0106494 0)
(10.0646 -0.0114069 0)
(10.0001 -0.000878213 0)
(10.0013 -0.00258584 0)
(10.0037 -0.00418962 0)
(10.0071 -0.005654 0)
(10.0111 -0.00696568 0)
(10.0154 -0.00814777 0)
(10.02 -0.00923041 0)
(10.0247 -0.010232 0)
(10.0294 -0.0111641 0)
(10.034 -0.0120385 0)
(10.0384 -0.0128659 0)
(10.0428 -0.0136542 0)
(10.0469 -0.0144083 0)
(10.0508 -0.0151316 0)
(10.0545 -0.0158259 0)
(10.058 -0.0164919 0)
(10.0612 -0.0171309 0)
(10.0643 -0.0177339 0)
(10.0001 -0.00152838 0)
(10.0014 -0.00449881 0)
(10.0039 -0.00724311 0)
(10.0074 -0.00964118 0)
(10.0116 -0.0116693 0)
(10.0161 -0.0133951 0)
(10.0208 -0.0148837 0)
(10.0256 -0.0161706 0)
(10.0304 -0.0172859 0)
(10.0351 -0.0182632 0)
(10.0396 -0.0191318 0)
(10.044 -0.0199123 0)
(10.0481 -0.0206202 0)
(10.0521 -0.0212673 0)
(10.0558 -0.0218631 0)
(10.0593 -0.0224143 0)
(10.0626 -0.022927 0)
(10.0657 -0.0233968 0)
(10.0002 -0.002131 0)
(10.0015 -0.00632244 0)
(10.0042 -0.0101875 0)
(10.0081 -0.0134412 0)
(10.0126 -0.0160795 0)
(10.0174 -0.0182692 0)
(10.0223 -0.0201105 0)
(10.0273 -0.0216375 0)
(10.0323 -0.0228944 0)
(10.0371 -0.0239402 0)
(10.0417 -0.0248235 0)
(10.0462 -0.0255779 0)
(10.0504 -0.0262285 0)
(10.0544 -0.0267962 0)
(10.0582 -0.0272968 0)
(10.0617 -0.0277426 0)
(10.0651 -0.028143 0)
(10.0682 -0.0284983 0)
(10.0001 -0.00267189 0)
(10.0015 -0.0080921 0)
(10.0046 -0.0131331 0)
(10.009 -0.0171851 0)
(10.0139 -0.0203213 0)
(10.019 -0.0228793 0)
(10.0243 -0.0249968 0)
(10.0295 -0.0267044 0)
(10.0347 -0.0280647 0)
(10.0397 -0.0291568 0)
(10.0445 -0.0300399 0)
(10.049 -0.0307556 0)
(10.0534 -0.0313384 0)
(10.0574 -0.0318176 0)
(10.0613 -0.0322162 0)
(10.0649 -0.0325508 0)
(10.0683 -0.0328345 0)
(10.0714 -0.0330693 0)
(10.0001 -0.00312154 0)
(10.0014 -0.00983267 0)
(10.0049 -0.0160675 0)
(10.01 -0.02084 0)
(10.0155 -0.0244636 0)
(10.021 -0.0273865 0)
(10.0265 -0.0297034 0)
(10.0321 -0.0314792 0)
(10.0375 -0.0328512 0)
(10.0427 -0.0339334 0)
(10.0476 -0.0347873 0)
(10.0523 -0.0354548 0)
(10.0568 -0.0359754 0)
(10.0609 -0.0363832 0)
(10.0648 -0.0367046 0)
(10.0685 -0.0369582 0)
(10.072 -0.0371589 0)
(10.0752 -0.0373127 0)
(9.99998 -0.00341829 0)
(10.0011 -0.0119107 0)
(10.0052 -0.0191198 0)
(10.0111 -0.0240847 0)
(10.0171 -0.0280964 0)
(10.023 -0.0315651 0)
(10.0289 -0.0342339 0)
(10.0348 -0.0361263 0)
(10.0405 -0.0374861 0)
(10.0459 -0.0384924 0)
(10.051 -0.0392294 0)
(10.0559 -0.0397545 0)
(10.0605 -0.0401216 0)
(10.0648 -0.0403759 0)
(10.0688 -0.0405494 0)
(10.0726 -0.0406645 0)
(10.0761 -0.0407356 0)
(10.0794 -0.0407626 0)
(9.99968 -0.00290545 0)
(10.0004 -0.0149537 0)
(10.0055 -0.0236388 0)
(10.0121 -0.0278989 0)
(10.0183 -0.0313235 0)
(10.0245 -0.0348087 0)
(10.0311 -0.0377557 0)
(10.0376 -0.0399799 0)
(10.0438 -0.0416493 0)
(10.0496 -0.0429024 0)
(10.0551 -0.0438084 0)
(10.0603 -0.0444312 0)
(10.0652 -0.044838 0)
(10.0698 -0.0450868 0)
(10.074 -0.0452206 0)
(10.078 -0.0452707 0)
(10.0817 -0.0452617 0)
(10.0852 -0.0452032 0)
(9.99821 0.000591631 0)
(9.99708 -0.0155548 0)
(10.0047 -0.02876 0)
(10.0134 -0.0348606 0)
(10.0202 -0.0379057 0)
(10.0269 -0.0398891 0)
(10.0342 -0.0412413 0)
(10.0416 -0.0422587 0)
(10.0486 -0.0431187 0)
(10.0552 -0.043846 0)
(10.0614 -0.0444212 0)
(10.0673 -0.044861 0)
(10.0727 -0.0451911 0)
(10.0778 -0.0454424 0)
(10.0825 -0.0456326 0)
(10.0869 -0.0457788 0)
(10.091 -0.0458879 0)
(10.0947 -0.0459329 0)
(9.99426 0.00348271 0)
(9.98933 -0.00613948 0)
(10.0009 -0.0207081 0)
(10.0149 -0.0364025 0)
(10.0259 -0.0489365 0)
(10.0356 -0.0564449 0)
(10.045 -0.0601401 0)
(10.054 -0.0617538 0)
(10.0624 -0.0622903 0)
(10.0702 -0.0621407 0)
(10.0775 -0.0615475 0)
(10.0843 -0.0606808 0)
(10.0906 -0.0596853 0)
(10.0964 -0.0586431 0)
(10.1017 -0.0576211 0)
(10.1065 -0.0566503 0)
(10.111 -0.055759 0)
(10.1151 -0.0548992 0)
(9.99386 -0.0267392 0)
(9.99317 -0.0111625 0)
(10.005 0.0200666 0)
(10.0223 0.0291671 0)
(10.0408 0.0216022 0)
(10.0596 0.00984468 0)
(10.0771 -0.00113888 0)
(10.0924 -0.0107676 0)
(10.1057 -0.0190021 0)
(10.1171 -0.0258359 0)
(10.1268 -0.0313315 0)
(10.135 -0.0356966 0)
(10.1417 -0.0391209 0)
(10.147 -0.0417973 0)
(10.1511 -0.0438769 0)
(10.1541 -0.0455127 0)
(10.1562 -0.0468245 0)
(10.1574 -0.0479129 0)
(10.0315 -0.194356 0)
(10.095 -0.34288 0)
(10.1268 -0.33327 0)
(10.1423 -0.283865 0)
(10.1578 -0.237712 0)
(10.1738 -0.20003 0)
(10.1851 -0.169842 0)
(10.1889 -0.146073 0)
(10.1858 -0.127499 0)
(10.1766 -0.112816 0)
(10.1625 -0.101052 0)
(10.1443 -0.091499 0)
(10.1229 -0.0836751 0)
(10.099 -0.0771997 0)
(10.0734 -0.0718133 0)
(10.0467 -0.0673457 0)
(10.0192 -0.0636548 0)
(9.99167 -0.0610117 0)
(9.93978 0.728688 0)
(9.86951 0.713945 0)
(9.75686 0.510155 0)
(9.59843 0.343059 0)
(9.42177 0.226247 0)
(9.24554 0.14734 0)
(9.07608 0.0943754 0)
(8.91593 0.05855 0)
(8.76682 0.0341368 0)
(8.62956 0.0174837 0)
(8.50398 0.00619286 0)
(8.38945 -0.0013807 0)
(8.28515 -0.00634044 0)
(8.19028 -0.00953851 0)
(8.1039 -0.0114981 0)
(8.02517 -0.0126176 0)
(7.95295 -0.013227 0)
(7.88687 -0.013874 0)
(0.00604439 -0.0122505 0)
(0.0196483 -0.0216953 0)
(0.0342143 -0.0232154 0)
(0.0471139 -0.0198937 0)
(0.0560106 -0.0141109 0)
(0.0604469 -0.00753563 0)
(0.0604761 -0.00126524 -4.35626e-19)
(0.0566684 0.00396576 4.34658e-19)
(0.0499639 0.00787607 0)
(0.041071 0.0106048 4.55857e-19)
(0.0305842 0.0124814 0)
(0.0189392 0.0138208 0)
(0.00638863 0.0147926 0)
(-0.00693304 0.015387 -5.13219e-19)
(-0.0210655 0.0157524 0)
(-0.0360976 0.0161564 0)
(-0.0521045 0.0167057 3.89846e-19)
(-0.0691901 0.0174265 0)
(-0.0874562 0.0183124 0)
(-0.106993 0.0193435 0)
(-0.127872 0.0204942 -2.79683e-19)
(-0.150142 0.0217334 0)
(-0.173828 0.0230283 -2.39553e-19)
(-0.198929 0.0243448 0)
(-0.225421 0.0256516 0)
(-0.25326 0.0269206 -1.92709e-19)
(-0.282384 0.0281321 0)
(-0.312717 0.0292605 1.68529e-19)
(-0.344173 0.0302828 0)
(-0.376653 0.0311853 -1.4881e-19)
(-0.410053 0.0319642 0)
(-0.444267 0.0326155 0)
(-0.479186 0.0331409 0)
(-0.514709 0.0335403 0)
(-0.550737 0.0338169 0)
(-0.587183 0.0339758 1.08492e-19)
(-0.623964 0.0340284 0)
(-0.661008 0.0339897 -1.98727e-19)
(-0.698251 0.0338847 0)
(-0.735634 0.0337373 1.83396e-19)
(-0.773108 0.0335741 0)
(-0.810646 0.0334212 0)
(-0.848309 0.0332805 -1.64452e-19)
(-0.886068 0.0331365 0)
(-0.923921 0.0329934 -1.53959e-19)
(-0.961864 0.0328471 1.49234e-19)
(-0.999892 0.0326995 0)
(-1.038 0.0325488 1.40673e-19)
(-1.07618 0.0323963 1.36781e-19)
(-1.11442 0.0322395 0)
(-1.15273 0.0320796 0)
(-1.19109 0.0319144 0)
(-1.22949 0.0317445 0)
(-1.26792 0.0315667 0)
(-1.30636 0.031382 -1.17616e-19)
(-1.34481 0.031187 0)
(-1.38325 0.0309823 1.12472e-19)
(-1.42165 0.0307641 0)
(-1.46001 0.0305331 0)
(-1.49829 0.0302859 -1.05627e-19)
(-1.53648 0.0300232 0)
(-1.57455 0.0297418 1.01554e-19)
(-1.61248 0.0294428 0)
(-1.65022 0.0291228 0)
(-1.68775 0.0287833 0)
(-1.72505 0.0284208 -9.43667e-20)
(-1.76206 0.028037 0)
(-1.79876 0.0276284 0)
(-1.83511 0.0271968 -8.96607e-20)
(-1.87106 0.0267388 0)
(-1.90658 0.0262564 -8.6788e-20)
(-1.94163 0.0257463 0)
(-1.97615 0.025211 0)
(-2.01011 0.024647 0)
(-2.04346 0.0240572 8.15574e-20)
(-2.07615 0.0234382 0)
(-2.10812 0.022793 0)
(-2.13934 0.0221182 7.79929e-20)
(-2.16974 0.0214169 7.68592e-20)
(-2.19928 0.0206855 0)
(-2.2279 0.0199268 7.46585e-20)
(-2.25555 0.0191374 0)
(-2.28218 0.0183194 1.45064e-19)
(-2.30772 0.0174688 0)
(-2.33213 0.016587 1.40924e-19)
(-2.35535 0.0156689 0)
(-2.37732 0.0147144 -1.36865e-19)
(-2.39797 0.0137161 0)
(-2.41723 0.0126702 0)
(-2.43505 0.0115677 0)
(-2.45134 0.0103987 1.28859e-19)
(-2.46605 0.00915564 0)
(-2.47908 0.00783505 -1.24858e-19)
(-2.49034 0.00644183 0)
(-2.49972 0.00499843 1.20839e-19)
(-2.50709 0.00354936 1.18824e-19)
(-2.5123 0.00215057 1.16803e-19)
(-2.51523 0.000849825 0)
(-2.51613 -0.000333829 0)
(-2.51522 -0.00145292 0)
(-2.51246 -0.00256172 0)
(-2.50786 -0.00367425 0)
(-2.5014 -0.00479381 0)
(-2.49306 -0.00592222 0)
(-2.48283 -0.00705743 0)
(-2.47068 -0.00819768 -9.61067e-20)
(-2.4566 -0.0093398 -9.34782e-20)
(-2.44059 -0.0104822 0)
(-2.42265 -0.0116224 0)
(-2.40278 -0.0127576 0)
(-2.38099 -0.013885 -8.21009e-20)
(-2.3573 -0.0150009 0)
(-2.33172 -0.0161026 0)
(-2.3043 -0.0171853 0)
(-2.27505 -0.0182465 0)
(-2.24403 -0.0192806 6.56181e-20)
(-2.21129 -0.0202851 0)
(-2.17687 -0.0212538 0)
(-2.14086 -0.0221845 -5.43445e-20)
(-2.1033 -0.0230701 5.03389e-20)
(-2.0643 -0.0239083 0)
(-2.02392 -0.0246932 4.19443e-20)
(-1.98226 -0.0254324 0)
(-1.9394 -0.0261135 -3.30308e-20)
(-1.89545 -0.0267333 0)
(-1.85049 -0.0272971 0)
(-1.80463 -0.0278015 0)
(-1.75798 -0.0282356 0)
(-1.71065 -0.0286037 0)
(-1.66275 -0.0289051 6.42655e-21)
(-1.61437 -0.0291374 -4.38524e-21)
(-1.56563 -0.0292996 0)
(-1.51665 -0.029393 0)
(-1.46752 -0.0294151 0)
(-1.41836 -0.029365 4.99486e-20)
(-1.36929 -0.0292403 0)
(-1.32041 -0.0290419 0)
(-1.27184 -0.0287737 0)
(-1.22367 -0.0284402 9.88132e-20)
(-1.17602 -0.0280434 -1.11466e-19)
(-1.12896 -0.0275793 0)
(-1.08257 -0.0270479 0)
(-1.03693 -0.0264458 -1.50263e-19)
(-0.992108 -0.0257807 -1.63428e-19)
(-0.948167 -0.025051 0)
(-0.905152 -0.0242662 0)
(-0.863097 -0.0234222 2.03425e-19)
(-0.822043 -0.0225353 -2.1687e-19)
(-0.782044 -0.0216139 0)
(-0.743132 -0.0206776 0)
(-0.705307 -0.0197286 -2.57266e-19)
(-0.668545 -0.0187749 0)
(-0.6328 -0.0178225 0)
(-0.598022 -0.0168809 -2.9755e-19)
(-0.564143 -0.0159562 0)
(-0.531078 -0.0150631 -3.24328e-19)
(-0.498718 -0.014212 0)
(-0.466939 -0.0134081 0)
(-0.435608 -0.0126699 0)
(-0.40455 -0.0120186 3.78301e-19)
(-0.373599 -0.0114558 0)
(-0.342543 -0.0110098 0)
(-0.311166 -0.0106997 0)
(-0.279211 -0.0105571 0)
(-0.246424 -0.0105944 0)
(-0.212557 -0.0108224 0)
(-0.177292 -0.0112898 4.89593e-19)
(-0.140287 -0.0120677 5.10282e-19)
(-0.101312 -0.0131791 0)
(-0.0602533 -0.0145676 0)
(-0.0166823 -0.016109 0)
(0.0284924 -0.0173112 -5.99595e-19)
(0.0755174 -0.0182568 0)
(0.126088 -0.0194292 1.14297e-18)
(0.180588 -0.0207621 -1.11269e-18)
(0.239004 -0.0220998 -1.08379e-18)
(0.301662 -0.0231448 1.05782e-18)
(0.363905 -0.0232983 -1.03666e-18)
(0.435329 -0.0209392 1.02551e-18)
(0.454242 -0.00307918 0)
(0.00771912 -0.0414786 0)
(0.0179185 -0.0477445 0)
(0.0224093 -0.0385448 4.89598e-19)
(0.0231391 -0.0262379 0)
(0.0209099 -0.0134196 -3.27245e-19)
(0.0161318 -0.00116726 -3.03577e-19)
(0.00923388 0.00981084 -1.45693e-19)
(0.000342564 0.0190694 -1.41798e-19)
(-0.0105714 0.026488 0)
(-0.0234511 0.0322571 -1.32387e-19)
(-0.0382099 0.0367305 0)
(-0.0547417 0.0402987 0)
(-0.0729559 0.0433033 2.36893e-19)
(-0.0927336 0.0460063 1.1427e-19)
(-0.113929 0.0486136 -2.20195e-19)
(-0.136469 0.0512749 -2.12323e-19)
(-0.160336 0.0540689 -1.02435e-19)
(-0.185504 0.0570122 0)
(-0.211939 0.06008 0)
(-0.239601 0.0632235 0)
(-0.268433 0.0663842 -8.77788e-20)
(-0.298367 0.0694999 0)
(-0.329323 0.0725112 2.43766e-19)
(-0.36121 0.0753639 0)
(-0.393928 0.0780122 0)
(-0.427377 0.0804199 7.22327e-20)
(-0.461453 0.0825649 0)
(-0.496053 0.0844365 -6.68533e-20)
(-0.53108 0.0860285 -1.28569e-19)
(-0.566451 0.0873336 6.20383e-20)
(-0.602081 0.0883516 0)
(-0.637899 0.089096 0)
(-0.673841 0.0895881 0)
(-0.709852 0.0898513 -1.07899e-19)
(-0.745891 0.0899109 -1.04484e-19)
(-0.781925 0.0897911 -5.07152e-20)
(-0.817936 0.0895195 0)
(-0.853915 0.0891221 9.55895e-20)
(-0.889861 0.0886286 0)
(-0.925774 0.0880704 -9.04621e-20)
(-0.961654 0.0874802 0)
(-0.997491 0.0868817 0)
(-1.03328 0.0862827 8.38491e-20)
(-1.069 0.0856789 0)
(-1.10466 0.0850711 2.39742e-19)
(-1.14025 0.0844576 -7.82488e-20)
(-1.17577 0.0838391 0)
(-1.21121 0.0832134 -7.49654e-20)
(-1.24657 0.0825801 -7.34386e-20)
(-1.28184 0.0819359 0)
(-1.31702 0.0812803 0)
(-1.3521 0.0806097 0)
(-1.38707 0.0799228 0)
(-1.42191 0.0792153 0)
(-1.45662 0.0784862 6.55697e-20)
(-1.49117 0.0777309 1.28561e-19)
(-1.52556 0.0769481 -6.33443e-20)
(-1.55976 0.0761329 0)
(-1.59375 0.075284 1.22246e-19)
(-1.62751 0.0743968 -5.99909e-20)
(-1.66102 0.0734707 0)
(-1.69426 0.0725014 -5.84263e-20)
(-1.72719 0.0714889 0)
(-1.7598 0.0704292 0)
(-1.79205 0.0693225 -1.11372e-19)
(-1.82391 0.0681651 5.50129e-20)
(-1.85535 0.0669577 -1.08154e-19)
(-1.88634 0.0656966 1.06606e-19)
(-1.91685 0.0643829 5.26828e-20)
(-1.94684 0.0630131 0)
(-1.97627 0.0615888 5.12166e-20)
(-2.00511 0.0601067 0)
(-2.03331 0.058569 0)
(-2.06085 0.0569726 0)
(-2.08769 0.0553203 4.8212e-20)
(-2.11377 0.0536091 0)
(-2.13906 0.0518425 9.40263e-20)
(-2.16352 0.0500174 -1.39206e-19)
(-2.18711 0.0481376 -4.58283e-20)
(-2.20978 0.0462001 0)
(-2.23149 0.0442084 -4.45541e-20)
(-2.25219 0.0421599 0)
(-2.27184 0.0400579 -8.65832e-20)
(-2.2904 0.0379002 0)
(-2.30782 0.0356902 -8.40656e-20)
(-2.32406 0.0334255 1.65345e-19)
(-2.33907 0.0311101 8.15392e-20)
(-2.35281 0.0287414 0)
(-2.36523 0.0263208 0)
(-2.37629 0.0238452 0)
(-2.38595 0.0213094 -7.63932e-20)
(-2.39419 0.0187086 0)
(-2.40098 0.0160367 7.37437e-20)
(-2.40631 0.013289 0)
(-2.41019 0.0104681 -2.13104e-19)
(-2.41267 0.00759975 -6.96575e-20)
(-2.41382 0.00474509 -6.82568e-20)
(-2.41376 0.00198303 0)
(-2.41227 -0.000662856 0)
(-2.4091 -0.00324212 0)
(-2.40419 -0.00579517 0)
(-2.39749 -0.00833557 0)
(-2.38899 -0.0108642 -1.18426e-19)
(-2.37865 -0.0133798 -1.15193e-19)
(-2.36645 -0.0158776 0)
(-2.35239 -0.0183529 5.40686e-20)
(-2.33645 -0.0207993 5.23249e-20)
(-2.31862 -0.0232108 0)
(-2.29892 -0.0255806 9.79613e-20)
(-2.27734 -0.027902 0)
(-2.25391 -0.0301682 -4.55685e-20)
(-2.22862 -0.032372 0)
(-2.20152 -0.0345066 0)
(-2.17263 -0.0365644 7.87799e-20)
(-2.14198 -0.0385391 0)
(-2.10963 -0.0404225 -3.48525e-20)
(-2.07563 -0.0422093 0)
(-2.04003 -0.0438911 0)
(-2.00291 -0.0454632 -2.92604e-20)
(-1.96432 -0.0469175 -2.60464e-20)
(-1.92436 -0.0482508 0)
(-1.88311 -0.0494563 2.24949e-20)
(-1.84066 -0.0505351 0)
(-1.7971 -0.0514857 -1.78124e-20)
(-1.75253 -0.052313 -2.96933e-20)
(-1.70706 -0.0530048 0)
(-1.66079 -0.0535547 0)
(-1.61381 -0.0539726 0)
(-1.56624 -0.0542667 0)
(-1.51819 -0.0544285 -3.83393e-21)
(-1.46976 -0.0544619 9.96828e-22)
(-1.42105 -0.054368 0)
(-1.37218 -0.0541524 0)
(-1.32325 -0.0538168 0)
(-1.27437 -0.0533653 -2.12153e-20)
(-1.22564 -0.052798 0)
(-1.17717 -0.052121 0)
(-1.12905 -0.0513417 6.9588e-20)
(-1.08138 -0.0504719 3.84507e-20)
(-1.03426 -0.0495197 4.56928e-20)
(-0.987763 -0.0484885 0)
(-0.941964 -0.0473812 0)
(-0.896925 -0.0461998 5.97085e-20)
(-0.852703 -0.0449552 -6.20692e-20)
(-0.809346 -0.0436533 0)
(-0.76689 -0.0423055 0)
(-0.725358 -0.0409191 -7.72055e-20)
(-0.684775 -0.0395121 2.42146e-19)
(-0.645167 -0.0381056 0)
(-0.606548 -0.0367223 0)
(-0.568908 -0.0353833 9.29261e-20)
(-0.532205 -0.0340955 0)
(-0.496384 -0.0328724 1.98679e-19)
(-0.461374 -0.0317215 -1.0212e-19)
(-0.427092 -0.0306617 0)
(-0.393432 -0.0297047 1.09479e-19)
(-0.360268 -0.028869 2.23825e-19)
(-0.327455 -0.0281639 0)
(-0.294825 -0.0276101 0)
(-0.26219 -0.0272263 -1.19945e-19)
(-0.229333 -0.0270285 0)
(-0.196013 -0.0270187 2.48445e-19)
(-0.161973 -0.0272196 0)
(-0.126921 -0.0276566 0)
(-0.0905546 -0.0283517 0)
(-0.052552 -0.0293003 0)
(-0.0125695 -0.0305072 -1.34049e-19)
(0.029494 -0.0318705 -1.35044e-19)
(0.0739529 -0.0333496 0)
(0.12139 -0.0349942 0)
(0.172367 -0.0367394 0)
(0.227457 -0.0386264 1.33297e-19)
(0.286919 -0.0408771 0)
(0.350602 -0.0434535 -2.67137e-19)
(0.418353 -0.0460889 2.68231e-19)
(0.489777 -0.0484876 2.69852e-19)
(0.56457 -0.0501107 2.70333e-19)
(0.639269 -0.0500829 2.75722e-19)
(0.718711 -0.0450648 2.79345e-19)
(0.770019 -0.0245028 0)
(0.00306648 -0.0602693 0)
(0.00396733 -0.0519857 0)
(0.000159533 -0.0334698 -3.4475e-19)
(-0.00629381 -0.0153328 -2.50451e-19)
(-0.0146567 0.00149823 2.05432e-19)
(-0.0245337 0.0168603 1.80384e-19)
(-0.0357514 0.0306344 5.63991e-23)
(-0.0482965 0.0427301 0)
(-0.0622351 0.0531339 0)
(-0.0776452 0.0619576 0)
(-0.0945796 0.0694327 0)
(-0.113049 0.07586 0)
(-0.133026 0.0815489 -3.91415e-19)
(-0.154445 0.0867773 0)
(-0.177219 0.0917557 1.23325e-19)
(-0.201249 0.0966158 1.19845e-19)
(-0.226433 0.101426 0)
(-0.252665 0.106198 0)
(-0.279837 0.110905 0)
(-0.307846 0.115497 0)
(-0.336585 0.119909 1.03157e-19)
(-0.365955 0.124079 0)
(-0.395859 0.127948 -9.68914e-20)
(-0.426206 0.131469 0)
(-0.456913 0.134603 0)
(-0.487904 0.137326 0)
(-0.519117 0.139622 -1.70779e-19)
(-0.550489 0.141491 0)
(-0.581969 0.142941 8.03434e-20)
(-0.61351 0.143995 -1.55721e-19)
(-0.645085 0.14468 0)
(-0.676679 0.145029 0)
(-0.708281 0.145077 0)
(-0.739883 0.14486 6.9387e-20)
(-0.771483 0.144416 6.75259e-20)
(-0.803081 0.143782 0)
(-0.834683 0.142995 0)
(-0.866292 0.142087 -1.24909e-19)
(-0.897914 0.141092 -1.21916e-19)
(-0.929551 0.140036 1.19075e-19)
(-0.9612 0.138944 0)
(-0.992854 0.137834 0)
(-1.02451 0.136713 0)
(-1.05615 0.135586 0)
(-1.08778 0.134453 -1.0695e-19)
(-1.1194 0.133314 -1.04666e-19)
(-1.15099 0.132168 1.02627e-19)
(-1.18255 0.131014 0)
(-1.21408 0.129848 0)
(-1.24557 0.128667 0)
(-1.27702 0.127468 0)
(-1.3084 0.126246 -9.35947e-20)
(-1.33971 0.124998 0)
(-1.37095 0.123718 0)
(-1.40209 0.122402 -8.89346e-20)
(-1.43312 0.121046 -8.76595e-20)
(-1.46403 0.119645 0)
(-1.49479 0.118195 1.6944e-19)
(-1.52539 0.116691 -8.35751e-20)
(-1.55582 0.11513 8.22928e-20)
(-1.58603 0.113507 0)
(-1.61603 0.11182 0)
(-1.64577 0.110065 0)
(-1.67524 0.10824 0)
(-1.7044 0.106341 7.63704e-20)
(-1.73324 0.104367 1.50205e-19)
(-1.76171 0.102315 7.4192e-20)
(-1.7898 0.100184 -7.31363e-20)
(-1.81746 0.097972 0)
(-1.84467 0.095677 1.41855e-19)
(-1.87138 0.0932988 1.39861e-19)
(-1.89758 0.0908357 1.37898e-19)
(-1.92321 0.088288 -1.35964e-19)
(-1.94825 0.0856546 0)
(-1.97265 0.0829363 -1.98392e-19)
(-1.99638 0.0801325 0)
(-2.01939 0.0772445 6.40996e-20)
(-2.04165 0.074272 6.34336e-20)
(-2.06312 0.0712167 0)
(-2.08375 0.0680783 0)
(-2.1035 0.0648589 1.2118e-19)
(-2.12233 0.0615583 0)
(-2.14019 0.0581788 1.17578e-19)
(-2.15705 0.0547204 0)
(-2.17287 0.0511859 -1.13973e-19)
(-2.18759 0.0475759 -2.24473e-19)
(-2.20118 0.0438935 0)
(-2.2136 0.0401401 0)
(-2.2248 0.0363189 0)
(-2.23475 0.0324317 -1.04828e-19)
(-2.24342 0.0284813 0)
(-2.25078 0.0244729 -1.01072e-19)
(-2.2568 0.0204159 0)
(-2.26147 0.0163254 0)
(-2.26478 0.0122226 1.90581e-19)
(-2.26669 0.00813357 0)
(-2.26717 0.00407459 9.12932e-20)
(-2.26615 3.1629e-05 0)
(-2.26355 -0.00401778 8.70688e-20)
(-2.25932 -0.00807099 0)
(-2.2534 -0.012119 0)
(-2.24576 -0.0161553 0)
(-2.23637 -0.0201735 2.34544e-19)
(-2.22522 -0.024166 7.57311e-20)
(-2.21227 -0.0281242 0)
(-2.19753 -0.0320388 0)
(-2.18097 -0.0358998 0)
(-2.16261 -0.039697 0)
(-2.14242 -0.0434194 -6.35448e-20)
(-2.12044 -0.0470562 1.22728e-19)
(-2.09666 -0.0505959 5.8385e-20)
(-2.07111 -0.0540275 -1.12351e-19)
(-2.04381 -0.0573392 -1.0704e-19)
(-2.0148 -0.0605201 -5.03406e-20)
(-1.9841 -0.0635584 0)
(-1.95178 -0.0664435 -9.06375e-20)
(-1.91787 -0.0691645 0)
(-1.88244 -0.0717113 7.93344e-20)
(-1.84556 -0.0740739 3.61838e-20)
(-1.80729 -0.0762436 0)
(-1.76771 -0.0782123 -6.19014e-20)
(-1.72691 -0.0799735 -2.73213e-20)
(-1.68499 -0.0815232 0)
(-1.64202 -0.0828591 -2.27134e-20)
(-1.59812 -0.083988 5.62591e-20)
(-1.55338 -0.0849102 0)
(-1.50791 -0.0856084 0)
(-1.4618 -0.0860883 0)
(-1.41515 -0.0863673 0)
(-1.36809 -0.0864433 7.684e-21)
(-1.32069 -0.0863182 1.07765e-22)
(-1.27307 -0.0859967 0)
(-1.22533 -0.0854859 0)
(-1.17756 -0.0847912 0)
(-1.12987 -0.0839196 0)
(-1.08235 -0.0828759 0)
(-1.03511 -0.0816701 0)
(-0.988222 -0.0803146 -4.08324e-20)
(-0.941783 -0.0788254 -1.46463e-21)
(-0.895878 -0.0772153 0)
(-0.850576 -0.0754938 0)
(-0.805941 -0.0736677 -6.10858e-20)
(-0.762025 -0.0717463 0)
(-0.718876 -0.0697433 7.25957e-20)
(-0.676529 -0.0676725 7.62314e-20)
(-0.635012 -0.0655481 0)
(-0.594339 -0.0633881 0)
(-0.554522 -0.0612152 -9.12803e-20)
(-0.515571 -0.0590604 -1.8911e-19)
(-0.477485 -0.0569532 0)
(-0.44024 -0.0549222 0)
(-0.403788 -0.0529825 0)
(-0.368063 -0.0511544 -1.1115e-19)
(-0.332986 -0.0494522 1.14608e-19)
(-0.298459 -0.0479014 0)
(-0.264367 -0.0465215 2.40816e-19)
(-0.230577 -0.0453377 1.22884e-19)
(-0.196931 -0.0443664 -2.52334e-19)
(-0.163248 -0.0436354 0)
(-0.12933 -0.0431706 0)
(-0.094951 -0.0429996 -2.66861e-19)
(-0.0598577 -0.0431327 -1.35696e-19)
(-0.023782 -0.0435946 0)
(0.0135559 -0.0444011 0)
(0.0523921 -0.0455466 0)
(0.0930971 -0.0470394 0)
(0.136075 -0.0488899 -2.80874e-19)
(0.181698 -0.0511018 0)
(0.230366 -0.0537156 0)
(0.282434 -0.0566973 0)
(0.338276 -0.059967 0)
(0.398267 -0.0635159 0)
(0.462593 -0.0673888 0)
(0.531143 -0.0714683 -2.85059e-19)
(0.603726 -0.0754727 0)
(0.679866 -0.0789924 0)
(0.759163 -0.0813152 -5.90453e-19)
(0.839001 -0.0812385 2.99756e-19)
(0.923295 -0.0753533 -3.08817e-19)
(0.992187 -0.0557443 3.17322e-19)
(-0.0032817 -0.0584522 0)
(-0.00973544 -0.0387084 9.38889e-19)
(-0.0189383 -0.0156232 0)
(-0.0300869 0.00550176 1.8917e-19)
(-0.0423886 0.0246925 0)
(-0.0555178 0.0421629 0)
(-0.0694612 0.0579966 -1.22063e-19)
(-0.084287 0.0722178 0)
(-0.100085 0.0848709 0)
(-0.11695 0.0960608 0)
(-0.134952 0.105958 0)
(-0.154127 0.114778 0)
(-0.174468 0.122747 3.82888e-19)
(-0.19593 0.130072 1.86234e-19)
(-0.218434 0.136918 -1.81218e-19)
(-0.241884 0.143397 0)
(-0.26617 0.149571 0)
(-0.29118 0.155457 0)
(-0.316801 0.16104 0)
(-0.34293 0.166286 0)
(-0.369472 0.171151 1.52848e-19)
(-0.396341 0.175594 1.48421e-19)
(-0.423464 0.179578 -1.44105e-19)
(-0.450779 0.183077 1.39908e-19)
(-0.478232 0.186077 0)
(-0.505783 0.188574 0)
(-0.533398 0.190574 1.28113e-19)
(-0.561055 0.192091 0)
(-0.588743 0.193153 0)
(-0.616458 0.193795 1.17661e-19)
(-0.644198 0.194061 1.14487e-19)
(-0.671966 0.193992 1.11483e-19)
(-0.699765 0.193631 0)
(-0.727602 0.193017 0)
(-0.755484 0.192191 -1.03301e-19)
(-0.783418 0.19119 0)
(-0.81141 0.19005 0)
(-0.839465 0.1888 9.62834e-20)
(-0.867586 0.187469 -9.40792e-20)
(-0.895772 0.186079 9.20401e-20)
(-0.924019 0.184648 0)
(-0.952323 0.183191 0)
(-0.980677 0.181716 1.7297e-19)
(-1.00907 0.180228 0)
(-1.03751 0.178729 1.66245e-19)
(-1.06597 0.177219 2.44692e-19)
(-1.09447 0.175697 -2.40144e-19)
(-1.12298 0.174161 1.57136e-19)
(-1.1515 0.172606 0)
(-1.18002 0.171028 0)
(-1.20854 0.169422 1.49012e-19)
(-1.23704 0.167783 7.33216e-20)
(-1.26551 0.166105 0)
(-1.29394 0.164382 0)
(-1.32231 0.162608 6.97884e-20)
(-1.35061 0.160778 1.37207e-19)
(-1.37883 0.158886 0)
(-1.40694 0.156926 -1.33136e-19)
(-1.43493 0.154892 1.30947e-19)
(-1.46277 0.15278 -1.28973e-19)