/*--------------------------------*- C++ -*----------------------------------*\
  =========                 |
  \\      /  F ield         | OpenFOAM: The Open Source CFD Toolbox
   \\    /   O peration     | Website:  https://openfoam.org
    \\  /    A nd           | Version:  8
     \\/     M anipulation  |
\*---------------------------------------------------------------------------*/
FoamFile
{
    version     2.0;
    format      ascii;
    class       surfaceScalarField;
    location    "700";
    object      phi;
}
// * * * * * * * * * * * * * * * * * * * * * * * * * * * * * * * * * * * * * //

dimensions      [0 3 -1 0 0 0 0];

internalField   nonuniform List<scalar> 
24170
(
2.99871e-06
1.35199e-07
2.84826e-06
1.50525e-07
2.71276e-06
1.35589e-07
2.59472e-06
1.18117e-07
2.49218e-06
1.02649e-07
2.40604e-06
8.6199e-08
2.33694e-06
6.90848e-08
2.27999e-06
5.68873e-08
2.23217e-06
4.77656e-08
2.19247e-06
3.96528e-08
2.16056e-06
3.19114e-08
2.13536e-06
2.51933e-08
2.11449e-06
2.0899e-08
2.09591e-06
1.86306e-08
2.08013e-06
1.58089e-08
2.06831e-06
1.1831e-08
2.06093e-06
7.35571e-09
8.36051e-10
2.0601e-06
3.51744e-06
7.42583e-08
3.55726e-06
1.1107e-07
3.57828e-06
1.14896e-07
3.5813e-06
1.15363e-07
3.56982e-06
1.14339e-07
3.54836e-06
1.07812e-07
3.5205e-06
9.70969e-08
3.48902e-06
8.85177e-08
3.45693e-06
7.99832e-08
3.42411e-06
7.25677e-08
3.3911e-06
6.49965e-08
3.35925e-06
5.70609e-08
3.32828e-06
5.1872e-08
3.29849e-06
4.83786e-08
3.27101e-06
4.32563e-08
3.24636e-06
3.64344e-08
3.22373e-06
2.99517e-08
2.44019e-08
3.20011e-06
3.83245e-06
5.40152e-08
3.85121e-06
9.228e-08
3.86728e-06
9.88126e-08
3.88186e-06
1.00795e-07
3.89487e-06
1.01362e-07
3.90537e-06
9.73225e-08
3.91212e-06
9.03344e-08
3.91607e-06
8.45073e-08
3.91738e-06
7.86079e-08
3.91674e-06
7.31722e-08
3.91424e-06
6.74952e-08
3.90961e-06
6.16844e-08
3.9041e-06
5.73955e-08
3.89861e-06
5.39051e-08
3.89264e-06
4.92492e-08
3.88569e-06
4.33902e-08
3.87789e-06
3.77569e-08
3.23825e-08
3.86995e-06
4.21608e-06
4.25059e-08
4.22859e-06
7.99855e-08
4.23823e-06
8.9352e-08
4.24698e-06
9.22169e-08
4.25551e-06
9.29697e-08
4.26322e-06
8.97327e-08
4.26954e-06
8.41213e-08
4.27519e-06
7.89482e-08
4.28014e-06
7.37344e-08
4.2846e-06
6.8777e-08
4.28841e-06
6.37191e-08
4.29133e-06
5.87847e-08
4.29401e-06
5.47234e-08
4.29683e-06
5.10754e-08
4.29932e-06
4.674e-08
4.30097e-06
4.17266e-08
4.30189e-06
3.68272e-08
3.21056e-08
4.30213e-06
4.64609e-06
3.37306e-08
4.65676e-06
6.92499e-08
4.66527e-06
8.07902e-08
4.67292e-06
8.45513e-08
4.68019e-06
8.56929e-08
4.68665e-06
8.32752e-08
4.69202e-06
7.87442e-08
4.69684e-06
7.40874e-08
4.70121e-06
6.93251e-08
4.70531e-06
6.46548e-08
4.70904e-06
5.99778e-08
4.71235e-06
5.54726e-08
4.71561e-06
5.14872e-08
4.71898e-06
4.77173e-08
4.72215e-06
4.35825e-08
4.72479e-06
3.90927e-08
4.72694e-06
3.46778e-08
3.0478e-08
4.72865e-06
5.12153e-06
2.67966e-08
5.13124e-06
5.96773e-08
5.13954e-06
7.26137e-08
5.14711e-06
7.7098e-08
5.1543e-06
7.86248e-08
5.16067e-06
7.70073e-08
5.16608e-06
7.34271e-08
5.1709e-06
6.93305e-08
5.17528e-06
6.50118e-08
5.17933e-06
6.06438e-08
5.18306e-06
5.62854e-08
5.18647e-06
5.20687e-08
5.1898e-06
4.81605e-08
5.19313e-06
4.43769e-08
5.19626e-06
4.04337e-08
5.19899e-06
3.63374e-08
5.20134e-06
3.23334e-08
2.84478e-08
5.20332e-06
5.64641e-06
2.13983e-08
5.65534e-06
5.06487e-08
5.66356e-06
6.4332e-08
5.67115e-06
6.9482e-08
5.6784e-06
7.13637e-08
5.68493e-06
7.04829e-08
5.69063e-06
6.77261e-08
5.69575e-06
6.42027e-08
5.7004e-06
6.03358e-08
5.70469e-06
5.63475e-08
5.70863e-06
5.23312e-08
5.7123e-06
4.84105e-08
5.71581e-06
4.46504e-08
5.71921e-06
4.09785e-08
5.72239e-06
3.72549e-08
5.72522e-06
3.34977e-08
5.72771e-06
2.98199e-08
2.6316e-08
5.72989e-06
4.40925e-06
1.82539e-08
4.41515e-06
4.48319e-08
4.42102e-06
5.85267e-08
4.4265e-06
6.40884e-08
4.43173e-06
6.62202e-08
4.43653e-06
6.57703e-08
4.44082e-06
6.34989e-08
4.44471e-06
6.03601e-08
4.44827e-06
5.68083e-08
4.45155e-06
5.30943e-08
4.45458e-06
4.93206e-08
4.45739e-06
4.56049e-08
4.46005e-06
4.19901e-08
4.46259e-06
3.8447e-08
4.46494e-06
3.48932e-08
4.46706e-06
3.13605e-08
4.46896e-06
2.79275e-08
2.46347e-08
4.47063e-06
5.14272e-06
1.54013e-08
5.1486e-06
3.88626e-08
5.1548e-06
5.22841e-08
5.16071e-06
5.81611e-08
5.16641e-06
6.05321e-08
5.17171e-06
6.04809e-08
5.17653e-06
5.87023e-08
5.18092e-06
5.59695e-08
5.18496e-06
5.27725e-08
5.18869e-06
4.936e-08
5.19215e-06
4.58647e-08
5.19537e-06
4.23792e-08
5.19841e-06
3.89545e-08
5.20127e-06
3.55754e-08
5.20391e-06
3.22385e-08
5.20631e-06
2.89391e-08
5.20847e-06
2.57511e-08
2.27394e-08
5.21039e-06
5.99837e-06
1.28039e-08
6.00412e-06
3.31324e-08
6.01056e-06
4.58839e-08
6.01688e-06
5.18877e-08
6.02304e-06
5.44215e-08
6.02886e-06
5.47079e-08
6.03421e-06
5.33794e-08
6.03914e-06
5.10614e-08
6.04369e-06
4.82333e-08
6.04792e-06
4.51445e-08
6.05184e-06
4.19442e-08
6.05551e-06
3.8714e-08
6.05895e-06
3.55046e-08
6.06217e-06
3.23668e-08
6.06514e-06
2.92471e-08
6.06784e-06
2.62273e-08
6.0703e-06
2.33116e-08
2.05601e-08
6.07249e-06
6.99658e-06
1.04992e-08
7.00208e-06
2.76006e-08
7.00867e-06
3.92941e-08
7.01535e-06
4.52306e-08
7.02194e-06
4.7853e-08
7.02827e-06
4.84106e-08
7.03419e-06
4.74799e-08
7.03968e-06
4.5588e-08
7.04479e-06
4.3131e-08
7.04955e-06
4.03976e-08
7.05398e-06
3.75075e-08
7.05812e-06
3.45658e-08
7.06201e-06
3.16472e-08
7.06561e-06
2.87493e-08
7.06895e-06
2.59312e-08
7.07199e-06
2.31792e-08
7.07476e-06
2.05597e-08
1.80735e-08
7.07726e-06
8.16108e-06
8.41205e-09
8.16628e-06
2.24052e-08
8.1729e-06
3.26807e-08
8.17988e-06
3.82765e-08
8.18687e-06
4.08797e-08
8.19369e-06
4.16062e-08
8.20018e-06
4.1016e-08
8.20626e-06
3.94918e-08
8.21197e-06
3.74421e-08
8.2173e-06
3.50535e-08
8.22228e-06
3.25266e-08
8.22694e-06
2.99126e-08
8.2313e-06
2.73092e-08
8.23536e-06
2.47236e-08
8.23909e-06
2.22101e-08
8.24251e-06
1.97702e-08
8.24563e-06
1.74503e-08
1.52655e-08
8.24847e-06
9.5196e-06
6.54763e-09
9.52446e-06
1.75514e-08
9.53102e-06
2.61329e-08
9.53821e-06
3.11104e-08
9.54557e-06
3.35441e-08
9.55287e-06
3.43339e-08
9.55991e-06
3.39653e-08
9.56662e-06
3.28065e-08
9.57293e-06
3.10971e-08
9.57888e-06
2.91156e-08
9.58445e-06
2.69348e-08
9.5897e-06
2.47138e-08
9.59457e-06
2.24382e-08
9.59913e-06
2.02236e-08
9.60329e-06
1.80217e-08
9.60715e-06
1.59381e-08
9.61066e-06
1.39227e-08
1.20606e-08
9.61386e-06
1.11044e-05
4.8355e-09
1.1109e-05
1.29906e-08
1.11154e-05
1.96938e-08
1.11227e-05
2.37786e-08
1.11304e-05
2.58662e-08
1.11382e-05
2.65907e-08
1.11458e-05
2.63719e-08
1.11531e-05
2.54687e-08
1.11601e-05
2.41269e-08
1.11667e-05
2.24963e-08
1.11729e-05
2.07291e-08
1.11788e-05
1.88696e-08
1.11843e-05
1.70073e-08
1.11893e-05
1.51365e-08
1.1194e-05
1.33359e-08
1.11983e-05
1.15888e-08
1.12023e-05
9.95361e-09
8.40559e-09
1.12059e-05
1.29532e-05
3.24164e-09
1.29575e-05
8.6461e-09
1.29639e-05
1.33351e-08
1.29713e-05
1.63071e-08
1.29793e-05
1.78491e-08
1.29876e-05
1.83762e-08
1.29957e-05
1.81914e-08
1.30037e-05
1.74958e-08
1.30114e-05
1.64529e-08
1.30187e-05
1.51901e-08
1.30256e-05
1.3807e-08
1.30322e-05
1.23605e-08
1.30383e-05
1.08983e-08
1.3044e-05
9.44933e-09
1.30492e-05
8.04699e-09
1.30541e-05
6.70669e-09
1.30586e-05
5.44761e-09
4.27799e-09
1.30627e-05
1.511e-05
1.70664e-09
1.51142e-05
4.39724e-09
1.51205e-05
6.99503e-09
1.51282e-05
8.63238e-09
1.51366e-05
9.43797e-09
1.51453e-05
9.62492e-09
1.51542e-05
9.36689e-09
1.51629e-05
8.79913e-09
1.51713e-05
8.01281e-09
1.51794e-05
7.09542e-09
1.51871e-05
6.10295e-09
1.51944e-05
5.08114e-09
1.52012e-05
4.05664e-09
1.52076e-05
3.05527e-09
1.52136e-05
2.09396e-09
1.52191e-05
1.18738e-09
1.52242e-05
3.43114e-10
-4.26179e-10
1.52289e-05
1.7626e-05
1.61416e-10
1.76303e-05
9.33197e-11
1.76368e-05
4.5458e-10
1.76449e-05
5.51667e-10
1.76539e-05
4.47551e-10
1.76634e-05
1.27843e-10
1.76731e-05
-2.84264e-10
1.76827e-05
-8.11047e-10
1.76921e-05
-1.3565e-09
1.77011e-05
-1.95207e-09
1.77098e-05
-2.52567e-09
1.7718e-05
-3.10903e-09
1.77257e-05
-3.65093e-09
1.77329e-05
-4.17742e-09
1.77396e-05
-4.65275e-09
1.77459e-05
-5.09636e-09
1.77517e-05
-5.48549e-09
-5.82873e-09
1.77572e-05
1.78277e-05
-1.31802e-09
1.78318e-05
-3.99546e-09
1.78381e-05
-5.83896e-09
1.7846e-05
-7.23432e-09
1.78547e-05
-8.32574e-09
1.78641e-05
-9.12699e-09
1.78735e-05
-9.79001e-09
1.78831e-05
-1.02457e-08
1.78923e-05
-1.06333e-08
1.79013e-05
-1.08741e-08
1.79098e-05
-1.10914e-08
1.79179e-05
-1.1206e-08
1.79255e-05
-1.13155e-08
1.79328e-05
-1.13482e-08
1.79394e-05
-1.138e-08
1.79458e-05
-1.135e-08
1.79515e-05
-1.13206e-08
-1.12335e-08
1.7957e-05
1.58827e-05
-2.71223e-09
1.58866e-05
-7.82729e-09
1.58925e-05
-1.16286e-08
1.58996e-05
-1.43792e-08
1.59076e-05
-1.62484e-08
1.5916e-05
-1.75285e-08
1.59246e-05
-1.83077e-08
1.59331e-05
-1.87663e-08
1.59414e-05
-1.89048e-08
1.59494e-05
-1.88899e-08
1.59571e-05
-1.87002e-08
1.59642e-05
-1.84541e-08
1.59711e-05
-1.81093e-08
1.59775e-05
-1.77531e-08
1.59835e-05
-1.73412e-08
1.5989e-05
-1.69381e-08
1.59942e-05
-1.6501e-08
-1.60759e-08
1.5999e-05
1.41501e-05
-4.137e-09
1.4154e-05
-1.17092e-08
1.41598e-05
-1.73578e-08
1.41667e-05
-2.12419e-08
1.41742e-05
-2.37733e-08
1.41821e-05
-2.53604e-08
1.419e-05
-2.62572e-08
1.41979e-05
-2.65794e-08
1.42055e-05
-2.6516e-08
1.42128e-05
-2.61606e-08
1.42197e-05
-2.56341e-08
1.42263e-05
-2.49778e-08
1.42324e-05
-2.42561e-08
1.42382e-05
-2.34882e-08
1.42435e-05
-2.27122e-08
1.42485e-05
-2.19274e-08
1.42532e-05
-2.11616e-08
-2.03952e-08
1.42575e-05
1.26066e-05
-5.68991e-09
1.26107e-05
-1.58768e-08
1.26166e-05
-2.32549e-08
1.26235e-05
-2.8057e-08
1.26308e-05
-3.10664e-08
1.26383e-05
-3.2882e-08
1.26459e-05
-3.37646e-08
1.26532e-05
-3.39211e-08
1.26603e-05
-3.35685e-08
1.2667e-05
-3.28737e-08
1.26734e-05
-3.1977e-08
1.26794e-05
-3.09286e-08
1.26849e-05
-2.98288e-08
1.26901e-05
-2.86786e-08
1.2695e-05
-2.75519e-08
1.26995e-05
-2.64234e-08
1.27037e-05
-2.53461e-08
-2.42846e-08
1.27075e-05
1.12316e-05
-7.46939e-09
1.12362e-05
-2.05158e-08
1.12424e-05
-2.94457e-08
1.12492e-05
-3.49003e-08
1.12564e-05
-3.82354e-08
1.12637e-05
-4.0175e-08
1.12709e-05
-4.09617e-08
1.12779e-05
-4.08618e-08
1.12845e-05
-4.01686e-08
1.12908e-05
-3.91124e-08
1.12966e-05
-3.78122e-08
1.13021e-05
-3.6392e-08
1.13072e-05
-3.4889e-08
1.13119e-05
-3.34006e-08
1.13163e-05
-3.19105e-08
1.13203e-05
-3.04918e-08
1.13241e-05
-2.91011e-08
-2.77951e-08
1.13276e-05
1.00068e-05
-9.6174e-09
1.0012e-05
-2.58156e-08
1.00186e-05
-3.59876e-08
1.00254e-05
-4.17807e-08
1.00325e-05
-4.53109e-08
1.00396e-05
-4.72855e-08
1.00465e-05
-4.78778e-08
1.00531e-05
-4.745e-08
1.00594e-05
-4.63825e-08
1.00652e-05
-4.4925e-08
1.00706e-05
-4.3229e-08
1.00756e-05
-4.14003e-08
1.00803e-05
-3.95341e-08
1.00846e-05
-3.76762e-08
1.00886e-05
-3.58815e-08
1.00923e-05
-3.41457e-08
1.00956e-05
-3.25107e-08
-3.09353e-08
1.00988e-05
8.91582e-06
-1.23482e-08
8.92191e-06
-3.19128e-08
8.92872e-06
-4.28027e-08
8.93558e-06
-4.86438e-08
8.94258e-06
-5.23156e-08
8.94952e-06
-5.42321e-08
8.95617e-06
-5.45319e-08
8.96244e-06
-5.37176e-08
8.9683e-06
-5.22413e-08
8.97376e-06
-5.03763e-08
8.97882e-06
-4.82693e-08
8.98347e-06
-4.60484e-08
8.98776e-06
-4.38067e-08
8.9917e-06
-4.16094e-08
8.99534e-06
-3.94953e-08
8.99869e-06
-3.74934e-08
9.00181e-06
-3.56016e-08
-3.38234e-08
9.00469e-06
7.94427e-06
-1.59425e-08
7.9513e-06
-3.8975e-08
7.95827e-06
-4.97935e-08
7.96509e-06
-5.54924e-08
7.97205e-06
-5.92763e-08
7.97887e-06
-6.10498e-08
7.98531e-06
-6.09809e-08
7.99134e-06
-5.9744e-08
7.99694e-06
-5.78479e-08
8.00213e-06
-5.55574e-08
8.0069e-06
-5.30376e-08
8.01129e-06
-5.04233e-08
8.0153e-06
-4.78141e-08
8.01899e-06
-4.528e-08
8.02237e-06
-4.28698e-08
8.02549e-06
-4.06016e-08
8.02839e-06
-3.84824e-08
-3.6484e-08
8.03107e-06
7.07915e-06
-2.07706e-08
7.08724e-06
-4.7068e-08
7.09437e-06
-5.69249e-08
7.10134e-06
-6.24524e-08
7.10844e-06
-6.63817e-08
7.11531e-06
-6.79246e-08
7.12176e-06
-6.74405e-08
7.12778e-06
-6.5778e-08
7.13337e-06
-6.34311e-08
7.13854e-06
-6.07191e-08
7.14329e-06
-5.77823e-08
7.14765e-06
-5.47711e-08
7.15163e-06
-5.17974e-08
7.15528e-06
-4.8916e-08
7.15862e-06
-4.62045e-08
7.16171e-06
-4.36764e-08
7.16458e-06
-4.13361e-08
-3.91497e-08
7.16726e-06
6.30932e-06
-2.75792e-08
6.3187e-06
-5.64345e-08
6.32679e-06
-6.50411e-08
6.33493e-06
-7.06016e-08
6.34312e-06
-7.45636e-08
6.35092e-06
-7.57336e-08
6.35825e-06
-7.47771e-08
6.36512e-06
-7.26183e-08
6.37149e-06
-6.98225e-08
6.37738e-06
-6.66101e-08
6.3828e-06
-6.31926e-08
6.38775e-06
-5.97227e-08
6.39227e-06
-5.62868e-08
6.39635e-06
-5.30062e-08
6.40006e-06
-4.99096e-08
6.40345e-06
-4.70583e-08
6.40656e-06
-4.44283e-08
-4.19798e-08
6.4094e-06
5.62794e-06
-4.06201e-08
5.64204e-06
-7.05022e-08
5.65549e-06
-7.85018e-08
5.66928e-06
-8.43884e-08
5.68266e-06
-8.79388e-08
5.69516e-06
-8.82327e-08
5.70659e-06
-8.62023e-08
5.71691e-06
-8.29237e-08
5.726e-06
-7.89239e-08
5.73387e-06
-7.44864e-08
5.74054e-06
-6.98652e-08
5.74609e-06
-6.52399e-08
5.75056e-06
-6.07505e-08
5.75404e-06
-5.64853e-08
5.75664e-06
-5.25116e-08
5.75851e-06
-4.89172e-08
5.75977e-06
-4.56787e-08
-4.29949e-08
5.7608e-06
5.05384e-06
-9.21432e-08
5.09325e-06
-1.09887e-07
5.1239e-06
-1.09153e-07
5.14735e-06
-1.07835e-07
5.16312e-06
-1.03698e-07
5.17161e-06
-9.6727e-08
5.17383e-06
-8.84065e-08
5.17086e-06
-7.9943e-08
5.16372e-06
-7.18031e-08
5.15338e-06
-6.41508e-08
5.14063e-06
-5.7107e-08
5.12612e-06
-5.07058e-08
5.11034e-06
-4.49559e-08
5.09369e-06
-3.98337e-08
5.07649e-06
-3.53113e-08
5.05901e-06
-3.14329e-08
5.04159e-06
-2.82504e-08
-2.61535e-08
5.02476e-06
4.36441e-06
4.25452e-06
4.14537e-06
4.03753e-06
3.93384e-06
3.83711e-06
3.7487e-06
3.66876e-06
3.59696e-06
3.53281e-06
3.4757e-06
3.425e-06
3.38004e-06
3.34021e-06
3.3049e-06
3.27347e-06
3.24522e-06
3.21907e-06
-7.95676e-09
7.94892e-09
-2.16071e-08
1.36351e-08
-3.65071e-08
1.48862e-08
-4.92977e-08
1.27749e-08
-5.49727e-08
5.66052e-09
-4.77134e-08
-7.27207e-09
-2.54484e-08
-2.22797e-08
9.5862e-09
-3.50414e-08
5.33702e-08
-4.37974e-08
1.01257e-07
-4.78862e-08
1.48871e-07
-4.76237e-08
1.932e-07
-4.43229e-08
2.32219e-07
-3.90262e-08
2.64728e-07
-3.25009e-08
2.89989e-07
-2.52635e-08
3.07611e-07
-1.76105e-08
3.17292e-07
-9.67822e-09
3.18732e-07
-1.42709e-09
3.11723e-07
7.01949e-09
2.96448e-07
1.52865e-08
2.73507e-07
2.29588e-08
2.4386e-07
2.96543e-08
2.08911e-07
3.49705e-08
1.70467e-07
3.84515e-08
1.30841e-07
3.96527e-08
9.2598e-08
3.82546e-08
5.83962e-08
3.42344e-08
3.03406e-08
2.8076e-08
9.54094e-09
2.08403e-08
-4.24201e-09
1.38026e-08
-1.18587e-08
7.66302e-09
-1.38725e-08
2.01755e-09
-1.00009e-08
-3.82586e-09
8.13862e-10
-1.08357e-08
2.0252e-08
-1.94012e-08
4.83724e-08
-2.81533e-08
8.17733e-08
-3.33802e-08
1.14371e-07
-3.262e-08
1.40761e-07
-2.63849e-08
1.57606e-07
-1.68524e-08
1.64757e-07
-7.16041e-09
1.64833e-07
-8.76184e-11
1.61268e-07
3.5491e-09
1.5743e-07
3.79902e-09
1.55665e-07
1.73647e-09
1.51299e-07
4.28866e-09
1.35249e-07
1.60182e-08
9.95592e-08
3.56169e-08
3.81379e-08
6.14255e-08
-4.73319e-08
8.54424e-08
-1.51576e-07
1.04276e-07
-2.7189e-07
1.2031e-07
-4.0457e-07
1.32698e-07
-5.45106e-07
1.40558e-07
-6.8876e-07
1.4365e-07
-8.32284e-07
1.43565e-07
-9.7335e-07
1.41048e-07
-1.10908e-06
1.35762e-07
-1.23701e-06
1.27903e-07
-1.35577e-06
1.18776e-07
-1.46578e-06
1.09988e-07
-1.56697e-06
1.0119e-07
-1.6594e-06
9.24203e-08
-1.74422e-06
8.48154e-08
-1.82237e-06
7.81403e-08
-1.8943e-06
7.19273e-08
-1.9607e-06
6.63984e-08
-2.02231e-06
6.15963e-08
-2.07966e-06
5.73587e-08
-2.1333e-06
5.36313e-08
-2.18363e-06
5.03321e-08
-2.23103e-06
4.73857e-08
-2.27575e-06
4.47354e-08
-2.31808e-06
4.23216e-08
-2.35818e-06
4.01054e-08
-2.39622e-06
3.80445e-08
-2.43232e-06
3.61139e-08
-2.4666e-06
3.4285e-08
-2.49914e-06
3.25423e-08
-2.52999e-06
3.08673e-08
-2.55924e-06
2.92498e-08
-2.5869e-06
2.76791e-08
-2.61305e-06
2.61473e-08
-2.63768e-06
2.46495e-08
-2.66085e-06
2.3178e-08
-2.68257e-06
2.17319e-08
-2.70286e-06
2.03005e-08
-2.72173e-06
1.88852e-08
-2.73921e-06
1.74781e-08
-2.75531e-06
1.60699e-08
-2.77e-06
1.46645e-08
-2.78326e-06
1.32522e-08
-2.79508e-06
1.18262e-08
-2.80545e-06
1.03803e-08
-2.81433e-06
8.90222e-09
-2.82168e-06
7.38613e-09
-2.82747e-06
5.81567e-09
-2.83162e-06
4.1836e-09
-2.83408e-06
2.47922e-09
-2.8348e-06
7.53079e-10
-2.83394e-06
-8.49603e-10
-2.83168e-06
-2.24242e-09
-2.82815e-06
-3.52893e-09
-2.82335e-06
-4.7874e-09
-2.8173e-06
-6.04087e-09
-2.81001e-06
-7.2913e-09
-2.80146e-06
-8.54493e-09
-2.79166e-06
-9.7957e-09
-2.78061e-06
-1.10485e-08
-2.7683e-06
-1.22956e-08
-2.75476e-06
-1.35426e-08
-2.73997e-06
-1.47806e-08
-2.72396e-06
-1.60161e-08
-2.70671e-06
-1.72393e-08
-2.68826e-06
-1.84577e-08
-2.6686e-06
-1.96604e-08
-2.64775e-06
-2.08559e-08
-2.62572e-06
-2.20329e-08
-2.60253e-06
-2.32005e-08
-2.57819e-06
-2.43471e-08
-2.55273e-06
-2.54822e-08
-2.52615e-06
-2.65947e-08
-2.49849e-06
-2.76936e-08
-2.46975e-06
-2.87692e-08
-2.43995e-06
-2.98295e-08
-2.40913e-06
-3.08668e-08
-2.37728e-06
-3.18869e-08
-2.34445e-06
-3.28837e-08
-2.31065e-06
-3.38576e-08
-2.27589e-06
-3.48025e-08
-2.24022e-06
-3.57199e-08
-2.20364e-06
-3.662e-08
-2.16618e-06
-3.75029e-08
-2.12788e-06
-3.83591e-08
-2.08877e-06
-3.91705e-08
-2.0489e-06
-3.99284e-08
-2.00831e-06
-4.06138e-08
-1.9671e-06
-4.12382e-08
-1.92515e-06
-4.1982e-08
-1.88242e-06
-4.28019e-08
-1.83899e-06
-4.35111e-08
-1.79489e-06
-4.41955e-08
-1.75011e-06
-4.48272e-08
-1.70472e-06
-4.54361e-08
-1.65871e-06
-4.60017e-08
-1.61213e-06
-4.65525e-08
-1.56497e-06
-4.70655e-08
-1.51726e-06
-4.75666e-08
-1.46905e-06
-4.80477e-08
-1.42038e-06
-4.852e-08
-1.37125e-06
-4.89823e-08
-1.3217e-06
-4.94241e-08
-1.27174e-06
-4.98436e-08
-1.22141e-06
-5.02335e-08
-1.17073e-06
-5.05979e-08
-1.11973e-06
-5.09373e-08
-1.06843e-06
-5.1256e-08
-1.01684e-06
-5.15558e-08
-9.64989e-07
-5.18426e-08
-9.1288e-07
-5.2116e-08
-8.60522e-07
-5.23825e-08
-8.07922e-07
-5.26372e-08
-7.55093e-07
-5.28848e-08
-7.02043e-07
-5.31151e-08
-6.48792e-07
-5.33342e-08
-5.95347e-07
-5.35338e-08
-5.41728e-07
-5.3724e-08
-4.87938e-07
-5.38986e-08
-4.33993e-07
-5.40685e-08
-3.79895e-07
-5.42218e-08
-3.25671e-07
-5.43634e-08
-2.71341e-07
-5.44679e-08
-2.16989e-07
-5.45047e-08
-1.62716e-07
-5.44203e-08
-1.0873e-07
-5.41449e-08
-5.54234e-08
-5.34559e-08
-3.45359e-09
-5.21204e-08
4.55838e-08
-4.91621e-08
9.1208e-08
-4.57282e-08
-2.20517e-08
1.13186e-07
-3.41976e-09
1.13539e-08
-9.44882e-09
1.96373e-08
-1.22486e-08
1.7657e-08
-4.92808e-09
5.42233e-09
1.74057e-08
-1.66973e-08
5.4016e-08
-4.3897e-08
1.00592e-07
-6.88666e-08
1.51731e-07
-8.61847e-08
2.02404e-07
-9.44765e-08
2.49391e-07
-9.48736e-08
2.91196e-07
-8.9433e-08
3.27132e-07
-8.02563e-08
3.57066e-07
-6.8964e-08
3.81199e-07
-5.66291e-08
3.99836e-07
-4.39003e-08
4.13364e-07
-3.11316e-08
4.22183e-07
-1.84929e-08
4.26841e-07
-6.07589e-09
4.27717e-07
6.15343e-09
4.24707e-07
1.83059e-08
4.17346e-07
3.03333e-08
4.05026e-07
4.19829e-08
3.87198e-07
5.28144e-08
3.63486e-07
6.21726e-08
3.33922e-07
6.92341e-08
2.9908e-07
7.31091e-08
2.60287e-07
7.30478e-08
2.19667e-07
6.87102e-08
1.80201e-07
6.03326e-08
1.45397e-07
4.86205e-08
1.18715e-07
3.43795e-08
1.02567e-07
1.81712e-08
9.84728e-08
3.04608e-10
1.05978e-07
-1.83577e-08
1.23318e-07
-3.67206e-08
1.45554e-07
-5.04133e-08
1.65825e-07
-5.36447e-08
1.78896e-07
-4.57058e-08
1.82929e-07
-3.04207e-08
1.77792e-07
-1.17197e-08
1.64576e-07
6.05004e-09
1.45144e-07
1.93347e-08
1.15554e-07
3.3124e-08
6.62387e-08
5.30792e-08
-1.19876e-08
7.99261e-08
-1.21217e-07
1.1347e-07
-2.54232e-07
1.49005e-07
-4.01311e-07
1.82672e-07
-5.53939e-07
2.14043e-07
-7.09146e-07
2.40637e-07
-8.65026e-07
2.60154e-07
-1.01766e-06
2.72934e-07
-1.16378e-06
2.7883e-07
-1.3007e-06
2.77484e-07
-1.42653e-06
2.69486e-07
-1.53979e-06
2.56846e-07
-1.64032e-06
2.4158e-07
-1.72915e-06
2.24602e-07
-1.80786e-06
2.0661e-07
-1.87786e-06
1.88771e-07
-1.9401e-06
1.7222e-07
-1.99597e-06
1.57057e-07
-2.04689e-06
1.43331e-07
-2.09349e-06
1.3141e-07
-2.13641e-06
1.2106e-07
-2.17646e-06
1.11975e-07
-2.2141e-06
1.04029e-07
-2.2496e-06
9.70911e-08
-2.28322e-06
9.09826e-08
-2.31516e-06
8.55641e-08
-2.34554e-06
8.07116e-08
-2.37447e-06
7.63172e-08
-2.40203e-06
7.22954e-08
-2.42828e-06
6.85716e-08
-2.45326e-06
6.50889e-08
-2.47701e-06
6.17983e-08
-2.49956e-06
5.86641e-08
-2.52092e-06
5.56546e-08
-2.54112e-06
5.2748e-08
-2.56017e-06
4.99241e-08
-2.57808e-06
4.71691e-08
-2.59487e-06
4.44705e-08
-2.61053e-06
4.18188e-08
-2.62508e-06
3.92064e-08
-2.63852e-06
3.66259e-08
-2.65085e-06
3.40721e-08
-2.66208e-06
3.15372e-08
-2.6722e-06
2.90173e-08
-2.68124e-06
2.65034e-08
-2.68918e-06
2.39951e-08
-2.69601e-06
2.14842e-08
-2.70174e-06
1.89685e-08
-2.70635e-06
1.64447e-08
-2.70986e-06
1.39079e-08
-2.71229e-06
1.13572e-08
-2.71368e-06
8.79253e-09
-2.71405e-06
6.21667e-09
-2.71348e-06
3.63925e-09
-2.71206e-06
1.08201e-09
-2.70987e-06
-1.42157e-09
-2.70683e-06
-3.87543e-09
-2.70275e-06
-6.3231e-09
-2.69748e-06
-8.78321e-09
-2.69102e-06
-1.1248e-08
-2.68334e-06
-1.37172e-08
-2.67443e-06
-1.61908e-08
-2.66431e-06
-1.86676e-08
-2.65295e-06
-2.11455e-08
-2.64038e-06
-2.36223e-08
-2.62657e-06
-2.60947e-08
-2.61155e-06
-2.85607e-08
-2.59531e-06
-3.10165e-08
-2.57787e-06
-3.34602e-08
-2.55922e-06
-3.58877e-08
-2.53938e-06
-3.82977e-08
-2.51835e-06
-4.06853e-08
-2.49616e-06
-4.30502e-08
-2.47281e-06
-4.53872e-08
-2.44832e-06
-4.76967e-08
-2.4227e-06
-4.99732e-08
-2.39598e-06
-5.22186e-08
-2.36816e-06
-5.4427e-08
-2.33927e-06
-5.66012e-08
-2.30932e-06
-5.87354e-08
-2.27834e-06
-6.08332e-08
-2.24635e-06
-6.28886e-08
-2.21336e-06
-6.49048e-08
-2.17941e-06
-6.6875e-08
-2.1445e-06
-6.87996e-08
-2.10867e-06
-7.06705e-08
-2.07192e-06
-7.24937e-08
-2.0343e-06
-7.4273e-08
-1.99582e-06
-7.60145e-08
-1.95651e-06
-7.77065e-08
-1.91638e-06
-7.93388e-08
-1.87544e-06
-8.08995e-08
-1.83368e-06
-8.23915e-08
-1.79109e-06
-8.38404e-08
-1.74778e-06
-8.53267e-08
-1.70381e-06
-8.68168e-08
-1.65915e-06
-8.82256e-08
-1.61383e-06
-8.95703e-08
-1.56785e-06
-9.08418e-08
-1.52125e-06
-9.20545e-08
-1.47404e-06
-9.32053e-08
-1.42625e-06
-9.43052e-08
-1.37788e-06
-9.53537e-08
-1.32898e-06
-9.63628e-08
-1.27958e-06
-9.73396e-08
-1.22971e-06
-9.82891e-08
-1.17939e-06
-9.92119e-08
-1.12865e-06
-1.00092e-07
-1.0775e-06
-1.00924e-07
-1.02597e-06
-1.017e-07
-9.74097e-07
-1.02421e-07
-9.21904e-07
-1.03096e-07
-8.69409e-07
-1.03724e-07
-8.16637e-07
-1.04318e-07
-7.63598e-07
-1.04879e-07
-7.10308e-07
-1.0542e-07
-6.56774e-07
-1.05936e-07
-6.03009e-07
-1.06439e-07
-5.49019e-07
-1.06916e-07
-4.94818e-07
-1.07372e-07
-4.40419e-07
-1.07793e-07
-3.85835e-07
-1.0819e-07
-3.31079e-07
-1.08555e-07
-2.7616e-07
-1.08904e-07
-2.21088e-07
-1.09228e-07
-1.65873e-07
-1.09533e-07
-1.10532e-07
-1.09802e-07
-5.50894e-08
-1.10014e-07
4.03368e-10
-1.10101e-07
5.58635e-08
-1.09984e-07
1.111e-07
-1.09483e-07
1.65821e-07
-1.08275e-07
2.19484e-07
-1.05878e-07
2.71554e-07
-1.01316e-07
3.18711e-07
-9.29573e-08
-6.72361e-08
3.63837e-07
3.89314e-10
1.09512e-08
4.03976e-09
1.59627e-08
1.86287e-08
3.0456e-09
5.16606e-08
-2.76243e-08
1.01653e-07
-6.6699e-08
1.59265e-07
-1.01514e-07
2.14858e-07
-1.24465e-07
2.62962e-07
-1.3429e-07
3.01919e-07
-1.33437e-07
3.32385e-07
-1.2534e-07
3.5589e-07
-1.12941e-07
3.73941e-07
-9.83057e-08
3.87688e-07
-8.27122e-08
3.97941e-07
-6.6879e-08
4.05224e-07
-5.11837e-08
4.0991e-07
-3.58125e-08
4.12271e-07
-2.08508e-08
4.12549e-07
-6.34629e-09
4.11026e-07
7.68358e-09
4.0806e-07
2.12804e-08
4.03913e-07
3.44918e-08
3.98607e-07
4.72982e-08
3.91871e-07
5.95629e-08
3.83101e-07
7.09539e-08
3.71454e-07
8.08959e-08
3.56023e-07
8.85503e-08
3.36216e-07
9.28708e-08
3.12169e-07
9.27691e-08
2.85107e-07
8.74089e-08
2.57341e-07
7.6397e-08
2.31833e-07
5.99038e-08
2.11335e-07
3.86718e-08
1.97558e-07
1.40949e-08
1.9057e-07
-1.13787e-08
1.86316e-07
-3.24619e-08
1.77417e-07
-4.15255e-08
1.59646e-07
-3.58732e-08
1.32853e-07
-1.89203e-08
9.78684e-08
4.56903e-09
5.30516e-08
3.30994e-08
-6.7057e-09
6.58084e-08
-8.83205e-08
1.00952e-07
-1.94319e-07
1.39118e-07
-3.21907e-07
1.8066e-07
-4.65419e-07
2.23428e-07
-6.16269e-07
2.64308e-07
-7.68025e-07
3.0075e-07
-9.1592e-07
3.30553e-07
-1.0546e-06
3.52709e-07
-1.18086e-06
3.66881e-07
-1.29361e-06
3.72898e-07
-1.39207e-06
3.71386e-07
-1.47641e-06
3.63169e-07
-1.5482e-06
3.49284e-07
-1.60989e-06
3.31184e-07
-1.66366e-06
3.10619e-07
-1.71116e-06
2.89089e-07
-1.75408e-06
2.6752e-07
-1.79402e-06
2.46556e-07
-1.83206e-06
2.26807e-07
-1.8686e-06
2.08756e-07
-1.90404e-06
1.9249e-07
-1.93863e-06
1.7792e-07
-1.97229e-06
1.65068e-07
-2.005e-06
1.53767e-07
-2.03681e-06
1.43781e-07
-2.06772e-06
1.34932e-07
-2.09769e-06
1.27057e-07
-2.1267e-06
1.19995e-07
-2.15475e-06
1.13606e-07
-2.18181e-06
1.0777e-07
-2.20787e-06
1.02383e-07
-2.23294e-06
9.73605e-08
-2.257e-06
9.2631e-08
-2.28005e-06
8.81375e-08
-2.30208e-06
8.38334e-08
-2.32309e-06
7.9682e-08
-2.34309e-06
7.56539e-08
-2.36206e-06
7.17263e-08
-2.38001e-06
6.78807e-08
-2.39694e-06
6.41027e-08
-2.41285e-06
6.03808e-08
-2.42773e-06
5.67053e-08
-2.44158e-06
5.30686e-08
-2.45442e-06
4.94636e-08
-2.46622e-06
4.58845e-08
-2.477e-06
4.23247e-08
-2.48676e-06
3.87784e-08
-2.4955e-06
3.5241e-08
-2.50323e-06
3.17039e-08
-2.50992e-06
2.81685e-08
-2.51558e-06
2.46283e-08
-2.52021e-06
2.10818e-08
-2.52381e-06
1.75266e-08
-2.5264e-06
1.39641e-08
-2.52798e-06
1.0394e-08
-2.52856e-06
6.82181e-09
-2.52816e-06
3.25136e-09
-2.52675e-06
-3.07201e-10
-2.52431e-06
-3.85389e-09
-2.52077e-06
-7.40507e-09
-2.5161e-06
-1.09852e-08
-2.51029e-06
-1.45938e-08
-2.50331e-06
-1.82234e-08
-2.49515e-06
-2.18672e-08
-2.48582e-06
-2.55228e-08
-2.4753e-06
-2.91849e-08
-2.46359e-06
-3.28511e-08
-2.4507e-06
-3.65157e-08
-2.43661e-06
-4.01762e-08
-2.42134e-06
-4.38264e-08
-2.40489e-06
-4.7464e-08
-2.38727e-06
-5.10825e-08
-2.36847e-06
-5.46798e-08
-2.34852e-06
-5.82494e-08
-2.32742e-06
-6.1789e-08
-2.30517e-06
-6.52924e-08
-2.2818e-06
-6.87578e-08
-2.25732e-06
-7.21795e-08
-2.23175e-06
-7.55561e-08
-2.20509e-06
-7.8883e-08
-2.17736e-06
-8.21592e-08
-2.14859e-06
-8.53812e-08
-2.1188e-06
-8.8548e-08
-2.08799e-06
-9.1657e-08
-2.05619e-06
-9.47068e-08
-2.02342e-06
-9.76947e-08
-1.9897e-06
-1.00618e-07
-1.95505e-06
-1.03472e-07
-1.91949e-06
-1.06255e-07
-1.88304e-06
-1.08966e-07
-1.84572e-06
-1.11613e-07
-1.80756e-06
-1.14198e-07
-1.76859e-06
-1.16714e-07
-1.72881e-06
-1.19151e-07
-1.68823e-06
-1.21504e-07
-1.64686e-06
-1.23777e-07
-1.60472e-06
-1.25996e-07
-1.56189e-06
-1.28195e-07
-1.51839e-06
-1.30357e-07
-1.47423e-06
-1.32438e-07
-1.42941e-06
-1.34431e-07
-1.38396e-06
-1.36333e-07
-1.33788e-06
-1.38149e-07
-1.29121e-06
-1.39882e-07
-1.24397e-06
-1.41537e-07
-1.19616e-06
-1.43119e-07
-1.14783e-06
-1.4464e-07
-1.09901e-06
-1.46108e-07
-1.04972e-06
-1.47532e-07
-9.99991e-07
-1.48906e-07
-9.49836e-07
-1.50216e-07
-8.99284e-07
-1.51449e-07
-8.4836e-07
-1.52601e-07
-7.97094e-07
-1.5367e-07
-7.4551e-07
-1.54667e-07
-6.93631e-07
-1.55594e-07
-6.41477e-07
-1.56467e-07
-5.89065e-07
-1.57291e-07
-5.36408e-07
-1.58077e-07
-4.83518e-07
-1.5883e-07
-4.30404e-07
-1.59556e-07
-3.77077e-07
-1.6025e-07
-3.23548e-07
-1.60906e-07
-2.69832e-07
-1.61518e-07
-2.15938e-07
-1.62088e-07
-1.61881e-07
-1.6262e-07
-1.07668e-07
-1.6312e-07
-5.33094e-08
-1.63594e-07
1.19425e-09
-1.64038e-07
5.58258e-08
-1.64438e-07
1.1056e-07
-1.64748e-07
1.65346e-07
-1.64891e-07
2.201e-07
-1.64738e-07
2.74681e-07
-1.64067e-07
3.28897e-07
-1.62493e-07
3.82424e-07
-1.59409e-07
4.3486e-07
-1.53753e-07
4.85266e-07
-1.43365e-07
-1.18947e-07
5.36982e-07
-6.25793e-11
1.10028e-08
1.30116e-08
2.87239e-09
5.23773e-08
-3.63313e-08
1.13437e-07
-8.86894e-08
1.79319e-07
-1.32586e-07
2.36155e-07
-1.58352e-07
2.78419e-07
-1.66732e-07
3.06964e-07
-1.62836e-07
3.25284e-07
-1.51761e-07
3.36969e-07
-1.37024e-07
3.44635e-07
-1.20611e-07
3.49862e-07
-1.03531e-07
3.53441e-07
-8.62929e-08
3.55725e-07
-6.91607e-08
3.56827e-07
-5.22861e-08
3.56789e-07
-3.57699e-08
3.55627e-07
-1.9686e-08
3.53385e-07
-4.09804e-09
3.50133e-07
1.0941e-08
3.46018e-07
2.54043e-08
3.41252e-07
3.9267e-08
3.36066e-07
5.24941e-08
3.30626e-07
6.50154e-08
3.24927e-07
7.66638e-08
3.18714e-07
8.71231e-08
3.11455e-07
9.58218e-08
3.02427e-07
1.01914e-07
2.90913e-07
1.04292e-07
2.76564e-07
1.01773e-07
2.59551e-07
9.34154e-08
2.40844e-07
7.86227e-08
2.21777e-07
5.7738e-08
2.02995e-07
3.28899e-08
1.81265e-07
1.03452e-08
1.49639e-07
-8.24797e-10
1.05051e-07
3.05423e-09
4.8706e-08
2.04837e-08
-1.9962e-08
4.97526e-08
-1.03699e-07
8.8315e-08
-2.03691e-07
1.33099e-07
-3.18984e-07
1.81108e-07
-4.47656e-07
2.29627e-07
-5.85306e-07
2.76768e-07
-7.25685e-07
3.21035e-07
-8.62835e-07
3.60572e-07
-9.91346e-07
3.92809e-07
-1.10696e-06
4.16353e-07
-1.20786e-06
4.31439e-07
-1.29342e-06
4.38265e-07
-1.36411e-06
4.37555e-07
-1.42161e-06
4.30384e-07
-1.46808e-06
4.1786e-07
-1.50609e-06
4.01172e-07
-1.53829e-06
3.81485e-07
-1.56708e-06
3.59977e-07
-1.59421e-06
3.37749e-07
-1.62077e-06
3.1565e-07
-1.64749e-06
2.94241e-07
-1.67482e-06
2.73894e-07
-1.70292e-06
2.54905e-07
-1.73164e-06
2.37477e-07
-1.7608e-06
2.21645e-07
-1.79021e-06
2.07325e-07
-1.8196e-06
1.94462e-07
-1.84877e-06
1.82936e-07
-1.87757e-06
1.72577e-07
-1.90587e-06
1.63229e-07
-1.93357e-06
1.54749e-07
-1.96057e-06
1.47e-07
-1.98683e-06
1.39859e-07
-2.01228e-06
1.33221e-07
-2.03689e-06
1.26993e-07
-2.06063e-06
1.21098e-07
-2.08347e-06
1.15471e-07
-2.10539e-06
1.1006e-07
-2.12638e-06
1.04823e-07
-2.14642e-06
9.97254e-08
-2.16551e-06
9.47411e-08
-2.18363e-06
8.98495e-08
-2.20077e-06
8.50338e-08
-2.21695e-06
8.02813e-08
-2.23215e-06
7.55812e-08
-2.24636e-06
7.09252e-08
-2.25959e-06
6.6306e-08
-2.27184e-06
6.17172e-08
-2.28311e-06
5.71533e-08
-2.29339e-06
5.26082e-08
-2.30268e-06
4.80766e-08
-2.311e-06
4.35506e-08
-2.31833e-06
3.90299e-08
-2.32468e-06
3.45038e-08
-2.33002e-06
2.99731e-08
-2.33436e-06
2.54343e-08
-2.3377e-06
2.08846e-08
-2.34005e-06
1.63236e-08
-2.34138e-06
1.17498e-08
-2.34171e-06
7.16476e-09
-2.34101e-06
2.56802e-09
-2.33926e-06
-2.03858e-09
-2.33645e-06
-6.66153e-09
-2.33253e-06
-1.1312e-08
-2.32751e-06
-1.60021e-08
-2.32137e-06
-2.0729e-08
-2.31411e-06
-2.54861e-08
-2.30571e-06
-3.02658e-08
-2.29616e-06
-3.50634e-08
-2.28548e-06
-3.98721e-08
-2.27364e-06
-4.46873e-08
-2.26065e-06
-4.95022e-08
-2.24651e-06
-5.43123e-08
-2.23122e-06
-5.91103e-08
-2.21479e-06
-6.38922e-08
-2.19722e-06
-6.86502e-08
-2.17852e-06
-7.33809e-08
-2.15869e-06
-7.80758e-08
-2.13775e-06
-8.27323e-08
-2.1157e-06
-8.73414e-08
-2.09255e-06