/*--------------------------------*- C++ -*----------------------------------*\
  =========                 |
  \\      /  F ield         | OpenFOAM: The Open Source CFD Toolbox
   \\    /   O peration     | Website:  https://openfoam.org
    \\  /    A nd           | Version:  8
     \\/     M anipulation  |
\*---------------------------------------------------------------------------*/
FoamFile
{
    version     2.0;
    format      ascii;
    class       volVectorField;
    location    "700";
    object      U;
}
// * * * * * * * * * * * * * * * * * * * * * * * * * * * * * * * * * * * * * //

dimensions      [0 1 -1 0 0 0 0];

internalField   nonuniform List<vector> 
12225
(
(9.76852 0.0455055 0)
(9.32253 0.0908606 0)
(8.8715 0.10167 0)
(8.46104 0.0921044 0)
(8.10716 0.0859937 0)
(7.80161 0.0755109 0)
(7.55756 0.0534603 0)
(7.35969 0.0421737 0)
(7.19554 0.0291547 0)
(7.05258 0.0254072 0)
(6.94048 0.0225269 0)
(6.85146 0.00984089 0)
(6.77815 0.011057 0)
(6.71703 0.0201496 0)
(6.6601 0.0151119 0)
(6.6169 -0.000473792 0)
(6.58346 -0.00705143 0)
(6.56756 -0.00505324 0)
(10.0788 0.0586752 0)
(10.2423 0.0914614 0)
(10.3414 0.089138 0)
(10.3697 0.0851176 0)
(10.3554 0.0814689 0)
(10.3012 0.0768803 0)
(10.2299 0.0719217 0)
(10.1426 0.0657405 0)
(10.0476 0.0618935 0)
(9.95772 0.0560187 0)
(9.85751 0.0493957 0)
(9.7653 0.0460175 0)
(9.67503 0.0412785 0)
(9.58706 0.0365917 0)
(9.50086 0.0347805 0)
(9.42601 0.0329991 0)
(9.35854 0.0269693 0)
(9.29368 0.0185654 0)
(10.0191 0.0419441 0)
(10.0742 0.064671 0)
(10.1261 0.0692842 0)
(10.166 0.0744718 0)
(10.2012 0.0791286 0)
(10.2318 0.079551 0)
(10.2548 0.0776316 0)
(10.269 0.0765249 0)
(10.2758 0.0743309 0)
(10.2766 0.0719087 0)
(10.2722 0.0688345 0)
(10.2628 0.0650336 0)
(10.2492 0.0624009 0)
(10.2347 0.0604365 0)
(10.2192 0.0569453 0)
(10.2019 0.0522676 0)
(10.1828 0.0477605 0)
(10.1617 0.0419082 0)
(10.0077 0.0306616 0)
(10.0395 0.0549107 0)
(10.0701 0.0635584 0)
(10.0921 0.0687329 0)
(10.1115 0.0721783 0)
(10.1304 0.0721508 0)
(10.1471 0.0698946 0)
(10.1615 0.0680861 0)
(10.1742 0.0660662 0)
(10.1854 0.0640998 0)
(10.1952 0.061696 0)
(10.2033 0.0590621 0)
(10.2099 0.0573295 0)
(10.2163 0.0559179 0)
(10.2225 0.0533119 0)
(10.2273 0.0493205 0)
(10.2304 0.045061 0)
(10.2323 0.0406625 0)
(10.0045 0.0236419 0)
(10.0279 0.0486637 0)
(10.0518 0.0585347 0)
(10.07 0.0632514 0)
(10.0851 0.0662799 0)
(10.0995 0.0667287 0)
(10.1122 0.0654265 0)
(10.1233 0.0640571 0)
(10.1333 0.0624183 0)
(10.1424 0.0606774 0)
(10.1508 0.0586212 0)
(10.1584 0.0564195 0)
(10.1655 0.0546565 0)
(10.1726 0.0529957 0)
(10.1795 0.0505001 0)
(10.1858 0.0470877 0)
(10.191 0.0434149 0)
(10.1954 0.0396687 0)
(10.0031 0.0188625 0)
(10.0205 0.0419703 0)
(10.0407 0.0524183 0)
(10.0573 0.0575783 0)
(10.0711 0.0609712 0)
(10.0839 0.0620312 0)
(10.0954 0.061407 0)
(10.1055 0.0602914 0)
(10.1145 0.0588099 0)
(10.1227 0.0571098 0)
(10.1303 0.0551746 0)
(10.1373 0.0531363 0)
(10.1439 0.0512697 0)
(10.1503 0.049346 0)
(10.1566 0.0468831 0)
(10.1623 0.0438263 0)
(10.1673 0.0405281 0)
(10.1717 0.0371214 0)
(10.0021 0.0151608 0)
(10.0152 0.0358997 0)
(10.0323 0.0466027 0)
(10.0474 0.0521052 0)
(10.0603 0.0556241 0)
(10.0721 0.0570384 0)
(10.083 0.0568764 0)
(10.0926 0.0560375 0)
(10.1013 0.0547902 0)
(10.1092 0.0532769 0)
(10.1165 0.0515402 0)
(10.1232 0.0496794 0)
(10.1296 0.0478134 0)
(10.1357 0.0458125 0)
(10.1415 0.0434336 0)
(10.1468 0.0406577 0)
(10.1515 0.037678 0)
(10.1557 0.0345857 0)
(10.0015 0.0125283 0)
(10.0119 0.0312765 0)
(10.0266 0.0419931 0)
(10.0405 0.0476318 0)
(10.0525 0.0511197 0)
(10.0636 0.052748 0)
(10.0739 0.0529304 0)
(10.0833 0.0523409 0)
(10.0918 0.0512754 0)
(10.0995 0.0498986 0)
(10.1067 0.0482721 0)
(10.1133 0.0464961 0)
(10.1195 0.0446227 0)
(10.1253 0.0426012 0)
(10.1309 0.0403033 0)
(10.1359 0.0377346 0)
(10.1405 0.0349914 0)
(10.1446 0.0321596 0)
(10.0012 0.0105808 0)
(10.0096 0.0273373 0)
(10.0223 0.0378194 0)
(10.035 0.0435439 0)
(10.0464 0.047052 0)
(10.0569 0.0488336 0)
(10.0667 0.0492469 0)
(10.0757 0.0488375 0)
(10.0839 0.0479235 0)
(10.0915 0.0466785 0)
(10.0985 0.0451775 0)
(10.105 0.0435018 0)
(10.111 0.0416892 0)
(10.1167 0.039711 0)
(10.1221 0.037511 0)
(10.127 0.0350922 0)
(10.1314 0.0325374 0)
(10.1354 0.0299141 0)
(10.0009 0.008869 0)
(10.0076 0.0234861 0)
(10.0185 0.0334539 0)
(10.0299 0.0391556 0)
(10.0405 0.0426434 0)
(10.0503 0.0445302 0)
(10.0596 0.0451469 0)
(10.0682 0.0449145 0)
(10.0762 0.0441567 0)
(10.0835 0.0430424 0)
(10.0903 0.041666 0)
(10.0966 0.0400876 0)
(10.1025 0.0383444 0)
(10.1081 0.036445 0)
(10.1132 0.0343515 0)
(10.118 0.0320988 0)
(10.1223 0.0297323 0)
(10.1262 0.0273355 0)
(10.0007 0.00734246 0)
(10.006 0.0197974 0)
(10.0151 0.0289827 0)
(10.0252 0.0345146 0)
(10.035 0.0379108 0)
(10.0441 0.0398376 0)
(10.0528 0.0406038 0)
(10.061 0.0405407 0)
(10.0686 0.0399281 0)
(10.0757 0.0389485 0)
(10.0823 0.0376897 0)
(10.0884 0.0362154 0)
(10.0941 0.0345715 0)
(10.0995 0.032774 0)
(10.1044 0.0308175 0)
(10.109 0.0287383 0)
(10.1131 0.0265784 0)
(10.1169 0.0243814 0)
(10.0005 0.00597068 0)
(10.0047 0.0162854 0)
(10.0122 0.0244485 0)
(10.021 0.0296318 0)
(10.0299 0.0328537 0)
(10.0383 0.0347435 0)
(10.0465 0.0355975 0)
(10.0542 0.0356646 0)
(10.0615 0.0351937 0)
(10.0682 0.034338 0)
(10.0745 0.0332075 0)
(10.0804 0.0318519 0)
(10.086 0.0303401 0)
(10.0911 0.0286632 0)
(10.0959 0.0268776 0)
(10.1003 0.024974 0)
(10.1043 0.0230209 0)
(10.1079 0.0210341 0)
(10.0004 0.00473299 0)
(10.0037 0.013002 0)
(10.0098 0.0199417 0)
(10.0174 0.0245727 0)
(10.0253 0.0275112 0)
(10.0331 0.0292715 0)
(10.0406 0.030126 0)
(10.0478 0.0302758 0)
(10.0547 0.0299115 0)
(10.0612 0.0291807 0)
(10.0672 0.0281738 0)
(10.0729 0.0269665 0)
(10.0782 0.025584 0)
(10.0832 0.0240788 0)
(10.0878 0.0224492 0)
(10.092 0.0207537 0)
(10.0958 0.0189933 0)
(10.0994 0.0172345 0)
(10.0003 0.00360957 0)
(10.0029 0.00992826 0)
(10.0079 0.0155056 0)
(10.0144 0.0193899 0)
(10.0214 0.0219116 0)
(10.0284 0.0234381 0)
(10.0353 0.0242001 0)
(10.0421 0.024365 0)
(10.0486 0.024066 0)
(10.0547 0.0234402 0)
(10.0605 0.0225566 0)
(10.0659 0.0214907 0)
(10.071 0.0202638 0)
(10.0758 0.0189237 0)
(10.0802 0.0174807 0)
(10.0842 0.0159849 0)
(10.088 0.0144431 0)
(10.0914 0.012898 0)
(10.0003 0.00256773 0)
(10.0024 0.00702194 0)
(10.0065 0.0111444 0)
(10.012 0.014114 0)
(10.0181 0.0160716 0)
(10.0245 0.0172502 0)
(10.0308 0.0178277 0)
(10.0371 0.0179206 0)
(10.0432 0.0176453 0)
(10.049 0.0170803 0)
(10.0545 0.0163124 0)
(10.0597 0.0153702 0)
(10.0646 0.0143097 0)
(10.0691 0.013134 0)
(10.0734 0.0118997 0)
(10.0773 0.0106057 0)
(10.0809 0.00930076 0)
(10.0842 0.00797957 0)
(10.0002 0.00157862 0)
(10.002 0.00421863 0)
(10.0054 0.00682641 0)
(10.0102 0.00873295 0)
(10.0156 0.00997648 0)
(10.0214 0.0106855 0)
(10.0273 0.01097 0)
(10.0331 0.0109154 0)
(10.0388 0.0105891 0)
(10.0443 0.0100548 0)
(10.0495 0.00936192 0)
(10.0545 0.0085456 0)
(10.0592 0.00763309 0)
(10.0636 0.00664761 0)
(10.0676 0.00561361 0)
(10.0714 0.00454914 0)
(10.0749 0.0034725 0)
(10.0782 0.00240207 0)
(10.0002 0.000600723 0)
(10.0017 0.00143681 0)
(10.0047 0.00246933 0)
(10.009 0.00317129 0)
(10.014 0.00356177 0)
(10.0193 0.00366483 0)
(10.0248 0.00355667 0)
(10.0303 0.00325581 0)
(10.0357 0.0028207 0)
(10.0409 0.00226037 0)
(10.046 0.0016224 0)
(10.0508 0.000906552 0)
(10.0553 0.000147399 0)
(10.0595 -0.000657024 0)
(10.0635 -0.0014782 0)
(10.0672 -0.00231702 0)
(10.0706 -0.00315245 0)
(10.0738 -0.00397764 0)
(10.0002 -0.00036303 0)
(10.0016 -0.001283 0)
(10.0045 -0.00184698 0)
(10.0086 -0.00239069 0)
(10.0134 -0.0029387 0)
(10.0185 -0.00349773 0)
(10.0238 -0.00407811 0)
(10.0292 -0.00466095 0)
(10.0345 -0.00526384 0)
(10.0396 -0.0058642 0)
(10.0445 -0.00648367 0)
(10.0492 -0.00709789 0)
(10.0536 -0.00772788 0)
(10.0578 -0.00834778 0)
(10.0617 -0.0089766 0)
(10.0653 -0.00958798 0)
(10.0687 -0.0102019 0)
(10.0718 -0.0107843 0)
(10.0002 -0.00127915 0)
(10.0017 -0.00385363 0)
(10.0048 -0.00591914 0)
(10.009 -0.00763831 0)
(10.0139 -0.00906496 0)
(10.0191 -0.0102588 0)
(10.0245 -0.0112769 0)
(10.0299 -0.0121403 0)
(10.0352 -0.0128865 0)
(10.0403 -0.0135359 0)
(10.0453 -0.014121 0)
(10.05 -0.014651 0)
(10.0544 -0.0151455 0)
(10.0585 -0.015607 0)
(10.0624 -0.0160475 0)
(10.0661 -0.0164655 0)
(10.0695 -0.0168689 0)
(10.0726 -0.0172477 0)
(10.0002 -0.00217561 0)
(10.002 -0.00636301 0)
(10.0054 -0.00981764 0)
(10.01 -0.0125895 0)
(10.0152 -0.0147668 0)
(10.0207 -0.0165082 0)
(10.0264 -0.0178847 0)
(10.032 -0.0189721 0)
(10.0375 -0.0198109 0)
(10.0428 -0.0204817 0)
(10.0478 -0.0210069 0)
(10.0526 -0.0214461 0)
(10.057 -0.0217986 0)
(10.0612 -0.0221104 0)
(10.0652 -0.0223724 0)
(10.0688 -0.0226164 0)
(10.0722 -0.022831 0)
(10.0754 -0.0230305 0)
(10.0003 -0.00312007 0)
(10.0024 -0.00897983 0)
(10.0064 -0.0137589 0)
(10.0116 -0.0174404 0)
(10.0174 -0.0202543 0)
(10.0234 -0.0224341 0)
(10.0293 -0.0241018 0)
(10.0353 -0.0253258 0)
(10.041 -0.0262176 0)
(10.0465 -0.0268467 0)
(10.0517 -0.0273027 0)
(10.0566 -0.0276085 0)
(10.0612 -0.0278305 0)
(10.0655 -0.0279686 0)
(10.0695 -0.0280768 0)
(10.0732 -0.0281369 0)
(10.0766 -0.0281946 0)
(10.0798 -0.0282158 0)
(10.0003 -0.0041742 0)
(10.003 -0.0118357 0)
(10.0079 -0.0178616 0)
(10.014 -0.0223028 0)
(10.0204 -0.0256267 0)
(10.0269 -0.0281622 0)
(10.0334 -0.0300248 0)
(10.0397 -0.0313229 0)
(10.0458 -0.0321921 0)
(10.0515 -0.032752 0)
(10.0569 -0.0330864 0)
(10.062 -0.033255 0)
(10.0667 -0.0333084 0)
(10.071 -0.0332872 0)
(10.0751 -0.0332163 0)
(10.0789 -0.033121 0)
(10.0823 -0.0330067 0)
(10.0855 -0.0328881 0)
(10.0005 -0.00541352 0)
(10.004 -0.0150499 0)
(10.01 -0.0221849 0)
(10.0172 -0.0272043 0)
(10.0243 -0.0309342 0)
(10.0314 -0.0337445 0)
(10.0384 -0.0357179 0)
(10.0452 -0.0370049 0)
(10.0516 -0.0377958 0)
(10.0577 -0.0382413 0)
(10.0633 -0.0384274 0)
(10.0685 -0.0384353 0)
(10.0734 -0.038312 0)
(10.0778 -0.0381206 0)
(10.082 -0.0378777 0)
(10.0858 -0.0376211 0)
(10.0893 -0.0373528 0)
(10.0926 -0.0370859 0)
(10.0007 -0.00694478 0)
(10.0054 -0.0187415 0)
(10.013 -0.0267299 0)
(10.0213 -0.0320999 0)
(10.0292 -0.0361645 0)
(10.0369 -0.0391987 0)
(10.0445 -0.0412133 0)
(10.0519 -0.042422 0)
(10.0587 -0.0430811 0)
(10.0651 -0.0433651 0)
(10.0709 -0.0433725 0)
(10.0764 -0.0431853 0)
(10.0814 -0.042879 0)
(10.086 -0.0425012 0)
(10.0903 -0.0420997 0)
(10.0942 -0.0416895 0)
(10.0978 -0.0412982 0)
(10.1011 -0.0409091 0)
(10.001 -0.00889691 0)
(10.0076 -0.0230216 0)
(10.0172 -0.0315176 0)
(10.0266 -0.0369967 0)
(10.0352 -0.041285 0)
(10.0437 -0.0444665 0)
(10.0521 -0.0464796 0)
(10.0601 -0.0476051 0)
(10.0674 -0.0481397 0)
(10.0742 -0.0482632 0)
(10.0805 -0.0480789 0)
(10.0862 -0.0476838 0)
(10.0915 -0.047158 0)
(10.0964 -0.0465672 0)
(10.1008 -0.0459603 0)
(10.1049 -0.0453706 0)
(10.1087 -0.0448095 0)
(10.1122 -0.0442761 0)
(10.0015 -0.0114499 0)
(10.0108 -0.027743 0)
(10.0229 -0.0365124 0)
(10.0337 -0.0421684 0)
(10.0433 -0.0466171 0)
(10.0529 -0.0497223 0)
(10.0624 -0.0515401 0)
(10.0714 -0.0524812 0)
(10.0796 -0.0528426 0)
(10.0872 -0.0528137 0)
(10.0942 -0.0524835 0)
(10.1006 -0.0519524 0)
(10.1065 -0.0513029 0)
(10.1119 -0.0505908 0)
(10.1168 -0.0498842 0)
(10.1214 -0.0492075 0)
(10.1256 -0.0485755 0)
(10.1295 -0.0479579 0)
(10.0025 -0.0153547 0)
(10.0162 -0.0326008 0)
(10.032 -0.0410562 0)
(10.0457 -0.0474205 0)
(10.058 -0.0524844 0)
(10.0704 -0.0556292 0)
(10.0826 -0.0571807 0)
(10.094 -0.0577587 0)
(10.1045 -0.0577302 0)
(10.1142 -0.0572788 0)
(10.1232 -0.0565281 0)
(10.1314 -0.0556004 0)
(10.1389 -0.0545807 0)
(10.1458 -0.0535528 0)
(10.1519 -0.0525766 0)
(10.1575 -0.0517006 0)
(10.1627 -0.050928 0)
(10.1673 -0.0501922 0)
(10.0064 -0.0230966 0)
(10.033 -0.0391496 0)
(10.0608 -0.0443866 0)
(10.0855 -0.0504416 0)
(10.1087 -0.0564913 0)
(10.1317 -0.0606871 0)
(10.1534 -0.0631346 0)
(10.1729 -0.0644493 0)
(10.1902 -0.0650108 0)
(10.2053 -0.0649395 0)
(10.2182 -0.0643899 0)
(10.2291 -0.0634928 0)
(10.238 -0.0623682 0)
(10.2451 -0.0611375 0)
(10.2505 -0.0598823 0)
(10.2544 -0.0587171 0)
(10.2572 -0.0577005 0)
(10.2588 -0.0569592 0)
(10.043 -0.0364592 0)
(10.1436 -0.0633579 0)
(10.2188 -0.0680469 0)
(10.2712 -0.070122 0)
(10.3087 -0.072172 0)
(10.3328 -0.0728509 0)
(10.3435 -0.0722308 0)
(10.3424 -0.0708586 0)
(10.3318 -0.0690542 0)
(10.3139 -0.0669476 0)
(10.2905 -0.0646385 0)
(10.2631 -0.0622181 0)
(10.2326 -0.0597653 0)
(10.2 -0.0573497 0)
(10.166 -0.0550261 0)
(10.1313 -0.05293 0)
(10.0962 -0.051052 0)
(10.0618 -0.0498339 0)
(9.88819 -0.0290705 0)
(9.66843 -0.0637169 0)
(9.43297 -0.077418 0)
(9.1837 -0.0833882 0)
(8.94171 -0.0841354 0)
(8.71563 -0.0812247 0)
(8.50814 -0.0760494 0)
(8.31924 -0.0699513 0)
(8.14897 -0.0634814 0)
(7.99647 -0.0569912 0)
(7.86071 -0.0507694 0)
(7.73993 -0.0449446 0)
(7.63289 -0.039579 0)
(7.53792 -0.0346817 0)
(7.45389 -0.0302534 0)
(7.37926 -0.026323 0)
(7.31264 -0.0229699 0)
(7.25296 -0.0206458 0)
(-0.00266062 0.00735113 0)
(-0.0124362 0.012288 0)
(-0.0257317 0.0134114 0)
(-0.0397738 0.0114913 0)
(-0.0499481 0.00588719 0)
(-0.0489432 -0.00341533 0)
(-0.0334891 -0.0160422 -8.24797e-19)
(-0.00678203 -0.029236 9.31312e-19)
(0.0280299 -0.0391372 0)
(0.0680683 -0.0440197 5.35306e-19)
(0.110444 -0.0444855 0)
(0.15179 -0.0416758 0)
(0.189409 -0.0366267 0)
(0.221663 -0.0301335 -2.63271e-19)
(0.247687 -0.0227569 0)
(0.267058 -0.0148539 0)
(0.279436 -0.00662539 2.27573e-19)
(0.28502 0.00199049 0)
(0.282708 0.0108806 0)
(0.272702 0.0195627 0)
(0.255633 0.0272943 -2.43869e-19)
(0.232129 0.0333022 0)
(0.203115 0.0368756 -2.88534e-19)
(0.169972 0.0374062 0)
(0.134532 0.0344816 0)
(0.0990374 0.0281056 -4.69353e-19)
(0.0659485 0.0189803 0)
(0.0376617 0.00881032 7.80705e-19)
(0.0158883 0.000183162 0)
(0.000950276 -0.00494193 -1.31679e-18)
(-0.00841652 -0.00727123 0)
(-0.0131742 -0.0088393 0)
(-0.0122954 -0.0108875 0)
(-0.00525944 -0.0143159 0)
(0.00881901 -0.0195842 0)
(0.0304417 -0.025569 8.64681e-19)
(0.0582404 -0.0300222 0)
(0.0882657 -0.0305739 -1.01463e-18)
(0.115506 -0.0266516 0)
(0.135766 -0.0195316 7.98368e-19)
(0.147022 -0.011626 0)
(0.150283 -0.0050961 0)
(0.147997 -0.00138842 -7.81599e-19)
(0.144017 -0.00132077 0)
(0.141513 -0.00572432 -8.09143e-19)
(0.139418 -0.0142506 8.15382e-19)
(0.131855 -0.0227639 0)
(0.111541 -0.0216446 8.78921e-19)
(0.072669 -0.00445149 1.01259e-18)
(0.00544835 0.0152663 0)
(-0.088757 0.0333519 0)
(-0.19139 0.0567877 0)
(-0.305903 0.0789199 0)
(-0.430663 0.0950795 0)
(-0.561399 0.103848 -1.92938e-19)
(-0.693825 0.109289 0)
(-0.823946 0.11281 1.47836e-19)
(-0.950665 0.111679 0)
(-1.0719 0.104824 0)
(-1.18579 0.0952838 -1.16546e-19)
(-1.29084 0.087232 0)
(-1.38798 0.0789867 1.04851e-19)
(-1.47764 0.0702787 0)
(-1.55947 0.0640265 0)
(-1.63497 0.0591344 0)
(-1.70484 0.0540154 -9.00485e-20)
(-1.76942 0.0493891 0)
(-1.82937 0.0455087 0)
(-1.8853 0.0420622 -8.3559e-20)
(-1.93769 0.0390607 0)
(-1.98696 0.0364206 -8.02827e-20)
(-2.03345 0.0340788 0)
(-2.07747 0.0319891 0)
(-2.11925 0.0301018 0)
(-2.15897 0.0283837 7.51038e-20)
(-2.19681 0.0268018 0)
(-2.23288 0.0253344 0)
(-2.26729 0.0239597 7.19215e-20)
(-2.30012 0.0226646 7.09443e-20)
(-2.33143 0.0214348 0)
(-2.3613 0.0202621 6.90784e-20)
(-2.38975 0.0191377 0)
(-2.41683 0.0180552 1.34604e-19)
(-2.44256 0.0170094 0)
(-2.46697 0.0159942 1.31174e-19)
(-2.49008 0.0150068 0)
(-2.51191 0.0140398 -1.27823e-19)
(-2.53247 0.0130919 0)
(-2.55178 0.0121565 0)
(-2.56985 0.0112271 0)
(-2.58665 0.010303 1.21229e-19)
(-2.60218 0.00937558 0)
(-2.61642 0.00843797 -1.17933e-19)
(-2.62935 0.0074834 0)
(-2.64094 0.00650269 1.14622e-19)
(-2.65116 0.00549097 1.12958e-19)
(-2.65996 0.00444204 1.1129e-19)
(-2.66729 0.00336387 0)
(-2.67311 0.00228331 0)
(-2.67733 0.00127339 0)
(-2.67991 0.000417796 0)
(-2.68112 -0.000291531 0)
(-2.68116 -0.000944187 0)
(-2.68001 -0.00157938 0)
(-2.67769 -0.00220652 0)
(-2.6742 -0.00282684 -9.54071e-20)
(-2.66953 -0.00344292 -9.34667e-20)
(-2.66369 -0.00405212 0)
(-2.65665 -0.00465667 0)
(-2.64844 -0.0052531 0)
(-2.63903 -0.00584395 -8.52545e-20)
(-2.62844 -0.00642526 0)
(-2.61666 -0.00700003 0)
(-2.60371 -0.00756383 0)
(-2.58957 -0.00812018 0)
(-2.57426 -0.00866418 7.38289e-20)
(-2.55779 -0.00919989 0)
(-2.54016 -0.00972211 0)
(-2.52138 -0.0102353 -6.62643e-20)
(-2.50147 -0.0107342 6.36137e-20)
(-2.48044 -0.0112235 0)
(-2.45829 -0.011698 5.81078e-20)
(-2.43504 -0.0121625 0)
(-2.41071 -0.0126122 -5.23165e-20)
(-2.38531 -0.0130516 0)
(-2.35885 -0.0134773 0)
(-2.33135 -0.0138938 0)
(-2.30283 -0.0142993 0)
(-2.27329 -0.0146941 0)
(-2.24276 -0.0150702 6.61337e-20)
(-2.21126 -0.0154265 5.91156e-20)
(-2.1788 -0.0157766 0)
(-2.14539 -0.0161154 0)
(-2.11108 -0.0164232 0)
(-2.07587 -0.0166708 -2.9096e-20)
(-2.03981 -0.0167958 0)
(-2.00296 -0.0167154 0)
(-1.96538 -0.0164388 0)
(-1.92703 -0.0164593 4.42984e-21)
(-1.88781 -0.0167858 -1.34508e-20)
(-1.84779 -0.0170282 0)
(-1.80698 -0.017269 0)
(-1.7654 -0.0174904 -4.23517e-20)
(-1.72307 -0.0177079 -5.26604e-20)
(-1.68002 -0.0179149 0)
(-1.63626 -0.0181241 0)
(-1.59181 -0.0183276 8.59402e-20)
(-1.54667 -0.0185364 -9.79044e-20)
(-1.50089 -0.0187465 0)
(-1.4545 -0.0189627 0)
(-1.40751 -0.0191828 -1.36812e-19)
(-1.35995 -0.0194028 0)
(-1.31182 -0.0196232 0)
(-1.26316 -0.0198406 -1.81045e-19)
(-1.21399 -0.0200588 0)
(-1.16433 -0.0202771 -2.1411e-19)
(-1.1142 -0.0204983 0)
(-1.06362 -0.0207234 0)
(-1.0126 -0.0209544 0)
(-0.961146 -0.021192 2.91071e-19)
(-0.909266 -0.021438 0)
(-0.856963 -0.0216913 0)
(-0.804242 -0.0219529 0)
(-0.75111 -0.0222204 0)
(-0.697576 -0.0224963 0)
(-0.643651 -0.0227792 0)
(-0.589346 -0.0230737 4.77382e-19)
(-0.534666 -0.0233794 5.11894e-19)
(-0.479617 -0.0237011 0)
(-0.424204 -0.0240357 0)
(-0.368432 -0.0243857 0)
(-0.312322 -0.0247417 -6.80893e-19)
(-0.25592 -0.0250958 0)
(-0.199311 -0.0254465 1.58174e-18)
(-0.142653 -0.0257478 -1.7094e-18)
(-0.0862571 -0.0258791 -1.85153e-18)
(-0.0304686 -0.0256664 2.01037e-18)
(0.0217614 -0.0242226 -2.06267e-18)
(0.079384 -0.0217772 1.99991e-18)
(0.0970305 -0.0107321 0)
(-0.000233287 0.0198143 0)
(-0.00575397 0.0347156 0)
(-0.0120255 0.0358339 2.1824e-18)
(-0.0123689 0.0264905 0)
(0.00135965 0.004961 -2.26752e-18)
(0.030267 -0.0310727 -1.44761e-18)
(0.0685579 -0.0714465 -4.58277e-19)
(0.112322 -0.104617 -3.27705e-19)
(0.157633 -0.125072 0)
(0.201124 -0.13242 -2.14561e-19)
(0.240651 -0.129202 0)
(0.275271 -0.118705 0)
(0.304652 -0.103747 3.197e-19)
(0.328805 -0.0863685 1.52282e-19)
(0.347945 -0.0678957 -2.9681e-19)
(0.362374 -0.0490924 -2.93338e-19)
(0.372469 -0.0303365 -1.46695e-19)
(0.378401 -0.0117776 0)
(0.381139 0.00659328 0)
(0.380581 0.0246231 0)
(0.376345 0.041954 -1.55e-19)
(0.367936 0.0580349 0)
(0.354798 0.0721285 4.95683e-19)
(0.336459 0.0832623 0)
(0.312701 0.0903282 0)
(0.283755 0.0922563 2.0066e-19)
(0.25049 0.0883305 0)
(0.214529 0.0786246 -2.54254e-19)
(0.178179 0.0641924 -5.95757e-19)
(0.144316 0.0468106 3.56632e-19)
(0.11601 0.0280813 0)
(0.0964726 0.00888235 0)
(0.0870884 -0.0109305 0)
(0.0894826 -0.0305185 -1.05663e-18)
(0.101923 -0.0500364 -8.91802e-19)
(0.121072 -0.0672084 -3.68585e-19)
(0.141205 -0.0752449 0)
(0.156425 -0.0704785 5.29559e-19)
(0.164045 -0.0555846 0)
(0.163647 -0.0357179 -5.07956e-19)
(0.15581 -0.0172001 0)
(0.141363 -0.00463144 0)
(0.120526 0.00254274 6.43742e-19)
(0.0879376 0.00857685 0)
(0.0346983 0.0199738 2.58683e-18)
(-0.0525596 0.0478783 -6.88902e-19)
(-0.168366 0.0891507 0)
(-0.296572 0.13286 -2.86657e-19)
(-0.431028 0.175651 -2.10441e-19)
(-0.571587 0.212165 0)
(-0.714532 0.24001 0)
(-0.855332 0.25986 0)
(-0.992265 0.271518 0)
(-1.12236 0.27467 0)
(-1.24364 0.270044 8.58469e-20)
(-1.35321 0.259905 1.60814e-19)
(-1.45094 0.246183 -7.53578e-20)
(-1.53798 0.229858 0)
(-1.61543 0.212004 1.39282e-19)
(-1.68405 0.194025 -6.77022e-20)
(-1.74504 0.176962 0)
(-1.80017 0.160996 -6.37778e-20)
(-1.84995 0.146383 0)
(-1.89566 0.133412 0)
(-1.93795 0.121951 -1.19742e-19)
(-1.97733 0.111906 5.8714e-20)
(-2.01436 0.103129 -1.15526e-19)
(-2.04941 0.0954715 1.13651e-19)
(-2.0827 0.0887671 5.59531e-20)
(-2.11442 0.0828623 0)
(-2.14473 0.0776235 5.43641e-20)
(-2.17372 0.072931 0)
(-2.20148 0.0686897 0)
(-2.22806 0.0648145 0)
(-2.25351 0.0612426 5.14592e-20)
(-2.27786 0.0579165 0)
(-2.30114 0.0547971 1.00423e-19)
(-2.32337 0.0518466 -1.48802e-19)
(-2.34457 0.0490411 -4.90148e-20)
(-2.36475 0.0463566 0)
(-2.38392 0.0437779 -4.78055e-20)
(-2.40208 0.0412906 0)
(-2.41925 0.0388839 -9.32312e-20)
(-2.43543 0.0365497 0)
(-2.45061 0.0342789 -9.0869e-20)
(-2.46481 0.0320666 1.79264e-19)
(-2.47802 0.0299028 8.85065e-20)
(-2.49023 0.0277848 0)
(-2.50147 0.0257038 0)
(-2.51173 0.0236551 0)
(-2.52099 0.0216354 -8.37243e-20)
(-2.52924 0.019639 0)
(-2.53649 0.0176608 8.12805e-20)
(-2.54273 0.0156949 0)
(-2.54797 0.0137349 -2.36394e-19)
(-2.55225 0.0117762 -7.75365e-20)
(-2.55557 0.00981053 -7.62682e-20)
(-2.558 0.00783522 0)
(-2.5596 0.00585724 0)
(-2.56045 0.00392389 0)
(-2.56064 0.00210708 0)
(-2.55996 0.000419575 0)
(-2.55819 -0.0012001 -1.36674e-19)
(-2.5553 -0.00278538 -1.3386e-19)
(-2.55128 -0.00434681 0)
(-2.54612 -0.00588693 6.39607e-20)
(-2.5398 -0.00740776 6.24761e-20)
(-2.53232 -0.00890673 0)
(-2.52368 -0.0103847 1.19099e-19)
(-2.51387 -0.0118382 0)
(-2.50289 -0.0132682 -5.65551e-20)
(-2.49075 -0.0146706 0)
(-2.47743 -0.0160471 0)
(-2.46296 -0.017393 1.03018e-19)
(-2.44732 -0.0187107 0)
(-2.43052 -0.0199952 -4.7903e-20)
(-2.41258 -0.0212494 0)
(-2.3935 -0.022468 0)
(-2.37328 -0.0236549 -4.29244e-20)
(-2.35195 -0.0248044 -4.06429e-20)
(-2.3295 -0.0259212 0)
(-2.30596 -0.0269997 3.7285e-20)
(-2.28133 -0.0280449 0)
(-2.25563 -0.0290517 -3.33571e-20)
(-2.22887 -0.0300249 -6.21705e-20)
(-2.20107 -0.0309599 0)
(-2.17224 -0.0318605 0)
(-2.1424 -0.0327219 0)
(-2.11157 -0.0335457 0)
(-2.07976 -0.0343284 -4.03296e-20)
(-2.04699 -0.0350756 -1.08739e-19)
(-2.01327 -0.0357903 0)
(-1.97863 -0.0364771 0)
(-1.94309 -0.0371316 0)
(-1.90667 -0.0377538 1.71998e-20)
(-1.86937 -0.0383537 0)
(-1.83116 -0.0389448 0)
(-1.79205 -0.0395372 -6.10347e-21)
(-1.75207 -0.0401164 1.3758e-21)
(-1.71133 -0.0406445 7.87587e-21)
(-1.66982 -0.0411132 0)
(-1.62753 -0.0415432 0)
(-1.58448 -0.0419275 2.39412e-20)
(-1.54068 -0.04228 -2.80675e-20)
(-1.49615 -0.0425955 0)
(-1.45091 -0.0428862 0)
(-1.40496 -0.043147 -4.6733e-20)
(-1.35833 -0.0433891 1.56613e-19)
(-1.31106 -0.0436137 0)
(-1.26316 -0.0438258 0)
(-1.21466 -0.0440263 7.13135e-20)
(-1.16558 -0.0442064 0)
(-1.11593 -0.0443655 1.671e-19)
(-1.06574 -0.0444989 -8.94573e-20)
(-1.01503 -0.044609 0)
(-0.963824 -0.0446992 1.04961e-19)
(-0.912143 -0.0447713 2.22567e-19)
(-0.860003 -0.0448309 0)
(-0.807418 -0.0448796 0)
(-0.754397 -0.0449224 -1.34592e-19)
(-0.700947 -0.04496 0)
(-0.647074 -0.0449951 2.99054e-19)
(-0.592781 -0.0450253 0)
(-0.538077 -0.0450504 0)
(-0.482969 -0.0450679 0)
(-0.427468 -0.0450805 0)
(-0.371582 -0.0450881 -1.93338e-19)
(-0.315319 -0.0450955 -2.0254e-19)
(-0.258684 -0.0451034 0)
(-0.201681 -0.045112 0)
(-0.144318 -0.0451168 0)
(-0.0866103 -0.0451074 2.41626e-19)
(-0.028602 -0.045057 0)
(0.0296654 -0.0449208 -5.15082e-19)
(0.0880701 -0.0446266 5.1698e-19)
(0.146301 -0.0440428 5.1887e-19)
(0.204273 -0.0429447 5.17497e-19)
(0.259866 -0.0408152 5.23949e-19)
(0.318028 -0.0367698 5.26147e-19)
(0.354847 -0.0247394 0)
(0.000317172 0.0224944 0)
(0.000683655 0.0388277 0)
(0.00647359 0.0313844 -2.32682e-18)
(0.0262899 -0.00163415 -1.63298e-18)
(0.0650582 -0.0599083 9.76243e-19)
(0.115387 -0.124202 6.36017e-19)
(0.167191 -0.17532 -3.56075e-22)
(0.213659 -0.204766 0)
(0.252151 -0.213256 0)
(0.28265 -0.205813 0)
(0.306332 -0.188096 0)
(0.324615 -0.164715 0)
(0.338688 -0.138804 -7.25846e-19)
(0.349391 -0.112225 0)
(0.357284 -0.0859819 2.31513e-19)
(0.362738 -0.060549 2.30898e-19)
(0.366018 -0.0361129 0)
(0.367317 -0.0127479 0)
(0.366885 0.00957276 0)
(0.36504 0.0310129 0)
(0.362038 0.0517056 2.45987e-19)
(0.358046 0.0715793 0)
(0.352975 0.0902654 -2.63622e-19)
(0.346429 0.107023 0)
(0.337725 0.12075 0)
(0.326009 0.130052 0)
(0.310501 0.133473 -6.59496e-19)
(0.290889 0.129837 0)
(0.267722 0.118663 3.91618e-19)
(0.242597 0.100314 -8.73863e-19)
(0.21805 0.075914 0)
(0.196983 0.0468516 0)
(0.181979 0.0147641 0)
(0.173262 -0.019363 6.47722e-19)
(0.169819 -0.0523398 5.72166e-19)
(0.165322 -0.0744998 0)
(0.152985 -0.0765045 0)
(0.132358 -0.060481 -7.75438e-19)
(0.104548 -0.0342144 -7.94737e-19)
(0.0696527 -0.00249642 8.74491e-19)
(0.0260225 0.0305042 0)
(-0.0353292 0.0612298 0)
(-0.122414 0.0974746 0)
(-0.229406 0.144672 0)
(-0.352892 0.197929 -4.19548e-19)
(-0.487816 0.25245 -3.3106e-19)
(-0.626884 0.304891 2.70403e-19)
(-0.764092 0.350024 0)
(-0.895091 0.386017 0)
(-1.01624 0.412079 0)
(-1.12547 0.427043 0)
(-1.22213 0.431444 -1.47806e-19)
(-1.30572 0.426086 0)
(-1.37714 0.412082 0)
(-1.43829 0.391244 -1.22755e-19)
(-1.49125 0.366022 -1.15828e-19)
(-1.53795 0.338786 0)
(-1.57989 0.311042 2.16254e-19)
(-1.61856 0.283799 -1.03804e-19)
(-1.65508 0.258003 1.00744e-19)
(-1.69019 0.234506 0)
(-1.72426 0.213469 0)
(-1.7575 0.194738 0)
(-1.79001 0.178422 0)
(-1.82175 0.16427 8.96005e-20)
(-1.85269 0.151904 1.75873e-19)
(-1.88286 0.141082 8.62416e-20)
(-1.91225 0.131582 -8.47198e-20)
(-1.94083 0.123176 0)
(-1.96858 0.115674 1.63751e-19)
(-1.99548 0.108916 1.61114e-19)
(-2.02153 0.102766 1.58592e-19)
(-2.04671 0.0971136 -1.56168e-19)
(-2.07101 0.091868 0)
(-2.09444 0.0869579 -2.27424e-19)
(-2.11698 0.0823241 0)
(-2.13864 0.077922 7.35318e-20)
(-2.1594 0.0737144 7.26312e-20)
(-2.17926 0.0696735 0)
(-2.19822 0.0657758 0)
(-2.21628 0.0620039 1.39018e-19)
(-2.23344 0.0583429 0)
(-2.24969 0.0547813 1.35073e-19)
(-2.26504 0.0513096 0)
(-2.27947 0.0479189 -1.31182e-19)
(-2.29298 0.0446023 -2.58587e-19)
(-2.30558 0.0413516 0)
(-2.31726 0.0381609 0)
(-2.32803 0.0350231 0)
(-2.33789 0.0319328 -1.21529e-19)
(-2.34682 0.028887 0)
(-2.35482 0.0258812 -1.17647e-19)
(-2.36188 0.0229133 0)
(-2.368 0.019981 0)
(-2.3732 0.0170856 2.23541e-19)
(-2.37747 0.0142293 0)
(-2.38082 0.0114188 1.07815e-19)
(-2.38327 0.00866237 0)
(-2.38481 0.0059705 1.03827e-19)
(-2.3854 0.0033422 0)
(-2.38502 0.000750994 0)
(-2.38359 -0.00183048 0)
(-2.3811 -0.00439745 2.86033e-19)
(-2.37753 -0.00693921 9.30988e-20)
(-2.37285 -0.00945225 0)
(-2.36707 -0.0119356 0)
(-2.36016 -0.0143868 0)
(-2.35214 -0.0168045 0)
(-2.34298 -0.0191856 -8.18406e-20)
(-2.33268 -0.0215285 1.59409e-19)
(-2.32125 -0.0238302 7.71477e-20)
(-2.30868 -0.026089 -1.49961e-19)
(-2.29498 -0.0283021 -1.45147e-19)
(-2.28014 -0.0304679 -6.98863e-20)
(-2.26416 -0.0325837 0)
(-2.24707 -0.034648 -1.30332e-19)
(-2.22885 -0.0366587 0)
(-2.20951 -0.0386144 1.2014e-19)
(-2.18907 -0.0405136 5.71628e-20)
(-2.16754 -0.0423552 0)
(-2.14492 -0.0441385 -1.04373e-19)
(-2.12123 -0.0458627 -4.91506e-20)
(-2.09647 -0.047528 0)
(-2.07067 -0.0491336 -4.43843e-20)
(-2.04383 -0.0506803 1.23329e-19)
(-2.01598 -0.0521671 0)
(-1.98711 -0.0535947 0)
(-1.95726 -0.0549611 0)
(-1.92643 -0.0562658 0)
(-1.89463 -0.0575066 5.37397e-20)
(-1.86189 -0.0586869 4.6966e-20)
(-1.82822 -0.059811 0)
(-1.79364 -0.0608831 0)
(-1.75817 -0.0618987 0)
(-1.72182 -0.0628507 0)
(-1.68461 -0.0637361 0)
(-1.64652 -0.0645631 0)
(-1.60756 -0.0653521 3.83302e-21)
(-1.56778 -0.0661273 -9.66476e-22)
(-1.52724 -0.0668717 0)
(-1.48595 -0.0675539 0)
(-1.44389 -0.0681762 -2.09955e-20)
(-1.40108 -0.0687361 0)
(-1.35752 -0.0692406 3.52352e-20)
(-1.31325 -0.0696917 4.091e-20)
(-1.26827 -0.0700948 0)
(-1.2226 -0.0704534 0)
(-1.17625 -0.070775 -6.24325e-20)
(-1.12927 -0.0710656 -1.3662e-19)
(-1.08166 -0.0713298 0)
(-1.03347 -0.0715665 0)
(-0.984686 -0.0717674 0)
(-0.935346 -0.0719279 -9.78389e-20)
(-0.885465 -0.072046 1.05125e-19)
(-0.835069 -0.0721214 0)
(-0.78418 -0.0721611 2.37486e-19)
(-0.732819 -0.0721668 1.25059e-19)
(-0.681002 -0.0721468 -2.67537e-19)
(-0.628744 -0.0721036 0)
(-0.576057 -0.0720443 0)
(-0.522948 -0.0719702 -3.13632e-19)
(-0.469424 -0.0718851 -1.65839e-19)
(-0.41549 -0.0717856 0)
(-0.361153 -0.0716708 0)
(-0.306422 -0.0715368 0)
(-0.251306 -0.0713866 0)
(-0.195813 -0.0712199 -4.09234e-19)
(-0.13995 -0.0710414 0)
(-0.0837197 -0.0708514 0)
(-0.0271279 -0.0706512 0)
(0.0298287 -0.0704351 0)
(0.0871341 -0.0701857 0)
(0.144753 -0.0698658 0)
(0.202622 -0.0694048 -4.92388e-19)
(0.26064 -0.0687031 0)
(0.318589 -0.0676084 0)
(0.376464 -0.0658578 -1.02736e-18)
(0.432758 -0.0629629 5.1973e-19)
(0.491301 -0.0579849 -5.31212e-19)
(0.537475 -0.0458605 5.42516e-19)
(-0.00109917 0.0225462 0)
(0.0020072 0.0256872 5.05391e-18)
(0.0234697 -0.0158394 0)
(0.0703317 -0.097132 8.70722e-19)
(0.129966 -0.182934 0)
(0.186517 -0.245479 0)
(0.230872 -0.276081 -3.28444e-19)
(0.261719 -0.27943 0)
(0.281742 -0.264707 0)
(0.294478 -0.240075 0)
(0.302763 -0.210927 0)
(0.308396 -0.180264 0)
(0.312346 -0.149594 8.19334e-19)
(0.315065 -0.119614 4.02857e-19)
(0.316719 -0.0906311 -4.00203e-19)
(0.317351 -0.0627831 0)
(0.316976 -0.0361312 0)
(0.315611 -0.0107152 0)
(0.313311 0.013457 0)
(0.310168 0.0364163 0)
(0.306325 0.0582037 4.32754e-19)
(0.301997 0.0788272 4.44343e-19)
(0.297389 0.0981975 -4.60683e-19)
(0.292608 0.116006 4.82987e-19)
(0.287551 0.131634 0)
(0.281872 0.144071 0)
(0.274975 0.151899 5.85063e-19)
(0.26612 0.153442 0)
(0.254731 0.147158 0)
(0.240645 0.131962 7.53536e-19)
(0.22453 0.107648 8.40627e-19)
(0.207503 0.0752266 9.51479e-19)
(0.190976 0.0368638 0)
(0.174352 -0.00316633 0)
(0.151031 -0.0334113 -9.77211e-19)
(0.115995 -0.0407788 0)
(0.0702838 -0.025274 0)
(0.0152713 0.00695268 7.78585e-19)
(-0.0517078 0.0501467 -7.08984e-19)
(-0.134474 0.102259 5.68686e-19)
(-0.231721 0.161285 0)
(-0.342861 0.223004 0)
(-0.464912 0.285481 6.09039e-19)
(-0.592106 0.347496 0)
(-0.71901 0.40598 4.33849e-19)
(-0.840793 0.455676 5.70087e-19)
(-0.952464 0.493995 -5.07653e-19)
(-1.05127 0.520918 3.06137e-19)
(-1.13648 0.536102 0)
(-1.2077 0.540151 0)
(-1.26611 0.53415 2.41952e-19)
(-1.31358 0.519557 1.12714e-19)
(-1.3522 0.498073 0)
(-1.38442 0.471437 0)
(-1.41261 0.441569 9.66244e-20)
(-1.43869 0.410422 1.86644e-19)
(-1.46394 0.379495 0)
(-1.48914 0.349693 -1.71968e-19)
(-1.5148 0.321564 1.67402e-19)
(-1.54118 0.295567 -1.6226e-19)
(-1.56826 0.272008 0)
(-1.59589 0.250875 0)
(-1.62389 0.231992 0)
(-1.65204 0.215256 0)
(-1.68014 0.200458 0)
(-1.708 0.187321 -1.39894e-19)
(-1.73551 0.175611 0)
(-1.76256 0.165119 0)
(-1.78907 0.155649 0)