/*--------------------------------*- C++ -*----------------------------------*\
  =========                 |
  \\      /  F ield         | OpenFOAM: The Open Source CFD Toolbox
   \\    /   O peration     | Website:  https://openfoam.org
    \\  /    A nd           | Version:  8
     \\/     M anipulation  |
\*---------------------------------------------------------------------------*/
FoamFile
{
    version     2.0;
    format      ascii;
    class       volVectorField;
    location    "700";
    object      wallShearStress;
}
// * * * * * * * * * * * * * * * * * * * * * * * * * * * * * * * * * * * * * //

dimensions      [0 2 -2 0 0 0 0];

internalField   uniform (0 0 0);

boundaryField
{
    inlet
    {
        type            calculated;
        value           uniform (0 0 0);
    }
    outlet
    {
        type            calculated;
        value           uniform (0 0 0);
    }
    upperWall
    {
        type            calculated;
        value           nonuniform List<vector> 
223
(
(-0.444055 0.00268265 0)
(-0.434055 0.00481189 0)
(-0.465916 0.00631713 0)
(-0.484658 0.00724166 0)
(-0.487123 0.00751905 0)
(-0.482225 0.00737173 0)
(-0.471481 0.0069351 0)
(-0.459984 0.00639628 0)
(-0.448304 0.00581067 0)
(-0.43635 0.00521147 0)
(-0.425146 0.00463959 0)
(-0.414841 0.00410873 0)
(-0.405494 0.00362448 0)
(-0.397082 0.00318726 0)
(-0.389551 0.00279628 0)
(-0.38284 0.00245435 0)
(-0.376821 0.00216416 0)
(-0.371468 0.00197697 0)
(-0.367196 0.00186432 0)
(-0.363834 0.00178794 5.9579e-22)
(-0.36056 0.00169329 0)
(-0.35738 0.00159034 0)
(-0.354295 0.00148387 0)
(-0.351305 0.00137727 6.07062e-22)
(-0.348419 0.0012714 0)
(-0.345636 0.00116867 0)
(-0.34296 0.00106905 0)
(-0.340388 0.000973853 -1.23366e-21)
(-0.337923 0.000882465 1.23823e-21)
(-0.33556 0.000796035 1.2427e-21)
(-0.333302 0.000713639 0)
(-0.331144 0.000636115 -1.25137e-21)
(-0.329087 0.00056279 0)
(-0.327126 0.000494113 1.25976e-21)
(-0.325262 0.000429788 1.26388e-21)
(-0.323487 0.000369868 -1.26794e-21)
(-0.321804 0.00031396 0)
(-0.320206 0.000262046 0)
(-0.318695 0.000214277 0)
(-0.317261 0.000170445 0)
(-0.315908 0.000130449 -1.28771e-21)
(-0.314623 9.40834e-05 0)
(-0.313415 6.13231e-05 0)
(-0.312267 3.20753e-05 1.29939e-21)
(-0.31119 6.20515e-06 0)
(-0.310163 -1.6421e-05 1.3072e-21)
(-0.309202 -3.57581e-05 -1.31114e-21)
(-0.308283 -5.19635e-05 1.31506e-21)
(-0.307422 -6.50997e-05 0)
(-0.306593 -7.51166e-05 0)
(-0.305816 -8.22709e-05 0)
(-0.305062 -8.67334e-05 1.33112e-21)
(-0.304352 -8.88602e-05 -1.33524e-21)
(-0.303658 -8.86279e-05 0)
(-0.303001 -8.63942e-05 0)
(-0.302352 -8.21904e-05 0)
(-0.301735 -7.64363e-05 0)
(-0.301122 -6.9122e-05 0)
(-0.300525 -6.07327e-05 0)
(-0.299944 -5.07664e-05 0)
(-0.299356 -4.05018e-05 0)
(-0.298787 -3.04339e-05 1.37417e-21)
(-0.298215 -1.52419e-05 -1.37868e-21)
(-0.29761 -1.6719e-06 0)
(-0.297156 -9.39602e-06 0)
(-0.332977 -3.55219e-05 0)
(-0.355718 -9.97376e-06 -1.67635e-21)
(-0.339596 3.93419e-05 0)
(-0.360235 6.11301e-05 0)
(-0.342587 -5.26313e-05 0)
(-0.359148 9.3789e-05 0)
(-0.335549 0.000903777 0)
(-0.320799 0.00105791 -3.06025e-21)
(-0.314262 0.000939109 0)
(-0.310952 0.000859994 0)
(-0.307187 0.00072863 0)
(-0.305725 0.00049029 0)
(-0.316032 6.44981e-05 0)
(-0.30482 0.000190631 0)
(-0.300792 5.08947e-05 0)
(-0.300857 -0.000214616 3.09821e-21)
(-0.300003 -0.000142001 0)
(-0.296309 -3.49769e-05 0)
(-0.298097 3.7605e-05 0)
(-0.293844 5.16292e-05 -3.15129e-21)
(-0.311501 -4.19529e-05 0)
(-0.354744 -5.94875e-05 -3.84519e-21)
(-0.337956 -1.32496e-05 0)
(-0.3696 -0.000108966 0)
(-0.376819 -3.53936e-05 0)
(-0.383918 0.000159338 -4.18999e-21)
(-0.353616 0.000130733 0)
(-0.36868 0.000610046 4.03692e-21)
(-0.340753 0.000830155 3.71422e-21)
(-0.322633 0.000591226 0)
(-0.296797 0.000286791 3.26111e-21)
(-0.312097 4.99124e-05 0)
(-0.353392 0.000359285 0)
(-0.328038 0.00121202 0)
(-0.305462 0.00121334 -3.34809e-21)
(-0.306026 0.000425119 0)
(-0.289646 0.000302326 -3.228e-21)
(-0.289208 0.000292067 3.21928e-21)
(-0.289806 0.000123769 0)
(-0.288485 0.000142995 0)
(-0.315855 0.000150867 0)
(-0.316876 2.99787e-05 0)
(-0.340177 -0.000205235 0)
(-0.338699 0.000685989 0)
(-0.311246 0.00105248 0)
(-0.303499 0.000260736 -3.39375e-21)
(-0.285133 -4.03064e-05 0)
(-0.32348 0.000423642 0)
(-0.304868 0.000984398 0)
(-0.284183 0.0013119 0)
(-0.282538 0.00113622 0)
(-0.281881 0.000669814 0)
(-0.28121 0.000344396 0)
(-0.280668 -0.00014682 0)
(-0.312371 0.000319999 0)
(-0.286488 0.00065269 0)
(-0.278235 0.000320204 0)
(-0.317615 0.000377616 0)
(-0.310902 0.000580344 -6.55969e-21)
(-0.336152 0.000565805 0)
(-0.315783 0.000227972 0)
(-0.312206 0.000980473 0)
(-0.278602 0.00147226 5.60994e-21)
(-0.269829 0.00157895 0)
(-0.268661 0.00159611 0)
(-0.267579 0.000997558 5.09126e-21)
(-0.266351 0.000438718 0)
(-0.265423 -2.98026e-05 -4.91371e-21)
(-0.277955 0.00060896 0)
(-0.262698 0.000799536 0)
(-0.285257 0.000921746 0)
(-0.26009 0.000768452 4.31687e-21)
(-0.28472 0.000752959 0)
(-0.257461 0.000633567 -3.99822e-21)
(-0.279775 0.000626805 0)
(-0.254692 0.000572918 0)
(-0.272645 0.00073377 0)
(-0.251553 0.00115596 0)
(-0.249978 0.000373954 0)
(-0.254082 0.000402744 0)
(-0.246784 0.00052973 0)
(-0.251234 -0.000115504 0)
(-0.243247 -0.00029694 0)
(-0.239601 -3.60931e-05 0)
(-0.236945 0.000458087 0)
(-0.233856 0.000636827 -1.42829e-21)
(-0.231108 0.000309543 1.14684e-21)
(-0.228271 1.17447e-05 0)
(-0.226179 0.000158431 0)
(-0.223645 0.00054219 0)
(-0.221665 0.000431535 0)
(-0.219185 0.00145398 -3.95739e-22)
(-0.233616 0.00277023 7.42422e-22)
(-0.218763 0.00206753 -1.0503e-21)
(-0.218091 0.0015387 0)
(-0.216794 0.00106277 -1.82635e-21)
(-0.216048 0.00108744 -4.48788e-21)
(-0.21367 0.00186188 0)
(-0.212561 0.000757202 -6.00955e-21)
(-0.210247 -0.00088269 7.24398e-21)
(-0.206479 0.000314235 0)
(-0.205546 0.000685063 0)
(-0.202077 0.00050547 0)
(-0.200904 0.000286936 0)
(-0.197372 0.000558621 0)
(-0.199286 0.000732613 -1.30617e-20)
(-0.193783 0.00056981 0)
(-0.192938 0.0017707 -1.50709e-20)
(-0.198944 0.00173506 0)
(-0.196884 0.00124416 0)
(-0.186364 0.000651998 0)
(-0.182275 0.000395978 0)
(-0.179099 0.00133243 0)
(-0.180124 0.000111165 2.21778e-20)
(-0.175531 -0.000489914 0)
(-0.1757 0.00131562 0)
(-0.175378 0.00114569 -2.60102e-20)
(-0.174251 0.000807944 0)
(-0.172035 0.000606561 0)
(-0.168417 0.000369682 0)
(-0.162648 0.00015666 3.43697e-20)
(-0.154512 0.000216681 0)
(-0.144221 0.00054311 0)
(-0.132134 0.00102642 0)
(-0.119119 0.00145968 0)
(-0.106377 0.00167615 -6.40771e-20)
(-0.0948775 0.00160601 0)
(-0.0852466 0.00136614 0)
(-0.0770641 0.00111555 0)
(-0.0704964 0.00100499 9.88125e-20)
(-0.062237 0.00106936 0)
(-0.0585391 0.00156922 0)
(-0.0314219 0.00138599 -1.41622e-19)
(-0.0626707 0.000249714 6.01853e-36)
(-0.0951097 0.00534064 1.20612e-17)
(-0.117443 0.00957162 2.16919e-17)
(-0.129305 0.0120291 2.04279e-17)
(-0.136344 0.013358 1.96499e-17)
(-0.141687 0.01418 1.90176e-17)
(-0.145898 0.0147607 -1.84839e-17)
(-0.149079 0.0151881 -1.79883e-17)
(-0.151516 0.0154956 0)
(-0.153804 0.0157307 -3.42685e-17)
(-0.156115 0.0159577 -1.67018e-17)
(-0.158575 0.0161816 7.10187e-34)
(-0.161138 0.016418 -2.40741e-35)
(-0.164175 0.0166713 -3.05745e-17)
(-0.167653 0.0169733 -2.93749e-17)
(-0.171843 0.0173271 -2.80304e-17)
(-0.176652 0.0177513 2.40741e-35)
(-0.182262 0.0182427 4.93699e-17)
(-0.188697 0.0188186 2.26237e-17)
(-0.195897 0.0194688 1.20371e-35)
(-0.204468 0.0202388 -3.52286e-17)
(-0.212826 0.0210248 -1.23748e-20)
(-0.225978 0.022157 0)
(-0.230663 0.022893 1.32641e-17)
(-0.255341 0.0244326 -6.93303e-18)
)
;
    }
    lowerWall
    {
        type            calculated;
        value           nonuniform List<vector> 
250
(
(-0.623845 -0.00580544 0)
(-0.595131 -0.00969933 0)
(-0.669747 -0.0125602 0)
(-0.573981 -0.0102627 0)
(-0.614144 -0.0106245 0)
(-0.539994 -0.00850654 0)
(-0.482178 -0.00573506 0)
(-0.575006 -0.00563383 0)
(-0.591811 -0.00435121 0)
(-0.56693 -0.00369756 0)
(-0.495128 -0.00285335 0)
(-0.437194 -0.00137165 0)
(-0.503319 -0.00163084 0)
(-0.463137 -0.00230832 0)
(-0.42492 -0.00165802 0)
(-0.422152 -0.00025643 0)
(-0.443668 0.000424481 0)
(-0.48224 0.000363166 0)
(0.00205104 0.000198126 0)
(0.00228313 -0.00257964 0)
(0.00254088 -0.00545153 0)
(0.0028666 -0.00849106 1.14532e-19)
(0.00318343 -0.0114754 -9.64107e-20)
(0.00337406 -0.0150381 8.46816e-20)
(0.00314122 -0.0145282 -7.55903e-20)
(0.00932362 -0.0327444 0)
(-0.0407853 -0.105414 0)
(0.000214202 -0.000265498 0)
(5.63232e-05 -0.000763187 0)
(-7.97145e-06 -0.000847678 0)
(5.19271e-05 -0.00084522 0)
(2.95265e-05 -0.000809199 1.54158e-19)
(-0.000139055 -0.000254662 -1.50062e-19)
(-0.000553683 0.00114027 0)
(-0.00112437 0.00373725 -1.74447e-19)
(-0.00149596 0.00705689 1.33872e-19)
(-0.0014578 0.0102119 0)
(-0.00108934 0.0125604 0)
(-0.000576802 0.0138124 0)
(-7.81805e-05 0.0139304 0)
(0.000318813 0.0130877 0)
(0.000647591 0.0115659 0)
(0.000967969 0.00941082 0)
(0.00131812 0.0066616 0)
(0.00171318 0.00336858 0)
(-0.000138773 -0.000267997 0)
(0.000162466 -0.000433635 0)
(0.000461808 -0.000485664 0)
(0.000772349 -0.000420085 0)
(0.00101983 -0.000195014 -0)
(0.00106546 0.000180315 -0)
(0.000826168 0.000632479 1.45889e-20)
(0.000327534 0.00105799 -1.6477e-20)
(-0.000364529 0.0013685 0)
(-0.00115869 0.00152547 -9.46975e-21)
(-0.00197846 0.00154095 0)
(-0.00276074 0.00144371 0)
(-0.00346105 0.00126891 0)
(-0.00405467 0.00104635 4.66369e-21)
(-0.00453007 0.000796464 0)
(-0.00488281 0.000530792 0)
(-0.00511027 0.000257624 -4.04367e-21)
(-0.00521658 -2.86901e-05 -0)
(-0.00517748 -0.000325416 0)
(-0.00499133 -0.000611559 -0)
(-0.00466702 -0.000867284 4.35236e-21)
(-0.00421608 -0.00107278 -0)
(-0.00365642 -0.00120729 5.15727e-21)
(-0.00301513 -0.00125175 0)
(-0.00232977 -0.00119213 -0)
(-0.00164908 -0.00102562 8.39718e-21)
(-0.00103004 -0.000768584 0)
(-0.000529606 -0.000465978 -1.39725e-20)
(-0.000179754 -0.0001905 0)
(3.91998e-05 -4.19892e-06 2.35837e-20)
(0.000179909 0.000103334 0)
(0.000263006 0.000192236 0)
(0.000260958 0.000299523 0)
(0.000158145 0.000445877 0)
(-7.64337e-05 0.000642131 0)
(-0.000471462 0.000850482 -1.55296e-20)
(-0.00101099 0.000995931 0)
(-0.00161157 0.00100487 1.82367e-20)
(-0.00215686 0.000863206 0)
(-0.00255043 0.000616307 -1.43711e-20)
(-0.00274999 0.000346739 0)
(-0.00278081 0.000127093 0)
(-0.00269656 4.80624e-06 1.41043e-20)
(-0.0025712 2.29296e-06 0)
(-0.00247004 0.000116956 1.46217e-20)
(-0.00240706 0.000300077 -1.47469e-20)
(-0.00233661 0.000425315 0)
(-0.00213984 0.000262149 -1.59279e-20)
(-0.0015579 -0.00035491 -1.83687e-20)
(-0.000344404 -0.00106691 0)
(0.00134241 -0.00165131 0)
(0.00318244 -0.00229887 0)
(0.00531286 -0.00292207 0)
(0.00766995 -0.00337517 -0)
(0.0101212 -0.00361302 3.56384e-21)
(0.0125717 -0.00373584 0)
(0.0149912 -0.00379144 -2.74436e-21)
(0.0173746 -0.00372165 -0)
(0.0197115 -0.00350857 -0)
(0.0217478 -0.00319497 2.16807e-21)
(0.0244989 -0.00302931 0)
(0.0273654 -0.00285911 -2.09509e-21)
(0.0271159 -0.00238454 -0)
(0.0302615 -0.00229844 0)
(0.0319671 -0.00213479 -0)
(0.0340568 -0.0019948 1.82013e-21)
(0.0359675 -0.00185878 0)
(0.0377806 -0.0017412 -0)
(0.0395493 -0.00163625 1.77087e-21)
(0.0412416 -0.00154278 0)
(0.0428839 -0.00145954 1.74892e-21)
(0.0444725 -0.00138462 0)
(0.0460176 -0.00131694 0)
(0.0475181 -0.00125478 0)
(0.0489809 -0.0011974 -1.71716e-21)
(0.0504047 -0.0011437 -0)
(0.051794 -0.00109301 0)
(0.0531476 -0.00104466 -1.69733e-21)
(0.0544678 -0.000998217 -1.69083e-21)
(0.0557537 -0.000953337 -0)
(0.0570071 -0.000909711 -1.67744e-21)
(0.0582264 -0.000867006 0)
(0.0594127 -0.000825111 -3.32631e-21)
(0.0605645 -0.00078383 -0)
(0.0616824 -0.000743035 -3.29512e-21)
(0.0627652 -0.000702639 -0)
(0.0638129 -0.000662408 3.26062e-21)
(0.0648243 -0.000622336 0)
(0.0657993 -0.000582244 0)
(0.0667365 -0.000541718 0)
(0.0676342 -0.000500722 -3.17943e-21)
(0.0684914 -0.000459028 -0)
(0.0693062 -0.000416331 3.13166e-21)
(0.0700768 -0.000372366 0)
(0.0708012 -0.000326782 -3.07876e-21)
(0.0714772 -0.000279332 -3.05031e-21)
(0.0721023 -0.000229721 -3.0206e-21)
(0.0726742 -0.000178299 -0)
(0.0731915 -0.000125901 0)
(0.0736528 -7.52423e-05 0)
(0.0740615 -3.10052e-05 0)
(0.0744221 6.00752e-06 0)
(0.0747387 4.02825e-05 0)
(0.0750109 7.40096e-05 0)
(0.0752386 0.000107433 0)
(0.0754211 0.000140707 2.68785e-21)
(0.0755581 0.000173869 2.6419e-21)
(0.0756491 0.000206883 0)
(0.0756934 0.000239736 0)
(0.075691 0.000272277 0)
(0.0756414 0.000304627 2.43767e-21)
(0.0755445 0.000336537 0)
(0.0754003 0.000368108 0)
(0.0752088 0.000399191 0)
(0.0749698 0.000429909 0)
(0.0746834 0.000459938 -2.13336e-21)
(0.0743504 0.000489502 0)
(0.0739703 0.000518384 0)
(0.0735441 0.000546671 1.92296e-21)
(0.073072 0.000574145 -1.84801e-21)
(0.0725549 0.000601056 0)
(0.0719926 0.00062715 -1.69074e-21)
(0.0713863 0.000652535 0)
(0.0707364 0.000677049 1.52346e-21)
(0.0700438 0.0007009 0)
(0.0693086 0.000723905 0)
(0.0685319 0.000746201 0)
(0.0677139 0.000767776 0)
(0.0668578 0.000788632 0)
(0.0659692 0.000808437 -1.91899e-21)
(0.0650397 0.000827105 -1.71211e-21)
(0.0640796 0.000845319 0)
(0.0630736 0.000862534 0)
(0.0620422 0.000878263 0)
(0.0609752 0.000891224 8.26915e-22)
(0.0598814 0.000898888 0)
(0.0587603 0.000897958 0)
(0.0576139 0.000889098 0)
(0.0564336 0.000891988 -1.57561e-22)
(0.0552249 0.000906769 4.21469e-22)
(0.053985 0.000917754 0)
(0.0527203 0.00092839 0)
(0.0514297 0.000937924 1.26193e-21)
(0.0501162 0.000946965 1.55979e-21)
(0.0487803 0.000955272 0)
(0.0474239 0.000963396 0)
(0.0460474 0.000971047 -2.51403e-21)
(0.0446527 0.000978592 2.85441e-21)
(0.043241 0.000985783 0)
(0.0418142 0.000992933 0)
(0.0403728 0.000999959 3.95186e-21)
(0.0389176 0.00100672 0)
(0.0374502 0.00101325 0)
(0.0359706 0.00101931 5.18269e-21)
(0.0344823 0.00102518 0)
(0.0329843 0.00103079 6.09229e-21)
(0.0314795 0.00103629 0)
(0.0299679 0.00104173 0)
(0.0284509 0.00104725 0)
(0.0269287 0.00105286 -8.18087e-21)
(0.0254022 0.00105867 0)
(0.0238716 0.00106463 0)
(0.0223375 0.00107077 0)
(0.0208002 0.001077 0)
(0.0192604 0.0010834 0)
(0.0177184 0.00108993 0)
(0.0161751 0.00109677 -1.31257e-20)
(0.0146306 0.00110393 -1.40304e-20)
(0.0130853 0.00111159 0)
(0.0115394 0.00111965 0)
(0.00999299 0.00112816 0)
(0.00844657 0.00113668 1.84336e-20)
(0.0069013 0.0011448 0)
(0.00535922 0.00115221 -4.25621e-20)
(0.0038241 0.00115674 4.58541e-20)
(0.0023039 0.00115367 4.95038e-20)
(0.000806088 0.00113141 -5.35576e-20)
(-0.000588401 0.00107714 5.4718e-20)
(-0.0021323 0.000915266 -5.27562e-20)
(-0.00252176 0.000541586 0)
(-0.004481 0.00116333 -3.13467e-18)
(-0.00751571 0.00094448 -2.83441e-18)
(-0.0105214 0.000609513 0)
(-0.0136362 0.000293841 -4.80739e-18)
(-0.0169584 -3.89533e-05 -8.93017e-18)
(-0.0204904 -0.000390723 -4.16274e-18)
(-0.0242433 -0.000762718 3.89156e-18)
(-0.0282394 -0.00115832 -3.00927e-35)
(-0.0325028 -0.00158108 3.00927e-36)
(-0.0370539 -0.00203314 3.21243e-18)
(-0.0419087 -0.0025228 3.01818e-18)
(-0.0470895 -0.00300867 0)
(-0.0526036 -0.00351236 0)
(-0.0585048 -0.00409183 0)
(-0.0648586 -0.00473693 -1.04102e-34)
(-0.07167 -0.0054372 -5.49661e-35)
(-0.0790761 -0.00619219 1.41435e-34)
(-0.08696 -0.00700834 -3.72396e-18)
(-0.0958447 -0.00789378 -3.39047e-18)
(-0.10487 -0.00885557 6.01853e-36)
(-0.116324 -0.00991142 5.32896e-18)
(-0.125859 -0.0110735 8.84106e-18)
(-0.143145 -0.0122983 1.20371e-35)
(-0.150546 -0.0138002 -4.25894e-18)
(-0.18501 -0.0161237 1.50463e-35)
)
;
    }
    frontAndBack
    {
        type            empty;
    }
}


// ************************************************************************* //
