/*--------------------------------*- C++ -*----------------------------------*\
  =========                 |
  \\      /  F ield         | OpenFOAM: The Open Source CFD Toolbox
   \\    /   O peration     | Website:  https://openfoam.org
    \\  /    A nd           | Version:  8
     \\/     M anipulation  |
\*---------------------------------------------------------------------------*/
FoamFile
{
    version     2.0;
    format      ascii;
    class       volScalarField;
    location    "2500";
    object      nuTilda;
}
// * * * * * * * * * * * * * * * * * * * * * * * * * * * * * * * * * * * * * //

dimensions      [0 2 -1 0 0 0 0];

internalField   nonuniform List<scalar> 
12225
(
0.0122671
0.00158833
0.000666932
0.000412201
0.000298001
0.000234418
0.000192049
0.000186517
0.000141364
0.000110263
9.73199e-05
9.07189e-05
8.20028e-05
7.63417e-05
7.17067e-05
7.0172e-05
6.81326e-05
7.40045e-05
0.0323823
0.00744533
0.00330642
0.00204338
0.00146818
0.00114477
0.000936743
0.000800566
0.000680243
0.000578059
0.000507246
0.00045356
0.000411866
0.000380371
0.00035202
0.000329993
0.000313754
0.00029588
0.0490123
0.01515
0.00728196
0.00457856
0.00330642
0.00258059
0.00211241
0.00178924
0.00154196
0.00134781
0.00119795
0.00107898
0.000982389
0.000902873
0.000836437
0.000781445
0.000736159
0.000687884
0.063054
0.0237783
0.0122894
0.00788815
0.00573398
0.004485
0.00367415
0.00310736
0.00268476
0.00235811
0.00210119
0.00189468
0.00172542
0.00158464
0.0014663
0.00136623
0.00128167
0.00119814
0.074932
0.0328517
0.0181452
0.0119262
0.00874549
0.00686413
0.00563081
0.00476256
0.0041175
0.00362032
0.00322735
0.00290996
0.00264904
0.00243149
0.00224806
0.00209196
0.00195835
0.00183637
0.0849536
0.0420208
0.0246655
0.0166359
0.0123325
0.00972587
0.0079954
0.00676785
0.00585346
0.00514771
0.00458846
0.00413589
0.00376337
0.00345242
0.00318986
0.002966
0.00277365
0.00260477
0.0933822
0.0510219
0.0316642
0.0219415
0.016474
0.0130717
0.0107779
0.00913552
0.00790571
0.00695341
0.00619691
0.00558368
0.00507838
0.00465634
0.00429978
0.00399563
0.00373417
0.00350821
0.0993794
0.0583363
0.0378386
0.0268568
0.0204171
0.0163053
0.0134892
0.011453
0.00991891
0.00872629
0.00777635
0.00700498
0.00636867
0.00583686
0.00538741
0.00500399
0.00467453
0.00439128
0.104023
0.0645454
0.0433804
0.0314239
0.0241571
0.0194092
0.0161097
0.0137018
0.0118766
0.0104521
0.00931443
0.00838904
0.00762486
0.00698575
0.00644545
0.0059845
0.00558859
0.00524878
0.108368
0.0708939
0.0493756
0.0365496
0.0284517
0.0230231
0.0191863
0.0163547
0.0141926
0.0124968
0.011138
0.0100304
0.00911434
0.0083476
0.0076991
0.00714579
0.00667069
0.00626298
0.112368
0.0772557
0.0557282
0.0421918
0.0332976
0.0271652
0.0227467
0.0194432
0.0168984
0.0148903
0.0132749
0.0119544
0.0108605
0.00994379
0.00916797
0.00850586
0.00793736
0.00744915
0.115994
0.0834975
0.0623053
0.0482611
0.0386474
0.0318167
0.026789
0.0229739
0.0200046
0.0176452
0.0157378
0.0141736
0.0128749
0.011785
0.0108618
0.0100736
0.00939671
0.00881464
0.119234
0.0894856
0.0689377
0.0546109
0.0443919
0.0369007
0.0312597
0.0269088
0.0234836
0.02074
0.0185096
0.0166735
0.0151449
0.01386
0.0127704
0.0118396
0.0110397
0.0103508
0.122086
0.095084
0.075415
0.0610223
0.0503361
0.0422534
0.0360231
0.0311353
0.0272402
0.024093
0.021519
0.0193909
0.017614
0.0161174
0.0148466
0.01376
0.0128257
0.0120196
0.124546
0.100135
0.0814619
0.0671725
0.056158
0.047577
0.0408126
0.0354174
0.031066
0.0275196
0.0246012
0.0221777
0.0201481
0.0184349
0.0169782
0.0157314
0.0146583
0.0137311
0.126578
0.104396
0.0866605
0.0725515
0.0613228
0.0523526
0.0451453
0.0393148
0.0345631
0.0306611
0.0274325
0.0247409
0.0224806
0.020569
0.0189413
0.0175468
0.0163454
0.0153061
0.128011
0.107322
0.0902141
0.0762353
0.0648743
0.0556509
0.0481493
0.0420254
0.0370012
0.0328553
0.0294126
0.0265352
0.0241143
0.0220643
0.0203172
0.0188191
0.0175275
0.0164083
0.128006
0.107313
0.0902048
0.0762269
0.0648674
0.0556454
0.048145
0.0420222
0.0369988
0.0328537
0.0294117
0.0265349
0.0241147
0.0220652
0.0203185
0.0188206
0.0175287
0.0164083
0.126509
0.104255
0.0864922
0.0723807
0.0611613
0.052205
0.0450128
0.0391967
0.0344584
0.0305686
0.0273506
0.0246684
0.0224163
0.0205118
0.0188903
0.0175006
0.0163024
0.0152631
0.124267
0.0995604
0.0807712
0.0664676
0.0554886
0.0469631
0.0402594
0.0349228
0.0306248
0.0271258
0.0242488
0.0218611
0.0198626
0.0181762
0.0167426
0.0155152
0.0144575
0.0135405
0.12136
0.0936399
0.0737261
0.0593348
0.0487592
0.0408249
0.0347467
0.0300003
0.0262308
0.0231928
0.0207127
0.018665
0.0169572
0.0155198
0.0142999
0.0132567
0.0123583
0.0115798
0.117686
0.0865903
0.0656967
0.0514791
0.0415374
0.0343608
0.0290184
0.0249322
0.0217348
0.0191848
0.0171184
0.0154211
0.0140106
0.0128263
0.0118229
0.0109657
0.010228
0.00958895
0.11305
0.0784122
0.056921
0.0432687
0.0342296
0.0279652
0.0234365
0.0200435
0.0174263
0.0153597
0.0136966
0.0123369
0.0112106
0.0102671
0.00946867
0.0087872
0.00820103
0.00769347
0.107169
0.0691009
0.0476372
0.035029
0.0271566
0.021922
0.0182437
0.0155401
0.0134817
0.0118706
0.0105816
0.00953197
0.00866487
0.00793966
0.00732671
0.00680379
0.00635416
0.00596496
0.0996761
0.0587036
0.0381279
0.0270699
0.0205782
0.016433
0.0135949
0.0115438
0.00999923
0.00879908
0.00784341
0.00706756
0.00642791
0.00589358
0.00544232
0.00505735
0.0047265
0.00444013
0.0901097
0.0473665
0.0287363
0.0196847
0.0146976
0.0116312
0.00957853
0.00811528
0.00702332
0.00617995
0.00551058
0.00496794
0.00452117
0.00414811
0.00383339
0.00356443
0.00333378
0.00313394
0.0779076
0.0353826
0.0198606
0.0131383
0.00966107
0.00759298
0.00623353
0.00527431
0.00456401
0.00401885
0.00358701
0.00323608
0.00294735
0.00270569
0.00250275
0.00232753
0.00217874
0.00204926
0.06238
0.0232554
0.0119461
0.00765494
0.00556339
0.00435258
0.00356726
0.00301643
0.00261312
0.00230799
0.00206672
0.00186707
0.00170289
0.00156325
0.0014491
0.0013455
0.00126008
0.00118529
0.0426105
0.0117794
0.00546931
0.00341388
0.00246077
0.00192015
0.0015729
0.00132905
0.00115971
0.00103882
0.000944719
0.000857723
0.00078723
0.000718817
0.000673698
0.000622824
0.000574511
0.000542378
0.0168348
0.0025599
0.00110031
0.000684192
0.000495179
0.000389151
0.00032166
0.000270751
0.000280923
0.000338748
0.000385624
0.000370706
0.000353021
0.000289042
0.000353924
0.000325759
0.000243253
0.000290657
3.78125e-06
1.43223e-05
2.60295e-05
3.85379e-05
4.60112e-05
4.96622e-05
5.01551e-05
4.78126e-05
4.46222e-05
3.95534e-05
3.42189e-05
2.94477e-05
2.67704e-05
2.74481e-05
2.96321e-05
3.14818e-05
3.13389e-05
2.85148e-05
2.38726e-05
2.02114e-05
2.08242e-05
2.64235e-05
3.93424e-05
6.39046e-05
8.72007e-05
0.000100613
0.000113335
0.000124343
0.000134329
0.000142832
0.000150424
0.000157043
0.000162904
0.000168059
0.000172591
0.000176617
0.000180204
0.000183423
0.00018632
0.000188931
0.000191281
0.000193387
0.000195264
0.000196927
0.000198387
0.000199655
0.00020074
0.000201649
0.000202381
0.000202805
0.000203296
0.000203379
0.000203439
0.000203323
0.000203045
0.000202631
0.000202076
0.000201383
0.000200555
0.000199593
0.000198501
0.00019728
0.000195933
0.000194463
0.000192873
0.000191166
0.000189342
0.000187406
0.00018536
0.000183207
0.000180951
0.000178593
0.000176136
0.000173584
0.000170937
0.0001682
0.000165375
0.000162464
0.00015947
0.000156394
0.000153239
0.000150002
0.000146683
0.00014328
0.000139789
0.000136205
0.000132522
0.000128726
0.000124803
0.000120741
0.000116534
0.000112165
0.000107623
0.000102965
9.84024e-05
9.44198e-05
9.15957e-05
8.98393e-05
8.85247e-05
8.73199e-05
8.61366e-05
8.49578e-05
8.3782e-05
8.26096e-05
8.14416e-05
8.02789e-05
7.9123e-05
7.7978e-05
7.68649e-05
7.59102e-05
7.49763e-05
7.40484e-05
7.31285e-05
7.22168e-05
7.13138e-05
7.04198e-05
6.95351e-05
6.86601e-05
6.77951e-05
6.69402e-05
6.60956e-05
6.52616e-05
6.44384e-05
6.36266e-05
6.28261e-05
6.20367e-05
6.12595e-05
6.052e-05
5.98428e-05
5.91742e-05
5.85108e-05
5.78607e-05
5.72288e-05
5.66021e-05
5.59802e-05
5.53663e-05
5.47616e-05
5.41664e-05
5.3581e-05
5.30051e-05
5.24387e-05
5.18817e-05
5.13338e-05
5.0795e-05
5.0265e-05
4.97439e-05
4.92315e-05
4.87277e-05
4.82324e-05
4.77456e-05
4.72671e-05
4.6797e-05
4.63351e-05
4.58815e-05
4.54361e-05
4.4999e-05
4.45703e-05
4.415e-05
4.37382e-05
4.33352e-05
4.29411e-05
4.25561e-05
4.21805e-05
4.18145e-05
4.14583e-05
4.11121e-05
4.07758e-05
4.04492e-05
4.01318e-05
3.9823e-05
3.95207e-05
3.92251e-05
3.89273e-05
3.86407e-05
3.83117e-05
3.80561e-05
3.75483e-05
3.73534e-05
3.63027e-05
3.49084e-05
5.89804e-06
4.05886e-05
9.24657e-05
0.000153706
0.000192551
0.000214554
0.000223346
0.000221918
0.000214074
0.000198516
0.000179499
0.000161546
0.000152478
0.000157005
0.00016932
0.000177335
0.000179532
0.000180676
0.00018563
0.000194339
0.000208076
0.000224511
0.000240375
0.000256185
0.000267065
0.000276644
0.000285194
0.00029769
0.000316339
0.000330002
0.000342515
0.000353261
0.000363041
0.000372012
0.000379809
0.000386933
0.000393569
0.000399939
0.000406172
0.000412331
0.000418414
0.000424376
0.000430165
0.000435741
0.000441076
0.000446151
0.000450954
0.00045547
0.000459701
0.000463646
0.000467345
0.000470764
0.000473939
0.000476862
0.000479536
0.000481962
0.000484141
0.000486075
0.000487762
0.000489204
0.000490401
0.000491354
0.000492066
0.000492539
0.000492786
0.000492811
0.000492608
0.000492174
0.000491524
0.000490663
0.000489597
0.000488332
0.000486875
0.000485232
0.000483411
0.000481418
0.000479262
0.000476949
0.000474488
0.000471887
0.000469153
0.000466295
0.00046332
0.000460237
0.000457053
0.000453777
0.000450417
0.00044698
0.000443473
0.000439904
0.000436283
0.000432614
0.000428895
0.000425119
0.000421268
0.000417317
0.000413248
0.00040909
0.000404893
0.000400682
0.000396464
0.000392243
0.000388023
0.000383808
0.000379599
0.000375402
0.000371219
0.000367052
0.000362902
0.000358765
0.000354653
0.00035057
0.000346518
0.000342499
0.000338515
0.000334567
0.000330657
0.000326787
0.000322957
0.000319169
0.000315424
0.000311722
0.000308066
0.000304455
0.000300891
0.000297374
0.000293903
0.000290477
0.000287094
0.000283759
0.000280469
0.000277232
0.000274049
0.000270906
0.0002678
0.000264738
0.000261721
0.000258752
0.00025583
0.000252954
0.000250124
0.00024734
0.0002446
0.000241905
0.000239253
0.000236645
0.000234078
0.000231554
0.000229072
0.000226631
0.00022423
0.000221871
0.000219551
0.000217272
0.000215033
0.000212834
0.000210676
0.000208559
0.000206483
0.000204451
0.000202462
0.000200519
0.000198622
0.000196773
0.000194975
0.000193227
0.00019153
0.000189886
0.000188292
0.000186748
0.000185247
0.000183793
0.000182357
0.000180994
0.00017951
0.000178386
0.000176291
0.000175967
0.000172989
0.000172126
1.28767e-05
7.40665e-05
0.000174304
0.000251872
0.000303653
0.00033336
0.000344209
0.000341391
0.000328794
0.000309924
0.000290643
0.000278291
0.000276102
0.000282578
0.000292642
0.000303196
0.000315665
0.00033228
0.000353514
0.000378314
0.000405388
0.000433477
0.000471396
0.000517511
0.00056296
0.00060696
0.000649938
0.000693509
0.000732772
0.000764009
0.00078898
0.000808778
0.000824472
0.000836926
0.000846919
0.000855226
0.000862547
0.000869526
0.000876699
0.000884423
0.000892803
0.000901717
0.000910927
0.000920195
0.000929344
0.000938256
0.000946853
0.000955087
0.000962923
0.000970333
0.000977293
0.000983774
0.000989774
0.000995286
0.00100031
0.00100484
0.00100887
0.00101242
0.00101547
0.00101803
0.0010201
0.00102168
0.00102276
0.0010233
0.00102346
0.00102318
0.00102238
0.00102114
0.00101946
0.00101734
0.0010148
0.00101186
0.00100853
0.00100481
0.00100074
0.000996307
0.000991544
0.000986459
0.000981069
0.000975389
0.000969433
0.000963218
0.000956757
0.000950067
0.000943162
0.000936057
0.000928767
0.000921307
0.000913688
0.000905926
0.000898031
0.000890016
0.00088189
0.000873659
0.000865334
0.000856923
0.00084844
0.000839899
0.000831317
0.000822708
0.000814082
0.000805449
0.000796815
0.00078819
0.000779579
0.00077099
0.00076243
0.000753904
0.000745419
0.000736979
0.00072859
0.000720257
0.000711986
0.00070378
0.000695643
0.000687578
0.000679589
0.000671678
0.000663848
0.000656101
0.000648439
0.000640864
0.000633378
0.000625983
0.000618681
0.00061147
0.000604353
0.000597328
0.000590398
0.000583563
0.000576823
0.000570179
0.000563628
0.000557165
0.000550789
0.000544503
0.000538308
0.000532204
0.000526193
0.000520274
0.000514445
0.000508706
0.000503055
0.000497492
0.000492015
0.000486624
0.000481316
0.000476092
0.000470949
0.000465888
0.000460906
0.000456002
0.000451176
0.000446426
0.000441752
0.000437152
0.000432624
0.000428169
0.000423784
0.000419469
0.000415222
0.000411041
0.000406924
0.00040287
0.000398876
0.000394939
0.000391054
0.000387216
0.000383419
0.000379654
0.00037591
0.000372171
0.000368415
0.000364622
0.000360719
0.000356741
0.000352322
0.00034802
0.000341562
0.00033041
2.17715e-05
0.000106433
0.000220238
0.000312834
0.000375511
0.000412494
0.000427921
0.000428308
0.000418389
0.000405121
0.000397053
0.000396226
0.000405354
0.000422395
0.000444954
0.000472507
0.000505658
0.000544776
0.00058906
0.000651109
0.000724811
0.000804474
0.000888638
0.000959235
0.00102162
0.00107771
0.0011281
0.00117298
0.00121223
0.0012461
0.00127533
0.00130066
0.00132277
0.00134231
0.00135984
0.00137586
0.00139078
0.00140494
0.0014186
0.00143195
0.00144511
0.00145816
0.00147112
0.00148397
0.00149666
0.00150912
0.00152125
0.00153295
0.00154414
0.00155473
0.00156469
0.00157396
0.00158253
0.00159039
0.00159753
0.00160394
0.00160961
0.00161454
0.00161874
0.00162221
0.00162493
0.00162691
0.00162806
0.0016285
0.00162837
0.00162746
0.00162584
0.00162352
0.00162052
0.00161686
0.00161257
0.00160765
0.00160213
0.00159603
0.00158937
0.00158218
0.00157447
0.00156628
0.00155762
0.00154851
0.00153898
0.00152905
0.00151875
0.0015081
0.00149712
0.00148583
0.00147426
0.00146242
0.00145035
0.00143805
0.00142556
0.00141288
0.00140003
0.00138704
0.00137391
0.00136066
0.00134731
0.00133389
0.0013204
0.00130687
0.00129332
0.00127975
0.00126618
0.00125262
0.00123909
0.0012256
0.00121214
0.00119875
0.00118541
0.00117215
0.00115897
0.00114587
0.00113287
0.00111997
0.00110718
0.0010945
0.00108193
0.00106949
0.00105717
0.00104498
0.00103293
0.001021
0.00100922
0.000997574
0.00098607
0.000974708
0.000963491
0.000952417
0.00094149
0.000930709
0.000920074
0.000909586
0.000899241
0.000889035
0.000878968
0.000869041
0.000859255
0.00084961
0.000840105
0.000830741
0.000821517
0.00081243
0.000803479
0.000794664
0.000785981
0.000777429
0.000769007
0.000760713
0.000752545
0.0007445
0.000736579
0.000728778
0.000721095
0.00071353
0.000706079
0.000698742
0.000691517
0.0006844
0.000677391
0.000670488
0.000663687
0.000656986
0.000650383
0.000643873
0.000637453
0.000631118
0.000624861
0.000618676
0.000612552
0.000606478
0.000600436
0.000594406
0.000588359
0.000582257
0.000576036
0.000569641
0.00056289
0.000555729
0.000547508
0.000531411
2.6971e-05
0.000122011
0.000241113
0.000357833
0.000435852
0.000483014
0.000506514
0.000514939
0.000516506
0.000517489
0.000524335
0.000540422
0.000566371
0.000601232
0.000644232
0.000695395
0.000755367
0.000838669
0.000934243
0.00103039
0.00111935
0.0012037
0.00128302
0.0013557
0.00142244
0.00148384
0.00154029
0.00159214
0.00163973
0.00168349
0.00172392
0.00176148
0.00179661
0.00182968
0.00186102
0.00189086
0.0019194
0.00194678
0.00197311
0.00199843
0.00202279
0.00204619
0.00206864
0.0020901
0.00211057
0.00213
0.00214836
0.00216564
0.0021818
0.00219682
0.00221069
0.00222341
0.00223501
0.00224548
0.00225485
0.00226313
0.00227035
0.00227651
0.00228164
0.00228574
0.00228884
0.00229089
0.0022918
0.00229189
0.00229101
0.00228914
0.00228631
0.00228253
0.00227785
0.00227227
0.00226582
0.00225853
0.00225044
0.00224156
0.00223193
0.00222158
0.00221053
0.00219883
0.0021865
0.00217357
0.00216008
0.00214605
0.00213151
0.0021165
0.00210105
0.00208519
0.00206895
0.00205235
0.00203543
0.00201822
0.00200073
0.00198301
0.00196507
0.00194693
0.00192863
0.00191017
0.0018916
0.00187292
0.00185416
0.00183536
0.00181651
0.00179765
0.0017788
0.00175997
0.00174117
0.00172242
0.00170373
0.00168512
0.00166661
0.00164819
0.00162988
0.00161169
0.00159364
0.00157572
0.00155795
0.00154034
0.00152288
0.00150559
0.00148848
0.00147154
0.00145478
0.0014382
0.00142182
0.00140562
0.00138962
0.00137381
0.00135821
0.00134279
0.00132758
0.00131257
0.00129775
0.00128314
0.00126872
0.00125449
0.00124046
0.00122662
0.00121297
0.00119952
0.00118625
0.00117318
0.00116029
0.0011476
0.00113509
0.00112276
0.00111061
0.00109864
0.00108685
0.00107523
0.00106378
0.0010525
0.00104139
0.00103044
0.00101965
0.00100902
0.00099854
0.000988218
0.000978046
0.000968022
0.000958142
0.000948405
0.000938806
0.000929343
0.00092001
0.000910804
0.00090172
0.000892752
0.000883891
0.000875129
0.000866454
0.000857851
0.000849302
0.000840781
0.000832255
0.000823679
0.000814987
0.000806108
0.000796877
0.000787147
0.000777191
0.000757405
3.07978e-05
0.000135318
0.000261503
0.000392463
0.000488736
0.00055034
0.000588058
0.000611446
0.000629153
0.000648426
0.000674506
0.000710043
0.000755777
0.00081199
0.000879087
0.000969509
0.00107457
0.00117624
0.00127543
0.0013709
0.00146158
0.00154756
0.00162879
0.00170523
0.00177718
0.00184499
0.00190901
0.00196955
0.00202696
0.00208156
0.00213368
0.0021836
0.00223158
0.00227783
0.00232249
0.0023657
0.00240755
0.00244808
0.00248734
0.00252533
0.00256203
0.00259745
0.00263154
0.00266427
0.00269561
0.00272552
0.00275394
0.00278085
0.00280621
0.00282997
0.00285213
0.00287265
0.00289151
0.00290872
0.00292425
0.00293812
0.00295032
0.00296086
0.00296975
0.00297702
0.00298267
0.00298675
0.00298918
0.00299008
0.00298961
0.00298764
0.0029843
0.0029796
0.0029736
0.00296635
0.0029579
0.00294831
0.00293762
0.00292589
0.00291318
0.00289951
0.00288495
0.00286953
0.00285331
0.00283632
0.00281861
0.00280022
0.00278118
0.00276155
0.00274136
0.00272066
0.00269947
0.00267784
0.00265581
0.00263341
0.00261068
0.00258765
0.00256436
0.00254083
0.00251709
0.00249319
0.00246913
0.00244496
0.0024207
0.00239638
0.00237202
0.00234765
0.00232328
0.00229895
0.00227467
0.00225045
0.00222632
0.00220229
0.00217838
0.0021546
0.00213096
0.00210748
0.00208417
0.00206104
0.0020381
0.00201535
0.00199281
0.00197048
0.00194838
0.0019265
0.00190485
0.00188343
0.00186226
0.00184133
0.00182064
0.0018002
0.00178001
0.00176008
0.00174039
0.00172096
0.00170178
0.00168286
0.00166418
0.00164575
0.00162757
0.00160963
0.00159193
0.00157448
0.00155727
0.0015403
0.00152357
0.00150708
0.00149082
0.00147479
0.00145899
0.00144342
0.00142806
0.00141293
0.00139801
0.0013833
0.00136881
0.00135451
0.00134042
0.00132653
0.00131284
0.00129934
0.00128602
0.00127289
0.00125995
0.00124718
0.00123459
0.00122216
0.00120991
0.00119781
0.00118587
0.00117407
0.00116241
0.00115088
0.00113947
0.00112816
0.00111692
0.00110574
0.00109457
0.00108337
0.00107207
0.0010606
0.00104879
0.00103658
0.00102441
0.00100194
3.23479e-05
0.0001425
0.000273967
0.000409847
0.000527784
0.000609002
0.000665053
0.00070697
0.00074396
0.00078327
0.000829951
0.00088695
0.000955896
0.00104816
0.0011551
0.00126167
0.00136774
0.00147108
0.00157114
0.00166748
0.00175986
0.00184829
0.00193285
0.0020137
0.00209108
0.00216527
0.00223654
0.00230517
0.0023714
0.00243547
0.0024976
0.00255795
0.00261668
0.00267391
0.00272971
0.00278416
0.00283727
0.00288907
0.00293955
0.00298868
0.00303645
0.00308281
0.00312772
0.00317112
0.00321298
0.00325323
0.00329182
0.00332871
0.00336383
0.00339714
0.00342861
0.00345819
0.00348584
0.00351154
0.00353527
0.00355699
0.0035767
0.00359438
0.00361003
0.00362366
0.00363525
0.00364484
0.00365241
0.00365803
0.00366168
0.0036633
0.00366322
0.00366123
0.00365745
0.00365194
0.00364473
0.00363589
0.00362547
0.00361354
0.00360016
0.00358539
0.0035693
0.00355196
0.00353343
0.00351378
0.00349308
0.00347139
0.00344879
0.00342533
0.00340108
0.0033761
0.00335046
0.0033242
0.0032974
0.00327009
0.00324234
0.00321419
0.00318568
0.00315687
0.00312778
0.00309848
0.00306898
0.00303933
0.00300956
0.00297971
0.00294981
0.00291989
0.00288998
0.0028601
0.00283028
0.00280053
0.00277089
0.00274138
0.002712
0.00268278
0.00265374
0.00262488
0.00259623
0.0025678
0.00253959
0.00251162
0.00248391
0.00245645
0.00242925
0.00240233
0.00237569
0.00234933
0.00232326
0.00229749
0.00227201
0.00224683
0.00222195
0.00219738
0.0021731
0.00214914
0.00212547
0.00210211
0.00207906
0.0020563
0.00203383
0.00201166
0.00198979
0.00196821
0.00194692
0.00192592
0.00190521
0.00188478
0.00186463
0.00184476
0.00182517
0.00180584
0.00178678
0.00176798
0.00174944
0.00173116
0.00171313
0.00169534
0.0016778
0.00166049
0.00164343
0.00162659
0.00160998
0.00159359
0.00157743
0.00156147
0.00154573
0.0015302
0.00151486
0.00149972
0.00148477
0.00147
0.00145539
0.00144095
0.00142666
0.00141249
0.00139843
0.00138445
0.00137051
0.00135656
0.00134254
0.00132837
0.0013139
0.00129915
0.00128414
0.0012599
3.27957e-05
0.000144125
0.000275311
0.000409431
0.000539336
0.000642644
0.000719733
0.000781083
0.000836813
0.000894608
0.000962155
0.00105406
0.00116364
0.00128532
0.00140087
0.00151212
0.00161993
0.00172449
0.00182573
0.0019236
0.00201808
0.00210928
0.00219733
0.00228242
0.00236477
0.0024446
0.00252214
0.00259759
0.00267115
0.00274299
0.00281325
0.00288204
0.00294947
0.0030156
0.00308046
0.00314407
0.00320644
0.00326755
0.00332738
0.00338587
0.00344299
0.00349868
0.00355289
0.00360553
0.00365657
0.00370592
0.00375352
0.00379931
0.00384323
0.00388522
0.00392522
0.00396319
0.00399907
0.00403283
0.00406442
0.00409382
0.004121
0.00414593
0.0041686
0.004189
0.00420713
0.00422298
0.00423656
0.00424789
0.00425698
0.00426385
0.00426857
0.00427102
0.00427145
0.00426981
0.00426614
0.0042605
0.00425293
0.0042435
0.00423227
0.0042193
0.00420465
0.00418839
0.0041706
0.00415133
0.00413067
0.00410867
0.00408543
0.004061
0.00403546
0.00400888
0.00398134
0.00395289
0.00392362
0.00389359
0.00386286
0.0038315
0.00379957
0.00376713
0.00373423
0.00370093
0.00366729
0.00363335
0.00359918
0.0035648
0.00353027
0.00349564
0.00346093
0.0034262
0.00339146
0.00335677
0.00332213
0.0032876
0.00325318
0.00321891
0.00318481
0.0031509
0.00311719
0.00308371
0.00305048
0.0030175
0.00298479
0.00295236
0.00292023
0.0028884
0.00285688
0.00282568
0.0027948
0.00276425
0.00273405
0.00270418
0.00267465
0.00264546
0.00261663
0.00258814
0.00256
0.00253221
0.00250476
0.00247766
0.0024509
0.00242448
0.0023984
0.00237266
0.00234725
0.00232218
0.00229744
0.00227303
0.00224894
0.00222517
0.00220172
0.00217858
0.00215575
0.00213322
0.002111
0.00208907
0.00206743
0.00204608
0.00202501
0.00200422
0.00198371
0.00196347
0.00194349
0.00192377
0.00190431
0.0018851
0.00186613
0.00184741
0.00182893
0.00181067
0.00179264
0.00177482
0.0017572
0.00173978
0.00172253
0.00170544
0.00168849
0.00167164
0.00165487
0.00163811
0.0016213
0.00160437
0.00158717
0.00156978
0.00155184
0.00152571
3.22375e-05
0.000141196
0.000268903
0.000398015
0.000521851
0.000633962
0.000727736
0.000808815
0.000891784
0.000987052
0.00109623
0.00122088
0.00135724
0.00148473
0.00160502
0.00172002
0.00183073
0.00193749
0.00204063
0.0021405
0.00223732
0.00233128
0.00242259
0.00251145
0.00259807
0.00268265
0.00276537
0.00284642
0.00292594
0.00300406
0.0030809
0.00315653
0.003231
0.00330435
0.0033766
0.00344773
0.00351773
0.00358655
0.00365416
0.00372048
0.00378547
0.00384904
0.00391112
0.00397164
0.00403052
0.00408768
0.00414304
0.00419653
0.00424808
0.00429762
0.00434507
0.00439039
0.0044335
0.00447438
0.00451296
0.0045492
0.00458308
0.00461456
0.00464362
0.00467025
0.00469443
0.00471615
0.00473543
0.00475226
0.00476667
0.00477866
0.00478826
0.00479549
0.00480043
0.00480299
0.00480338
0.00480156
0.0047976
0.00479154
0.00478344
0.00477335
0.00476135
0.0047475
0.00473186
0.0047145
0.00469549
0.00467491
0.00465281
0.00462929
0.0046044
0.00457823
0.00455084
0.00452232
0.00449272
0.00446213
0.0044306
0.00439822
0.00436504
0.00433113
0.00429656
0.00426139
0.00422569
0.0041895
0.00415289
0.00411592
0.00407863
0.00404109
0.00400333
0.00396541
0.00392736
0.00388924
0.00385108
0.00381292
0.00377479
0.00373673
0.00369876
0.00366091
0.00362322
0.00358571
0.00354839
0.0035113
0.00347445
0.00343785
0.00340153
0.00336549
0.00332976
0.00329434
0.00325925
0.00322448
0.00319006
0.00315599
0.00312228
0.00308892
0.00305593
0.0030233
0.00299104
0.00295916
0.00292764
0.0028965
0.00286573
0.00283532
0.00280529
0.00277562
0.00274632
0.00271739
0.00268882
0.00266061
0.00263276
0.00260526
0.00257811
0.00255131
0.00252485
0.00249873
0.00247295
0.0024475
0.00242237
0.00239757
0.00237308
0.00234891
0.00232504
0.00230148
0.00227822
0.00225525
0.00223258
0.00221019
0.00218808
0.00216624
0.00214468
0.00212337
0.00210232
0.00208152
0.00206095
0.0020406
0.00202046
0.00200051
0.00198072
0.00196107
0.0019415
0.00192197
0.00190242
0.00188277
0.00186288
0.00184282
0.00182208
0.00179375
3.08681e-05
0.00013511
0.00025811
0.000383392
0.000505343
0.000621406
0.000732043
0.000840997
0.000955817
0.00108164
0.0012197
0.00136943
0.00151171
0.00164368
0.00176793
0.00188635
0.00200006
0.0021097
0.00221566
0.00231814
0.00241754
0.00251424
0.00260854
0.0027007
0.00279094
0.00287946
0.00296645
0.00305206
0.00313644
0.00321968
0.00330187
0.00338306
0.0034633
0.0035426
0.00362094
0.0036983
0.00377465
0.00384993
0.00392407
0.003997
0.00406864
0.00413891
0.00420772
0.00427497
0.00434058
0.00440446
0.00446651
0.00452665
0.0045848
0.00464088
0.00469482
0.00474653
0.00479597
0.00484307
0.00488777
0.00493004
0.00496983
0.0050071
0.00504183
0.00507401
0.0051036
0.00513061
0.00515503
0.00517687
0.00519613
0.00521283
0.005227
0.00523865
0.00524783
0.00525455
0.00525887
0.0052608
0.00526046
0.00525785
0.00525304
0.00524607
0.00523702
0.00522594
0.0052129
0.00519796
0.0051812
0.00516268
0.00514248
0.00512066
0.0050973
0.00507247
0.00504625
0.0050187
0.0049899
0.00495993
0.00492884
0.00489672
0.00486362
0.00482963
0.00479479
0.00475919
0.00472288
0.00468593
0.00464839
0.00461034
0.00457182
0.00453289
0.00449361
0.00445402
0.00441418
0.00437413
0.00433393
0.0042936
0.00425319
0.00421275
0.0041723
0.00413188
0.00409153
0.00405127
0.00401114
0.00397116
0.00393134
0.00389173
0.00385234
0.00381318
0.00377428
0.00373566
0.00369732
0.00365928
0.00362156
0.00358416
0.0035471
0.00351037
0.003474
0.00343799
0.00340234
0.00336706
0.00333214
0.0032976
0.00326343
0.00322963
0.00319622
0.00316318
0.00313051
0.00309823
0.00306632
0.00303478
0.00300362
0.00297283
0.00294241
0.00291235
0.00288266
0.00285333
0.00282435
0.00279573
0.00276745
0.00273952
0.00271194
0.00268468
0.00265777
0.00263118
0.00260491
0.00257897
0.00255334
0.00252803
0.00250302
0.00247831
0.0024539
0.00242978
0.00240593
0.00238236
0.00235905
0.00233599
0.00231316
0.00229054
0.00226811
0.00224583
0.00222367
0.00220156
0.00217944
0.00215725
0.00213485
0.00211227
0.00208897
0.00205831
2.93174e-05
0.000128791
0.000248238
0.000372469
0.000497093
0.000621008
0.000745654
0.000874973
0.00101223
0.00115948
0.00131685
0.00147861
0.0016264
0.00176283
0.00189093
0.00201268
0.00212936
0.0022418
0.00235053
0.00245594
0.00255832
0.00265788
0.00275505
0.00285018
0.00294357
0.00303544
0.00312599
0.0032154
0.00330378
0.00339124
0.00347785
0.00356366
0.00364869
0.00373294
0.00381638
0.00389898
0.00398069
0.00406143
0.00414112
0.00421968
0.00429702
0.00437303
0.00444761
0.00452067
0.00459209
0.00466178
0.00472963
0.00479556
0.00485946
0.00492125
0.00498084
0.00503816
0.00509314
0.00514571
0.00519581
0.00524339
0.0052884
0.00533082
0.00537059
0.00540771
0.00544214
0.00547389
0.00550294
0.0055293
0.00555298
0.00557398
0.00559233
0.00560805
0.00562117
0.00563173
0.00563976
0.0056453
0.00564841
0.00564913
0.00564753
0.00564365
0.00563756
0.00562931
0.00561897
0.00560661
0.00559229
0.00557607
0.00555804
0.00553826
0.0055168
0.00549374
0.00546915
0.0054431
0.00541567
0.00538691
0.00535692
0.00532574
0.00529347
0.00526015
0.00522586
0.00519067
0.00515464
0.00511783
0.00508031
0.00504214
0.00500338
0.00496409
0.00492432
0.00488412
0.00484356
0.00480267
0.0047615
0.00472011
0.00467853
0.00463682
0.004595
0.00455311
0.0045112
0.00446929
0.00442743
0.00438563
0.00434393
0.00430236
0.00426093
0.00421968
0.00417863
0.00413779
0.00409718
0.00405683
0.00401674
0.00397694
0.00393743
0.00389822
0.00385934
0.00382078
0.00378255
0.00374467
0.00370713
0.00366995
0.00363313
0.00359667
0.00356057
0.00352484
0.00348948
0.00345449
0.00341987
0.00338562
0.00335175
0.00331825
0.00328512
0.00325235
0.00321996
0.00318793
0.00315626
0.00312496
0.00309401
0.00306342
0.00303318
0.00300329
0.00297375
0.00294455
0.00291568
0.00288716
0.00285896
0.0028311
0.00280355
0.00277633
0.00274941
0.00272281
0.0026965
0.00267049
0.00264475
0.00261928
0.00259407
0.00256908
0.0025443
0.00251969
0.00249522
0.00247082
0.00244643
0.00242198
0.00239736
0.00237256
0.00234705
0.00231424
2.76233e-05
0.000122193
0.000238215
0.000361767
0.000489211
0.000619919
0.000756149
0.000899681
0.00105219
0.00121417
0.00138614
0.00155208
0.00170385
0.00184415
0.00197575
0.00210062
0.00222012
0.00233516
0.00244643
0.0025544
0.00265948
0.00276195
0.00286209
0.00296009
0.00305638
0.00315123
0.0032449
0.00333756
0.00342936
0.00352041
0.00361078
0.0037005
0.0037896
0.00387806
0.00396586
0.00405293
0.00413922
0.00422465
0.00430911
0.00439252
0.00447477
0.00455574
0.00463533
0.00471341
0.00478989
0.00486463
0.00493754
0.00500851
0.00507743
0.00514422
0.00520878
0.00527103
0.00533088
0.00538827
0.00544314
0.00549543
0.00554509
0.00559207
0.00563635
0.00567789
0.00571667
0.00575269
0.00578593
0.00581639
0.00584408
0.00586902
0.00589121
0.00591069
0.00592748
0.00594162
0.00595313
0.00596207
0.00596848
0.0059724
0.00597389
0.00597302
0.00596985
0.00596442
0.0059568
0.00594705
0.00593524
0.00592144
0.00590572
0.00588814
0.00586879
0.00584773
0.00582503
0.00580078
0.00577503
0.00574786
0.00571934
0.00568953
0.00565852
0.00562636
0.00559312
0.00555887
0.00552368
0.0054876
0.00545071
0.00541306
0.00537472
0.00533574
0.00529618
0.0052561
0.00521554
0.00517457
0.00513322
0.00509155
0.0050496
0.00500741
0.00496504
0.00492251
0.00487987
0.00483715
0.00479439
0.00475163
0.00470888
0.00466619
0.00462357
0.00458106
0.00453869
0.00449646
0.00445441
0.00441256
0.00437092
0.00432951
0.00428834
0.00424744
0.00420681
0.00416647
0.00412642