/*--------------------------------*- C++ -*----------------------------------*\
  =========                 |
  \\      /  F ield         | OpenFOAM: The Open Source CFD Toolbox
   \\    /   O peration     | Website:  https://openfoam.org
    \\  /    A nd           | Version:  8
     \\/     M anipulation  |
\*---------------------------------------------------------------------------*/
FoamFile
{
    version     2.0;
    format      ascii;
    class       volScalarField;
    location    "1800";
    object      k;
}
// * * * * * * * * * * * * * * * * * * * * * * * * * * * * * * * * * * * * * //

dimensions      [0 2 -2 0 0 0 0];

internalField   nonuniform List<scalar> 
12225
(
0.370602
2.01323
2.06539
1.6723
1.85767
1.61893
1.56543
2.13252
2.08512
1.47713
1.49209
1.22654
2.83121
3.17495
3.08436
2.43993
1.66122
1.52702
0.39147
0.454439
0.518059
0.539192
0.554929
0.563616
0.58387
0.625657
0.673299
0.710328
0.773733
0.768361
0.815789
0.855342
0.886106
0.900985
0.906429
0.908037
0.376509
0.381476
0.382607
0.382681
0.374476
0.375036
0.365892
0.36778
0.359447
0.358847
0.36468
0.363309
0.363895
0.365752
0.369628
0.371039
0.371753
0.375051
0.374073
0.372317
0.369126
0.366069
0.363146
0.360641
0.358017
0.354761
0.351646
0.3478
0.344693
0.340764
0.336583
0.331741
0.327289
0.322653
0.318634
0.315166
0.373761
0.371671
0.368616
0.365764
0.363528
0.361344
0.359513
0.357183
0.355031
0.352361
0.349898
0.346836
0.343801
0.340137
0.336749
0.33292
0.329786
0.326382
0.373919
0.371636
0.369098
0.366625
0.364545
0.362555
0.360838
0.358936
0.357158
0.355135
0.353198
0.350942
0.348721
0.346158
0.343751
0.341075
0.338809
0.336323
0.373901
0.371651
0.36939
0.367168
0.365173
0.363278
0.36157
0.359839
0.35821
0.3565
0.354847
0.353056
0.351296
0.349379
0.347551
0.345599
0.34387
0.342029
0.373867
0.371631
0.369465
0.367361
0.365409
0.363554
0.361841
0.360169
0.358589
0.357006
0.355479
0.353904
0.352365
0.350761
0.349221
0.347629
0.346179
0.344675
0.373848
0.3716
0.369467
0.367416
0.365489
0.363655
0.36194
0.360292
0.358732
0.357209
0.355747
0.354293
0.352881
0.351458
0.35009
0.348712
0.347432
0.346134
0.373837
0.371583
0.369452
0.367421
0.365501
0.363675
0.361954
0.360313
0.358758
0.357264
0.355837
0.35445
0.353115
0.351806
0.35055
0.349313
0.348147
0.346991
0.373833
0.37157
0.369432
0.367403
0.365481
0.363656
0.361928
0.360285
0.358726
0.357239
0.355823
0.354463
0.353165
0.351911
0.350713
0.349553
0.34845
0.34738
0.37383
0.371563
0.369418
0.367385
0.365458
0.363628
0.361893
0.360244
0.358679
0.357188
0.35577
0.354417
0.353126
0.351893
0.350714
0.349586
0.348509
0.347476
0.373829
0.371558
0.369408
0.36737
0.365437
0.363604
0.361862
0.360208
0.358635
0.357139
0.355715
0.354359
0.353067
0.351834
0.350658
0.349536
0.348464
0.347442
0.373827
0.371554
0.3694
0.367358
0.365422
0.363583
0.361838
0.360178
0.358601
0.357099
0.355671
0.35431
0.353013
0.351777
0.350597
0.349473
0.348399
0.347376
0.373826
0.371552
0.369394
0.36735
0.36541
0.363569
0.361819
0.360156
0.358575
0.357069
0.355636
0.354272
0.352971
0.351731
0.350548
0.349421
0.348344
0.347317
0.373826
0.371549
0.369392
0.367345
0.365403
0.363559
0.361806
0.36014
0.358556
0.357048
0.355612
0.354244
0.35294
0.351698
0.350513
0.349382
0.348303
0.347273
0.373825
0.371549
0.369391
0.367342
0.365399
0.363552
0.361799
0.360131
0.358544
0.357034
0.355596
0.354226
0.352921
0.351676
0.350489
0.349357
0.348276
0.347244
0.373825
0.37155
0.36939
0.367343
0.365397
0.363552
0.361795
0.360128
0.358539
0.35703
0.35559
0.35422
0.352913
0.351668
0.350479
0.349346
0.348264
0.347232
0.373825
0.37155
0.369392
0.367343
0.3654
0.363552
0.361799
0.360129
0.358543
0.357032
0.355594
0.354222
0.352917
0.35167
0.350483
0.349349
0.348268
0.347235
0.373826
0.371551
0.369393
0.367347
0.365403
0.363559
0.361805
0.360138
0.358552
0.357043
0.355604
0.354235
0.352929
0.351685
0.350498
0.349365
0.348284
0.347252
0.373826
0.371552
0.369396
0.367351
0.365411
0.363568
0.361817
0.360151
0.358567
0.35706
0.355624
0.354257
0.352953
0.351711
0.350525
0.349395
0.348316
0.347285
0.373827
0.371555
0.369401
0.36736
0.365421
0.363582
0.361834
0.360172
0.358592
0.357088
0.355657
0.354293
0.352994
0.351754
0.350573
0.349444
0.348368
0.347339
0.373829
0.37156
0.369408
0.367371
0.365438
0.363605
0.361864
0.36021
0.358637
0.357141
0.355716
0.354359
0.353064
0.351829
0.350648
0.349519
0.348437
0.347402
0.373836
0.371565
0.369412
0.367391
0.365471
0.363658
0.361934
0.360299
0.358738
0.357254
0.355834
0.354478
0.353175
0.351925
0.35072
0.349561
0.34844
0.347362
0.373863
0.371547
0.369397
0.367437
0.365573
0.363827
0.362145
0.360543
0.358987
0.357498
0.356046
0.354646
0.353272
0.351939
0.350627
0.349354
0.348099
0.346887
0.37391
0.371411
0.369348
0.367631
0.365991
0.364428
0.362824
0.361239
0.359623
0.358045
0.356441
0.354863
0.353257
0.351674
0.350075
0.348508
0.346939
0.34542
0.373841
0.371053
0.369605
0.368868
0.36782
0.366668
0.365249
0.36361
0.361781
0.359908
0.357897
0.355839
0.353697
0.35153
0.349357
0.347191
0.34509
0.34302
0.372437
0.371578
0.373978
0.377456
0.377626
0.377752
0.377614
0.376029
0.374139
0.371904
0.369609
0.367109
0.364838
0.362453
0.360585
0.358601
0.357388
0.355905
0.372307
0.39527
0.429585
0.454346
0.473953
0.488459
0.500619
0.510793
0.520622
0.529381
0.539025
0.548036
0.558534
0.568562
0.580273
0.591512
0.604605
0.615434
0.672412
1.07221
1.33809
1.4824
1.55464
1.56873
1.56309
1.54552
1.51571
1.48298
1.45013
1.41855
1.38907
1.36198
1.33738
1.31517
1.29516
1.27743
1.82426e-08
4.49685e-07
2.29769e-06
9.07073e-06
3.0355e-05
9.27048e-05
0.000240902
0.000479053
0.000776489
0.00109015
0.001372
0.00159106
0.00173787
0.00179357
0.00177154
0.00170052
0.00156486
0.00133853
0.00114138
0.000971451
0.000810062
0.000652847
0.000500649
0.000359312
0.000233582
0.00013642
7.22155e-05
3.62847e-05
1.84499e-05
1.00459e-05
6.07047e-06
4.73293e-06
4.85649e-06
1.22201e-05
2.30836e-05
0.000167917
0.000325394
0.000743445
0.00111379
0.00119746
0.00109663
0.000875027
0.000730051
0.000727042
0.000808065
0.00110319
0.00149757
0.00303674
0.00692895
0.0208402
0.0519635
0.0849584
0.100593
0.108584
0.132268
0.142665
0.144915
0.128611
0.13951
0.160944
0.173536
0.140394
0.16737
0.171777
0.182014
0.190612
0.198953
0.207397
0.215376
0.223458
0.231214
0.239003
0.246582
0.254142
0.261564
0.268937
0.27621
0.283419
0.290546
0.297599
0.304576
0.311474
0.318294
0.325029
0.331682
0.338242
0.344714
0.351083
0.357352
0.363506
0.369542
0.375449
0.381218
0.386838
0.392297
0.397584
0.402691
0.407618
0.412375
0.416995
0.421549
0.425934
0.430176
0.434274
0.438219
0.442016
0.445653
0.449134
0.452449
0.455602
0.458583
0.461396
0.464033
0.466497
0.468781
0.470888
0.472813
0.474559
0.476122
0.477504
0.478702
0.47972
0.480555
0.48121
0.481686
0.481982
0.4821
0.482068
0.481878
0.481619
0.480872
0.480317
0.479269
0.478346
0.477273
0.476055
0.474662
0.472964
0.47118
0.469214
0.467137
0.464927
0.462605
0.460165
0.457622
0.454974
0.452232
0.449396
0.446483
0.443461
0.4404
0.437218
0.43402
0.430728
0.427414
0.424047
0.420663
0.417257
0.413847
0.410438
0.40704
0.403656
0.40029
0.396947
0.393631
0.390346
0.387102
0.383905
0.38076
0.377675
0.374646
0.371669
0.368734
0.365807
0.362843
0.359752
0.356417
0.352516
0.347432
0.331497
8.06263e-08
2.2665e-06
1.54048e-05
6.71923e-05
0.000247983
0.000752986
0.00172551
0.0031347
0.00477282
0.00645738
0.00799735
0.0092651
0.0101977
0.010797
0.0110706
0.0110336
0.0108528
0.0105072
0.00990966
0.00908873
0.00804995
0.00684419
0.00552593
0.00419271
0.00290426
0.00191929
0.00121478
0.000749088
0.00045325
0.000276708
0.000175107
0.000135679
8.81976e-05
0.000194689
0.000196106
0.00176155
0.00342084
0.00707917
0.0101995
0.0118438
0.0117872
0.0113391
0.0113874
0.012859
0.0169089
0.0227881
0.0333283
0.0512247
0.0772789
0.102087
0.126363
0.144508
0.157923
0.172458
0.18972
0.205334
0.222252
0.238213
0.255125
0.274793
0.295055
0.311536
0.334121
0.352638
0.372378
0.391325
0.410127
0.428659
0.446954
0.465081
0.483023
0.500842
0.518532
0.536129
0.553633
0.57106
0.588413
0.605697
0.622912
0.640056
0.657129
0.674122
0.691036
0.707859
0.724588
0.741212
0.757726
0.774116
0.790374
0.806484
0.822432
0.838206
0.853786
0.86915
0.884273
0.899127
0.913682
0.927904
0.941756
0.955196
0.968204
0.980979
0.993469
1.0057
1.01763
1.02928
1.04062
1.05164
1.06234
1.0727
1.08271
1.09236
1.10164
1.11055
1.11907
1.12719
1.13492
1.14223
1.14914
1.15562
1.16167
1.16729
1.17248
1.17723
1.18153
1.18539
1.18881
1.19178
1.19429
1.1964
1.19801
1.19925
1.19986
1.20021
1.20034
1.20012
1.19959
1.19891
1.19777
1.19623
1.19431
1.19201
1.18936
1.18636
1.18301
1.17933
1.17533
1.17102
1.1664
1.16149
1.15628
1.15082
1.14508
1.13911
1.1329
1.1265
1.11991
1.11316
1.10628
1.09929
1.0922
1.08503
1.07778
1.07048
1.06311
1.0557
1.04827
1.04082
1.03338
1.02596
1.01855
1.01116
1.00377
0.996321
0.988751
0.980937
0.972664
0.963612
0.951847
0.925
2.19995e-07
6.61114e-06
5.04579e-05
0.000241676
0.000718707
0.00203293
0.00410551
0.00652013
0.00894117
0.0111361
0.0129685
0.0143795
0.0153685
0.0159611
0.0162123
0.0161752
0.0159885
0.0156236
0.0150792
0.0144001
0.0135808
0.0126146
0.0114816
0.0101897
0.00874321
0.00710356
0.00541454
0.00391055
0.00261159
0.00173544
0.00118377
0.000911745
0.000630028
0.00107901
0.00172634
0.00678826
0.0143875
0.0227538
0.0288672
0.0323756
0.033826
0.0366036
0.0445137
0.0605768
0.0782857
0.096798
0.117625
0.139049
0.159045
0.180253
0.200871
0.221798
0.24397
0.269455
0.297035
0.325179
0.354058
0.382451
0.411055
0.439944
0.468391
0.495925
0.523539
0.549943
0.576008
0.601444
0.626449
0.651059
0.675337
0.699341
0.723111
0.746691
0.770105
0.793378
0.816527
0.839562
0.862489
0.885313
0.908031
0.930643
0.953143
0.975524
0.997781
1.0199
1.04188
1.06371
1.08537
1.10686
1.12815
1.14924
1.17012
1.19076
1.21117
1.23131
1.25118
1.27075
1.29003
1.30899
1.32763
1.34596
1.36397
1.38164
1.39895
1.4159
1.43245
1.44859
1.46431
1.47959
1.49443
1.50879
1.52267
1.53606
1.54895
1.56131
1.57315
1.58445
1.59519
1.60538
1.615
1.62405
1.63251
1.64039
1.64767
1.65436
1.66045
1.66593
1.67081
1.67509
1.67876
1.68183
1.68429
1.68618
1.68739
1.68807
1.68833
1.68811
1.68728
1.68594
1.68404
1.68159
1.67861
1.67512
1.67112
1.66663
1.66166
1.65623
1.65035
1.64403
1.63728
1.63014
1.62258
1.61467
1.60638
1.59775
1.5888
1.57957
1.57007
1.56034
1.55041
1.54031
1.53005
1.51968
1.50918
1.49859
1.48791
1.47716
1.46636
1.45553
1.44469
1.43387
1.42308
1.41231
1.40156
1.3908
1.37998
1.36901
1.3577
1.34583
1.33146
1.30648
8.08475e-07
2.43001e-05
0.000191295
0.000790899
0.00228472
0.00538523
0.00904909
0.0126139
0.0157084
0.0181553
0.0199197
0.0210405
0.0216302
0.0217384
0.0216068
0.0212485
0.020679
0.0199943
0.0192253
0.018387
0.017481
0.0165034
0.015436
0.0142578
0.0129511
0.0114934
0.00990522
0.00825062
0.00669693
0.0051719
0.0040679
0.00298653
0.00310704
0.00473494
0.0117907
0.0263318
0.0406378
0.0519377
0.0605772
0.0688233
0.0792617
0.0929128
0.108829
0.124479
0.140697
0.158212
0.178546
0.200143
0.223643
0.24943
0.276775
0.306136
0.337364
0.37037
0.40415
0.438166
0.472154
0.505824
0.539221
0.57226
0.604721
0.63654
0.667806
0.698413
0.728517
0.758148
0.787385
0.816283
0.844898
0.873279
0.901463
0.929484
0.957367
0.985128
1.01278
1.04033
1.06778
1.09512
1.12236
1.14949
1.1765
1.20337
1.2301
1.25668
1.28309
1.30932
1.33536
1.36119
1.3868
1.41218
1.4373
1.46217
1.48676
1.51106
1.53506
1.55874
1.5821
1.60511
1.62777
1.65005
1.67194
1.69341
1.71444
1.73502
1.75511
1.7747
1.79377
1.81231
1.83028
1.84768
1.86449
1.88069
1.89628
1.91122
1.92552
1.93915
1.95211
1.96439
1.97597
1.98685
1.99701
2.00646
2.01519
2.02319
2.03045
2.03699
2.04278
2.04784
2.05216
2.05575
2.0586
2.06075
2.06209
2.06272
2.06286
2.0623
2.061
2.05904
2.0564
2.0531
2.04916
2.0446
2.03941
2.03363
2.02726
2.02033
2.01285
2.00484
1.99631
1.98729
1.97778
1.96783
1.95743
1.94662
1.93541
1.92385
1.91196
1.89979
1.88736
1.8747
1.86186
1.84885
1.8357
1.82241
1.80902
1.79553
1.78197
1.76837
1.75475
1.74115
1.72758
1.71406
1.70058
1.68715
1.67374
1.66031
1.64673
1.63284
1.617
1.59386
2.75355e-06
8.25882e-05
0.000617738
0.00234629
0.00643466
0.0119223
0.0170202
0.0210911
0.0239754
0.0257736
0.0267029
0.0269622
0.0268163
0.0263761
0.0256686
0.0248359
0.0239311
0.0229921
0.0220408
0.0210854
0.0201212
0.0191387
0.0181193
0.0170389
0.0158716
0.0145886
0.0131891
0.0117193
0.010283
0.00878678
0.00736113
0.00772394
0.0116326
0.0239961
0.0444719
0.0640183
0.0802346
0.0929745
0.103891
0.114773
0.126479
0.139205
0.152927
0.168589
0.187381
0.20904
0.23351
0.260602
0.289954
0.321267
0.354066
0.388199
0.42334
0.459211
0.495407
0.531703
0.567942
0.603994
0.639818
0.675334
0.710463
0.745169
0.779444
0.813308
0.846803
0.879966
0.912846
0.945485
0.977925
1.0102
1.04234
1.07438
1.10632
1.13818
1.16996
1.20167
1.23331
1.26485
1.2963
1.32764
1.35885
1.38994
1.42087
1.45163
1.48222
1.5126
1.54278
1.57272
1.60241
1.63185
1.661
1.68986
1.71841
1.74664
1.77453
1.80206
1.82921
1.85596
1.8823
1.90819
1.93361
1.95854
1.98295
2.00682
2.03012
2.05284
2.07495
2.09642
2.11724
2.13739
2.15684
2.17558
2.19359
2.21086
2.22737
2.24309
2.25803
2.27217
2.28549
2.29799
2.30966
2.32049
2.33048
2.33961
2.34789
2.35532
2.36188
2.36758
2.37243
2.37642
2.37955
2.38185
2.38321
2.38375
2.38369
2.38275
2.38098
2.37842
2.37509
2.37099
2.36615
2.36058
2.35429
2.34731
2.33966
2.33134
2.32239
2.31281
2.30264
2.2919
2.28061
2.26879
2.25646
2.24364
2.23038
2.21669
2.20263
2.18822
2.17351
2.15853
2.14332
2.12791
2.11232
2.09658
2.0807
2.0647
2.04862
2.03249
2.01633
2.00018
1.98408
1.96804
1.95208
1.93622
1.92045
1.90479
1.88916
1.87344
1.85628
1.83378
8.77598e-06
0.000256613
0.00182554
0.00645278
0.014435
0.0214214
0.0263775
0.0294235
0.0310111
0.0315993
0.0315211
0.0310773
0.0302433
0.0292285
0.0281171
0.0269727
0.0258384
0.0247407
0.0236912
0.0226894
0.0217243
0.0207797
0.0198303
0.018845
0.017794
0.0166168
0.0152633
0.0137064
0.012189
0.0121446
0.0143622
0.0228576
0.0409914
0.0650492
0.0879308
0.106427
0.12001
0.130094
0.138958
0.148345
0.15916
0.17286
0.189893
0.210171
0.233922
0.260728
0.290062
0.32139
0.354232
0.388289
0.423279
0.459039
0.495408
0.532248
0.569416
0.606806
0.644323
0.681884
0.719427
0.756875
0.794175
0.83129
0.8682
0.904907
0.941423
0.977766
1.01396
1.05004
1.08603
1.12196
1.15783
1.19368
1.2295
1.2653
1.30108
1.33683
1.37253
1.40818
1.44375
1.47922
1.51458
1.54981
1.58489
1.61979
1.6545
1.689
1.72327
1.75728
1.79102
1.82447
1.8576
1.89042
1.92288
1.95499
1.9867
2.01801
2.04888
2.07929
2.10922
2.13863
2.1675
2.1958
2.22351
2.2506
2.27705
2.30282
2.32788
2.35223
2.37582
2.39864
2.42067
2.44188
2.46225
2.48177
2.50042
2.51818
2.53504
2.55097
2.56598
2.58004
2.59316
2.60531
2.6165
2.62671
2.63595
2.64422
2.6515
2.6578
2.66312
2.66746
2.67083
2.67324
2.67458
2.67505
2.67471
2.6734
2.67116
2.66802
2.664
2.65911
2.65338
2.64682
2.63946
2.63131
2.62239
2.61273
2.60234
2.59126
2.5795
2.56709
2.55405
2.54043
2.52623
2.51148
2.49622
2.48049
2.46432
2.44776
2.43085
2.41362
2.39613
2.3784
2.36047
2.34236
2.32408
2.30567
2.28715
2.26857
2.24995
2.23135
2.2128
2.19433
2.17598
2.15776
2.13971
2.12187
2.1042
2.08664
2.06802
2.04521
2.81758e-05
0.000770498
0.00495399
0.0150623
0.0245953
0.0306657
0.0339952
0.03556
0.0359988
0.0357531
0.0350001
0.0338583
0.0325207
0.0310927
0.0296551
0.0282658
0.0269602
0.0257555
0.0246522
0.0236391
0.0226971
0.0217968
0.0209014
0.0199617
0.0190282
0.0181828
0.0176292
0.0178466
0.0199887
0.0261886
0.0394767
0.061135
0.085347
0.10795
0.126025
0.138667
0.147433
0.154823
0.162897
0.173862
0.188407
0.206588
0.228437
0.253617
0.281688
0.311942
0.343795
0.376846
0.410843
0.445633
0.481107
0.517199
0.553861
0.591046
0.628705
0.666782
0.70521
0.743916
0.782839
0.821914
0.861088
0.900318
0.939573
0.978838
1.01811
1.05738
1.09667
1.136
1.17536
1.21479
1.25428
1.29384
1.33347
1.37316
1.41291
1.45268
1.49246
1.53222
1.57194
1.61159
1.65113
1.69055
1.72982
1.76891
1.8078
1.84646
1.88487
1.92301
1.96084
1.99836
2.03553
2.07233
2.10875
2.14476
2.18034
2.21545
2.25007
2.28416
2.31771
2.35067
2.38301
2.41472
2.44575
2.47609
2.50569
2.53453
2.56257
2.5898
2.61618
2.64168
2.66629
2.68997
2.71271
2.73448
2.75527
2.77505
2.79382
2.81154
2.82822
2.84383
2.85837
2.87183
2.8842
2.89547
2.90565
2.91473
2.9227
2.92957
2.93534
2.94
2.94358
2.94607
2.94737
2.94772
2.94709
2.94539
2.94266
2.93892
2.9342
2.92851
2.92188
2.91432
2.90586
2.89653
2.88635
2.87533
2.86351
2.85092
2.83756
2.82349
2.80872
2.7933
2.77723
2.76056
2.74332
2.72555
2.70729
2.68859
2.6695
2.65006
2.63031
2.61029
2.59003
2.56956
2.54891
2.5281
2.50718
2.48617
2.46513
2.44409
2.42312
2.40224
2.3815
2.36093
2.3406
2.32055
2.30079
2.28128
2.26097
2.2372
8.47296e-05
0.00212181
0.0117237
0.0252811
0.0335606
0.0379124
0.039942
0.0405241
0.0402062
0.0392355
0.03779
0.0360973
0.0342963
0.0324968
0.0307789
0.0291953
0.0277716
0.0265125
0.0254065
0.0244347
0.0235735
0.0227943
0.0220251
0.0213235
0.0208449
0.021089
0.0230192
0.0283803
0.0398119
0.0579154
0.0797823
0.101805
0.121997
0.138228
0.149678
0.157634
0.16464
0.17328
0.184995
0.200428
0.219663
0.24241
0.268258
0.296594
0.326795
0.358299
0.390768
0.424027
0.457995
0.492636
0.527938
0.563902
0.600534
0.637832
0.675779
0.714333
0.753451
0.793078
0.833159
0.873634
0.914452
0.955566
0.996938
1.03854
1.08036
1.12239
1.16461
1.20705
1.24968
1.29253
1.33558
1.37883
1.42226
1.46587
1.50961
1.55346
1.59738
1.64134
1.6853
1.72921
1.77303
1.81674
1.86031
1.90368
1.94685
1.98978
2.03243
2.07477
2.11679
2.15846
2.19974
2.24062
2.28107
2.32106
2.36057
2.39955
2.43798
2.47583
2.51305
2.54962
2.58551
2.62067
2.65508
2.6887
2.7215
2.75345
2.7845
2.81464
2.84383
2.87204
2.89924
2.9254
2.95051
2.97454
2.99747
3.01927
3.03993
3.05943
3.07776
3.0949
3.11084
3.12558
3.1391
3.1514
3.16248
3.17234
3.18097
3.18836
3.19453
3.19948
3.20322
3.20575
3.20698
3.20716
3.2062
3.20408
3.20082
3.19644
3.19098
3.18445
3.17689
3.1683
3.15873
3.14819
3.1367
3.12431
3.11104
3.0969
3.08194
3.06618
3.04967
3.03242
3.01448
2.99587
2.97664
2.95682
2.93647
2.91563
2.89436
2.8727
2.85069
2.82838
2.8058
2.78298
2.75996
2.73675
2.71341
2.68999
2.66652
2.64305
2.61965
2.59636
2.57322
2.5503
2.52764
2.50534
2.4834
2.46181
2.43962
2.4144
0.000220209
0.00500808
0.0213136
0.0343827
0.041064
0.0442038
0.0453116
0.045134
0.0441105
0.0424438
0.0404181
0.0382187
0.0359984
0.0338779
0.0319415
0.0302409
0.028799
0.0276193
0.0266915
0.0259918
0.0255534
0.0254703
0.0259149
0.027205
0.0298453
0.0347467
0.043613
0.0573185
0.0744643
0.0934749
0.112533
0.129679
0.14371
0.154372
0.162705
0.170704
0.180415
0.193146
0.209466
0.229342
0.252429
0.278218
0.306152
0.335663
0.366288
0.397727
0.429853
0.462632
0.496076
0.530217
0.565093
0.600743
0.637199
0.674471
0.712558
0.751443
0.791098
0.831481
0.872548
0.914248
0.956531
0.999352
1.04267
1.08646
1.13069
1.17534
1.2204
1.26587
1.31172
1.35796
1.40457
1.45153
1.49882
1.54639
1.59421
1.64224
1.69041
1.73869
1.787
1.83529
1.88353
1.93165
1.97963
2.02741
2.07497
2.12227
2.16927
2.21593
2.26224
2.30814
2.35363
2.39867
2.44323
2.48728
2.53078
2.5737
2.616
2.65766
2.69862
2.73886
2.77832
2.81698
2.85479
2.89173
2.92775
2.96281
2.99689
3.02994
3.06193
3.09283
3.12261
3.15124
3.17869
3.20495
3.22998
3.25376
3.27628
3.29751
3.31744
3.33606
3.35335
3.3693
3.38392
3.39719
3.40911
3.41967
3.42889
3.43674
3.44325
3.44841
3.45225
3.45474
3.45585
3.45578
3.45444
3.45182
3.44797
3.44289
3.43664
3.42922
3.42066
3.411
3.40025
3.38845
3.37564
3.36183
3.34706
3.33136
3.31477
3.29731
3.27901
3.25993
3.24009
3.21952
3.19828
3.1764
3.15395
3.13098
3.10753
3.08365
3.05939
3.03478
3.00988
2.98472
2.95931
2.93372
2.90797
2.88213
2.85623
2.83034
2.80451
2.7788
2.75325
2.72794
2.70294
2.67833
2.65414
2.63038
2.60614
2.57917
0.000489709
0.0100927
0.0309221
0.0425389
0.0480035
0.0502722
0.0506515
0.049812
0.048107
0.0458534
0.0432974
0.0406522
0.0380944
0.035761
0.0337459
0.0321059
0.0308654
0.0300058
0.029582
0.0294806
0.029909
0.0311549
0.0338524
0.0388194
0.046795
0.0579811
0.0717107
0.0870403
0.103175
0.118968
0.133322
0.14558
0.155839
0.164888
0.174164
0.18516
0.198955
0.215958
0.2361
0.259021
0.284253
0.311306
0.339722
0.369121
0.399253
0.430004
0.461363
0.493368
0.526082
0.559573
0.59391
0.629147
0.665321
0.702465
0.740593
0.779704
0.819784
0.860807
0.902739
0.94554
0.989169
1.03358
1.07875
1.12463
1.17119
1.21842
1.26628
1.31477
1.36386
1.41353
1.46375
1.51449
1.56571
1.61736
1.66938
1.7217
1.77426
1.82697
1.87978
1.93259
1.98536
2.03803
2.09054
2.14284
2.1949
2.24667
2.29811
2.34918
2.39985
2.45007
2.49983
2.54909
2.59781
2.64596
2.69351
2.74041
2.78662
2.8321
2.87682
2.92072
2.96377
3.00592
3.04712
3.08735
3.12655
3.1647
3.20175
3.23767
3.27241
3.30594
3.33823
3.36925
3.39897
3.42737
3.45441
3.48009
3.50437
3.52723
3.54866
3.56865
3.58719
3.60426
3.61986
3.63399
3.64664
3.65781
3.6675
3.67571
3.68244
3.68771
3.69153
3.69389
3.6948
3.69437
3.69255
3.68936
3.68483
3.67898
3.67184
3.66345
3.65384
3.64303
3.63105
3.61794
3.60374
3.58846
3.57216
3.55486
3.5366
3.5174
3.49731
3.47636
3.4546
3.43206
3.40879
3.38485
3.36029
3.33518
3.30956
3.28347
3.25696
3.23007
3.20286
3.17535
3.14758
3.1196
3.09145
3.0632
3.03489
3.00658
2.97833
2.9502
2.92225
2.89454
2.86716
2.8402
2.81371
2.7877
2.76134
2.73269
0.000929192
0.0173172
0.0393415
0.0499973
0.0547487
0.0564276
0.0562698
0.0548608
0.0526195
0.0498782
0.046921
0.0439934
0.0412993
0.0389948
0.0371943
0.0359842
0.035468
0.0354778
0.0362616
0.03801
0.0410352
0.0456527
0.0521137
0.0605787
0.0709714
0.0830153
0.0961384
0.109581
0.122647
0.134813
0.145865
0.155956
0.165747
0.176249
0.188481
0.203156
0.220563
0.240605
0.262974
0.287278
0.313124
0.340157
0.368084
0.396701
0.425907
0.455688
0.486095
0.517202
0.549103
0.581884
0.615622
0.650384
0.686225
0.723189
0.761305
0.800588
0.841039
0.882646
0.925391
0.969246
1.01418
1.06016
1.10715
1.15512
1.20403
1.25386
1.30458
1.35616
1.40857
1.46177
1.51572
1.57037
1.62566
1.68152
1.73787
1.79462
1.85169
1.90898
1.96641
2.02387
2.0813
2.13861
2.19575
2.25266
2.3093
2.36562
2.42156
2.47709
2.53215
2.58672
2.64077
2.69426
2.74715
2.79941
2.85098
2.90182
2.9519
3.00117
3.04958
3.09709
3.14365
3.1892
3.2337
3.27712
3.3194
3.36052
3.40042
3.43906
3.47642
3.51244
3.54709
3.58034
3.61217
3.64255
3.67145
3.69885
3.72472
3.74905
3.77181
3.793
3.8126
3.83061
3.84703
3.86185
3.87507
3.88668
3.89669
3.90509
3.91189
3.91711
3.92077
3.92286
3.92343
3.92253
3.92011
3.91622
3.91089
3.90416
3.89605
3.8866
3.87584
3.8638
3.85052
3.83603
3.82038
3.80359
3.78571
3.76677
3.7468
3.72585
3.70394
3.68112
3.65742
3.63289
3.6076
3.5816
3.55496
3.52772
3.49995
3.47167
3.44295
3.41381
3.38431
3.35449
3.32438
3.29404
3.26353
3.2329
3.20221
3.17152
3.14088
3.11035
3.08
3.04991
3.02015
2.99083
2.962
2.93371
2.90516
2.87467
0.00148278
0.0247218
0.0473721
0.0575149
0.0617841
0.0630197
0.0624385
0.0605911
0.0579527
0.0549138
0.051808
0.0489148
0.0464673
0.0446418
0.0436835
0.0434626
0.0440881
0.0456538
0.0483115
0.0522092
0.0574676
0.0641411
0.0721794
0.0814454
0.0917102
0.102625
0.113786
0.124822
0.13552
0.145844
0.156007
0.166522
0.178065
0.191256
0.206522
0.224015
0.243641
0.26516
0.28827
0.312676
0.338118
0.364382
0.391315
0.418834
0.446923
0.475624
0.505018
0.535205
0.566285
0.598352
0.631498
0.6658
0.701327
0.738133
0.776264
0.815747
0.856602
0.898833
0.942439
0.987408
1.03372
1.08135
1.13026
1.18043
1.23182
1.2844
1.33812
1.39296
1.44885
1.50577
1.56364
1.6224
1.68195
1.7422
1.80304
1.86437
1.92609
1.98808
2.05023
2.11243
2.17458
2.2366
2.29842
2.35999
2.42123
2.48209
2.54252
2.60247
2.66189
2.72076
2.77903
2.83667
2.89364
2.9499
3.00538
3.06005
3.11386
3.16677
3.21872
3.26966
3.31954
3.3683
3.4159
3.46229
3.50743
3.55128
3.5938
3.63493
3.67464
3.7129
3.74965
3.78488
3.81855
3.85064
3.88113
3.90998
3.93718
3.9627
3.98653
4.00865
4.02907
4.04777
4.06475
4.08002
4.09357
4.10539
4.11548
4.12385
4.13051
4.13548
4.13878
4.14043
4.14047
4.13892
4.13574
4.13101
4.12475
4.11701
4.10781
4.09718
4.08518
4.07182
4.05715
4.04121
4.02404
4.00568
3.98618
3.96556
3.94388
3.92116
3.89743
3.87273
3.8471
3.8206
3.79331
3.76529
3.73659
3.70728
3.67741
3.647
3.61612
3.5848
3.55306
3.52098
3.48859
3.45596
3.42315
3.39022
3.35722
3.3242
3.29123
3.25836
3.22566
3.19321
3.16111
3.12945
3.0983
3.06772
3.03698
3.0046
0.00221201
0.0314156
0.0548352
0.0650029
0.0691072
0.0701098
0.0692271
0.0670551
0.0641805
0.0610872
0.0581648
0.0557093
0.0539596
0.0531692
0.0531147
0.0540859
0.0560437
0.0590391
0.0631032
0.0682413
0.0744304
0.0815972
0.0896133
0.098308
0.107495
0.117003
0.126703
0.13653
0.146536
0.156939
0.16809
0.180395
0.194196
0.209706
0.226981
0.245934
0.266386
0.288127
0.310947
0.334666
0.359141
0.38427
0.409998
0.436315
0.463258
0.4909
0.519339
0.548677
0.579025
0.610485
0.643155
0.677125
0.712476
0.749277
0.787583
0.827434
0.868866
0.911904
0.956563
1.00284
1.05074
1.10024
1.15132
1.20396
1.25811
1.31373
1.37078
1.42919
1.48891
1.54986
1.61196
1.67511
1.73918
1.80402
1.86952
1.93554
2.00198
2.0687
2.13558
2.2025
2.26935
2.33604
2.40249
2.46863
2.53439
2.59969
2.66447
2.72869
2.79231
2.85529
2.91759
2.97919
3.04002
3.10004
3.15919
3.21742
3.27468
3.33092
3.3861
3.44015
3.49302
3.54465
3.59499
3.64399
3.69162
3.73782
3.78256
3.82579
3.86747
3.90755
3.94601
3.9828
4.01792
4.05132
4.083
4.11291
4.14105
4.16739
4.1919
4.21459
4.23546
4.25449
4.2717
4.28708
4.30063
4.31235
4.32223
4.33028
4.33652
4.34098
4.34367
4.34463
4.34393
4.34152
4.33738
4.33162
4.32427
4.31536
4.30493
4.29301
4.27964
4.26486
4.24872
4.23126
4.21251
4.19254
4.17137
4.14906
4.12564
4.10116
4.07563
4.04907
4.02154
3.99312
3.96389
3.93391
3.90323
3.87193
3.84003
3.80759
3.77464
3.74122
3.70735
3.6731
3.63853
3.60371
3.56871
3.53358
3.49838
3.46315
3.42795
3.39283
3.35786
3.32314
3.28877
3.25484
3.22142
3.1886
3.15569
3.12147
0.00306192
0.0374471
0.0623612
0.0727365
0.0767457
0.0775775
0.0764552
0.0740284
0.0710015
0.0680358
0.0656017
0.0639739
0.0632652
0.0632337
0.0642363
0.0662147
0.0691264
0.0729352
0.0776089
0.0831006
0.0893492
0.0962748
0.103794
0.111832
0.120335
0.129275
0.138675
0.148635
0.159314
0.170919
0.183658
0.197699
0.213119
0.229915
0.248007
0.267272
0.287567
0.308759
0.330733
0.353403
0.376713
0.400642
0.4252
0.450423
0.476381
0.503164
0.530879
0.559632
0.589525
0.620667
0.653162
0.687109
0.7226
0.759714
0.798523
0.83909
0.881469
0.925706
0.971832
1.01987
1.06982
1.12168
1.17543
1.23105
1.28849
1.34771
1.40863
1.47116
1.53521
1.60066
1.66739
1.73525
1.80407
1.87368
1.9439
2.01459
2.08563
2.15691
2.22833
2.29976
2.37109
2.44223
2.51309
2.58358
2.65361
2.72305
2.79186
2.86002
2.92749
2.99423
3.0602
3.12535
3.18963
3.25298
3.31534
3.37666
3.43689
3.49597
3.55385
3.61049
3.66581
3.71975
3.77227
3.82332
3.87285
3.92083
3.96721
4.01196
4.05502
4.09636
4.13594
4.17373
4.20972
4.24388
4.27618
4.30662
4.33516
4.36179
4.3865
4.40927
4.43011
4.44903
4.46601
4.48106
4.49419
4.50539
4.51467
4.52203
4.5275
4.53112
4.53291
4.5329
4.53122
4.52764
4.52233
4.51534
4.5067
4.49644
4.48462
4.47126
4.45642
4.44012
4.42242
4.40336
4.38299
4.36135
4.3385
4.31448
4.28934
4.26312
4.23584
4.20748
4.17812
4.14787
4.11679
4.08496
4.05242
4.01923
3.98543
3.95108
3.91621
3.88084
3.84497
3.80869
3.77209
3.73524
3.6982
3.66104
3.62378
3.58649
3.5492
3.51196
3.47486
3.43801
3.40149
3.3654
3.32982
3.29486
3.25987
3.22392
0.00398723
0.0437431
0.0697701
0.080429
0.0844071
0.0850941
0.0836035
0.0808682
0.0778966
0.0753869
0.0737427
0.0730418
0.0729791
0.073787
0.0755248
0.0781334
0.0815456
0.0857045
0.0905692
0.0960993
0.102264
0.109041
0.116414
0.124381
0.132966
0.142223
0.152236
0.163099
0.174918
0.187787
0.20175
0.216826
0.232976
0.250137
0.268219
0.28714
0.30682
0.327202
0.348247
0.369944
0.392296
0.415331
0.439099
0.463675
0.489118
0.515526
0.543011
0.571682
0.601654
0.633036
0.665944
0.700482
0.736758
0.774863
0.814887
0.856907
0.900998
0.947225
0.995642
1.04628
1.09914
1.15421
1.21149
1.27093
1.33248
1.39608
1.46162
1.52896
1.59794
1.66837
1.74005
1.81279
1.88641
1.9607
2.03545
2.11046
2.18561
2.2609
2.33628
2.41171
2.48699
2.56204
2.63679
2.71112
2.78487
2.85792
2.93026
3.00186
3.07265
3.14258
3.21161
3.27969
3.34677
3.41278
3.47767
3.54137
3.60383
3.665
3.72485
3.78329
3.84029
3.89577
3.94968
4.00197
4.05261
4.10156
4.14878
4.19425
4.2379
4.2797
4.31963
4.35764
4.39373
4.42789
4.4601
4.49033
4.51858
4.54483
4.56907
4.5913
4.6115
4.62969
4.64587
4.66004
4.67221
4.68239
4.69058
4.69679
4.70107
4.70345
4.70396
4.70273
4.6996
4.69459
4.68783
4.67935
4.66919
4.65739
4.64399
4.62903
4.61255
4.59461
4.57524
4.55449
4.53242
4.50906
4.48448
4.45873
4.43185
4.40389
4.37489
4.34482
4.31378
4.28184
4.24908
4.21555
4.1813
4.14638
4.11085
4.07476
4.03814
4.00101
3.96333
3.92524
3.88682
3.84816
3.80929
3.77029
3.73118
3.69203
3.65285
3.61369
3.57465
3.53585
3.49737
3.4593
3.42173
3.38477
3.34785
3.31034
0.00493306
0.0498208
0.0769773
0.0878725
0.0917789
0.09228
0.0903805
0.0875175
0.0848605
0.0830087
0.0821522
0.0819734
0.0825319
0.083902
0.0861204
0.0891141
0.0928267
0.0972151
0.102263
0.107961
0.114315
0.121335
0.129053
0.137505
0.14674
0.156812
0.16777
0.179655
0.192477
0.206231
0.220903
0.23646
0.252836
0.269978
0.287835
0.306378
0.325588
0.345471
0.366031
0.387301
0.409329
0.432196
0.456019
0.480812
0.506582
0.533491
0.56171
0.591326
0.622449
0.65519
0.689666
0.725991
0.764278
0.804627
0.847136
0.89189
0.938976
0.988462
1.04042
1.09488
1.15181
1.21118
1.27293
1.33703
1.40341
1.47197
1.54259
1.61511
1.68929
1.76482
1.84133
1.91863
1.99657
2.075
2.15369
2.23242
2.31111
2.38985
2.46859
2.54717
2.62546
2.70347
2.78123
2.85848
2.93506
3.01093
3.08599
3.16014
3.23331
3.30547
3.37656
3.44654
3.51536
3.58296
3.64925
3.7142
3.77776
3.83989
3.90054
3.95965
4.01717
4.07304
4.12719
4.17958
4.23019
4.27898
4.32593
4.37102
4.41418
4.45539
4.4946
4.53181
4.56701
4.60019
4.63135
4.66046
4.68753
4.71253
4.73548
4.75635
4.77515
4.7919
4.8066
4.81926
4.82989
4.83849
4.84508
4.84966
4.85228
4.853
4.85197
4.84902
4.84413
4.83743
4.82896
4.81878
4.80691
4.7934
4.77829
4.76163
4.74346
4.72382
4.70276
4.68033
4.65658
4.63156
4.60531
4.5779
4.54938
4.51979
4.48917
4.45759
4.42508
4.39168
4.35745
4.32244
4.28669
4.25027
4.21322
4.1756
4.13744
4.09879
4.05959
4.01998
3.98003
3.93982
3.89939
3.85881