/*--------------------------------*- C++ -*----------------------------------*\
  =========                 |
  \\      /  F ield         | OpenFOAM: The Open Source CFD Toolbox
   \\    /   O peration     | Website:  https://openfoam.org
    \\  /    A nd           | Version:  8
     \\/     M anipulation  |
\*---------------------------------------------------------------------------*/
FoamFile
{
    version     2.0;
    format      ascii;
    class       volScalarField;
    location    "1800";
    object      omega;
}
// * * * * * * * * * * * * * * * * * * * * * * * * * * * * * * * * * * * * * //

dimensions      [0 0 -1 0 0 0 0];

internalField   nonuniform List<scalar> 
12225
(
32582.3
32582.3
49081.6
49749.8
45884.3
39653.6
40566.7
32582.3
46965.9
50843.4
50259.4
44684
32582.3
32582.3
32582.3
39865.5
45283.1
40800.2
4652.81
6891.96
11938.7
19369.5
18811.3
16902.9
17700.6
16178.5
18645.9
20176.3
21261.3
20302.5
18811
18023.3
17597.9
17076.4
17740.3
17113.1
1205.37
1246.33
2245.09
3478.28
4177.52
4674.84
5264.3
5513.62
5921.27
6405.07
6714.95
6922
7041.56
7186.22
7285.37
7471.03
7658.43
7799.39
604.04
592.9
818.995
1046.47
1247.53
1422.28
1577.87
1726.95
1854.03
2008.49
2116.24
2240.27
2322.1
2433.42
2498.91
2605.09
2656.19
2755.05
469.952
468.926
522.139
586.94
646.661
706.137
753.301
806.984
849.977
904.806
944.996
997.233
1033.01
1084.68
1115.56
1165.77
1188.53
1234.84
443.152
443.223
453.267
471.584
490.68
511.657
527.674
547.158
562.641
583.871
600.08
622.632
638.808
662.898
678.322
702.942
715.257
738.023
439.461
437.507
437.742
441.461
446.283
451.286
456.048
461.894
466.456
473.86
479.597
488.845
495.461
506.375
513.651
525.524
532.178
543.443
439.19
436.724
435.276
434.576
435.034
435.912
436.799
438.183
438.905
440.911
442.626
446.193
448.782
453.751
457.118
463.111
466.539
472.647
439.081
436.739
434.796
433.119
431.797
430.765
429.902
429.224
428.815
428.666
428.859
429.163
429.754
431.273
432.449
434.914
436.383
439.325
439.025
436.784
434.701
432.775
430.973
429.328
427.779
426.389
425.105
424.04
423.117
422.359
421.84
421.469
421.16
421.284
421.647
422.078
439.006
436.79
434.678
432.7
430.807
429.036
427.329
425.746
424.228
422.841
421.531
420.345
419.236
418.315
417.397
416.71
416.019
415.595
439.001
436.784
434.67
432.676
430.771
428.974
427.252
425.63
424.073
422.611
421.208
419.901
418.638
417.487
416.368
415.364
414.379
413.509
439.002
436.778
434.664
432.663
430.756
428.951
427.228
425.596
424.036
422.557
421.143
419.804
418.521
417.308
416.145
415.049
413.997
413.006
439.001
436.775
434.66
432.654
430.747
428.936
427.213
425.574
424.014
422.528
421.113
419.765
418.478
417.252
416.082
414.967
413.901
412.887
439.001
436.773
434.657
432.648
430.739
428.926
427.2
425.559
423.996
422.507
421.089
419.738
418.449
417.219
416.046
414.927
413.858
412.838
439.001
436.772
434.655
432.644
430.734
428.918
427.191
425.547
423.982
422.492
421.071
419.717
418.426
417.195
416.02
414.898
413.827
412.805
439
436.769
434.651
432.639
430.727
428.909
427.18
425.534
423.967
422.475
421.053
419.698
418.405
417.172
415.995
414.872
413.8
412.776
438.999
436.77
434.651
432.639
430.726
428.908
427.177
425.532
423.964
422.472
421.049
419.693
418.399
417.166
415.988
414.865
413.792
412.767
439.001
436.771
434.655
432.643
430.732
428.914
427.186
425.539
423.973
422.48
421.059
419.702
418.41
417.176
415.999
414.875
413.803
412.778
439.001
436.772
434.656
432.646
430.735
428.919
427.19
425.546
423.98
422.489
421.067
419.712
418.42
417.187
416.011
414.888
413.817
412.793
439.001
436.773
434.659
432.648
430.74
428.924
427.199
425.555
423.992
422.502
421.083
419.73
418.442
417.212
416.04
414.921
413.856
412.837
439.002
436.773
434.665
432.653
430.75
428.934
427.217
425.577
424.027
422.545
421.147
419.808
418.548
417.341
416.21
415.124
414.109
413.133
438.99
436.773
434.692
432.666
430.793
428.993
427.328
425.751
424.301
422.93
421.678
420.492
419.438
418.437
417.566
416.718
416.013
415.302
438.871
436.769
434.913
432.865
431.361
429.784
428.533
427.481
426.739
426.16
425.772
425.608
425.606
425.8
425.981
426.256
426.777
427.154
437.964
436.17
436.912
435.938
438.699
437.956
438.302
439.786
442.555
445.272
448.814
452.027
455.988
459.47
463.683
467.223
471.541
474.951
436.744
439.898
453.614
471.863
474.24
478.379
489.553
502.023
517.105
530.867
546.13
559.337
573.996
586.316
600.27
611.579
624.775
634.897
430.274
494.353
561.223
631.971
647.311
679.849
728.521
777.967
831.317
878.005
926.519
966.808
1009.87
1044.48
1083.29
1113.28
1148.72
1174.63
568.057
906.572
1181.38
1311.96
1515.09
1716.5
1922.05
2108.03
2282.66
2427.29
2562.63
2670.56
2776.45
2859.54
2948.6
3016.72
3097.23
3155.7
1418.16
2964.67
4713.44
6382.81
7442.74
8144.61
8624.44
8955.87
9171.89
9297.89
9365.09
9381.99
9373.06
9350.45
9320.28
9281.56
9259.53
9233.38
16112.1
20901.4
23298.3
24425.2
24949.4
25062.8
25003.7
24851.8
24607.6
24339.2
24067.5
23803.6
23554.6
23323.3
23111.3
22918.3
22743.2
22586.8
11463.3
2494.65
2496.87
2499.12
2501.38
2503.67
2505.98
2508.3
2510.65
2513.02
2515.42
2517.83
2520.27
2522.73
2525.21
2527.72
2530.25
2532.8
2535.37
2537.97
2540.6
2543.25
2545.92
2548.62
2551.34
2554.09
2556.87
2559.67
2562.5
2565.35
2568.23
2571.14
2574.08
2577.04
2580.04
2583.06
2586.11
2589.19
2592.3
2595.43
2598.6
2601.8
2605.03
2608.29
2611.59
2614.91
2618.27
2621.66
2625.08
2628.54
2632.03
2635.55
2639.11
2642.71
2646.33
2650
2653.7
3163.92
3399.24
3200.48
2668.88
3181.28
3255.28
3404.96
3472.4
3566.21
3643.46
3723.76
3797.23
3871.09
3940.68
4009.75
4076.08
4141.44
4204.91
4267.27
4328.18
4387.96
4446.53
4504.02
4560.42
4615.77
4670.11
4723.42
4775.76
4827.09
4877.44
4926.8
4975.15
5022.47
5068.74
5113.91
5157.95
5200.81
5242.44
5282.79
5321.83
5359.59
5396.15
5431.77
5466.91
5500.9
5533.94
5566.04
5597.14
5627.31
5656.46
5684.64
5711.8
5737.96
5763.08
5787.19
5810.25
5832.28
5853.25
5873.19
5892.06
5909.88
5926.65
5942.36
5957.02
5970.64
5983.21
5994.74
6005.24
6014.72
6023.23
6030.92
6037.95
6042.78
6048.47
6050.53
6053.74
6055.54
6057.24
6057.85
6057.48
6055.21
6052.43
6048.52
6043.92
6038.48
6032.33
6025.43
6017.85
6009.58
6000.69
5991.17
5981.04
5970.41
5959.05
5947.39
5935.05
5922.44
5909.34
5895.99
5882.36
5868.58
5854.67
5840.72
5826.76
5812.85
5798.99
5785.23
5771.59
5758.12
5744.87
5731.91
5719.27
5707.02
5695.13
5683.59
5672.31
5661.04
5649.44
5636.78
5622.14
5602.9
5574
5456.24
11463.3
1992.35
994.783
808.475
691.713
622.505
629.291
625.443
614.422
592.06
568.055
544.605
523.046
505.231
493.072
484.428
483.901
486.029
511.768
560.962
645.333
746.791
856.91
966.152
1063.87
1139.15
1182.03
1176.04
1135.02
1055.98
932.917
780.396
649.136
564.466
497.989
461.358
455.472
463.464
484.798
517.203
546.725
591.891
679.494
808.281
1010.04
1324.92
1630.23
1841.21
1980.97
2050.67
2071.23
2063.9
2045.49
1996.62
1927.29
1878.33
1836.59
1824.3
1798.09
1712.1
1688.8
1695.49
1677.66
1673.3
1667.12
1665.76
1665.12
1667.08
1669.95
1674.39
1679.37
1685.36
1691.71
1698.65
1705.82
1713.3
1720.91
1728.68
1736.51
1744.38
1752.26
1760.11
1767.91
1775.65
1783.28
1790.81
1798.21
1805.46
1812.53
1819.41
1826.09
1832.56
1838.81
1844.87
1850.76
1856.55
1862.34
1868.3
1874.72
1881.96
1890.57
1898.65
1906.69
1914.41
1921.96
1929.26
1936.35
1943.2
1949.83
1956.23
1962.39
1968.33
1974.04
1979.51
1984.76
1989.78
1994.57
1999.13
2003.47
2007.59
2011.48
2015.15
2018.6
2021.85
2024.88
2027.72
2030.36
2032.82
2035.08
2037.09
2038.99
2040.56
2042.16
2043.54
2044.76
2045.56
2045.73
2045.18
2044.4
2043.42
2042.27
2040.93
2039.42
2037.74
2035.89
2033.89
2031.75
2029.36
2027.06
2024.04
2021.7
2018.45
2015.72
2012.47
2009.36
2006.06
2002.74
1999.35
1995.92
1992.46
1988.97
1985.47
1981.97
1978.47
1974.98
1971.51
1968.08
1964.7
1961.37
1958.12
1954.95
1951.89
1948.89
1946.07
1943.43
1941.06
1939.05
1937.93
1936.73
1945.76
11463.3
2008.1
813.397
641.521
681.337
681.382
653.702
598.499
539.001
483.048
433.569
391.576
358.567
332.689
312.778
297.489
286.853
278.766
276.641
279.007
289.331
308.062
340.294
384.247
439.169
499.434
560.549
607.136
638.081
635.904
614.358
572.398
510.121
441.942
391.46
383.096
393.48
417.159
455.09
527.811
639.43
793.678
987.38
1164.48
1312.35
1443.96
1531.34
1559.68
1559.72
1512.7
1459.65
1399.72
1344.37
1292.61
1245.35
1210.52
1181.53
1158.86
1140.23
1124.97
1117.23
1111.5
1106.7
1103.03
1102.08
1101.73
1102.82
1104.6
1106.94
1109.81
1113
1116.53
1120.26
1124.2
1128.26
1132.43
1136.68
1140.99
1145.33
1149.69
1154.06
1158.42
1162.76
1167.07
1171.34
1175.57
1179.74
1183.85
1187.91
1191.89
1195.82
1199.69
1203.52
1207.32
1211.12
1214.95
1218.85
1222.87
1227.03
1231.35
1235.71
1239.88
1243.96
1247.9
1251.73
1255.42
1259
1262.44
1265.75
1268.94
1271.99
1274.92
1277.71
1280.38
1282.91
1285.31
1287.58
1289.72
1291.73
1293.61
1295.35
1296.97
1298.46
1299.83
1301.07
1302.18
1303.18
1304.05
1304.8
1305.42
1305.93
1306.31
1306.6
1306.76
1306.77
1306.58
1306.14
1305.51
1304.77
1303.92
1302.96
1301.9
1300.74
1299.47
1298.11
1296.65
1295.1
1293.44
1291.72
1289.82
1288
1285.94
1283.96
1281.82
1279.67
1277.44
1275.18
1272.87
1270.52
1268.14
1265.73
1263.29
1260.84
1258.37
1255.9
1253.42
1250.94
1248.47
1246.02
1243.59
1241.2
1238.86
1236.6
1234.47
1232.52
1230.88
1229.72
1229.67
1231.12
1241.53
11463.3
2038.39
1014.19
978.568
902.078
773.343
656.688
550.211
466.006
403.173
355.958
318.879
290.158
268.138
251.295
238.409
228.746
221.761
217.143
215.476
216.551
219.639
227.987
242.274
263.82
292.439
326.877
361.832
393.045
416.145
422.265
415.75
393.713
394.964
432.521
521.613
587.052
644.46
715.697
817.192
950.994
1069.4
1148.23
1216.12
1269.5
1290.66
1256.93
1211.66
1167.52
1113.24
1068.15
1026.11
991.716
962.787
939.477
921.852
908.077
897.641
889.995
884.837
881.936
879.697
878.865
878.464
879.324
880.677
882.57
884.818
887.367
890.161
893.145
896.29
899.557
902.928
906.377
909.891
913.452
917.05
920.672
924.31
927.953
931.596
935.229
938.848
942.447
946.021
949.566
953.082
956.565
960.016
963.437
966.834
970.212
973.579
976.942
980.308
983.684
987.07
990.458
993.823
997.112
1000.3
1003.4
1006.39
1009.3
1012.1
1014.8
1017.4
1019.9
1022.29
1024.58
1026.76
1028.84
1030.8
1032.66
1034.41
1036.05
1037.58
1039
1040.31
1041.51
1042.6
1043.57
1044.44
1045.2
1045.85
1046.39
1046.83
1047.15
1047.37
1047.48
1047.49
1047.39
1047.17
1046.83
1046.35
1045.72
1044.97
1044.12
1043.18
1042.15
1041.03
1039.82
1038.52
1037.14
1035.67
1034.12
1032.49
1030.78
1028.98
1027.15
1025.22
1023.26
1021.22
1019.14
1017
1014.82
1012.6
1010.34
1008.04
1005.71
1003.35
1000.98
998.58
996.17
993.748
991.319
988.888
986.461
984.042
981.648
979.298
977.012
974.831
972.816
971.069
969.747
969.383
970.434
976.818
11463.3
2314.48
1470.81
1185.03
940.395
727.268
561.442
450.247
374.187
321.038
283.138
256.288
236.618
221.723
210.255
201.498
194.906
190.122
186.931
185.448
185.772
187.147
190.911
197.769
208.629
224.497
245.532
269.263
293.108
311.44
327.416
357.247
417.336
519.355
608.76
677.808
747.776
824.134
897.03
961.079
1016.68
1064.5
1095.96
1104.98
1076.19
1028.78
992.324
949.913
913.217
878.564
851.025
827.208
808.314
793.145
781.456
772.765
766.455
762.079
759.356
758.131
757.756
757.979
759.031
760.588
762.642
765.019
767.674
770.542
773.584
776.77
780.073
783.473
786.953
790.499
794.099
797.742
801.419
805.122
808.841
812.571
816.305
820.035
823.758
827.468
831.159
834.83
838.476
842.096
845.686
849.247
852.779
856.284
859.762
863.215
866.641
870.039
873.404
876.728
879.997
883.201
886.323
889.356
892.302
895.156
897.918
900.585
903.155
905.627
907.999
910.27
912.439
914.504
916.463
918.315
920.059
921.694
923.219
924.634
925.936
927.127
928.204
929.169
930.021
930.76
931.386
931.899
932.299
932.585
932.757
932.813
932.775
932.615
932.341
931.95
931.44
930.805
930.048
929.18
928.213
927.15
925.99
924.737
923.391
921.957
920.436
918.829
917.136
915.362
913.508
911.577
909.586
907.518
905.398
903.212
900.973
898.68
896.338
893.95
891.521
889.054
886.553
884.024
881.47
878.896
876.305
873.699
871.083
868.461
865.841
863.236
860.653
858.107
855.62
853.224
850.971
848.947
847.282
846.342
846.6
849.814
11463.3
2932.18
1732.1
1207.36
832.534
587.447
444.465
356.068
301.371
265.793
241.018
222.721
208.648
197.643
188.887
181.945
176.602
172.726
170.22
169.203
169.566
170.973
174.207
179.451
187.379
199.179
215.797
237.486
266.241
309.12
364.586
456.813
565.786
654.82
723.349
786.024
838.765
879.555
914.361
947.921
966.334
969.344
941.586
910.112
877.874
843.3
813.789
785.097
761.528
741.092
724.765
711.331
700.881
692.906
687.122
683.181
680.964
680.032
679.849
680.605
682.035
683.997
686.421
689.194
692.252
695.525
698.972
702.56
706.263
710.063
713.943
717.892
721.898
725.953
730.047
734.173
738.324
742.492
746.669
750.851
755.03
759.201
763.358
767.497
771.614
775.704
779.764
783.791
787.781
791.734
795.647
799.521
803.353
807.142
810.885
814.576
818.21
821.777
825.269
828.682
832.007
835.242
838.385
841.432
844.382
847.231
849.977
852.618
855.151
857.577
859.893
862.097
864.186
866.159
868.014
869.75
871.365
872.859
874.23
875.477
876.6
877.598
878.471
879.219
879.841
880.338
880.708
880.951
881.056
881.06
880.936
880.683
880.303
879.798
879.167
878.409
877.527
876.529
875.42
874.204
872.882
871.455
869.927
868.301
866.582
864.767
862.86
860.864
858.782
856.618
854.38
852.069
849.691
847.246
844.74
842.175
839.557
836.89
834.177
831.423
828.633
825.812
822.966
820.097
817.209
814.306
811.391
808.469
805.547
802.636
799.746
796.891
794.089
791.368
788.772
786.371
784.268
782.715
782.052
783.131
11463.3
3436.32
1775.44
1034.9
650.32
457.625
358.934
303.083
267.63
242.809
224.156
209.54
197.738
187.969
179.879
173.312
168.197
164.521
162.387
161.902
162.833
165.493
170.333
177.779
188.581
203.33
225.599
260.812
315.759
400.78
505.349
595.26
665.046
725.032
772.289
807.709
835.982
858.482
867.99
865.804
843.419
820.66
794.386
768.674
743.53
719.773
699.338
681.262
666.47
654.182
644.455
636.856
631.251
627.371
625.168
624.293
624.225
625.18
626.858
629.175
631.987
635.206
638.75
642.551
646.557
650.723
655.02
659.423
663.916
668.482
673.113
677.798
682.53
687.3
692.102
696.927
701.77
706.621
711.474
716.322
721.158
725.978
730.775
735.544
740.28
744.98
749.638
754.251
758.815
763.327
767.785
772.188
776.532
780.815
785.034
789.183
793.259
797.259
801.177
805.004
808.734
812.364
815.89
819.31
822.621
825.819
828.901
831.864
834.706
837.422
840.006
842.461
844.786
846.979
849.038
850.962
852.749
854.398
855.907
857.277
858.506
859.593
860.539
861.343
862.006
862.526
862.904
863.131
863.213
863.18
862.997
862.672
862.207
861.602
860.861
859.983
858.971
857.832
856.569
855.185
853.682
852.064
850.33
848.477
846.509
844.434
842.257
839.98
837.608
835.145
832.598
829.97
827.266
824.489
821.644
818.734
815.764
812.741
809.669
806.553
803.397
800.209
796.993
793.754
790.495
787.219
783.931
780.637
777.344
774.061
770.798
767.569
764.391
761.287
758.293
755.464
752.881
750.712
749.125
748.617
11463.3
3577.61
1561.09
815.159
515.192
382.554
314.037
273.848
247.762
229.416
215.354
203.587
193.323
184.47
176.994
170.97
166.578
163.977
163.086
163.81
166.406
171.512
179.608
192.863
213.724
244.335
291.536
365.244
452.148
531.771
596.709
652.148
698.877
735.87
765.425
784.414
791.193
784.81
767.971
750.372
729.578
709.832
689.844
670.825
652.956
636.982
623.373
611.859
602.535
595.105
589.47
585.433
582.975
581.91
581.74
582.596
584.302
586.756
589.814
593.379
597.355
601.668
606.251
611.052
616.028
621.144
626.376
631.703
637.11
642.584
648.114
653.692
659.309
664.958
670.633
676.325
682.024
687.722
693.412
699.086
704.736
710.356
715.94
721.482
726.977
732.423
737.812
743.138
748.398
753.589
758.708
763.752
768.72
773.607
778.409
783.124
787.748
792.282
796.715
801.038
805.246
809.336
813.305
817.15
820.867
824.454
827.907
831.222
834.398
837.43
840.319
843.06
845.653
848.094
850.383
852.517
854.495
856.315
857.977
859.478
860.819
861.998
863.017
863.874
864.569
865.103
865.475
865.669
865.717
865.617
865.351
864.926
864.344
863.606
862.716
861.675
860.486
859.154
857.683
856.076
854.336
852.466
850.468
848.347
846.106
843.748
841.277
838.697
836.012
833.226
830.347
827.379
824.328
821.196
817.989
814.711
811.37
807.97
804.518
801.018
797.476
793.899
790.293
786.662
783.01
779.341
775.66
771.974
768.29
764.617
760.966
757.348
753.78
750.28
746.879
743.615
740.525
737.75
735.364
733.53
11463.3
3400.68
1280.41
661.461
445.782
349.695
297.458
265.795
244.108
227.797
214.885
204.232
195.2
187.524
181.236
176.556
173.816
173.15
174.871
178.944
186.409
198.638
216.97
246.613
291.2
350.496
417.482
479.346
535.794
585.101
627.603
663.245
693.777
715.084
722.804
719.687
706.983
692.9
676.587
660.948
645.306
630.455
615.955
602.334
589.946
579.188
570.178
562.807
557.036
552.74
549.833
548.391
547.98
548.519
550.019
552.364
555.441
559.153
563.401
568.102
573.18
578.572
584.219
590.076
596.104
602.273
608.56
614.946
621.411
627.941
634.525
641.149
647.804
654.481
661.179
667.882
674.581
681.265
687.926
694.554
701.143
707.684
714.172
720.599
726.956
733.227
739.425
745.545
751.584
757.536
763.4
769.172
774.849
780.427
785.902
791.269
796.522
801.654
806.662
811.539
816.283
820.888
825.352
829.671
833.843
837.863
841.728
845.435
848.981
852.362
855.577
858.623
861.497
864.199
866.725
869.075
871.246
873.236
875.045
876.671
878.114
879.373
880.449
881.342
882.051
882.577
882.913
883.055
883.039
882.84
882.459
881.899
881.164
880.255
879.176
877.928
876.517
874.946
873.219
871.339
869.311
867.138
864.824
862.373
859.788
857.075
854.237
851.279
848.204
845.019
841.73
838.344
834.866
831.299
827.65
823.926
820.133
816.279
812.368
808.406
804.4
800.357
796.282
792.182
788.06
783.922
779.773
775.621
771.474
767.339
763.228
759.152
755.125
751.164
747.293
743.548
739.969
736.647
733.597
730.727
11463.3
2973.04
1034.05
564.249
401.673
327.808
288.599
263.077
245.512
232.622
222.306
213.641
206.361
200.565
196.676
195.246
196.572
201.406
209.815
222.21
240.776
267.264
303.17
346.679
393.961
441.778
487.094
528.063
565.006
596.888
625.052
648.558
659.488
660.9
653.987
643.847
631.177
618.746
606.508
594.961
583.729
572.904
562.494
552.873
544.348
537.119
531.233
526.657
523.35
521.387
520.625
520.704
521.845
523.894
526.784
530.43
534.746
539.653
545.072
550.933
557.174
563.733
570.558
577.601
584.825
592.199
599.7
607.322
615.023
622.786
630.596
638.436
646.287
654.127
661.916
669.676
677.422
685.148
692.841
700.491
708.088
715.627
723.099
730.499
737.822
745.068
752.219
759.262
766.192
773.005
779.699
786.271
792.719
799.038
805.223
811.271
817.176
822.934
828.543
833.998
839.295
844.429
849.398
854.197
858.824
863.276
867.548
871.638
875.541
879.255
882.778
886.106
889.239
892.173
894.908
897.441
899.771
901.895
903.813
905.524
907.027
908.322
909.41
910.292
910.966
911.434
911.682
911.732
911.586
911.237
910.686
909.936
908.992
907.854
906.528
905.015
903.321
901.449
899.405
897.193
894.816
892.279
889.587
886.743
883.754
880.624
877.358
873.96
870.437
866.792
863.034
859.169
855.204
851.144
846.996
842.769
838.469
834.104
829.68
825.203
820.679
816.116
811.52
806.898
802.254
797.595
792.929
788.262
783.602
778.958
774.341
769.761
765.23
760.765
756.384
752.118
747.996
744.088
740.378
736.555
11463.3
2496.48
889.133
519.716
385.894
323.516
289.113
268.74
255.166
245.201
237.425
231.371
227.214
225.552
226.528
231.306
239.983
251.754
267.07
287.979
314.454
345.473
379.466
414.478
448.978
481.896
512.396
539.48
564.247
587.006
600.916
605.227
603.904
598.59
590.209
580.968
571.578
562.706
554.193
545.986
537.936
530.125
522.73
516.038
510.277
505.579
501.991
499.524
498.315
498.035
498.732
500.388
502.974
506.42
510.663
515.629
521.244
527.44
534.15
541.313
548.89
556.817
565.026
573.472
582.111
590.9
599.78
608.67
617.641
626.686
635.786
644.922
654.069
663.206
672.333
681.428
690.476
699.475
708.4
717.242
725.995
734.654
743.215
751.671
760.012
768.229
776.309
784.249
792.045
799.693
807.193
814.542
821.736
828.772
835.646
842.353
848.889
855.252
861.438
867.442
873.259
878.886
884.318
889.553
894.588
899.42
904.045
908.46
912.661
916.646
920.412
923.956
927.278
930.375
933.247
935.891
938.305
940.488
942.439
944.157
945.642
946.895
947.916
948.707
949.268
949.593
949.685
949.555
949.2
948.621
947.821
946.803
945.57
944.125
942.473
940.618
938.564
936.316
933.88
931.259
928.46
925.486
922.344
919.038
915.574
911.958
908.196
904.292
900.253
896.085
891.795
887.389
882.876
878.263
873.558
868.77
863.907
858.978
853.988
848.943
843.85
838.716
833.549
828.354
823.139
817.912
812.68
807.452
802.236
797.04
791.873
786.746
781.67
776.659
771.732
766.912
762.22
757.715
753.368
748.683
11463.3
2081.48
788.586
487.982
377.329
324.649
296.974
280.728
270.324
263.27
258.532
256.258
256.002
258.813
265.075
274.862
287.591
303.061
321.964
343.977
368.204
393.665
419.438
444.76
468.915
491.191
512.173
532.154
546.989
553.772
555.433
554.843
550.954
545.423
539.091
532.726
526.53
520.564
514.706
508.909
503.192
497.695
492.627
488.214
484.635
481.989
480.463
479.938
480.318
481.697
484.024
487.269
491.402
496.394
502.208
508.733
515.904
523.658
531.924
540.618
549.613
558.891
568.487
578.373
588.508
598.852
609.374
620.072
630.866
641.71
652.57
663.431
674.243
684.966
695.581
706.07
716.414
726.604
736.659
746.588
756.393
766.077
775.636
785.065
794.352
803.482
812.443
821.229
829.835
838.26
846.503
854.561
862.432
870.112
877.595
884.879
891.961
898.838
905.507
911.963
918.2
924.215
930.004
935.565
940.895
945.991
950.852
955.474
959.852
963.986
967.872
971.51
974.897
978.034
980.918
983.549
985.926
988.045
989.906
991.51
992.857
993.948
994.783
995.366
995.694
995.769
995.59
995.162
994.489
993.573
992.417
991.024
989.4
987.546
985.469
983.173
980.663
977.945
975.024
971.906
968.596
965.099
961.423
957.572
953.553
949.373
945.038
940.555
935.93
931.169
926.279
921.266
916.141
910.913
905.593
900.188
894.709
889.161
883.553
877.89
872.178
866.424
860.636
854.821
848.988
843.147
837.308
831.477
825.663
819.873
814.117
808.403
802.743
797.151
791.642
786.238
780.954
775.838
770.866
765.384
11463.3
1943.53
769.679
484.301
379.864
333.271
309.56
296.341
288.567
284.335
282.726
283.045
286.153
292.099
300.82
312.028
325.397
340.946
358.282
376.781
395.834
414.865
433.335
451.037
468.253
484.913
498.658
506.928
510.996
512.478
512.525
510.756
507.71
504.086
500.23
496.351
492.475
488.594
484.69
480.813
477.069
473.626
470.67
468.384
467.024
466.563
467.032
468.613
471.124
474.553
478.88
484.07
490.066
496.753
504.026
512.02
520.721
530.075
540.022
550.505
561.498
572.945
584.767
596.914
609.339
621.988
634.807
647.765
660.774
673.733
686.571
699.216
711.639
723.822
735.75
747.414
758.817
769.979
780.938
791.731
802.369
812.866
823.229
833.448
843.505
853.371
863.034
872.485
881.722
890.743
899.547
908.132
916.496
924.632
932.537
940.209
947.644
954.841
961.797
968.508
974.967
981.171
987.117
992.802
998.225
1003.39
1008.28
1012.91
1017.26
1021.35
1025.16
1028.69
1031.95
1034.94
1037.64
1040.08
1042.23
1044.11
1045.7
1047.01
1048.05
1048.81
1049.29
1049.51
1049.44
1049.11
1048.5
1047.63
1046.49
1045.1
1043.45
1041.55
1039.4
1037.01
1034.38
1031.52
1028.44
1025.14
1021.62
1017.9
1013.98
1009.86
1005.55
1001.06
996.394
991.562
986.57
981.426
976.136
970.707
965.147
959.459
953.656
947.753
941.758
935.681
929.531
923.313
917.035
910.703
904.324
897.904
891.448
884.968
878.475
871.981
865.495
859.024
852.575
846.156
839.773
833.437
827.159
820.952
814.833
808.819
802.921
797.179
791.591
785.357
11463.3
1884.37
746.351
482.104
387.432
345.247
324.475
313.435
307.601
305.109
304.684
306.838
311.554
318.528
327.449
337.984
349.867
362.826
376.497
390.468
404.35
418.098
431.868
445.196
456.546
464.541
470.141
474.025
476.092
476.928
477.076
476.378
475.094
473.507
471.741
469.865
467.913
465.935
464.014
462.304
461.045
460.351
460.183
460.726
462.099
464.27
467.156
470.578
474.902
480.197
486.466
493.682
501.814
510.847
520.792
531.562
543.126
555.407
568.328
581.824
595.842
610.303
625.119
640.221
655.577
671.094
686.629
702.052
717.267
732.213
746.814
761.003
774.738
787.997
800.772
813.07
824.916
836.387
847.587
858.633
869.53
880.302
890.982
901.55
911.959
922.148
932.102
941.822
951.302
960.539
969.529
978.27
986.759
994.989
1002.96
1010.66
1018.09
1025.26
1032.16
1038.78
1045.13
1051.19
1056.96
1062.44
1067.64
1072.54
1077.16
1081.48
1085.51
1089.25
1092.69
1095.83
1098.68
1101.23
1103.49
1105.46
1107.14
1108.51
1109.6
1110.38
1110.89
1111.08
1110.99
1110.63
1109.95
1109
1107.77
1106.26
1104.48
1102.43
1100.11
1097.53
1094.7
1091.62
1088.29
1084.73
1080.93
1076.91
1072.67
1068.22
1063.56
1058.7
1053.65
1048.42
1043
1037.42
1031.68
1025.79
1019.75
1013.57
1007.27
1000.83
994.289
987.65
980.926
974.123
967.248
960.308
953.311
946.263
939.17
932.04
924.873
917.689
910.501
903.319
896.153
889.009
881.893
874.812
867.772
860.782
853.857
847.01
840.256
833.612
827.084
820.703
814.5
807.554
11463.3
1851.38
744.121
488.562
398.579
358.865
339.377
329.113
323.904
321.852
321.67
324.227
328.972
335.432
343.178
351.871
361.305
371.25
381.473
391.834
402.483
412.625
421.32
428.522
434.464
439.586
443.634
446.843
449.36
451.398
453.123
454.625
455.868
456.89
457.749
458.511
459.236
459.994
460.842
461.801
462.738
464.155
466.34
469.569
473.804
479.009
485.202
492.497
500.832
510.228
520.697
532.191
544.659
558.063
572.374
587.525
603.58
620.298
637.544
655.216
673.217
691.447
709.8
728.167
746.403
764.413
782.135
799.463
816.286
832.492
847.969
862.66
876.544
889.646
901.997
913.593
924.473
934.813
944.866
955.02
965.088
975.116
985.229
995.342
1005.36
1015.21
1024.85
1034.25
1043.4
1052.28
1060.89
1069.23
1077.29
1085.07
1092.57
1099.78
1106.69
1113.32
1119.66
1125.71
1131.45
1136.89
1142.02
1146.84
1151.35
1155.55
1159.45
1163.04
1166.32
1169.3
1171.96
1174.31
1176.36
1178.1
1179.53
1180.67
1181.52
1182.05
1182.28
1182.22
1181.87
1181.2
1180.23
1178.98
1177.43
1175.59
1173.47
1171.07
1168.39
1165.45
1162.23
1158.75
1155.02
1151.03
1146.8
1142.33
1137.64
1132.71
1127.57
1122.22
1116.67
1110.91
1104.97
1098.85
1092.55
1086.08
1079.46
1072.7
1065.79
1058.75
1051.6
1044.35
1037.01
1029.58
1022.07
1014.49
1006.84
999.133
991.368
983.558
975.71
967.83
959.917
951.999
944.087
936.192
928.318
920.474
912.664
904.896
897.174
889.506
881.912
874.407
867.003
859.713
852.543
845.515
838.7
831.078
11463.3
1827.5
742.95
496.543
408.447
369.802
351.036
340.736
335.303
333.073
332.73
334.828
338.802
344.117
350.361
357.282
364.771
372.712
380.834
388.707
396.179
403.276
410.161
416.601
422.68
428.466
433.927
439.098
443.946
448.442
452.511
455.951
459.085
462.136
465.191
468.341
471.671
475.282
479.273
483.781
489.07
495.274
502.648
511.464
521.41
532.427
544.546
557.816
572.172
587.608
604.241
621.883
640.348
659.497
679.208
699.334
719.658
740.176
760.809
781.463
802.046
822.468
842.647
862.498
881.937
900.893
919.3
937.082
954.147
970.385
985.6
999.797
1013.03
1025.41
1036.99
1047.83
1057.97
1067.42
1076.32
1084.85
1093.1
1101.33
1110.11
1119.02
1127.86
1136.57
1145.07
1153.31
1161.26
1168.92
1176.3
1183.4
1190.21
1196.73
1202.96
1208.88
1214.5
1219.84
1224.89
1229.65
1234.11
1238.25
1242.08
1245.59
1248.79
1251.69
1254.28
1256.57
1258.55
1260.22
1261.6
1262.65
1263.41
1263.87
1264.03
1263.92
1263.53
1262.82
1261.82
1260.53
1258.96
1257.09
1254.94
1252.51
1249.8
1246.81
1243.55
1240.03
1236.23
1232.18
1227.87
1223.3
1218.49
1213.43
1208.15
1202.64
1196.9
1190.96
1184.8
1178.45
1171.9
1165.16
1158.24
1151.15
1143.9
1136.49
1128.93
1121.23
1113.41
1105.46
1097.4
1089.27
1081.06
1072.77
1064.4
1055.97
1047.47
1038.91
1030.31
1021.66
1012.99
1004.31
995.629
986.964
978.315
969.687
961.087
952.522
943.998
935.523
927.101
918.744
910.473
902.302
894.24
886.299
878.485
870.808
863.387
855.128
11463.3
1813.5
744.942
501.853
414.944
377.283
358.705
348.217
342.605
340.214
339.749
341.539
345.14
350.076
355.918
362.448
369.491
376.869
384.552
392.564
400.55
408.42
416.287
424.104
431.925
439.778
447.676
455.638
463.549
471.379
479.197
487.151
495.288
503.69
512.449
521.676
531.48
541.984
553.295
565.545
578.879
593.301
608.794
625.119
642.374
660.614
679.868
700.159
721.342
743.212
765.513
788.369
811.555
834.839
858.032
880.997
903.581
925.719
947.318
968.327
988.689
1008.4
1027.44
1045.81
1063.48
1080.45
1096.71
1112.25
1127.05
1141.09
1154.38
1166.84
1178.41
1189.3
1199.57
1209.3
1218.47
1226.95
1234.73
1241.67
1248.23
1254.99
1261.91
1268.7
1275.25
1281.53
1287.53
1293.24
1298.66
1303.82
1308.72
1313.36
1317.75
1321.88
1325.74
1329.34
1332.69
1335.79
1338.65
1341.26
1343.6
1345.67
1347.45
1348.96
1350.2
1351.17
1351.87
1352.31
1352.47
1352.37
1352.01
1351.36
1350.44
1349.27
1347.85
1346.17
1344.24
1342.05
1339.6
1336.89
1333.93
1330.71
1327.24
1323.52
1319.56
1315.35
1310.9
1306.21
1301.28
1296.12
1290.71
1285.09
1279.24
1273.17
1266.89
1260.42
1253.74
1246.87
1239.8
1232.56
1225.14
1217.54
1209.78
1201.87
1193.8
1185.59
1177.24
1168.76
1160.16
1151.44
1142.61
1133.68
1124.67
1115.57
1106.39
1097.15
1087.84
1078.47
1069.07
1059.62
1050.16
1040.68
1031.23
1021.8
1012.38
1002.99
993.631
984.311
975.04
965.827
956.694
947.656
938.718
929.888
921.174
912.589
904.137
895.824
887.805
878.961
11463.3
1799.7
746.062
504.489
418.289
382.738
364.746
354.937
350.707
349.261
349.843
352.909
357.679
363.729
371.078
379.872
389.279
399.166
410.051
422.044
434.662
447.596
461.191
475.446
490.354
505.87
521.98
538.619
555.801
573.542
591.873
610.838
630.367
650.47
671.184
692.615
714.873
738.17
762.451
787.65
813.633
840.263
867.346
894.648
922.144
949.789
977.633
1006.09
1034.55
1062.39
1089.22
1114.61
1138.64
1161.3
1182.63
1202.55
1221.1
1238.26
1254.11
1268.71
1282.17
1294.61
1306.13
1316.81
1326.71
1335.89
1344.42
1352.35
1359.71
1366.59
1373.22
1379.66
1385.94
1391.95
1397.59
1402.82
1407.53
1411.63
1415.45
1419.23
1423.32
1427.4
1430.77
1433.56
1435.96
1438.05
1439.92
1441.58
1443.06
1444.37
1445.51
1446.49
1447.3
1447.95
1448.45
1448.8
1449
1449.04
1448.95
1448.71
1448.25
1447.61
1446.78
1445.75
1444.54
1443.15
1441.56
1439.78
1437.79
1435.61
1433.22
1430.63
1427.85
1424.87
1421.7
1418.34
1414.78