/*--------------------------------*- C++ -*----------------------------------*\
  =========                 |
  \\      /  F ield         | OpenFOAM: The Open Source CFD Toolbox
   \\    /   O peration     | Website:  https://openfoam.org
    \\  /    A nd           | Version:  8
     \\/     M anipulation  |
\*---------------------------------------------------------------------------*/
FoamFile
{
    version     2.0;
    format      ascii;
    class       volScalarField;
    location    "1800";
    object      p;
}
// * * * * * * * * * * * * * * * * * * * * * * * * * * * * * * * * * * * * * //

dimensions      [0 2 -2 0 0 0 0];

internalField   nonuniform List<scalar> 
12225
(
-4.19808
-5.09409
-5.48874
-5.61674
-5.74824
-5.90156
-6.03076
-6.13472
-6.22879
-6.31462
-6.39661
-6.47473
-6.54553
-6.60711
-6.66858
-6.73604
-6.8187
-6.91071
-4.47756
-5.11721
-5.45046
-5.58192
-5.71299
-5.86258
-5.99706
-6.10154
-6.19156
-6.28369
-6.37106
-6.44717
-6.51685
-6.58345
-6.64655
-6.71274
-6.78468
-6.84709
-4.68848
-5.1185
-5.43369
-5.58903
-5.72446
-5.86971
-6.00071
-6.10472
-6.19519
-6.28451
-6.36773
-6.44183
-6.51095
-6.57674
-6.63918
-6.70185
-6.76407
-6.81449
-4.83498
-5.14664
-5.44332
-5.60572
-5.73397
-5.86868
-5.99314
-6.0957
-6.18573
-6.27236
-6.35339
-6.42699
-6.49567
-6.56058
-6.62189
-6.68113
-6.73724
-6.78342
-4.96234
-5.19722
-5.46185
-5.62178
-5.7445
-5.87151
-5.9911
-6.09244
-6.1817
-6.26607
-6.34516
-6.41765
-6.48495
-6.54807
-6.60733
-6.66316
-6.71464
-6.75751
-5.08011
-5.25458
-5.48144
-5.63663
-5.75631
-5.87671
-5.99093
-6.08991
-6.17765
-6.25976
-6.33669
-6.40757
-6.47317
-6.53434
-6.59139
-6.64431
-6.69232
-6.73289
-5.188
-5.31477
-5.50472
-5.65226
-5.76829
-5.88175
-5.9901
-6.08618
-6.17218
-6.25224
-6.3271
-6.39627
-6.46019
-6.51953
-6.57452
-6.62503
-6.67049
-6.70949
-5.27155
-5.36804
-5.52929
-5.66734
-5.77898
-5.88635
-5.98948
-6.08266
-6.1668
-6.24498
-6.31797
-6.38555
-6.44798
-6.50577
-6.5591
-6.60783
-6.6516
-6.68951
-5.33971
-5.41584
-5.55364
-5.68192
-5.78908
-5.89104
-5.98941
-6.07968
-6.16188
-6.23821
-6.30944
-6.3755
-6.43656
-6.49296
-6.54486
-6.59216
-6.63464
-6.67177
-5.40756
-5.46716
-5.58235
-5.69919
-5.80085
-5.89699
-5.99013
-6.07693
-6.1567
-6.23085
-6.30007
-6.36437
-6.42385
-6.47873
-6.52911
-6.57498
-6.61624
-6.6526
-5.47421
-5.52049
-5.61508
-5.71928
-5.81432
-5.90432
-5.99183
-6.0746
-6.15146
-6.22308
-6.29
-6.3523
-6.40999
-6.46318
-6.51199
-6.55642
-6.59652
-6.63214
-5.53834
-5.57434
-5.65105
-5.74207
-5.82945
-5.91302
-5.99464
-6.07284
-6.1463
-6.21504
-6.27941
-6.33945
-6.39513
-6.44651
-6.49368
-6.53669
-6.57568
-6.61056
-5.59886
-5.62697
-5.6888
-5.76694
-5.84594
-5.92285
-5.99842
-6.07169
-6.14129
-6.20685
-6.2684
-6.32597
-6.37949
-6.42896
-6.47446
-6.51609
-6.55397
-6.58814
-5.65411
-5.67637
-5.7263
-5.79267
-5.86308
-5.93324
-6.00282
-6.07096
-6.13644
-6.19855
-6.25713
-6.31208
-6.36334
-6.41085
-6.4547
-6.49497
-6.5318
-6.56526
-5.70219
-5.72013
-5.76094
-5.8173
-5.87957
-5.94323
-6.00708
-6.07023
-6.13152
-6.19013
-6.24569
-6.29802
-6.34702
-6.39263
-6.43488
-6.47386
-6.50969
-6.54247
-5.74035
-5.75526
-5.78949
-5.83804
-5.8934
-5.95128
-6.01007
-6.06873
-6.12614
-6.18146
-6.23418
-6.28406
-6.33095
-6.37479
-6.41558
-6.45338
-6.48831
-6.52047
-5.76468
-5.77767
-5.80773
-5.85109
-5.90151
-5.95507
-6.01
-6.06518
-6.11952
-6.17216
-6.22255
-6.27041
-6.31555
-6.35792
-6.39748
-6.43431
-6.46849
-6.50014
-5.76885
-5.78122
-5.80992
-5.85149
-5.89998
-5.9517
-6.00486
-6.0584
-6.11117
-6.16241
-6.21149
-6.25819
-6.30228
-6.34374
-6.38255
-6.41877
-6.45248
-6.48384
-5.75244
-5.76552
-5.79572
-5.83895
-5.88876
-5.94131
-5.99507
-6.04896
-6.10198
-6.1532
-6.2022
-6.24866
-6.29254
-6.33373
-6.3723
-6.4083
-6.44186
-6.47311
-5.7207
-5.73566
-5.76988
-5.8177
-5.87126
-5.92666
-5.98271
-6.03856
-6.09304
-6.14535
-6.19505
-6.24204
-6.28622
-6.32761
-6.36626
-6.40233
-6.4359
-6.4672
-5.67691
-5.69513
-5.73608
-5.79111
-5.85021
-5.90975
-5.96937
-6.02822
-6.08505
-6.13906
-6.19002
-6.23792
-6.28274
-6.32455
-6.36348
-6.3997
-6.43339
-6.46477
-5.62298
-5.64631
-5.69731
-5.76196
-5.82765
-5.89212
-5.95615
-6.01877
-6.07843
-6.13451
-6.18703
-6.23605
-6.28167
-6.32398
-6.36323
-6.39963
-6.43344
-6.46488
-5.55983
-5.59113
-5.65629
-5.73248
-5.80505
-5.87488
-5.94399
-6.01077
-6.07344
-6.13174
-6.18593
-6.23619
-6.28262
-6.32545
-6.36497
-6.40152
-6.43535
-6.46681
-5.48762
-5.5314
-5.6158
-5.70436
-5.7832
-5.85871
-5.93346
-6.00456
-6.07018
-6.13064
-6.1865
-6.23795
-6.28515
-6.32842
-6.36815
-6.40473
-6.43854
-6.46996
-5.40587
-5.46889
-5.57863
-5.67891
-5.76251
-5.8438
-5.92455
-5.99991
-6.06833
-6.13088
-6.18833
-6.24087
-6.28871
-6.33225
-6.37201
-6.40847
-6.44208
-6.47332
-5.31343
-5.4052
-5.546
-5.6564
-5.74328
-5.8301
-5.91643
-5.99557
-6.06656
-6.13116
-6.19024
-6.24396
-6.29251
-6.33641
-6.37624
-6.41262
-6.44607
-6.47727
-5.20849
-5.34398
-5.51523
-5.63203
-5.72329
-5.81713
-5.90903
-5.99146
-6.06464
-6.13103
-6.19147
-6.24608
-6.29513
-6.33916
-6.37886
-6.41498
-6.44818
-6.47921
-5.08436
-5.29811
-5.49034
-5.60218
-5.69824
-5.80268
-5.90257
-5.98999
-6.06697
-6.13644
-6.19919
-6.25532
-6.3052
-6.3495
-6.38892
-6.42447
-6.45728
-6.48875
-4.9068
-5.27439
-5.49793
-5.59359
-5.68524
-5.79389
-5.897
-5.9859
-6.06424
-6.13528
-6.19951
-6.25682
-6.3075
-6.35215
-6.39135
-6.42574
-6.45661
-6.48531
-4.64819
-5.20001
-5.48742
-5.59324
-5.69268
-5.81003
-5.91888
-6.01067
-6.09044
-6.16229
-6.22697
-6.28443
-6.33497
-6.37914
-6.41736
-6.44931
-6.47573
-6.49709
-7.4341
-7.4342
-7.43425
-7.43423
-7.43393
-7.43275
-7.43026
-7.42696
-7.4238
-7.42178
-7.42191
-7.42436
-7.42864
-7.43399
-7.43963
-7.44489
-7.44923
-7.45222
-7.45386
-7.45447
-7.45434
-7.45367
-7.45268
-7.45166
-7.45083
-7.45031
-7.45005
-7.44989
-7.44967
-7.44929
-7.44874
-7.44804
-7.44712
-7.4459
-7.44446
-7.44306
-7.44232
-7.44291
-7.44488
-7.4476
-7.45016
-7.45212
-7.45367
-7.45527
-7.45734
-7.4604
-7.46409
-7.46731
-7.46967
-7.47318
-7.48162
-7.49905
-7.52536
-7.55903
-7.60018
-7.65028
-7.70888
-7.77416
-7.84424
-7.91693
-7.99035
-8.06266
-8.13277
-8.19969
-8.26242
-8.32054
-8.37388
-8.42238
-8.46608
-8.50505
-8.53939
-8.56918
-8.5945
-8.6154
-8.63193
-8.64409
-8.65189
-8.65532
-8.65435
-8.64893
-8.63904
-8.62462
-8.60562
-8.58198
-8.55365
-8.52057
-8.48268
-8.43989
-8.39213
-8.33933
-8.28143
-8.21839
-8.15014
-8.07664
-7.99783
-7.91366
-7.8241
-7.72919
-7.62905
-7.52362
-7.41242
-7.29525
-7.17231
-7.04369
-6.90942
-6.76951
-6.62399
-6.47289
-6.31623
-6.15407
-5.98646
-5.81347
-5.63518
-5.45166
-5.26303
-5.06938
-4.87085
-4.66754
-4.45962
-4.24721
-4.03049
-3.80962
-3.58476
-3.35612
-3.12387
-2.88821
-2.64934
-2.40748
-2.16285
-1.91567
-1.66616
-1.41455
-1.16107
-0.905965
-0.649521
-0.392056
-0.133793
0.125386
0.385369
0.645752
0.906259
1.16665
1.42669
1.68619
1.94493
2.20274
2.45941
2.71478
2.96867
3.22093
3.47139
3.71987
3.96623
4.21032
4.45199
4.69113
4.92763
5.16138
5.3923
5.62032
5.84536
6.06735
6.28623
6.50193
6.71438
6.92351
7.12926
7.33157
7.53037
7.7256
7.91721
8.10509
8.28919
8.46941
8.64567
8.81793
8.98647
9.15116
9.31507
9.46946
-7.43529
-7.43547
-7.43582
-7.4362
-7.43619
-7.43538
-7.43348
-7.43105
-7.42931
-7.42921
-7.43104
-7.43465
-7.43952
-7.445
-7.45049
-7.45547
-7.45959
-7.46266
-7.46447
-7.46482
-7.46382
-7.46179
-7.45917
-7.45643
-7.45398
-7.4521
-7.45081
-7.44996
-7.44927
-7.44863
-7.44801
-7.44739
-7.44672
-7.4459
-7.44487
-7.44406
-7.44416
-7.44566
-7.44832
-7.4512
-7.45319
-7.45391
-7.45381
-7.45299
-7.45161
-7.4512
-7.45411
-7.4607
-7.46731
-7.47408
-7.48458
-7.5
-7.52178
-7.55345
-7.59757
-7.65292
-7.71682
-7.78684
-7.86046
-7.93549
-8.00979
-8.08209
-8.15106
-8.21547
-8.27528
-8.3305
-8.38109
-8.42714
-8.4687
-8.50588
-8.53874
-8.56735
-8.59174
-8.61193
-8.62794
-8.63974
-8.64731
-8.65063
-8.64964
-8.64429
-8.63454
-8.62032
-8.60159
-8.57826
-8.5503
-8.51763
-8.4802
-8.43792
-8.39073
-8.33855
-8.28132
-8.21899
-8.15151
-8.07882
-8.00086
-7.91755
-7.82882
-7.73458
-7.63469
-7.52904
-7.41788
-7.30132
-7.17921
-7.05148
-6.91813
-6.77915
-6.63456
-6.48439
-6.32866
-6.16744
-6.00075
-5.82869
-5.6513
-5.46869
-5.28095
-5.08818
-4.8905
-4.68805
-4.48094
-4.26934
-4.0534
-3.83329
-3.60917
-3.38123
-3.14966
-2.91465
-2.67641
-2.43513
-2.19105
-1.94438
-1.69534
-1.44415
-1.19103
-0.93619
-0.679823
-0.42213
-0.163369
0.0960157
0.355834
0.616057
0.876423
1.1367
1.39666
1.65611
1.91484
2.17265
2.42937
2.6848
2.93879
3.19118
3.44178
3.69043
3.93699
4.1813
4.42321
4.66261
4.89938
5.13342
5.36463
5.59295
5.8183
6.04061
6.25981
6.47584
6.68862
6.8981
7.1042
7.30686
7.50603
7.70163
7.89362
8.08192
8.2665
8.44729
8.62423
8.79728
8.96664
9.1317
9.29765
9.45134
-7.43657
-7.43656
-7.43659
-7.43666
-7.43675
-7.43678
-7.43701
-7.43793
-7.44003
-7.44344
-7.44796
-7.45324
-7.45884
-7.46435
-7.46938
-7.47364
-7.47692
-7.47912
-7.48017
-7.48
-7.47864
-7.47621
-7.47291
-7.46892
-7.46451
-7.45994
-7.45552
-7.4515
-7.44809
-7.44539
-7.44332
-7.44166
-7.44017
-7.43886
-7.43821
-7.4389
-7.44142
-7.4455
-7.44976
-7.45238
-7.45212
-7.44983
-7.4476
-7.44702
-7.44765
-7.44932
-7.45444
-7.46442
-7.47852
-7.49729
-7.52161
-7.55163
-7.58787
-7.63108
-7.68138
-7.7375
-7.79786
-7.86106
-7.92567
-7.99049
-8.05446
-8.1168
-8.17676
-8.23366
-8.28719
-8.3372
-8.38354
-8.42616
-8.465
-8.50004
-8.53123
-8.55857
-8.582
-8.60151
-8.61703
-8.62853
-8.63595
-8.63922
-8.6383
-8.63312
-8.6236
-8.60969
-8.59133
-8.56843
-8.54095
-8.50882
-8.47197
-8.43033
-8.38381
-8.33235
-8.27589
-8.21437
-8.14773
-8.07592
-7.99887
-7.91653
-7.82884
-7.73571
-7.63704
-7.53269
-7.42274
-7.30729
-7.18628
-7.05969
-6.92748
-6.78967
-6.64626
-6.49727
-6.34274
-6.1827
-6.01721
-5.84633
-5.67013
-5.4887
-5.30212
-5.1105
-4.91396
-4.71262
-4.50661
-4.29609
-4.0812
-3.8621
-3.63898
-3.41201
-3.18137
-2.94726
-2.70988
-2.46944
-2.22614
-1.98022
-1.73189
-1.48137
-1.22887
-0.974635
-0.718866
-0.461769
-0.203575
0.0553587
0.314823
0.574701
0.834753
1.09475
1.35448
1.61373
1.8723
2.12999
2.38662
2.642
2.89598
3.14837
3.39901
3.64774
3.89439
4.13883
4.38089
4.62047
4.85743
5.09167
5.32309
5.55162
5.77719
5.99971
6.21912
6.43536
6.64836
6.85804
7.06434
7.26719
7.46653
7.66231
7.85447
8.04294
8.22765
8.40853
8.58561
8.7589
8.92894
9.09456
9.26322
9.41284
-7.4377
-7.43742
-7.43705
-7.43706
-7.43824
-7.44097
-7.44507
-7.45016
-7.4559
-7.46199
-7.46813
-7.47405
-7.47956
-7.48445
-7.48856
-7.49176
-7.49394
-7.49505
-7.49505
-7.49392
-7.49168
-7.4884
-7.48416
-7.47906
-7.47318
-7.46666
-7.4597
-7.45259
-7.44568
-7.43935
-7.43385
-7.42939
-7.42624
-7.42487
-7.426
-7.42983
-7.43527
-7.44033
-7.44354
-7.44458
-7.44404
-7.44348
-7.4445
-7.44783
-7.45392
-7.4635
-7.47743
-7.49642
-7.52062
-7.54971
-7.58323
-7.62088
-7.66245
-7.70775
-7.75655
-7.80836
-7.86259
-7.91854
-7.97546
-8.03258
-8.08917
-8.14459
-8.19828
-8.24976
-8.29869
-8.3448
-8.38791
-8.42786
-8.46453
-8.49783
-8.52765
-8.55392
-8.57656
-8.59547
-8.61059
-8.62184
-8.62912
-8.63238
-8.63153
-8.62649
-8.61719
-8.60357
-8.58554
-8.56305
-8.53601
-8.50437
-8.46806
-8.427
-8.38112
-8.33034
-8.27459
-8.21382
-8.14796
-8.07696
-8.00074
-7.91923
-7.83236
-7.74008
-7.6423
-7.53897
-7.43009
-7.3157
-7.19574
-7.07021
-6.93908
-6.80236
-6.66004
-6.51215
-6.35872
-6.19979
-6.03541
-5.86563
-5.69053
-5.51019
-5.32469
-5.13415
-4.93866
-4.73836
-4.53338
-4.32386
-4.10996
-3.89182
-3.66964
-3.44357
-3.21381
-2.98056
-2.744
-2.50434
-2.2618
-2.01659
-1.76894
-1.51905
-1.26716
-1.01349
-0.758268
-0.501717
-0.244066
0.0144156
0.273523
0.533068
0.792817
1.05255
1.31205
1.5711
1.82952
2.08709
2.34363
2.59896
2.85291
3.1053
3.35597
3.60475
3.85149
4.09603
4.33823
4.57795
4.81508
5.04949
5.28111
5.50983
5.73558
5.9583
6.17791
6.39433
6.60751
6.81737
7.02384
7.22684
7.42632
7.62223
7.8145
8.00309
8.18793
8.36898
8.54628
8.7198
8.89023
9.0558
9.22518
9.36855
-7.44001
-7.43942
-7.43903
-7.44047
-7.44472
-7.45106
-7.45841
-7.46607
-7.47357
-7.4806
-7.48701
-7.49272
-7.49768
-7.50184
-7.50511
-7.50741
-7.50867
-7.50885
-7.50793
-7.50587
-7.50269
-7.49842
-7.49312
-7.48682
-7.47961
-7.47155
-7.46272
-7.45336
-7.44378
-7.43449
-7.4261
-7.41941
-7.41538
-7.41493
-7.41797
-7.42261
-7.42722
-7.43108
-7.43408
-7.43666
-7.43962
-7.44408
-7.45102
-7.46139
-7.476
-7.49517
-7.51852
-7.54548
-7.57583
-7.60923
-7.64542
-7.68435
-7.72595
-7.77014
-7.8167
-7.86527
-7.91541
-7.96663
-8.01838
-8.07015
-8.12142
-8.17173
-8.22066
-8.26784
-8.31297
-8.35578
-8.39607
-8.43365
-8.46835
-8.50002
-8.52854
-8.55377
-8.57558
-8.59388
-8.60853
-8.61945
-8.62652
-8.62965
-8.62876
-8.62376
-8.61457
-8.60111
-8.5833
-8.56107
-8.53436
-8.50309
-8.46719
-8.42659
-8.38121
-8.33098
-8.27582
-8.21568
-8.15048
-8.08016
-8.00465
-7.92388
-7.83777
-7.74626
-7.64928
-7.54681
-7.43881
-7.32529
-7.20622
-7.08156
-6.95132
-6.81549
-6.67407
-6.52708
-6.37455
-6.21652
-6.05303
-5.88415
-5.70994
-5.53048
-5.34585
-5.15617
-4.96153
-4.76206
-4.5579
-4.34918
-4.13606
-3.91869
-3.69725
-3.4719
-3.24284
-3.01026
-2.77435
-2.53531
-2.29336
-2.04872
-1.8016
-1.55222
-1.30081
-1.04759
-0.792782
-0.536627
-0.279357
-0.0212059
0.23761
0.496885
0.756388
1.0159
1.27521
1.53411
1.7924
2.04987
2.30634
2.56162
2.81555
3.06794
3.31863
3.56746
3.81426
4.05889
4.30118
4.54102
4.77827
5.01283
5.24459
5.47347
5.69938
5.92226
6.14204
6.35863
6.57196
6.78197
6.98859
7.19175
7.39138
7.58744
7.77985
7.96858
8.15357
8.33478
8.51223
8.68581
8.8562
9.0211
9.18994
9.32652
-7.44429
-7.44338
-7.44392
-7.44844
-7.45595
-7.46447
-7.4731
-7.48135
-7.48894
-7.49579
-7.50188
-7.50722
-7.51174
-7.51537
-7.51805
-7.51971
-7.52031
-7.5198
-7.51817
-7.5154
-7.5115
-7.50651
-7.50043
-7.49327
-7.48502
-7.47578
-7.46571
-7.455
-7.44402
-7.43344
-7.42409
-7.4172
-7.41379
-7.41363
-7.41529
-7.41764
-7.42063
-7.42463
-7.42996
-7.43655
-7.4447
-7.45558
-7.47021
-7.4887
-7.51081
-7.53616
-7.56446
-7.59535
-7.62859
-7.66402
-7.70147
-7.74087
-7.78211
-7.82506
-7.86953
-7.91527
-7.96196
-8.00928
-8.05687
-8.10438
-8.15144
-8.19774
-8.24293
-8.28671
-8.32879
-8.36894
-8.40693
-8.44254
-8.47559
-8.5059
-8.53328
-8.5576
-8.57868
-8.59639
-8.61058
-8.62115
-8.62796
-8.63092
-8.62991
-8.62486
-8.61568
-8.60227
-8.58457
-8.5625
-8.53599
-8.50496
-8.46936
-8.42909
-8.38409
-8.33427
-8.27957
-8.21992
-8.15524
-8.08548
-8.01054
-7.93035
-7.84485
-7.75396
-7.65764
-7.55584
-7.44853
-7.33569
-7.2173
-7.09332
-6.96376
-6.82861
-6.68787
-6.54157
-6.38972
-6.23237
-6.06956
-5.90135
-5.7278
-5.549
-5.36502
-5.17597
-4.98196
-4.78311
-4.57955
-4.37142
-4.15887
-3.94206
-3.72116
-3.49634
-3.26778
-3.03569
-2.80024
-2.56166
-2.32014
-2.07591
-1.82918
-1.58016
-1.3291
-1.0762
-0.821699
-0.565834
-0.308833
-0.0509232
0.207672
0.466741
0.726056
0.985403
1.24456
1.50333
1.76151
2.0189
2.2753
2.53054
2.78444
3.03682
3.28751
3.53636
3.7832
4.02786
4.27021
4.51011
4.74744
4.98208
5.21393
5.44291
5.66892
5.89191
6.11179
6.32849
6.54193
6.75205
6.95878
7.16204
7.36178
7.55793
7.75045
7.93926
8.12433
8.30558
8.48303
8.65649
8.82655
8.99046
9.15848
9.28847
-7.44958
-7.44914
-7.45191
-7.45919
-7.46803
-7.47682
-7.48519
-7.493
-7.50019
-7.50673
-7.51256
-7.51762
-7.52182
-7.52509
-7.52737
-7.52861
-7.52875
-7.52779
-7.5257
-7.52247
-7.51813
-7.51269
-7.50606
-7.49821
-7.48924
-7.47937
-7.46881
-7.45782
-7.44688
-7.43677
-7.42861
-7.42315
-7.41985
-7.41783
-7.41711
-7.41814
-7.42157
-7.42729
-7.4352
-7.44591
-7.46001
-7.47746
-7.49808
-7.52163
-7.54789
-7.57653
-7.60734
-7.64016
-7.67483
-7.71119
-7.74906
-7.78833
-7.82886
-7.87053
-7.91318
-7.95664
-8.0007
-8.04514
-8.08971
-8.13415
-8.17821
-8.22161
-8.26408
-8.30536
-8.3452
-8.38336
-8.41961
-8.45373
-8.48551
-8.51474
-8.54124
-8.56481
-8.58528
-8.60248
-8.61626
-8.62649
-8.63303
-8.63576
-8.63459
-8.62942
-8.62015
-8.60672
-8.58903
-8.567
-8.54058
-8.50969
-8.47426
-8.43421
-8.38947
-8.33994
-8.28557
-8.22628
-8.162
-8.09264
-8.01813
-7.93839
-7.85335
-7.76294
-7.66711
-7.5658
-7.459
-7.34666
-7.22876
-7.10528
-6.97621
-6.84154
-6.7013
-6.55547
-6.40411
-6.24723
-6.0849
-5.91715
-5.74407
-5.56572
-5.38219
-5.19359
-5.00001
-4.80158
-4.59842
-4.39069
-4.17853
-3.9621
-3.74156
-3.51709
-3.28887
-3.0571
-2.82197
-2.58369
-2.34246
-2.0985
-1.85203
-1.60326
-1.35244
-1.09977
-0.845481
-0.589823
-0.33301
-0.0752776
0.183157
0.44207
0.701246
0.960462
1.21951
1.47818
1.73627
1.99358
2.24992
2.50511
2.75897
3.01132
3.26201
3.51085
3.75769
4.00236
4.24472
4.48463
4.72198
4.95664
5.18852
5.41753
5.6436
5.86664
6.08658
6.30333
6.51683
6.727
6.93377
7.13708
7.33686
7.53306
7.72561
7.91445
8.09952
8.28074
8.45807
8.63126
8.80084
8.96366
9.13091
9.25476
-7.45368
-7.45453
-7.45997
-7.4683
-7.4768
-7.48496
-7.49275
-7.50014
-7.50704
-7.51336
-7.519
-7.52386
-7.52787
-7.53094
-7.533
-7.53401
-7.53393
-7.53273
-7.53041
-7.52697
-7.52243
-7.51668
-7.50966
-7.50153
-7.49255
-7.48284
-7.47264
-7.46239
-7.45283
-7.44469
-7.43825
-7.4329
-7.42819
-7.4248
-7.42367
-7.42511
-7.42956
-7.43751
-7.44904
-7.464
-7.48212
-7.50317
-7.52692
-7.55308
-7.58145
-7.6118
-7.64395
-7.67774
-7.713
-7.74958
-7.78734
-7.82617
-7.86595
-7.90656
-7.94786
-7.98973
-8.032
-8.07451
-8.11706
-8.15947
-8.20151
-8.24296
-8.28359
-8.32318
-8.36149
-8.39828
-8.43334
-8.46643
-8.49732
-8.5258
-8.55166
-8.57468
-8.59468
-8.61147
-8.6249
-8.63481
-8.64106
-8.64355
-8.64216
-8.6368
-8.62738
-8.61383
-8.59606
-8.57399
-8.54756
-8.51669
-8.48133
-8.44139
-8.3968
-8.34747
-8.29332
-8.23428
-8.17026
-8.10119
-8.02699
-7.94756
-7.86285
-7.77277
-7.67728
-7.57632
-7.46985
-7.35785
-7.24028
-7.11713
-6.98838
-6.85404
-6.7141
-6.56859
-6.41753
-6.26096
-6.09893
-5.93148
-5.75869
-5.58063
-5.39738
-5.20905
-5.01573
-4.81756
-4.61466
-4.40717
-4.19524
-3.97904
-3.75872
-3.53446
-3.30645
-3.07487
-2.83993
-2.60182
-2.36077
-2.11698
-1.87066
-1.62206
-1.37139
-1.11886
-0.864718
-0.609196
-0.352514
-0.0949054
0.163411
0.422211
0.681279
0.940397
1.19936
1.45794
1.71596
1.9732
2.22949
2.48463
2.73844
2.99075
3.24141
3.49023
3.73705
3.98169
4.22402
4.46391
4.70123
4.93587
5.16775
5.39676
5.62283
5.84588
6.06584
6.2826
6.49611
6.70628
6.91305
7.11635
7.31614
7.51234
7.70489
7.89371
8.07873
8.25985
8.43699
8.60984
8.77887
8.9406
9.10713
9.22548
-7.45488
-7.45741
-7.46441
-7.47243
-7.48024
-7.48788
-7.49533
-7.50248
-7.50922
-7.51544
-7.52102
-7.52584
-7.52981
-7.53284
-7.53488
-7.53588
-7.53579
-7.5346
-7.53229
-7.52886
-7.52426
-7.51842
-7.51146
-7.50361
-7.49508
-7.48609
-7.47708
-7.46853
-7.46081
-7.45391
-7.44761
-7.4418
-7.43687
-7.43383
-7.43353
-7.43651
-7.44314
-7.45347
-7.46724
-7.48426
-7.50427
-7.527
-7.55219
-7.57959
-7.60896
-7.64012
-7.67286
-7.70703
-7.74246
-7.77901
-7.81658
-7.85504
-7.89426
-7.93415
-7.97458
-8.01544
-8.05661
-8.09794
-8.13927
-8.18044
-8.22126
-8.26155
-8.30109
-8.33967
-8.37708
-8.41309
-8.44745
-8.47994
-8.51032
-8.53834
-8.56379
-8.58646
-8.60612
-8.62261
-8.63573
-8.64534
-8.6513
-8.6535
-8.65184
-8.64623
-8.63659
-8.62284
-8.6049
-8.58269
-8.55615
-8.52522
-8.48984
-8.44992
-8.4054
-8.35616
-8.30214
-8.24325
-8.17941
-8.11053
-8.03651
-7.95729
-7.87278
-7.78291
-7.68762
-7.58687
-7.4806
-7.36879
-7.25141
-7.12845
-6.99988
-6.86571
-6.72594
-6.5806
-6.42971
-6.27331
-6.11144
-5.94415
-5.77151
-5.5936
-5.4105
-5.2223
-5.02912
-4.83107
-4.62829
-4.42092
-4.20911
-3.99301
-3.7728
-3.54864
-3.32073
-3.08925
-2.85439
-2.61637
-2.3754
-2.13169
-1.88547
-1.63695
-1.38637
-1.13393
-0.879872
-0.624435
-0.367843
-0.110319
0.147908
0.406625
0.665608
0.924646
1.18352
1.44204
1.69998
1.95716
2.21338
2.46846
2.72221
2.97447
3.22508
3.47386
3.72063
3.96522
4.20749
4.44732
4.68458
4.91917
5.151
5.37997
5.606
5.82904
6.04898
6.26572
6.47919
6.68933
6.89606
7.09933
7.29908
7.49525
7.68777
7.87655
8.06148
8.24245
8.41936
8.59181
8.76027
8.92094
9.08682
9.20036
-7.45166
-7.45558
-7.46273
-7.47019
-7.47767
-7.48513
-7.49246
-7.49958
-7.50636
-7.51267
-7.51838
-7.52336
-7.52751
-7.53075
-7.53298
-7.53416
-7.53425
-7.53321
-7.53103
-7.5277
-7.5232
-7.51758
-7.51101
-7.50378
-7.49615
-7.48842
-7.48084
-7.47348
-7.4664
-7.45971
-7.45353
-7.44825
-7.44448
-7.44298
-7.44432
-7.4489
-7.45692
-7.46842
-7.48326
-7.50123
-7.5221
-7.54558
-7.5714
-7.59932
-7.62912
-7.66061
-7.69358
-7.72789
-7.76337
-7.79991
-7.83736
-7.87561
-7.91455
-7.95407
-7.99408
-8.03445
-8.07509
-8.11585
-8.15661
-8.19721
-8.23748
-8.27726
-8.31633
-8.35451
-8.39156
-8.42727
-8.46138
-8.49366
-8.52383
-8.55166
-8.57691
-8.59935
-8.61877
-8.63499
-8.64782
-8.65711
-8.66275
-8.66463
-8.66266
-8.65675
-8.64683
-8.63282
-8.61464
-8.59222
-8.56551
-8.53444
-8.49895
-8.45899
-8.41445
-8.36525
-8.31128
-8.25246
-8.1887
-8.11991
-8.04599
-7.96687
-7.88246
-7.79269
-7.69749
-7.59683
-7.49064
-7.37892
-7.26161
-7.13872
-7.01021
-6.8761
-6.7364
-6.59111
-6.44028
-6.28393
-6.12211
-5.95487
-5.78228
-5.60442
-5.42135
-5.2332
-5.04005
-4.84203
-4.63927
-4.43193
-4.22015
-4.00408
-3.78389
-3.55976
-3.33187
-3.1004
-2.86556
-2.62756
-2.38662
-2.14294
-1.89675
-1.64829
-1.39775
-1.14535
-0.891348
-0.635968
-0.379437
-0.121979
0.13618
0.394826
0.653736
0.912699
1.1715
1.42994
1.6878
1.9449
2.20104
2.45604
2.70972
2.96191
3.21246
3.4612
3.7079
3.9524
4.19458
4.43432
4.67149
4.90599
5.13773
5.36663
5.5926
5.8156
6.03549
6.25218
6.46558
6.67565
6.88232
7.08553
7.28523
7.48135
7.67382
7.86251
8.04733
8.22812
8.40475
8.57678
8.74465
8.90431
9.06955
9.17903
-7.44206
-7.44663
-7.45348
-7.46092
-7.46859
-7.47623
-7.48374
-7.49106
-7.49809
-7.5047
-7.51074
-7.51606
-7.52054
-7.52408
-7.5266
-7.52805
-7.52838
-7.52758
-7.52565
-7.52259
-7.51847
-7.51343
-7.50766
-7.50135
-7.49464
-7.4877
-7.48067
-7.47369
-7.46688
-7.46053
-7.45505
-7.45088
-7.44846
-7.44832
-7.45095
-7.45668
-7.46569
-7.47801
-7.49354
-7.51208
-7.53341
-7.55725
-7.58336
-7.61152
-7.64152
-7.67317
-7.70629
-7.74071
-7.7763
-7.8129
-7.85039
-7.88865
-7.92758
-7.96708
-8.00705
-8.04738
-8.08795
-8.12867
-8.16939
-8.20998
-8.25027
-8.29007
-8.32919
-8.36742
-8.40455
-8.44033
-8.47451
-8.50684
-8.53705
-8.56488
-8.59007
-8.6124
-8.63166
-8.64763
-8.66017
-8.66913
-8.67442
-8.67592
-8.67357
-8.6673
-8.65704
-8.6427
-8.62423
-8.60154
-8.57458
-8.5433
-8.50766
-8.46759
-8.42299
-8.37374
-8.31976
-8.26094
-8.1972
-8.12842
-8.05454
-7.97544
-7.89105
-7.80129
-7.7061
-7.60543
-7.49925
-7.38752
-7.27021
-7.1473
-7.01878
-6.88465
-6.74492
-6.59961
-6.44876
-6.29239
-6.13055
-5.9633
-5.79069
-5.6128
-5.42971
-5.24153
-5.04835
-4.8503
-4.64751
-4.44014
-4.22834
-4.01225
-3.79204
-3.56789
-3.33998
-3.10849
-2.87362
-2.63561
-2.39466
-2.15099
-1.90482
-1.65638
-1.40586
-1.1535
-0.899537
-0.64421
-0.387735
-0.130345
0.127747
0.386316
0.64515
0.90403
1.16275
1.4211
1.67888
1.93589
2.19194
2.44685
2.70043
2.95253
3.20301
3.45168
3.69829
3.94268
4.18473
4.42433
4.66138
4.89577
5.1274
5.35619
5.58209
5.80502
6.02486
6.24147
6.45479
6.66477
6.87135
7.07448
7.27411
7.47016
7.66257
7.85118
8.03585
8.21644
8.39278
8.56437
8.73165
8.89036
9.05498
9.16112
-7.42452
-7.42908
-7.43609
-7.4443
-7.45266
-7.46078
-7.46865
-7.47632
-7.48376
-7.49084
-7.49737
-7.50317
-7.50808
-7.51202
-7.51493
-7.51675
-7.51746
-7.51707
-7.51558
-7.51305
-7.50954
-7.50515
-7.50003
-7.4943
-7.4881
-7.48156
-7.47482
-7.4681
-7.46171
-7.456
-7.45128
-7.44797
-7.44655
-7.4475
-7.45119
-7.4579
-7.46778
-7.48081
-7.49691
-7.51589
-7.53753
-7.56162
-7.58793
-7.61626
-7.64643
-7.67825
-7.71155
-7.74616
-7.78193
-7.81873
-7.85643
-7.89494
-7.93415
-7.97395
-8.01423
-8.05487
-8.09578
-8.13684
-8.17792
-8.21887
-8.25955
-8.29976
-8.3393
-8.37796
-8.4155
-8.45167
-8.4862
-8.51882
-8.54926
-8.57722
-8.60245
-8.6247
-8.64379
-8.6595
-8.67168
-8.68021
-8.68501
-8.68603
-8.68321
-8.6765
-8.66583
-8.65113
-8.63231
-8.60928
-8.582
-8.55044
-8.5146
-8.47441
-8.42972
-8.38043
-8.3264
-8.26755
-8.20377
-8.13499
-8.06109
-7.98198
-7.89756
-7.80777
-7.71254
-7.61183
-7.5056
-7.39382
-7.27646
-7.15349
-7.02491
-6.89072
-6.75093
-6.60556
-6.45466
-6.29824
-6.13636
-5.96905
-5.7964
-5.61846
-5.43532
-5.24709
-5.05385
-4.85573
-4.6529
-4.4455
-4.23367
-4.01757
-3.79734
-3.57317
-3.34524
-3.11373
-2.87883
-2.64077
-2.39981
-2.15616
-1.91002
-1.6616
-1.41112
-1.1588
-0.90489
-0.649623
-0.393217
-0.135901
0.122111
0.380596
0.63934
0.898127
1.15675
1.415
1.67268
1.92958
2.18552
2.44031
2.69377
2.94576
3.19619
3.44481
3.6913
3.93554
4.17743
4.41688
4.65378
4.88802
5.11953
5.3482
5.57399
5.79687
6.01665
6.23315
6.44636
6.65623
6.86271
7.06576
7.2653
7.46129
7.65363
7.84214
8.02666
8.20703
8.38306
8.5542
8.7209
8.87874
9.0427
9.14624
-7.39863
-7.40303
-7.41096
-7.42057
-7.42993
-7.43861
-7.44691
-7.45509
-7.46323
-7.47108
-7.47835
-7.48479
-7.49026
-7.49469
-7.49808
-7.50041
-7.50164
-7.50179
-7.50085
-7.49887
-7.49591
-7.49204
-7.48738
-7.48202
-7.47608
-7.46976
-7.46327
-7.4569
-7.45092
-7.44566
-7.44152
-7.43897
-7.43844
-7.44034
-7.44498
-7.45258
-7.46323
-7.47689
-7.49347
-7.51281
-7.53471
-7.559
-7.5855
-7.61402
-7.64441
-7.67648
-7.71007
-7.74498
-7.78109
-7.81824
-7.85634
-7.89527
-7.93492
-7.9752
-8.01599
-8.05719
-8.0987
-8.1404
-8.18214
-8.22378
-8.26514
-8.30606
-8.34632
-8.38568
-8.4239
-8.46069
-8.49579
-8.52886
-8.55959
-8.58765
-8.61278
-8.63481
-8.65354
-8.66881
-8.68042
-8.6883
-8.69246
-8.69288
-8.68953
-8.68237
-8.67132
-8.65628
-8.63714
-8.61378
-8.58612
-8.55418
-8.5181
-8.47781
-8.4331
-8.38376
-8.3297
-8.27081
-8.20701
-8.13822
-8.06432
-7.98521
-7.90077
-7.81093
-7.71564
-7.61489
-7.50861
-7.39679
-7.27938
-7.15637
-7.02772
-6.89347
-6.75361
-6.6082
-6.45725
-6.30081
-6.13889
-5.97156
-5.79887
-5.6209
-5.43774
-5.24947
-5.05619
-4.85803
-4.65517
-4.44778
-4.23596
-4.01986
-3.79964
-3.57549
-3.34758
-3.1161
-2.88121
-2.64315
-2.40222
-2.15861
-1.91253
-1.66417
-1.41375
-1.16151
-0.907704
-0.652537
-0.396245
-0.139041
0.118847
0.377207
0.635818
0.894473
1.15296
1.41107
1.6686
1.92535
2.18114
2.43577
2.68908
2.94093
3.19135
3.44
3.68637
3.93043
4.17214
4.41142
4.64815
4.88224
5.1136
5.34215
5.56784
5.79071
6.01045
6.22684
6.43992
6.64967
6.85604
7.05899
7.25845
7.45438
7.64667
7.83508
8.01944
8.19957
8.37528
8.54599
8.71214
8.86915
9.03242
9.13404
-7.36561
-7.37031
-7.37977
-7.39117
-7.40164
-7.41104
-7.42011
-7.42901
-7.43784
-7.4466
-7.45494
-7.46238
-7.46856
-7.47348
-7.47736
-7.48023
-7.48203
-7.48273
-7.48232
-7.48083
-7.47829
-7.47477
-7.47035
-7.46516
-7.45938
-7.4532
-7.44686
-7.44064
-7.43489
-7.43003
-7.42644
-7.42458
-7.42484
-7.42757
-7.43302
-7.44135
-7.45261
-7.46676
-7.48373
-7.50338
-7.52556
-7.55008
-7.5768
-7.60554
-7.63617
-7.6685
-7.70236
-7.7376
-7.77407
-7.81165
-7.85022
-7.88968
-7.9299
-7.97078
-8.01224
-8.05417
-8.09646
-8.13898
-8.18159
-8.22413
-8.26639
-8.30818
-8.34928
-8.38943
-8.42837
-8.46578
-8.50135
-8.53473
-8.56555
-8.59345
-8.6182
-8.63969
-8.65783
-8.6724
-8.68312
-8.69001
-8.69333
-8.69314
-8.68936
-8.68193
-8.67072
-8.65557
-8.63629
-8.61275
-8.58474
-8.55234
-8.516
-8.47568
-8.43098
-8.38162
-8.32749
-8.26853
-8.2047
-8.13592
-8.06204
-7.98292
-7.89843
-7.80851
-7.71315
-7.61232
-7.50599
-7.39412
-7.27666
-7.15358
-7.02486
-6.89052
-6.75061
-6.60515
-6.45416
-6.2977
-6.13577
-5.96843
-5.79572
-5.61774
-5.43458
-5.24634
-5.05312
-4.85505
-4.65225
-4.44485
-4.23301
-4.01687
-3.79663
-3.57247
-3.34459
-3.11317
-2.87843
-2.64056
-2.3998
-2.15636
-1.91044
-1.66224
-1.41199
-1.15995
-0.906354
-0.651412
-0.395355
-0.138398
0.119234
0.377329
0.635667
0.894041
1.15224
1.41005
1.66728
1.92372
2.17919
2.4335
2.68647
2.938
3.18826
3.43682
3.683
3.92682
4.16831
4.40738
4.64392
4.87784
5.10905
5.33745
5.56308
5.78603
6.00582
6.2221
6.43504
6.64468
6.85096
7.05382
7.25321
7.44913
7.64142
7.82974
8.01393
8.19382
8.36922
8.5395
8.70511
8.86136
9.02389
9.12425
-7.32843
-7.33403
-7.34553
-7.35913
-7.37075
-7.38045
-7.38992
-7.39988
-7.40999
-7.41989
-7.4293
-7.43777
-7.44475
-7.45021
-7.45456
-7.45796
-7.46029
-7.4615
-7.46153
-7.46039
-7.45811
-7.45476
-7.45043
-7.44527
-7.43944
-7.43318
-7.42679
-7.42062
-7.41504
-7.41048
-7.40734
-7.40602
-7.40688
-7.4102
-7.41619
-7.42498
-7.43661
-7.45106
-7.46826
-7.48809
-7.51042
-7.53509
-7.56196
-7.59089
-7.62172
-7.65425
-7.68835
-7.72386
-7.76069
-7.79868
-7.83774
-7.87774
-7.91858
-7.96017
-8.00238
-8.04513
-8.08826
-8.13163
-8.17507
-8.21842
-8.26145
-8.30396
-8.34569
-8.3864
-8.42578
-8.46352
-8.49926
-8.53265
-8.56321
-8.59044
-8.61424
-8.63478
-8.65206
-8.66574
-8.67512
-8.6804
-8.68251
-8.68163
-8.67758
-8.67016
-8.65915
-8.64424
-8.62521
-8.60199
-8.57462
-8.54313
-8.50744
-8.46739
-8.42278
-8.37341
-8.31924
-8.26023
-8.19637
-8.12754
-8.0536
-7.97439
-7.88978
-7.79971
-7.70418
-7.60319
-7.4967
-7.38467
-7.26706
-7.14381
-7.01491
-6.88041
-6.74035
-6.59475
-6.44365
-6.28709
-6.12508
-5.95765
-5.78488
-5.60685
-5.42366
-5.23543
-5.04226
-4.84425
-4.64148
-4.43407
-4.22218
-4.00601
-3.78573
-3.56156
-3.33369
-3.10235
-2.86776
-2.63012
-2.38955
-2.1463
-1.90056
-1.65256
-1.40255
-1.15077
-0.897446
-0.642799
-0.387049
-0.130423
0.126867
0.384598
0.642563
0.900543
1.15833
1.41572
1.67251
1.92849
2.18348
2.43727
2.68967
2.94051
3.18965
3.437
3.68242
3.92575
4.16683
4.40553
4.64173
4.87532
5.1062
5.3343
5.55969
5.78259
6.00236
6.21847
6.43128
6.6408
6.84699
7.04979
7.24914
7.44513
7.63753
7.82582
8.00985
8.18952
8.36463
8.53451
8.69962
8.85516
9.0169
9.11665
-7.2907
-7.29753
-7.31153
-7.32707
-7.33901
-7.34916
-7.35973
-7.37083
-7.38203
-7.39299
-7.40344
-7.41287
-7.42064
-7.42674
-7.43167
-7.43565
-7.43851
-7.44015
-7.44052
-7.43961
-7.43744
-7.43406
-7.42958
-7.42419
-7.41808
-7.41155
-7.40492
-7.39857
-7.39291
-7.38836
-7.3853
-7.38411
-7.38509
-7.38854
-7.39461
-7.40343
-7.41504
-7.42944
-7.44657
-7.46632
-7.4886
-7.51329
-7.54024
-7.5693
-7.60029
-7.63303
-7.66738
-7.70321
-7.74041
-7.77885
-7.8184
-7.85893
-7.90034
-7.9425
-7.98532
-8.02867
-8.0724
-8.11634
-8.16032
-8.20415
-8.24762
-8.29049
-8.33251
-8.37341
-8.41289
-8.45065
-8.48633
-8.51948
-8.54941
-8.57517
-8.59684
-8.61543
-8.63146
-8.64478
-8.65478
-8.66102
-8.66348
-8.66242
-8.65812
-8.65052
-8.63939
-8.62442
-8.60536
-8.58228
-8.5555
-8.5249
-8.48982
-8.44999
-8.40546
-8.35618
-8.30209
-8.24319
-8.1794
-8.1106
-8.03666
-7.95744
-7.87279
-7.78269
-7.68712
-7.58609
-7.47953
-7.36742
-7.24972
-7.12638
-6.9974
-6.86283
-6.72272
-6.57708
-6.42595
-6.26936
-6.10735
-5.93993
-5.76718
-5.58918
-5.40604
-5.21784