/*--------------------------------*- C++ -*----------------------------------*\
| =========                 |                                                 |
| \\      /  F ield         | OpenFOAM: The Open Source CFD Toolbox           |
|  \\    /   O peration     | Version:  v2012                                 |
|   \\  /    A nd           | Website:  www.openfoam.com                      |
|    \\/     M anipulation  |                                                 |
\*---------------------------------------------------------------------------*/
FoamFile
{
    version     2.0;
    format      ascii;
    class       volScalarField;
    location    "1800";
    object      p;
}
// * * * * * * * * * * * * * * * * * * * * * * * * * * * * * * * * * * * * * //

dimensions      [0 2 -2 0 0 0 0];


internalField   nonuniform List<scalar> 
12225
(
-4.41159
-5.2903
-5.67702
-5.79195
-5.91047
-6.05505
-6.18577
-6.29341
-6.38566
-6.47036
-6.55259
-6.63303
-6.71226
-6.79218
-6.87536
-6.9662
-7.06775
-7.191
-4.69306
-5.34422
-5.6688
-5.77922
-5.8944
-6.03474
-6.16334
-6.27081
-6.3647
-6.45205
-6.53575
-6.61667
-6.69579
-6.77498
-6.85642
-6.94321
-7.03371
-7.12469
-4.90611
-5.34129
-5.64375
-5.77816
-5.89885
-6.03562
-6.16131
-6.26722
-6.36053
-6.4475
-6.52997
-6.60918
-6.68627
-6.76282
-6.84011
-6.91916
-6.99526
-7.05796
-5.05356
-5.36619
-5.65255
-5.79731
-5.91273
-6.03951
-6.15906
-6.26186
-6.35329
-6.43854
-6.51946
-6.59711
-6.67246
-6.74647
-6.81962
-6.89141
-6.95685
-7.00774
-5.17862
-5.41336
-5.66917
-5.81402
-5.92501
-6.04438
-6.15918
-6.25957
-6.3493
-6.43292
-6.51229
-6.58815
-6.66123
-6.73203
-6.80054
-6.86555
-6.92305
-6.96723
-5.29298
-5.4662
-5.68516
-5.82767
-5.93685
-6.05026
-6.16022
-6.25787
-6.34564
-6.42745
-6.50496
-6.57867
-6.64911
-6.71649
-6.78049
-6.8397
-6.89114
-6.93076
-5.39729
-5.52225
-5.70527
-5.84226
-5.94911
-6.0563
-6.16081
-6.25528
-6.34084
-6.42063
-6.49604
-6.56745
-6.63515
-6.69917
-6.75901
-6.81341
-6.86027
-6.89706
-5.47773
-5.57228
-5.72749
-5.85657
-5.96013
-6.06182
-6.16137
-6.25273
-6.33607
-6.41385
-6.48723
-6.55649
-6.62176
-6.68298
-6.73961
-6.79063
-6.83458
-6.8698
-5.54313
-5.61743
-5.74992
-5.87049
-5.9705
-6.06724
-6.1622
-6.25051
-6.33165
-6.40741
-6.47879
-6.54601
-6.60908
-6.66786
-6.72188
-6.77031
-6.81216
-6.84636
-5.60826
-5.66613
-5.77675
-5.88705
-5.98247
-6.07384
-6.1637
-6.24839
-6.32683
-6.40018
-6.46921
-6.53408
-6.59472
-6.65094
-6.70235
-6.74835
-6.78834
-6.82171
-5.67226
-5.71708
-5.80777
-5.90647
-5.99608
-6.0817
-6.166
-6.24649
-6.32173
-6.39224
-6.45856
-6.52078
-6.57878
-6.63235
-6.68121
-6.72496
-6.76332
-6.79596
-5.7341
-5.7688
-5.84221
-5.92859
-6.01124
-6.09075
-6.16916
-6.2449
-6.31642
-6.38367
-6.44694
-6.50626
-6.56145
-6.61234
-6.65874
-6.70042
-6.73731
-6.76928
-5.79264
-5.81967
-5.87868
-5.95285
-6.02764
-6.10073
-6.17305
-6.2436
-6.31093
-6.37456
-6.43449
-6.49068
-6.54298
-6.59121
-6.63525
-6.67502
-6.71056
-6.74187
-5.84649
-5.86777
-5.91523
-5.9781
-6.04464
-6.11109
-6.17729
-6.24243
-6.30522
-6.36492
-6.42132
-6.47428
-6.52364
-6.56927
-6.61109
-6.64909
-6.68338
-6.71401
-5.89384
-5.91088
-5.94942
-6.00249
-6.06104
-6.12093
-6.18118
-6.24094
-6.29907
-6.35474
-6.40754
-6.45727
-6.50377
-6.5469
-6.58665
-6.62302
-6.65614
-6.68609
-5.93224
-5.94624
-5.97821
-6.02346
-6.07498
-6.12884
-6.18362
-6.23838
-6.29206
-6.34383
-6.39318
-6.43984
-6.48365
-6.5245
-6.56235
-6.59724
-6.62929
-6.65857
-5.95824
-5.97022
-5.99782
-6.03756
-6.08371
-6.1327
-6.18298
-6.23354
-6.28341
-6.33176
-6.37808
-6.42206
-6.46354
-6.50241
-6.53864
-6.57227
-6.60339
-6.63209
-5.96611
-5.97726
-6.00304
-6.04029
-6.0837
-6.12992
-6.17748
-6.22541
-6.27279
-6.31884
-6.36306
-6.40517
-6.445
-6.48247
-6.51755
-6.55029
-6.58076
-6.60906
-5.95541
-5.96695
-5.99353
-6.03146
-6.07498
-6.1208
-6.16767
-6.2148
-6.26129
-6.30638
-6.34964
-6.39084
-6.42984
-6.46658
-6.50106
-6.53332
-6.56345
-6.59156
-5.93089
-5.94393
-5.97367
-6.01493
-6.06076
-6.1079
-6.15562
-6.20333
-6.25011
-6.29524
-6.33837
-6.37936
-6.41812
-6.45462
-6.48888
-6.52097
-6.55099
-6.57907
-5.89558
-5.91146
-5.94693
-5.99393
-6.04357
-6.0931
-6.14271
-6.19194
-6.23977
-6.28554
-6.32907
-6.37029
-6.40917
-6.4457
-6.47995
-6.51203
-6.54206
-6.57018
-5.85117
-5.87171
-5.91612
-5.97106
-6.0253
-6.07775
-6.12994
-6.18132
-6.23063
-6.27737
-6.32159
-6.3633
-6.40249
-6.4392
-6.47354
-6.50568
-6.53575
-6.56395
-5.79835
-5.82641
-5.88381
-5.94838
-6.00725
-6.06283
-6.1181
-6.17193
-6.22286
-6.27072
-6.31579
-6.35813
-6.39772
-6.43466
-6.46912
-6.50131
-6.53141
-6.55965
-5.73702
-5.77723
-5.85266
-5.92747
-5.99007
-6.04888
-6.10765
-6.16403
-6.2165
-6.26547
-6.31145
-6.35445
-6.39446
-6.43161
-6.46615
-6.49835
-6.52844
-6.55671
-5.66651
-5.72581
-5.8254
-5.90962
-5.97416
-6.03609
-6.09858
-6.15739
-6.21126
-6.26133
-6.30823
-6.3519
-6.39228
-6.42957
-6.46409
-6.49618
-6.52613
-6.55432
-5.58564
-5.67357
-5.80324
-5.89513
-5.96006
-6.0248
-6.09055
-6.15122
-6.2062
-6.25732
-6.30521
-6.34963
-6.39047
-6.42799
-6.46255
-6.49455
-6.52442
-6.55272
-5.49285
-5.62421
-5.78358
-5.87944
-5.94576
-6.01481
-6.0838
-6.14581
-6.20154
-6.25349
-6.30214
-6.34707
-6.38815
-6.42566
-6.45998
-6.49163
-6.5211
-6.54916
-5.38027
-5.59172
-5.7708
-5.85822
-5.92541
-6.00159
-6.07582
-6.14063
-6.19856
-6.25267
-6.30319
-6.3495
-6.39151
-6.42948
-6.46391
-6.49541
-6.52479
-6.55365
-5.2099
-5.58384
-5.79441
-5.86203
-5.9205
-5.99722
-6.07179
-6.13578
-6.19339
-6.24793
-6.29912
-6.34598
-6.38832
-6.42629
-6.46015
-6.49053
-6.51865
-6.54572
-4.95315
-5.51009
-5.78587
-5.86119
-5.92389
-6.00658
-6.08485
-6.15038
-6.20907
-6.26474
-6.31692
-6.36447
-6.4071
-6.44482
-6.47716
-6.50464
-6.52894
-6.54935
-7.5522
-7.55235
-7.55246
-7.55258
-7.55257
-7.55155
-7.54849
-7.54357
-7.5383
-7.5341
-7.5326
-7.53471
-7.54014
-7.54795
-7.55707
-7.56648
-7.5753
-7.5828
-7.5884
-7.59179
-7.59324
-7.59328
-7.5922
-7.59027
-7.58788
-7.5855
-7.58356
-7.5823
-7.58174
-7.58163
-7.58161
-7.58138
-7.5809
-7.58025
-7.57959
-7.57897
-7.57836
-7.57745
-7.57588
-7.57356
-7.57096
-7.56883
-7.56812
-7.56929
-7.57177
-7.57452
-7.57673
-7.57822
-7.5793
-7.58044
-7.5819
-7.58403
-7.58855
-7.59504
-7.59968
-7.59917
-7.59436
-7.59033
-7.59488
-7.61392
-7.65043
-7.70439
-7.77346
-7.85406
-7.94195
-8.03267
-8.12219
-8.20749
-8.2867
-8.35868
-8.42292
-8.47931
-8.52799
-8.56928
-8.60352
-8.63106
-8.65223
-8.66732
-8.67655
-8.68013
-8.67819
-8.67084
-8.65817
-8.64022
-8.61701
-8.58858
-8.55491
-8.51599
-8.4718
-8.42231
-8.3675
-8.30731
-8.24172
-8.17068
-8.09417
-8.01215
-7.92459
-7.83155
-7.73312
-7.62934
-7.51988
-7.40444
-7.28312
-7.15605
-7.0233
-6.8849
-6.74087
-6.59126
-6.4361
-6.27544
-6.10936
-5.93791
-5.76119
-5.57928
-5.39229
-5.20032
-5.0035
-4.80195
-4.59582
-4.38525
-4.1704
-3.95144
-3.72854
-3.50187
-3.27164
-3.03804
-2.80128
-2.56158
-2.31924
-2.07447
-1.82727
-1.57774
-1.32618
-1.0729
-0.818137
-0.562097
-0.305011
-0.0471071
0.211395
0.470278
0.729325
0.988325
1.24707
1.50537
1.76302
2.01983
2.27562
2.53023
2.78347
3.03518
3.2852
3.53337
3.77953
4.02354
4.26527
4.50459
4.7414
4.97561
5.20712
5.43585
5.66173
5.88467
6.10461
6.32146
6.53514
6.74559
6.95273
7.1565
7.35683
7.55366
7.74691
7.93649
8.12232
8.30431
8.48239
8.6565
8.82674
8.99307
9.15849
9.31371
-7.55381
-7.55409
-7.55471
-7.55558
-7.55606
-7.55547
-7.55313
-7.54933
-7.54575
-7.5442
-7.54547
-7.54961
-7.5562
-7.56442
-7.57336
-7.58223
-7.5904
-7.59739
-7.60293
-7.60682
-7.60876
-7.60856
-7.60644
-7.60284
-7.59836
-7.59367
-7.58942
-7.58611
-7.5839
-7.58257
-7.58161
-7.58064
-7.57971
-7.57918
-7.57911
-7.57919
-7.57913
-7.57862
-7.57735
-7.57533
-7.57314
-7.57174
-7.57189
-7.57365
-7.57619
-7.57846
-7.57987
-7.58009
-7.57962
-7.58
-7.58007
-7.57803
-7.576
-7.57895
-7.58981
-7.59984
-7.60142
-7.60076
-7.60934
-7.63397
-7.67754
-7.7391
-7.81526
-7.90097
-7.99094
-8.08072
-8.16697
-8.24756
-8.32128
-8.3876
-8.44644
-8.49795
-8.5424
-8.58012
-8.61142
-8.6366
-8.65591
-8.66955
-8.6777
-8.68049
-8.67799
-8.67029
-8.65741
-8.63939
-8.61624
-8.58794
-8.5545
-8.51588
-8.47207
-8.42302
-8.36871
-8.30909
-8.24412
-8.17376
-8.09795
-8.01666
-7.92982
-7.83738
-7.73922
-7.63526
-7.52563
-7.41052
-7.28989
-7.16361
-7.03169
-6.89412
-6.75093
-6.60216
-6.44784
-6.28803
-6.12278
-5.95217
-5.77627
-5.59518
-5.40899
-5.21781
-5.02177
-4.82098
-4.6156
-4.40576
-4.19162
-3.97334
-3.75109
-3.52505
-3.2954
-3.06232
-2.826
-2.58662
-2.34437
-2.09946
-1.85225
-1.603
-1.3518
-1.09886
-0.844414
-0.588661
-0.331832
-0.0741561
0.184147
0.44286
0.701767
0.960655
1.21932
1.47756
1.73518
1.99198
2.2478
2.50244
2.75575
3.00755
3.25769
3.50599
3.75231
3.9965
4.23843
4.47796
4.715
4.94944
5.18119
5.41017
5.63631
5.85952
6.07973
6.29686
6.51083
6.72157
6.92902
7.13309
7.33374
7.5309
7.72449
7.91445
8.10069
8.28319
8.4619
8.63676
8.80801
8.975
9.14243
9.29706
-7.55543
-7.55548
-7.55566
-7.55596
-7.55631
-7.55639
-7.55629
-7.55668
-7.55844
-7.56209
-7.56761
-7.57465
-7.58272
-7.59127
-7.59973
-7.60762
-7.61456
-7.62028
-7.62461
-7.62745
-7.62873
-7.62836
-7.62646
-7.6232
-7.61879
-7.61347
-7.60756
-7.60141
-7.59541
-7.58992
-7.58524
-7.58162
-7.57923
-7.578
-7.57751
-7.57719
-7.57663
-7.57566
-7.57429
-7.57283
-7.5721
-7.57292
-7.5755
-7.57903
-7.5821
-7.58359
-7.58298
-7.57939
-7.57382
-7.56923
-7.56937
-7.57327
-7.57616
-7.58191
-7.59629
-7.61734
-7.64123
-7.66832
-7.70252
-7.74642
-7.80022
-7.86267
-7.93161
-8.00446
-8.07864
-8.15192
-8.22255
-8.28928
-8.35125
-8.40796
-8.45911
-8.50459
-8.54439
-8.57857
-8.60723
-8.63046
-8.64838
-8.66106
-8.66857
-8.67099
-8.66833
-8.66063
-8.6479
-8.63014
-8.60734
-8.57948
-8.54654
-8.50849
-8.46529
-8.41691
-8.36331
-8.30445
-8.24028
-8.17075
-8.09583
-8.01546
-7.92961
-7.83824
-7.74126
-7.63856
-7.53016
-7.41616
-7.2966
-7.17141
-7.0406
-6.90416
-6.76211
-6.61448
-6.46132
-6.30265
-6.13855
-5.96908
-5.79432
-5.61436
-5.42928
-5.23921
-5.04426
-4.84455
-4.64021
-4.43141
-4.21827
-4.00097
-3.77968
-3.55457
-3.32582
-3.09361
-2.85816
-2.61964
-2.37824
-2.13416
-1.8877
-1.63909
-1.38849
-1.13613
-0.882224
-0.626974
-0.370614
-0.113364
0.144554
0.402921
0.661521
0.920141
1.17858
1.43662
1.69408
1.95076
2.20649
2.46108
2.71436
2.96617
3.21633
3.4647
3.71111
3.95542
4.19748
4.43718
4.67439
4.90901
5.14095
5.37013
5.59646
5.81987
6.04028
6.25761
6.47178
6.68272
6.89035
7.09461
7.29543
7.49274
7.6865
7.87662
8.06304
8.24567
8.4245
8.59955
8.7713
8.93851
9.10853
9.25942
-7.55645
-7.55616
-7.55576
-7.55568
-7.55677
-7.55969
-7.56438
-7.57051
-7.57773
-7.58572
-7.59417
-7.60275
-7.61119
-7.61923
-7.62664
-7.63319
-7.63867
-7.64295
-7.64593
-7.64754
-7.64776
-7.64657
-7.64403
-7.64024
-7.63532
-7.62939
-7.62256
-7.615
-7.60691
-7.59857
-7.5904
-7.58286
-7.5764
-7.57125
-7.56733
-7.56438
-7.56205
-7.56028
-7.55951
-7.56062
-7.5642
-7.56965
-7.57549
-7.5801
-7.58163
-7.5798
-7.57592
-7.57184
-7.56929
-7.56899
-7.57366
-7.58508
-7.60157
-7.6222
-7.64824
-7.6799
-7.71621
-7.75608
-7.79966
-7.84754
-7.89989
-7.9564
-8.01624
-8.07823
-8.14101
-8.20322
-8.26367
-8.32138
-8.37558
-8.42572
-8.47144
-8.5125
-8.54875
-8.58014
-8.60663
-8.62822
-8.64491
-8.65672
-8.66364
-8.66569
-8.66287
-8.65516
-8.64255
-8.62501
-8.60253
-8.57508
-8.54261
-8.50509
-8.46248
-8.41474
-8.36183
-8.30369
-8.24028
-8.17154
-8.09743
-8.01789
-7.93288
-7.84235
-7.74625
-7.64453
-7.53719
-7.42427
-7.30576
-7.18164
-7.0519
-6.91654
-6.77559
-6.62906
-6.477
-6.31944
-6.15644
-5.98807
-5.81441
-5.63554
-5.45154
-5.26254
-5.06864
-4.86997
-4.66666
-4.45885
-4.2467
-4.03036
-3.80999
-3.58578
-3.3579
-3.12655
-2.89191
-2.65418
-2.41356
-2.17026
-1.92452
-1.67655
-1.42657
-1.17478
-0.921392
-0.666635
-0.410736
-0.153909
0.103627
0.361649
0.619942
0.878293
1.13649
1.39434
1.65164
1.90819
2.16383
2.41835
2.67159
2.92339
3.17358
3.42199
3.66848
3.91289
4.15507
4.39491
4.63228
4.86707
5.09919
5.32854
5.55506
5.77866
5.99926
6.21677
6.43113
6.64225
6.85005
7.05447
7.25544
7.45289
7.64676
7.83699
8.02353
8.20631
8.38535
8.56061
8.73265
8.89969
9.07042
9.21538
-7.5586
-7.55803
-7.55748
-7.55859
-7.56307
-7.5706
-7.57993
-7.59006
-7.60031
-7.61025
-7.61964
-7.62839
-7.63645
-7.64375
-7.65018
-7.65561
-7.65993
-7.66305
-7.6649
-7.66544
-7.66464
-7.6625
-7.65904
-7.65432
-7.64841
-7.64138
-7.63331
-7.62432
-7.6145
-7.604
-7.59298
-7.58177
-7.57087
-7.56086
-7.55226
-7.54551
-7.54094
-7.53907
-7.54065
-7.54601
-7.55381
-7.56147
-7.56716
-7.57052
-7.57163
-7.57127
-7.57081
-7.57181
-7.57654
-7.586
-7.60099
-7.62233
-7.64963
-7.68144
-7.71641
-7.75382
-7.79338
-7.83514
-7.87947
-7.9266
-7.97651
-8.02889
-8.08313
-8.13844
-8.19392
-8.24868
-8.3019
-8.35286
-8.40099
-8.4458
-8.48695
-8.52416
-8.55725
-8.58605
-8.61047
-8.63043
-8.64586
-8.65671
-8.66294
-8.66451
-8.66139
-8.65353
-8.6409
-8.62345
-8.60115
-8.57395
-8.54181
-8.50468
-8.46252
-8.41528
-8.36292
-8.30537
-8.24258
-8.17451
-8.10108
-8.02226
-7.938
-7.84823
-7.75293
-7.65204
-7.54558
-7.43354
-7.3159
-7.19266
-7.0638
-6.92934
-6.78928
-6.64366
-6.49249
-6.33583
-6.17374
-6.00627
-5.8335
-5.65551
-5.47239
-5.28426
-5.09121
-4.89338
-4.6909
-4.4839
-4.27254
-4.05697
-3.83736
-3.61387
-3.3867
-3.15602
-2.92204
-2.68493
-2.44492
-2.20221
-1.95702
-1.70958
-1.46008
-1.20875
-0.955798
-0.701443
-0.445919
-0.189436
0.0677847
0.325523
0.583561
0.841687
1.09969
1.35737
1.61453
1.87098
2.12652
2.38099
2.6342
2.88598
3.13618
3.38463
3.63117
3.87565
4.11793
4.35787
4.59536
4.83028
5.06255
5.29206
5.51873
5.74249
5.96326
6.18094
6.39546
6.60674
6.8147
7.01927
7.2204
7.418
7.61203
7.80241
7.98909
8.17202
8.35121
8.52652
8.69853
8.86494
9.03518
9.17356
-7.56318
-7.56211
-7.5623
-7.56703
-7.57603
-7.58705
-7.59871
-7.61022
-7.62108
-7.63114
-7.6404
-7.64887
-7.65651
-7.66324
-7.66898
-7.67363
-7.67713
-7.67939
-7.68038
-7.68006
-7.67842
-7.67545
-7.67117
-7.66561
-7.65882
-7.6508
-7.64156
-7.63119
-7.61979
-7.60744
-7.59426
-7.58045
-7.56648
-7.55303
-7.54103
-7.53168
-7.52614
-7.52532
-7.52917
-7.53554
-7.54222
-7.54813
-7.55291
-7.55692
-7.56085
-7.56581
-7.57269
-7.58271
-7.5975
-7.61769
-7.64288
-7.6724
-7.70536
-7.74121
-7.77928
-7.81914
-7.86051
-7.90339
-7.94789
-7.99401
-8.04165
-8.09055
-8.14032
-8.19044
-8.24033
-8.28942
-8.33711
-8.38289
-8.42628
-8.46689
-8.50436
-8.53843
-8.56885
-8.59544
-8.61804
-8.63652
-8.65076
-8.66069
-8.66621
-8.66726
-8.66377
-8.65567
-8.64292
-8.62544
-8.6032
-8.57613
-8.54419
-8.50732
-8.46547
-8.41859
-8.36663
-8.30952
-8.24721
-8.17964
-8.10676
-8.0285
-7.94481
-7.85565
-7.76098
-7.66075
-7.55496
-7.44359
-7.32663
-7.20406
-7.07588
-6.94209
-6.80272
-6.65777
-6.50728
-6.3513
-6.18988
-6.02309
-5.85098
-5.67365
-5.49119
-5.3037
-5.11129
-4.91409
-4.71222
-4.50582
-4.29504
-4.08004
-3.86098
-3.63803
-3.41138
-3.1812
-2.9477
-2.71106
-2.47149
-2.22921
-1.98444
-1.73738
-1.48825
-1.23726
-0.984624
-0.730574
-0.475333
-0.219112
0.0378666
0.295384
0.553222
0.81117
1.06902
1.32656
1.5836
1.83995
2.09542
2.34982
2.60299
2.85475
3.10494
3.3534
3.59997
3.84449
4.08681
4.32681
4.56437
4.79937
5.03173
5.26134
5.48812
5.71199
5.93287
6.15066
6.3653
6.57669
6.78478
6.98947
7.19071
7.38843
7.58257
7.77305
7.95982
8.14281
8.32199
8.49717
8.66889
8.83437
9.00387
9.13582
-7.56948
-7.5687
-7.57139
-7.58017
-7.59178
-7.60381
-7.61556
-7.62674
-7.63723
-7.64699
-7.65601
-7.6642
-7.6715
-7.67781
-7.68306
-7.68717
-7.69007
-7.69172
-7.69208
-7.69113
-7.68885
-7.68526
-7.68036
-7.67417
-7.66663
-7.65771
-7.6475
-7.63612
-7.62363
-7.61009
-7.59559
-7.58038
-7.56505
-7.55046
-7.53771
-7.52842
-7.52382
-7.52335
-7.52518
-7.5281
-7.53187
-7.53656
-7.5424
-7.54967
-7.55856
-7.57016
-7.58546
-7.60488
-7.62844
-7.65579
-7.68648
-7.72003
-7.75585
-7.79366
-7.83317
-7.87411
-7.91624
-7.9594
-8.0035
-8.04848
-8.09421
-8.1405
-8.18706
-8.23356
-8.27958
-8.32471
-8.36853
-8.41061
-8.45057
-8.48806
-8.52275
-8.55438
-8.58269
-8.60748
-8.62856
-8.64578
-8.65899
-8.66807
-8.67292
-8.67344
-8.66954
-8.66116
-8.6482
-8.63062
-8.60834
-8.58129
-8.54943
-8.5127
-8.47104
-8.42439
-8.37269
-8.31589
-8.25391
-8.1867
-8.1142
-8.03635
-7.95308
-7.86437
-7.77015
-7.6704
-7.56509
-7.4542
-7.33772
-7.21564
-7.08794
-6.95463
-6.81573
-6.67126
-6.52125
-6.36575
-6.2048
-6.03847
-5.86683
-5.68996
-5.50795
-5.3209
-5.12893
-4.93216
-4.73071
-4.52472
-4.31434
-4.09973
-3.88105
-3.65848
-3.43218
-3.20235
-2.96918
-2.73286
-2.49361
-2.25164
-2.00715
-1.76036
-1.51149
-1.26075
-1.00834
-0.754506
-0.499468
-0.243439
0.0133602
0.27071
0.528395
0.786202
1.04392
1.30135
1.55829
1.81455
2.06995
2.32429
2.5774
2.82913
3.0793
3.32775
3.5743
3.81882
4.06115
4.30116
4.53874
4.77377
5.00616
5.23581
5.46265
5.68658
5.90753
6.12539
6.34009
6.55155
6.75969
6.96445
7.16576
7.36354
7.55774
7.74826
7.93505
8.118
8.29707
8.47199
8.64326
8.80771
8.97652
9.10248
-7.57516
-7.57584
-7.58222
-7.59319
-7.60492
-7.61636
-7.62743
-7.63806
-7.64817
-7.65767
-7.66644
-7.6744
-7.68143
-7.68744
-7.69235
-7.6961
-7.69862
-7.69988
-7.69984
-7.6985
-7.69583
-7.69185
-7.68656
-7.67984
-7.67161
-7.66203
-7.65127
-7.63939
-7.6264
-7.61243
-7.59773
-7.58257
-7.56757
-7.55378
-7.54264
-7.5352
-7.53064
-7.52744
-7.52544
-7.52548
-7.52815
-7.53341
-7.54115
-7.55206
-7.56667
-7.58494
-7.60671
-7.6317
-7.65986
-7.69081
-7.72424
-7.75985
-7.7973
-7.83632
-7.87664
-7.91802
-7.96028
-8.00327
-8.04688
-8.09099
-8.13545
-8.18006
-8.2246
-8.26879
-8.31234
-8.3549
-8.39615
-8.43573
-8.47333
-8.50862
-8.54132
-8.57115
-8.59788
-8.62129
-8.64117
-8.65737
-8.6697
-8.67805
-8.68229
-8.68231
-8.67801
-8.6693
-8.6561
-8.63834
-8.61594
-8.58883
-8.55696
-8.52026
-8.47867
-8.43213
-8.38059
-8.32396
-8.2622
-8.19521
-8.12296
-8.04537
-7.96239
-7.87397
-7.78006
-7.68062
-7.57562
-7.46504
-7.34887
-7.22709
-7.0997
-6.9667
-6.82811
-6.68394
-6.53423
-6.37902
-6.21837
-6.05234
-5.88099
-5.7044
-5.52268
-5.33591
-5.14421
-4.9477
-4.74652
-4.54079
-4.33067
-4.1163
-3.89786
-3.67552
-3.44945
-3.21984
-2.98688
-2.75078
-2.51173
-2.26996
-2.02566
-1.77906
-1.53036
-1.27978
-1.02752
-0.773843
-0.518947
-0.263055
-0.00638723
0.250838
0.508405
0.766101
1.02372
1.28105
1.53791
1.79409
2.0494
2.30368
2.55674
2.80842
3.05856
3.30697
3.55349
3.79797
4.04027
4.28025
4.51781
4.75283
4.98521
5.21487
5.44173
5.66569
5.88666
6.10454
6.31926
6.53074
6.73891
6.94369
7.14502
7.34283
7.53704
7.72757
7.91432
8.09719
8.27609
8.45069
8.62144
8.78486
8.95305
9.0736
-7.57844
-7.58129
-7.59038
-7.60142
-7.61229
-7.62299
-7.63351
-7.64375
-7.65358
-7.66286
-7.67148
-7.67928
-7.68617
-7.69203
-7.69679
-7.70037
-7.70272
-7.70381
-7.70361
-7.70209
-7.69927
-7.69513
-7.68957
-7.68243
-7.6739
-7.66419
-7.65342
-7.64163
-7.62886
-7.61528
-7.60123
-7.58726
-7.57416
-7.56275
-7.55356
-7.54613
-7.53937
-7.53348
-7.52959
-7.5285
-7.531
-7.53763
-7.54837
-7.56304
-7.58133
-7.60296
-7.62779
-7.65552
-7.68595
-7.71876
-7.75368
-7.79045
-7.8288
-7.86848
-7.90925
-7.95091
-7.99331
-8.03628
-8.07969
-8.12337
-8.16714
-8.21084
-8.25426
-8.29714
-8.33925
-8.38029
-8.41997
-8.45801
-8.49411
-8.52799
-8.55937
-8.58798
-8.6136
-8.636
-8.65499
-8.67038
-8.68202
-8.68976
-8.69345
-8.693
-8.6883
-8.67926
-8.66578
-8.64779
-8.62521
-8.59796
-8.56599
-8.52923
-8.48763
-8.44112
-8.38963
-8.33309
-8.27142
-8.20456
-8.13243
-8.05499
-7.97216
-7.8839
-7.79015
-7.69087
-7.58604
-7.47563
-7.35962
-7.23801
-7.11077
-6.97793
-6.83949
-6.69548
-6.54592
-6.39087
-6.23038
-6.06449
-5.89329
-5.71686
-5.53528
-5.34866
-5.1571
-4.96074
-4.75969
-4.5541
-4.34411
-4.12988
-3.91157
-3.68935
-3.4634
-3.23392
-3.00108
-2.7651
-2.52618
-2.28452
-2.04034
-1.79385
-1.54527
-1.29478
-1.04264
-0.789059
-0.534264
-0.278473
-0.0219041
0.235224
0.492696
0.7503
1.00783
1.26507
1.52184
1.77794
2.03318
2.28738
2.54037
2.79199
3.04208
3.29044
3.5369
3.78132
4.02355
4.26347
4.50097
4.73595
4.96829
5.19793
5.42477
5.64873
5.86968
6.08755
6.30226
6.51372
6.72187
6.92664
7.12797
7.32579
7.51999
7.71049
7.89717
8.07991
8.25861
8.43283
8.60305
8.76548
8.9331
9.04893
-7.57798
-7.58283
-7.59246
-7.60264
-7.61282
-7.62305
-7.63324
-7.64326
-7.65296
-7.66219
-7.6708
-7.67862
-7.68555
-7.69148
-7.69632
-7.69999
-7.70244
-7.70361
-7.70349
-7.70205
-7.69927
-7.69509
-7.6894
-7.68229
-7.67397
-7.66456
-7.65415
-7.64282
-7.63073
-7.61823
-7.6057
-7.59375
-7.58282
-7.57279
-7.56346
-7.55471
-7.54655
-7.53981
-7.53576
-7.53532
-7.53907
-7.54711
-7.55917
-7.57511
-7.5947
-7.6177
-7.64388
-7.67289
-7.70443
-7.7382
-7.77393
-7.81138
-7.8503
-7.89046
-7.93167
-7.97372
-8.01645
-8.05966
-8.10319
-8.14686
-8.19051
-8.23395
-8.27696
-8.31932
-8.36078
-8.40111
-8.44004
-8.4773
-8.51262
-8.54571
-8.57631
-8.60417
-8.62905
-8.65075
-8.66908
-8.68385
-8.69491
-8.70211
-8.70534
-8.70447
-8.6994
-8.69003
-8.67627
-8.65803
-8.63523
-8.60779
-8.57566
-8.53878
-8.49711
-8.45055
-8.39904
-8.34249
-8.28083
-8.21399
-8.1419
-8.06449
-7.9817
-7.89348
-7.79978
-7.70054
-7.59576
-7.48539
-7.36943
-7.24785
-7.12066
-6.98786
-6.84946
-6.70549
-6.55597
-6.40096
-6.24051
-6.07467
-5.90352
-5.72712
-5.54559
-5.35901
-5.1675
-4.97118
-4.77018
-4.56464
-4.3547
-4.14052
-3.92226
-3.70009
-3.4742
-3.24476
-3.01198
-2.77606
-2.53721
-2.29561
-2.0515
-1.80508
-1.55656
-1.30615
-1.05407
-0.800564
-0.545846
-0.290133
-0.0336461
0.223399
0.480786
0.738303
0.995741
1.2529
1.50957
1.76558
2.02072
2.27483
2.52774
2.77929
3.02932
3.27761
3.52399
3.76831
4.01044
4.25027
4.48769
4.72258
4.95486
5.18443
5.41124
5.63517
5.85609
6.07391
6.28857
6.49999
6.7081
6.91284
7.11415
7.31195
7.50613
7.69656
7.88315
8.06574
8.24418
8.41802
8.58769
8.74918
8.91626
9.0281
-7.57111
-7.57703
-7.58608
-7.59573
-7.60571
-7.61583
-7.62599
-7.63605
-7.64587
-7.65529
-7.66413
-7.67224
-7.67948
-7.68573
-7.69091
-7.69492
-7.69769
-7.69918
-7.69935
-7.69816
-7.69559
-7.69159
-7.68615
-7.67938
-7.67146
-7.66251
-7.65268
-7.64214
-7.63123
-7.62028
-7.60936
-7.59853
-7.58791
-7.57751
-7.56745
-7.55812
-7.55009
-7.54408
-7.5409
-7.54115
-7.5453
-7.55356
-7.5659
-7.58222
-7.60234
-7.62596
-7.65276
-7.68236
-7.71445
-7.74874
-7.785
-7.82297
-7.86242
-7.90314
-7.9449
-7.98751
-8.03077
-8.07449
-8.11849
-8.16258
-8.20659
-8.2503
-8.29349
-8.33593
-8.37739
-8.41762
-8.45638
-8.49341
-8.52843
-8.56119
-8.59142
-8.61887
-8.64332
-8.66456
-8.68242
-8.69671
-8.70731
-8.71407
-8.71689
-8.71565
-8.71023
-8.70054
-8.68649
-8.66798
-8.64493
-8.61726
-8.58492
-8.54788
-8.50608
-8.45942
-8.40782
-8.3512
-8.28947
-8.22257
-8.15043
-8.07298
-7.99015
-7.90189
-7.80813
-7.70885
-7.60402
-7.49361
-7.37761
-7.25599
-7.12876
-6.99592
-6.85747
-6.71346
-6.56391
-6.40886
-6.24838
-6.08251
-5.91133
-5.73492
-5.55336
-5.36676
-5.17523
-4.9789
-4.7779
-4.57235
-4.36241
-4.14824
-3.92998
-3.70782
-3.48194
-3.25252
-3.01976
-2.78387
-2.54505
-2.3035
-2.05943
-1.81306
-1.56459
-1.31423
-1.06221
-0.80877
-0.554124
-0.298489
-0.0420837
0.214874
0.472171
0.729594
0.986935
1.24399
1.50057
1.75647
2.01151
2.26551
2.51832
2.76979
3.01975
3.26794
3.5142
3.75839
4.0004
4.24011
4.47741
4.71219
4.94438
5.17387
5.40063
5.62452
5.84538
6.06314
6.27772
6.48907
6.69713
6.90183
7.1031
7.30088
7.49502
7.68538
7.87185
8.05426
8.23245
8.40589
8.57502
8.73563
8.90217
9.01074
-7.55512
-7.56113
-7.56988
-7.5799
-7.59034
-7.60081
-7.61125
-7.62162
-7.63182
-7.64168
-7.65102
-7.65966
-7.66745
-7.67427
-7.67999
-7.68454
-7.68784
-7.68984
-7.69049
-7.68976
-7.68762
-7.68405
-7.6791
-7.67289
-7.66562
-7.65748
-7.64861
-7.63911
-7.62907
-7.61865
-7.60791
-7.59691
-7.58578
-7.57482
-7.56446
-7.55516
-7.54739
-7.54177
-7.53898
-7.53959
-7.54404
-7.55259
-7.56528
-7.582
-7.60252
-7.62651
-7.65363
-7.68357
-7.71602
-7.75073
-7.78746
-7.82599
-7.86606
-7.90745
-7.94995
-7.99332
-8.03737
-8.08189
-8.12667
-8.17152
-8.21622
-8.26056
-8.30431
-8.34725
-8.38913
-8.42972
-8.46877
-8.50599
-8.54112
-8.5739
-8.60406
-8.63135
-8.65555
-8.67648
-8.69398
-8.70788
-8.71805
-8.72439
-8.7268
-8.72517
-8.7194
-8.70939
-8.69506
-8.67628
-8.65296
-8.625
-8.59241
-8.55517
-8.51322
-8.46645
-8.41474
-8.35801
-8.29618
-8.22919
-8.15696
-8.07942
-7.99651
-7.90815
-7.8143
-7.71492
-7.61
-7.4995
-7.38341
-7.26171
-7.1344
-7.00147
-6.86294
-6.71885
-6.56922
-6.41411
-6.25357
-6.08765
-5.91642
-5.73995
-5.55835
-5.37171
-5.18015
-4.98379
-4.78276
-4.5772
-4.36725
-4.15307
-3.93481
-3.71265
-3.48678
-3.25738
-3.02465
-2.78879
-2.55
-2.3085
-2.06448
-1.81816
-1.56975
-1.31944
-1.0675
-0.814138
-0.559573
-0.304025
-0.0477118
0.209149
0.466343
0.72366
0.98089
1.23783
1.49429
1.75007
2.00498
2.25886
2.51155
2.76294
3.01285
3.26094
3.50704
3.75108
3.99293
4.23249
4.46965
4.7043
4.93637
5.16577
5.39248
5.61633
5.83711
6.05477
6.26926
6.48054
6.68852
6.89317
7.09441
7.29216
7.48626
7.67654
7.86289
8.04511
8.22302
8.39606
8.56468
8.72449
8.89045
8.99645
-7.52875
-7.53428
-7.5437
-7.55502
-7.56645
-7.57751
-7.58838
-7.59926
-7.6101
-7.62071
-7.63087
-7.64034
-7.64894
-7.65653
-7.66299
-7.66827
-7.67228
-7.67497
-7.67629
-7.67623
-7.67477
-7.67194
-7.6678
-7.66245
-7.65599
-7.64853
-7.64016
-7.63097
-7.62102
-7.61038
-7.59917
-7.58761
-7.57601
-7.5647
-7.55403
-7.54449
-7.53668
-7.53122
-7.52876
-7.52985
-7.53484
-7.54393
-7.5571
-7.57421
-7.59503
-7.61925
-7.64662
-7.67684
-7.70968
-7.74489
-7.78222
-7.8214
-7.8622
-7.90438
-7.94771
-7.99197
-8.03693
-8.08241
-8.12818
-8.17402
-8.21968
-8.26493
-8.30953
-8.35327
-8.3959
-8.43716
-8.47678
-8.51449
-8.55001
-8.58304
-8.61328
-8.64046
-8.6644
-8.68499
-8.70208
-8.71551
-8.72516
-8.73101
-8.73298
-8.73098
-8.7249
-8.71466
-8.70012
-8.68114
-8.65757
-8.62927
-8.59634
-8.55892
-8.51689
-8.47004
-8.41825
-8.36143
-8.29949
-8.23241
-8.1601
-8.0825
-7.9995
-7.91104
-7.81708
-7.7176
-7.61258
-7.502
-7.38583
-7.26406
-7.13666
-7.00365
-6.86504
-6.72088
-6.5712
-6.41604
-6.25546
-6.0895
-5.91824
-5.74174
-5.56011
-5.37346
-5.18189
-4.98554
-4.78452
-4.57898
-4.36906
-4.1549
-3.93667
-3.71455
-3.48872
-3.25937
-3.0267
-2.7909
-2.55219
-2.31077
-2.06684
-1.82062
-1.57229
-1.32209
-1.07025
-0.817009
-0.562567
-0.307147
-0.0509681
0.205754
0.462805
0.719973
0.977052
1.23384
1.49014
1.74575
2.0005
2.25422
2.50676
2.75811
3.00804
3.25604
3.50197
3.74581
3.98749
4.22688
4.46389
4.69841
4.93035
5.15965
5.38635
5.61019
5.83088
6.04843
6.26282
6.47401
6.68192
6.88651
7.08772
7.28548
7.47954
7.66973
7.85594
8.03797
8.21561
8.38827
8.55638
8.71544
8.88079
8.98492
-7.49237
-7.49797
-7.5089
-7.5221
-7.53472
-7.5464
-7.55784
-7.56958
-7.58151
-7.59327
-7.60451
-7.61499
-7.62455
-7.63306
-7.6404
-7.64654
-7.65141
-7.65497
-7.65717
-7.65798
-7.6574
-7.65542
-7.65209
-7.64744
-7.64153
-7.63442
-7.62616
-7.61682
-7.60649
-7.59534
-7.58357
-7.57144
-7.55922
-7.54728
-7.53614
-7.52637
-7.5186
-7.51345
-7.5115
-7.51318
-7.51878
-7.52839
-7.54195
-7.55934
-7.58034
-7.60473
-7.63229
-7.66278
-7.69598
-7.73163
-7.76949
-7.80932
-7.85089
-7.89394
-7.93821
-7.98346
-8.02947
-8.07605
-8.12294
-8.1699
-8.21666
-8.26298
-8.3086
-8.35327
-8.39674
-8.43872
-8.47893
-8.5171
-8.55292
-8.58608
-8.61624
-8.64316
-8.66674
-8.68692
-8.70353
-8.7163
-8.72519
-8.7304
-8.73197
-8.72976
-8.72362
-8.71343
-8.69898
-8.68004
-8.6564
-8.62776
-8.59443
-8.55689
-8.51489
-8.46806
-8.41621
-8.35927
-8.29722
-8.23004
-8.15767
-8.08
-7.99692
-7.90834
-7.81424
-7.71462
-7.60949
-7.49882
-7.38258
-7.26073
-7.13325
-7.00014
-6.86145
-6.71722
-6.56749
-6.41231
-6.25171
-6.08574
-5.91446
-5.73796
-5.55633
-5.36969
-5.17815
-4.98185
-4.78089
-4.57542
-4.36558
-4.1515
-3.93336
-3.71134
-3.48563
-3.25641
-3.02387
-2.78823
-2.54969
-2.30845
-2.06471
-1.81867
-1.57053
-1.32055
-1.06895
-0.815947
-0.561754
-0.306593
-0.0506823
0.205763
0.462528
0.719404
0.976182
1.23266
1.48864
1.74394
1.99836
2.25174
2.50394
2.75509
3.00492
3.25276
3.49844
3.74205
3.98351
4.22272
4.45955
4.69392
4.92572
5.15492
5.3817
5.60564
5.82626
6.04369
6.25798
6.46909
6.67694
6.88149
7.08271
7.28052
7.47458
7.66468
7.85075
8.03259
8.20997
8.38226
8.54991
8.70827
8.87295
8.97586
-7.44885
-7.45541
-7.46848
-7.48393
-7.49795
-7.51049
-7.52251
-7.53491
-7.54792
-7.56099
-7.57363
-7.5855
-7.59636
-7.60592
-7.61409
-7.62104
-7.62684
-7.63137
-7.63457
-7.63636
-7.6367
-7.63556
-7.63293
-7.6288
-7.6232
-7.61615
-7.60772
-7.598
-7.58714
-7.57531
-7.56274
-7.54975
-7.53674
-7.5242
-7.51269
-7.50282
-7.49519
-7.49037
-7.48882
-7.49089
-7.49678
-7.50654
-7.52015
-7.53751
-7.55848
-7.58286
-7.61047
-7.6411
-7.6745
-7.71047
-7.74878
-7.7892
-7.83151
-7.87544
-7.92075
-7.96719
-8.01446
-8.06229
-8.11035
-8.1584
-8.20617
-8.2534
-8.29985
-8.34525
-8.38933
-8.4318
-8.47237
-8.51075
-8.54663
-8.57961
-8.60928
-8.63546
-8.6583
-8.67786
-8.69388
-8.70568
-8.71324
-8.7174
-8.71844
-8.71617
-8.71034
-8.70066
-8.68679
-8.66839
-8.64534
-8.61767
-8.58539
-8.54847
-8.50673
-8.45999
-8.40811
-8.35107
-8.28891
-8.22161
-8.1491
-8.07127
-7.988
-7.89921
-7.80488
-7.70505
-7.59972
-7.48886
-7.37244
-7.25041
-7.12275
-6.98947
-6.85062
-6.70625
-6.5564
-6.40112
-6.24043
-6.07439
-5.90304
-5.72649
-5.54482
-5.35817
-5.16664
-4.97034
-4.76943
-4.56401
-4.35423
-4.14023
-3.92218
-3.70027
-3.47468
-3.24561
-3.01323
-2.77777
-2.53943
-2.29841
-2.05488
-1.80906
-1.56118
-1.31149
-1.06018
-0.807485
-0.553616
-0.298795
-0.0432406
0.212832
0.469211
0.725684
0.982043
1.23808
1.49361
1.74843
2.00234
2.25515
2.5067
2.75682
3.00543
3.25239
3.49755
3.74074
3.98182
4.22068
4.45718
4.69123
4.92272
5.15163
5.37833
5.6023
5.8228
6.0401
6.25428
6.46531
6.67312
6.87765
7.07895
7.27694
7.47108
7.66111
7.84706
8.02874
8.20588
8.37783
8.54505
8.70277
8.86674
8.96906
-7.40273
-7.41065
-7.42649
-7.44432
-7.45885
-7.47148
-7.48454
-7.49843
-7.51271
-7.52693
-7.54074
-7.55389
-7.56607
-7.57682
-7.586
-7.59391
-7.60075
-7.60638
-7.61068
-7.61352
-7.61482
-7.61449
-7.61248
-7.60875
-7.60329
-7.59614
-7.58735
-7.57704
-7.56536
-7.55257
-7.53899
-7.525
-7.5111
-7.49783
-7.48577
-7.47552
-7.46765
-7.46265
-7.46092
-7.46274
-7.4683
-7.47766
-7.49086
-7.50783
-7.52847
-7.55262
-7.58011
-7.61077
-7.64438
-7.68072
-7.71956
-7.76065
-7.80376
-7.84859
-7.89488
-7.94235
-7.99069
-8.03955
-8.08861
-8.13757
-8.18616
-8.23411
-8.28116
-8.32703
-8.37145
-8.41415
-8.45487
-8.4933
-8.5291
-8.56171
-8.59033
-8.61471
-8.6355
-8.65362
-8.66926
-8.6818
-8.69065
-8.69558
-8.69678
-8.69456
-8.6889
-8.67948
-8.6659
-8.64782
-8.62525
-8.59855
-8.56737
-8.53103
-8.48953
-8.4429
-8.39108
-8.33408
-8.27193
-8.2046