/*--------------------------------*- C++ -*----------------------------------*\
  =========                 |
  \\      /  F ield         | OpenFOAM: The Open Source CFD Toolbox
   \\    /   O peration     | Website:  https://openfoam.org
    \\  /    A nd           | Version:  8
     \\/     M anipulation  |
\*---------------------------------------------------------------------------*/
FoamFile
{
    version     2.0;
    format      ascii;
    class       surfaceScalarField;
    location    "1800";
    object      phi;
}
// * * * * * * * * * * * * * * * * * * * * * * * * * * * * * * * * * * * * * //

dimensions      [0 3 -1 0 0 0 0];

internalField   nonuniform List<scalar> 
24170
(
3.00428e-06
1.29562e-07
2.85357e-06
1.50616e-07
2.71982e-06
1.33638e-07
2.60347e-06
1.16229e-07
2.50261e-06
1.00606e-07
2.4186e-06
8.36956e-08
2.34975e-06
6.86454e-08
2.29308e-06
5.66872e-08
2.24547e-06
4.77137e-08
2.20673e-06
3.88552e-08
2.17579e-06
3.09701e-08
2.15044e-06
2.53483e-08
2.12881e-06
2.15909e-08
2.11099e-06
1.7787e-08
2.097e-06
1.39794e-08
2.08485e-06
1.21472e-08
2.07739e-06
7.45487e-09
2.21607e-10
2.07713e-06
3.51026e-06
7.5687e-08
3.54295e-06
1.17473e-07
3.55456e-06
1.21571e-07
3.55258e-06
1.17857e-07
3.54184e-06
1.11033e-07
3.52172e-06
1.03639e-07
3.49643e-06
9.389e-08
3.46668e-06
8.65131e-08
3.43258e-06
8.1907e-08
3.39762e-06
7.39049e-08
3.3649e-06
6.37443e-08
3.33606e-06
5.42959e-08
3.30974e-06
4.7987e-08
3.28505e-06
4.25603e-08
3.26105e-06
3.80512e-08
3.23815e-06
3.50991e-08
3.21644e-06
2.91919e-08
2.29565e-08
3.19373e-06
3.83199e-06
5.58827e-08
3.85097e-06
9.85835e-08
3.86726e-06
1.05333e-07
3.88078e-06
1.0432e-07
3.89054e-06
1.01173e-07
3.89732e-06
9.67e-08
3.90093e-06
9.01783e-08
3.90248e-06
8.49799e-08
3.903e-06
8.14276e-08
3.90133e-06
7.56214e-08
3.89731e-06
6.77676e-08
3.89156e-06
6.00423e-08
3.88525e-06
5.42741e-08
3.8785e-06
4.92998e-08
3.87149e-06
4.50559e-08
3.86515e-06
4.14339e-08
3.85807e-06
3.62759e-08
3.05643e-08
3.85045e-06
4.21603e-06
4.43826e-08
4.22924e-06
8.50921e-08
4.24007e-06
9.4247e-08
4.24933e-06
9.48355e-08
4.25703e-06
9.32962e-08
4.2637e-06
8.99352e-08
4.26909e-06
8.47936e-08
4.27392e-06
8.0193e-08
4.27895e-06
7.64492e-08
4.28331e-06
7.12838e-08
4.2864e-06
6.47011e-08
4.28823e-06
5.82452e-08
4.28954e-06
5.30155e-08
4.29051e-06
4.83803e-08
4.29134e-06
4.42746e-08
4.29238e-06
4.04333e-08
4.29282e-06
3.58507e-08
3.09887e-08
4.29243e-06
4.64611e-06
3.55762e-08
4.65724e-06
7.41153e-08
4.6666e-06
8.49671e-08
4.67452e-06
8.69469e-08
4.68138e-06
8.64027e-08
4.68746e-06
8.38125e-08
4.69265e-06
7.95665e-08
4.69747e-06
7.53782e-08
4.70243e-06
7.15154e-08
4.70704e-06
6.66961e-08
4.71081e-06
6.09281e-08
4.71376e-06
5.5285e-08
4.71634e-06
5.04191e-08
4.71869e-06
4.60165e-08
4.72096e-06
4.20018e-08
4.72326e-06
3.81364e-08
4.72516e-06
3.39567e-08
2.97008e-08
4.72644e-06
5.12175e-06
2.84068e-08
5.13174e-06
6.38963e-08
5.14065e-06
7.58518e-08
5.14833e-06
7.91012e-08
5.15514e-06
7.94715e-08
5.16121e-06
7.76796e-08
5.16653e-06
7.42373e-08
5.17149e-06
7.04525e-08
5.1764e-06
6.66275e-08
5.18098e-06
6.21317e-08
5.18491e-06
5.70206e-08
5.18821e-06
5.20046e-08
5.19119e-06
4.74765e-08
5.19395e-06
4.32975e-08
5.19659e-06
3.94029e-08
5.19913e-06
3.56273e-08
5.20135e-06
3.17683e-08
2.79745e-08
5.20312e-06
5.64669e-06
2.27279e-08
5.65588e-06
5.48685e-08
5.66454e-06
6.72886e-08
5.67223e-06
7.14446e-08
5.6792e-06
7.25007e-08
5.6855e-06
7.13701e-08
5.69112e-06
6.86078e-08
5.69635e-06
6.52307e-08
5.7014e-06
6.159e-08
5.70609e-06
5.74391e-08
5.71023e-06
5.28903e-08
5.71384e-06
4.83869e-08
5.71712e-06
4.41934e-08
5.72017e-06
4.02582e-08
5.72304e-06
3.65419e-08
5.72573e-06
3.29486e-08
5.72813e-06
2.93978e-08
2.59487e-08
5.73015e-06
4.40944e-06
1.94131e-08
4.41546e-06
4.86899e-08
4.42153e-06
6.1091e-08
4.42707e-06
6.57884e-08
4.43219e-06
6.72947e-08
4.43691e-06
6.66053e-08
4.4412e-06
6.43076e-08
4.44517e-06
6.12575e-08
4.44894e-06
5.78345e-08
4.45243e-06
5.39566e-08
4.45556e-06
4.97663e-08
4.45837e-06
4.55922e-08
4.46094e-06
4.16413e-08
4.46331e-06
3.78996e-08
4.46553e-06
3.43491e-08
4.46757e-06
3.09222e-08
4.4694e-06
2.75778e-08
2.43925e-08
4.471e-06
5.14291e-06
1.63512e-08
5.14896e-06
4.27829e-08
5.15532e-06
5.4799e-08
5.1613e-06
5.9831e-08
5.16694e-06
6.16597e-08
5.17219e-06
6.13586e-08
5.17701e-06
5.94801e-08
5.1815e-06
5.67693e-08
5.18573e-06
5.36022e-08
5.18966e-06
5.00335e-08
5.19322e-06
4.62065e-08
5.19645e-06
4.23736e-08
5.19941e-06
3.86923e-08
5.20215e-06
3.51849e-08
5.20468e-06
3.18312e-08
5.20701e-06
2.86111e-08
5.20911e-06
2.55049e-08
2.25475e-08
5.21096e-06
5.99857e-06
1.36088e-08
6.00455e-06
3.67718e-08
6.01112e-06
4.81787e-08
6.01749e-06
5.34038e-08
6.02362e-06
5.54922e-08
6.02941e-06
5.5545e-08
6.03479e-06
5.40824e-08
6.03982e-06
5.1732e-08
6.04455e-06
4.88653e-08
6.04895e-06
4.56342e-08
6.05298e-06
4.21793e-08
6.05666e-06
3.87008e-08
6.06005e-06
3.5325e-08
6.06317e-06
3.2064e-08
6.06606e-06
2.89565e-08
6.06871e-06
2.59694e-08
6.07111e-06
2.31079e-08
2.04229e-08
6.07325e-06
6.99675e-06
1.11111e-08
7.00257e-06
3.1027e-08
7.00927e-06
4.14972e-08
7.01599e-06
4.66823e-08
7.02257e-06
4.89056e-08
7.02888e-06
4.92213e-08
7.03483e-06
4.81345e-08
7.04041e-06
4.61317e-08
7.04567e-06
4.36099e-08
7.05057e-06
4.07308e-08
7.0551e-06
3.7667e-08
7.05927e-06
3.45559e-08
7.0631e-06
3.14856e-08
7.06664e-06
2.85286e-08
7.06991e-06
2.56819e-08
7.07291e-06
2.29662e-08
7.07564e-06
2.03846e-08
1.79667e-08
7.0781e-06
8.16124e-06
8.92492e-09
8.16679e-06
2.54988e-08
8.17355e-06
3.47474e-08
8.18055e-06
3.96731e-08
8.18755e-06
4.19041e-08
8.19437e-06
4.24003e-08
8.20087e-06
4.16066e-08
8.20703e-06
3.99795e-08
8.21283e-06
3.77898e-08
8.21827e-06
3.53053e-08
8.22333e-06
3.26207e-08
8.22799e-06
2.98846e-08
8.23231e-06
2.71688e-08
8.23629e-06
2.45306e-08
8.23997e-06
2.19926e-08
8.24335e-06
1.9582e-08
8.24643e-06
1.72924e-08
1.5172e-08
8.24924e-06
9.51971e-06
6.93873e-09
9.52497e-06
2.0262e-08
9.53169e-06
2.80303e-08
9.53893e-06
3.24348e-08
9.54631e-06
3.45281e-08
9.55359e-06
3.50772e-08
9.56066e-06
3.45459e-08
9.56739e-06
3.32113e-08
9.57379e-06
3.14112e-08
9.57979e-06
2.92835e-08
9.58541e-06
2.7014e-08
9.59061e-06
2.46608e-08
9.59544e-06
2.23301e-08
9.5999e-06
2.00459e-08
9.60404e-06
1.78655e-08
9.60783e-06
1.57821e-08
9.61132e-06
1.38237e-08
1.20068e-08
9.61449e-06
1.11045e-05
5.15693e-09
1.11095e-05
1.53378e-08
1.11161e-05
2.14154e-08
1.11235e-05
2.50427e-08
1.11312e-05
2.68018e-08
1.1139e-05
2.73101e-08
1.11466e-05
2.69063e-08
1.11539e-05
2.58687e-08
1.11609e-05
2.4392e-08
1.11676e-05
2.26659e-08
1.11738e-05
2.0787e-08
1.11796e-05
1.88569e-08
1.1185e-05
1.69246e-08
1.119e-05
1.5048e-08
1.11946e-05
1.32395e-08
1.11989e-05
1.1527e-08
1.12028e-05
9.91286e-09
8.42824e-09
1.12064e-05
1.29533e-05
3.50494e-09
1.2958e-05
1.06717e-08
1.29646e-05
1.49232e-08
1.29721e-05
1.74955e-08
1.29802e-05
1.87562e-08
1.29884e-05
1.90682e-08
1.29966e-05
1.87174e-08
1.30045e-05
1.78863e-08
1.30122e-05
1.67295e-08
1.30195e-05
1.5374e-08
1.30264e-05
1.39092e-08
1.30328e-05
1.24044e-08
1.30389e-05
1.09051e-08
1.30445e-05
9.44641e-09
1.30497e-05
8.04757e-09
1.30545e-05
6.72581e-09
1.3059e-05
5.48738e-09
4.35536e-09
1.30631e-05
1.511e-05
1.92869e-09
1.51146e-05
6.15627e-09
1.51212e-05
8.4083e-09
1.5129e-05
9.74287e-09
1.51374e-05
1.02997e-08
1.51462e-05
1.02923e-08
1.5155e-05
9.89214e-09
1.51637e-05
9.2033e-09
1.51721e-05
8.32607e-09
1.51802e-05
7.33098e-09
1.51878e-05
6.28038e-09
1.5195e-05
5.21339e-09
1.52018e-05
4.16298e-09
1.52081e-05
3.14856e-09
1.5214e-05
2.18587e-09
1.52194e-05
1.28469e-09
1.52245e-05
4.50082e-10
-3.01311e-10
1.52291e-05
1.7626e-05
3.40938e-10
1.76307e-05
1.52534e-09
1.76375e-05
1.62098e-09
1.76457e-05
1.52279e-09
1.76548e-05
1.2015e-09
1.76643e-05
7.72317e-10
1.7674e-05
2.19895e-10
1.76836e-05
-3.63911e-10
1.76929e-05
-1.00397e-09
1.77019e-05
-1.6318e-09
1.77104e-05
-2.26829e-09
1.77185e-05
-2.86828e-09
1.77261e-05
-3.44789e-09
1.77333e-05
-3.97948e-09
1.774e-05
-4.47447e-09
1.77462e-05
-4.91633e-09
1.7752e-05
-5.31489e-09
-5.65053e-09
1.77573e-05
1.78277e-05
-1.18623e-09
1.78321e-05
-2.97224e-09
1.78387e-05
-4.95674e-09
1.78467e-05
-6.51622e-09
1.78556e-05
-7.67125e-09
1.78649e-05
-8.59461e-09
1.78744e-05
-9.26411e-09
1.78838e-05
-9.81326e-09
1.78931e-05
-1.01913e-08
1.79019e-05
-1.05078e-08
1.79104e-05
-1.0716e-08
1.79184e-05
-1.08919e-08
1.7926e-05
-1.09951e-08
1.79331e-05
-1.10762e-08
1.79397e-05
-1.11055e-08
1.79459e-05
-1.11154e-08
1.79517e-05
-1.10854e-08
-1.10285e-08
1.79571e-05
1.58828e-05
-2.62796e-09
1.58869e-05
-7.14377e-09
1.58929e-05
-1.10746e-08
1.59003e-05
-1.38706e-08
1.59083e-05
-1.57931e-08
1.59168e-05
-1.70518e-08
1.59253e-05
-1.78636e-08
1.59339e-05
-1.82778e-08
1.59421e-05
-1.84556e-08
1.595e-05
-1.84162e-08
1.59576e-05
-1.82725e-08
1.59647e-05
-1.80176e-08
1.59714e-05
-1.77221e-08
1.59778e-05
-1.73709e-08
1.59837e-05
-1.70079e-08
1.59892e-05
-1.66167e-08
1.59943e-05
-1.62259e-08
-1.58115e-08
1.59991e-05
1.41501e-05
-4.10186e-09
1.41543e-05
-1.13138e-08
1.41602e-05
-1.70766e-08
1.41673e-05
-2.09654e-08
1.4175e-05
-2.34692e-08
1.41829e-05
-2.50171e-08
1.41909e-05
-2.58342e-08
1.41987e-05
-2.61223e-08
1.42063e-05
-2.60089e-08
1.42135e-05
-2.5647e-08
1.42203e-05
-2.51099e-08
1.42268e-05
-2.44725e-08
1.42328e-05
-2.37696e-08
1.42385e-05
-2.30387e-08
1.42438e-05
-2.22945e-08
1.42487e-05
-2.15558e-08
1.42534e-05
-2.08251e-08
-2.01058e-08
1.42577e-05
1.26066e-05
-5.70435e-09
1.2611e-05
-1.57168e-08
1.26172e-05
-2.32158e-08
1.26242e-05
-2.79885e-08
1.26317e-05
-3.09325e-08
1.26393e-05
-3.26388e-08
1.26468e-05
-3.34086e-08
1.26542e-05
-3.34641e-08
1.26612e-05
-3.30383e-08
1.26678e-05
-3.23135e-08
1.26741e-05
-3.13881e-08
1.268e-05
-3.03618e-08
1.26855e-05
-2.92669e-08
1.26906e-05
-2.81693e-08
1.26954e-05
-2.70699e-08
1.26999e-05
-2.60069e-08
1.2704e-05
-2.49687e-08
-2.39682e-08
1.27079e-05
1.12317e-05
-7.56027e-09
1.12366e-05
-2.05892e-08
1.1243e-05
-2.96709e-08
1.12501e-05
-3.5064e-08
1.12574e-05
-3.82666e-08
1.12648e-05
-4.00315e-08
1.12721e-05
-4.06392e-08
1.1279e-05
-4.04077e-08
1.12856e-05
-3.96309e-08
1.12918e-05
-3.85088e-08
1.12976e-05
-3.71948e-08
1.1303e-05
-3.57608e-08
1.1308e-05
-3.43005e-08
1.13127e-05
-3.28324e-08
1.1317e-05
-3.14139e-08
1.13211e-05
-3.00333e-08
1.13248e-05
-2.87251e-08
-2.74588e-08
1.13283e-05
1.00069e-05
-9.81762e-09
1.00125e-05
-2.6135e-08
1.00193e-05
-3.649e-08
1.00265e-05
-4.21885e-08
1.00338e-05
-4.5539e-08
1.0041e-05
-4.72489e-08
1.0048e-05
-4.76141e-08
1.00546e-05
-4.70131e-08
1.00608e-05
-4.58319e-08
1.00666e-05
-4.43113e-08
1.0072e-05
-4.25828e-08
1.0077e-05
-4.07638e-08
1.00816e-05
-3.89202e-08
1.00859e-05
-3.7116e-08
1.00898e-05
-3.53704e-08
1.00935e-05
-3.37138e-08
1.00969e-05
-3.21354e-08
-3.06438e-08
1.01001e-05
8.91595e-06
-1.26479e-08
8.92247e-06
-3.26351e-08
8.92971e-06
-4.37129e-08
8.93695e-06
-4.94346e-08
8.94422e-06
-5.27744e-08
8.95132e-06
-5.43316e-08
8.95808e-06
-5.43383e-08
8.96441e-06
-5.33335e-08
8.97031e-06
-5.17383e-08
8.97579e-06
-4.97846e-08
8.98084e-06
-4.76421e-08
8.9855e-06
-4.54217e-08
8.98978e-06
-4.32119e-08
8.99373e-06
-4.10686e-08
8.99737e-06
-3.90233e-08
9.00075e-06
-3.70897e-08
9.00387e-06
-3.52745e-08
-3.35598e-08
9.00679e-06
7.9443e-06
-1.62892e-08
7.95203e-06
-4.03184e-08
7.95959e-06
-5.12431e-08
7.96693e-06
-5.67386e-08
7.97423e-06
-6.00687e-08
7.98128e-06
-6.13721e-08
7.98791e-06
-6.09612e-08
7.99406e-06
-5.94898e-08
7.99976e-06
-5.7432e-08
8.00501e-06
-5.50395e-08
8.00982e-06
-5.24648e-08
8.01424e-06
-4.98389e-08
8.01827e-06
-4.72577e-08
8.02197e-06
-4.47765e-08
8.02537e-06
-4.24303e-08
8.0285e-06
-4.02321e-08
8.03141e-06
-3.81852e-08
-3.62604e-08
8.0341e-06
7.07905e-06
-2.0998e-08
7.08821e-06
-4.94804e-08
7.09619e-06
-5.92203e-08
7.10384e-06
-6.4392e-08
7.11141e-06
-6.764e-08
7.11864e-06
-6.85955e-08
7.12537e-06
-6.76804e-08
7.13157e-06
-6.56885e-08
7.13728e-06
-6.31569e-08
7.14251e-06
-6.02732e-08
7.14727e-06
-5.72353e-08
7.15159e-06
-5.41762e-08
7.15552e-06
-5.11868e-08
7.15908e-06
-4.83492e-08
7.16232e-06
-4.56775e-08
7.16528e-06
-4.32004e-08
7.168e-06
-4.09147e-08
-3.87922e-08
7.17052e-06
6.3092e-06
-2.76899e-08
6.31997e-06
-6.02688e-08
6.32921e-06
-6.84434e-08
6.33819e-06
-7.33699e-08
6.34696e-06
-7.64182e-08
6.35515e-06
-7.6792e-08
6.36266e-06
-7.51921e-08
6.3695e-06
-7.25666e-08
6.37572e-06
-6.93693e-08
6.38132e-06
-6.58786e-08
6.38632e-06
-6.22463e-08
6.39075e-06
-5.86173e-08
6.39466e-06
-5.51212e-08
6.39811e-06
-5.17912e-08
6.40112e-06
-4.87023e-08
6.40377e-06
-4.58598e-08
6.40611e-06
-4.32558e-08
-4.08611e-08
6.40817e-06
5.62774e-06
-4.05293e-08
5.64263e-06
-7.51946e-08
5.65713e-06
-8.29585e-08
5.6711e-06
-8.73597e-08
5.68395e-06
-8.92788e-08
5.69531e-06
-8.81571e-08
5.70514e-06
-8.50471e-08
5.71348e-06
-8.09293e-08
5.7204e-06
-7.62968e-08
5.72596e-06
-7.14366e-08
5.73025e-06
-6.65401e-08
5.73338e-06
-6.1772e-08
5.73548e-06
-5.72258e-08
5.73666e-06
-5.29795e-08
5.73706e-06
-4.90985e-08
5.73681e-06
-4.56177e-08
5.73606e-06
-4.25084e-08
-3.99533e-08
5.73515e-06
5.05466e-06
-9.28888e-08
5.09065e-06
-1.11227e-07
5.11747e-06
-1.09808e-07
5.13557e-06
-1.05476e-07
5.14582e-06
-9.95391e-08
5.14935e-06
-9.16999e-08
5.14737e-06
-8.30904e-08
5.14097e-06
-7.45634e-08
5.13115e-06
-6.64818e-08
5.11874e-06
-5.90193e-08
5.10441e-06
-5.22227e-08
5.08872e-06
-4.60987e-08
5.07211e-06
-4.06275e-08
5.05493e-06
-3.57954e-08
5.03743e-06
-3.1603e-08
5.01995e-06
-2.8131e-08
5.00283e-06
-2.53966e-08
-2.36841e-08
4.98655e-06
4.36366e-06
4.25243e-06
4.14262e-06
4.03714e-06
3.9376e-06
3.8459e-06
3.7628e-06
3.68824e-06
3.62176e-06
3.56274e-06
3.51051e-06
3.46441e-06
3.42378e-06
3.38799e-06
3.35638e-06
3.32825e-06
3.30285e-06
3.27917e-06
-8.13074e-09
8.1202e-09
-2.20794e-08
1.39316e-08
-3.73e-08
1.52036e-08
-5.04065e-08
1.3085e-08
-5.6266e-08
5.84327e-09
-4.89115e-08
-7.37778e-09
-2.62025e-08
-2.27213e-08
9.51355e-09
-3.57333e-08
5.41485e-08
-4.46412e-08
1.02932e-07
-4.87904e-08
1.51424e-07
-4.84954e-08
1.96532e-07
-4.51107e-08
2.3623e-07
-3.96999e-08
2.69275e-07
-3.30471e-08
2.94949e-07
-2.56765e-08
3.12841e-07
-1.78905e-08
3.22665e-07
-9.827e-09
3.24115e-07
-1.44218e-09
3.16971e-07
7.14181e-09
3.01442e-07
1.55435e-08
2.781e-07
2.3342e-08
2.47963e-07
3.01553e-08
2.12396e-07
3.55729e-08
1.73277e-07
3.91358e-08
1.32895e-07
4.03906e-08
9.38965e-08
3.9012e-08
5.89405e-08
3.49676e-08
3.02214e-08
2.87311e-08
8.86939e-09
2.13659e-08
-5.27293e-09
1.41628e-08
-1.31014e-08
7.83866e-09
-1.50294e-08
1.96332e-09
-1.08885e-08
-4.13241e-09
5.6105e-10
-1.14078e-08
2.07381e-08
-2.0177e-08
4.96597e-08
-2.89081e-08
8.34398e-08
-3.37877e-08
1.15968e-07
-3.25502e-08
1.41815e-07
-2.58648e-08
1.5777e-07
-1.59962e-08
1.63989e-07
-6.23557e-09
1.63255e-07
7.06179e-10
1.59161e-07
4.07197e-09
1.55321e-07
3.84379e-09
1.53631e-07
1.64425e-09
1.48153e-07
5.52954e-09
1.29582e-07
1.84353e-08
9.06163e-08
3.90961e-08
2.57481e-08
6.46247e-08
-6.23044e-08
8.81664e-08
-1.69632e-07
1.07197e-07
-2.93085e-07
1.23441e-07
-4.29979e-07
1.36837e-07
-5.73565e-07
1.43515e-07
-7.19626e-07
1.46016e-07
-8.65522e-07
1.45885e-07
-1.00775e-06
1.42195e-07
-1.14372e-06
1.35999e-07
-1.27239e-06
1.28647e-07
-1.39213e-06
1.19769e-07
-1.50218e-06
1.10036e-07
-1.60306e-06
1.00903e-07
-1.69544e-06
9.23518e-08
-1.78022e-06
8.47973e-08
-1.85823e-06
7.79949e-08
-1.92997e-06
7.17489e-08
-1.99628e-06
6.62877e-08
-2.05775e-06
6.14798e-08
-2.11502e-06
5.72613e-08
-2.16857e-06
5.35447e-08
-2.21883e-06
5.02541e-08
-2.26614e-06
4.73166e-08
-2.31081e-06
4.46708e-08
-2.35307e-06
4.22634e-08
-2.39312e-06
4.00493e-08
-2.4311e-06
3.79936e-08
-2.46717e-06
3.6064e-08
-2.50139e-06
3.42402e-08
-2.5339e-06
3.24987e-08
-2.56471e-06
3.08293e-08
-2.59393e-06
2.9214e-08
-2.62157e-06
2.76494e-08
-2.6477e-06
2.61202e-08
-2.67232e-06
2.46268e-08
-2.69549e-06
2.31557e-08
-2.71719e-06
2.17099e-08
-2.73747e-06
2.02773e-08
-2.75633e-06
1.88605e-08
-2.77379e-06
1.74485e-08
-2.78984e-06
1.60385e-08
-2.80447e-06
1.46215e-08
-2.81765e-06
1.31939e-08
-2.82939e-06
1.17455e-08
-2.83964e-06
1.02687e-08
-2.84838e-06
8.75283e-09
-2.85556e-06
7.18912e-09
-2.86113e-06
5.56648e-09
-2.865e-06
3.87088e-09
-2.86711e-06
2.1032e-09
-2.86746e-06
3.35819e-10
-2.86622e-06
-1.24745e-09
-2.8636e-06
-2.62883e-09
-2.85967e-06
-3.94118e-09
-2.85445e-06
-5.23601e-09
-2.84793e-06
-6.52752e-09
-2.84011e-06
-7.82243e-09
-2.831e-06
-9.11839e-09
-2.82059e-06
-1.04181e-08
-2.80887e-06
-1.17171e-08
-2.79586e-06
-1.30178e-08
-2.78154e-06
-1.43151e-08
-2.76593e-06
-1.56116e-08
-2.74902e-06
-1.6902e-08
-2.73083e-06
-1.81888e-08
-2.71135e-06
-1.94669e-08
-2.6906e-06
-2.07383e-08
-2.66859e-06
-2.19985e-08
-2.64533e-06
-2.32488e-08
-2.62082e-06
-2.44858e-08
-2.59509e-06
-2.57097e-08
-2.56815e-06
-2.69184e-08
-2.54001e-06
-2.81111e-08
-2.5107e-06
-2.92867e-08
-2.48023e-06
-3.04432e-08
-2.44862e-06
-3.15806e-08
-2.41589e-06
-3.26956e-08
-2.38208e-06
-3.37889e-08
-2.34719e-06
-3.48558e-08
-2.31127e-06
-3.58962e-08
-2.27433e-06
-3.69118e-08
-2.23641e-06
-3.78997e-08
-2.19755e-06
-3.88539e-08
-2.15776e-06
-3.97713e-08
-2.11711e-06
-4.06294e-08
-2.07565e-06
-4.14332e-08
-2.03345e-06
-4.21684e-08
-1.99061e-06
-4.28351e-08
-1.947e-06
-4.36017e-08
-1.90257e-06
-4.44171e-08
-1.85744e-06
-4.51096e-08
-1.81165e-06
-4.57618e-08
-1.76524e-06
-4.63705e-08
-1.71828e-06
-4.69498e-08
-1.67077e-06
-4.74924e-08
-1.62276e-06
-4.80071e-08
-1.57428e-06
-4.84865e-08
-1.52538e-06
-4.89398e-08
-1.47606e-06
-4.93592e-08
-1.42636e-06
-4.97504e-08
-1.3763e-06
-5.01043e-08
-1.32591e-06
-5.0427e-08
-1.27524e-06
-5.07122e-08
-1.22431e-06
-5.09636e-08
-1.17316e-06
-5.11809e-08
-1.12182e-06
-5.13665e-08
-1.07032e-06
-5.1525e-08
-1.01868e-06
-5.16611e-08
-9.66914e-07
-5.1781e-08
-9.1504e-07
-5.18898e-08
-8.63059e-07
-5.19927e-08
-8.10976e-07
-5.20928e-08
-7.58791e-07
-5.21925e-08
-7.06506e-07
-5.229e-08
-6.54122e-07
-5.23851e-08
-6.01645e-07
-5.24757e-08
-5.49076e-07
-5.25654e-08
-4.96412e-07
-5.26555e-08
-4.43651e-07
-5.27519e-08
-3.90782e-07
-5.28542e-08
-3.37802e-07
-5.29644e-08
-2.84709e-07
-5.30709e-08
-2.31528e-07
-5.31592e-08
-1.78303e-07
-5.31965e-08
-1.2515e-07
-5.3125e-08
-7.22624e-08
-5.28527e-08
-2.01083e-08
-5.21211e-08
3.07008e-08
-5.0772e-08
7.84666e-08
-4.77347e-08
1.22507e-07
-4.40109e-08
-1.93742e-08
1.41901e-07
-3.45659e-09
1.15559e-08
-9.63229e-09
2.00818e-08
-1.25243e-08
1.80586e-08
-5.0402e-09
5.55829e-09
1.78094e-08
-1.70364e-08
5.51622e-08
-4.47549e-08
1.02598e-07
-7.0167e-08
1.54609e-07
-8.77541e-08
2.06101e-07
-9.61367e-08
2.53789e-07
-9.64825e-08
2.96183e-07
-9.08913e-08
3.32581e-07
-8.151e-08
3.62871e-07
-6.99905e-08
3.87249e-07
-5.74245e-08
4.06043e-07
-4.44703e-08
4.19641e-07
-3.14864e-08
4.2846e-07
-1.86448e-08
4.3306e-07
-6.03508e-09
4.33827e-07
6.37757e-09
4.30679e-07
1.87032e-08
4.23131e-07
3.08949e-08
4.10598e-07
4.27037e-08
3.92498e-07
5.36817e-08
3.68484e-07
6.31648e-08
3.38571e-07
7.03162e-08
3.03364e-07
7.42322e-08
2.64193e-07
7.41521e-08
2.23214e-07
6.97254e-08
1.83404e-07
6.119e-08
1.48326e-07
4.92631e-08
1.21427e-07
3.47548e-08
1.05206e-07
1.82257e-08
1.01105e-07
-1.29664e-11
1.08838e-07
-1.91028e-08
1.26365e-07
-3.76954e-08
1.48523e-07
-5.10584e-08
1.68192e-07
-5.34586e-08
1.80355e-07
-4.47316e-08
1.83306e-07
-2.88291e-08
1.7696e-07
-9.69168e-09
1.62709e-07
7.99715e-09
1.42042e-07
2.1331e-08
1.10055e-07
3.60409e-08
5.6734e-08
5.71402e-08
-2.68784e-08
8.52324e-08
-1.41145e-07
1.19828e-07
-2.78235e-07
1.55504e-07
-4.28298e-07
1.89182e-07
-5.84076e-07
2.20374e-07
-7.42463e-07
2.46558e-07
-9.00966e-07
2.6567e-07
-1.05553e-06
2.77972e-07
-1.20192e-06
2.83194e-07
-1.33901e-06
2.80576e-07
-1.46442e-06
2.71416e-07
-1.57674e-06
2.58191e-07
-1.67653e-06
2.41983e-07
-1.76479e-06
2.24271e-07
-1.84248e-06
2.0634e-07
-1.91141e-06
1.88716e-07
-1.97325e-06
1.71873e-07
-2.02891e-06
1.56573e-07
-2.07955e-06
1.42982e-07
-2.12587e-06
1.31126e-07
-2.16868e-06
1.20793e-07
-2.20866e-06
1.11732e-07
-2.24621e-06
1.03835e-07
-2.28166e-06
9.69234e-08
-2.31524e-06
9.08377e-08
-2.34713e-06
8.54358e-08
-2.37747e-06
8.05943e-08
-2.40636e-06
7.62084e-08
-2.43388e-06
7.21912e-08
-2.46009e-06
6.84713e-08
-2.48503e-06
6.49902e-08
-2.50873e-06
6.17021e-08
-2.53123e-06
5.85687e-08
-2.55255e-06
5.55616e-08
-2.5727e-06
5.26559e-08
-2.5917e-06
4.98347e-08
-2.60957e-06
4.70807e-08
-2.6263e-06
4.43842e-08
-2.64191e-06
4.17322e-08
-2.65641e-06
3.91189e-08
-2.66979e-06
3.6534e-08
-2.68205e-06
3.39738e-08
-2.6932e-06
3.14297e-08
-2.70324e-06
2.88982e-08
-2.71217e-06
2.63724e-08
-2.71999e-06
2.38437e-08
-2.72668e-06
2.13082e-08
-2.73224e-06
1.87606e-08
-2.73668e-06
1.61956e-08
-2.74001e-06
1.36105e-08
-2.74225e-06
1.10026e-08
-2.74343e-06
8.37426e-09
-2.7436e-06
5.73046e-09
-2.74281e-06
3.08609e-09
-2.74119e-06
4.72608e-10
-2.73879e-06
-2.0752e-09
-2.73546e-06
-4.58714e-09
-2.73098e-06
-7.11187e-09
-2.72528e-06
-9.64813e-09
-2.71834e-06
-1.21907e-08
-2.71013e-06
-1.47411e-08
-2.70066e-06
-1.72994e-08
-2.68992e-06
-1.9864e-08
-2.67791e-06
-2.24337e-08
-2.66462e-06
-2.50056e-08
-2.65006e-06
-2.75779e-08
-2.63423e-06
-3.01473e-08
-2.61713e-06
-3.27122e-08
-2.59876e-06
-3.52686e-08
-2.57913e-06
-3.78151e-08
-2.55824e-06
-4.03474e-08
-2.53611e-06
-4.28639e-08
-2.51274e-06
-4.53606e-08
-2.48814e-06
-4.7836e-08
-2.46232e-06
-5.02859e-08
-2.43531e-06
-5.27092e-08
-2.40711e-06
-5.51022e-08
-2.37774e-06
-5.74632e-08
-2.34722e-06
-5.97891e-08
-2.31557e-06
-6.20778e-08
-2.2828e-06
-6.43259e-08
-2.24894e-06
-6.65309e-08
-2.21402e-06
-6.86894e-08
-2.17806e-06
-7.07982e-08
-2.14108e-06
-7.28543e-08
-2.10312e-06
-7.48569e-08
-2.06421e-06
-7.68015e-08
-2.02438e-06
-7.86823e-08
-1.98364e-06
-8.04911e-08
-1.94204e-06
-8.22193e-08
-1.89958e-06
-8.38732e-08
-1.85628e-06
-8.54526e-08
-1.81214e-06
-8.69692e-08
-1.76725e-06
-8.84874e-08
-1.72169e-06
-8.997e-08
-1.67544e-06
-9.13427e-08
-1.62854e-06
-9.2633e-08
-1.58105e-06
-9.38474e-08
-1.53299e-06
-9.4995e-08
-1.4844e-06
-9.60748e-08
-1.43531e-06
-9.70913e-08
-1.38577e-06
-9.80435e-08
-1.33579e-06
-9.89356e-08
-1.28542e-06
-9.97648e-08
-1.23466e-06
-1.00534e-07
-1.18356e-06
-1.01237e-07
-1.13213e-06
-1.01876e-07
-1.08042e-06
-1.02449e-07
-1.02845e-06
-1.02953e-07
-9.76251e-07
-1.03391e-07
-9.23865e-07
-1.03768e-07
-8.71311e-07
-1.0409e-07
-8.18614e-07
-1.04369e-07
-7.65789e-07
-1.04614e-07
-7.12849e-07
-1.04838e-07
-6.59799e-07
-1.05048e-07
-6.06643e-07
-1.05254e-07
-5.53379e-07
-1.05457e-07
-5.0001e-07
-1.0566e-07
-4.46535e-07
-1.05858e-07
-3.92956e-07
-1.06051e-07
-3.39273e-07
-1.06242e-07
-2.85484e-07
-1.06438e-07
-2.31582e-07
-1.06644e-07
-1.77558e-07
-1.06866e-07
-1.23407e-07
-1.07102e-07
-6.91256e-08
-1.07337e-07
-1.4738e-08
-1.07529e-07
3.97127e-08
-1.07628e-07
9.41434e-08
-1.07535e-07
1.48387e-07
-1.07075e-07
2.02205e-07
-1.05916e-07
2.54989e-07
-1.03532e-07
3.06168e-07
-9.88907e-08
3.52426e-07
-9.02475e-08
-6.3495e-08
3.96564e-07
4.18965e-10
1.11195e-08
4.06547e-09
1.64089e-08
1.89632e-08
3.12938e-09
5.27551e-08
-2.82562e-08
1.03785e-07
-6.80791e-08
1.62462e-07
-1.03443e-07
2.18972e-07
-1.26681e-07
2.67768e-07
-1.36555e-07
3.07211e-07
-1.35581e-07
3.37988e-07
-1.27261e-07
3.61686e-07
-1.1459e-07
3.79838e-07
-9.9662e-08
3.93626e-07
-8.37773e-08
4.03867e-07
-6.76638e-08
4.11102e-07
-5.17037e-08
4.15703e-07
-3.6083e-08
4.17951e-07
-2.0888e-08
4.18088e-07
-6.16468e-09
4.16405e-07
8.06685e-09
4.13271e-07
2.18492e-08
4.08944e-07
3.52309e-08
4.03468e-07
4.81941e-08
3.96564e-07
6.05975e-08
3.87643e-07
7.21033e-08
3.75849e-07
8.21241e-08
3.60293e-07
8.98074e-08
3.40367e-07
9.40935e-08
3.16225e-07
9.38858e-08
2.89084e-07
8.835e-08
2.61269e-07
7.70996e-08
2.35727e-07
6.03175e-08
2.15231e-07
3.87532e-08
2.01396e-07
1.38472e-08
1.94164e-07
-1.18433e-08
1.89159e-07
-3.2675e-08
1.78924e-07
-4.08172e-08
1.59526e-07
-3.40566e-08
1.31086e-07
-1.63043e-08
9.43014e-08
7.95308e-09
4.71221e-08
3.74582e-08
-1.60335e-08
7.11354e-08
-1.01937e-07
1.07212e-07
-2.12327e-07
1.4642e-07
-3.43974e-07
1.88782e-07
-4.9072e-07
2.31975e-07
-6.43826e-07
2.72947e-07
-7.97314e-07
3.08993e-07
-9.46262e-07
3.38142e-07
-1.08546e-06
3.59569e-07
-1.21185e-06
3.72936e-07
-1.32433e-06
3.7813e-07
-1.42211e-06
3.75733e-07
-1.50548e-06
3.66545e-07
-1.57654e-06
3.51621e-07
-1.63778e-06
3.32646e-07
-1.69108e-06
3.11489e-07
-1.73849e-06
2.89396e-07
-1.78166e-06
2.67443e-07
-1.82172e-06
2.46407e-07
-1.85971e-06
2.26715e-07
-1.89643e-06
2.08592e-07
-1.93212e-06
1.92269e-07
-1.96688e-06
1.77742e-07
-2.00067e-06
1.64925e-07
-2.03352e-06
1.53642e-07
-2.06546e-06
1.43669e-07
-2.09647e-06
1.34836e-07
-2.12651e-06
1.26969e-07
-2.15559e-06
1.1991e-07
-2.18367e-06
1.13519e-07
-2.21076e-06
1.07677e-07
-2.23683e-06
1.02284e-07
-2.26189e-06
9.72531e-08
-2.28594e-06
9.25157e-08
-2.30896e-06
8.80146e-08
-2.33096e-06
8.37043e-08
-2.35193e-06
7.95477e-08
-2.37188e-06
7.55161e-08
-2.39081e-06
7.15859e-08
-2.40871e-06
6.77389e-08
-2.42559e-06
6.39596e-08
-2.44144e-06
6.02365e-08
-2.45627e-06
5.65584e-08
-2.47007e-06
5.29175e-08
-2.48284e-06
4.93052e-08
-2.49458e-06
4.57155e-08
-2.50529e-06
4.21411e-08
-2.51497e-06
3.85769e-08
-2.52363e-06
3.50153e-08
-2.53124e-06
3.14505e-08
-2.53781e-06
2.78763e-08
-2.54333e-06
2.42882e-08
-2.54781e-06
2.06845e-08
-2.55126e-06
1.70621e-08
-2.55367e-06
1.34222e-08
-2.55506e-06
9.76773e-09
-2.55544e-06
6.10476e-09
-2.5548e-06
2.44325e-09
-2.55313e-06
-1.20607e-09
-2.55036e-06
-4.84515e-09
-2.54646e-06
-8.50238e-09
-2.54138e-06
-1.21966e-08
-2.53511e-06
-1.59218e-08
-2.52764e-06
-1.96689e-08
-2.51895e-06
-2.34349e-08
-2.50904e-06
-2.72153e-08
-2.4979e-06
-3.10078e-08
-2.48553e-06
-3.4808e-08
-2.47193e-06
-3.86135e-08
-2.45708e-06
-4.24194e-08
-2.44101e-06
-4.62231e-08
-2.4237e-06
-5.00195e-08
-2.40516e-06
-5.38056e-08
-2.3854e-06
-5.75764e-08
-2.36441e-06
-6.13282e-08
-2.34222e-06
-6.5056e-08
-2.31881e-06
-6.87562e-08
-2.29422e-06
-7.24238e-08
-2.26844e-06
-7.60553e-08
-2.24149e-06
-7.96463e-08
-2.21339e-06
-8.31931e-08
-2.18415e-06
-8.66922e-08
-2.15378e-06
-9.01394e-08
-2.12232e-06
-9.35311e-08
-2.08977e-06
-9.68627e-08
-2.05615e-06
-1.0013e-07
-2.0215e-06
-1.03328e-07
-1.98583e-06
-1.06453e-07
-1.94917e-06
-1.09501e-07
-1.91155e-06
-1.12467e-07
-1.873e-06
-1.15347e-07
-1.83354e-06
-1.18135e-07
-1.7932e-06
-1.20821e-07
-1.752e-06
-1.23401e-07
-1.70998e-06
-1.25883e-07
-1.66715e-06
-1.28271e-07
-1.62354e-06
-1.30573e-07
-1.57921e-06
-1.32809e-07
-1.53422e-06
-1.34957e-07
-1.48856e-06
-1.36983e-07
-1.44228e-06
-1.38896e-07
-1.39541e-06
-1.40702e-07
-1.34799e-06
-1.42406e-07
-1.30005e-06
-1.4401e-07
-1.25163e-06
-1.45517e-07
-1.20275e-06
-1.46929e-07
-1.15345e-06
-1.48248e-07
-1.10375e-06
-1.49475e-07
-1.05369e-06
-1.50612e-07
-1.00329e-06
-1.51655e-07
-9.52569e-07
-1.52607e-07
-9.01565e-07
-1.53462e-07
-8.50307e-07
-1.54219e-07
-7.98825e-07
-1.5488e-07
-7.47149e-07
-1.5545e-07
-6.95304e-07
-1.55941e-07
-6.43311e-07
-1.56367e-07
-5.91186e-07
-1.56743e-07
-5.38942e-07
-1.57085e-07
-4.86585e-07
-1.57407e-07
-4.34118e-07
-1.57723e-07
-3.8154e-07
-1.58037e-07
-3.28852e-07
-1.5835e-07
-2.76053e-07
-1.58658e-07
-2.23143e-07
-1.58962e-07
-1.70122e-07
-1.59265e-07
-1.16984e-07
-1.59576e-07
-6.37243e-08
-1.59905e-07
-1.03319e-08
-1.60259e-07
4.31985e-08
-1.60634e-07
9.68704e-08
-1.61009e-07
1.50676e-07
-1.61336e-07
2.04583e-07
-1.61536e-07
2.58517e-07
-1.6147e-07
3.12354e-07
-1.60912e-07
3.659e-07
-1.59463e-07
4.18819e-07
-1.5645e-07
4.70693e-07
-1.50766e-07
5.20578e-07
-1.40133e-07
-1.1484e-07
5.7192e-07
-1.43771e-10
1.12464e-08
1.31497e-08
3.09133e-09
5.34821e-08
-3.72211e-08
1.15862e-07
-9.06472e-08
1.82946e-07
-1.3517e-07
2.40644e-07
-1.61146e-07
2.83411e-07
-1.69451e-07
3.1218e-07
-1.65327e-07
3.30556e-07
-1.53957e-07
3.42198e-07
-1.38905e-07
3.49783e-07
-1.22174e-07
3.54903e-07
-1.04781e-07
3.58368e-07
-8.72399e-08
3.60523e-07
-6.98174e-08
3.61492e-07
-5.26675e-08
3.61305e-07
-3.58913e-08
3.59988e-07
-1.9563e-08
3.57578e-07
-3.74568e-09
3.5415e-07
1.1505e-08
3.4985e-07
2.61627e-08
3.44892e-07
4.02015e-08
3.39518e-07
5.35863e-08
3.33889e-07
6.62431e-08
3.28012e-07
7.80011e-08
3.21629e-07
8.85269e-08
3.1422e-07
9.72409e-08
3.05046e-07
1.03289e-07
2.9341e-07
1.05551e-07
2.78932e-07
1.02852e-07
2.61799e-07
9.4268e-08
2.42929e-07
7.92149e-08
2.23676e-07
5.80492e-08
2.04469e-07
3.30818e-08
1.81652e-07
1.10043e-08
1.48237e-07
7.57192e-10
1.01658e-07
5.76892e-09
4.30787e-08
2.45281e-08
-2.83927e-08
5.51621e-08
-1.15429e-07
9.49849e-08
-2.18917e-07
1.40936e-07
-3.37652e-07
1.89864e-07
-4.69468e-07
2.39021e-07
-6.09593e-07
2.86538e-07
-7.51714e-07
3.30904e-07
-8.89857e-07
3.70113e-07
-1.01856e-06
4.01654e-07
-1.13394e-06
4.24377e-07
-1.23435e-06
4.3855e-07
-1.31922e-06
4.44438e-07
-1.38913e-06
4.42833e-07
-1.44582e-06
4.34806e-07
-1.49155e-06
4.21451e-07
-1.52899e-06
4.03971e-07
-1.56094e-06
3.83561e-07
-1.58977e-06
3.61463e-07
-1.61706e-06
3.38784e-07
-1.64397e-06
3.16311e-07
-1.67116e-06
2.94636e-07
-1.69892e-06
2.7417e-07
-1.72734e-06
2.55142e-07
-1.7564e-06
2.37654e-07
-1.78589e-06
2.21763e-07
-1.81557e-06
2.07423e-07
-1.8452e-06
1.94551e-07
-1.87457e-06
1.83009e-07
-1.90353e-06
1.72632e-07
-1.93196e-06
1.63266e-07
-1.95976e-06
1.54763e-07
-1.98684e-06
1.46989e-07
-2.01315e-06
1.39823e-07
-2.03863e-06
1.33158e-07
-2.06325e-06
1.26905e-07
-2.08698e-06
1.20985e-07
-2.1098e-06
1.15337e-07
-2.13169e-06
1.09907e-07
-2.15264e-06
1.04654e-07
-2.17263e-06
9.95442e-08
-2.19166e-06
9.45511e-08
-2.20973e-06
8.96531e-08
-2.22682e-06
8.48334e-08
-2.24294e-06
8.00778e-08
-2.25808e-06
7.53751e-08
-2.27224e-06
7.07156e-08
-2.28541e-06
6.6091e-08
-2.2976e-06
6.14936e-08
-2.3088e-06
5.69167e-08
-2.31901e-06
5.23535e-08
-2.32823e-06
4.77974e-08
-2.33647e-06
4.32419e-08
-2.3437e-06
3.86778e-08
-2.34993e-06
3.4102e-08
-2.35515e-06
2.95078e-08
-2.35935e-06
2.4893e-08
-2.36253e-06
2.02545e-08
-2.3647e-06
1.55923e-08
-2.36584e-06
1.09076e-08
-2.36594e-06
6.20345e-09
-2.36499e-06
1.48373e-09
-2.36295e-06
-3.25042e-09
-2.3598e-06
-8.00639e-09
-2.3555e-06
-1.28005e-08
-2.35007e-06
-1.76402e-08
-2.34347e-06
-2.25204e-08
-2.33571e-06
-2.74331e-08
-2.32678e-06
-3.23735e-08
-2.31667e-06
-3.73352e-08
-2.30536e-06
-4.23143e-08
-2.29287e-06
-4.73049e-08
-2.27918e-06
-5.23032e-08
-2.2643e-06
-5.73032e-08
-2.24822e-06
-6.23013e-08
-2.23095e-06
-6.72908e-08
-2.21249e-06
-7.22679e-08
-2.19284e-06
-7.72255e-08
-2.172e-06
-8.21595e-08
-2.14999e-06
-8.70623e-08
-2.12681e-06
-9.19298e-08