/*--------------------------------*- C++ -*----------------------------------*\
  =========                 |
  \\      /  F ield         | OpenFOAM: The Open Source CFD Toolbox
   \\    /   O peration     | Website:  https://openfoam.org
    \\  /    A nd           | Version:  8
     \\/     M anipulation  |
\*---------------------------------------------------------------------------*/
FoamFile
{
    version     2.0;
    format      ascii;
    class       volVectorField;
    location    "1800";
    object      U;
}
// * * * * * * * * * * * * * * * * * * * * * * * * * * * * * * * * * * * * * //

dimensions      [0 1 -1 0 0 0 0];

internalField   nonuniform List<vector> 
12225
(
(9.78601 0.0475298 0)
(9.34187 0.103812 0)
(8.88775 0.116332 0)
(8.48914 0.0965486 0)
(8.13336 0.0768895 0)
(7.84005 0.062854 0)
(7.60093 0.041889 0)
(7.40032 0.0394409 0)
(7.23669 0.0549372 0)
(7.09673 0.0476705 0)
(6.98798 0.0254294 0)
(6.8995 0.00632485 0)
(6.82494 0.000619137 0)
(6.76347 -0.00737146 0)
(6.71024 -0.00700064 0)
(6.67262 0.00637541 0)
(6.63396 0.00297093 0)
(6.62778 -0.00311083 0)
(10.0648 0.0557111 0)
(10.2186 0.0878265 0)
(10.286 0.0855132 0)
(10.2871 0.0838405 0)
(10.2683 0.0801573 0)
(10.2253 0.0747482 0)
(10.1527 0.0717714 0)
(10.0812 0.0649209 0)
(9.98323 0.0542532 0)
(9.88086 0.0496064 0)
(9.77927 0.0493475 0)
(9.69126 0.0472366 0)
(9.61399 0.0427415 0)
(9.53879 0.0404839 0)
(9.47113 0.0358058 0)
(9.40173 0.0289572 0)
(9.33517 0.0232362 0)
(9.27521 0.0162591 0)
(10.0206 0.0426896 0)
(10.0745 0.0692232 0)
(10.1262 0.0740113 0)
(10.1649 0.0767775 0)
(10.1936 0.0795847 0)
(10.2158 0.0801534 0)
(10.2297 0.0776363 0)
(10.2367 0.07578 0)
(10.239 0.0755229 0)
(10.2376 0.0723243 0)
(10.2294 0.0664832 0)
(10.216 0.0616197 0)
(10.2004 0.0586016 0)
(10.1834 0.0549695 0)
(10.1652 0.0519392 0)
(10.1474 0.0500427 0)
(10.1301 0.0453407 0)
(10.1102 0.0389159 0)
(10.009 0.0320755 0)
(10.0411 0.0588462 0)
(10.073 0.0670964 0)
(10.097 0.0705119 0)
(10.1156 0.0719969 0)
(10.1328 0.0720758 0)
(10.1476 0.0703972 0)
(10.1598 0.069098 0)
(10.1713 0.0687122 0)
(10.1826 0.0665947 0)
(10.1913 0.0625574 0)
(10.197 0.0582731 0)
(10.2007 0.055299 0)
(10.2035 0.0527553 0)
(10.2056 0.050409 0)
(10.2078 0.0480743 0)
(10.2096 0.0441422 0)
(10.2098 0.039427 0)
(10.005 0.0248639 0)
(10.0293 0.0518448 0)
(10.054 0.0612299 0)
(10.0728 0.0647972 0)
(10.0877 0.0665929 0)
(10.1015 0.0670042 0)
(10.114 0.0660634 0)
(10.1249 0.0651872 0)
(10.1353 0.0645838 0)
(10.1456 0.0627428 0)
(10.1546 0.0595769 0)
(10.1617 0.056156 0)
(10.1677 0.0533351 0)
(10.1731 0.0507525 0)
(10.178 0.0483526 0)
(10.183 0.0458727 0)
(10.1875 0.0424603 0)
(10.1911 0.0384966 0)
(10.0033 0.019859 0)
(10.022 0.0450533 0)
(10.0426 0.0550056 0)
(10.0593 0.0592001 0)
(10.0727 0.0615791 0)
(10.0852 0.0624696 0)
(10.0966 0.0620169 0)
(10.1066 0.0612707 0)
(10.1162 0.0604397 0)
(10.1254 0.0586959 0)
(10.1337 0.055992 0)
(10.1407 0.0530592 0)
(10.1469 0.0504166 0)
(10.1525 0.0479066 0)
(10.1578 0.045474 0)
(10.1629 0.0429068 0)
(10.1675 0.0398158 0)
(10.1715 0.0364043 0)
(10.0022 0.0160117 0)
(10.0165 0.0388398 0)
(10.034 0.0489289 0)
(10.0491 0.0536753 0)
(10.0617 0.056434 0)
(10.0733 0.05765 0)
(10.084 0.0575651 0)
(10.0937 0.0569734 0)
(10.1027 0.056088 0)
(10.1113 0.0544817 0)
(10.1191 0.0521639 0)
(10.126 0.0496172 0)
(10.1321 0.047176 0)
(10.1377 0.044784 0)
(10.1429 0.0423991 0)
(10.1479 0.0398798 0)
(10.1524 0.0370569 0)
(10.1564 0.0340421 0)
(10.0016 0.0132644 0)
(10.0129 0.0337726 0)
(10.0278 0.0437592 0)
(10.0416 0.0488527 0)
(10.0535 0.0519079 0)
(10.0646 0.0534065 0)
(10.0749 0.0536136 0)
(10.0843 0.0531498 0)
(10.093 0.0522623 0)
(10.1012 0.0507793 0)
(10.1087 0.0487608 0)
(10.1155 0.0465141 0)
(10.1216 0.044259 0)
(10.1272 0.0419808 0)
(10.1324 0.0396606 0)
(10.1372 0.037216 0)
(10.1416 0.0345783 0)
(10.1456 0.0318269 0)
(10.0013 0.0112096 0)
(10.0104 0.0298785 0)
(10.0234 0.0395601 0)
(10.0361 0.0447403 0)
(10.0473 0.0478632 0)
(10.0578 0.0494874 0)
(10.0677 0.0498815 0)
(10.0768 0.0495542 0)
(10.0852 0.0487439 0)
(10.0931 0.0473864 0)
(10.1004 0.0455577 0)
(10.107 0.0434958 0)
(10.113 0.0413747 0)
(10.1186 0.0392083 0)
(10.1237 0.0369838 0)
(10.1285 0.0346561 0)
(10.1328 0.0321911 0)
(10.1366 0.0296581 0)
(10.001 0.00939097 0)
(10.0084 0.0260014 0)
(10.0195 0.0351414 0)
(10.0309 0.0403103 0)
(10.0414 0.0434586 0)
(10.0512 0.0451843 0)
(10.0606 0.0457386 0)
(10.0693 0.0455373 0)
(10.0775 0.0448077 0)
(10.0851 0.0435823 0)
(10.0921 0.0419432 0)
(10.0985 0.0400735 0)
(10.1044 0.038105 0)
(10.1098 0.036061 0)
(10.1148 0.0339535 0)
(10.1195 0.0317576 0)
(10.1237 0.0294661 0)
(10.1275 0.0271364 0)
(10.0007 0.00776062 0)
(10.0066 0.0221417 0)
(10.016 0.0305598 0)
(10.0261 0.035593 0)
(10.0358 0.0386978 0)
(10.045 0.0404651 0)
(10.0538 0.0411441 0)
(10.062 0.0410515 0)
(10.0698 0.0404195 0)
(10.0771 0.0393286 0)
(10.0838 0.037877 0)
(10.09 0.0361971 0)
(10.0957 0.0343839 0)
(10.101 0.0324802 0)
(10.1059 0.0305072 0)
(10.1104 0.028461 0)
(10.1144 0.0263509 0)
(10.1182 0.0242335 0)
(10.0006 0.00630048 0)
(10.0052 0.018445 0)
(10.013 0.0259415 0)
(10.0219 0.0306683 0)
(10.0307 0.0336265 0)
(10.0391 0.0353568 0)
(10.0473 0.0360939 0)
(10.0551 0.036096 0)
(10.0625 0.0355567 0)
(10.0693 0.034605 0)
(10.0758 0.0333254 0)
(10.0817 0.0318257 0)
(10.0872 0.0301727 0)
(10.0923 0.0284285 0)
(10.097 0.0266055 0)
(10.1013 0.0247329 0)
(10.1053 0.022815 0)
(10.1089 0.0209067 0)
(10.0004 0.00499697 0)
(10.0041 0.0149201 0)
(10.0105 0.0213225 0)
(10.0182 0.0255627 0)
(10.0261 0.028262 0)
(10.0338 0.0298627 0)
(10.0414 0.0305942 0)
(10.0486 0.0306495 0)
(10.0556 0.0302003 0)
(10.0621 0.029371 0)
(10.0682 0.0282522 0)
(10.0739 0.0269194 0)
(10.0792 0.0254455 0)
(10.084 0.0238684 0)
(10.0886 0.0222291 0)
(10.0927 0.0205442 0)
(10.0965 0.0188299 0)
(10.1001 0.0171356 0)
(10.0003 0.00381665 0)
(10.0033 0.011597 0)
(10.0085 0.0167619 0)
(10.0151 0.0203302 0)
(10.0221 0.0226324 0)
(10.0291 0.0240042 0)
(10.0361 0.0246487 0)
(10.0428 0.0247027 0)
(10.0493 0.0243192 0)
(10.0554 0.0235921 0)
(10.0612 0.0226178 0)
(10.0666 0.0214515 0)
(10.0717 0.0201569 0)
(10.0764 0.0187707 0)
(10.0807 0.0173299 0)
(10.0847 0.0158489 0)
(10.0884 0.0143507 0)
(10.0918 0.0128712 0)
(10.0003 0.00273788 0)
(10.0026 0.0084627 0)
(10.0069 0.0122896 0)
(10.0126 0.0150025 0)
(10.0188 0.0167644 0)
(10.0251 0.0177987 0)
(10.0315 0.0182552 0)
(10.0377 0.0182522 0)
(10.0438 0.017881 0)
(10.0496 0.0172385 0)
(10.0551 0.0163834 0)
(10.0602 0.0153788 0)
(10.0651 0.0142623 0)
(10.0696 0.0130761 0)
(10.0737 0.0118374 0)
(10.0776 0.0105729 0)
(10.0812 0.00929288 0)
(10.0845 0.00803642 0)
(10.0002 0.0017208 0)
(10.0022 0.00546507 0)
(10.0058 0.00786348 0)
(10.0107 0.0095638 0)
(10.0162 0.0106419 0)
(10.022 0.0112156 0)
(10.0278 0.0113953 0)
(10.0336 0.0112494 0)
(10.0393 0.0108461 0)
(10.0448 0.0102433 0)
(10.05 0.0094902 0)
(10.0549 0.00862678 0)
(10.0595 0.00768443 0)
(10.0639 0.00668865 0)
(10.0679 0.00565797 0)
(10.0717 0.00461004 0)
(10.0752 0.0035553 0)
(10.0784 0.00252412 0)
(10.0002 0.000721214 0)
(10.0019 0.00249086 0)
(10.0051 0.00336206 0)
(10.0094 0.00392369 0)
(10.0145 0.00416981 0)
(10.0198 0.00417702 0)
(10.0253 0.00397341 0)
(10.0308 0.00361307 0)
(10.0362 0.00310999 0)
(10.0414 0.00251004 0)
(10.0464 0.00182367 0)
(10.0511 0.00108471 0)
(10.0556 0.000299654 0)
(10.0598 -0.000508154 0)
(10.0637 -0.00133456 0)
(10.0673 -0.00216251 0)
(10.0707 -0.00299068 0)
(10.0739 -0.00379214 0)
(10.0002 -0.000265176 0)
(10.0017 -0.000468487 0)
(10.0048 -0.0011346 0)
(10.009 -0.00177777 0)
(10.0138 -0.0024069 0)
(10.019 -0.00303636 0)
(10.0243 -0.00365968 0)
(10.0296 -0.00429115 0)
(10.0349 -0.0049179 0)
(10.04 -0.0055548 0)
(10.0449 -0.00618807 0)
(10.0495 -0.00682929 0)
(10.0539 -0.00746454 0)
(10.058 -0.00810215 0)
(10.0618 -0.00872985 0)
(10.0655 -0.0093527 0)
(10.0688 -0.0099614 0)
(10.0719 -0.0105475 0)
(10.0002 -0.00120699 0)
(10.0018 -0.00328347 0)
(10.005 -0.00541624 0)
(10.0093 -0.00719094 0)
(10.0143 -0.00864458 0)
(10.0196 -0.0098624 0)
(10.025 -0.010883 0)
(10.0303 -0.0117533 0)
(10.0356 -0.0124985 0)
(10.0408 -0.0131562 0)
(10.0456 -0.013744 0)
(10.0503 -0.0142844 0)
(10.0547 -0.0147859 0)
(10.0588 -0.0152606 0)
(10.0626 -0.015712 0)
(10.0662 -0.0161454 0)
(10.0696 -0.0165624 0)
(10.0727 -0.0169535 0)
(10.0002 -0.0021307 0)
(10.0021 -0.00599543 0)
(10.0056 -0.00951817 0)
(10.0104 -0.012298 0)
(10.0157 -0.0144744 0)
(10.0213 -0.0161829 0)
(10.0269 -0.0175307 0)
(10.0326 -0.0185738 0)
(10.038 -0.0193929 0)
(10.0433 -0.0200332 0)
(10.0482 -0.0205571 0)
(10.0529 -0.0209829 0)
(10.0574 -0.021351 0)
(10.0615 -0.0216665 0)
(10.0654 -0.0219546 0)
(10.069 -0.0222145 0)
(10.0724 -0.0224612 0)
(10.0755 -0.0226811 0)
(10.0003 -0.00310213 0)
(10.0025 -0.00877926 0)
(10.0067 -0.0136334 0)
(10.0121 -0.0173047 0)
(10.018 -0.0200796 0)
(10.0241 -0.0221978 0)
(10.0301 -0.0237827 0)
(10.036 -0.0249395 0)
(10.0418 -0.025763 0)
(10.0472 -0.0263575 0)
(10.0523 -0.0267751 0)
(10.0572 -0.0270793 0)
(10.0617 -0.0272911 0)
(10.0659 -0.0274544 0)
(10.0698 -0.0275735 0)
(10.0735 -0.027677 0)
(10.0769 -0.0277596 0)
(10.0801 -0.0278303 0)
(10.0003 -0.00418995 0)
(10.0032 -0.011783 0)
(10.0083 -0.0179075 0)
(10.0147 -0.0223223 0)
(10.0213 -0.0255755 0)
(10.0279 -0.0280054 0)
(10.0344 -0.0297491 0)
(10.0407 -0.0309393 0)
(10.0468 -0.0317234 0)
(10.0525 -0.0322197 0)
(10.0578 -0.0325121 0)
(10.0628 -0.0326608 0)
(10.0675 -0.0327142 0)
(10.0718 -0.0327074 0)
(10.0758 -0.0326678 0)
(10.0795 -0.0326096 0)
(10.083 -0.0325472 0)
(10.0862 -0.0324722 0)
(10.0005 -0.00547855 0)
(10.0042 -0.0151534 0)
(10.0107 -0.0224258 0)
(10.0181 -0.0273966 0)
(10.0255 -0.0310198 0)
(10.0327 -0.0336743 0)
(10.0398 -0.0354886 0)
(10.0467 -0.0366387 0)
(10.0531 -0.0373266 0)
(10.0591 -0.0376917 0)
(10.0647 -0.03783 0)
(10.0699 -0.0378078 0)
(10.0747 -0.0376893 0)
(10.0791 -0.0375101 0)
(10.0832 -0.0373086 0)
(10.0871 -0.0370972 0)
(10.0906 -0.0368928 0)
(10.0939 -0.0366871 0)
(10.0006 -0.00707163 0)
(10.0058 -0.0190871 0)
(10.014 -0.0272533 0)
(10.0227 -0.032549 0)
(10.0309 -0.0364317 0)
(10.0389 -0.0392361 0)
(10.0467 -0.0410421 0)
(10.0541 -0.0420922 0)
(10.0609 -0.0426397 0)
(10.0673 -0.0428398 0)
(10.0732 -0.0427944 0)
(10.0787 -0.042587 0)
(10.0837 -0.0422806 0)
(10.0883 -0.0419304 0)
(10.0925 -0.0415642 0)
(10.0965 -0.0412099 0)
(10.1001 -0.0408717 0)
(10.1035 -0.0405508 0)
(10.001 -0.00910609 0)
(10.008 -0.0237765 0)
(10.0186 -0.0324312 0)
(10.0286 -0.0378136 0)
(10.0378 -0.0418387 0)
(10.0467 -0.0447002 0)
(10.0553 -0.0464331 0)
(10.0634 -0.0473508 0)
(10.0709 -0.0477356 0)
(10.0778 -0.0477483 0)
(10.0841 -0.0474998 0)
(10.0899 -0.0470814 0)
(10.0953 -0.0465724 0)
(10.1001 -0.0460285 0)
(10.1046 -0.045488 0)
(10.1087 -0.0449736 0)
(10.1125 -0.0445004 0)
(10.116 -0.0440523 0)
(10.0015 -0.0117886 0)
(10.0113 -0.0291099 0)
(10.025 -0.0377919 0)
(10.0367 -0.04328 0)
(10.0472 -0.0474027 0)
(10.0575 -0.0501556 0)
(10.0674 -0.0516816 0)
(10.0766 -0.0523844 0)
(10.0851 -0.052578 0)
(10.0928 -0.0523956 0)
(10.0998 -0.0519522 0)
(10.1062 -0.0513466 0)
(10.1121 -0.0506567 0)
(10.1174 -0.0499508 0)
(10.1222 -0.0492605 0)
(10.1265 -0.0486169 0)
(10.1305 -0.048032 0)
(10.1342 -0.047483 0)
(10.0025 -0.0156027 0)
(10.0167 -0.0344705 0)
(10.0351 -0.0426236 0)
(10.0501 -0.0486115 0)
(10.0637 -0.0531699 0)
(10.077 -0.0558863 0)
(10.0896 -0.057131 0)
(10.101 -0.0575057 0)
(10.1114 -0.0573492 0)
(10.1207 -0.056811 0)
(10.1291 -0.0560139 0)
(10.1366 -0.0550691 0)
(10.1433 -0.0540739 0)
(10.1491 -0.0530878 0)
(10.1542 -0.0521635 0)
(10.1587 -0.0513309 0)
(10.1626 -0.0505914 0)
(10.166 -0.0498973 0)
(10.0049 -0.0231973 0)
(10.033 -0.0423835 0)
(10.0632 -0.0474786 0)
(10.0888 -0.0528711 0)
(10.1118 -0.05809 0)
(10.1333 -0.0615113 0)
(10.1524 -0.0632736 0)
(10.1687 -0.0639857 0)
(10.1823 -0.0639729 0)
(10.1933 -0.0634205 0)
(10.2021 -0.0624622 0)
(10.2087 -0.0612401 0)
(10.2133 -0.0598874 0)
(10.2162 -0.0584832 0)
(10.2175 -0.0571319 0)
(10.2176 -0.0559197 0)
(10.2167 -0.0548872 0)
(10.2149 -0.0541048 0)
(10.0473 -0.0345087 0)
(10.1416 -0.0637219 0)
(10.2106 -0.0695085 0)
(10.2535 -0.0712739 0)
(10.2796 -0.0723419 0)
(10.293 -0.0720701 0)
(10.2945 -0.0706502 0)
(10.2858 -0.0686137 0)
(10.2691 -0.066255 0)
(10.2465 -0.0637085 0)
(10.2195 -0.0610467 0)
(10.1893 -0.0583553 0)
(10.1568 -0.0556879 0)
(10.1229 -0.0531169 0)
(10.0882 -0.0507355 0)
(10.053 -0.0486127 0)
(10.0182 -0.0467639 0)
(9.9847 -0.0456586 0)
(9.88442 -0.0323332 0)
(9.66784 -0.0668839 0)
(9.42452 -0.078612 0)
(9.17897 -0.0811876 0)
(8.94482 -0.0798233 0)
(8.72943 -0.0757436 0)
(8.5336 -0.0701904 0)
(8.3568 -0.063972 0)
(8.19859 -0.0575775 0)
(8.05792 -0.0513688 0)
(7.93335 -0.0455074 0)
(7.82327 -0.0400628 0)
(7.72622 -0.0350604 0)
(7.6407 -0.0305176 0)
(7.56532 -0.0264422 0)
(7.49875 -0.0229356 0)
(7.43893 -0.020101 0)
(7.38514 -0.0182737 0)
(-0.00272313 0.00751479 0)
(-0.0127077 0.0125495 0)
(-0.0262652 0.0136538 0)
(-0.0406356 0.0116312 0)
(-0.0511142 0.00585238 0)
(-0.0501532 -0.00368903 0)
(-0.0343651 -0.0166105 -8.22054e-19)
(-0.00711888 -0.0300891 9.31211e-19)
(0.0283657 -0.0401779 0)
(0.0691454 -0.0451217 5.34178e-19)
(0.112304 -0.0455507 0)
(0.1544 -0.0426506 0)
(0.192683 -0.0374794 0)
(0.225485 -0.0308501 -2.62094e-19)
(0.251934 -0.0233293 0)
(0.271612 -0.0152802 0)
(0.284176 -0.00690559 2.26539e-19)
(0.289837 0.00185981 0)
(0.287471 0.0109073 0)
(0.27729 0.0197552 0)
(0.259928 0.0276486 -2.42764e-19)
(0.236027 0.0337973 0)
(0.206523 0.037474 -2.87221e-19)
(0.172807 0.0380625 0)
(0.136736 0.0351411 0)
(0.100568 0.0287105 -4.67354e-19)
(0.066795 0.019472 0)
(0.0378256 0.00913162 7.79102e-19)
(0.0154362 0.000308062 0)
(8.53456e-05 -0.00498524 -1.31961e-18)
(-0.00950734 -0.007483 0)
(-0.0143447 -0.00925489 0)
(-0.0132329 -0.0114876 0)
(-0.00579784 -0.0150662 0)
(0.00894708 -0.0204241 0)
(0.0312625 -0.0263351 8.52918e-19)
(0.0596064 -0.0304932 0)
(0.0898258 -0.0305984 -1.00661e-18)
(0.116839 -0.0262082 0)
(0.136447 -0.0187097 8.00611e-19)
(0.146865 -0.0106121 0)
(0.14921 -0.0041221 0)
(0.146231 -0.000651767 -7.91784e-19)
(0.142001 -0.00112558 0)
(0.139587 -0.00631498 -8.229e-19)
(0.137132 -0.0155416 8.28673e-19)
(0.128182 -0.0236914 0)
(0.105453 -0.0207019 9.06008e-19)
(0.0634871 -0.00246585 1.06713e-18)
(-0.00878234 0.0190085 0)
(-0.104032 0.0404972 0)
(-0.208784 0.0650844 0)
(-0.325791 0.0880026 0)
(-0.454008 0.096241 0)
(-0.589864 0.100829 -1.96933e-19)
(-0.722963 0.106657 0)
(-0.855001 0.108539 1.48494e-19)
(-0.982791 0.107161 0)
(-1.10402 0.104306 0)
(-1.21811 0.097096 -1.15235e-19)
(-1.32411 0.0870344 0)
(-1.42127 0.0781338 1.03904e-19)
(-1.51053 0.0702972 0)
(-1.59239 0.0643196 0)
(-1.6679 0.059047 0)
(-1.73763 0.0538139 -8.94965e-20)
(-1.80209 0.049345 0)
(-1.86197 0.0454128 0)
(-1.91783 0.0419921 -8.31462e-20)
(-1.97016 0.0389934 0)
(-2.01937 0.0363619 -7.99226e-20)
(-2.06583 0.0340265 0)
(-2.10981 0.0319434 0)
(-2.15155 0.0300622 0)
(-2.19125 0.0283501 7.47956e-20)
(-2.22906 0.0267754 0)
(-2.26511 0.0253142 0)
(-2.2995 0.0239481 7.16231e-20)
(-2.33232 0.0226598 7.06452e-20)
(-2.36363 0.0214394 0)
(-2.3935 0.0202737 6.8775e-20)
(-2.42195 0.0191583 0)
(-2.44904 0.0180822 1.33982e-19)
(-2.47478 0.017044 0)
(-2.49922 0.0160338 1.30535e-19)
(-2.52235 0.0150519 0)
(-2.5442 0.0140888 -1.2717e-19)
(-2.56478 0.0131441 0)
(-2.5841 0.0122089 0)
(-2.60217 0.0112783 0)
(-2.61896 0.0103445 1.20557e-19)
(-2.63445 0.00940207 0)
(-2.64864 0.00844129 -1.17259e-19)
(-2.66151 0.00745477 0)
(-2.67301 0.00643388 1.1395e-19)
(-2.68312 0.00537416 1.12288e-19)
(-2.69177 0.00427578 1.10622e-19)
(-2.6989 0.00315451 0)
(-2.70446 0.00205892 0)
(-2.70837 0.00107376 0)
(-2.71057 0.000260052 0)
(-2.71151 -0.000437834 0)
(-2.71122 -0.00110003 0)
(-2.70971 -0.00174866 0)
(-2.707 -0.00239009 0)
(-2.70307 -0.00302725 -9.46742e-20)
(-2.69792 -0.00365912 -9.27177e-20)
(-2.69154 -0.00428714 0)
(-2.68394 -0.00490934 0)
(-2.67509 -0.00552708 0)
(-2.66501 -0.00613817 -8.44265e-20)
(-2.65368 -0.00674401 0)
(-2.64111 -0.00734238 0)
(-2.6273 -0.00793459 0)
(-2.61224 -0.00851851 0)
(-2.59595 -0.00909533 7.28634e-20)
(-2.57842 -0.00966313 0)
(-2.55966 -0.0102229 0)
(-2.53968 -0.0107731 -6.51802e-20)
(-2.51848 -0.0113143 6.24807e-20)
(-2.49608 -0.0118456 0)
(-2.47248 -0.0123671 5.68587e-20)
(-2.44769 -0.0128784 0)
(-2.42174 -0.0133792 -5.09219e-20)
(-2.39463 -0.0138696 0)
(-2.36637 -0.0143488 0)
(-2.337 -0.014817 0)
(-2.30651 -0.0152711 0)
(-2.27494 -0.0157072 0)
(-2.24231 -0.0161356 6.19889e-20)
(-2.20864 -0.0165451 5.46626e-20)
(-2.17395 -0.0169336 0)
(-2.13827 -0.0172915 0)
(-2.10164 -0.0175678 0)
(-2.06409 -0.0177184 -2.31463e-20)
(-2.02573 -0.0176614 0)
(-1.98662 -0.0174133 0)
(-1.9467 -0.0174593 0)
(-1.90587 -0.0178037 1.23374e-20)
(-1.86422 -0.0180625 -2.19417e-20)
(-1.82178 -0.0183153 0)
(-1.77861 -0.0185528 0)
(-1.73475 -0.0187819 -5.27785e-20)
(-1.69023 -0.0189997 -6.37907e-20)
(-1.64507 -0.0192095 0)
(-1.59931 -0.0194088 0)
(-1.55298 -0.0196011 9.9321e-20)
(-1.5061 -0.0197835 -1.1208e-19)
(-1.45869 -0.0199583 0)
(-1.41078 -0.020121 0)
(-1.36238 -0.0202767 -1.53521e-19)
(-1.31354 -0.020421 0)
(-1.26428 -0.0205581 0)
(-1.21464 -0.0206872 -2.005e-19)
(-1.16463 -0.0208108 0)
(-1.1143 -0.0209311 -2.35492e-19)
(-1.06367 -0.0210507 0)
(-1.01274 -0.0211727 0)
(-0.96153 -0.0212998 0)
(-0.910046 -0.0214346 3.16528e-19)
(-0.858288 -0.0215788 0)
(-0.806252 -0.0217338 0)
(-0.753937 -0.0218997 0)
(-0.701341 -0.0220774 0)
(-0.648465 -0.0222676 0)
(-0.595308 -0.0224732 0)
(-0.541867 -0.0226967 5.11278e-19)
(-0.488133 -0.0229421 5.47289e-19)
(-0.434096 -0.0232114 0)
(-0.379742 -0.0235068 0)
(-0.325064 -0.0238254 0)
(-0.270067 -0.0241659 -7.24048e-19)
(-0.214776 -0.0245368 0)
(-0.159266 -0.0249193 1.67949e-18)
(-0.103699 -0.0252458 -1.81442e-18)
(-0.0484595 -0.0253751 -1.96514e-18)
(0.00628632 -0.0248386 2.05519e-18)
(0.057226 -0.0230272 -2.02531e-18)
(0.113531 -0.020543 1.96307e-18)
(0.129154 -0.0091671 0)
(-0.000197164 0.0202002 0)
(-0.00587098 0.0354865 0)
(-0.0122364 0.036624 2.19714e-18)
(-0.0126533 0.0272152 0)
(0.00136553 0.00530219 -2.27828e-18)
(0.0309558 -0.0314993 -1.44734e-18)
(0.0699856 -0.072732 -4.56971e-19)
(0.11451 -0.106552 -3.26387e-19)
(0.160565 -0.127357 0)
(0.204732 -0.134777 -2.13552e-19)
(0.244834 -0.131427 0)
(0.27992 -0.120678 0)
(0.309667 -0.105406 3.18292e-19)
(0.334087 -0.0876918 1.51627e-19)
(0.353406 -0.0688827 -2.95599e-19)
(0.367938 -0.0497541 -2.9219e-19)
(0.378065 -0.0306904 -1.46126e-19)
(0.383969 -0.0118341 0)
(0.386633 0.00682727 0)
(0.385968 0.0251257 0)
(0.381591 0.042702 -1.5451e-19)
(0.373008 0.0590147 0)
(0.359659 0.0733152 4.9459e-19)
(0.341068 0.0846187 0)
(0.317026 0.0918015 0)
(0.287763 0.0937796 2.00289e-19)
(0.254163 0.0898271 0)
(0.217859 0.080009 -2.53494e-19)
(0.181173 0.0653882 -5.93232e-19)
(0.147025 0.0477578 3.54556e-19)
(0.1185 0.0287318 0)
(0.0988641 0.00915446 0)
(0.089385 -0.011161 0)
(0.0918827 -0.0313357 -1.03857e-18)
(0.104582 -0.051332 -8.76011e-19)
(0.123868 -0.0684988 -3.62795e-19)
(0.143734 -0.0757676 0)
(0.158258 -0.069997 5.25378e-19)
(0.164951 -0.0542437 0)
(0.163504 -0.0338633 -5.11289e-19)
(0.154619 -0.0154523 0)
(0.139194 -0.00324619 0)
(0.116923 0.00373101 6.54652e-19)
(0.0817937 0.0100076 0)
(0.0239048 0.0228526 2.52824e-18)
(-0.0692875 0.0539059 -6.36931e-19)
(-0.188731 0.0965182 0)
(-0.319441 0.140869 -2.72222e-19)
(-0.456637 0.183379 -2.02141e-19)
(-0.600484 0.219143 0)
(-0.745807 0.246249 0)
(-0.888795 0.265409 0)
(-1.02682 0.276596 0)
(-1.15798 0.279462 0)
(-1.27827 0.274232 8.52704e-20)
(-1.38714 0.263353 1.60425e-19)
(-1.48452 0.248226 -7.537e-20)
(-1.57084 0.230733 0)
(-1.64708 0.212445 1.38557e-19)
(-1.71505 0.194297 -6.7457e-20)
(-1.77563 0.176844 0)
(-1.83027 0.160747 -6.34697e-20)
(-1.87991 0.146176 0)
(-1.92542 0.133188 0)
(-1.96756 0.12175 -1.19224e-19)
(-2.00686 0.111724 5.84691e-20)
(-2.04385 0.102983 -1.15047e-19)
(-2.07886 0.0953525 1.13192e-19)
(-2.11213 0.0886701 5.57333e-20)
(-2.14384 0.0827836 0)
(-2.17413 0.077557 5.41536e-20)
(-2.20311 0.0728754 0)
(-2.23085 0.0686398 0)
(-2.25741 0.064771 0)
(-2.28285 0.0612016 5.12526e-20)
(-2.30718 0.0578803 0)
(-2.33045 0.0547625 1.00002e-19)
(-2.35266 0.0518169 -1.48161e-19)
(-2.37384 0.0490136 -4.87972e-20)
(-2.394 0.0463346 0)
(-2.41315 0.0437589 -4.75793e-20)
(-2.43129 0.0412767 0)
(-2.44844 0.0388719 -9.27606e-20)
(-2.46459 0.0365397 0)
(-2.47975 0.034267 -9.0381e-20)
(-2.49392 0.0320522 1.78268e-19)
(-2.50708 0.0298842 8.80046e-20)
(-2.51926 0.0277615 0)
(-2.53043 0.0256746 0)
(-2.54061 0.0236173 0)
(-2.54977 0.0215834 -8.32072e-20)
(-2.55791 0.0195679 0)
(-2.56502 0.0175634 8.07623e-20)
(-2.57112 0.0155645 0)
(-2.57622 0.0135637 -2.34846e-19)
(-2.58033 0.0115554 -7.70233e-20)
(-2.58349 0.00953237 -7.57573e-20)
(-2.58575 0.0074921 0)
(-2.58717 0.00545558 0)
(-2.58785 0.00348724 0)
(-2.58788 0.00165985 0)
(-2.58687 -5.18653e-05 0)
(-2.58474 -0.00171243 -1.35625e-19)
(-2.58145 -0.0033432 -1.32799e-19)
(-2.57698 -0.00495266 0)
(-2.57132 -0.00654388 6.3414e-20)
(-2.56447 -0.00811601 6.1921e-20)
(-2.55641 -0.00966952 0)
(-2.54714 -0.0112019 1.17956e-19)
(-2.53666 -0.0127135 0)
(-2.52496 -0.0142013 -5.59644e-20)
(-2.51204 -0.0156658 0)
(-2.4979 -0.017104 0)
(-2.48253 -0.0185162 1.01752e-19)
(-2.46595 -0.0198995 0)
(-2.44814 -0.0212543 -4.72342e-20)
(-2.42912 -0.0225779 0)
(-2.40888 -0.0238706 0)
(-2.38745 -0.02513 -4.22076e-20)
(-2.36481 -0.0263565 -3.98865e-20)
(-2.341 -0.0275481 0)
(-2.316 -0.0287049 3.64881e-20)
(-2.28984 -0.0298254 0)
(-2.26253 -0.0309091 -3.24889e-20)
(-2.23408 -0.0319551 -6.0322e-20)
(-2.20451 -0.032962 0)
(-2.17384 -0.0339296 0)
(-2.14208 -0.0348561 0)
(-2.10925 -0.0357425 0)
(-2.07539 -0.0365872 -3.78368e-20)
(-2.04051 -0.0373915 -1.00877e-19)
(-2.00463 -0.0381515 0)
(-1.96779 -0.0388658 0)
(-1.93 -0.0395386 0)
(-1.89127 -0.0401879 1.37962e-20)
(-1.85162 -0.0408269 0)
(-1.81106 -0.0414538 0)
(-1.7696 -0.0420465 1.95198e-21)
(-1.72734 -0.0425655 5.58616e-21)
(-1.68431 -0.0430101 1.24718e-20)
(-1.64051 -0.0434057 0)
(-1.59599 -0.043758 0)
(-1.55077 -0.0440746 2.93673e-20)
(-1.50488 -0.0443545 -3.36433e-20)
(-1.45837 -0.0446022 0)
(-1.41125 -0.0448163 0)
(-1.36355 -0.0450012 -5.33043e-20)
(-1.31531 -0.0451545 1.77038e-19)
(-1.26655 -0.0452802 0)
(-1.21728 -0.0453733 0)
(-1.16752 -0.0454376 7.89782e-20)
(-1.11732 -0.0454706 0)
(-1.06668 -0.0454735 1.83348e-19)
(-1.01566 -0.0454484 -9.77722e-20)
(-0.964263 -0.0453975 0)
(-0.91253 -0.0453257 1.1378e-19)
(-0.860477 -0.045238 2.40511e-19)
(-0.80812 -0.0451399 0)
(-0.755472 -0.0450369 0)
(-0.702537 -0.0449335 -1.43997e-19)
(-0.649315 -0.0448338 0)
(-0.595805 -0.0447394 3.18151e-19)
(-0.542002 -0.0446505 0)
(-0.487903 -0.0445659 0)
(-0.433506 -0.0444864 0)
(-0.378809 -0.0444133 0)
(-0.323806 -0.0443504 -2.02792e-19)
(-0.268488 -0.0443011 -2.11902e-19)
(-0.212843 -0.044268 0)
(-0.156857 -0.0442518 0)
(-0.100521 -0.044247 0)
(-0.0438392 -0.0442371 2.50443e-19)
(0.0131588 -0.0441876 0)
(0.0704168 -0.0440498 -5.18629e-19)
(0.127833 -0.0437614 5.1995e-19)
(0.185138 -0.0431822 5.21304e-19)
(0.24227 -0.0419668 5.19638e-19)
(0.296986 -0.039685 5.25485e-19)
(0.354351 -0.035524 5.27538e-19)
(0.390058 -0.0230157 0)
(0.000345637 0.0228623 0)
(0.000683739 0.0397683 0)
(0.00655126 0.0321939 -2.34222e-18)
(0.0268371 -0.00162305 -1.63525e-18)
(0.0664556 -0.0611842 9.73567e-19)
(0.117762 -0.126668 6.33393e-19)
(0.170477 -0.178617 -3.66911e-22)
(0.217658 -0.208435 0)
(0.256664 -0.21691 0)
(0.287506 -0.20919 0)
(0.311406 -0.191046 0)
(0.329815 -0.167172 0)
(0.34395 -0.140758 -7.23633e-19)
(0.354667 -0.113696 0)
(0.362535 -0.0869989 2.30893e-19)
(0.367931 -0.0611463 2.3033e-19)
(0.371125 -0.0363249 0)
(0.372313 -0.0126056 0)
(0.371748 0.0100372 0)
(0.369757 0.0317718 0)
(0.366601 0.0527364 2.45442e-19)
(0.362453 0.0728634 0)
(0.357233 0.0917765 -2.63116e-19)
(0.350549 0.108723 0)
(0.341716 0.122581 0)
(0.329882 0.131933 0)
(0.314267 0.135304 -6.59034e-19)
(0.294558 0.131508 0)
(0.271309 0.120071 3.91245e-19)
(0.246128 0.101376 -8.72615e-19)
(0.221551 0.0765638 0)
(0.200483 0.0470309 0)
(0.185462 0.0144562 0)
(0.176627 -0.0202604 6.39684e-19)
(0.172827 -0.053466 5.6328e-19)
(0.167362 -0.0747896 0)
(0.153651 -0.0753175 0)
(0.131593 -0.0581704 -7.74399e-19)
(0.102187 -0.0310325 -7.96719e-19)
(0.0656296 0.00151107 8.87662e-19)
(0.019732 0.0349642 0)
(-0.0457908 0.0665099 0)
(-0.136932 0.104794 0)
(-0.247641 0.153748 0)
(-0.374482 0.208159 -4.05823e-19)
(-0.511974 0.263505 -3.21415e-19)
(-0.652785 0.315738 2.63648e-19)
(-0.791149 0.360194 0)
(-0.922871 0.395388 0)
(-1.04427 0.420436 0)
(-1.15345 0.4343 0)
(-1.24971 0.437486 -1.46048e-19)
(-1.33262 0.430809 0)
(-1.40337 0.415265 0)
(-1.46383 0.393161 -1.21889e-19)
(-1.5164 0.367222 -1.15112e-19)
(-1.56287 0.339232 0)
(-1.60485 0.310885 2.14698e-19)
(-1.64367 0.283502 -1.03081e-19)
(-1.68033 0.257798 1.00206e-19)
(-1.71553 0.234162 0)
(-1.7498 0.213027 0)
(-1.78326 0.194403 0)
(-1.81593 0.178172 0)
(-1.84781 0.164063 8.91326e-20)
(-1.8789 0.151733 1.74953e-19)
(-1.9092 0.140955 8.58069e-20)
(-1.93869 0.131483 -8.42993e-20)
(-1.96735 0.123096 0)
(-1.99516 0.115607 1.62943e-19)
(-2.02211 0.108856 1.60322e-19)
(-2.04819 0.102709 1.57814e-19)
(-2.0734 0.0970572 -1.554e-19)
(-2.09771 0.0918114 0)
(-2.12114 0.0868995 -2.26285e-19)
(-2.14368 0.0822649 0)
(-2.16532 0.0778615 7.31504e-20)
(-2.18607 0.073654 7.22466e-20)
(-2.20591 0.0696129 0)
(-2.22485 0.0657166 0)
(-2.24289 0.0619454 1.3822e-19)
(-2.26002 0.0582858 0)
(-2.27625 0.0547236 1.34253e-19)
(-2.29156 0.0512499 0)
(-2.30596 0.0478539 -1.30341e-19)
(-2.31944 0.0445294 -2.56894e-19)
(-2.332 0.0412676 0)
(-2.34364 0.0380632 0)
(-2.35436 0.0349084 0)
(-2.36415 0.0317961 -1.20664e-19)
(-2.37299 0.0287211 0)
(-2.38089 0.0256792 -1.16785e-19)
(-2.38784 0.0226678 0)
(-2.39384 0.0196854 0)
(-2.39891 0.0167334 2.21857e-19)
(-2.40304 0.0138172 0)
(-2.40623 0.0109454 1.06988e-19)
(-2.4085 0.00813001 0)
(-2.40982 0.00538091 1.03001e-19)
(-2.41017 0.00269113 0)
(-2.40948 2.41291e-05 0)
(-2.40771 -0.00263862 0)
(-2.40484 -0.00528371 2.83525e-19)
(-2.40084 -0.00790319 9.22545e-20)
(-2.3957 -0.0104961 0)
(-2.38942 -0.0130606 0)
(-2.38197 -0.0155955 0)
(-2.37335 -0.0180985 0)
(-2.36356 -0.0205681 -8.09497e-20)
(-2.35259 -0.0230018 1.57613e-19)
(-2.34044 -0.0253977 7.62307e-20)
(-2.3271 -0.0277537 -1.4811e-19)
(-2.31257 -0.0300675 -1.43266e-19)
(-2.29684 -0.0323372 -6.89226e-20)
(-2.27993 -0.0345604 0)
(-2.26183 -0.0367352 -1.28347e-19)
(-2.24254 -0.0388595 0)
(-2.22208 -0.0409315 1.18068e-19)
(-2.20044 -0.0429494 5.60903e-20)
(-2.17763 -0.0449119 0)
(-2.15366 -0.0468172 -1.02132e-19)
(-2.12855 -0.0486644 -4.79792e-20)
(-2.10229 -0.0504518 0)
(-2.07491 -0.0521783 -4.31647e-20)
(-2.04642 -0.0538422 1.19443e-19)
(-2.01684 -0.0554423 0)
(-1.98617 -0.0569766 0)
(-1.95444 -0.0584439 0)
(-1.92167 -0.0598428 0)
(-1.88788 -0.0611731 5.04869e-20)
(-1.85309 -0.0624327 4.34753e-20)
(-1.81732 -0.0636188 0)
(-1.78061 -0.0647268 0)
(-1.74295 -0.0657543 0)
(-1.70438 -0.066708 0)
(-1.66492 -0.0675952 0)
(-1.62458 -0.0684259 0)
(-1.5834 -0.0692148 -1.22086e-21)
(-1.54144 -0.0699425 -1.05115e-21)
(-1.49872 -0.0705854 0)
(-1.45525 -0.0711542 0)
(-1.41107 -0.0716549 -2.70468e-20)
(-1.36621 -0.0720933 0)
(-1.32069 -0.0724712 4.19389e-20)
(-1.27455 -0.0727922 4.78046e-20)
(-1.22781 -0.0730577 0)
(-1.1805 -0.073271 0)
(-1.13266 -0.0734326 -7.02049e-20)
(-1.0843 -0.0735448 -1.52503e-19)
(-1.03544 -0.0736063 0)
(-0.986107 -0.0736187 0)
(-0.936322 -0.0735815 0)
(-0.886116 -0.0734941 -1.06711e-19)
(-0.835514 -0.0733597 1.14161e-19)
(-0.784545 -0.0731814 0)
(-0.733231 -0.0729664 2.56017e-19)
(-0.681593 -0.0727221 1.34398e-19)
(-0.629647 -0.0724565 -2.86412e-19)
(-0.577404 -0.0721782 0)
(-0.524869 -0.0718936 0)
(-0.472044 -0.071609 -3.3257e-19)
(-0.418925 -0.071327 -1.75248e-19)
(-0.365509 -0.0710476 0)
(-0.311791 -0.070769 0)
(-0.257767 -0.0704913 0)
(-0.203434 -0.0702161 0)
(-0.148785 -0.0699477 -4.26638e-19)
(-0.0938106 -0.0696897 0)
(-0.038497 -0.0694457 0)
(0.0171677 -0.0692138 0)
(0.0731958 -0.0689848 0)
(0.129593 -0.0687365 0)
(0.186345 -0.0684248 0)
(0.243401 -0.0679865 -4.99002e-19)
(0.300677 -0.0673331 0)
(0.35796 -0.0662941 0)
(0.415251 -0.0645725 -1.03657e-18)
(0.470996 -0.0616623 5.23856e-19)
(0.529082 -0.0565713 -5.34815e-19)
(0.574686 -0.0440051 5.46062e-19)
(-0.00115473 0.0229681 0)
(0.00193397 0.0265642 5.09392e-18)
(0.0238999 -0.0162647 0)
(0.0718752 -0.0994677 8.67965e-19)
(0.132692 -0.186756 0)
(0.19018 -0.250108 0)
(0.235137 -0.280882 -3.26834e-19)
(0.266285 -0.283975 0)
(0.286414 -0.268769 0)
(0.299144 -0.243564 0)
(0.30737 -0.213825 0)
(0.312917 -0.182588 0)
(0.316771 -0.151376 8.1699e-19)
(0.319385 -0.120889 4.01751e-19)
(0.320924 -0.0914347 -3.99098e-19)
(0.321433 -0.0631499 0)
(0.320926 -0.0360935 0)
(0.319419 -0.0103026 0)
(0.316967 0.0142096 0)
(0.313664 0.0374753 0)
(0.309655 0.0595359 4.32055e-19)
(0.305157 0.0804011 4.43795e-19)
(0.300383 0.0999767 -4.60333e-19)
(0.295439 0.117949 4.82845e-19)
(0.290229 0.13368 0)
(0.28441 0.146136 0)
(0.277383 0.153882 5.85551e-19)
(0.268409 0.155227 0)
(0.256906 0.14863 0)
(0.242713 0.133018 7.55104e-19)
(0.226488 0.108223 8.42712e-19)
(0.209324 0.0752779 9.53337e-19)
(0.192577 0.0364067 0)
(0.175307 -0.00380403 0)
(0.150636 -0.0332036 -9.64352e-19)
(0.113807 -0.0387451 0)
(0.0664549 -0.0213468 0)
(0.00926442 0.0123435 7.73691e-19)
(-0.0607577 0.0569979 -6.91996e-19)
(-0.146596 0.110844 5.54881e-19)
(-0.247052 0.171425 0)
(-0.36133 0.234347 0)
(-0.485901 0.297845 5.94683e-19)
(-0.614987 0.360554 0)
(-0.743191 0.418946 4.25683e-19)
(-0.865462 0.467923 5.60119e-19)
(-0.977017 0.505264 -4.99377e-19)
(-1.0755 0.530953 3.01684e-19)
(-1.16016 0.544828 0)
(-1.23068 0.547576 0)
(-1.28841 0.540329 2.39143e-19)
(-1.3352 0.524542 1.11479e-19)
(-1.37324 0.501921 0)
(-1.40511 0.474209 0)
(-1.4332 0.443465 9.57905e-20)
(-1.45939 0.411661 1.85197e-19)
(-1.48489 0.380156 0)
(-1.51047 0.349952 -1.70662e-19)
(-1.53657 0.321702 1.66206e-19)
(-1.56331 0.295709 -1.61228e-19)
(-1.59072 0.27208 0)
(-1.61867 0.250883 0)
(-1.64697 0.232007 0)
(-1.67537 0.215292 0)
(-1.70368 0.200499 0)
(-1.73173 0.187363 -1.39091e-19)
(-1.75939 0.175654 0)
(-1.78657 0.165156 0)
(-1.81317 0.155677 0)
(-1.83914 0.147049 -2.58369e-19)