/*--------------------------------*- C++ -*----------------------------------*\
| =========                 |                                                 |
| \\      /  F ield         | OpenFOAM: The Open Source CFD Toolbox           |
|  \\    /   O peration     | Version:  v2012                                 |
|   \\  /    A nd           | Website:  www.openfoam.com                      |
|    \\/     M anipulation  |                                                 |
\*---------------------------------------------------------------------------*/
FoamFile
{
    version     2.0;
    format      ascii;
    class       volVectorField;
    location    "1800";
    object      U;
}
// * * * * * * * * * * * * * * * * * * * * * * * * * * * * * * * * * * * * * //

dimensions      [0 1 -1 0 0 0 0];


internalField   nonuniform List<vector> 
12225
(
(9.77087 0.043789 0)
(9.33537 0.0793197 0)
(8.91266 0.0854269 0)
(8.51612 0.0821626 0)
(8.16136 0.0753775 0)
(7.85093 0.0669751 0)
(7.58043 0.0580979 0)
(7.34605 0.0494494 0)
(7.14424 0.0417123 0)
(6.96933 0.0352477 0)
(6.81678 0.0298127 0)
(6.6847 0.0251355 0)
(6.57017 0.020948 0)
(6.4724 0.0171176 0)
(6.3898 0.0133961 0)
(6.32252 0.00933525 0)
(6.27334 0.0050652 0)
(6.23749 -0.00646509 0)
(10.0784 0.057803 0)
(10.2233 0.0917618 0)
(10.3003 0.091285 0)
(10.3229 0.0880772 0)
(10.3127 0.0855428 0)
(10.2802 0.0822516 0)
(10.2306 0.0781822 0)
(10.1686 0.0738176 0)
(10.099 0.069413 0)
(10.0264 0.0651503 0)
(9.95389 0.0611407 0)
(9.88224 0.0571914 0)
(9.81298 0.0532006 0)
(9.74628 0.049016 0)
(9.68345 0.0444612 0)
(9.6242 0.038984 0)
(9.5705 0.0317791 0)
(9.51642 0.0194063 0)
(10.0189 0.0424001 0)
(10.0768 0.0653597 0)
(10.125 0.0681836 0)
(10.1603 0.0722414 0)
(10.1894 0.0763004 0)
(10.214 0.0780191 0)
(10.2326 0.0777055 0)
(10.2451 0.0762665 0)
(10.2519 0.0742309 0)
(10.2545 0.0718711 0)
(10.2536 0.0691828 0)
(10.2501 0.0661787 0)
(10.2443 0.0628447 0)
(10.2371 0.0591124 0)
(10.2287 0.0547859 0)
(10.2193 0.049296 0)
(10.2093 0.042164 0)
(10.1954 0.0309223 0)
(10.0083 0.0308346 0)
(10.0421 0.0552828 0)
(10.0729 0.0624353 0)
(10.0952 0.0674519 0)
(10.1144 0.071048 0)
(10.1326 0.0723325 0)
(10.1491 0.0719495 0)
(10.1633 0.0707507 0)
(10.1755 0.0691171 0)
(10.1861 0.0671714 0)
(10.1952 0.0649421 0)
(10.2032 0.0624425 0)
(10.2101 0.0596205 0)
(10.2161 0.0563708 0)
(10.2213 0.0524861 0)
(10.2257 0.047559 0)
(10.2289 0.0413232 0)
(10.2297 0.0331718 0)
(10.0047 0.0238374 0)
(10.0289 0.0486278 0)
(10.0532 0.0572754 0)
(10.071 0.0621029 0)
(10.0862 0.0655296 0)
(10.1008 0.0670699 0)
(10.1144 0.0671057 0)
(10.1265 0.0662922 0)
(10.1374 0.0649815 0)
(10.1473 0.0633026 0)
(10.1564 0.0613108 0)
(10.1649 0.0590041 0)
(10.1727 0.0563326 0)
(10.18 0.0531982 0)
(10.1868 0.0494492 0)
(10.1929 0.0448463 0)
(10.1979 0.0393108 0)
(10.2012 0.0328403 0)
(10.0031 0.0189449 0)
(10.0211 0.0419902 0)
(10.0412 0.0514187 0)
(10.0569 0.056589 0)
(10.0704 0.060289 0)
(10.0833 0.0621976 0)
(10.0955 0.0625695 0)
(10.1064 0.0620039 0)
(10.1163 0.0608799 0)
(10.1255 0.0593425 0)
(10.1341 0.0574538 0)
(10.1421 0.0552177 0)
(10.1496 0.0526055 0)
(10.1567 0.0495444 0)
(10.1633 0.0459397 0)
(10.1692 0.0416679 0)
(10.1742 0.0367433 0)
(10.1779 0.0313153 0)
(10.0021 0.0152141 0)
(10.0156 0.0358817 0)
(10.0323 0.0457105 0)
(10.0465 0.0512201 0)
(10.0589 0.0550732 0)
(10.0707 0.0572055 0)
(10.0819 0.05783 0)
(10.0922 0.0574814 0)
(10.1015 0.0565312 0)
(10.1102 0.055128 0)
(10.1183 0.0533398 0)
(10.1259 0.0511845 0)
(10.1331 0.0486543 0)
(10.1399 0.0457048 0)
(10.1461 0.0422885 0)
(10.1516 0.0383605 0)
(10.1564 0.0339837 0)
(10.1601 0.0293452 0)
(10.0016 0.0125854 0)
(10.0121 0.0312255 0)
(10.0264 0.0411282 0)
(10.0394 0.0467685 0)
(10.0509 0.0506239 0)
(10.062 0.0528534 0)
(10.0725 0.0536435 0)
(10.0823 0.0534613 0)
(10.0913 0.0526501 0)
(10.0996 0.0513577 0)
(10.1074 0.0496584 0)
(10.1148 0.0475827 0)
(10.1217 0.0451394 0)
(10.1281 0.0423091 0)
(10.134 0.0390778 0)
(10.1393 0.0354459 0)
(10.1438 0.0314948 0)
(10.1475 0.0273985 0)
(10.0012 0.0106222 0)
(10.0097 0.0274221 0)
(10.0221 0.0371466 0)
(10.034 0.0428305 0)
(10.0448 0.0466627 0)
(10.0552 0.0489404 0)
(10.0651 0.0498448 0)
(10.0744 0.0497877 0)
(10.0831 0.0490856 0)
(10.0911 0.0478865 0)
(10.0987 0.0462681 0)
(10.1058 0.0442718 0)
(10.1124 0.0419189 0)
(10.1186 0.0392109 0)
(10.1243 0.0361564 0)
(10.1293 0.0327831 0)
(10.1337 0.0291767 0)
(10.1373 0.025493 0)
(10.0009 0.00889649 0)
(10.0077 0.0237057 0)
(10.0182 0.0329952 0)
(10.029 0.0386174 0)
(10.039 0.0423715 0)
(10.0487 0.0446552 0)
(10.058 0.0456477 0)
(10.0668 0.0456978 0)
(10.0751 0.045096 0)
(10.0828 0.0439908 0)
(10.0901 0.0424623 0)
(10.0969 0.0405612 0)
(10.1032 0.0383203 0)
(10.1091 0.0357598 0)
(10.1145 0.032906 0)
(10.1193 0.0298044 0)
(10.1235 0.0265378 0)
(10.1271 0.0232404 0)
(10.0007 0.00736476 0)
(10.006 0.0201155 0)
(10.0148 0.028734 0)
(10.0244 0.0341623 0)
(10.0336 0.0377654 0)
(10.0426 0.039998 0)
(10.0513 0.0410411 0)
(10.0596 0.0411775 0)
(10.0674 0.0406645 0)
(10.0747 0.0396506 0)
(10.0816 0.03822 0)
(10.0881 0.0364295 0)
(10.0942 0.0343227 0)
(10.0997 0.0319341 0)
(10.1048 0.029303 0)
(10.1094 0.0264835 0)
(10.1134 0.0235508 0)
(10.1169 0.020615 0)
(10.0005 0.00599984 0)
(10.0047 0.0167 0)
(10.0119 0.0244221 0)
(10.0203 0.0294974 0)
(10.0287 0.0328668 0)
(10.0369 0.0349806 0)
(10.045 0.0360236 0)
(10.0527 0.0362177 0)
(10.0601 0.0357808 0)
(10.067 0.0348565 0)
(10.0735 0.0335313 0)
(10.0796 0.0318675 0)
(10.0853 0.0299158 0)
(10.0906 0.0277209 0)
(10.0954 0.0253294 0)
(10.0997 0.0227972 0)
(10.1035 0.0201882 0)
(10.1069 0.0175915 0)
(10.0004 0.0047811 0)
(10.0037 0.0134914 0)
(10.0096 0.0201232 0)
(10.0168 0.0246694 0)
(10.0243 0.0277074 0)
(10.0318 0.0296248 0)
(10.0392 0.0306029 0)
(10.0463 0.0308142 0)
(10.0532 0.0304345 0)
(10.0597 0.0295948 0)
(10.0658 0.0283815 0)
(10.0716 0.0268587 0)
(10.077 0.0250808 0)
(10.0819 0.0230974 0)
(10.0864 0.0209571 0)
(10.0905 0.0187123 0)
(10.0942 0.0164166 0)
(10.0974 0.0141389 0)
(10.0003 0.00368271 0)
(10.0029 0.0104903 0)
(10.0077 0.0158888 0)
(10.0139 0.0197312 0)
(10.0205 0.022324 0)
(10.0272 0.023958 0)
(10.034 0.0247959 0)
(10.0406 0.0249712 0)
(10.0469 0.0246194 0)
(10.053 0.0238521 0)
(10.0587 0.0227506 0)
(10.0641 0.0213771 0)
(10.0691 0.0197854 0)
(10.0738 0.0180243 0)
(10.078 0.0161404 0)
(10.0819 0.0141798 0)
(10.0854 0.0121853 0)
(10.0886 0.0102116 0)
(10.0003 0.00267639 0)
(10.0023 0.0076697 0)
(10.0063 0.0117423 0)
(10.0115 0.0147242 0)
(10.0173 0.0167493 0)
(10.0233 0.0180058 0)
(10.0294 0.0186218 0)
(10.0355 0.0186981 0)
(10.0414 0.0183336 0)
(10.047 0.0176167 0)
(10.0523 0.0166174 0)
(10.0574 0.0153918 0)
(10.0621 0.0139882 0)
(10.0664 0.0124509 0)
(10.0705 0.0108205 0)
(10.0742 0.00913575 0)
(10.0775 0.00742931 0)
(10.0806 0.00574466 0)
(10.0002 0.00173221 0)
(10.0019 0.00497805 0)
(10.0052 0.00766432 0)
(10.0097 0.00965413 0)
(10.0148 0.0109887 0)
(10.0202 0.0117687 0)
(10.0257 0.0120788 0)
(10.0312 0.0119873 0)
(10.0367 0.0115612 0)
(10.0419 0.010863 0)
(10.0469 0.00994653 0)
(10.0516 0.00885673 0)
(10.056 0.00763318 0)
(10.0601 0.00631173 0)
(10.0639 0.00492493 0)
(10.0675 0.00350273 0)
(10.0707 0.00206963 0)
(10.0737 0.000658832 0)
(10.0002 0.000813964 0)
(10.0016 0.00233533 0)
(10.0045 0.00358215 0)
(10.0084 0.0044727 0)
(10.013 0.00500368 0)
(10.0179 0.00521076 0)
(10.023 0.00513165 0)
(10.0281 0.00480304 0)
(10.0331 0.00426085 0)
(10.038 0.00354214 0)
(10.0426 0.00267981 0)
(10.0471 0.00170447 0)
(10.0512 0.000642913 0)
(10.0551 -0.000479324 0)
(10.0588 -0.00163974 0)
(10.0622 -0.00281713 0)
(10.0653 -0.00399515 0)
(10.0682 -0.00514904 0)
(10.0002 -7.47413e-05 0)
(10.0015 -0.000228311 0)
(10.0042 -0.000406648 0)
(10.0079 -0.000634611 0)
(10.0122 -0.000939912 0)
(10.0168 -0.0013417 0)
(10.0216 -0.00184497 0)
(10.0264 -0.002446 0)
(10.0312 -0.00313587 0)
(10.0358 -0.00390474 0)
(10.0403 -0.0047397 0)
(10.0445 -0.00562798 0)
(10.0485 -0.00655516 0)
(10.0523 -0.00750822 0)
(10.0559 -0.00847365 0)
(10.0592 -0.0094396 0)
(10.0622 -0.010396 0)
(10.0651 -0.0113261 0)
(10.0002 -0.000905127 0)
(10.0016 -0.00261835 0)
(10.0043 -0.0041141 0)
(10.0081 -0.00536188 0)
(10.0124 -0.00642382 0)
(10.017 -0.00737567 0)
(10.0217 -0.00826326 0)
(10.0265 -0.00911099 0)
(10.0311 -0.00993688 0)
(10.0357 -0.0107549 0)
(10.0401 -0.0115724 0)
(10.0442 -0.0123915 0)
(10.0481 -0.0132106 0)
(10.0518 -0.0140266 0)
(10.0553 -0.0148349 0)
(10.0586 -0.0156304 0)
(10.0616 -0.0164088 0)
(10.0645 -0.0171586 0)
(10.0002 -0.0017087 0)
(10.0018 -0.00490902 0)
(10.0048 -0.0076088 0)
(10.0089 -0.00973346 0)
(10.0135 -0.011422 0)
(10.0182 -0.0128224 0)
(10.023 -0.0140164 0)
(10.0278 -0.0150522 0)
(10.0326 -0.0159737 0)
(10.0371 -0.0168174 0)
(10.0415 -0.0176089 0)
(10.0456 -0.0183615 0)
(10.0495 -0.0190854 0)
(10.0532 -0.0197848 0)
(10.0567 -0.020463 0)
(10.06 -0.0211195 0)
(10.063 -0.0217547 0)
(10.0659 -0.0223606 0)
(10.0002 -0.00255461 0)
(10.0022 -0.0072709 0)
(10.0058 -0.0110941 0)
(10.0104 -0.0139506 0)
(10.0153 -0.0161366 0)
(10.0203 -0.0178866 0)
(10.0254 -0.0193078 0)
(10.0304 -0.0204673 0)
(10.0352 -0.0214373 0)
(10.0399 -0.0222781 0)
(10.0443 -0.0230258 0)
(10.0485 -0.0237062 0)
(10.0524 -0.0243354 0)
(10.0562 -0.0249276 0)
(10.0596 -0.0254897 0)
(10.0629 -0.0260272 0)
(10.066 -0.0265413 0)
(10.0688 -0.0270285 0)
(10.0003 -0.00351089 0)
(10.0028 -0.00985056 0)
(10.0072 -0.014708 0)
(10.0126 -0.018132 0)
(10.018 -0.0206821 0)
(10.0234 -0.0226881 0)
(10.0287 -0.0242552 0)
(10.034 -0.0254752 0)
(10.039 -0.0264505 0)
(10.0438 -0.0272579 0)
(10.0483 -0.0279446 0)
(10.0526 -0.0285411 0)
(10.0566 -0.0290733 0)
(10.0604 -0.0295602 0)
(10.064 -0.030015 0)
(10.0673 -0.0304449 0)
(10.0704 -0.0308547 0)
(10.0733 -0.0312408 0)
(10.0004 -0.00466402 0)
(10.0038 -0.0127863 0)
(10.0094 -0.0185292 0)
(10.0156 -0.0223201 0)
(10.0216 -0.0251212 0)
(10.0275 -0.0272986 0)
(10.0332 -0.0289349 0)
(10.0387 -0.030152 0)
(10.044 -0.0310917 0)
(10.049 -0.0318427 0)
(10.0537 -0.0324521 0)
(10.0581 -0.0329564 0)
(10.0622 -0.033388 0)
(10.0661 -0.0337715 0)
(10.0698 -0.0341248 0)
(10.0732 -0.0344571 0)
(10.0763 -0.0347747 0)
(10.0793 -0.035074 0)
(10.0006 -0.00612089 0)
(10.0053 -0.0162604 0)
(10.0125 -0.0226131 0)
(10.0198 -0.0265294 0)
(10.0264 -0.0294722 0)
(10.0327 -0.031755 0)
(10.0389 -0.0333957 0)
(10.0449 -0.0345653 0)
(10.0505 -0.0354419 0)
(10.0557 -0.036116 0)
(10.0606 -0.0366338 0)
(10.0653 -0.0370361 0)
(10.0696 -0.0373613 0)
(10.0736 -0.0376414 0)
(10.0774 -0.0378961 0)
(10.0809 -0.0381396 0)
(10.0842 -0.0383769 0)
(10.0873 -0.0386042 0)
(10.0009 -0.00802054 0)
(10.0075 -0.020463 0)
(10.0169 -0.0270199 0)
(10.0254 -0.0308137 0)
(10.0327 -0.0337796 0)
(10.0397 -0.0360778 0)
(10.0465 -0.0376686 0)
(10.053 -0.0387728 0)
(10.059 -0.0395817 0)
(10.0647 -0.040175 0)
(10.07 -0.040594 0)
(10.075 -0.0408841 0)
(10.0796 -0.0410923 0)
(10.0839 -0.041256 0)
(10.0878 -0.0414022 0)
(10.0915 -0.0415476 0)
(10.095 -0.0417004 0)
(10.0982 -0.0418483 0)
(10.0015 -0.0105956 0)
(10.0109 -0.0253709 0)
(10.0234 -0.0316991 0)
(10.0332 -0.0353608 0)
(10.0416 -0.0382814 0)
(10.0497 -0.0404289 0)
(10.0576 -0.0418411 0)
(10.0649 -0.0428113 0)
(10.0717 -0.0435256 0)
(10.078 -0.044029 0)
(10.0839 -0.044351 0)
(10.0894 -0.0445393 0)
(10.0945 -0.0446436 0)
(10.0991 -0.0447098 0)
(10.1034 -0.0447678 0)
(10.1073 -0.0448407 0)
(10.111 -0.0449395 0)
(10.1144 -0.0450406 0)
(10.0026 -0.0144703 0)
(10.0169 -0.0304566 0)
(10.0339 -0.0358883 0)
(10.0466 -0.0397648 0)
(10.0574 -0.0430061 0)
(10.0677 -0.0451294 0)
(10.0775 -0.04634 0)
(10.0865 -0.0470914 0)
(10.0947 -0.0475854 0)
(10.1022 -0.0478556 0)
(10.1092 -0.0479339 0)
(10.1155 -0.0478767 0)
(10.1211 -0.0477453 0)
(10.1262 -0.0475903 0)
(10.1308 -0.0474529 0)
(10.1349 -0.0473601 0)
(10.1387 -0.0473237 0)
(10.142 -0.0472902 0)
(10.0059 -0.022199 0)
(10.034 -0.0377227 0)
(10.0607 -0.039642 0)
(10.0812 -0.0425706 0)
(10.0985 -0.0461891 0)
(10.1145 -0.0488407 0)
(10.1288 -0.0505039 0)
(10.1411 -0.0516282 0)
(10.1516 -0.0523931 0)
(10.1606 -0.0528155 0)
(10.1683 -0.0529334 0)
(10.1745 -0.052823 0)
(10.1795 -0.0525719 0)
(10.1833 -0.0522484 0)
(10.186 -0.0519396 0)
(10.1878 -0.0517106 0)
(10.189 -0.0515773 0)
(10.1894 -0.0515757 0)
(10.0432 -0.033839 0)
(10.1253 -0.0597395 0)
(10.1798 -0.0613608 0)
(10.2123 -0.0599168 0)
(10.2328 -0.0591868 0)
(10.2453 -0.0583081 0)
(10.2504 -0.0571871 0)
(10.2489 -0.0560904 0)
(10.2423 -0.0550457 0)
(10.2314 -0.0539557 0)
(10.2172 -0.0527772 0)
(10.2003 -0.0515289 0)
(10.1811 -0.0502574 0)
(10.1603 -0.0490337 0)
(10.1382 -0.0479282 0)
(10.1156 -0.0470461 0)
(10.0929 -0.0464288 0)
(10.0708 -0.0464483 0)
(9.88769 -0.0267191 0)
(9.69226 -0.0517452 0)
(9.49021 -0.059928 0)
(9.29046 -0.0619498 0)
(9.10211 -0.0619016 0)
(8.92855 -0.0603383 0)
(8.76856 -0.0578227 0)
(8.6205 -0.0548912 0)
(8.48374 -0.0517909 0)
(8.35805 -0.0485824 0)
(8.24288 -0.0453361 0)
(8.13758 -0.0421217 0)
(8.04141 -0.0389907 0)
(7.95366 -0.0359993 0)
(7.87352 -0.0332672 0)
(7.79964 -0.0309826 0)
(7.73061 -0.0291717 0)
(7.66626 -0.028129 0)
(-0.00348289 0.00963105 0)
(-0.0160525 0.0157339 0)
(-0.0331114 0.0170976 0)
(-0.0518137 0.0146268 0)
(-0.0681155 0.00750183 0)
(-0.0733147 -0.00381895 0)
(-0.0590642 -0.0186444 -6.62788e-19)
(-0.0298877 -0.0356742 7.84914e-19)
(0.0109154 -0.0500484 0)
(0.0593214 -0.0583027 5.52623e-19)
(0.112445 -0.0606951 0)
(0.166576 -0.0588758 0)
(0.21789 -0.0541056 0)
(0.263967 -0.0474155 -2.2598e-19)
(0.303558 -0.0395827 0)
(0.336076 -0.0311382 0)
(0.361246 -0.02239 1.80982e-19)
(0.37891 -0.0134548 0)
(0.388987 -0.00423857 0)
(0.391264 0.00548621 0)
(0.384565 0.0156263 -1.75329e-19)
(0.369384 0.0256405 0)
(0.346133 0.0347612 -1.89279e-19)
(0.31528 0.042188 0)
(0.277661 0.0471494 0)
(0.234609 0.0488753 -2.54567e-19)
(0.187994 0.0467008 0)
(0.140202 0.0402521 3.67976e-19)
(0.0940635 0.0296918 0)
(0.0527461 0.0161712 -6.50322e-19)
(0.0195351 0.00261869 0)
(-0.00327811 -0.00630977 0)
(-0.0177639 -0.00808641 0)
(-0.026765 -0.00494333 0)
(-0.0322535 -0.000418033 0)
(-0.0365862 0.00248026 9.47163e-19)
(-0.0407702 0.00224531 0)
(-0.0420835 -0.00147788 -1.84202e-18)
(-0.0355638 -0.00829587 0)
(-0.018978 -0.0171559 2.12754e-18)
(0.00713638 -0.0261143 0)
(0.0401239 -0.0320983 0)
(0.0755443 -0.0327715 -1.09531e-18)
(0.108406 -0.028438 0)
(0.134228 -0.0208718 -8.04638e-19)
(0.150465 -0.0121909 7.64869e-19)
(0.157025 -0.00404181 0)
(0.154824 0.00169814 7.67495e-19)
(0.14828 0.00368003 7.90901e-19)
(0.141894 0.00340799 0)
(0.138856 0.00122087 0)
(0.146524 -0.0101436 0)
(0.156429 -0.0271329 0)
(0.159844 -0.0453559 0)
(0.141461 -0.0517928 -7.74555e-19)
(0.0953361 -0.0345424 0)
(0.0104505 0.00661505 9.24212e-19)
(-0.127046 0.054366 0)
(-0.281716 0.0898758 0)
(-0.449949 0.114264 -2.49224e-19)
(-0.624805 0.128484 0)
(-0.799297 0.133727 1.60333e-19)
(-0.968 0.13142 0)
(-1.12692 0.124136 0)
(-1.27359 0.114217 0)
(-1.40698 0.103148 -1.04457e-19)
(-1.52706 0.0920578 0)
(-1.63468 0.0815933 0)
(-1.73084 0.0721031 -8.9693e-20)
(-1.8168 0.0637442 0)
(-1.89384 0.0565159 -8.39826e-20)
(-1.96318 0.0503433 0)
(-2.02594 0.0451025 0)
(-2.08306 0.0406611 0)
(-2.13538 0.0368882 7.66842e-20)
(-2.18356 0.0336648 0)
(-2.22817 0.0308882 0)
(-2.26966 0.0284737 7.28861e-20)
(-2.30839 0.0263516 7.17847e-20)
(-2.34466 0.0244638 0)
(-2.37871 0.0227652 6.9743e-20)
(-2.41073 0.0212193 0)
(-2.44087 0.0197973 1.35709e-19)
(-2.46924 0.018476 0)
(-2.49595 0.0172368 1.32135e-19)
(-2.52107 0.0160642 0)
(-2.54467 0.0149454 -1.28695e-19)
(-2.56679 0.013869 0)
(-2.58746 0.0128248 0)
(-2.60672 0.0118033 0)
(-2.62458 0.0107946 1.22023e-19)
(-2.64104 0.00978925 0)
(-2.65611 0.00877756 -1.18723e-19)
(-2.66976 0.00774979 0)
(-2.68199 0.00669731 1.15418e-19)
(-2.69274 0.00561368 1.13759e-19)
(-2.70199 0.00449769 1.12095e-19)
(-2.70966 0.00336031 0)
(-2.71572 0.0022401 0)
(-2.72009 0.00121302 0)
(-2.72272 0.000353205 0)
(-2.72393 -0.000360296 0)
(-2.72391 -0.00101387 0)
(-2.72265 -0.0016497 0)
(-2.72017 -0.00227537 0)
(-2.71648 -0.00289453 -9.61929e-20)
(-2.71156 -0.00350763 -9.4242e-20)
(-2.70541 -0.00411475 0)
(-2.69804 -0.00471567 0)
(-2.68943 -0.00531005 0)
(-2.67958 -0.00589755 -8.59784e-20)
(-2.6685 -0.00647785 0)
(-2.65619 -0.00705054 0)
(-2.64264 -0.00761535 0)
(-2.62786 -0.00817182 0)
(-2.61186 -0.00871978 7.44731e-20)
(-2.59463 -0.00925872 0)
(-2.57619 -0.00978851 0)
(-2.55654 -0.0103086 -6.68464e-20)
(-2.53569 -0.0108189 6.41704e-20)
(-2.51366 -0.0113184 0)
(-2.49045 -0.0118066 5.86036e-20)
(-2.46607 -0.0122815 0)
(-2.44055 -0.0127401 -5.27334e-20)
(-2.41389 -0.0131758 0)
(-2.38613 -0.0135769 0)
(-2.35727 -0.0139173 0)
(-2.32737 -0.0141698 0)
(-2.29647 -0.0142861 0)
(-2.26461 -0.0142433 6.6146e-20)
(-2.23177 -0.01435 5.89547e-20)
(-2.19791 -0.0146912 0)
(-2.16305 -0.0150271 0)
(-2.12724 -0.0153422 0)
(-2.09051 -0.0156442 -2.79971e-20)
(-2.05289 -0.0159325 0)
(-2.0144 -0.016208 0)
(-1.97509 -0.0164717 0)
(-1.93497 -0.0167233 7.07037e-21)
(-1.89408 -0.0169634 -1.65723e-20)
(-1.85244 -0.0171924 0)
(-1.81008 -0.0174107 0)
(-1.76703 -0.0176193 -4.70874e-20)
(-1.72333 -0.0178183 -5.79895e-20)
(-1.679 -0.0180088 0)
(-1.63406 -0.0181913 0)
(-1.58854 -0.0183664 9.31887e-20)
(-1.54247 -0.0185326 -1.05842e-19)
(-1.49586 -0.0186951 0)
(-1.44877 -0.0188448 0)
(-1.40118 -0.0189927 -1.46954e-19)
(-1.35316 -0.0191285 0)
(-1.30471 -0.0192639 0)
(-1.25589 -0.0193892 -1.9367e-19)
(-1.20668 -0.0195186 0)
(-1.15717 -0.0196421 -2.2853e-19)
(-1.10729 -0.0197752 0)
(-1.05714 -0.0199069 0)
(-1.00664 -0.0200529 0)
(-0.955876 -0.020203 3.09532e-19)
(-0.90478 -0.0203658 0)
(-0.853388 -0.0205416 0)
(-0.801684 -0.0207274 0)
(-0.749674 -0.0209267 0)
(-0.697359 -0.021141 0)
(-0.644736 -0.0213738 0)
(-0.591799 -0.0216286 5.06068e-19)
(-0.538535 -0.021909 5.42696e-19)
(-0.484929 -0.0222171 0)
(-0.430965 -0.0225532 0)
(-0.376636 -0.0229143 0)
(-0.321952 -0.0232929 -7.23805e-19)
(-0.266953 -0.0236837 0)
(-0.211721 -0.0240906 1.6871e-18)
(-0.156424 -0.0244579 -1.82759e-18)
(-0.101369 -0.0246573 -1.98527e-18)
(-0.0469842 -0.0245267 2.16295e-18)
(0.00376237 -0.0233169 -2.27418e-18)
(0.0608482 -0.0211031 2.24875e-18)
(0.0740836 -0.00994937 0)
(-5.31295e-05 0.0254647 0)
(-0.00660855 0.0444323 0)
(-0.0153779 0.0473934 1.97077e-18)
(-0.0196215 0.0396678 0)
(-0.00940802 0.0189831 -2.33408e-18)
(0.0220246 -0.0196479 -1.63245e-18)
(0.06427 -0.0703524 -4.67804e-19)
(0.114723 -0.11628 -3.15215e-19)
(0.169075 -0.148189 0)
(0.223157 -0.163965 -1.93431e-19)
(0.273914 -0.165619 0)
(0.319521 -0.157128 0)
(0.359341 -0.142359 2.71914e-19)
(0.393361 -0.124035 1.27471e-19)
(0.421713 -0.104024 -2.44929e-19)
(0.444685 -0.0834811 -2.38369e-19)
(0.462633 -0.062999 -1.1724e-19)
(0.475919 -0.0428202 0)
(0.484851 -0.0229236 0)
(0.49 -0.00313736 0)
(0.49216 0.0167091 -1.2073e-19)
(0.490931 0.0364811 0)
(0.485756 0.0558511 3.72618e-19)
(0.475906 0.0743778 0)
(0.460525 0.0913422 0)
(0.438794 0.105722 1.37829e-19)
(0.410086 0.116206 0)
(0.374217 0.12133 -1.5806e-19)
(0.331617 0.119808 -3.50628e-19)
(0.283447 0.110987 2.00208e-19)
(0.231707 0.0954034 0)
(0.17924 0.0750724 0)
(0.129335 0.0527701 0)
(0.0862014 0.0314482 -1.01205e-18)
(0.0540079 0.0140297 -1.36208e-18)
(0.0349661 0.00164416 -8.82491e-19)
(0.0287045 -0.00889539 0)
(0.0366024 -0.0218242 1.81116e-18)
(0.0539165 -0.0393334 0)
(0.0796027 -0.060708 -9.70858e-19)
(0.110921 -0.0794862 0)
(0.142051 -0.0874702 0)
(0.167201 -0.0821642 4.95516e-19)
(0.184187 -0.0666029 0)
(0.192381 -0.045793 1.38124e-18)
(0.192606 -0.0242758 -4.83571e-19)
(0.185951 -0.00546429 0)
(0.175305 0.00595366 -5.5427e-19)
(0.162766 0.00648653 -6.04593e-19)
(0.146724 -0.00219882 0)
(0.117748 -0.0132488 0)
(0.0582029 -0.00982046 0)
(-0.0648735 0.0355086 0)
(-0.236129 0.106536 0)
(-0.421215 0.174383 2.42769e-19)
(-0.611437 0.235429 3.53241e-19)
(-0.800628 0.286813 -1.37893e-19)
(-0.985143 0.322902 0)
(-1.15825 0.340769 1.97934e-19)
(-1.31709 0.34274 -8.906e-20)
(-1.45876 0.332319 0)
(-1.58252 0.312964 -7.44539e-20)
(-1.689 0.288136 0)
(-1.7798 0.260753 0)
(-1.85716 0.233125 -1.31216e-19)
(-1.92341 0.206832 6.31708e-20)
(-1.98075 0.182824 -1.23983e-19)
(-2.03106 0.161517 1.21158e-19)
(-2.07585 0.142971 5.91062e-20)
(-2.11632 0.127049 0)
(-2.15335 0.113489 5.70828e-20)
(-2.18759 0.101982 0)
(-2.21952 0.0922155 0)
(-2.24946 0.0838952 0)
(-2.27765 0.0767601 5.37908e-20)
(-2.30429 0.0705888 0)
(-2.32948 0.0651963 1.04594e-19)
(-2.35333 0.0604321 -1.54806e-19)
(-2.37591 0.0561735 -5.09364e-20)
(-2.39727 0.0523231 0)
(-2.41745 0.0488035 -4.96207e-20)
(-2.43649 0.0455531 0)
(-2.45441 0.0425233 -9.66851e-20)
(-2.47124 0.0396753 0)
(-2.48698 0.0369781 -9.41743e-20)
(-2.50166 0.0344066 1.85757e-19)
(-2.51528 0.0319405 9.16849e-20)
(-2.52784 0.0295624 0)
(-2.53936 0.0272583 0)
(-2.54982 0.0250157 0)
(-2.55925 0.0228234 -8.66962e-20)
(-2.56762 0.0206714 0)
(-2.57496 0.0185503 8.4168e-20)
(-2.58126 0.0164514 0)
(-2.58654 0.0143662 -2.44828e-19)
(-2.59082 0.0122865 -8.03065e-20)
(-2.59413 0.010204 -7.89989e-20)
(-2.59651 0.00811344 0)
(-2.59804 0.006028 0)
(-2.59882 0.00399987 0)
(-2.59892 0.00210282 0)
(-2.5981 0.000341408 0)
(-2.59614 -0.00134692 -1.41609e-19)
(-2.59302 -0.00299883 -1.38694e-19)
(-2.58871 -0.00462393 0)
(-2.58321 -0.0062268 6.62693e-20)
(-2.5765 -0.00780804 6.4731e-20)
(-2.56859 -0.00936723 0)
(-2.55946 -0.0109035 1.23395e-19)
(-2.54912 -0.0124158 0)
(-2.53757 -0.013903 -5.85928e-20)
(-2.5248 -0.0153639 0)
(-2.51081 -0.0167974 0)
(-2.4956 -0.0182024 1.06741e-19)
(-2.47918 -0.0195775 0)
(-2.46155 -0.020922 -4.96429e-20)
(-2.44272 -0.0222345 0)
(-2.42269 -0.0235142 0)
(-2.40146 -0.0247599 -4.44805e-20)
(-2.37906 -0.025971 -4.2126e-20)
(-2.35549 -0.0271462 0)
(-2.33075 -0.028285 3.86348e-20)
(-2.30487 -0.0293864 0)
(-2.27786 -0.0304502 -3.45535e-20)
(-2.24973 -0.0314761 -6.43839e-20)
(-2.2205 -0.0324651 0)
(-2.19019 -0.0334209 0)
(-2.1588 -0.034352 0)
(-2.12634 -0.0352665 0)
(-2.09282 -0.0361603 -4.15029e-20)
(-2.05825 -0.0370165 -1.11555e-19)
(-2.02271 -0.0378083 0)
(-1.98622 -0.038533 0)
(-1.9488 -0.0392047 0)
(-1.91046 -0.0398335 1.7032e-20)
(-1.87123 -0.0404224 0)
(-1.83114 -0.0409698 0)
(-1.79022 -0.0414745 -3.91776e-21)
(-1.7485 -0.0419385 2.76897e-21)
(-1.706 -0.0423628 9.72587e-21)
(-1.66275 -0.0427486 0)
(-1.61879 -0.0430969 0)
(-1.57413 -0.0434095 2.69661e-20)
(-1.52882 -0.0436873 -3.1404e-20)
(-1.48288 -0.0439323 0)
(-1.43633 -0.0441453 0)
(-1.3892 -0.0443285 -5.14557e-20)
(-1.34151 -0.0444791 1.72006e-19)
(-1.2933 -0.0446068 0)
(-1.24459 -0.044702 0)
(-1.19538 -0.0447711 7.78064e-20)
(-1.14574 -0.0448084 0)
(-1.09566 -0.0448203 1.81833e-19)
(-1.04519 -0.0448035 -9.72653e-20)
(-0.994342 -0.044768 0)
(-0.943157 -0.0447124 1.13729e-19)
(-0.891625 -0.0446481 2.40912e-19)
(-0.839789 -0.0445735 0)
(-0.787623 -0.0444993 0)
(-0.735163 -0.0444274 -1.45106e-19)
(-0.682378 -0.044355 0)
(-0.629287 -0.0442905 3.21779e-19)
(-0.575879 -0.0442265 0)
(-0.522157 -0.044166 0)
(-0.468119 -0.0441101 0)
(-0.413764 -0.0440626 0)
(-0.359083 -0.0440275 -2.06812e-19)
(-0.304066 -0.0440091 -2.16448e-19)
(-0.248696 -0.0440094 0)
(-0.19296 -0.0440266 0)
(-0.136848 -0.044054 0)
(-0.0803629 -0.0440748 2.57408e-19)
(-0.0235391 -0.0440585 0)
(0.0335596 -0.0439483 -5.46589e-19)
(0.0908277 -0.0436724 5.47651e-19)
(0.147998 -0.0431026 5.48789e-19)
(0.204982 -0.0420348 5.46852e-19)
(0.259661 -0.040045 5.52902e-19)
(0.31745 -0.0361621 5.55331e-19)
(0.352845 -0.0242715 0)
(0.000944836 0.0275208 0)
(0.00192622 0.0503268 0)
(0.00612788 0.0478208 -2.1434e-18)
(0.0231711 0.0193904 -1.71158e-18)
(0.0623413 -0.0427803 1.03266e-18)
(0.118949 -0.121883 6.30621e-19)
(0.181103 -0.192249 -3.27988e-22)
(0.239198 -0.239008 0)
(0.288856 -0.259814 0)
(0.329246 -0.259444 0)
(0.36139 -0.244549 0)
(0.386941 -0.22101 0)
(0.407427 -0.193227 -6.18884e-19)
(0.423931 -0.163978 0)
(0.43717 -0.134788 1.92227e-19)
(0.447598 -0.10641 1.89088e-19)
(0.455512 -0.0791405 0)
(0.46111 -0.053029 0)
(0.464566 -0.0280247 0)
(0.466008 -0.00400537 0)
(0.465805 0.0192703 1.94994e-19)
(0.464254 0.0421748 0)
(0.46168 0.0649818 -2.00553e-19)
(0.458252 0.0877266 0)
(0.453847 0.110112 0)
(0.447954 0.13144 0)
(0.439661 0.150577 -4.65558e-19)
(0.427676 0.16597 0)
(0.410552 0.175816 2.58157e-19)
(0.387053 0.178391 -5.53553e-19)
(0.356686 0.172522 0)
(0.320205 0.158063 0)
(0.27988 0.135975 0)
(0.239422 0.108137 4.47447e-19)
(0.2032 0.0769611 5.30674e-19)
(0.175263 0.0445461 0)
(0.158873 0.0112972 0)
(0.154175 -0.023594 -1.46555e-18)
(0.161045 -0.0600007 -1.27021e-18)
(0.175023 -0.0935234 1.03749e-18)
(0.187801 -0.113085 0)
(0.192051 -0.111363 0)
(0.186656 -0.092538 0)
(0.17282 -0.0638113 0)
(0.151673 -0.0330338 -7.53979e-19)
(0.124625 -0.00585743 -8.32026e-19)
(0.0915731 0.0184616 9.71181e-19)
(0.0480067 0.0382516 0)
(-0.0258627 0.05522 0)
(-0.14619 0.0999988 0)
(-0.303989 0.169037 0)
(-0.485004 0.246269 -3.76806e-19)
(-0.675288 0.323388 0)
(-0.86344 0.392987 0)
(-1.03948 0.448405 -1.93931e-19)
(-1.19824 0.488841 -1.68206e-19)
(-1.33374 0.512609 0)
(-1.4446 0.518586 2.7708e-19)
(-1.53334 0.508031 -1.27232e-19)
(-1.60357 0.484157 1.19556e-19)
(-1.65952 0.450909 0)
(-1.7053 0.412228 0)
(-1.74445 0.371562 0)
(-1.77967 0.331619 0)
(-1.81276 0.294248 9.7956e-20)
(-1.84477 0.260502 1.92011e-19)
(-1.87619 0.230791 9.28915e-20)
(-1.90719 0.205081 -9.07257e-20)
(-1.93773 0.18307 0)
(-1.9677 0.164332 1.74249e-19)
(-1.99698 0.1484 1.70731e-19)
(-2.02544 0.134825 1.67474e-19)
(-2.05299 0.123191 -1.64416e-19)
(-2.07957 0.113139 0)
(-2.10513 0.104374 -2.38223e-19)
(-2.12965 0.0966494 0)
(-2.15311 0.0897673 7.68027e-20)
(-2.17552 0.0835644 7.57058e-20)
(-2.19687 0.0779116 0)
(-2.21718 0.0727069 0)
(-2.23645 0.0678696 1.44484e-19)
(-2.2547 0.0633351 0)
(-2.27193 0.0590521 1.40176e-19)
(-2.28815 0.0549793 0)
(-2.30337 0.0510837 -1.35987e-19)
(-2.31759 0.0473378 -2.67948e-19)
(-2.33082 0.0437195 0)
(-2.34307 0.0402101 0)
(-2.35433 0.0367938 0)
(-2.36461 0.0334576 -1.25777e-19)
(-2.3739 0.0301902 0)
(-2.38223 0.0269828 -1.21724e-19)
(-2.38957 0.0238286 0)
(-2.39594 0.0207236 0)
(-2.40134 0.0176666 2.31254e-19)
(-2.40577 0.0146597 0)
(-2.40924 0.0117089 1.11532e-19)
(-2.41177 0.00882313 0)
(-2.41333 0.00601053 1.07404e-19)
(-2.4139 0.00326623 0)
(-2.41344 0.000558765 0)
(-2.41188 -0.00213853 0)
(-2.40921 -0.00481858 2.95802e-19)
(-2.4054 -0.00746909 9.62672e-20)
(-2.40045 -0.0100878 0)
(-2.39434 -0.0126736 0)
(-2.38707 -0.0152252 0)
(-2.37862 -0.0177409 0)
(-2.369 -0.0202191 -8.45781e-20)
(-2.35819 -0.0226578 1.64726e-19)
(-2.3462 -0.0250552 7.97098e-20)
(-2.33303 -0.0274092 -1.54928e-19)
(-2.31867 -0.0297181 -1.49938e-19)
(-2.30313 -0.0319798 -7.2184e-20)
(-2.2864 -0.0341926 0)
(-2.2685 -0.0363545 -1.34595e-19)
(-2.24942 -0.0384639 0)
(-2.22917 -0.040519 1.24045e-19)
(-2.20776 -0.0425181 5.90106e-20)
(-2.18519 -0.0444597 0)
(-2.16148 -0.0463421 -1.07722e-19)
(-2.13664 -0.0481636 -5.07103e-20)
(-2.11067 -0.0499226 0)
(-2.0836 -0.0516171 -4.57782e-20)
(-2.05543 -0.0532451 1.27103e-19)
(-2.02618 -0.054805 0)
(-1.99587 -0.056295 0)
(-1.96451 -0.0577157 0)
(-1.93211 -0.0590685 0)
(-1.89869 -0.0603593 5.50122e-20)
(-1.86427 -0.0616004 4.78749e-20)
(-1.8289 -0.062784 0)
(-1.79259 -0.063892 0)
(-1.75537 -0.0649236 0)
(-1.71726 -0.0658852 0)
(-1.67827 -0.06678 0)
(-1.63845 -0.0676064 0)
(-1.5978 -0.0683636 2.43888e-21)
(-1.55637 -0.069053 -1.05484e-21)
(-1.51417 -0.0696763 0)
(-1.47123 -0.0702352 0)
(-1.42759 -0.0707313 -2.38283e-20)
(-1.38328 -0.0711669 0)
(-1.33831 -0.0715439 3.89635e-20)
(-1.29272 -0.0718648 4.49508e-20)
(-1.24653 -0.0721317 0)
(-1.19978 -0.0723471 0)
(-1.15248 -0.0725117 -6.77526e-20)
(-1.10466 -0.0726305 -1.4786e-19)
(-1.05634 -0.0727017 0)
(-1.00755 -0.0727246 0)
(-0.958303 -0.0726997 0)
(-0.908641 -0.0726263 -1.04993e-19)
(-0.858576 -0.0725097 1.1262e-19)
(-0.808146 -0.0723537 0)
(-0.757358 -0.0721677 2.53628e-19)
(-0.706244 -0.0719568 1.33364e-19)
(-0.654802 -0.071731 -2.84781e-19)
(-0.603053 -0.0714945 0)
(-0.55099 -0.0712581 0)
(-0.498617 -0.0710169 -3.32171e-19)
(-0.445931 -0.0707794 -1.75291e-19)
(-0.39293 -0.0705383 0)
(-0.339614 -0.0702954 0)
(-0.285981 -0.0700524 0)
(-0.232027 -0.0698136 0)
(-0.177744 -0.0695843 -4.29297e-19)
(-0.123122 -0.0693693 0)
(-0.0681449 -0.0691704 0)
(-0.0127976 -0.0689842 0)
(0.0429314 -0.068798 0)
(0.0990439 -0.0685879 0)
(0.155524 -0.0683139 0)
(0.212322 -0.0679044 -5.09125e-19)
(0.269355 -0.0672634 0)
(0.326417 -0.0662334 0)
(0.383523 -0.0645653 -1.05848e-18)
(0.439163 -0.0618064 5.35126e-19)
(0.497372 -0.05701 -5.46749e-19)
(0.542949 -0.0451219 5.58864e-19)
(-0.00125394 0.0268879 0)
(0.000668688 0.0392907 4.7214e-18)
(0.0186071 0.0068301 0)
(0.0669908 -0.0788875 9.28018e-19)
(0.136071 -0.183792 0)
(0.206456 -0.270482 0)
(0.264784 -0.321786 -2.98629e-19)
(0.307155 -0.338906 0)
(0.335711 -0.331195 0)
(0.354527 -0.308663 0)
(0.367304 -0.278672 0)
(0.376583 -0.245657 0)
(0.383828 -0.21197 6.93679e-19)
(0.389745 -0.178752 3.37179e-19)
(0.394599 -0.146505 -3.30948e-19)
(0.39844 -0.115431 0)
(0.401235 -0.0855953 0)
(0.402952 -0.0569889 0)
(0.403577 -0.0295756 0)
(0.403123 -0.0032999 0)
(0.401685 0.0219472 3.44753e-19)
(0.399387 0.0463175 3.47749e-19)
(0.396464 0.0699712 -3.53224e-19)
(0.393232 0.093061 3.61254e-19)
(0.389993 0.115635 0)
(0.386936 0.137541 0)
(0.384036 0.158348 4.06134e-19)
(0.380933 0.177226 0)
(0.376829 0.19288 0)
(0.370519 0.203577 4.80435e-19)
(0.360656 0.207339 5.1193e-19)
(0.346226 0.202335 5.49789e-19)
(0.327065 0.187329 0)
(0.304198 0.162068 0)
(0.279787 0.127538 -7.476e-19)
(0.25689 0.0856343 0)
(0.238495 0.0388394 0)
(0.22624 -0.0104222 1.05334e-18)
(0.218705 -0.0592241 -9.24781e-19)
(0.208021 -0.0940508 7.73682e-19)
(0.188071 -0.102291 0)
(0.157743 -0.0857903 0)
(0.117907 -0.054468 1.38667e-18)
(0.0693441 -0.0146672 0)
(0.0115997 0.0296733 1.73311e-18)
(-0.0663889 0.0756867 2.345e-18)
(-0.172406 0.13125 -1.78601e-18)
(-0.30379 0.20077 8.93807e-19)
(-0.460225 0.279073 0)
(-0.632822 0.362754 0)
(-0.80842 0.444252 4.41847e-19)
(-0.975447 0.515812 1.85646e-19)
(-1.12471 0.571253 0)
(-1.25089 0.608171 0)
(-1.35318 0.627291 1.30738e-19)
(-1.43251 0.630527 2.43268e-19)
(-1.49071 0.619824 0)
(-1.53184 0.597192 -2.10911e-19)
(-1.56077 0.565087 2.01584e-19)
(-1.5822 0.526521 -1.91573e-19)
(-1.60009 0.484483 0)
(-1.61726 0.441566 0)
(-1.63547 0.399757 0)