/*--------------------------------*- C++ -*----------------------------------*\
  =========                 |
  \\      /  F ield         | OpenFOAM: The Open Source CFD Toolbox
   \\    /   O peration     | Website:  https://openfoam.org
    \\  /    A nd           | Version:  8
     \\/     M anipulation  |
\*---------------------------------------------------------------------------*/
FoamFile
{
    version     2.0;
    format      ascii;
    class       volScalarField;
    location    "500";
    object      k;
}
// * * * * * * * * * * * * * * * * * * * * * * * * * * * * * * * * * * * * * //

dimensions      [0 2 -2 0 0 0 0];

internalField   nonuniform List<scalar> 
12225
(
0.550513
1.65652
2.13976
3.34735
3.36524
2.66211
1.94526
1.74462
1.62376
1.40377
2.43891
2.65886
2.29597
2.62157
2.98233
2.8712
2.75863
2.66708
0.379441
0.444779
0.454592
0.636305
0.700711
0.70218
0.70766
0.725902
0.733835
0.723322
0.758172
0.800164
0.803981
0.857626
0.896137
0.879497
0.909433
0.912172
0.375186
0.378908
0.372345
0.384086
0.384335
0.380395
0.377364
0.374389
0.372921
0.366687
0.36485
0.364669
0.365752
0.368986
0.370602
0.371321
0.375167
0.375717
0.374481
0.373174
0.369056
0.36768
0.364843
0.360555
0.357665
0.353638
0.350014
0.348137
0.345219
0.341792
0.338605
0.334936
0.331385
0.327464
0.323318
0.319627
0.374268
0.372114
0.369639
0.367041
0.364529
0.361819
0.359521
0.357197
0.355238
0.353021
0.350871
0.34817
0.34571
0.342671
0.339884
0.336493
0.333328
0.329718
0.374094
0.371993
0.369912
0.367611
0.365421
0.363294
0.361445
0.359635
0.358033
0.356225
0.354507
0.352477
0.350611
0.348399
0.346373
0.343941
0.341717
0.339102
0.373993
0.371962
0.370011
0.36799
0.366036
0.364168
0.362495
0.360882
0.359402
0.357836
0.356343
0.354711
0.35318
0.351484
0.349902
0.348105
0.346444
0.344541
0.373959
0.37193
0.370008
0.368104
0.366271
0.364517
0.362907
0.361363
0.359923
0.358465
0.357073
0.355629
0.354261
0.352819
0.351458
0.349984
0.348606
0.347085
0.373946
0.371912
0.36999
0.368133
0.366359
0.364662
0.363078
0.361564
0.360139
0.358738
0.357402
0.356065
0.354793
0.3535
0.352273
0.350994
0.349791
0.348507
0.373941
0.371895
0.369964
0.368121
0.366371
0.364701
0.363128
0.361628
0.360209
0.358837
0.357532
0.356257
0.355044
0.353847
0.352708
0.351562
0.350476
0.349363
0.373938
0.371884
0.369943
0.368099
0.366351
0.364688
0.363114
0.361615
0.360193
0.358832
0.357537
0.356291
0.355105
0.353958
0.352865
0.351796
0.350777
0.34977
0.373936
0.371877
0.369927
0.368077
0.366324
0.364658
0.363078
0.361575
0.360147
0.358784
0.357489
0.35625
0.355071
0.353941
0.352864
0.351828
0.350838
0.349882
0.373935
0.371871
0.369916
0.368061
0.366301
0.36463
0.363044
0.361534
0.360099
0.358732
0.357431
0.35619
0.355009
0.35388
0.352804
0.351775
0.350793
0.349852
0.373934
0.371868
0.369908
0.368049
0.366284
0.364609
0.363016
0.361502
0.360061
0.358689
0.357382
0.356138
0.35495
0.353819
0.352738
0.351708
0.350723
0.349783
0.373933
0.371865
0.369903
0.36804
0.366272
0.364592
0.362996
0.361477
0.360032
0.358657
0.357346
0.356096
0.354905
0.353769
0.352685
0.351651
0.350663
0.349719
0.373932
0.371863
0.369899
0.368034
0.366264
0.364581
0.362982
0.36146
0.360012
0.358633
0.357319
0.356067
0.354872
0.353733
0.352646
0.351608
0.350618
0.349671
0.373932
0.371862
0.369896
0.368031
0.366258
0.364574
0.362973
0.36145
0.359999
0.358618
0.357302
0.356047
0.354851
0.35371
0.352621
0.351581
0.350588
0.34964
0.373933
0.371861
0.369896
0.368029
0.366257
0.364571
0.36297
0.361445
0.359995
0.358612
0.357296
0.356039
0.354843
0.3537
0.35261
0.351569
0.350576
0.349626
0.373932
0.371862
0.369896
0.368031
0.366258
0.364575
0.362972
0.361449
0.359997
0.358616
0.357298
0.356044
0.354846
0.353704
0.352613
0.351573
0.350579
0.34963
0.373933
0.371863
0.369899
0.368034
0.366264
0.36458
0.36298
0.361456
0.360007
0.358626
0.357311
0.356056
0.35486
0.353718
0.35263
0.351589
0.350597
0.349648
0.373933
0.371866
0.369903
0.368041
0.366271
0.36459
0.362992
0.361471
0.360024
0.358646
0.357332
0.35608
0.354886
0.353746
0.352659
0.351621
0.35063
0.349684
0.373934
0.371869
0.369909
0.368049
0.366283
0.364606
0.363011
0.361495
0.360052
0.358678
0.357368
0.356121
0.354929
0.353794
0.352709
0.351673
0.350683
0.349738
0.373935
0.371874
0.369918
0.368063
0.366301
0.364631
0.363045
0.361539
0.360105
0.35874
0.357437
0.356193
0.355004
0.353868
0.35278
0.351738
0.35074
0.349784
0.373939
0.371882
0.36993
0.368083
0.366333
0.364685
0.363122
0.36164
0.360223
0.358868
0.357563
0.356311
0.355102
0.35394
0.352815
0.351734
0.350686
0.349679
0.373951
0.371897
0.369949
0.368131
0.366422
0.364844
0.363333
0.361893
0.360488
0.35912
0.357766
0.356446
0.355141
0.353873
0.352623
0.351412
0.350218
0.349067
0.374004
0.371956
0.370053
0.36836
0.366816
0.365416
0.364004
0.362607
0.36114
0.359653
0.358111
0.35657
0.355001
0.353453
0.351895
0.350376
0.348858
0.347394
0.37427
0.372553
0.370952
0.369765
0.368736
0.367672
0.366377
0.364965
0.363288
0.36144
0.359429
0.357346
0.355195
0.353036
0.350887
0.348762
0.346707
0.344686
0.376208
0.37806
0.377438
0.378789
0.379531
0.378915
0.378448
0.377222
0.375531
0.373165
0.370766
0.368145
0.365835
0.363441
0.361593
0.359655
0.358476
0.35702
0.398167
0.412392
0.432015
0.45453
0.474278
0.489056
0.501371
0.511482
0.521248
0.529787
0.539274
0.548226
0.558775
0.568896
0.580694
0.591991
0.605051
0.615804
0.803662
1.12016
1.3458
1.48001
1.55211
1.56866
1.56155
1.54557
1.51574
1.483
1.4501
1.41847
1.38897
1.36187
1.33728
1.3151
1.29512
1.27741
1.87563e-08
4.61008e-07
2.35457e-06
9.29863e-06
3.11309e-05
9.51713e-05
0.000247438
0.000491162
0.000794166
0.00111296
0.00139873
0.00162033
0.00176875
0.00182468
0.00180232
0.0017301
0.00159336
0.00136437
0.00116351
0.000989893
0.000825416
0.00066521
0.0005107
0.000367001
0.000239162
0.000140032
7.42682e-05
3.73081e-05
1.89384e-05
1.03016e-05
6.25599e-06
4.7493e-06
5.34841e-06
1.11819e-05
2.57126e-05
0.000159588
0.00033517
0.000737857
0.00110688
0.00119663
0.00110138
0.000877919
0.000740172
0.00074394
0.000830166
0.0011386
0.00155478
0.0032244
0.00738598
0.022967
0.0583323
0.100876
0.123849
0.137725
0.143669
0.161366
0.15259
0.150107
0.170911
0.148101
0.163028
0.177016
0.158518
0.175004
0.182541
0.191461
0.199958
0.20819
0.216353
0.224304
0.232155
0.239892
0.247513
0.255058
0.2625
0.269872
0.277157
0.284369
0.291504
0.298561
0.305544
0.312443
0.319267
0.326001
0.332652
0.339208
0.345673
0.352034
0.358291
0.364431
0.370448
0.376334
0.382079
0.387669
0.393094
0.398342
0.403408
0.408294
0.413013
0.417611
0.422142
0.42648
0.430686
0.43474
0.438642
0.442391
0.445979
0.449408
0.452671
0.455766
0.458692
0.461445
0.464025
0.466427
0.468655
0.470701
0.472572
0.47426
0.475773
0.477101
0.478255
0.479225
0.480022
0.480637
0.481081
0.481346
0.481445
0.481415
0.481271
0.480774
0.48042
0.479478
0.478739
0.477718
0.476711
0.475533
0.474161
0.472539
0.470807
0.468915
0.466901
0.464759
0.462495
0.46012
0.457631
0.455043
0.452355
0.449589
0.446756
0.443832
0.440882
0.437799
0.434716
0.431508
0.428308
0.425036
0.421751
0.418443
0.415124
0.411805
0.408484
0.405171
0.401865
0.398573
0.395295
0.392042
0.388817
0.385631
0.382488
0.379395
0.376348
0.373345
0.370375
0.367404
0.36439
0.361243
0.357846
0.353873
0.348696
0.33256
8.01705e-08
2.25014e-06
1.53324e-05
6.71372e-05
0.000249142
0.000760769
0.00175759
0.00319284
0.00485328
0.00655741
0.00811093
0.00938589
0.0103222
0.0109186
0.0111921
0.0111517
0.0109706
0.010612
0.0100068
0.00917487
0.00812426
0.00690325
0.00557252
0.00422354
0.00292732
0.00193625
0.00122714
0.00075822
0.000459949
0.000281443
0.000180614
0.000133838
0.000105099
0.000170307
0.000230044
0.00168536
0.00342498
0.00703236
0.0101538
0.0118344
0.0117948
0.0114258
0.0115402
0.0131402
0.0173067
0.0233952
0.0345812
0.0537538
0.0804579
0.106729
0.1328
0.153072
0.167466
0.179408
0.191185
0.209099
0.22198
0.241927
0.258382
0.276376
0.297049
0.315022
0.335354
0.354543
0.374264
0.393131
0.412047
0.43053
0.448888
0.467013
0.484996
0.502833
0.520558
0.538181
0.555718
0.573174
0.59056
0.607873
0.625119
0.642292
0.659394
0.676414
0.693353
0.710199
0.726949
0.743591
0.760119
0.776522
0.792788
0.808905
0.824855
0.840627
0.8562
0.871549
0.88665
0.901471
0.915983
0.930148
0.94393
0.957288
0.970227
0.982967
0.995401
1.00757
1.01945
1.03103
1.04229
1.05323
1.06383
1.07409
1.084
1.09354
1.10271
1.1115
1.11989
1.12789
1.13549
1.14268
1.14945
1.15581
1.16174
1.16725
1.17232
1.17696
1.18117
1.18494
1.18828
1.19119
1.19366
1.1957
1.19734
1.1984
1.19921
1.19951
1.19967
1.19955
1.19911
1.19851
1.19748
1.19606
1.19426
1.1921
1.18957
1.1867
1.18348
1.17994
1.17608
1.17193
1.1675
1.16282
1.15784
1.15263
1.14712
1.1414
1.13542
1.12926
1.1229
1.11639
1.10973
1.10294
1.09603
1.08903
1.08192
1.07473
1.06746
1.06012
1.05273
1.0453
1.03786
1.03041
1.02295
1.01548
1.00799
1.00041
0.992697
0.984717
0.976257
0.967001
0.954998
0.927773
2.20657e-07
6.62289e-06
5.07402e-05
0.000244872
0.000723958
0.00206564
0.00417328
0.00661843
0.00906403
0.011277
0.0131216
0.0145394
0.015531
0.0161228
0.0163723
0.0163333
0.016145
0.0157713
0.0152206
0.0145338
0.0137062
0.0127291
0.0115831
0.0102754
0.00880795
0.00714793
0.00544228
0.00392804
0.00262235
0.00174365
0.00120064
0.0008989
0.000688226
0.00100286
0.00170799
0.00662849
0.0142087
0.022606
0.0288371
0.0324714
0.034037
0.0369941
0.0452203
0.061688
0.0796832
0.0984846
0.119663
0.141242
0.161744
0.183465
0.204672
0.226099
0.248481
0.273056
0.29962
0.327977
0.355911
0.385292
0.41367
0.442501
0.471011
0.498601
0.526016
0.552469
0.578535
0.603971
0.629001
0.653615
0.677918
0.701939
0.725734
0.749336
0.772776
0.796074
0.819248
0.842306
0.865258
0.888103
0.910842
0.933472
0.95599
0.978387
1.00066
1.02279
1.04478
1.06661
1.08828
1.10977
1.13106
1.15215
1.17302
1.19366
1.21405
1.23418
1.25403
1.27359
1.29284
1.31178
1.3304
1.3487
1.36668
1.38431
1.40158
1.41847
1.43496
1.45103
1.46667
1.48187
1.4966
1.51086
1.52464
1.53791
1.55066
1.56289
1.57459
1.58575
1.59635
1.60639
1.61586
1.62476
1.63308
1.64082
1.64797
1.65453
1.6605
1.66588
1.67067
1.67488
1.67849
1.68151
1.68396
1.6858
1.68712
1.68779
1.68807
1.68791
1.68718
1.68595
1.68418
1.68189
1.67908
1.67576
1.67194
1.66764
1.66286
1.65763
1.65196
1.64587
1.63938
1.63251
1.62524
1.61763
1.60962
1.6013
1.59264
1.58369
1.57446
1.56499
1.55531
1.54543
1.53537
1.52516
1.5148
1.50432
1.49371
1.483
1.4722
1.46135
1.45045
1.43954
1.42863
1.41771
1.40678
1.39581
1.38475
1.37352
1.36193
1.34976
1.33508
1.3097
8.15937e-07
2.45349e-05
0.000192875
0.000814195
0.00231877
0.0054774
0.00918002
0.0127765
0.0158921
0.0183523
0.0201233
0.0212443
0.021831
0.0219332
0.0217981
0.0214353
0.0208608
0.0201707
0.0193962
0.0185524
0.0176407
0.0166563
0.0155812
0.014393
0.013072
0.0115945
0.00998358
0.00830724
0.00673386
0.0051997
0.00407684
0.00302226
0.00314086
0.00482386
0.0117551
0.0264366
0.0407962
0.0522208
0.0610508
0.0695439
0.0802716
0.0941892
0.110248
0.126023
0.14242
0.160175
0.180821
0.202658
0.226597
0.252648
0.280285
0.309761
0.340866
0.373475
0.406965
0.440937
0.474832
0.508758
0.542117
0.575162
0.607651
0.639439
0.670693
0.701299
0.731418
0.76106
0.790314
0.81923
0.847867
0.876269
0.904477
0.932522
0.960428
0.988212
1.01589
1.04346
1.07092
1.09829
1.12554
1.15268
1.1797
1.20658
1.23332
1.25991
1.28632
1.31255
1.33859
1.36442
1.39003
1.41541
1.44053
1.46539
1.48997
1.51427
1.53826
1.56194
1.58528
1.60828
1.63092
1.65319
1.67505
1.69649
1.71749
1.73802
1.75806
1.77759
1.79659
1.81504
1.83292
1.85023
1.86693
1.88302
1.89847
1.91329
1.92745
1.94094
1.95375
1.96588
1.97731
1.98804
1.99806
2.00736
2.01596
2.02383
2.03098
2.03741
2.04312
2.0481
2.05237
2.05593
2.05877
2.06091
2.06231
2.06297
2.06313
2.06264
2.06145
2.05961
2.05713
2.05401
2.05026
2.04589
2.04092
2.03535
2.0292
2.0225
2.01526
2.00751
1.99926
1.99053
1.98133
1.97169
1.9616
1.9511
1.9402
1.92893
1.91732
1.9054
1.89321
1.88077
1.86811
1.85526
1.84222
1.82902
1.81566
1.80218
1.78859
1.77491
1.76119
1.74745
1.7337
1.71997
1.70625
1.69255
1.67884
1.66509
1.65117
1.63693
1.62073
1.59717
2.79061e-06
8.3734e-05
0.000627481
0.00237782
0.00653382
0.0120765
0.0172119
0.0213028
0.0241959
0.0259989
0.0269293
0.0271851
0.0270337
0.0265848
0.0258703
0.0250308
0.0241197
0.023175
0.0222187
0.0212589
0.0202914
0.019306
0.0182837
0.0172004
0.0160287
0.0147372
0.0133243
0.0118401
0.0103812
0.00887848
0.00744775
0.00785466
0.0118812
0.0244078
0.0449789
0.0646797
0.0810693
0.0939888
0.105049
0.116022
0.127778
0.140573
0.154405
0.170275
0.189338
0.211239
0.236004
0.263296
0.292848
0.324248
0.357125
0.391268
0.426364
0.462162
0.498323
0.534644
0.570917
0.60707
0.642916
0.678454
0.713607
0.748308
0.782597
0.816467
0.849978
0.883158
0.916057
0.948717
0.98118
1.01348
1.04565
1.0777
1.10967
1.14155
1.17336
1.20508
1.23673
1.26829
1.29975
1.3311
1.36233
1.39342
1.42436
1.45513
1.48572
1.51611
1.54628
1.57622
1.60591
1.63534
1.66449
1.69335
1.7219
1.75013
1.77802
1.80554
1.83268
1.85943
1.88575
1.91162
1.93703
1.96193
1.98631
2.01015
2.03341
2.05608
2.07813
2.09954
2.12028
2.14034
2.1597
2.17833
2.19623
2.21338
2.22975
2.24534
2.26014
2.27413
2.28731
2.29967
2.31119
2.32189
2.33174
2.34075
2.34892
2.35624
2.36272
2.36835
2.37315
2.37711
2.38023
2.38254
2.38395
2.38452
2.38448
2.38362
2.38197
2.37954
2.37637
2.37246
2.36781
2.36245
2.35638
2.34962
2.3422
2.33413
2.32543
2.31613
2.30625
2.2958
2.28482
2.27331
2.26129
2.24879
2.23582
2.22242
2.20863
2.19447
2.17999
2.16521
2.15017
2.13489
2.11941
2.10372
2.08786
2.07184
2.05569
2.03945
2.02315
2.00682
1.9905
1.9742
1.95796
1.94178
1.92568
1.90965
1.89364
1.87755
1.86
1.83706
8.89336e-06
0.00026005
0.00185013
0.00654783
0.0146057
0.0216317
0.0266042
0.0296557
0.031243
0.0318289
0.0317491
0.0312995
0.0304573
0.0294339
0.0283135
0.0271606
0.0260187
0.0249147
0.0238603
0.0228548
0.0218878
0.0209427
0.0199938
0.0190097
0.0179564
0.016768
0.0153872
0.0137907
0.0123748
0.0123962
0.0147173
0.0234643
0.0418818
0.0660807
0.0890414
0.107608
0.121214
0.13128
0.140122
0.149532
0.160428
0.174322
0.191592
0.21212
0.23614
0.263153
0.292658
0.324086
0.357003
0.391101
0.426136
0.461935
0.498341
0.535225
0.572441
0.609888
0.647461
0.685088
0.722671
0.760152
0.797481
0.834614
0.871546
0.908272
0.94481
0.981178
1.0174
1.05351
1.08953
1.12548
1.16138
1.19726
1.2331
1.26893
1.30473
1.34049
1.37621
1.41187
1.44746
1.48294
1.51832
1.55355
1.58864
1.62355
1.65826
1.69276
1.72703
1.76104
1.79478
1.82823
1.86136
1.89417
1.92664
1.95874
1.99045
2.02175
2.05262
2.08302
2.11294
2.14234
2.1712
2.19949
2.22718
2.25424
2.28066
2.30639
2.33142
2.35571
2.37924
2.40199
2.42393
2.44505
2.46533
2.48474
2.50327
2.5209
2.53762
2.55342
2.56829
2.58221
2.59519
2.60721
2.61826
2.62836
2.63749
2.64565
2.65285
2.65908
2.66435
2.66866
2.67202
2.67444
2.67581
2.67629
2.67599
2.67476
2.67262
2.66961
2.66575
2.66104
2.6555
2.64915
2.642
2.63408
2.62539
2.61598
2.60585
2.59504
2.58356
2.57145
2.55872
2.5454
2.53151
2.51706
2.50209
2.48663
2.47073
2.45441
2.43771
2.42068
2.40334
2.38574
2.36788
2.34981
2.33153
2.31307
2.29446
2.27575
2.25697
2.23816
2.21937
2.20062
2.18195
2.16339
2.14498
2.12675
2.10869
2.09073
2.0717
2.04844
2.85786e-05
0.00078103
0.00501778
0.0152335
0.0248114
0.0309004
0.0342401
0.0358065
0.0362406
0.0359879
0.0352253
0.0340738
0.0327258
0.0312874
0.0298397
0.0284411
0.0271275
0.0259163
0.0248081
0.0237919
0.0228485
0.021949
0.0210581
0.0201281
0.0192069
0.0183729
0.017808
0.017991
0.0201318
0.0265777
0.0403215
0.0622678
0.0865933
0.109239
0.127269
0.139813
0.148495
0.155856
0.163974
0.17513
0.189875
0.208302
0.23041
0.255814
0.28407
0.314449
0.346394
0.379509
0.413559
0.448398
0.483926
0.520081
0.556811
0.59407
0.631802
0.66995
0.708443
0.74721
0.786183
0.825301
0.864514
0.903777
0.943065
0.982363
1.02166
1.06098
1.1003
1.13966
1.17907
1.21853
1.25806
1.29765
1.33732
1.37704
1.4168
1.4566
1.4964
1.53618
1.57591
1.61557
1.65513
1.69456
1.73383
1.77293
1.81183
1.8505
1.88891
1.92705
1.96488
2.0024
2.03956
2.07637
2.11279
2.14879
2.18436
2.21947
2.25408
2.28817
2.3217
2.35466
2.387
2.41869
2.44972
2.48004
2.50962
2.53844
2.56645
2.59364
2.61997
2.64542
2.66996
2.69357
2.71622
2.7379
2.75858
2.77824
2.79688
2.81448
2.83102
2.84649
2.86089
2.87422
2.88646
2.89761
2.90768
2.91665
2.92453
2.93133
2.93704
2.94167
2.94522
2.94772
2.94904
2.9494
2.9488
2.94717
2.94453
2.94091
2.93633
2.9308
2.92435
2.91699
2.90875
2.89963
2.88968
2.87891
2.86734
2.85501
2.84193
2.82814
2.81367
2.79854
2.78277
2.76639
2.74943
2.73193
2.71392
2.69545
2.67657
2.65731
2.6377
2.61779
2.59761
2.57717
2.5565
2.53563
2.51461
2.49346
2.47223
2.45098
2.42974
2.40857
2.3875
2.36658
2.34587
2.32542
2.30526
2.28533
2.26461
2.24038
8.59917e-05
0.00215064
0.0118659
0.0254984
0.0338067
0.0381722
0.0402039
0.0407829
0.040459
0.0394778
0.0380198
0.0363134
0.0344981
0.0326846
0.0309536
0.0293586
0.0279258
0.0266602
0.0255505
0.0245767
0.0237128
0.0229318
0.0221612
0.0214626
0.0209844
0.0212581
0.023343
0.0289607
0.0407189
0.0590193
0.0809609
0.103055
0.123228
0.13936
0.150682
0.158547
0.165578
0.174343
0.186247
0.201917
0.221391
0.244372
0.270425
0.298921
0.32924
0.360827
0.393361
0.426676
0.460698
0.495397
0.530762
0.566797
0.603506
0.640886
0.678912
0.717543
0.756731
0.796423
0.836562
0.877091
0.917959
0.95912
1.00054
1.04219
1.08406
1.12614
1.16842
1.2109
1.25359
1.29649
1.33958
1.38288
1.42635
1.46999
1.51376
1.55764
1.60159
1.64557
1.68954
1.73347
1.77731
1.82103
1.8646
1.90799
1.95117
1.9941
2.03676
2.07912
2.12114
2.16281
2.20409
2.24497
2.28541
2.3254
2.36489
2.40387
2.44229
2.48013
2.51735
2.55391
2.58979
2.62495
2.65936
2.69297
2.72576
2.7577
2.78874
2.81885
2.84801
2.87617
2.90332
2.92943
2.95446
2.9784
3.00123
3.02292
3.04346
3.06284
3.08103
3.09804
3.11384
3.12844
3.14183
3.15401
3.16498
3.17472
3.18325
3.19057
3.19667
3.20157
3.20528
3.20779
3.20903
3.20921
3.20827
3.2062
3.20302
3.19874
3.1934
3.18702
3.17962
3.17122
3.16184
3.1515
3.14024
3.12807
3.11504
3.10116
3.08647
3.07098
3.05475
3.03779
3.02013
3.0018
2.98283
2.96327
2.94317
2.92256
2.90149
2.88
2.85813
2.83593
2.81341
2.79062
2.76758
2.74431
2.72087
2.6973
2.67364
2.64995
2.62629
2.6027
2.57923
2.55595
2.53292
2.51021
2.48787
2.46587
2.44326
2.41757
0.000223497
0.00507267
0.0215202
0.0346471
0.0413562
0.0444979
0.0455968
0.0454084
0.0443722
0.0426915
0.0406497
0.0384328
0.0361944
0.0340561
0.0321033
0.0303891
0.0289376
0.0277542
0.026831
0.0261471
0.0257331
0.0256777
0.0261221
0.0273857
0.0299932
0.0349392
0.0439891
0.0580434
0.075397
0.094546
0.113628
0.13073
0.14467
0.155247
0.163548
0.17161
0.181466
0.194405
0.210955
0.231059
0.254356
0.280326
0.308404
0.338021
0.368725
0.400229
0.432413
0.465249
0.498752
0.532958
0.567903
0.603629
0.640164
0.677519
0.715687
0.754651
0.794381
0.834837
0.875971
0.917736
0.960082
1.00297
1.04635
1.0902
1.1345
1.17922
1.22436
1.26989
1.31582
1.36213
1.40881
1.45583
1.50316
1.55078
1.59865
1.6467
1.69491
1.74321
1.79154
1.83986
1.88811
1.93625
1.98424
2.03204
2.07962
2.12693
2.17394
2.22062
2.26693
2.31284
2.35833
2.40336
2.44792
2.49196
2.53545
2.57836
2.62065
2.66229
2.70325
2.74347
2.78293
2.82159
2.8594
2.89633
2.93235
2.96741
3.00148
3.03452
3.06649
3.09736
3.1271
3.15568
3.18307
3.20924
3.23418
3.25786
3.28026
3.30137
3.32117
3.33965
3.3568
3.37261
3.38709
3.40023
3.41203
3.42248
3.43158
3.43935
3.44578
3.45088
3.45466
3.45712
3.45822
3.45814
3.4568
3.45422
3.45043
3.44543
3.43928
3.43198
3.42357
3.41406
3.40349
3.39188
3.37927
3.36567
3.35113
3.33567
3.31933
3.30212
3.2841
3.26529
3.24572
3.22542
3.20443
3.18281
3.16059
3.13784
3.11459
3.09088
3.06676
3.04226
3.01743
2.99229
2.96687
2.94122
2.91538
2.88939
2.86332
2.83721
2.81112
2.78512
2.75925
2.73359
2.70822
2.68322
2.65863
2.63446
2.60981
2.5824
0.000496994
0.0102157
0.0311963
0.0428409
0.0483029
0.0505689
0.0509443
0.0500968
0.0483786
0.046108
0.0435319
0.0408647
0.0382838
0.0359276
0.0338908
0.0322313
0.0309755
0.030107
0.029686
0.0296106
0.0300929
0.0314456
0.0342872
0.0393647
0.0473805
0.0586089
0.0724326
0.0878315
0.104038
0.119864
0.134194
0.146405
0.156627
0.165689
0.175055
0.186211
0.200208
0.217425
0.237771
0.260876
0.286265
0.313444
0.341958
0.371433
0.401627
0.432436
0.463852
0.495918
0.528696
0.562257
0.596668
0.631982
0.668238
0.705465
0.743676
0.782869
0.82303
0.864132
0.906142
0.949021
0.992728
1.03722
1.08247
1.12844
1.1751
1.22242
1.27038
1.31896
1.36815
1.41791
1.46822
1.51904
1.57033
1.62204
1.6741
1.72647
1.77906
1.8318
1.88463
1.93748
1.99027
2.04296
2.09549
2.14782
2.1999
2.25169
2.30316
2.35425
2.40493
2.45516
2.50492
2.55418
2.6029
2.65105
2.69858
2.74546
2.79165
2.83712
2.88182
2.92571
2.96875
3.01089
3.05209
3.09231
3.13152
3.16967
3.20672
3.24263
3.27736
3.31087
3.34313
3.37411
3.40377
3.4321
3.45906
3.48463
3.5088
3.53153
3.55283
3.57268
3.59106
3.60799
3.62345
3.63744
3.64995
3.661
3.67057
3.67868
3.68532
3.69051
3.69427
3.69657
3.69745
3.697
3.69517
3.69199
3.68749
3.68169
3.67464
3.66635
3.65685
3.64617
3.63434
3.6214
3.60737
3.59229
3.5762
3.55912
3.54109
3.52213
3.50229
3.4816
3.46009
3.4378
3.41478
3.39108
3.36676
3.34186
3.31644
3.29052
3.26415
3.23738
3.21025
3.18277
3.155
3.12697
3.09875
3.07037
3.04189
3.01338
2.9849
2.95649
2.92823
2.90019
2.87245
2.84512
2.81824
2.79183
2.76507
2.736
0.000942337
0.0174983
0.0396182
0.0502962
0.0550591
0.056742
0.056581
0.0551628
0.0529063
0.0501448
0.0471631
0.0442086
0.0414863
0.0391544
0.0373283
0.0360897
0.0355483
0.0355429
0.0363053
0.038047
0.0410971
0.0457836
0.0523545
0.0609534
0.0714907
0.0836444
0.0968226
0.110282
0.123363
0.135533
0.14658
0.15668
0.166525
0.177134
0.189525
0.204385
0.221981
0.2422
0.264727
0.289164
0.315121
0.342242
0.370241
0.398919
0.42818
0.458017
0.488482
0.519653
0.55162
0.584473
0.618287
0.653127
0.68905
0.726098
0.764298
0.803666
0.844202
0.885897
0.92873
0.972678
1.01771
1.06379
1.11089
1.15897
1.20801
1.25797
1.30881
1.36052
1.41305
1.46637
1.52043
1.57518
1.63056
1.68649
1.7429
1.7997
1.85682
1.91415
1.9716
2.0291
2.08655
2.14389
2.20106
2.25801
2.31468
2.37104
2.42701
2.48257
2.53766
2.59225
2.64631
2.6998
2.7527
2.80494
2.8565
2.90732
2.95738
3.00663
3.05502
3.1025
3.14904
3.19458
3.23908
3.28249
3.32477
3.36589
3.40579
3.44443
3.48178
3.51778
3.55241
3.58563
3.61741
3.64772
3.67654
3.70383
3.72959
3.75378
3.77641
3.79744
3.81689
3.83475
3.85101
3.86568
3.87876
3.89023
3.90011
3.90839
3.91509
3.92022
3.92379
3.92582
3.92633
3.92538
3.92293
3.91903
3.91372
3.90701
3.89896
3.88957
3.8789
3.86696
3.8538
3.83945
3.82395
3.80733
3.78963
3.77089
3.75113
3.7304
3.70872
3.68613
3.66267
3.63838
3.61333
3.58756
3.56114
3.53412
3.50654
3.47845
3.44987
3.42086
3.39145
3.36167
3.33158
3.30122
3.27065
3.23992
3.20909
3.17822
3.14736
3.11659
3.08595
3.05555
3.02546
2.99578
2.96659
2.93792
2.90899
2.87809
0.00150245
0.0249178
0.04763
0.0578107
0.0621062
0.0633535
0.0627726
0.0609167
0.0582616
0.0551999
0.0520661
0.0491421
0.0466627
0.0448092
0.0438254
0.0435929
0.0442105
0.0457844
0.0484618
0.0523877
0.0576776
0.0643868
0.0724796
0.0818285
0.0921813
0.103162
0.114356
0.125409
0.136128
0.146479
0.156691
0.167286
0.178948
0.192285
0.207715
0.225369
0.245147
0.266798
0.290024
0.314526
0.340048
0.366378
0.393369
0.42094
0.44908
0.477834
0.507285
0.537532
0.568676
0.600813
0.63403
0.668408
0.704013
0.740901
0.779115
0.818686
0.859631
0.901959
0.945667
0.990747
1.03718
1.08494
1.13399
1.18431
1.23586
1.2886
1.34249
1.39748
1.45354
1.5106
1.56862
1.6275
1.68715
1.74748
1.8084
1.86979
1.93156
1.99359
2.05577
2.11801
2.18019
2.24225
2.30412
2.36573
2.42702
2.48793
2.54841
2.6084
2.66786
2.72676
2.78505
2.84271
2.89969
2.95593
3.01141
3.06605
3.11984
3.17271
3.22463
3.27554
3.3254
3.37414
3.42172
3.46811
3.51324
3.55709
3.5996
3.64073
3.68044
3.71868
3.75541
3.7906
3.82423
3.85626
3.88666
3.91541
3.94249
3.96788
3.99156
4.01352
4.03377
4.0523
4.06912
4.08423
4.09762
4.10929
4.11924
4.12749
4.13402
4.13888
4.14208
4.14364
4.1436
4.14199
4.13876
4.13399
4.12772
4.11998
4.1108
4.10021
4.08826
4.07497
4.06039
4.04456
4.02751
4.00929
3.98994
3.96949
3.94798
3.92545
3.90193
3.87743
3.85202
3.82575
3.79868
3.77088
3.7424
3.7133
3.68362
3.6534
3.62268
3.59149
3.55986
3.52784
3.49549
3.46286
3.43002
3.39702
3.36391
3.33075
3.29759
3.26451
3.23156
3.19883
3.16642
3.13444
3.10295
3.07202
3.04092
3.00815
0.00223116
0.0316003
0.0551259
0.0653364
0.0694616
0.0704738
0.069591
0.0674101
0.0645182
0.0614008
0.0584491
0.0559621
0.054175
0.0533556
0.053284
0.0542364
0.0561922
0.0591986
0.0632842
0.0684529
0.0746753
0.0818776
0.0899334
0.0986779
0.107916
0.11747
0.12721
0.137075
0.147132
0.157606
0.168854
0.181277
0.195213
0.210865
0.228281
0.247362
0.267931
0.28977
0.312675
0.336464
0.361
0.386181
0.411955
0.438316
0.465302
0.49299
0.521475
0.550864
0.581266
0.612783
0.645514
0.679549
0.714968
0.751843
0.790228
0.830166
0.871694
0.91484
0.959619
1.00604
1.05409
1.10376
1.15502
1.20785
1.26221
1.31804
1.3753
1.43392
1.49383
1.55497
1.61724
1.68053
1.74471
1.80965
1.87522
1.9413
2.00779
2.07455
2.14147
2.20843
2.27533
2.34207
2.40857
2.47478
2.5406
2.60597
2.67081
2.73509
2.79877
2.86179
2.92413
2.98575
3.04659
3.10661
3.16575
3.22395
3.28118
3.33739
3.39253
3.44654
3.49938
3.55098
3.60129
3.65028
3.69789
3.74408
3.78881
3.83204
3.87371
3.91378
3.95222
3.98898
4.02405
4.05739
4.08899
4.1188
4.14682
4.17302
4.19738
4.2199
4.24059
4.25945
4.27648
4.29168
4.30506
4.31661
4.32635
4.33426
4.34036
4.34468
4.34726
4.34811
4.34732
4.34482
4.34061
4.3348
4.3274
4.31846
4.30802
4.2961
4.28275
4.268
4.25191
4.23451
4.21585
4.19597
4.17492
4.15274
4.12947
4.10515
4.07979
4.05341
4.02606
3.99784
3.96881
3.93904
3.90857
3.87747
3.84577
3.81352
3.78074
3.74746
3.71371
3.67956
3.64505
3.61027
3.57527
3.5401
3.50483
3.46949
3.43414
3.39884
3.36366
3.3287
3.29406
3.25985
3.22612
3.19298
3.15974
3.12516
0.00309975
0.037779
0.0627138
0.0731107
0.0771345
0.0779717
0.0768466
0.0744111
0.0713682
0.0683795
0.0659172
0.0642523
0.0635105
0.0634576
0.0644303
0.0663973
0.069307
0.0731253
0.0778156
0.0833323
0.0896085
0.0965665
0.104121
0.112201
0.120751
0.129744
0.139201
0.149229
0.159993
0.171699
0.184555
0.19872
0.214268
0.231187
0.249395
0.268763
0.289149
0.310417
0.332456
0.355178
0.378534
0.4025
0.427089
0.45234
0.478324
0.505134
0.532875
0.561655
0.591577
0.622751
0.655282
0.689271
0.72481
0.761982
0.80086
0.841511
0.883992
0.928352
0.974627
1.02284
1.07299
1.12508
1.17908
1.23497
1.29269
1.35219
1.41338
1.47617
1.54046
1.60612
1.67303
1.74104
1.80998
1.87967
1.94996
2.02069
2.09177
2.16309
2.23455
2.30603
2.37742
2.44862
2.51955
2.59012
2.66024
2.72976
2.79866
2.8669
2.93444
3.00123
3.06725
3.13243
3.19673
3.26008
3.32243
3.38373
3.44392
3.50296
3.5608
3.61739
3.67266
3.72657
3.77905
3.83007
3.87958
3.92755
3.97392
4.01866
4.06171
4.10304
4.1426
4.18036
4.2163
4.2504
4.28263
4.31297
4.3414
4.36789
4.39244
4.41505
4.43571
4.45444
4.47123
4.4861
4.49905
4.51007
4.51918
4.52638
4.5317
4.53517
4.53682
4.5367
4.5349
4.53121
4.52582
4.51875
4.51004
4.49973
4.48785
4.47446
4.45958
4.44328
4.42558
4.40654
4.3862
4.36462
4.34184
4.31791
4.29287
4.26676
4.23962
4.21139
4.18219
4.1521
4.1212
4.08955
4.05721
4.02421
3.99061
3.95645
3.92175
3.88653
3.8508
3.81464
3.77814
3.74136
3.70436
3.66719
3.62991
3.59255
3.55515
3.51778
3.48052
3.44347
3.40673
3.37041
3.33456
3.29932
3.26403
3.22775
0.00401359
0.0439433
0.0700902
0.0808008
0.0848038
0.0855004
0.0840108
0.0812673
0.0782799
0.0757491
0.0740736
0.0733436
0.0732598
0.0740358
0.0757555
0.0783565
0.081768
0.0859361
0.0908154
0.0963692
0.102562
0.109375
0.116788
0.124805
0.133447
0.142772
0.152864
0.163816
0.175737
0.188717
0.202799
0.217993
0.234261
0.25153
0.269715
0.288722
0.308479
0.328922
0.350018
0.37175
0.394129
0.417176
0.440948
0.465517
0.490959
0.51736
0.544831
0.573485
0.603437
0.634802
0.667695
0.70223
0.738512
0.776645
0.816718
0.858818
0.903023
0.949406
0.998021
1.0489
1.10205
1.15746
1.2151
1.27493
1.33688
1.40087
1.46677
1.53444
1.60369
1.67434
1.74619
1.81906
1.89276
1.9671
2.04187
2.11686
2.19203
2.26737
2.34281
2.41828
2.49363
2.56876
2.64361
2.71803
2.79188
2.86504
2.93748
3.00917
3.08005
3.15005
3.21914
3.28727
3.35438
3.4204
3.48527
3.54894
3.61136
3.67248
3.73226
3.79064
3.84757
3.90299
3.95685
4.0091
4.05971
4.10863
4.15584
4.2013
4.24495
4.28674
4.32665
4.36465
4.40071
4.43482
4.46697
4.49712
4.52526
4.55139
4.57549
4.59756
4.6176
4.63562
4.65161
4.6656
4.67758
4.68757
4.69557
4.70161
4.70571
4.70793
4.70829
4.70693
4.70367
4.69855
4.69168
4.68309
4.67284
4.66094
4.64745
4.63241
4.61586
4.59785
4.57843
4.55765
4.53556
4.5122
4.48764
4.46191
4.43508
4.40719
4.37827
4.34829
4.31735
4.28554
4.25292
4.21954
4.18546
4.15072
4.11538
4.07947
4.04304
4.00607
3.96854
3.9306
3.89231
3.85374
3.81496
3.776
3.73691
3.69774
3.6585
3.61925
3.5801
3.54116
3.50251
3.46426
3.42647
3.38928
3.35209
3.31431
0.00496992
0.0500622
0.0773123
0.0882507
0.0921785
0.0926883
0.0907922
0.0879237
0.085254
0.083379
0.0825003
0.0823053
0.0828352
0.0841907
0.0863996
0.0893921
0.0931091
0.097512
0.102579
0.108305
0.114692
0.121757
0.129523
0.138035
0.147338
0.15749
0.168537
0.180521
0.193451
0.207317
0.222108
0.237781
0.254273
0.27152
0.289476
0.308102
0.327385
0.34732
0.36792
0.389206
0.411232
0.434069
0.457828
0.482573
0.508314
0.535151
0.563271
0.592777
0.623781
0.656404
0.69077
0.727005
0.76523
0.805558
0.848093
0.892936
0.940175
0.98989
1.04215
1.097
1.15438
1.21426
1.27656
1.34124
1.40818
1.47728
1.5484
1.62133
1.69582
1.77156
1.84817
1.9255
2.00345
2.08186
2.16049
2.23914
2.31785
2.39661
2.47538
2.554
2.63235
2.71045
2.78832
2.86567
2.94237
3.01836
3.09353
3.1678
3.24109
3.31334
3.38452
3.45456
3.52342
3.59101
3.65729
3.72219
3.78568
3.84773
3.90829
3.96731
4.02473
4.0805
4.13457
4.1869
4.23746
4.28622
4.33315
4.37824
4.42141
4.46262
4.50184
4.53906
4.57425
4.60742
4.63855
4.66761
4.69461
4.71952
4.74234
4.76308
4.78174
4.79832
4.81285
4.82534
4.83579
4.84422
4.85062
4.85503
4.85747
4.85802
4.85685
4.85376
4.84873
4.8419
4.83331
4.823
4.811
4.79736
4.78212
4.76533
4.74703
4.72727
4.7061
4.68358
4.65974
4.63464
4.60834
4.5809
4.55235
4.52275
4.49215
4.46061
4.42815
4.39482
4.36068
4.32578
4.29017
4.2539
4.21702
4.17958
4.14161
4.10313
4.0641
4.02465
3.98486
3.94479
3.90448
3.86398
3.82335
3.78264