/*--------------------------------*- C++ -*----------------------------------*\
  =========                 |
  \\      /  F ield         | OpenFOAM: The Open Source CFD Toolbox
   \\    /   O peration     | Website:  https://openfoam.org
    \\  /    A nd           | Version:  8
     \\/     M anipulation  |
\*---------------------------------------------------------------------------*/
FoamFile
{
    version     2.0;
    format      ascii;
    class       volScalarField;
    location    "500";
    object      nut;
}
// * * * * * * * * * * * * * * * * * * * * * * * * * * * * * * * * * * * * * //

dimensions      [0 2 -1 0 0 0 0];

internalField   nonuniform List<scalar> 
12225
(
5.38819e-06
1.64809e-05
2.1724e-05
3.46994e-05
3.55938e-05
2.87172e-05
2.14231e-05
1.95463e-05
1.84717e-05
1.61844e-05
2.8441e-05
3.13254e-05
2.73158e-05
3.14705e-05
3.60876e-05
3.50027e-05
3.38512e-05
3.29389e-05
0.000244217
6.76873e-05
4.76347e-05
5.02337e-05
5.53283e-05
4.80168e-05
4.10914e-05
3.85206e-05
3.73479e-05
3.81541e-05
4.15651e-05
4.71479e-05
4.85538e-05
5.00107e-05
5.37583e-05
4.94219e-05
5.36298e-05
5.14528e-05
0.000993436
0.000374102
0.000199492
0.00012815
0.000102852
8.41315e-05
7.23693e-05
6.36247e-05
5.98673e-05
5.67208e-05
5.49353e-05
5.36625e-05
5.25259e-05
5.1045e-05
5.07141e-05
4.89125e-05
4.82333e-05
4.75326e-05
0.00103309
0.000799549
0.000564691
0.000392989
0.000307082
0.000257059
0.000226617
0.000201475
0.000185888
0.000173074
0.000163846
0.000153779
0.000147115
0.000138466
0.000133532
0.000126508
0.000122416
0.000116716
0.000985594
0.00094837
0.000846065
0.000705152
0.000602538
0.00053301
0.000489569
0.000451265
0.000425297
0.000398033
0.000379812
0.000357002
0.00034311
0.000323725
0.000312965
0.000296839
0.000288251
0.000274432
0.000951489
0.000954532
0.000931578
0.000873834
0.000811953
0.000760255
0.00072532
0.000691813
0.000667818
0.000638907
0.000618847
0.000591724
0.000574471
0.000550023
0.000535553
0.000513925
0.000501754
0.000482217
0.0009382
0.00094291
0.000940255
0.0009275
0.000903167
0.000878454
0.000859724
0.000841144
0.000827427
0.000808592
0.000794727
0.000774469
0.000760478
0.000740509
0.000727334
0.000708221
0.000695913
0.000677388
0.000936727
0.000937707
0.000939106
0.000934817
0.000926743
0.000915931
0.000906751
0.000897491
0.000889856
0.00088093
0.000873072
0.000860999
0.000852085
0.000838997
0.000829753
0.000816161
0.000806809
0.000792594
0.000936978
0.000936347
0.000936666
0.000935286
0.000932823
0.000928852
0.000924951
0.000920761
0.00091672
0.000911921
0.000907972
0.000902691
0.000897656
0.00089056
0.000884916
0.000876754
0.000870673
0.000861468
0.000937061
0.000936191
0.000935699
0.00093488
0.000933992
0.000932488
0.000931143
0.000929456
0.000927878
0.000925845
0.000924098
0.000921598
0.000919262
0.000916207
0.000913194
0.000909667
0.000906249
0.000901738
0.000937069
0.0009362
0.000935461
0.000934688
0.000934005
0.000933174
0.000932451
0.000931601
0.000930857
0.00092992
0.000929079
0.000928013
0.00092694
0.000925679
0.000924458
0.000922856
0.000921516
0.000919416
0.000937063
0.000936203
0.00093541
0.000934633
0.000933932
0.000933213
0.000932574
0.000931905
0.000931313
0.000930672
0.000930092
0.000929457
0.000928859
0.000928186
0.000927587
0.000926846
0.000926206
0.000925356
0.000937059
0.000936198
0.000935391
0.000934613
0.000933891
0.000933186
0.000932535
0.000931894
0.000931303
0.000930716
0.000930173
0.000929628
0.000929123
0.000928609
0.000928137
0.000927646
0.000927189
0.000926708
0.000937057
0.000936195
0.00093538
0.000934602
0.000933867
0.000933164
0.000932499
0.000931862
0.000931258
0.000930677
0.000930127
0.000929597
0.000929093
0.000928608
0.000928146
0.000927699
0.000927272
0.00092686
0.000937056
0.000936193
0.000935373
0.000934593
0.000933853
0.000933147
0.000932476
0.000931835
0.000931225
0.000930642
0.000930086
0.000929554
0.000929046
0.000928559
0.000928094
0.000927649
0.000927222
0.000926814
0.000937055
0.000936191
0.000935369
0.000934587
0.000933843
0.000933135
0.00093246
0.000931817
0.000931203
0.000930617
0.000930057
0.000929522
0.00092901
0.000928521
0.000928052
0.000927604
0.000927174
0.000926763
0.000937055
0.00093619
0.000935367
0.000934584
0.000933838
0.000933128
0.000932452
0.000931806
0.00093119
0.000930602
0.00093004
0.000929502
0.000928988
0.000928496
0.000928025
0.000927575
0.000927143
0.000926729
0.000937055
0.000936189
0.000935366
0.000934582
0.000933837
0.000933125
0.000932449
0.000931802
0.000931186
0.000930596
0.000930033
0.000929494
0.000928979
0.000928485
0.000928014
0.000927562
0.000927129
0.000926714
0.000937055
0.00093619
0.000935366
0.000934584
0.000933837
0.000933128
0.00093245
0.000931805
0.000931187
0.000930599
0.000930035
0.000929497
0.000928981
0.000928489
0.000928016
0.000927565
0.000927131
0.000926717
0.000937055
0.000936192
0.000935369
0.000934587
0.000933843
0.000933134
0.000932458
0.000931813
0.000931198
0.00093061
0.000930048
0.00092951
0.000928995
0.000928503
0.000928031
0.000927579
0.000927146
0.000926731
0.000937055
0.000936195
0.000935373
0.000934595
0.00093385
0.000933146
0.000932469
0.000931829
0.000931213
0.000930628
0.000930062
0.000929525
0.000929003
0.000928506
0.000928022
0.000927562
0.000927111
0.000926683
0.000937053
0.0009362
0.000935379
0.000934608
0.000933858
0.000933156
0.000932467
0.000931826
0.000931182
0.00093058
0.000929957
0.000929372
0.000928757
0.000928179
0.000927564
0.000926991
0.000926373
0.000925803
0.000937037
0.000936216
0.000935411
0.000934615
0.000933784
0.000932971
0.00093213
0.000931314
0.000930409
0.00092948
0.000928382
0.000927317
0.000926042
0.000924832
0.000923392
0.000922066
0.000920499
0.000919105
0.000936952
0.000936354
0.000935516
0.000934221
0.000932302
0.000930304
0.000928006
0.000925707
0.000922855
0.000919688
0.000916214
0.00091266
0.000908601
0.000904569
0.00089986
0.000895622
0.000890719
0.000886507
0.00093697
0.000936509
0.000934399
0.000928534
0.000918287
0.000909198
0.000899733
0.000888686
0.000881752
0.000872012
0.000860155
0.000848966
0.000836522
0.000825463
0.000813397
0.000803083
0.000791703
0.000782389
0.000936924
0.000925085
0.000914811
0.000882621
0.000847175
0.000819356
0.000792937
0.000768072
0.000740978
0.000716747
0.000691475
0.000670105
0.000648196
0.000630282
0.000611615
0.000596771
0.00058078
0.000568531
0.00092344
0.000843768
0.000796873
0.000695344
0.000624029
0.000570096
0.000522731
0.000485092
0.000450545
0.000423303
0.000397849
0.000378145
0.000359087
0.000344554
0.00032978
0.000318738
0.000306887
0.000298286
0.000693376
0.000531462
0.000415561
0.000324675
0.000265813
0.000226942
0.000199834
0.000180899
0.000166027
0.000154992
0.000145706
0.00013869
0.000132451
0.000127691
0.000123159
0.000119729
0.000116235
0.000113637
0.000196807
0.000114381
8.8794e-05
7.32325e-05
6.4926e-05
6.05884e-05
5.83693e-05
5.72221e-05
5.68941e-05
5.70198e-05
5.76105e-05
5.84633e-05
5.96432e-05
6.08725e-05
6.23376e-05
6.38197e-05
6.44181e-05
6.44104e-05
1.11283e-05
1.564e-05
1.89786e-05
2.11115e-05
2.24001e-05
2.28981e-05
2.30459e-05
2.30511e-05
2.28322e-05
2.25482e-05
2.22405e-05
2.19316e-05
2.16366e-05
2.13615e-05
2.11103e-05
2.0883e-05
2.0679e-05
2.05001e-05
1.6362e-12
1.84799e-10
9.43006e-10
3.72076e-09
1.24455e-08
3.80127e-08
9.87392e-08
1.95814e-07
3.16318e-07
4.42877e-07
5.56062e-07
6.43541e-07
7.01808e-07
7.23297e-07
7.13731e-07
6.84452e-07
6.29727e-07
5.38682e-07
4.58911e-07
3.90033e-07
3.24891e-07
2.6156e-07
2.00595e-07
1.44e-07
9.37397e-08
5.48266e-08
2.90466e-08
1.45754e-08
7.39062e-09
4.01568e-09
2.43591e-09
1.84716e-09
2.0778e-09
4.33906e-09
9.966e-09
6.17825e-08
1.29604e-07
2.84976e-07
4.26988e-07
4.61053e-07
4.23834e-07
3.37427e-07
2.84131e-07
2.85221e-07
3.17878e-07
4.35424e-07
5.9382e-07
1.22991e-06
2.81362e-06
8.73757e-06
2.21625e-05
3.82751e-05
4.69281e-05
5.21153e-05
4.84966e-05
4.90533e-05
4.23013e-05
3.83232e-05
4.07156e-05
3.33071e-05
3.48362e-05
3.61528e-05
3.11806e-05
3.32512e-05
3.35913e-05
3.42434e-05
3.48417e-05
3.54145e-05
3.59935e-05
3.65522e-05
3.71073e-05
3.76551e-05
3.81946e-05
3.87314e-05
3.92611e-05
3.97885e-05
4.03111e-05
4.08311e-05
4.13482e-05
4.18625e-05
4.2375e-05
4.28849e-05
4.33937e-05
4.39e-05
4.44056e-05
4.4909e-05
4.54117e-05
4.59126e-05
4.64121e-05
4.69096e-05
4.74054e-05
4.78991e-05
4.83905e-05
4.88786e-05
4.93631e-05
4.98438e-05
5.03209e-05
5.07961e-05
5.12722e-05
5.17553e-05
5.2251e-05
5.27427e-05
5.324e-05
5.3742e-05
5.42493e-05
5.47631e-05
5.52832e-05
5.58106e-05
5.63456e-05
5.68889e-05
5.74411e-05
5.80027e-05
5.85747e-05
5.91575e-05
5.97523e-05
6.03594e-05
6.09805e-05
6.16155e-05
6.22667e-05
6.29339e-05
6.36197e-05
6.43238e-05
6.50493e-05
6.5796e-05
6.6567e-05
6.73628e-05
6.81869e-05
6.90464e-05
6.99456e-05
7.08517e-05
7.18399e-05
7.28041e-05
7.38661e-05
7.49563e-05
7.61245e-05
7.73432e-05
7.8307e-05
7.80615e-05
7.78064e-05
7.75373e-05
7.72574e-05
7.69662e-05
7.66642e-05
7.63522e-05
7.60299e-05
7.56985e-05
7.53578e-05
7.50098e-05
7.46563e-05
7.42902e-05
7.39298e-05
7.3545e-05
7.31733e-05
7.27762e-05
7.23904e-05
7.19898e-05
7.15909e-05
7.11875e-05
7.07824e-05
7.03762e-05
6.99687e-05
6.95611e-05
6.91528e-05
6.87448e-05
6.8337e-05
6.79303e-05
6.75249e-05
6.7122e-05
6.67216e-05
6.63247e-05
6.59308e-05
6.55398e-05
6.51506e-05
6.47605e-05
6.43654e-05
6.39576e-05
6.35264e-05
6.30429e-05
6.24503e-05
6.08618e-05
6.99368e-12
1.12877e-09
1.53797e-08
8.28267e-08
3.59562e-07
1.21857e-06
2.78348e-06
5.08865e-06
7.88046e-06
1.10552e-05
1.42569e-05
1.72128e-05
1.97142e-05
2.15925e-05
2.26827e-05
2.30068e-05
2.26629e-05
2.18438e-05
1.95348e-05
1.63675e-05
1.2598e-05
9.24869e-06
6.50572e-06
4.37246e-06
2.75193e-06
1.69968e-06
1.03755e-06
6.44021e-07
4.04297e-07
2.65481e-07
1.92401e-07
1.69918e-07
1.60218e-07
2.99105e-07
4.58498e-07
3.63355e-06
7.48821e-06
1.51238e-05
2.08895e-05
2.28622e-05
2.15137e-05
1.95146e-05
1.69874e-05
1.62593e-05
1.70694e-05
1.75257e-05
2.10386e-05
2.89832e-05
4.03823e-05
5.19618e-05
6.4124e-05
7.44619e-05
8.32388e-05
9.10993e-05
9.94653e-05
0.000111896
0.000120643
0.000132385
0.00015008
0.000159487
0.000174535
0.000189067
0.00019881
0.000212164
0.000224176
0.000235847
0.000247272
0.000258105
0.000268596
0.000278727
0.000288577
0.00029814
0.000307484
0.000316604
0.000325549
0.000334317
0.00034294
0.000351418
0.000359769
0.000367996
0.000376111
0.000384113
0.000392012
0.000399806
0.000407503
0.0004151
0.000422606
0.000430017
0.000437339
0.000444569
0.000451709
0.00045875
0.000465689
0.000472509
0.00047919
0.000485699
0.000491988
0.000497988
0.000503597
0.000508681
0.00051316
0.000517732
0.000522077
0.000526351
0.000530477
0.000534487
0.000538363
0.000542109
0.000545718
0.000549191
0.000552524
0.000555714
0.000558759
0.000561658
0.000564408
0.000567007
0.000569455
0.000571749
0.000573889
0.000575873
0.000577701
0.000579371
0.000580884
0.000582236
0.000583429
0.00058446
0.000585327
0.000586027
0.000586564
0.000586947
0.000587206
0.000587193
0.000587137
0.00058684
0.00058654
0.000586219
0.000585959
0.000585817
0.000585491
0.000585031
0.00058444
0.00058372
0.000582874
0.000581906
0.000580818
0.00057961
0.000578283
0.000576836
0.000575257
0.000573782
0.000571888
0.000570276
0.000568184
0.000566293
0.000564102
0.000561926
0.00055965
0.0005573
0.000554891
0.000552419
0.000549893
0.000547315
0.000544686
0.000542008
0.000539282
0.000536511
0.000533699
0.000530852
0.000527975
0.000525069
0.000522133
0.000519161
0.000516149
0.000513053
0.000509825
0.000506387
0.000502606
0.000498177
0.000492342
0.000476143
1.92491e-11
3.29134e-09
6.21469e-08
3.80485e-07
1.05757e-06
3.0193e-06
6.36491e-06
1.1036e-05
1.67919e-05
2.3318e-05
3.02365e-05
3.70981e-05
4.32743e-05
4.84122e-05
5.22845e-05
5.48355e-05
5.62122e-05
5.65071e-05
5.49669e-05
5.20521e-05
4.73472e-05
4.13156e-05
3.40346e-05
2.67306e-05
2.00487e-05
1.43017e-05
9.70384e-06
6.46461e-06
4.10739e-06
2.73992e-06
1.95168e-06
1.56761e-06
1.34575e-06
2.2609e-06
4.34531e-06
1.72332e-05
3.5955e-05
5.3986e-05
6.30818e-05
6.12424e-05
4.92897e-05
4.05928e-05
4.04219e-05
4.72303e-05
5.46833e-05
6.45162e-05
7.77628e-05
9.03278e-05
0.000103784
0.000121611
0.00014082
0.000162469
0.000186149
0.000212433
0.000241201
0.000271846
0.000301551
0.000333248
0.000363992
0.000393
0.000422072
0.00044939
0.000475374
0.000500568
0.000524641
0.000547852
0.000570067
0.000591405
0.000612083
0.00063215
0.000651701
0.000670784
0.000689471
0.000707789
0.000725788
0.000743485
0.000760911
0.000778077
0.000795001
0.00081169
0.000828155
0.000844399
0.00086043
0.000876249
0.000891859
0.00090726
0.000922453
0.000937435
0.000952204
0.000966752
0.000981069
0.000995141
0.00100895
0.00102247
0.00103567
0.0010485
0.00106094
0.00107292
0.00108443
0.00109546
0.00110616
0.00111671
0.00112695
0.00113695
0.00114667
0.00115612
0.00116528
0.00117416
0.00118274
0.00119102
0.00119899
0.00120665
0.00121399
0.00122101
0.00122771
0.00123408
0.00124011
0.00124582
0.00125119
0.00125622
0.00126091
0.00126527
0.00126928
0.00127295
0.00127628
0.00127927
0.00128191
0.00128421
0.00128617
0.00128781
0.00128911
0.00129005
0.00129072
0.00129099
0.00129113
0.00129112
0.00129091
0.00129052
0.00128981
0.0012888
0.0012875
0.00128591
0.00128404
0.0012819
0.00127948
0.0012768
0.00127386
0.00127067
0.00126726
0.00126373
0.00125976
0.00125585
0.00125141
0.00124701
0.00124222
0.00123733
0.00123224
0.00122699
0.00122161
0.00121608
0.00121044
0.00120469
0.00119882
0.00119285
0.00118678
0.00118062
0.00117438
0.00116806
0.00116169
0.00115526
0.00114878
0.00114223
0.00113558
0.00112877
0.0011217
0.0011142
0.00110597
0.00109624
0.00108313
0.00105372
7.11783e-11
1.20292e-08
1.89696e-07
8.31128e-07
2.55981e-06
7.06318e-06
1.39533e-05
2.31995e-05
3.40754e-05
4.54813e-05
5.64979e-05
6.65482e-05
7.51561e-05
8.17101e-05
8.66419e-05
8.97707e-05
9.10266e-05
9.077e-05
8.91343e-05
8.59404e-05
8.13195e-05
7.57154e-05
6.82538e-05
5.93338e-05
4.94915e-05
3.95923e-05
3.05054e-05
2.29266e-05
1.71145e-05
1.24785e-05
9.64481e-06
7.26004e-06
7.96089e-06
1.21693e-05
2.70271e-05
5.04694e-05
6.91293e-05
7.7542e-05
7.50333e-05
7.24624e-05
7.29634e-05
7.70934e-05
8.52513e-05
9.6781e-05
0.000111823
0.000123926
0.000144252
0.000167493
0.000194901
0.000227813
0.000263565
0.000303099
0.00034488
0.000388816
0.000433721
0.000478809
0.000523022
0.000567134
0.000609105
0.000649924
0.000689346
0.000726741
0.000762986
0.000797861
0.000831367
0.000863734
0.00089503
0.000925421
0.000955029
0.000983938
0.00101223
0.00103998
0.00106723
0.00109403
0.00112042
0.00114641
0.00117203
0.0011973
0.00122222
0.0012468
0.00127105
0.00129497
0.00131857
0.00134184
0.00136479
0.0013874
0.00140968
0.00143163
0.00145323
0.00147447
0.00149534
0.00151583
0.00153592
0.00155559
0.00157481
0.00159356
0.00161182
0.0016296
0.00164689
0.00166373
0.00168021
0.00169633
0.00171205
0.00172737
0.00174229
0.00175678
0.00177084
0.00178447
0.00179764
0.00181036
0.00182262
0.00183441
0.00184572
0.00185655
0.0018669
0.00187675
0.00188612
0.00189499
0.00190335
0.00191122
0.00191859
0.00192546
0.00193182
0.00193769
0.00194305
0.00194791
0.00195227
0.00195613
0.00195951
0.00196239
0.00196479
0.00196672
0.00196815
0.00196907
0.00196976
0.00197008
0.00197
0.00196953
0.00196861
0.00196725
0.00196546
0.00196325
0.00196062
0.00195758
0.00195414
0.00195031
0.0019461
0.00194153
0.00193663
0.00193142
0.00192579
0.00191994
0.00191363
0.00190712
0.0019002
0.00189306
0.00188563
0.00187796
0.00187008
0.00186199
0.00185371
0.00184527
0.00183666
0.00182789
0.00181898
0.00180992
0.00180074
0.00179145
0.00178207
0.00177262
0.0017631
0.00175347
0.00174371
0.00173375
0.00172344
0.00171259
0.00170078
0.00168695
0.00166857
0.00163369
2.43439e-10
3.61152e-08
4.25265e-07
2.00107e-06
6.93352e-06
1.65948e-05
3.065e-05
4.73033e-05
6.46168e-05
8.09145e-05
9.50347e-05
0.000106127
0.000114335
0.000119951
0.000123039
0.000124202
0.000123711
0.000121831
0.00011877
0.00011452
0.000109105
0.000103065
9.56029e-05
8.68289e-05
7.66989e-05
6.5523e-05
5.41616e-05
4.38813e-05
3.53502e-05
2.82863e-05
2.23467e-05
2.10709e-05
2.68843e-05
4.48439e-05
6.89276e-05
8.43599e-05
9.19222e-05
9.53771e-05
9.83521e-05
0.000103732
0.000113045
0.000127219
0.00014055
0.000153966
0.000176382
0.000205694
0.000238704
0.000277961
0.000321886
0.000370116
0.000420812
0.000473978
0.000528224
0.000583171
0.000637879
0.000691907
0.000744738
0.00079653
0.000846328
0.000894564
0.000941439
0.000986769
0.00103053
0.00107288
0.00111393
0.00115383
0.00119269
0.00123064
0.00126776
0.00130415
0.00133987
0.00137498
0.00140952
0.00144355
0.00147707
0.00151011
0.0015427
0.00157482
0.0016065
0.00163774
0.00166854
0.00169889
0.00172881
0.00175828
0.00178731
0.00181589
0.00184402
0.00187168
0.00189889
0.00192561
0.00195185
0.00197759
0.00200282
0.00202753
0.00205171
0.00207535
0.00209846
0.00212103
0.00214309
0.00216464
0.00218571
0.00220629
0.00222637
0.00224592
0.00226494
0.00228342
0.00230135
0.00231872
0.00233551
0.00235172
0.00236734
0.00238236
0.00239678
0.0024106
0.00242381
0.0024364
0.00244837
0.00245973
0.00247046
0.00248057
0.00249005
0.00249892
0.00250716
0.00251479
0.00252179
0.00252818
0.00253396
0.00253913
0.0025437
0.00254767
0.00255103
0.00255383
0.00255597
0.00255753
0.00255876
0.00255944
0.0025596
0.00255923
0.00255831
0.00255686
0.00255488
0.00255238
0.00254936
0.00254583
0.00254181
0.00253732
0.00253235
0.00252693
0.00252109
0.00251484
0.00250813
0.00250104
0.00249349
0.00248559
0.00247727
0.0024686
0.0024596
0.00245029
0.00244069
0.00243083
0.00242073
0.0024104
0.00239986
0.00238911
0.00237816
0.00236703
0.00235574
0.0023443
0.00233274
0.00232106
0.00230927
0.00229735
0.00228529
0.002273
0.00226035
0.00224713
0.00223292
0.00221668
0.00219546
0.00216035
7.75813e-10
8.84731e-08
1.0656e-06
5.41298e-06
1.75347e-05
3.68162e-05
5.98086e-05
8.32334e-05
0.000103711
0.000119875
0.000131875
0.000140618
0.000145973
0.000148865
0.000149802
0.000149165
0.000147202
0.000144107
0.000140025
0.00013491
0.000128914
0.000122329
0.000114557
0.000105721
9.4189e-05
7.85838e-05
6.34523e-05
4.93645e-05
3.83619e-05
3.3756e-05
3.49979e-05
4.71384e-05
6.8997e-05
9.0406e-05
0.000105252
0.00011427
0.000120201
0.000126824
0.000137599
0.000154497
0.000165698
0.000179777
0.000203897
0.000233456
0.0002698
0.000312843
0.000360719
0.00041377
0.000469898
0.000528613
0.000588754
0.000649925
0.000711288
0.000772464
0.000832917
0.000892416
0.000950306
0.00100699
0.00106243
0.00111626
0.00116862
0.0012195
0.00126896
0.00131712
0.00136408
0.00140995
0.00145481
0.00149878
0.00154191
0.00158429
0.00162597
0.00166699
0.0017074
0.00174722
0.00178646
0.00182515
0.00186328
0.00190087
0.00193791
0.0019744
0.00201034
0.00204574
0.00208058
0.00211488
0.00214861
0.00218179
0.0022144
0.00224645
0.00227792
0.00230882
0.00233914
0.00236887
0.002398
0.00242654
0.00245447
0.00248179
0.00250852
0.00253466
0.00256021
0.00258518
0.00260956
0.00263335
0.00265653
0.0026791
0.00270104
0.00272234
0.002743
0.002763
0.00278234
0.002801
0.00281897
0.00283627
0.00285287
0.00286878
0.00288399
0.0028985
0.00291231
0.00292542
0.00293783
0.00294953
0.00296053
0.00297083
0.00298044
0.00298934
0.00299756
0.00300509
0.00301193
0.0030181
0.00302363
0.00302845
0.00303261
0.00303612
0.00303889
0.00304106
0.00304277
0.00304385
0.00304433
0.0030442
0.00304346
0.00304213
0.00304022
0.00303772
0.00303464
0.003031
0.00302681
0.00302208
0.00301683
0.00301108
0.00300483
0.0029981
0.00299089
0.00298321
0.00297505
0.00296645
0.0029574
0.00294795
0.0029381
0.00292789
0.00291735
0.0029065
0.00289536
0.00288395
0.00287228
0.00286036
0.00284819
0.00283581
0.00282322
0.00281046
0.00279754
0.00278447
0.00277128
0.00275795
0.00274445
0.00273074
0.00271669
0.00270212
0.00268666
0.00266936
0.00264757
0.00261442
2.49306e-09
2.2685e-07
2.82102e-06
1.47126e-05
3.81321e-05
6.74733e-05
9.54393e-05
0.000118172
0.000135463
0.000148199
0.000157054
0.000162446
0.000165279
0.000166189
0.000165605
0.000163813
0.000160996
0.000157244
0.000152491
0.000146667
0.000140027
0.000132322
0.0001233
0.000106699
9.12554e-05
7.76389e-05
6.55013e-05
5.68912e-05
5.59036e-05
6.48742e-05
7.90289e-05
0.000103869
0.00012078
0.000133407
0.000142672
0.000150971
0.000162321
0.000179619
0.00018847
0.000202419
0.000225519
0.000254171
0.000290707
0.000333495
0.000382992
0.000437769
0.000496277
0.000557868
0.000621242
0.000685929
0.000751223
0.000816715
0.000881939
0.000946622
0.00101013
0.00107256
0.00113425
0.00119448
0.00125338
0.0013109
0.00136707
0.00142193
0.00147552
0.00152793
0.00157924
0.00162953
0.00167886
0.00172733
0.00177497
0.00182186
0.00186804
0.00191353
0.00195836
0.00200255
0.0020461
0.00208903
0.00213133
0.002173
0.00221403
0.00225441
0.00229416
0.00233325
0.0023717
0.00240949
0.00244663
0.00248311
0.00251894
0.00255412
0.00258863
0.00262249
0.00265569
0.00268823
0.0027201
0.00275131
0.00278186
0.00281173
0.00284094
0.00286946
0.00289731
0.00292449
0.00295102
0.00297687
0.00300205
0.00302654
0.00305033
0.00307343
0.00309581
0.00311749
0.00313844
0.00315868
0.0031782
0.00319698
0.00321502
0.00323232
0.00324886
0.00326466
0.00327971
0.00329401
0.00330756
0.00332036
0.00333241
0.00334372
0.00335428
0.00336411
0.0033732
0.00338156
0.00338919
0.00339614
0.0034024
0.00340786
0.00341265
0.00341675
0.00342004
0.00342276
0.0034249
0.00342637
0.00342718
0.00342735
0.00342689
0.00342579
0.00342407
0.00342174
0.00341883
0.00341536
0.00341133
0.00340674
0.00340159
0.00339591
0.0033897
0.00338297
0.00337572
0.00336798
0.00335973
0.003351
0.00334179
0.00333214
0.00332206
0.00331159
0.00330074
0.00328955
0.00327804
0.00326621
0.00325408
0.00324167
0.00322898
0.00321604
0.00320285
0.00318946
0.00317588
0.00316214
0.00314824
0.00313418
0.00311997
0.00310554
0.00309084
0.0030757
0.00305983
0.00304248
0.00302159
0.00299153
7.50149e-09
6.00189e-07
7.59679e-06
3.12718e-05
6.54757e-05
9.97409e-05
0.000128053
0.000148876
0.000163042
0.000171707
0.000176136
0.00017796
0.000178034
0.000176763
0.000174469
0.000171312
0.000167253
0.000162208
0.000156304
0.000149663
0.000142113
0.000133288
0.000115751
9.91644e-05
8.55118e-05
7.65469e-05
7.45555e-05
7.84628e-05
8.92235e-05
0.000110173
0.00013483
0.000157153
0.0001701
0.000180036
0.000191741
0.000201586
0.000208966
0.000222215
0.000242776
0.000269482
0.000303947
0.000344805
0.000392717
0.000446342
0.000505033
0.00056717
0.000631643
0.000697795
0.000764909
0.00083258
0.000900365
0.000967955
0.00103481
0.00110081
0.00116639
0.00123085
0.00129424
0.00135642
0.00141739
0.00147713
0.00153568
0.00159305
0.0016493
0.00170448
0.00175865
0.00181187
0.0018642
0.00191569
0.0019664
0.00201636
0.00206562
0.00211418
0.00216208
0.0022093
0.00225585
0.00230172
0.0023469
0.00239139
0.00243517
0.00247823
0.00252056
0.00256216
0.00260304
0.00264318
0.00268259
0.00272125
0.0027592
0.00279641
0.00283291
0.00286869
0.00290376
0.00293811
0.00297174
0.00300467
0.00303688
0.00306838
0.00309915
0.00312919
0.00315852
0.00318714
0.00321506
0.00324228
0.00326878
0.00329455
0.0033196
0.00334392
0.00336749
0.00339032
0.0034124
0.00343372
0.00345427
0.00347406
0.00349307
0.00351132
0.00352879
0.00354548
0.0035614
0.00357655
0.00359092
0.00360452
0.00361736
0.00362943
0.00364074
0.0036513
0.0036611
0.00367016
0.00367848
0.00368612
0.00369298
0.00369909
0.00370449
0.00370919
0.00371306
0.00371637
0.00371903
0.003721
0.00372231
0.00372295
0.00372294
0.00372229
0.00372101
0.0037191
0.00371658
0.00371345
0.00370974
0.00370544
0.00370058
0.00369516
0.0036892
0.0036827
0.00367567
0.00366811
0.00366002
0.00365143
0.00364235
0.0036328
0.0036228
0.00361238
0.00360157
0.00359038
0.00357884
0.00356695
0.00355473
0.0035422
0.00352936
0.00351623
0.00350284
0.0034892
0.00347536
0.00346132
0.0034471
0.00343272
0.00341817
0.00340343
0.00338846
0.00337319
0.00335748
0.00334067
0.00332113
0.00329473
1.94968e-08
1.49064e-06
1.6805e-05
5.23968e-05
9.32795e-05
0.000127887
0.000153635
0.000170809
0.000181518
0.000187026
0.000188714
0.000187688
0.000184916
0.00018111
0.000176655
0.000171665
0.000166052
0.000159874
0.000153018
0.000145661
0.000137517
0.000125992
0.000114325
0.000107434
0.000102191
9.88091e-05
0.000104474
0.000120188
0.000139839
0.000160725
0.000180216
0.000196299
0.00020773
0.000216549
0.000225926
0.000238465
0.000256761
0.000280858
0.000312162
0.000350014
0.000394635
0.000445153
0.00050127
0.000561743
0.000625525
0.000691409
0.000758665
0.000826799
0.000895376
0.000964074
0.00103256
0.00110027
0.00116766
0.00123445
0.00130037
0.00136529
0.00142918
0.00149198
0.00155369
0.0016143
0.00167383
0.00173231
0.00178977
0.00184628
0.00190186
0.00195658
0.00201047
0.00206357
0.00211594
0.00216761
0.00221862
0.00226896
0.00231866
0.00236771
0.00241606
0.00246372
0.00251068
0.0025569
0.00260237
0.00264707
0.00269098
0.00273411
0.00277644
0.00281799
0.00285878
0.00289883
0.00293809
0.00297655
0.00301424
0.00305114
0.00308728
0.00312265
0.00315727
0.00319113
0.00322424
0.00325661
0.00328824
0.00331915
0.00334933
0.00337878
0.00340751
0.0034355
0.00346275
0.00348926
0.00351503
0.00354004
0.0035643
0.0035878
0.00361054
0.0036325
0.0036537
0.00367411
0.00369375
0.00371262
0.0037307
0.003748
0.00376452
0.00378027
0.00379524
0.00380944
0.00382288
0.00383554
0.00384745
0.0038586
0.003869
0.00387866
0.0038876
0.00389584
0.00390327
0.00390999
0.003916
0.00392128
0.00392578
0.00392971
0.00393295
0.0039355
0.00393739
0.00393862
0.0039392
0.00393913
0.00393844
0.00393712
0.00393519
0.00393267
0.00392955
0.00392586
0.0039216
0.00391678
0.00391141
0.0039055
0.00389905
0.00389207
0.00388456
0.00387653
0.003868
0.00385899
0.00384952
0.00383962
0.00382931
0.0038186
0.00380752
0.00379607
0.00378426
0.00377211
0.00375963
0.00374684
0.00373375
0.0037204
0.0037068
0.00369299
0.00367898
0.00366478
0.00365041
0.00363586
0.00362112
0.00360613
0.00359075
0.00357454
0.00355621
0.00353303
4.33553e-08
3.4362e-06
3.0178e-05
7.61614e-05
0.000120518
0.000154163
0.000176202
0.000190052
0.000196585
0.000197687
0.00019527
0.000190721
0.000184974
0.000178613
0.000171839
0.000164641
0.000157184
0.000149114
0.000141115
0.000132822
0.000124474
0.000117066
0.000112438
0.000112838
0.000119489
0.000131819
0.000147827
0.000165458
0.000183302
0.0002
0.00021388
0.000225165
0.000237184
0.000250549
0.000267665
0.000289379
0.000317414
0.000351689
0.00039234
0.000438795
0.000490738
0.000547457
0.000608271
0.000672109
0.000738026
0.000805212
0.000873163
0.00094152
0.00100999
0.00107802
0.00114559
0.00121308
0.00127978
0.00134572
0.00141077
0.00147487
0.00153799
0.0016001
0.0016612
0.00172129
0.00178039
0.00183854
0.00189578
0.00195217
0.00200774
0.00206256
0.00211663
0.00216996
0.00222266
0.00227475
0.00232626
0.0023772
0.00242759
0.00247747
0.00252692
0.00257577
0.00262388
0.00267121
0.00271775
0.00276345
0.0028083
0.00285229
0.0028954
0.00293765
0.00297903
0.00301951
0.00305918
0.00309804
0.00313613
0.00317344
0.00320999
0.00324578
0.00328082
0.00331512
0.00334868
0.0033815
0.0034136
0.00344497
0.00347561
0.00350551
0.00353468
0.00356311
0.00359079
0.00361773
0.00364393
0.00366937
0.00369406
0.00371799
0.00374116
0.00376357
0.00378521
0.00380609
0.00382619
0.00384553
0.00386409
0.00388188
0.0038989
0.00391516
0.00393065
0.00394538
0.00395935
0.00397257
0.00398504
0.00399677
0.00400775
0.00401801
0.00402759
0.00403639
0.00404446
0.00405182
0.00405848
0.00406442
0.00406963
0.00407423
0.00407814
0.00408138
0.00408396
0.00408588
0.00408717
0.00408783
0.00408787
0.00408729
0.00408612
0.00408435
0.00408201
0.0040791
0.00407563
0.00407161
0.00406705
0.00406195
0.00405631
0.00405014
0.00404343
0.00403621
0.00402849
0.00402028
0.00401161
0.0040025
0.00399297
0.00398303
0.0039727
0.00396199
0.0039509
0.00393944
0.00392764
0.00391549
0.00390303
0.00389028
0.00387726
0.003864
0.00385052
0.00383683
0.00382295
0.00380889
0.00379467
0.00378026
0.00376558
0.0037503
0.00373338
0.0037137
8.22048e-08
7.01147e-06
4.47131e-05
9.69859e-05
0.00014281
0.000175229
0.000195349
0.000204792
0.000206802
0.000203932
0.000198061
0.0001905
0.000182047
0.000173092
0.00016433
0.000155615
0.000147744
0.000140784
0.000135509
0.000131635
0.00013014
0.000131897
0.000137278
0.000146317
0.000158443
0.000172762
0.000188158
0.000203627
0.000217843
0.000230231
0.000243534
0.000258637
0.000275649
0.000295936
0.000321216
0.00035196
0.000388531
0.000430592
0.000477835
0.000529762
0.000585928
0.000645702
0.000708364
0.000773062
0.00083906
0.000905791
0.00097287
0.00103997
0.00110655
0.00117305
0.00123908
0.0013045
0.00136911
0.00143285
0.00149566
0.00155751
0.00161842
0.00167837
0.0017374
0.0017955
0.00185266
0.00190894
0.00196445
0.00201925
0.00207339
0.00212697
0.00218014
0.00223311
0.00228558
0.00233754
0.00238898
0.00243991
0.00249035
0.00254027
0.00258957
0.00263828
0.00268633
0.00273365
0.00278024
0.00282605
0.00287103
0.00291516
0.00295843
0.00300083
0.00304239
0.00308313
0.00312307
0.00316222
0.00320059
0.00323819
0.00327503
0.00331112
0.00334646
0.00338106
0.00341493
0.00344807
0.00348047
0.00351216
0.00354311
0.00357333
0.00360282
0.00363158
0.0036596
0.00368688
0.00371343
0.00373924
0.00376431
0.00378863
0.00381221
0.00383503
0.00385711
0.00387843
0.003899
0.00391882
0.00393788
0.00395618
0.00397373
0.00399053
0.00400658
0.00402188
0.00403645
0.00405028
0.00406338
0.00407575
0.00408739
0.00409834
0.00410857
0.00411808
0.00412687
0.00413496
0.00414236
0.00414906
0.00415509
0.00416047
0.00416516
0.0041692
0.00417259
0.00417534
0.00417747
0.00417898
0.00417988
0.00418018
0.0041799
0.00417905
0.00417762
0.00417565
0.00417313
0.00417006
0.00416647
0.00416235
0.00415769
0.0041525
0.00414678
0.00414055
0.00413381
0.00412659
0.00411891
0.00411079
0.00410225
0.00409329
0.00408393
0.00407417
0.00406402
0.00405349
0.00404258
0.00403132
0.00401972
0.0040078
0.0039956
0.00398312
0.0039704
0.00395745
0.00394429
0.00393095
0.00391745
0.0039038
0.00388996
0.00387569
0.00386011
0.00384344
1.31066e-07
1.19535e-05
6.03936e-05
0.000118342
0.00016426
0.000194695
0.000210865
0.000216441
0.00021494
0.000209072
0.000200797
0.000191198
0.000181736
0.000172631
0.000164859
0.000158143
0.000153267
0.000150592
0.00015
0.000151731
0.000156024
0.000162885
0.00017209
0.000183246
0.000195841
0.000209267
0.000222503
0.000234962
0.000248346
0.000264192
0.00028187
0.000301408
0.00032478
0.000352575
0.000385356
0.000423095
0.000465609
0.000512511
0.000563434