/*--------------------------------*- C++ -*----------------------------------*\
  =========                 |
  \\      /  F ield         | OpenFOAM: The Open Source CFD Toolbox
   \\    /   O peration     | Website:  https://openfoam.org
    \\  /    A nd           | Version:  8
     \\/     M anipulation  |
\*---------------------------------------------------------------------------*/
FoamFile
{
    version     2.0;
    format      ascii;
    class       volScalarField;
    location    "500";
    object      omega;
}
// * * * * * * * * * * * * * * * * * * * * * * * * * * * * * * * * * * * * * //

dimensions      [0 0 -1 0 0 0 0];

internalField   nonuniform List<scalar> 
12225
(
32582.3
32582.3
32582.3
32582.3
32582.3
42997.1
54622.4
46702.1
47101.5
41558
32582.3
32582.3
32582.3
32582.3
32582.3
32582.3
32582.3
32582.3
335.871
6571.08
9543.29
12666.9
12664.6
14623.6
17221.6
18844.5
19648.6
18957.9
18240.6
16971.4
16558.6
17148.8
16520.4
17795.7
16957.6
17728.3
377.665
1012.85
1866.47
2997.17
3736.77
4521.43
5214.42
5884.34
6229.12
6464.77
6641.44
6795.6
6963.28
7228.64
7307.68
7591.53
7778.17
7904.41
362.486
466.73
653.553
935.599
1188.1
1402.62
1578.28
1755.24
1882.93
2011.49
2106.97
2222.62
2301.63
2418.91
2481.69
2588.49
2641.15
2738.5
379.739
392.372
436.892
520.512
604.989
678.822
734.363
791.547
835.27
886.912
923.801
975.261
1007.58
1058.52
1086.01
1133.59
1156.38
1201.46
393.167
389.712
397.081
420.687
450.053
477.859
498.326
519.845
536.123
557.555
572.85
595.679
610.32
633.426
646.758
669.245
681.044
703.214
398.628
394.483
393.521
396.754
405.28
414.555
421.641
429.038
434.361
442.543
448.385
458.005
464.418
474.651
481.074
491.521
497.826
508.632
399.219
396.638
394.001
393.771
395.224
397.975
400.228
402.637
404.473
406.916
408.985
413.042
415.758
420.525
423.57
428.818
432.08
437.91
399.098
397.194
395.008
393.605
392.742
392.594
392.537
392.68
392.856
393.387
393.626
394.448
395.243
396.941
398.086
400.334
401.748
404.55
399.058
397.242
395.387
393.763
392.264
391.106
389.981
389.075
388.207
387.577
386.898
386.565
386.227
386.208
386.236
386.474
386.733
387.433
399.051
397.227
395.465
393.82
392.237
390.804
389.419
388.165
386.948
385.874
384.829
383.929
383.094
382.377
381.699
381.203
380.652
380.426
399.052
397.218
395.47
393.82
392.238
390.756
389.329
387.996
386.708
385.511
384.358
383.289
382.266
381.326
380.411
379.597
378.79
378.105
399.051
397.214
395.466
393.811
392.231
390.737
389.308
387.956
386.662
385.437
384.263
383.154
382.09
381.086
380.121
379.213
378.34
377.521
399.051
397.212
395.463
393.803
392.223
390.723
389.294
387.935
386.639
385.407
384.23
383.11
382.039
381.021
380.046
379.119
378.231
377.386
399.051
397.21
395.46
393.797
392.216
390.713
389.282
387.92
386.622
385.386
384.207
383.083
382.01
380.987
380.01
379.077
378.186
377.335
399.051
397.209
395.458
393.794
392.211
390.706
389.273
387.909
386.61
385.371
384.19
383.064
381.99
380.964
379.985
379.05
378.157
377.304
399.051
397.208
395.456
393.791
392.208
390.701
389.267
387.902
386.601
385.361
384.179
383.052
381.976
380.949
379.969
379.032
378.138
377.283
399.051
397.207
395.456
393.79
392.207
390.699
389.266
387.899
386.598
385.357
384.175
383.047
381.971
380.943
379.962
379.025
378.13
377.275
399.051
397.208
395.456
393.792
392.208
390.702
389.267
387.902
386.6
385.36
384.177
383.05
381.973
380.946
379.965
379.028
378.133
377.278
399.051
397.209
395.458
393.793
392.211
390.705
389.272
387.907
386.607
385.367
384.186
383.058
381.983
380.956
379.976
379.04
378.146
377.292
399.052
397.21
395.461
393.797
392.216
390.711
389.28
387.916
386.619
385.38
384.202
383.077
382.007
380.984
380.012
379.081
378.197
377.35
399.053
397.211
395.464
393.801
392.226
390.724
389.302
387.943
386.661
385.435
384.285
383.184
382.155
381.17
380.252
379.371
378.555
377.767
399.061
397.21
395.46
393.813
392.276
390.828
389.479
388.203
387.04
385.958
385.01
384.111
383.356
382.629
382.048
381.467
381.033
380.57
399.101
397.16
395.428
394
392.934
392.006
391.292
390.663
390.335
390.206
390.262
390.41
390.823
391.28
392.078
392.726
393.711
394.445
399.107
397.11
395.921
396.464
399.028
401.281
403.823
407.223
408.832
411.829
415.932
419.859
424.545
428.697
433.519
437.579
442.361
446.155
399.183
402.077
404.514
417.348
432.988
445.98
459.057
472.1
487.383
501.785
517.895
532.11
547.675
560.786
575.355
587.12
600.671
611.038
405.3
441.535
465.509
531.773
590.895
644.93
700.89
752.363
806.331
853.857
903.431
944.998
989.161
1024.62
1064
1094.2
1129.75
1155.55
542.574
711.359
908.262
1166.67
1427.81
1669.65
1893.81
2085.26
2261.87
2407.65
2544.63
2654.45
2762.04
2846.25
2935.99
3003.91
3084.06
3141.75
2023.14
3605.42
4865.36
6206.68
7304.89
8071.78
8589.63
8938.55
9161.72
9291.28
9360.69
9377.25
9368.64
9345.7
9315.31
9275.99
9253.36
9227.05
16112.1
20907.1
23134.9
24321.1
24916.1
25027.3
24984.2
24843.7
24603.7
24336.2
24064.6
23800.7
23552
23321.2
23109.8
22917.4
22742.7
22586.7
11463.3
2494.65
2496.87
2499.12
2501.38
2503.67
2505.98
2508.3
2510.65
2513.02
2515.42
2517.83
2520.27
2522.73
2525.21
2527.72
2530.25
2532.8
2535.37
2537.97
2540.6
2543.25
2545.92
2548.62
2551.34
2554.09
2556.87
2559.67
2562.5
2565.35
2568.23
2571.14
2574.08
2577.04
2580.04
2583.06
2586.11
2589.19
2592.3
2595.43
2598.6
2601.8
2605.03
2608.29
2611.59
2614.91
2618.27
2621.66
2625.08
2628.54
2632.03
2635.55
2639.11
2642.71
2646.33
2650
2653.7
3274.06
2661.21
3231.52
3386.68
2672.76
3338.89
3386.91
3489.29
3571.51
3653.2
3730.59
3805.76
3878.28
3948.52
4017.06
4083.57
4148.72
4212.22
4274.48
4335.38
4395.1
4453.64
4511.07
4567.43
4622.71
4676.99
4730.23
4782.48
4833.71
4883.95
4933.17
4981.37
5028.52
5074.6
5119.56
5163.38
5205.98
5247.33
5287.38
5326.1
5363.56
5399.85
5435.3
5470.25
5503.92
5536.71
5568.52
5599.34
5629.19
5658.03
5685.88
5712.71
5738.53
5763.32
5787.07
5809.8
5831.48
5852.13
5871.72
5890.29
5907.8
5924.3
5939.73
5954.17
5967.54
5979.92
5991.25
6001.59
6010.88
6019.16
6026.63
6033.5
6039.7
6043.23
6047.99
6049.87
6052.47
6054.32
6055.37
6055.15
6053.42
6051.01
6047.61
6043.45
6038.48
6032.73
6026.28
6019.09
6011.26
6002.76
5993.73
5984.17
5974.29
5963.52
5952.8
5940.9
5929.25
5916.63
5904.12
5891.12
5878.04
5864.79
5851.48
5838.09
5824.68
5811.26
5797.86
5784.5
5771.24
5758.13
5745.23
5732.59
5720.26
5708.23
5696.46
5684.9
5673.28
5661.27
5648.17
5633.03
5613.21
5583.58
5464.19
11463.3
1993.44
996.924
810.574
692.904
624.314
631.435
627.443
615.863
593.154
568.912
545.286
523.59
505.665
493.418
484.714
484.077
485.814
512.254
560.552
644.887
746.402
856.557
965.941
1063.73
1139.18
1182.73
1177.32
1137.65
1060.12
938.74
787.662
655.975
569.387
501.733
463.831
457.383
464.988
486.071
517.641
548.248
585.5
679.338
808.165
1013.91
1334.91
1643.7
1854.66
1992.4
2054
2070.99
2055.71
2011.87
1969.36
1922.12
1868.69
1839.98
1827.45
1721.63
1732.91
1701.95
1666.19
1686.81
1671.08
1669.51
1666.89
1666.37
1668.04
1671.24
1675.52
1680.65
1686.57
1692.96
1699.85
1707.02
1714.46
1722.05
1729.77
1737.56
1745.38
1753.19
1760.98
1768.7
1776.36
1783.91
1791.35
1798.65
1805.79
1812.75
1819.52
1826.08
1832.43
1838.57
1844.51
1850.31
1856.03
1861.8
1867.81
1874.38
1881.9
1890.69
1898.6
1906.62
1914.26
1921.76
1929
1936.03
1942.84
1949.42
1955.78
1961.91
1967.81
1973.5
1978.96
1984.19
1989.21
1994
1998.57
2002.92
2007.05
2010.97
2014.68
2018.17
2021.45
2024.53
2027.42
2030.11
2032.65
2035
2037.15
2039.05
2040.9
2042.47
2044.02
2045.34
2046.25
2046.4
2045.88
2045.25
2044.44
2043.43
2042.24
2040.87
2039.33
2037.62
2035.75
2033.75
2031.65
2029.53
2026.59
2024.59
2021.18
2018.92
2015.56
2012.8
2009.62
2006.44
2003.21
1999.9
1996.56
1993.18
1989.76
1986.33
1982.87
1979.41
1975.96
1972.52
1969.11
1965.73
1962.42
1959.17
1956.01
1952.9
1949.93
1947.13
1944.59
1942.39
1941.08
1939.7
1948.52
11463.3
2012.22
816.455
643.577
684.551
684.145
655.67
599.712
539.787
483.62
433.965
391.918
358.897
333.032
313.139
297.86
287.216
279.103
276.904
279.217
289.483
308.096
340.333
384.406
439.327
499.794
560.838
607.623
638.445
636.386
615.184
573.421
511.406
443.566
393.065
384.635
395.181
418.739
457.137
530.211
642.2
797.868
995.538
1173.42
1320.87
1452.63
1538.83
1563.66
1558.47
1508.61
1453.42
1391.65
1334.85
1285.37
1242.2
1206.48
1180.27
1156.17
1136.48
1125.96
1115.95
1109.51
1106.53
1103.68
1102.73
1102.43
1103.38
1105.19
1107.56
1110.4
1113.6
1117.1
1120.82
1124.73
1128.77
1132.92
1137.13
1141.41
1145.71
1150.04
1154.36
1158.68
1162.97
1167.24
1171.46
1175.64
1179.77
1183.83
1187.84
1191.77
1195.66
1199.49
1203.28
1207.06
1210.84
1214.67
1218.59
1222.62
1226.82
1231.18
1235.51
1239.63
1243.69
1247.61
1251.41
1255.08
1258.64
1262.07
1265.37
1268.55
1271.6
1274.53
1277.33
1280
1282.55
1284.97
1287.26
1289.42
1291.46
1293.37
1295.15
1296.81
1298.34
1299.76
1301.04
1302.21
1303.27
1304.2
1305.02
1305.72
1306.3
1306.77
1307.12
1307.36
1307.44
1307.33
1306.96
1306.41
1305.76
1305.01
1304.14
1303.17
1302.09
1300.92
1299.64
1298.27
1296.81
1295.27
1293.64
1291.82
1290.12
1288.08
1286.25
1284.11
1282.09
1279.92
1277.72
1275.47
1273.16
1270.82
1268.44
1266.02
1263.58
1261.11
1258.62
1256.12
1253.6
1251.09
1248.58
1246.08
1243.61
1241.18
1238.82
1236.57
1234.5
1232.73
1231.43
1231.27
1232.61
1242.93
11463.3
2039.61
1016.76
979.626
905.837
775.486
657.912
550.723
466.38
403.513
356.177
319.231
290.476
268.427
251.589
238.778
229.173
222.217
217.607
215.876
216.931
219.985
228.283
242.577
264.126
292.848
327.273
362.341
393.459
416.692
422.697
416.287
394.536
396.396
434.937
523.814
590.144
648.842
721.3
824.142
959.028
1076.34
1154.74
1221.8
1273.62
1292.5
1253.51
1209.95
1162.63
1109.02
1063.44
1021.98
988.362
960.546
938.309
920.905
907.864
897.067
890.023
884.968
881.488
879.871
879.038
878.974
879.778
881.127
883.003
885.251
887.792
890.573
893.545
896.672
899.922
903.273
906.702
910.193
913.731
917.304
920.901
924.512
928.128
931.742
935.347
938.937
942.507
946.052
949.57
953.058
956.515
959.942
963.341
966.72
970.084
973.439
976.795
980.158
983.533
986.92
990.306
993.659
996.929
1000.09
1003.18
1006.16
1009.05
1011.84
1014.54
1017.13
1019.63
1022.02
1024.31
1026.5
1028.58
1030.56
1032.43
1034.2
1035.86
1037.41
1038.85
1040.19
1041.42
1042.54
1043.55
1044.46
1045.25
1045.95
1046.53
1047.02
1047.39
1047.66
1047.83
1047.89
1047.84
1047.69
1047.4
1046.98
1046.42
1045.74
1044.97
1044.1
1043.14
1042.09
1040.95
1039.73
1038.41
1037.02
1035.54
1033.98
1032.34
1030.61
1028.84
1026.95
1025.07
1023.06
1021.05
1018.95
1016.8
1014.61
1012.37
1010.09
1007.77
1005.41
1003.03
1000.61
998.179
995.724
993.253
990.771
988.285
985.798
983.329
980.895
978.518
976.238
974.118
972.263
970.832
970.354
971.33
977.647
11463.3
2318.52
1475.5
1188.27
942.352
727.728
561.562
450.345
374.452
321.313
283.363
256.155
236.444
221.63
210.261
201.533
194.968
190.222
187.073
185.636
185.981
187.319
191.246
198.095
208.982
224.916
246.011
269.821
293.667
311.821
328.159
358.902
420.264
522.834
612.399
682.287
753.468
830.757
903.67
966.977
1022.13
1069.59
1098.58
1105.93
1073.45
1026.96
988.688
947.24
909.789
876.071
848.657
825.497
807.165
792.498
781.218
772.71
766.6
762.143
759.653
758.419
757.996
758.341
759.415
761.008
763.046
765.413
768.057
770.915
773.947
777.121
780.411
783.798
787.265
790.796
794.381
798.008
801.669
805.354
809.055
812.767
816.481
820.192
823.895
827.586
831.258
834.91
838.538
842.14
845.714
849.26
852.778
856.271
859.739
863.182
866.601
869.991
873.349
876.664
879.923
883.114
886.222
889.242
892.178
895.023
897.778
900.439
903.005
905.475
907.846
910.119
912.291
914.359
916.324
918.184
919.937
921.583
923.12
924.548
925.866
927.073
928.17
929.156
930.031
930.795
931.448
931.991
932.423
932.744
932.954
933.051
933.046
932.928
932.696
932.351
931.889
931.305
930.6
929.789
928.882
927.878
926.778
925.585
924.301
922.929
921.468
919.921
918.289
916.577
914.78
912.905
910.966
908.946
906.878
904.731
902.535
900.275
897.962
895.598
893.186
890.73
888.233
885.701
883.137
880.545
877.928
875.289
872.631
869.96
867.283
864.614
861.961
859.338
856.767
854.282
851.936
849.817
848.056
847.012
847.203
850.352
11463.3
2939.31
1736.22
1209.65
832.959
587.559
444.823
356.295
301.251
265.517
240.752
222.585
208.65
197.722
189.006
182.084
176.755
172.89
170.401
169.409
169.786
171.2
174.532
179.811
187.809
199.704
216.45
238.346
267.54
311.411
367.547
461.537
570.48
659.055
728.116
791.262
843.873
884.351
918.845
951.747
968.192
969.654
939.649
908.608
875.243
841.164
811.318
783.252
759.746
739.863
723.793
710.752
700.618
692.88
687.272
683.413
681.319
680.335
680.204
680.98
682.411
684.392
686.818
689.588
692.634
695.896
699.335
702.914
706.609
710.4
714.272
718.213
722.21
726.256
730.34
734.456
738.596
742.752
746.917
751.086
755.251
759.409
763.553
767.679
771.783
775.86
779.907
783.922
787.901
791.843
795.746
799.611
803.435
807.216
810.951
814.634
818.259
821.816
825.298
828.701
832.017
835.244
838.379
841.42
844.364
847.209
849.952
852.591
855.123
857.548
859.864
862.068
864.157
866.131
867.987
869.725
871.342
872.839
874.214
875.466
876.595
877.601
878.484
879.243
879.878
880.39
880.779
881.044
881.176
881.197
881.096
880.871
880.523
880.052
879.458
878.741
877.903
876.951
875.892
874.728
873.458
872.085
870.613
869.045
867.38
865.621
863.77
861.831
859.803
857.692
855.505
853.242
850.912
848.509
846.043
843.514
840.926
838.283
835.59
832.849
830.066
827.245
824.392
821.508
818.598
815.665
812.712
809.744
806.77
803.801
800.845
797.918
795.039
792.237
789.555
787.066
784.874
783.23
782.489
783.514
11463.3
3442.94
1778.71
1035.4
650.669
457.964
358.763
303.004
267.531
242.834
224.288
209.755
198.003
188.264
180.187
173.62
168.498
164.816
162.685
162.218
163.172
165.876
170.788
178.322
189.215
204.212
227.017
263.216
319.334
405.415
510.213
599.482
669.202
729.285
776.414
811.674
839.909
861.288
870.028
865.183
841.948
819.535
792.585
767.069
741.712
718.298
697.984
680.285
665.697
653.709
644.185
636.796
631.348
627.569
625.468
624.63
624.591
625.555
627.252
629.571
632.383
635.6
639.14
642.935
646.934
651.094
655.386
659.785
664.274
668.838
673.466
678.148
682.876
687.643
692.44
697.26
702.095
706.94
711.785
716.625
721.453
726.264
731.052
735.812
740.54
745.232
749.882
754.486
759.042
763.546
767.997
772.393
776.73
781.006
785.217
789.358
793.428
797.42
801.331
805.15
808.873
812.496
816.016
819.431
822.737
825.93
829.007
831.966
834.802
837.51
840.088
842.536
844.854
847.039
849.089
851.004
852.782
854.422
855.923
857.285
858.507
859.588
860.53
861.332
861.994
862.516
862.9
863.137
863.227
863.201
863.032
862.725
862.281
861.702
860.989
860.144
859.169
858.069
856.849
855.512
854.057
852.488
850.803
848.997
847.082
845.062
842.94
840.72
838.403
835.995
833.502
830.926
828.273
825.543
822.742
819.872
816.939
813.947
810.899
807.802
804.66
801.477
798.26
795.012
791.736
788.435
785.114
781.78
778.439
775.101
771.778
768.483
765.232
762.051
758.975
756.063
753.395
751.142
749.477
748.908
11463.3
3583.27
1561.97
815.379
516.325
382.713
313.964
273.939
248.151
229.914
215.855
204.053
193.773
184.906
177.416
171.375
166.968
164.358
163.467
164.214
166.859
172.047
180.254
193.679
214.833
246.017
294.324
369.102
456.37
535.698
600.468
655.761
702.277
739.086
768.591
786.496
792.367
784.57
767.156
749.277
728.387
708.726
688.6
669.714
651.918
636.189
622.758
611.463
602.291
595.014
589.496
585.562
583.202
582.195
582.061
582.964
584.689
587.15
590.214
593.779
597.754
602.065
606.645
611.444
616.418
621.534
626.767
632.096
637.506
642.982
648.515
654.096
659.715
665.365
671.04
676.731
682.428
688.123
693.81
699.479
705.124
710.739
716.319
721.856
727.347
732.789
738.172
743.494
748.749
753.935
759.048
764.087
769.048
773.929
778.724
783.432
788.05
792.578
797.003
801.318
805.518
809.601
813.563
817.401
821.111
824.69
828.134
831.441
834.606
837.627
840.502
843.229
845.805
848.229
850.499
852.612
854.569
856.367
858.006
859.486
860.805
861.965
862.965
863.805
864.487
865.009
865.372
865.563
865.607
865.504
865.242
864.824
864.255
863.534
862.665
861.65
860.492
859.195
857.764
856.2
854.506
852.684
850.739
848.672
846.485
844.184
841.77
839.248
836.621
833.894
831.073
828.162
825.166
822.088
818.93
815.699
812.4
809.038
805.617
802.143
798.621
795.057
791.455
787.821
784.158
780.47
776.761
773.04
769.313
765.59
761.882
758.202
754.565
750.992
747.513
744.166
740.993
738.136
735.669
733.767
11463.3
3403.02
1280.58
661.245
443.358
347.946
296.786
265.843
244.45
228.266
215.404
204.769
195.734
188.041
181.729
177.025
174.268
173.601
175.346
179.507
187.127
199.584
218.211
248.277
293.502
353.603
421.054
482.936
539.172
588.246
630.508
665.971
696.434
716.912
723.902
719.643
706.749
692.183
675.787
660.142
644.535
629.73
615.245
601.737
589.466
578.86
569.965
562.71
557.031
552.819
549.997
548.616
548.245
548.841
550.372
552.741
555.831
559.55
563.802
568.505
573.585
578.978
584.628
590.488
596.521
602.697
608.992
615.387
621.862
628.402
634.994
641.626
648.288
654.971
661.674
668.38
675.081
681.766
688.427
695.055
701.642
708.183
714.67
721.095
727.449
733.72
739.917
746.036
752.074
758.024
763.886
769.655
775.328
780.902
786.37
791.731
796.977
802.102
807.102
811.971
816.707
821.304
825.76
830.07
834.232
838.241
842.094
845.787
849.317
852.68
855.873
858.895
861.744
864.416
866.911
869.227
871.362
873.316
875.087
876.676
878.082
879.305
880.347
881.208
881.888
882.388
882.701
882.826
882.792
882.58
882.192
881.631
880.899
880
878.935
877.708
876.323
874.782
873.092
871.253
869.271
867.147
864.886
862.49
859.963
857.309
854.533
851.637
848.626
845.506
842.281
838.959
835.543
832.037
828.447
824.777
821.035
817.226
813.355
809.427
805.449
801.425
797.363
793.267
789.14
784.988
780.817
776.635
772.449
768.268
764.104
759.968
755.875
751.842
747.896
744.07
740.409
737.005
733.874
730.93
11463.3
2972.97
1033.74
562.502
400.794
328.023
289.125
263.596
246.095
233.237
222.933
214.264
206.969
201.148
197.224
195.767
197.065
201.906
210.368
222.935
241.761
268.613
304.944
348.86
396.526
444.616
489.982
530.839
567.576
599.319
627.426
650.213
660.36
661.303
654.009
643.483
630.746
618.232
606.034
594.528
583.335
572.546
562.181
552.637
544.191
537.046
531.231
526.721
523.469
521.565
520.839
520.974
522.151
524.23
527.142
530.805
535.133
540.048
545.474
551.342
557.59
564.157
570.991
578.045
585.282
592.671
600.19
607.828
615.546
623.325
631.15
639.003
646.866
654.713
662.506
670.273
678.026
685.757
693.454
701.108
708.71
716.252
723.729
731.134
738.462
745.714
752.868
759.914
766.845
773.659
780.353
786.924
793.369
799.683
805.864
811.905
817.803
823.554
829.156
834.603
839.891
845.017
849.976
854.765
859.381
863.818
868.075
872.145
876.026
879.715
883.208
886.503
889.598
892.491
895.181
897.666
899.944
902.016
903.879
905.535
906.983
908.225
909.262
910.094
910.723
911.149
911.358
911.377
911.201
910.827
910.258
909.497
908.546
907.41
906.091
904.593
902.92
901.076
899.066
896.893
894.562
892.075
889.437
886.652
883.724
880.658
877.459
874.13
870.676
867.103
863.417
859.624
855.73
851.739
847.659
843.495
839.255
834.944
830.57
826.135
821.647
817.111
812.536
807.924
803.282
798.616
793.933
789.24
784.547
779.861
775.194
770.556
765.961
761.425
756.97
752.624
748.42
744.429
740.635
736.732
11463.3
2495.68
886.053
518.593
385.54
323.816
289.64
269.36
255.83
245.89
238.124
232.066
227.888
226.206
227.155
231.916
240.608
252.464
267.917
289.034
315.792
347.118
381.375
416.584
451.207
484.159
514.582
541.588
566.291
588.685
601.886
605.789
604.12
598.556
590.024
580.703
571.333
562.481
554.013
545.838
537.815
530.031
522.671
516.024
510.309
505.655
502.104
499.679
498.503
498.251
498.988
500.674
503.284
506.751
511.012
515.993
521.622
527.831
534.553
541.73
549.323
557.268
565.496
573.963
582.625
591.435
600.334
609.249
618.244
627.312
636.434
645.59
654.753
663.904
673.045
682.151
691.209
700.216
709.148
717.998
726.759
735.427
743.997
752.461
760.811
769.035
777.123
785.07
792.872
800.524
808.026
815.376
822.57
829.603
836.473
843.175
849.706
856.063
862.242
868.239
874.049
879.668
885.091
890.315
895.336
900.152
904.758
909.15
913.324
917.276
921.003
924.505
927.778
930.821
933.634
936.214
938.561
940.673
942.551
944.195
945.606
946.786
947.737
948.46
948.958
949.221
949.261
949.082
948.683
948.067
947.236
946.194
944.946
943.494
941.842
939.996
937.958
935.735
933.33
930.748
927.993
925.071
921.985
918.74
915.341
911.794
908.104
904.276
900.314
896.225
892.014
887.688
883.255
878.72
874.091
869.376
864.583
859.718
854.786
849.793
844.743
839.646
834.505
829.329
824.122
818.893
813.651
808.403
803.156
797.921
792.707
787.524
782.385
777.305
772.303
767.403
762.628
758.037
753.603
748.832
11463.3
2084.55
788.66
488.505
378.098
325.399
297.691
281.447
271.06
264.024
259.297
257.022
256.76
259.567
265.836
275.655
288.454
304.03
323.079
345.267
369.672
395.291
421.173
446.55
470.694
492.968
513.954
533.741
548.138
554.442
555.9
555.017
550.982
545.373
539.021
532.667
526.508
520.571
514.742
508.965
503.265
497.783
492.734
488.341
484.779
482.148
480.637
480.124
480.527
481.924
484.269
487.53
491.677
496.681
502.513
509.059
516.253
524.03
532.321
541.042
550.063
559.372
569.002
578.924
589.096
599.479
610.04
620.773
631.599
642.472
653.358
664.24
675.067
685.802
696.427
706.923
717.273
727.471
737.537
747.478
757.297
766.995
776.57
786.014
795.316
804.461
813.435
822.233
830.848
839.281
847.529
855.59
863.462
871.141
878.621
885.902
892.979
899.851
906.515
912.965
919.196
925.205
930.986
936.536
941.853
946.934
951.775
956.371
960.719
964.815
968.656
972.242
975.57
978.641
981.452
984.005
986.297
988.327
990.096
991.606
992.859
993.855
994.6
995.094
995.339
995.335
995.084
994.591
993.858
992.889
991.688
990.26
988.609
986.738
984.654
982.36
979.861
977.163
974.271
971.189
967.923
964.478
960.859
957.072
953.122
949.016
944.759
940.357
935.815
931.14
926.337
921.412
916.375
911.234
905.998
900.676
895.275
889.801
884.259
878.656
872.995
867.285
861.531
855.741
849.924
844.088
838.243
832.397
826.557
820.731
814.93
809.162
803.44
797.778
792.193
786.709
781.339
776.134
771.072
765.497
11463.3
1953.84
770.895
485.174
380.901
334.05
310.286
297.079
289.333
285.126
283.527
283.852
286.966
292.928
301.673
312.93
326.366
342.003
359.434
378.031
397.163
416.246
434.724
452.447
469.684
486.223
499.706
507.625
511.381
512.807
512.757
510.867
507.787
504.159
500.324
496.472
492.626
488.766
484.88
481.01
477.269
473.824
470.863
468.566
467.188
466.713
467.163
468.726
471.232
474.662
478.994
484.196
490.211
496.929
504.228
512.253
520.99
530.388
540.383
550.92
561.974
573.485
585.372
597.585
610.075
622.785
635.659
648.664
661.709
674.694
687.548
700.199
712.623
724.803
736.727
748.387
759.791
770.96
781.932
792.742
803.403
813.924
824.313
834.558
844.638
854.528
864.211
873.679
882.931
891.962
900.773
909.363
917.728
925.863
933.765
941.432
948.862
956.055
963.006
969.713
976.168
982.368
988.308
993.986
999.4
1004.55
1009.42
1014.03
1018.35
1022.4
1026.16
1029.64
1032.83
1035.73
1038.36
1040.7
1042.75
1044.52
1046
1047.2
1048.13
1048.77
1049.14
1049.24
1049.08
1048.65
1047.95
1046.99
1045.78
1044.31
1042.6
1040.65
1038.47
1036.05
1033.4
1030.54
1027.46
1024.18
1020.68
1017
1013.11
1009.04
1004.79
1000.37
995.777
991.022
986.112
981.054
975.853
970.516
965.049
959.455
953.747
947.938
942.036
936.05
929.985
923.848
917.645
911.381
905.06
898.69
892.275
885.827
879.356
872.873
866.386
859.903
853.432
846.979
840.553
834.163
827.823
821.547
815.351
809.254
803.269
797.434
791.751
785.422
11463.3
1870.41
745.316
482.446
388.011
345.894
325.151
314.147
308.358
305.892
305.477
307.64
312.365
319.357
328.301
338.872
350.796
363.805
377.518
391.523
405.414
419.188
432.984
446.23
457.372
465.187
470.6
474.419
476.375
477.169
477.288
476.556
475.281
473.715
471.976
470.122
468.187
466.214
464.286
462.55
461.245
460.48
460.261
460.737
462.05
464.176
467.045
470.452
474.748
480.019
486.272
493.485
501.625
510.68
520.665
531.496
543.139
555.516
568.55
582.173
596.327
610.928
625.881
641.113
656.588
672.205
687.818
703.292
718.536
733.488
748.075
762.235
775.933
789.15
801.886
814.146
825.971
837.44
848.658
859.73
870.66
881.473
892.195
902.804
913.251
923.477
933.461
943.206
952.706
961.957
970.956
979.701
988.188
996.414
1004.38
1012.07
1019.5
1026.66
1033.55
1040.17
1046.51
1052.57
1058.34
1063.82
1069.01
1073.9
1078.51
1082.81
1086.81
1090.51
1093.91
1096.99
1099.77
1102.24
1104.4
1106.27
1107.83
1109.09
1110.04
1110.71
1111.08
1111.13
1110.92
1110.42
1109.62
1108.55
1107.21
1105.59
1103.71
1101.57
1099.18
1096.54
1093.66
1090.54
1087.18
1083.6
1079.81
1075.79
1071.57
1067.15
1062.53
1057.72
1052.73
1047.56
1042.22
1036.72
1031.06
1025.26
1019.31
1013.23
1007.02
1000.69
994.242
987.704
981.078
974.371
967.588
960.735
953.819
946.844
939.817
932.741
925.621
918.474
911.313
904.147
896.984
889.832
882.696
875.583
868.501
861.458
854.47
847.553
840.722
833.993
827.374
820.899
814.599
807.555
11463.3
1852.19
745.058
489.405
399.282
359.512
340.016
329.78
324.61
322.577
322.398
324.961
329.714
336.188
343.947
352.661
362.109
372.069
382.293
392.676
403.342
413.423
422.015
429.125
434.992
440.022
444
447.173
449.661
451.697
453.436
454.964
456.228
457.264
458.135
458.895
459.607
460.332
461.132
462.022
462.881
464.175
466.202
469.209
473.287
478.345
484.394
491.556
499.779
509.087
519.496
530.963
543.442
556.902
571.316
586.624
602.88
619.842
637.366
655.339
673.652
692.19
710.834
729.462
747.918
766.1
783.941
801.331
818.16
834.32
849.707
864.284
878.048
891.032
903.271
914.744
925.553
935.864
945.947
956.132
966.246
976.338
986.519
996.694
1006.76
1016.66
1026.35
1035.79
1044.96
1053.86
1062.49
1070.83
1078.89
1086.67
1094.15
1101.33
1108.23
1114.84
1121.16
1127.2
1132.93
1138.36
1143.49
1148.31
1152.82
1157.02
1160.92
1164.5
1167.76
1170.71
1173.34
1175.64
1177.62
1179.28
1180.63
1181.67
1182.39
1182.8
1182.89
1182.7
1182.2
1181.38
1180.27
1178.87
1177.17
1175.2
1172.94
1170.41
1167.62
1164.57
1161.27
1157.71
1153.92
1149.88
1145.62
1141.12
1136.42
1131.49
1126.37
1121.04
1115.52
1109.81
1103.92
1097.86
1091.63
1085.25
1078.71
1072.03
1065.22
1058.28
1051.22
1044.07
1036.83
1029.51
1022.11
1014.62
1007.07
999.449
991.768
984.035
976.256
968.434
960.572
952.696
944.815
936.938
929.071
921.219
913.391
905.592
897.826
890.106
882.45
874.874
867.391
860.016
852.755
845.631
838.718
830.998
11463.3
1829.71
744.346
497.447
409.085
370.343
351.566
341.295
335.894
333.68
333.342
335.449
339.437
344.769
351.023
357.955
365.444
373.387
381.48
389.337
396.763
403.841
410.682
417.091
423.146
428.917
434.375
439.56
444.425
448.942
453.031
456.468
459.636
462.714
465.788
468.933
472.235
475.781
479.673
484.031
489.109
495.031
502.015
510.334
519.921
530.57
542.324
555.249
569.305
584.507
600.99
618.571
637.071
656.362
676.321
696.799
717.569
738.61
759.818
781.076
802.262
823.262
843.964
864.268
884.074
903.301
921.88
939.737
956.786
972.922
987.948
1001.93
1014.95
1027.13
1038.54
1049.24
1059.25
1068.61
1077.45
1085.96
1094.22
1102.53
1111.4
1120.38
1129.28
1138.05
1146.61
1154.9
1162.9
1170.59
1178
1185.11
1191.92
1198.42
1204.62
1210.51
1216.1
1221.4
1226.42
1231.15
1235.58
1239.71
1243.53
1247.04
1250.25
1253.16
1255.76
1258.05
1260.03
1261.7
1263.05
1264.08
1264.79
1265.18
1265.26
1265.07
1264.55
1263.72
1262.58
1261.15
1259.42
1257.4
1255.09
1252.5
1249.63
1246.5
1243.09
1239.43
1235.51
1231.34
1226.93
1222.28
1217.39
1212.28
1206.94
1201.4
1195.65
1189.69
1183.54
1177.21
1170.69
1163.99
1157.12
1150.09
1142.9
1135.56
1128.08
1120.47
1112.74
1104.88
1096.92
1088.89
1080.78
1072.59
1064.33
1055.99
1047.58
1039.11
1030.59
1022.03
1013.43
1004.8
996.18
987.558
978.94
970.331
961.737
953.165
944.622
936.116
927.649
919.24
910.907
902.666
894.525
886.499
878.594
870.823
863.303
854.948
11463.3
1815.99
746.41
502.587
415.431
377.645
359.051
348.594
343.027
340.663
340.21
342.021
345.645
350.597
356.438
362.97
370.002
377.37
385.042
393.031
400.995
408.858
416.711
424.531
432.367
440.259
448.218
456.264
464.261
472.193
480.126
488.203
496.451
504.939
513.756
522.985
532.73
543.087
554.158
566.055
578.917
592.759
607.578
623.239
639.703
657.106
675.5
694.947
715.388
736.667
758.546
781.188
804.379
827.887
851.537
875.153
898.574
921.673
944.334
966.431
987.884
1008.62
1028.59
1047.74
1066.05
1083.5
1100.07
1115.77
1130.59
1144.54
1157.64
1169.83
1181.12
1191.73
1201.74
1211.26
1220.2
1228.48
1236.07
1242.89
1249.4
1256.18
1263.13
1269.96
1276.57
1282.92
1288.99
1294.77
1300.25
1305.46
1310.4
1315.06
1319.45
1323.56
1327.39
1330.95
1334.26
1337.31
1340.14
1342.71
1345.02
1347.07
1348.85
1350.36
1351.61
1352.59
1353.32
1353.77
1353.94
1353.85
1353.49
1352.81
1351.87
1350.65
1349.15
1347.39
1345.36
1343.04
1340.46
1337.61
1334.49
1331.11
1327.48
1323.61
1319.49
1315.13
1310.53
1305.7
1300.64
1295.36
1289.85
1284.13
1278.2
1272.07
1265.75
1259.23
1252.52
1245.64
1238.57
1231.34
1223.94
1216.37
1208.66
1200.79
1192.78
1184.64
1176.36
1167.96
1159.45
1150.81
1142.07
1133.24
1124.32
1115.32
1106.23
1097.08
1087.86
1078.58
1069.25
1059.88
1050.48
1041.06
1031.66
1022.27
1012.88
1003.5
994.148
984.819
975.527
966.282
957.109
948.019
939.019
930.12
921.328
912.659
904.119
895.714
887.599
878.662
11463.3
1803.75
747.899
505.348
418.584
382.893
364.861
355.079
350.907
349.467
350.064
353.151
357.934
363.992
371.293
380.025
389.411
399.254
410.074
422.022
434.641
447.585
461.202
475.532
490.55
506.241
522.569
539.482
556.988
575.095
593.817
613.172
633.063
653.461
674.396
695.906
718.091
741.076
764.831
789.237
814.21
839.598
865.262
891.027
916.819
942.7
968.739
995.301
1022.26
1048.98
1075.05
1100.12
1124.22
1147.41
1169.59
1190.76
1210.79
1229.67
1247.33
1263.83
1279.14
1293.34
1306.43
1318.47
1329.48
1339.5
1348.61
1356.87
1364.35
1371.17
1377.65
1383.85
1389.8
1395.4
1400.62
1405.42
1409.7
1413.46
1417.02
1420.63
1424.6
1428.57
1431.87
1434.66
1437.1
1439.27
1441.22
1442.96
1444.52
1445.9
1447.09
1448.09
1448.9
1449.54
1450.01
1450.31
1450.46
1450.45
1450.33
1450.04
1449.56
1448.9
1448.06
1447.05
1445.86
1444.48
1442.93
1441.17
1439.21
1437.04
1434.66
1432.06
1429.25
1426.24
1423
1419.56