/*--------------------------------*- C++ -*----------------------------------*\
  =========                 |
  \\      /  F ield         | OpenFOAM: The Open Source CFD Toolbox
   \\    /   O peration     | Website:  https://openfoam.org
    \\  /    A nd           | Version:  8
     \\/     M anipulation  |
\*---------------------------------------------------------------------------*/
FoamFile
{
    version     2.0;
    format      ascii;
    class       volScalarField;
    location    "500";
    object      p;
}
// * * * * * * * * * * * * * * * * * * * * * * * * * * * * * * * * * * * * * //

dimensions      [0 2 -2 0 0 0 0];

internalField   nonuniform List<scalar> 
12225
(
-4.19056
-5.10147
-5.49584
-5.62144
-5.75248
-5.90105
-6.02807
-6.13069
-6.22072
-6.30318
-6.37215
-6.43308
-6.49531
-6.56341
-6.63618
-6.70986
-6.79702
-6.89344
-4.47357
-5.12737
-5.4613
-5.58646
-5.7149
-5.85854
-5.98746
-6.09696
-6.18894
-6.27193
-6.34533
-6.4106
-6.47696
-6.54347
-6.61245
-6.68966
-6.76887
-6.83336
-4.70218
-5.12969
-5.44464
-5.59501
-5.72716
-5.86722
-5.99291
-6.09872
-6.18846
-6.26977
-6.34392
-6.41123
-6.47681
-6.54156
-6.60881
-6.68008
-6.74746
-6.79871
-4.85692
-5.15873
-5.45416
-5.61215
-5.73659
-5.86633
-5.98588
-6.08829
-6.17668
-6.25713
-6.3311
-6.39884
-6.46408
-6.52847
-6.59349
-6.65878
-6.71906
-6.76638
-4.97776
-5.20871
-5.47166
-5.62732
-5.7461
-5.86868
-5.98409
-6.08415
-6.17127
-6.25054
-6.32371
-6.39133
-6.45594
-6.51889
-6.58076
-6.64082
-6.69557
-6.73952
-5.08764
-5.26348
-5.48909
-5.64056
-5.7567
-5.87347
-5.98425
-6.08128
-6.16653
-6.24432
-6.31638
-6.38332
-6.44679
-6.50782
-6.56667
-6.62249
-6.67284
-6.71422
-5.1925
-5.32118
-5.51014
-5.65454
-5.76755
-5.8781
-5.9836
-6.07746
-6.16084
-6.23718
-6.30805
-6.37404
-6.43623
-6.49538
-6.55153
-6.60389
-6.65087
-6.69038
-5.27477
-5.37233
-5.53272
-5.6681
-5.77715
-5.88219
-5.98295
-6.07392
-6.1555
-6.23041
-6.30004
-6.36495
-6.42588
-6.48338
-6.53741
-6.58734
-6.63211
-6.6704
-5.34181
-5.41839
-5.55539
-5.68142
-5.78635
-5.88638
-5.98277
-6.07095
-6.15071
-6.22414
-6.29248
-6.35624
-6.41592
-6.47192
-6.52419
-6.57226
-6.61543
-6.65282
-5.40848
-5.46806
-5.58252
-5.69751
-5.79726
-5.89179
-5.98325
-6.06814
-6.14568
-6.21729
-6.28403
-6.34633
-6.40452
-6.45888
-6.50937
-6.55567
-6.59738
-6.63396
-5.47375
-5.51993
-5.61386
-5.71656
-5.80998
-5.89857
-5.98462
-6.06567
-6.14054
-6.20998
-6.2748
-6.33535
-6.39184
-6.44444
-6.49314
-6.53776
-6.57811
-6.61388
-5.53661
-5.57242
-5.64854
-5.73837
-5.82439
-5.9067
-5.98702
-6.06372
-6.13544
-6.20234
-6.26493
-6.32346
-6.37806
-6.4288
-6.47573
-6.51875
-6.55782
-6.59279
-5.5958
-5.6238
-5.68512
-5.76232
-5.84018
-5.91596
-5.99037
-6.06233
-6.13047
-6.19448
-6.25456
-6.31085
-6.3634
-6.41225
-6.45742
-6.49891
-6.53677
-6.57094
-5.6499
-5.67203
-5.72153
-5.78716
-5.85662
-5.92579
-5.99434
-6.06137
-6.12563
-6.18648
-6.24385
-6.29775
-6.34816
-6.39509
-6.43855
-6.4786
-6.5153
-6.5487
-5.69688
-5.71472
-5.75518
-5.81094
-5.87243
-5.93524
-5.99821
-6.06043
-6.12073
-6.17832
-6.23291
-6.28438
-6.33265
-6.37771
-6.41955
-6.45824
-6.49389
-6.52653
-5.73401
-5.74884
-5.78277
-5.83085
-5.88558
-5.94277
-6.00083
-6.05872
-6.11534
-6.16985
-6.2218
-6.27097
-6.31724
-6.36057
-6.40095
-6.43843
-6.47313
-6.5051
-5.75736
-5.77028
-5.80011
-5.84309
-5.89303
-5.94604
-6.0004
-6.05496
-6.10866
-6.16066
-6.21043
-6.2577
-6.30231
-6.34421
-6.3834
-6.4199
-6.45383
-6.48527
-5.76071
-5.77304
-5.80155
-5.8428
-5.89093
-5.9422
-5.99492
-6.04794
-6.10022
-6.15091
-6.19949
-6.24567
-6.28932
-6.33036
-6.36882
-6.40472
-6.43818
-6.4693
-5.74379
-5.75682
-5.78684
-5.82981
-5.87927
-5.93146
-5.98481
-6.03831
-6.09086
-6.14165
-6.19018
-6.23624
-6.27969
-6.32052
-6.35874
-6.39446
-6.42775
-6.45879
-5.71178
-5.72667
-5.76071
-5.80825
-5.86148
-5.91653
-5.97224
-6.0277
-6.08179
-6.13368
-6.183
-6.22959
-6.2734
-6.31443
-6.35278
-6.38854
-6.42187
-6.45294
-5.66786
-5.68598
-5.72673
-5.78145
-5.8402
-5.89942
-5.95871
-6.01721
-6.07366
-6.12729
-6.17789
-6.22542
-6.26989
-6.31137
-6.34999
-6.38593
-6.41936
-6.45051
-5.61388
-5.63707
-5.68783
-5.75212
-5.81745
-5.88163
-5.94537
-6.00764
-6.06694
-6.12266
-6.17482
-6.22351
-6.26877
-6.31077
-6.3497
-6.38583
-6.41936
-6.45059
-5.5507
-5.58183
-5.64669
-5.72245
-5.79466
-5.86425
-5.9331
-5.99955
-6.06188
-6.11983
-6.17368
-6.22359
-6.26969
-6.31218
-6.35139
-6.38764
-6.42122
-6.45242
-5.47848
-5.52206
-5.60606
-5.69411
-5.77264
-5.84797
-5.92249
-5.99326
-6.05855
-6.11869
-6.17422
-6.22533
-6.27218
-6.31509
-6.35448
-6.39076
-6.42428
-6.45544
-5.39664
-5.45958
-5.56876
-5.66851
-5.75186
-5.83302
-5.91352
-5.98855
-6.05665
-6.11888
-6.17601
-6.22819
-6.27566
-6.31885
-6.35825
-6.39438
-6.42769
-6.45866
-5.30486
-5.39607
-5.53603
-5.64585
-5.73259
-5.81933
-5.90541
-5.98419
-6.05486
-6.11914
-6.17788
-6.23122
-6.2794
-6.32293
-6.3624
-6.39842
-6.43155
-6.46247
-5.20311
-5.33512
-5.50515
-5.62144
-5.71265
-5.80646
-5.89813
-5.98025
-6.05316
-6.11922
-6.17929
-6.23348
-6.28211
-6.32577
-6.36507
-6.40082
-6.43367
-6.4644
-5.08062
-5.28846
-5.48007
-5.59191
-5.68808
-5.79248
-5.89213
-5.97926
-6.05595
-6.12505
-6.18737
-6.243
-6.29241
-6.33626
-6.37523
-6.41037
-6.44279
-6.47392
-4.8936
-5.26366
-5.48752
-5.58336
-5.67523
-5.78386
-5.88673
-5.97534
-6.0534
-6.12404
-6.18781
-6.24459
-6.29476
-6.33892
-6.37762
-6.41154
-6.44199
-6.47033
-4.63078
-5.18926
-5.47772
-5.5834
-5.68297
-5.80022
-5.90881
-6.00029
-6.07973
-6.15117
-6.21535
-6.27227
-6.32227
-6.36591
-6.4036
-6.43504
-6.461
-6.48198
-7.41822
-7.41833
-7.41838
-7.41837
-7.41807
-7.41685
-7.41432
-7.41096
-7.40778
-7.40578
-7.40596
-7.4085
-7.41288
-7.41833
-7.42407
-7.42943
-7.43385
-7.43692
-7.43861
-7.43928
-7.43921
-7.43858
-7.43763
-7.43664
-7.43584
-7.43533
-7.43507
-7.43491
-7.43468
-7.43429
-7.43374
-7.43303
-7.4321
-7.43087
-7.42942
-7.42801
-7.4273
-7.42791
-7.42989
-7.43259
-7.43511
-7.43702
-7.43855
-7.44015
-7.44227
-7.4454
-7.44912
-7.45232
-7.45466
-7.45829
-7.46704
-7.48486
-7.51156
-7.54593
-7.58812
-7.63949
-7.69931
-7.76556
-7.83651
-7.91004
-7.98407
-8.05674
-8.12704
-8.19405
-8.25669
-8.31464
-8.36773
-8.41592
-8.45925
-8.49781
-8.53171
-8.56102
-8.58585
-8.60622
-8.62221
-8.63382
-8.64105
-8.64389
-8.64233
-8.63631
-8.6258
-8.61074
-8.5911
-8.56682
-8.53782
-8.50403
-8.46539
-8.4218
-8.3732
-8.31953
-8.26074
-8.19678
-8.12759
-8.05312
-7.97331
-7.88812
-7.7975
-7.70148
-7.60015
-7.49338
-7.38073
-7.26208
-7.13765
-7.0075
-6.87166
-6.73017
-6.58305
-6.43035
-6.27212
-6.10842
-5.93933
-5.76494
-5.58535
-5.40066
-5.21099
-5.01647
-4.81725
-4.61345
-4.40524
-4.19278
-3.97623
-3.75576
-3.53156
-3.30379
-3.07265
-2.83832
-2.60101
-2.36092
-2.11824
-1.87316
-1.62588
-1.37661
-1.12559
-0.873068
-0.619266
-0.364462
-0.108814
0.147767
0.405158
0.662968
0.920988
1.17901
1.43686
1.69434
1.95128
2.20749
2.46282
2.71707
2.97008
3.22167
3.47169
3.72001
3.96646
4.21092
4.45323
4.69327
4.93092
5.16608
5.39864
5.62852
5.85561
6.07984
6.30111
6.51932
6.73439
6.94621
7.1547
7.35978
7.56134
7.75931
7.95359
8.14408
8.33066
8.51324
8.69172
8.86601
9.03643
9.20282
9.36827
9.52399
-7.41944
-7.41962
-7.41999
-7.42037
-7.42036
-7.41953
-7.4176
-7.41514
-7.41341
-7.41335
-7.41525
-7.41894
-7.4239
-7.42948
-7.43506
-7.44013
-7.44433
-7.44746
-7.44933
-7.44973
-7.44876
-7.44676
-7.44415
-7.44142
-7.43899
-7.43711
-7.43583
-7.43496
-7.43427
-7.43362
-7.43299
-7.43237
-7.43168
-7.43083
-7.42981
-7.42901
-7.42916
-7.4307
-7.43339
-7.43625
-7.43816
-7.4388
-7.43865
-7.43773
-7.43627
-7.4359
-7.43906
-7.44581
-7.45241
-7.45926
-7.46986
-7.48555
-7.50813
-7.54103
-7.5865
-7.64302
-7.70798
-7.77907
-7.85363
-7.92926
-8.00386
-8.07641
-8.14546
-8.2098
-8.2695
-8.32453
-8.37488
-8.42061
-8.46182
-8.4986
-8.53103
-8.55916
-8.58306
-8.60274
-8.61821
-8.62946
-8.63648
-8.63921
-8.63764
-8.63169
-8.62133
-8.6065
-8.58713
-8.56316
-8.53454
-8.50119
-8.46303
-8.41999
-8.37199
-8.31896
-8.26087
-8.19764
-8.12924
-8.05559
-7.97663
-7.89228
-7.80243
-7.70701
-7.60586
-7.49893
-7.38645
-7.26851
-7.14494
-7.01571
-6.8808
-6.74025
-6.59406
-6.44229
-6.28498
-6.12221
-5.95403
-5.78054
-5.60183
-5.41801
-5.22919
-5.03551
-4.8371
-4.63411
-4.42667
-4.21496
-3.99914
-3.77938
-3.55586
-3.32875
-3.09824
-2.86451
-2.62778
-2.38823
-2.14606
-1.90145
-1.65461
-1.40573
-1.15505
-0.902759
-0.649017
-0.393963
-0.137831
0.118939
0.376156
0.633805
0.891678
1.14959
1.40735
1.66477
1.92166
2.17787
2.4332
2.68749
2.94055
3.19221
3.44234
3.69077
3.93738
4.182
4.4245
4.66475
4.90263
5.13803
5.37084
5.60098
5.82834
6.05285
6.2744
6.49292
6.7083
6.92045
7.12927
7.33469
7.53661
7.73495
7.92962
8.12052
8.3076
8.49078
8.66995
8.84507
9.01629
9.18305
9.35055
9.50561
-7.42074
-7.42073
-7.42077
-7.42084
-7.42093
-7.42097
-7.4212
-7.42215
-7.4243
-7.42776
-7.43236
-7.43771
-7.44339
-7.44897
-7.45408
-7.4584
-7.46175
-7.46401
-7.4651
-7.46496
-7.46362
-7.46122
-7.45792
-7.45393
-7.44951
-7.44493
-7.44048
-7.43644
-7.43302
-7.43029
-7.4282
-7.42652
-7.42501
-7.42371
-7.4231
-7.42387
-7.4265
-7.43065
-7.4349
-7.43743
-7.43698
-7.43457
-7.43237
-7.43183
-7.43246
-7.43419
-7.43962
-7.44996
-7.46445
-7.48364
-7.50837
-7.53888
-7.57579
-7.61983
-7.671
-7.728
-7.7892
-7.85321
-7.91852
-7.98388
-8.04821
-8.1108
-8.1709
-8.22781
-8.28129
-8.33115
-8.37728
-8.41961
-8.45811
-8.49275
-8.52352
-8.55038
-8.57332
-8.59231
-8.6073
-8.61824
-8.6251
-8.62781
-8.6263
-8.62053
-8.61041
-8.59589
-8.57689
-8.55337
-8.52523
-8.49243
-8.45487
-8.41249
-8.36519
-8.31292
-8.25562
-8.19323
-8.1257
-8.05296
-7.97494
-7.89158
-7.80279
-7.7085
-7.60859
-7.50297
-7.39171
-7.27489
-7.15245
-7.02437
-6.89063
-6.75125
-6.60624
-6.45565
-6.29952
-6.13792
-5.9709
-5.79857
-5.62101
-5.43833
-5.25063
-5.05805
-4.86072
-4.65878
-4.45239
-4.2417
-4.02687
-3.80807
-3.58548
-3.35928
-3.12965
-2.89678
-2.66086
-2.42209
-2.18066
-1.93676
-1.69059
-1.44236
-1.19228
-0.940573
-0.68741
-0.432941
-0.177378
0.0789313
0.335778
0.593072
0.850619
1.10824
1.36574
1.62294
1.87964
2.13569
2.39089
2.64508
2.89806
3.14968
3.39978
3.64823
3.89487
4.13957
4.38216
4.62252
4.86053
5.09608
5.32904
5.55934
5.78687
6.01154
6.23327
6.45196
6.66752
6.87984
7.08885
7.29444
7.49653
7.69503
7.88987
8.08095
8.26815
8.45142
8.63075
8.80614
8.97811
9.14549
9.31574
9.46675
-7.42188
-7.42159
-7.42122
-7.42124
-7.42244
-7.42522
-7.42937
-7.43452
-7.44032
-7.44647
-7.45267
-7.45866
-7.46423
-7.46918
-7.47335
-7.47659
-7.47882
-7.47997
-7.48001
-7.4789
-7.47668
-7.4734
-7.46916
-7.46404
-7.45814
-7.45158
-7.44459
-7.43743
-7.43048
-7.42411
-7.41858
-7.41411
-7.41098
-7.40968
-7.41092
-7.41488
-7.42039
-7.42541
-7.42855
-7.4295
-7.42889
-7.42837
-7.42947
-7.43294
-7.43928
-7.44921
-7.46358
-7.48306
-7.50775
-7.53729
-7.57122
-7.60928
-7.65132
-7.69721
-7.74669
-7.79924
-7.8542
-7.91086
-7.9684
-8.02602
-8.08299
-8.13866
-8.1925
-8.24403
-8.2929
-8.33888
-8.38177
-8.42144
-8.45776
-8.49065
-8.52003
-8.54582
-8.56794
-8.58632
-8.6009
-8.61158
-8.6183
-8.62099
-8.61956
-8.61393
-8.60405
-8.58982
-8.57117
-8.54805
-8.52037
-8.48807
-8.45106
-8.40928
-8.36264
-8.31107
-8.2545
-8.19289
-8.12616
-8.05425
-7.97707
-7.89456
-7.80663
-7.71321
-7.61423
-7.50965
-7.39948
-7.28372
-7.16235
-7.03534
-6.90268
-6.76438
-6.62046
-6.47096
-6.31592
-6.15539
-5.98946
-5.8182
-5.64169
-5.46005
-5.27339
-5.08183
-4.8855
-4.68455
-4.47912
-4.26937
-4.05547
-3.83758
-3.61587
-3.39052
-3.16172
-2.92966
-2.69451
-2.45649
-2.21577
-1.97255
-1.72704
-1.47943
-1.22994
-0.978792
-0.726158
-0.472229
-0.217217
0.0386251
0.295093
0.55204
0.809271
1.06661
1.32385
1.58083
1.83734
2.09322
2.34829
2.60236
2.85526
3.10681
3.35689
3.60534
3.852
4.09674
4.33941
4.57987
4.81798
5.05364
5.28674
5.51718
5.74485
5.96967
6.19155
6.41039
6.6261
6.83858
7.04773
7.25345
7.45567
7.65429
7.84924
8.04044
8.2278
8.41126
8.59084
8.76649
8.93889
9.10628
9.27728
9.42206
-7.4242
-7.4236
-7.42321
-7.42469
-7.429
-7.4354
-7.44281
-7.45053
-7.4581
-7.46518
-7.47164
-7.47741
-7.48243
-7.48664
-7.48996
-7.4923
-7.4936
-7.4938
-7.4929
-7.49085
-7.48767
-7.4834
-7.47807
-7.47176
-7.46451
-7.4564
-7.44752
-7.4381
-7.42846
-7.41913
-7.41072
-7.40404
-7.40008
-7.39975
-7.40288
-7.40756
-7.41216
-7.41601
-7.419
-7.42161
-7.42464
-7.42923
-7.43638
-7.44707
-7.46212
-7.48175
-7.50554
-7.53294
-7.56372
-7.59753
-7.63413
-7.6735
-7.7156
-7.76037
-7.80756
-7.8568
-7.9076
-7.95943
-8.01174
-8.06396
-8.11558
-8.16614
-8.21521
-8.26243
-8.3075
-8.35016
-8.39021
-8.42747
-8.46179
-8.49303
-8.52107
-8.54578
-8.56706
-8.58479
-8.59888
-8.60922
-8.61571
-8.61827
-8.6168
-8.61122
-8.60145
-8.58739
-8.56898
-8.54614
-8.51879
-8.48687
-8.4503
-8.409
-8.36288
-8.31188
-8.25592
-8.19495
-8.1289
-8.0577
-7.98125
-7.89949
-7.81233
-7.71972
-7.62157
-7.51787
-7.40859
-7.29371
-7.17322
-7.04709
-6.91531
-6.77789
-6.63486
-6.48623
-6.33206
-6.1724
-6.00733
-5.83691
-5.66125
-5.48044
-5.2946
-5.10384
-4.9083
-4.70812
-4.50346
-4.29446
-4.08129
-3.86411
-3.6431
-3.41843
-3.1903
-2.95887
-2.72435
-2.48692
-2.24678
-2.00411
-1.75912
-1.51202
-1.26302
-1.01231
-0.760096
-0.506575
-0.25196
0.0035177
0.259672
0.516322
0.773294
1.03038
1.28742
1.5442
1.80055
2.05628
2.31123
2.56519
2.818
3.0695
3.31955
3.56799
3.81467
4.05944
4.30216
4.54268
4.78088
5.01664
5.24985
5.4804
5.7082
5.93316
6.15518
6.37416
6.59
6.80262
7.01191
7.21778
7.42015
7.61893
7.81403
8.00539
8.19292
8.37656
8.55631
8.73207
8.90446
9.0712
9.24168
9.37969
-7.42851
-7.42759
-7.42815
-7.43273
-7.4403
-7.44888
-7.45757
-7.46588
-7.47352
-7.48042
-7.48658
-7.49197
-7.49654
-7.50022
-7.50294
-7.50464
-7.50526
-7.50477
-7.50314
-7.50038
-7.49647
-7.49146
-7.48536
-7.47816
-7.46986
-7.46058
-7.45045
-7.43966
-7.42863
-7.41802
-7.40867
-7.40183
-7.39849
-7.39838
-7.40004
-7.40238
-7.40539
-7.40946
-7.41489
-7.42159
-7.4299
-7.44105
-7.45603
-7.47492
-7.49743
-7.5232
-7.55193
-7.58326
-7.61696
-7.65284
-7.69077
-7.73069
-7.77248
-7.81603
-7.86113
-7.90751
-7.95483
-8.00274
-8.05085
-8.0988
-8.1462
-8.19273
-8.23804
-8.28183
-8.32383
-8.36379
-8.40149
-8.43674
-8.46935
-8.49917
-8.52603
-8.54977
-8.57027
-8.58738
-8.60097
-8.61094
-8.61716
-8.61953
-8.61795
-8.61232
-8.60256
-8.58858
-8.57029
-8.54762
-8.52049
-8.48884
-8.45257
-8.41162
-8.3659
-8.31534
-8.25986
-8.1994
-8.1339
-8.06325
-7.9874
-7.90624
-7.81971
-7.72774
-7.63027
-7.52725
-7.41866
-7.30448
-7.18466
-7.0592
-6.92809
-6.79134
-6.64895
-6.50098
-6.34745
-6.18843
-6.02398
-5.85418
-5.67913
-5.49891
-5.31366
-5.12348
-4.92851
-4.72889
-4.52477
-4.31631
-4.10367
-3.88701
-3.66651
-3.44234
-3.21468
-2.98373
-2.74967
-2.51268
-2.27295
-2.03069
-1.78611
-1.53939
-1.29076
-1.0404
-0.788505
-0.5353
-0.280991
-0.0257954
0.230101
0.486517
0.743269
1.00016
1.25701
1.51362
1.76982
2.02542
2.28024
2.53409
2.78681
3.03825
3.28825
3.53666
3.78334
4.02811
4.27085
4.5114
4.74964
4.98545
5.21873
5.44935
5.67724
5.90228
6.12439
6.34347
6.55942
6.77215
6.98155
7.18754
7.39002
7.58892
7.78414
7.97561
8.16324
8.34697
8.52675
8.70241
8.87451
9.04029
9.20997
9.3414
-7.43382
-7.43339
-7.43621
-7.44354
-7.45244
-7.46128
-7.4697
-7.47757
-7.48482
-7.49141
-7.4973
-7.50241
-7.50666
-7.50998
-7.5123
-7.51356
-7.51373
-7.51278
-7.51069
-7.50745
-7.5031
-7.49763
-7.49098
-7.48308
-7.47406
-7.46414
-7.45351
-7.44247
-7.43148
-7.42136
-7.41323
-7.40779
-7.40448
-7.40241
-7.40166
-7.40273
-7.40624
-7.41204
-7.42008
-7.43101
-7.44538
-7.46313
-7.48409
-7.50801
-7.53467
-7.56373
-7.595
-7.62831
-7.6635
-7.7004
-7.73886
-7.77873
-7.8199
-7.86223
-7.90556
-7.9497
-7.99441
-8.03944
-8.08454
-8.12942
-8.17381
-8.21742
-8.25999
-8.30124
-8.34094
-8.37884
-8.41474
-8.44842
-8.47969
-8.50836
-8.53424
-8.55718
-8.577
-8.59355
-8.60669
-8.61628
-8.62221
-8.62435
-8.6226
-8.61685
-8.60703
-8.59303
-8.57477
-8.55217
-8.52515
-8.49364
-8.45757
-8.41686
-8.37142
-8.32116
-8.26604
-8.20597
-8.14087
-8.07066
-7.99525
-7.91456
-7.82851
-7.73702
-7.64006
-7.53755
-7.42947
-7.31578
-7.19645
-7.07147
-6.94083
-6.80454
-6.6626
-6.51507
-6.36197
-6.20337
-6.03933
-5.86994
-5.69528
-5.51546
-5.33058
-5.14078
-4.94618
-4.74692
-4.54316
-4.33505
-4.12275
-3.90644
-3.68628
-3.46245
-3.23512
-3.00449
-2.77074
-2.53406
-2.29463
-2.05267
-1.80837
-1.56193
-1.31357
-1.06347
-0.811833
-0.558877
-0.304813
-0.0498388
0.205847
0.462075
0.71864
0.975365
1.23205
1.48852
1.74458
2.00005
2.25475
2.50849
2.76112
3.01247
3.26242
3.51079
3.75743
4.00218
4.2449
4.48544
4.72368
4.95949
5.19278
5.42343
5.65135
5.87645
6.09862
6.31777
6.53378
6.74656
6.95603
7.16208
7.36463
7.5636
7.75889
7.95042
8.13809
8.32182
8.50153
8.67695
8.8486
9.01332
9.18224
9.30756
-7.43793
-7.4388
-7.4443
-7.45269
-7.46124
-7.46944
-7.47729
-7.48474
-7.4917
-7.49808
-7.50378
-7.5087
-7.51275
-7.51586
-7.51796
-7.519
-7.51893
-7.51774
-7.51542
-7.51197
-7.5074
-7.50163
-7.49457
-7.48641
-7.47738
-7.46761
-7.45735
-7.44705
-7.43749
-7.42934
-7.42288
-7.41746
-7.41265
-7.40923
-7.40808
-7.40952
-7.41405
-7.42215
-7.43385
-7.44903
-7.46739
-7.48873
-7.5128
-7.53934
-7.56813
-7.59895
-7.63162
-7.66597
-7.70184
-7.73908
-7.77754
-7.8171
-7.85764
-7.89902
-7.9411
-7.98372
-8.02671
-8.06986
-8.11298
-8.15583
-8.1982
-8.23984
-8.28053
-8.32004
-8.35813
-8.39459
-8.4292
-8.46174
-8.49202
-8.51983
-8.54497
-8.56727
-8.58654
-8.60261
-8.61534
-8.62458
-8.6302
-8.63208
-8.63011
-8.62419
-8.61423
-8.60013
-8.58181
-8.55918
-8.53218
-8.50073
-8.46474
-8.42416
-8.37888
-8.32884
-8.27396
-8.21416
-8.14934
-8.07944
-8.00435
-7.92399
-7.83828
-7.74716
-7.65054
-7.54838
-7.44065
-7.32729
-7.20828
-7.0836
-6.95326
-6.81724
-6.67558
-6.5283
-6.37545
-6.21709
-6.05328
-5.88412
-5.70967
-5.53006
-5.3454
-5.1558
-4.9614
-4.76234
-4.55877
-4.35086
-4.13877
-3.92266
-3.7027
-3.47907
-3.25195
-3.02152
-2.78797
-2.55148
-2.31225
-2.07049
-1.82639
-1.58017
-1.332
-1.08209
-0.830649
-0.57789
-0.324019
-0.0692264
0.186292
0.442357
0.698767
0.955344
1.21189
1.46823
1.72416
1.9795
2.23407
2.4877
2.74022
2.99149
3.24137
3.48969
3.73627
3.98097
4.22363
4.46413
4.70233
4.93812
5.17139
5.40204
5.62997
5.85509
6.07728
6.29645
6.51249
6.7253
6.93479
7.14088
7.34346
7.54247
7.7378
7.92935
8.11702
8.30068
8.48025
8.65536
8.82651
8.99016
9.1584
9.27822
-7.43914
-7.44171
-7.44875
-7.45682
-7.46468
-7.47237
-7.47988
-7.48709
-7.4939
-7.50018
-7.50582
-7.5107
-7.51472
-7.5178
-7.51988
-7.52089
-7.52083
-7.51964
-7.51733
-7.51388
-7.50927
-7.5034
-7.4964
-7.48851
-7.47992
-7.47087
-7.46182
-7.45324
-7.44549
-7.43853
-7.43214
-7.42621
-7.42117
-7.41806
-7.41772
-7.4207
-7.42739
-7.43782
-7.45171
-7.46891
-7.48914
-7.51214
-7.53767
-7.56546
-7.5953
-7.62699
-7.66034
-7.69518
-7.73134
-7.7687
-7.80712
-7.84647
-7.88662
-7.92743
-7.96878
-8.01052
-8.0525
-8.09456
-8.1365
-8.17815
-8.2193
-8.25975
-8.2993
-8.33773
-8.37483
-8.41038
-8.44417
-8.47599
-8.50561
-8.53283
-8.55744
-8.57926
-8.5981
-8.61378
-8.62615
-8.63505
-8.64035
-8.64193
-8.6397
-8.63355
-8.62338
-8.60911
-8.59065
-8.56791
-8.54083
-8.50933
-8.47334
-8.4328
-8.38761
-8.33768
-8.28295
-8.22331
-8.15869
-8.08898
-8.0141
-7.93397
-7.84848
-7.75758
-7.66118
-7.55923
-7.45169
-7.33852
-7.21969
-7.09517
-6.96497
-6.82909
-6.68755
-6.54037
-6.38762
-6.22935
-6.06563
-5.89653
-5.72217
-5.54262
-5.35803
-5.16849
-4.97415
-4.77516
-4.57167
-4.36383
-4.15183
-3.93581
-3.71595
-3.49242
-3.26541
-3.03509
-2.80165
-2.56528
-2.32617
-2.08454
-1.84058
-1.5945
-1.34648
-1.09672
-0.845425
-0.592826
-0.339106
-0.0844678
0.170913
0.42683
0.683106
0.939542
1.19596
1.45216
1.70796
1.96317
2.21761
2.47111
2.72353
2.9747
3.22449
3.47274
3.71925
3.96387
4.20646
4.44688
4.68501
4.92075
5.15398
5.38459
5.61251
5.83762
6.05982
6.27898
6.49502
6.70782
6.91732
7.1234
7.326
7.52503
7.72037
7.91191
8.09954
8.2831
8.46248
8.63725
8.80785
8.97048
9.13808
9.25312
-7.4359
-7.43986
-7.44706
-7.45456
-7.4621
-7.46961
-7.47701
-7.4842
-7.49104
-7.49742
-7.50319
-7.50824
-7.51245
-7.51573
-7.518
-7.51921
-7.51931
-7.51828
-7.5161
-7.51276
-7.50824
-7.50259
-7.49599
-7.48872
-7.48104
-7.47326
-7.46563
-7.45819
-7.45102
-7.44421
-7.4379
-7.43247
-7.42856
-7.42693
-7.42817
-7.43268
-7.44067
-7.4522
-7.46711
-7.48521
-7.50628
-7.53003
-7.5562
-7.58456
-7.61489
-7.64699
-7.68068
-7.7158
-7.75219
-7.78971
-7.82821
-7.86755
-7.90761
-7.94825
-7.98936
-8.03077
-8.07236
-8.11396
-8.1554
-8.19652
-8.23713
-8.27704
-8.31606
-8.35398
-8.3906
-8.42572
-8.4591
-8.49053
-8.51978
-8.54663
-8.57088
-8.59234
-8.61082
-8.62614
-8.63814
-8.64669
-8.65165
-8.65291
-8.65038
-8.64395
-8.63353
-8.61904
-8.60037
-8.57746
-8.55023
-8.51861
-8.48255
-8.44197
-8.39678
-8.3469
-8.29223
-8.23268
-8.16816
-8.09856
-8.0238
-7.94378
-7.85841
-7.76762
-7.67132
-7.56947
-7.46202
-7.34892
-7.23015
-7.10567
-6.9755
-6.83962
-6.69808
-6.55089
-6.39812
-6.23982
-6.07606
-5.90693
-5.73252
-5.55294
-5.3683
-5.17872
-4.98435
-4.78533
-4.58181
-4.37397
-4.16197
-3.94596
-3.72612
-3.50262
-3.27565
-3.04539
-2.812
-2.57569
-2.33665
-2.09511
-1.85125
-1.60527
-1.35736
-1.10771
-0.856555
-0.604091
-0.350506
-0.0959977
0.159249
0.415034
0.671175
0.927478
1.18376
1.43982
1.69547
1.95052
2.20482
2.45819
2.71048
2.96154
3.21124
3.45941
3.70582
3.95034
4.19282
4.43314
4.67118
4.90683
5.13999
5.37055
5.59842
5.82352
6.0457
6.26484
6.48084
6.69362
6.90309
7.10917
7.31176
7.51078
7.70612
7.89764
8.0852
8.26862
8.44778
8.62217
8.79222
8.95387
9.12087
9.23187
-7.42626
-7.43086
-7.43775
-7.44524
-7.45297
-7.46067
-7.46826
-7.47565
-7.48276
-7.48943
-7.49554
-7.50093
-7.50547
-7.50907
-7.51163
-7.51312
-7.51347
-7.51269
-7.51076
-7.5077
-7.50357
-7.49851
-7.49271
-7.48636
-7.4796
-7.47259
-7.46548
-7.45838
-7.45142
-7.4449
-7.43923
-7.43484
-7.43219
-7.43183
-7.43427
-7.43984
-7.44873
-7.46099
-7.47652
-7.49514
-7.51663
-7.54073
-7.56721
-7.59585
-7.62645
-7.65883
-7.69281
-7.72823
-7.76491
-7.80272
-7.84149
-7.88109
-7.9214
-7.96227
-8.00356
-8.04513
-8.08683
-8.12852
-8.17003
-8.21119
-8.25181
-8.29171
-8.33069
-8.36855
-8.40508
-8.44009
-8.47333
-8.50461
-8.53368
-8.56033
-8.58434
-8.60552
-8.62369
-8.63867
-8.65031
-8.65848
-8.66308
-8.66398
-8.6611
-8.65434
-8.64362
-8.62885
-8.60993
-8.58678
-8.55933
-8.52753
-8.49133
-8.45066
-8.40543
-8.35552
-8.30085
-8.24131
-8.17682
-8.10725
-8.03254
-7.95256
-7.86723
-7.77646
-7.68019
-7.57835
-7.4709
-7.35779
-7.23898
-7.11447
-6.98422
-6.84828
-6.70664
-6.55936
-6.40647
-6.24807
-6.08419
-5.91495
-5.74042
-5.56074
-5.37598
-5.18631
-4.99183
-4.79271
-4.58912
-4.38123
-4.16918
-3.95315
-3.73329
-3.5098
-3.28283
-3.05259
-2.81923
-2.58294
-2.34395
-2.10247
-1.85869
-1.61281
-1.365
-1.11547
-0.864441
-0.612103
-0.358657
-0.104279
0.150822
0.40647
0.662462
0.918621
1.17474
1.43065
1.68614
1.94104
2.19518
2.4484
2.70055
2.95147
3.20108
3.44916
3.69545
3.93984
4.18219
4.42238
4.6603
4.89585
5.12892
5.3594
5.58722
5.81229
6.03445
6.25354
6.4695
6.68223
6.89166
7.09771
7.30028
7.4993
7.69463
7.88611
8.07358
8.25685
8.43576
8.60975
8.77926
8.94
9.1064
9.21409
-7.40862
-7.41321
-7.42027
-7.42854
-7.43697
-7.44516
-7.45311
-7.46085
-7.46836
-7.47552
-7.48213
-7.488
-7.49297
-7.49697
-7.49993
-7.5018
-7.50255
-7.5022
-7.50073
-7.49821
-7.49471
-7.49033
-7.48518
-7.47942
-7.47317
-7.46654
-7.45967
-7.45279
-7.4462
-7.44023
-7.43522
-7.43159
-7.42985
-7.43045
-7.43383
-7.44026
-7.4499
-7.46276
-7.47877
-7.49774
-7.5195
-7.54382
-7.5705
-7.59937
-7.63023
-7.66291
-7.69724
-7.73305
-7.77017
-7.80844
-7.84773
-7.88789
-7.92878
-7.97025
-8.01214
-8.05428
-8.09653
-8.13872
-8.1807
-8.22229
-8.2633
-8.30355
-8.34284
-8.38096
-8.41771
-8.45287
-8.48622
-8.51752
-8.54656
-8.57309
-8.59692
-8.61784
-8.63569
-8.6503
-8.66152
-8.66922
-8.67334
-8.67379
-8.67048
-8.66334
-8.65227
-8.63718
-8.61796
-8.59452
-8.56678
-8.53472
-8.49834
-8.45756
-8.41226
-8.36231
-8.30761
-8.24805
-8.18354
-8.11398
-8.03927
-7.9593
-7.87397
-7.78319
-7.68689
-7.58501
-7.4775
-7.36433
-7.24545
-7.12084
-6.9905
-6.85442
-6.71265
-6.56523
-6.41221
-6.25366
-6.08964
-5.92025
-5.74558
-5.56575
-5.38086
-5.19104
-4.99642
-4.7972
-4.59353
-4.38558
-4.17349
-3.95744
-3.73757
-3.51407
-3.28712
-3.0569
-2.82357
-2.58731
-2.34835
-2.10695
-1.86326
-1.61749
-1.3698
-1.1204
-0.869515
-0.617323
-0.364021
-0.109796
0.145152
0.40064
0.656473
0.912463
1.16841
1.42414
1.67945
1.93417
2.18814
2.44119
2.69318
2.94396
3.19349
3.44149
3.68765
3.93187
4.17406
4.4141
4.65189
4.88731
5.12027
5.35066
5.57842
5.80347
6.0256
6.24463
6.46052
6.6732
6.88258
7.08859
7.29113
7.49015
7.68548
7.87691
8.06427
8.24738
8.42602
8.59962
8.7686
8.92849
9.09428
9.19937
-7.38259
-7.38702
-7.39501
-7.40469
-7.41413
-7.42289
-7.43126
-7.43952
-7.44773
-7.45566
-7.463
-7.46951
-7.47505
-7.47956
-7.48302
-7.48541
-7.48671
-7.48692
-7.48604
-7.48411
-7.48119
-7.47735
-7.4727
-7.46731
-7.46133
-7.4549
-7.44826
-7.44166
-7.4354
-7.42979
-7.42526
-7.42226
-7.42126
-7.42267
-7.42684
-7.434
-7.44425
-7.45759
-7.47394
-7.49316
-7.51509
-7.53958
-7.56645
-7.59556
-7.62674
-7.65983
-7.69465
-7.73102
-7.76877
-7.80773
-7.84777
-7.88872
-7.93044
-7.97275
-8.01549
-8.0585
-8.1016
-8.14464
-8.18741
-8.22972
-8.27141
-8.31228
-8.35213
-8.39075
-8.42792
-8.46342
-8.49702
-8.52847
-8.55748
-8.58382
-8.60731
-8.6278
-8.64515
-8.65921
-8.6698
-8.67685
-8.68036
-8.68026
-8.67649
-8.66896
-8.65759
-8.64222
-8.62272
-8.59899
-8.57093
-8.53852
-8.50191
-8.46104
-8.41572
-8.36574
-8.311
-8.25142
-8.1869
-8.11735
-8.04266
-7.96271
-7.87737
-7.78656
-7.69022
-7.5883
-7.48075
-7.36752
-7.24857
-7.12387
-6.99342
-6.85721
-6.71532
-6.56776
-6.41461
-6.25592
-6.09178
-5.92225
-5.74746
-5.5675
-5.3825
-5.19255
-4.99782
-4.7985
-4.59479
-4.38681
-4.17472
-3.95866
-3.73881
-3.51535
-3.28845
-3.0583
-2.82504
-2.58885
-2.34998
-2.1087
-1.86516
-1.61954
-1.37201
-1.12279
-0.872086
-0.620087
-0.366973
-0.112951
0.141802
0.397083
0.652712
0.908486
1.16422
1.41972
1.67481
1.92932
2.18308
2.43594
2.68773
2.93835
3.18787
3.43587
3.68188
3.92591
4.16791
4.40779
4.64544
4.88073
5.11358
5.34388
5.57159
5.79666
6.01878
6.23774
6.45355
6.66616
6.87549
7.08146
7.28399
7.483
7.67834
7.86972
8.05697
8.2399
8.41828
8.59148
8.75994
8.91906
9.08418
9.18738
-7.34939
-7.35414
-7.36366
-7.37515
-7.3857
-7.39518
-7.40433
-7.41329
-7.4222
-7.43103
-7.43944
-7.44695
-7.4532
-7.45821
-7.46218
-7.46515
-7.46705
-7.46786
-7.46756
-7.46618
-7.46374
-7.4603
-7.45593
-7.45075
-7.44493
-7.43865
-7.43212
-7.42563
-7.41953
-7.41421
-7.4101
-7.40764
-7.40725
-7.4093
-7.41407
-7.42173
-7.43237
-7.446
-7.46255
-7.48193
-7.50401
-7.52866
-7.55574
-7.58511
-7.61664
-7.65017
-7.68552
-7.72251
-7.76099
-7.80079
-7.84174
-7.88367
-7.92641
-7.96977
-8.01358
-8.05767
-8.10184
-8.14591
-8.18967
-8.23291
-8.27544
-8.31704
-8.35752
-8.39666
-8.43424
-8.47001
-8.50373
-8.53512
-8.56388
-8.58974
-8.61257
-8.63234
-8.64897
-8.66225
-8.6719
-8.67797
-8.6807
-8.68008
-8.67596
-8.66824
-8.65678
-8.64136
-8.6218
-8.59795
-8.56962
-8.5368
-8.49991
-8.459
-8.41368
-8.36367
-8.30888
-8.24923
-8.18469
-8.11516
-8.0405
-7.96055
-7.87518
-7.78432
-7.68791
-7.58593
-7.47832
-7.36504
-7.24602
-7.12123
-6.99064
-6.8543
-6.71227
-6.56458
-6.41131
-6.25251
-6.08825
-5.91861
-5.74369
-5.56363
-5.37856
-5.1886
-4.9939
-4.7946
-4.59087
-4.38285
-4.17071
-3.95461
-3.73473
-3.51127
-3.28441
-3.05434
-2.82125
-2.58533
-2.34677
-2.10576
-1.86249
-1.61712
-1.36987
-1.12095
-0.870547
-0.618858
-0.366067
-0.112373
0.142041
0.39698
0.652255
0.907669
1.16303
1.41816
1.67288
1.92702
2.18041
2.4329
2.68431
2.93458
3.18395
3.43187
3.67764
3.92142
4.16321
4.4029
4.64037
4.87552
5.10824
5.33845
5.56616
5.79137
6.01355
6.23244
6.44817
6.66072
6.87
7.07595
7.27847
7.47754
7.67292
7.86426
8.0514
8.23415
8.41226
8.58509
8.75306
8.91145
9.07586
9.17782
-7.31203
-7.31769
-7.32926
-7.34296
-7.35468
-7.36445
-7.37399
-7.38401
-7.39419
-7.40415
-7.41363
-7.42216
-7.42922
-7.43477
-7.43924
-7.44277
-7.44526
-7.44664
-7.44685
-7.44591
-7.44381
-7.44062
-7.43643
-7.43135
-7.42553
-7.41919
-7.41261
-7.40613
-7.40012
-7.39499
-7.39117
-7.38906
-7.38905
-7.39143
-7.39647
-7.40429
-7.41501
-7.42864
-7.44516
-7.4645
-7.48656
-7.51125
-7.53845
-7.56806
-7.59992
-7.63387
-7.66975
-7.70741
-7.74668
-7.78739
-7.82933
-7.87235
-7.91623
-7.96079
-8.00581
-8.05109
-8.09639
-8.14149
-8.18617
-8.23021
-8.2734
-8.31552
-8.35638
-8.39576
-8.43343
-8.46914
-8.50265
-8.53365
-8.56177
-8.5866
-8.60821
-8.62687
-8.64257
-8.65492
-8.66319
-8.66767
-8.66927
-8.66805
-8.66376
-8.65615
-8.64496
-8.62987
-8.61061
-8.58711
-8.55942
-8.52752
-8.49135
-8.45075
-8.40552
-8.3555
-8.30066
-8.24096
-8.17638
-8.1068
-8.03209
-7.95206
-7.86658
-7.77559
-7.67905
-7.57693
-7.46919
-7.35576
-7.23658
-7.1116
-6.98082
-6.84428
-6.70204
-6.55415
-6.40068
-6.2417
-6.07725
-5.90744
-5.73235
-5.55215
-5.36696
-5.17697
-4.98227
-4.78298
-4.5792
-4.37113
-4.15891
-3.94276
-3.72285
-3.49939
-3.27256
-3.04258
-2.80965
-2.57402
-2.3358
-2.09509
-1.85209
-1.60702
-1.36009
-1.11153
-0.861494
-0.61018
-0.357792
-0.104505
0.149479
0.403983
0.658803
0.913751
1.16863
1.42327
1.67749
1.93112
2.18398
2.4359
2.6867
2.93625
3.1844
3.43109
3.67616
3.91948
4.16087
4.40021
4.63737
4.87222
5.10465
5.33458
5.56212
5.78733
6.00952
6.2283
6.44393
6.65642
6.86568
7.07162
7.27416
7.47337
7.66892
7.86027
8.0473
8.22988
8.40775
8.58022
8.74773
8.90544
9.0691
9.17046
-7.27415
-7.28104
-7.29513
-7.31078
-7.32282
-7.33304
-7.34367
-7.35482
-7.36606
-7.37707
-7.38756
-7.39704
-7.40488
-7.41109
-7.41617
-7.42033
-7.42341
-7.42532
-7.42598
-7.42538
-7.42353
-7.42045
-7.41624
-7.41104
-7.40504
-7.39848
-7.39169
-7.38501
-7.37884
-7.3736
-7.36968
-7.36746
-7.36729
-7.36946
-7.3742
-7.38168
-7.39199
-7.4052
-7.4213
-7.44026
-7.46205
-7.48661
-7.51384
-7.54364
-7.57584
-7.61028
-7.64678
-7.68521
-7.72537
-7.76708
-7.81011
-7.85424
-7.89926
-7.94493
-7.99102
-8.03729
-8.08348
-8.12933
-8.1746
-8.21909
-8.26256
-8.30482
-8.34565
-8.38486
-8.42224
-8.45758
-8.49061
-8.52098
-8.54809
-8.57101
-8.59013
-8.60672
-8.62114
-8.63313
-8.64207
-8.64753
-8.64947
-8.64812
-8.64366
-8.63598
-8.62479
-8.60972
-8.59053
-8.56723
-8.54013
-8.50915
-8.47367
-8.43334
-8.38819
-8.33825
-8.28347
-8.22385
-8.15931
-8.08975
-8.01503
-7.935
-7.84951
-7.7585
-7.66196
-7.55983
-7.45206
-7.33858
-7.21934
-7.09428
-6.96342
-6.8268
-6.68448
-6.5365
-6.38294
-6.22386
-6.05934
-5.88944
-5.71429
-5.53403
-5.3488
-5.15875