/*--------------------------------*- C++ -*----------------------------------*\
  =========                 |
  \\      /  F ield         | OpenFOAM: The Open Source CFD Toolbox
   \\    /   O peration     | Website:  https://openfoam.org
    \\  /    A nd           | Version:  8
     \\/     M anipulation  |
\*---------------------------------------------------------------------------*/
FoamFile
{
    version     2.0;
    format      ascii;
    class       volVectorField;
    location    "500";
    object      U;
}
// * * * * * * * * * * * * * * * * * * * * * * * * * * * * * * * * * * * * * //

dimensions      [0 1 -1 0 0 0 0];

internalField   nonuniform List<vector> 
12225
(
(9.75711 0.0460187 0)
(9.32996 0.0879932 0)
(8.89914 0.0943786 0)
(8.51416 0.083092 0)
(8.16588 0.0784865 0)
(7.87529 0.0924975 0)
(7.61329 0.0813416 0)
(7.40954 0.0527671 0)
(7.24508 0.0343832 0)
(7.10493 0.0185023 0)
(7.00097 0.00654793 0)
(6.90991 0.000542208 0)
(6.82566 -0.000305623 0)
(6.75573 0.000909907 0)
(6.69983 -0.000371938 0)
(6.64245 -0.00146442 0)
(6.60017 -0.000883082 0)
(6.58529 0.00136429 0)
(10.0817 0.0565066 0)
(10.2306 0.0896964 0)
(10.3057 0.0859214 0)
(10.3185 0.0837473 0)
(10.3043 0.0800661 0)
(10.2497 0.0713257 0)
(10.1625 0.0657372 0)
(10.0743 0.063755 0)
(9.97724 0.0608041 0)
(9.89174 0.0558694 0)
(9.80313 0.051737 0)
(9.72156 0.0488662 0)
(9.64343 0.0449613 0)
(9.56751 0.0408814 0)
(9.49497 0.0374961 0)
(9.43226 0.0328904 0)
(9.36833 0.0251553 0)
(9.30706 0.0165433 0)
(10.0247 0.0409126 0)
(10.0757 0.0665917 0)
(10.1263 0.0694165 0)
(10.1606 0.0735918 0)
(10.1896 0.0789302 0)
(10.2157 0.0835813 0)
(10.2356 0.0829911 0)
(10.2457 0.0780347 0)
(10.2461 0.0732052 0)
(10.2415 0.0687697 0)
(10.231 0.064741 0)
(10.2176 0.0625755 0)
(10.203 0.061159 0)
(10.1869 0.0583261 0)
(10.17 0.0558433 0)
(10.1537 0.053589 0)
(10.1363 0.0482551 0)
(10.1162 0.0406853 0)
(10.0114 0.0316131 0)
(10.0404 0.056057 0)
(10.0732 0.0636781 0)
(10.094 0.0684291 0)
(10.1116 0.0725559 0)
(10.1304 0.0756313 0)
(10.149 0.0748294 0)
(10.1643 0.0712689 0)
(10.1756 0.0673923 0)
(10.184 0.0635961 0)
(10.19 0.0605897 0)
(10.1946 0.0586019 0)
(10.1987 0.0571625 0)
(10.2025 0.0552081 0)
(10.2054 0.052779 0)
(10.2079 0.0500338 0)
(10.2096 0.0460108 0)
(10.2096 0.041207 0)
(10.0048 0.0251969 0)
(10.0286 0.0490988 0)
(10.0537 0.0584786 0)
(10.0709 0.0632699 0)
(10.0851 0.067132 0)
(10.1 0.0697493 0)
(10.1148 0.0694358 0)
(10.1275 0.067 0)
(10.1379 0.0640081 0)
(10.1464 0.0609664 0)
(10.1534 0.058307 0)
(10.1596 0.0563472 0)
(10.1657 0.0547885 0)
(10.1717 0.0528562 0)
(10.1772 0.0505252 0)
(10.1825 0.0478242 0)
(10.1872 0.0442915 0)
(10.1907 0.0402692 0)
(10.003 0.0193373 0)
(10.0217 0.0417662 0)
(10.0418 0.0523968 0)
(10.0575 0.0579343 0)
(10.0708 0.0620775 0)
(10.0841 0.0646152 0)
(10.0971 0.0646325 0)
(10.1085 0.0628138 0)
(10.118 0.0603233 0)
(10.126 0.0577246 0)
(10.133 0.0553405 0)
(10.1393 0.0533975 0)
(10.1454 0.0516907 0)
(10.1514 0.0497046 0)
(10.1571 0.047416 0)
(10.1625 0.0447941 0)
(10.1674 0.0416087 0)
(10.1715 0.03807 0)
(10.0021 0.0156224 0)
(10.0162 0.0354954 0)
(10.0329 0.0463864 0)
(10.0474 0.0524833 0)
(10.0601 0.0567995 0)
(10.0724 0.0593208 0)
(10.0844 0.0596222 0)
(10.095 0.058318 0)
(10.104 0.0563078 0)
(10.1118 0.0541047 0)
(10.1188 0.0519817 0)
(10.1251 0.0500987 0)
(10.1312 0.0483296 0)
(10.137 0.0463585 0)
(10.1426 0.0441454 0)
(10.1478 0.0416429 0)
(10.1526 0.0387485 0)
(10.1567 0.0355957 0)
(10.0016 0.0129432 0)
(10.0125 0.0310803 0)
(10.027 0.0417797 0)
(10.0405 0.047977 0)
(10.0525 0.0521853 0)
(10.0642 0.0545959 0)
(10.0753 0.0550906 0)
(10.0853 0.0542089 0)
(10.094 0.0526341 0)
(10.1017 0.0507886 0)
(10.1087 0.0489059 0)
(10.1151 0.0471093 0)
(10.1211 0.0453304 0)
(10.1269 0.0433845 0)
(10.1324 0.0412277 0)
(10.1375 0.0388216 0)
(10.1421 0.0361231 0)
(10.1462 0.0332414 0)
(10.0012 0.0108939 0)
(10.01 0.027179 0)
(10.0225 0.0375661 0)
(10.0349 0.0438102 0)
(10.0463 0.0480169 0)
(10.0573 0.0504785 0)
(10.0679 0.0511638 0)
(10.0775 0.0505539 0)
(10.086 0.0492361 0)
(10.0936 0.0475994 0)
(10.1005 0.0458641 0)
(10.1069 0.0441401 0)
(10.1129 0.0423911 0)
(10.1186 0.0404956 0)
(10.1239 0.0384218 0)
(10.1288 0.0361389 0)
(10.1333 0.0336398 0)
(10.1374 0.0310043 0)
(10.0009 0.00909605 0)
(10.0078 0.0234064 0)
(10.0185 0.0332494 0)
(10.0297 0.0393883 0)
(10.0403 0.0434843 0)
(10.0506 0.0459291 0)
(10.0605 0.0467695 0)
(10.0697 0.0464148 0)
(10.078 0.045359 0)
(10.0854 0.0439461 0)
(10.0922 0.0423752 0)
(10.0985 0.0407458 0)
(10.1044 0.0390507 0)
(10.1099 0.0372255 0)
(10.1151 0.035245 0)
(10.1199 0.0331005 0)
(10.1243 0.0307936 0)
(10.1283 0.0283993 0)
(10.0007 0.00750759 0)
(10.0061 0.0197791 0)
(10.015 0.0288536 0)
(10.025 0.0347253 0)
(10.0347 0.0386088 0)
(10.0442 0.0409716 0)
(10.0535 0.0419184 0)
(10.0621 0.0417873 0)
(10.07 0.0409795 0)
(10.0772 0.0397884 0)
(10.0839 0.0383893 0)
(10.09 0.0368748 0)
(10.0958 0.0352606 0)
(10.1012 0.0335253 0)
(10.1062 0.0316579 0)
(10.1109 0.0296616 0)
(10.1151 0.0275543 0)
(10.119 0.0253808 0)
(10.0005 0.0061006 0)
(10.0047 0.0163125 0)
(10.0121 0.024397 0)
(10.0208 0.0298381 0)
(10.0296 0.0334264 0)
(10.0383 0.035647 0)
(10.0469 0.0366442 0)
(10.0549 0.0366845 0)
(10.0624 0.0360895 0)
(10.0694 0.0351008 0)
(10.0758 0.0338722 0)
(10.0817 0.032486 0)
(10.0873 0.0309825 0)
(10.0925 0.0293563 0)
(10.0973 0.0276265 0)
(10.1018 0.02579 0)
(10.1059 0.0238813 0)
(10.1097 0.0219264 0)
(10.0004 0.00484284 0)
(10.0037 0.0130636 0)
(10.0097 0.0199579 0)
(10.0172 0.0247839 0)
(10.0251 0.0279799 0)
(10.033 0.0299853 0)
(10.0408 0.0309572 0)
(10.0483 0.0311047 0)
(10.0554 0.0306743 0)
(10.0619 0.0298612 0)
(10.0681 0.0287936 0)
(10.0738 0.0275538 0)
(10.0792 0.0261785 0)
(10.0841 0.0246959 0)
(10.0888 0.0231131 0)
(10.0931 0.0214617 0)
(10.097 0.0197421 0)
(10.1007 0.0180153 0)
(10.0003 0.00370672 0)
(10.0029 0.0100232 0)
(10.0079 0.0155779 0)
(10.0143 0.0196087 0)
(10.0212 0.0223024 0)
(10.0284 0.0240056 0)
(10.0355 0.0248643 0)
(10.0424 0.0250432 0)
(10.049 0.0247186 0)
(10.0552 0.024045 0)
(10.061 0.0231266 0)
(10.0665 0.0220364 0)
(10.0716 0.0208118 0)
(10.0764 0.0194881 0)
(10.0809 0.0180798 0)
(10.085 0.0166156 0)
(10.0888 0.0151061 0)
(10.0923 0.013591 0)
(10.0003 0.00265676 0)
(10.0024 0.00715171 0)
(10.0064 0.0112664 0)
(10.0119 0.0143444 0)
(10.0181 0.0164116 0)
(10.0245 0.0177127 0)
(10.0309 0.0183651 0)
(10.0373 0.0184863 0)
(10.0434 0.0182029 0)
(10.0493 0.0176236 0)
(10.0548 0.0168336 0)
(10.0601 0.015885 0)
(10.065 0.014824 0)
(10.0696 0.013668 0)
(10.0738 0.0124529 0)
(10.0778 0.0111855 0)
(10.0814 0.00989794 0)
(10.0848 0.00860248 0)
(10.0002 0.00166153 0)
(10.002 0.00438161 0)
(10.0054 0.00698939 0)
(10.0102 0.00897637 0)
(10.0156 0.0102862 0)
(10.0214 0.0110776 0)
(10.0273 0.0114211 0)
(10.0332 0.0113961 0)
(10.0389 0.0110807 0)
(10.0445 0.0105471 0)
(10.0497 0.00985176 0)
(10.0547 0.00903607 0)
(10.0594 0.00812972 0)
(10.0638 0.00715605 0)
(10.0679 0.00613531 0)
(10.0718 0.00508445 0)
(10.0753 0.00401749 0)
(10.0786 0.00295903 0)
(10.0002 0.000675962 0)
(10.0017 0.00161549 0)
(10.0048 0.00265271 0)
(10.009 0.00341873 0)
(10.014 0.0038478 0)
(10.0193 0.00401139 0)
(10.0248 0.00394727 0)
(10.0304 0.00368261 0)
(10.0358 0.00326555 0)
(10.0411 0.00272175 0)
(10.0461 0.00208968 0)
(10.0509 0.00138357 0)
(10.0554 0.000628913 0)
(10.0597 -0.000166756 0)
(10.0636 -0.000984228 0)
(10.0674 -0.00181767 0)
(10.0708 -0.00265407 0)
(10.074 -0.00347767 0)
(10.0002 -0.000303114 0)
(10.0017 -0.00112098 0)
(10.0046 -0.00166963 0)
(10.0087 -0.00216064 0)
(10.0134 -0.00267355 0)
(10.0186 -0.00318495 0)
(10.0239 -0.0037173 0)
(10.0293 -0.00426473 0)
(10.0346 -0.00483482 0)
(10.0397 -0.00541665 0)
(10.0446 -0.0060177 0)
(10.0493 -0.00662529 0)
(10.0537 -0.00724662 0)
(10.0579 -0.00786805 0)
(10.0618 -0.00849609 0)
(10.0655 -0.00911607 0)
(10.0689 -0.00973663 0)
(10.072 -0.0103336 0)
(10.0002 -0.00124133 0)
(10.0018 -0.00374115 0)
(10.0048 -0.00578309 0)
(10.0091 -0.00745274 0)
(10.014 -0.0088378 0)
(10.0192 -0.00997949 0)
(10.0246 -0.0109409 0)
(10.03 -0.0117566 0)
(10.0354 -0.0124612 0)
(10.0405 -0.0130826 0)
(10.0454 -0.013646 0)
(10.0501 -0.0141657 0)
(10.0545 -0.0146553 0)
(10.0587 -0.015121 0)
(10.0626 -0.01557 0)
(10.0662 -0.0160031 0)
(10.0696 -0.0164254 0)
(10.0727 -0.0168276 0)
(10.0002 -0.00216374 0)
(10.002 -0.00631617 0)
(10.0055 -0.00974739 0)
(10.0102 -0.0124665 0)
(10.0155 -0.0145965 0)
(10.021 -0.016269 0)
(10.0267 -0.017576 0)
(10.0323 -0.0185948 0)
(10.0378 -0.0193833 0)
(10.043 -0.0200119 0)
(10.0481 -0.0205148 0)
(10.0528 -0.0209369 0)
(10.0573 -0.0212908 0)
(10.0615 -0.0216073 0)
(10.0654 -0.0218883 0)
(10.069 -0.0221526 0)
(10.0725 -0.0223981 0)
(10.0756 -0.0226292 0)
(10.0003 -0.00313835 0)
(10.0025 -0.00901165 0)
(10.0066 -0.0137727 0)
(10.0119 -0.0174042 0)
(10.0178 -0.0201582 0)
(10.0238 -0.0222522 0)
(10.0298 -0.0238218 0)
(10.0358 -0.0249614 0)
(10.0415 -0.025783 0)
(10.047 -0.0263657 0)
(10.0522 -0.0267865 0)
(10.0571 -0.0270803 0)
(10.0616 -0.0272979 0)
(10.0659 -0.0274526 0)
(10.0699 -0.0275794 0)
(10.0736 -0.0276754 0)
(10.077 -0.0277665 0)
(10.0802 -0.0278361 0)
(10.0004 -0.00423294 0)
(10.0031 -0.0119642 0)
(10.0082 -0.0179845 0)
(10.0145 -0.0223793 0)
(10.021 -0.0256329 0)
(10.0276 -0.0280525 0)
(10.0342 -0.0297876 0)
(10.0405 -0.0309745 0)
(10.0466 -0.0317595 0)
(10.0523 -0.0322598 0)
(10.0577 -0.032556 0)
(10.0628 -0.0327084 0)
(10.0675 -0.0327648 0)
(10.0718 -0.0327623 0)
(10.0759 -0.0327238 0)
(10.0796 -0.0326691 0)
(10.0831 -0.0326052 0)
(10.0864 -0.0325389 0)
(10.0005 -0.00552987 0)
(10.0042 -0.0153027 0)
(10.0105 -0.022454 0)
(10.0179 -0.0274361 0)
(10.0253 -0.031072 0)
(10.0325 -0.0337246 0)
(10.0397 -0.0355346 0)
(10.0465 -0.0366911 0)
(10.053 -0.0373863 0)
(10.059 -0.037761 0)
(10.0647 -0.0379042 0)
(10.0699 -0.0378923 0)
(10.0748 -0.0377761 0)
(10.0793 -0.037607 0)
(10.0834 -0.0374062 0)
(10.0873 -0.0372005 0)
(10.0908 -0.0369957 0)
(10.0941 -0.0367968 0)
(10.0007 -0.00714199 0)
(10.0058 -0.0191429 0)
(10.0138 -0.0272041 0)
(10.0225 -0.0325622 0)
(10.0307 -0.0364852 0)
(10.0387 -0.0392927 0)
(10.0465 -0.0411009 0)
(10.054 -0.0421653 0)
(10.0609 -0.0427239 0)
(10.0673 -0.0429365 0)
(10.0733 -0.0429011 0)
(10.0788 -0.0426989 0)
(10.0838 -0.0423996 0)
(10.0885 -0.0420494 0)
(10.0928 -0.0416882 0)
(10.0967 -0.0413317 0)
(10.1004 -0.040999 0)
(10.1038 -0.040678 0)
(10.001 -0.00919737 0)
(10.0082 -0.0235777 0)
(10.0184 -0.0322837 0)
(10.0285 -0.0378224 0)
(10.0377 -0.0419091 0)
(10.0466 -0.0447807 0)
(10.0553 -0.0465283 0)
(10.0635 -0.047458 0)
(10.071 -0.0478483 0)
(10.0779 -0.0478692 0)
(10.0843 -0.0476253 0)
(10.0901 -0.0472111 0)
(10.0954 -0.0466999 0)
(10.1003 -0.0461516 0)
(10.1048 -0.0456073 0)
(10.1089 -0.045094 0)
(10.1127 -0.0446196 0)
(10.1162 -0.0441762 0)
(10.0016 -0.0119482 0)
(10.012 -0.028629 0)
(10.0251 -0.0377212 0)
(10.0369 -0.0433908 0)
(10.0475 -0.0475457 0)
(10.0578 -0.0502968 0)
(10.0678 -0.0518303 0)
(10.077 -0.0525465 0)
(10.0854 -0.0527214 0)
(10.0931 -0.052535 0)
(10.1001 -0.0520883 0)
(10.1065 -0.051477 0)
(10.1123 -0.0507814 0)
(10.1176 -0.050056 0)
(10.1223 -0.0493591 0)
(10.1266 -0.048712 0)
(10.1306 -0.048125 0)
(10.1342 -0.0475742 0)
(10.0029 -0.0164022 0)
(10.0189 -0.0344488 0)
(10.0365 -0.0430698 0)
(10.0516 -0.0489941 0)
(10.065 -0.0534651 0)
(10.0781 -0.0561427 0)
(10.0905 -0.0573862 0)
(10.1018 -0.0577508 0)
(10.112 -0.0575655 0)
(10.1212 -0.057008 0)
(10.1295 -0.056199 0)
(10.1369 -0.0552465 0)
(10.1434 -0.0542298 0)
(10.1491 -0.0532228 0)
(10.1541 -0.0522854 0)
(10.1585 -0.0514467 0)
(10.1624 -0.0507039 0)
(10.1657 -0.0500086 0)
(10.0078 -0.024485 0)
(10.0379 -0.0423794 0)
(10.0671 -0.0485965 0)
(10.0916 -0.0541395 0)
(10.1136 -0.0591821 0)
(10.1345 -0.0624088 0)
(10.1531 -0.0640099 0)
(10.169 -0.0645702 0)
(10.1823 -0.0644485 0)
(10.1932 -0.0637917 0)
(10.2017 -0.06276 0)
(10.2082 -0.0614791 0)
(10.2127 -0.0600608 0)
(10.2155 -0.0586168 0)
(10.2168 -0.0572296 0)
(10.2168 -0.055996 0)
(10.2158 -0.0549527 0)
(10.214 -0.0541692 0)
(10.0382 -0.0352295 0)
(10.1296 -0.0627313 0)
(10.1961 -0.0679944 0)
(10.2409 -0.0697133 0)
(10.2697 -0.0709556 0)
(10.285 -0.0708976 0)
(10.2878 -0.0696676 0)
(10.2802 -0.0677835 0)
(10.2644 -0.0655554 0)
(10.2425 -0.0630995 0)
(10.2161 -0.0605078 0)
(10.1863 -0.0578622 0)
(10.1542 -0.0552398 0)
(10.1206 -0.0527107 0)
(10.086 -0.0503669 0)
(10.0511 -0.0482737 0)
(10.0165 -0.0464606 0)
(9.98303 -0.0453996 0)
(9.89511 -0.0334172 0)
(9.67168 -0.0660185 0)
(9.43416 -0.0778899 0)
(9.18703 -0.0815324 0)
(8.95106 -0.08031 0)
(8.7343 -0.0760596 0)
(8.53745 -0.0704018 0)
(8.35983 -0.0641214 0)
(8.20092 -0.0576822 0)
(8.05966 -0.0514243 0)
(7.93463 -0.0455138 0)
(7.82424 -0.0400215 0)
(7.72698 -0.0349862 0)
(7.64131 -0.0304254 0)
(7.56582 -0.0263372 0)
(7.49918 -0.022827 0)
(7.43928 -0.0199991 0)
(7.38537 -0.018186 0)
(-0.00277274 0.00766263 0)
(-0.0128261 0.0127292 0)
(-0.0265294 0.0138215 0)
(-0.0410266 0.0117228 0)
(-0.0515098 0.00582084 0)
(-0.050327 -0.0038606 0)
(-0.0342146 -0.0169518 -8.1599e-19)
(-0.00659504 -0.0305582 9.21229e-19)
(0.0292602 -0.0406797 0)
(0.0704169 -0.0455975 5.25407e-19)
(0.113916 -0.0459846 0)
(0.156293 -0.0430329 0)
(0.194801 -0.0378109 0)
(0.227786 -0.0311358 -2.58196e-19)
(0.254385 -0.0235775 0)
(0.274191 -0.015498 0)
(0.286861 -0.00709905 2.23274e-19)
(0.292617 0.00168855 0)
(0.29033 0.0107636 0)
(0.280209 0.0196474 0)
(0.26289 0.0275757 -2.39207e-19)
(0.23901 0.0337615 0)
(0.209504 0.0374771 -2.82757e-19)
(0.175759 0.0381154 0)
(0.139632 0.0352603 0)
(0.103362 0.028927 -4.58337e-19)
(0.069431 0.0198099 0)
(0.0402052 0.0095685 7.59243e-19)
(0.0174482 0.000719126 0)
(0.00172105 -0.00472958 -1.31162e-18)
(-0.00805595 -0.00732157 0)
(-0.0130134 -0.00913246 0)
(-0.0118985 -0.0113331 0)
(-0.00449249 -0.0148401 0)
(0.0102103 -0.0200726 0)
(0.0324077 -0.025824 8.32386e-19)
(0.060687 -0.0299559 0)
(0.0908619 -0.0301172 -9.89167e-19)
(0.11791 -0.0258146 0)
(0.137565 -0.018378 7.8824e-19)
(0.148053 -0.0103401 0)
(0.150551 -0.00392829 0)
(0.147831 -0.000505937 -7.78105e-19)
(0.143889 -0.00104162 0)
(0.141797 -0.00636905 -8.05324e-19)
(0.139597 -0.0157758 8.08626e-19)
(0.130602 -0.0238016 0)
(0.107215 -0.020057 8.81043e-19)
(0.0645079 -0.00106105 1.03663e-18)
(-0.0109314 0.0192179 0)
(-0.108924 0.0401216 0)
(-0.215252 0.0648065 0)
(-0.333466 0.0880199 0)
(-0.46093 0.104708 0)
(-0.59511 0.105787 -1.90776e-19)
(-0.731726 0.108493 0)
(-0.862103 0.111241 1.45449e-19)
(-0.990747 0.10938 0)
(-1.11185 0.102798 0)
(-1.22588 0.0944697 -1.13985e-19)
(-1.33112 0.0880975 0)
(-1.42837 0.0780436 1.02907e-19)
(-1.51742 0.0698831 0)
(-1.59901 0.0647531 0)
(-1.67451 0.0587913 0)
(-1.74403 0.0536589 -8.88447e-20)
(-1.80834 0.0492049 0)
(-1.86809 0.0452937 0)
(-1.92383 0.0418823 -8.26263e-20)
(-1.97604 0.0388986 0)
(-2.02515 0.036272 -7.94552e-20)
(-2.07149 0.0339449 0)
(-2.11536 0.0318653 0)
(-2.15699 0.029989 0)
(-2.19658 0.0282793 7.43819e-20)
(-2.23427 0.0267075 0)
(-2.27021 0.0252481 0)
(-2.30448 0.0238841 7.12248e-20)
(-2.33717 0.0225969 7.02495e-20)
(-2.36836 0.0213779 0)
(-2.39809 0.0202127 6.83826e-20)
(-2.42642 0.0190977 0)
(-2.45337 0.0180208 1.33201e-19)
(-2.47898 0.0169813 0)
(-2.50326 0.0159684 1.29758e-19)
(-2.52624 0.0149823 0)
(-2.54793 0.0140131 -1.26398e-19)
(-2.56835 0.0130595 0)
(-2.58749 0.0121122 0)
(-2.60536 0.0111678 0)
(-2.62194 0.0102163 1.19793e-19)
(-2.63721 0.00925413 0)
(-2.65115 0.00827113 -1.16502e-19)
(-2.66375 0.00726072 0)
(-2.67496 0.00621568 1.13201e-19)
(-2.68474 0.00513246 1.11546e-19)
(-2.69303 0.00401485 1.09887e-19)
(-2.69977 0.00288166 0)
(-2.70489 0.00178838 0)
(-2.70831 0.000819863 0)
(-2.71006 2.86836e-05 0)
(-2.71063 -0.000664387 0)
(-2.70992 -0.00133715 0)
(-2.708 -0.00199801 0)
(-2.70485 -0.00265259 0)
(-2.70048 -0.00330219 -9.39233e-20)
(-2.69487 -0.00394603 -9.19528e-20)
(-2.68802 -0.00458412 0)
(-2.67994 -0.00521574 0)
(-2.67061 -0.00583988 0)
(-2.66004 -0.00645677 -8.35724e-20)
(-2.64823 -0.00706432 0)
(-2.63518 -0.00766391 0)
(-2.6209 -0.00825239 0)
(-2.60539 -0.00883232 0)
(-2.58867 -0.00939956 7.18254e-20)
(-2.57073 -0.00995783 0)
(-2.55159 -0.0105022 0)
(-2.53126 -0.0110373 -6.40079e-20)
(-2.50976 -0.0115576 6.12629e-20)
(-2.48709 -0.0120686 0)
(-2.46328 -0.0125643 5.55525e-20)
(-2.43833 -0.0130506 0)
(-2.41226 -0.0135214 -4.95353e-20)
(-2.38508 -0.0139831 0)
(-2.35683 -0.0144299 0)
(-2.3275 -0.014868 0)
(-2.29713 -0.0152889 0)
(-2.26572 -0.0156951 0)
(-2.23332 -0.0160774 5.8919e-20)
(-2.19993 -0.0164531 5.15821e-20)
(-2.16558 -0.0168038 0)
(-2.13029 -0.0171131 0)
(-2.0941 -0.0173555 0)
(-2.05705 -0.017459 -2.01362e-20)
(-2.01924 -0.0173583 0)
(-1.9807 -0.0171237 0)
(-1.94137 -0.0171857 0)
(-1.90119 -0.0174974 1.50621e-20)
(-1.86023 -0.0177375 -2.45597e-20)
(-1.81853 -0.0179702 0)
(-1.77612 -0.0181895 0)
(-1.73302 -0.0183952 -5.4992e-20)
(-1.68927 -0.018592 -6.58432e-20)
(-1.64487 -0.018777 0)
(-1.59986 -0.0189555 0)
(-1.55425 -0.0191232 1.0083e-19)
(-1.50804 -0.0192879 -1.13389e-19)
(-1.46128 -0.0194487 0)
(-1.41401 -0.0196065 0)
(-1.36624 -0.0197665 -1.54156e-19)
(-1.318 -0.0199193 0)
(-1.26929 -0.0200711 0)
(-1.22017 -0.0202181 -2.00396e-19)
(-1.17064 -0.0203635 0)
(-1.12073 -0.0205116 -2.34877e-19)
(-1.07046 -0.0206599 0)
(-1.01983 -0.0208158 0)
(-0.968853 -0.0209779 0)
(-0.917536 -0.0211508 3.14963e-19)
(-0.865876 -0.0213341 0)
(-0.81387 -0.0215302 0)
(-0.761517 -0.0217377 0)
(-0.708818 -0.0219585 0)
(-0.655776 -0.0221925 0)
(-0.60239 -0.0224431 0)
(-0.548659 -0.0227124 5.08881e-19)
(-0.494576 -0.0230043 5.44936e-19)
(-0.440134 -0.0233205 0)
(-0.38532 -0.0236625 0)
(-0.330129 -0.024028 0)
(-0.274571 -0.0244146 -7.22615e-19)
(-0.218678 -0.0248307 0)
(-0.162524 -0.0252557 1.67887e-18)
(-0.10628 -0.0256245 -1.81543e-18)
(-0.0503295 -0.0257923 -1.96824e-18)
(0.00517302 -0.0252733 2.05921e-18)
(0.0569126 -0.0234595 -2.02851e-18)
(0.114071 -0.0209449 1.96558e-18)
(0.130183 -0.00945807 0)
(-0.000204572 0.0205296 0)
(-0.00576315 0.035736 0)
(-0.0121805 0.0369035 2.1697e-18)
(-0.0124538 0.0273189 0)
(0.00181987 0.00516257 -2.24924e-18)
(0.0316543 -0.0320848 -1.42096e-18)
(0.0709783 -0.073715 -4.48573e-19)
(0.11578 -0.107701 -3.20636e-19)
(0.162067 -0.128465 0)
(0.206416 -0.135739 -2.1013e-19)
(0.246654 -0.132219 0)
(0.281847 -0.121314 0)
(0.31168 -0.105915 3.13646e-19)
(0.336177 -0.0881024 1.49448e-19)
(0.355565 -0.0692204 -2.91408e-19)
(0.370163 -0.0500392 -2.88067e-19)
(0.380353 -0.0309395 -1.44078e-19)
(0.386324 -0.0120547 0)
(0.389058 0.00662884 0)
(0.388478 0.0249495 0)
(0.384197 0.0425481 -1.52436e-19)
(0.375724 0.0588884 0)
(0.362497 0.0732187 4.87887e-19)
(0.344036 0.0845626 0)
(0.320135 0.0917962 0)
(0.291023 0.0938444 1.97322e-19)
(0.257591 0.0899839 0)
(0.221464 0.0802756 -2.49104e-19)
(0.184948 0.0657532 -5.81644e-19)
(0.150934 0.0481904 3.46619e-19)
(0.12248 0.0291997 0)
(0.102806 0.00961978 0)
(0.0931443 -0.0107034 0)
(0.0953464 -0.0308546 -1.00562e-18)
(0.107718 -0.0508068 -8.50336e-19)
(0.126794 -0.067989 -3.5398e-19)
(0.146609 -0.0753924 0)
(0.161148 -0.0698695 5.15627e-19)
(0.167864 -0.054292 0)
(0.166364 -0.0339631 -5.02354e-19)
(0.157391 -0.0157074 0)
(0.141842 -0.00378079 0)
(0.119343 0.00303529 6.39999e-19)
(0.0837293 0.00940269 0)
(0.0250369 0.0226964 2.47498e-18)
(-0.0696039 0.0546074 -6.23024e-19)
(-0.190975 0.0983211 0)
(-0.32305 0.143613 -2.65243e-19)
(-0.46134 0.186766 -1.97156e-19)
(-0.605782 0.222672 0)
(-0.751211 0.249605 0)
(-0.894207 0.268044 0)
(-1.03279 0.277963 0)
(-1.16337 0.279869 0)
(-1.28484 0.274377 8.40703e-20)
(-1.39319 0.262923 1.58034e-19)
(-1.49068 0.247878 -7.44237e-20)
(-1.57634 0.23041 0)
(-1.65266 0.212274 1.37594e-19)
(-1.72026 0.193801 -6.68166e-20)
(-1.78041 0.176502 0)
(-1.83508 0.160441 -6.29244e-20)
(-1.88449 0.145771 0)
(-1.92999 0.132906 0)
(-1.97197 0.121487 -1.18395e-19)
(-2.01121 0.111502 5.80857e-20)
(-2.04816 0.102784 -1.14337e-19)
(-2.0831 0.0951726 1.12522e-19)
(-2.11631 0.0885028 5.54104e-20)
(-2.14795 0.0826211 0)
(-2.17818 0.0773966 5.38547e-20)
(-2.20708 0.0727126 0)
(-2.23473 0.0684732 0)
(-2.2612 0.064599 0)
(-2.28654 0.0610238 5.09798e-20)
(-2.31077 0.0576966 0)
(-2.33392 0.0545726 9.94561e-20)
(-2.35602 0.0516215 -1.47342e-19)
(-2.37708 0.0488123 -4.85233e-20)
(-2.39711 0.0461279 0)
(-2.41613 0.0435459 -4.73041e-20)
(-2.43414 0.0410576 0)
(-2.45114 0.0386458 -9.22067e-20)
(-2.46715 0.0363068 0)
(-2.48215 0.0340272 -8.98245e-20)
(-2.49616 0.0318056 1.77152e-19)
(-2.50916 0.0296304 8.74468e-20)
(-2.52116 0.0274989 0)
(-2.53215 0.0254012 0)
(-2.54213 0.0233305 0)
(-2.55109 0.0212796 -8.26467e-20)
(-2.55901 0.0192439 0)
(-2.5659 0.017215 8.02014e-20)
(-2.57177 0.015188 0)
(-2.57664 0.0131557 -2.33173e-19)
(-2.58052 0.011113 -7.64666e-20)
(-2.58345 0.00905568 -7.52036e-20)
(-2.58549 0.00698561 0)
(-2.58671 0.00493361 0)
(-2.58721 0.00296864 0)
(-2.58701 0.00115524 0)
(-2.58567 -0.000556166 0)
(-2.58318 -0.00222874 -1.34506e-19)
(-2.57952 -0.00387317 -1.31675e-19)
(-2.57466 -0.00549603 0)
(-2.5686 -0.00709916 6.28348e-20)
(-2.56132 -0.00868092 6.13328e-20)
(-2.55284 -0.010241 0)
(-2.54313 -0.0117772 1.16746e-19)
(-2.53221 -0.0132882 0)
(-2.52007 -0.0147726 -5.53361e-20)
(-2.5067 -0.0162281 0)
(-2.49212 -0.0176545 0)
(-2.47633 -0.0190484 1.00351e-19)
(-2.45933 -0.0204109 0)
(-2.44113 -0.0217376 -4.64733e-20)
(-2.42174 -0.0230313 0)
(-2.40117 -0.0242867 0)
(-2.37943 -0.0255078 -4.13818e-20)
(-2.35653 -0.0266888 -3.90167e-20)
(-2.33248 -0.0278347 0)
(-2.30731 -0.0289393 3.55799e-20)
(-2.28101 -0.0300085 0)
(-2.25362 -0.0310354 -3.15324e-20)
(-2.22514 -0.0320264 -5.83587e-20)
(-2.19559 -0.032975 0)
(-2.16499 -0.033887 0)
(-2.13337 -0.034756 0)
(-2.10073 -0.0355864 0)
(-2.06711 -0.0363733 -3.57665e-20)
(-2.03252 -0.037121 -9.46686e-20)
(-1.99699 -0.037827 0)
(-1.96053 -0.0384935 0)
(-1.92318 -0.0391217 0)
(-1.88494 -0.0397303 1.18118e-20)
(-1.8458 -0.0403288 0)
(-1.80578 -0.0409138 0)
(-1.76491 -0.0414656 5.65331e-21)
(-1.72328 -0.0419532 7.38866e-21)
(-1.6809 -0.0423803 1.41677e-20)
(-1.63779 -0.0427643 0)
(-1.59398 -0.0431097 0)
(-1.54947 -0.0434156 3.08003e-20)
(-1.5043 -0.0436881 -3.50239e-20)
(-1.45849 -0.0439257 0)
(-1.41205 -0.0441322 0)
(-1.36502 -0.0443054 -5.43195e-20)
(-1.31739 -0.0444511 1.79801e-19)
(-1.26921 -0.0445758 0)
(-1.22051 -0.0446793 0)
(-1.1713 -0.0447698 7.95217e-20)
(-1.12161 -0.0448372 0)
(-1.07145 -0.0448833 1.83986e-19)
(-1.02085 -0.0449059 -9.79992e-20)
(-0.969831 -0.0449067 0)
(-0.918419 -0.0448924 1.13728e-19)
(-0.866627 -0.0448645 2.40231e-19)
(-0.814469 -0.0448295 0)
(-0.761951 -0.0447911 0)
(-0.709078 -0.0447535 -1.43563e-19)
(-0.655849 -0.0447191 0)
(-0.602261 -0.0446893 3.17048e-19)
(-0.548311 -0.0446629 0)
(-0.493999 -0.0446395 0)
(-0.439324 -0.0446185 0)
(-0.384286 -0.0446025 0)
(-0.328882 -0.044594 -2.02182e-19)
(-0.273104 -0.0445973 -2.11338e-19)
(-0.216945 -0.0446139 0)
(-0.160393 -0.0446449 0)
(-0.103441 -0.0446836 0)
(-0.0461007 -0.0447143 2.50274e-19)
(0.0116001 -0.0447023 0)
(0.0696036 -0.0445993 -5.18836e-19)
(0.127796 -0.0443429 5.20292e-19)
(0.185895 -0.0437948 5.21787e-19)
(0.243818 -0.0426005 5.202e-19)
(0.299299 -0.0403192 5.26281e-19)
(0.357405 -0.0361111 5.28466e-19)
(0.393664 -0.0234653 0)
(0.000353798 0.0232281 0)
(0.000869645 0.0399769 0)
(0.00683486 0.032507 -2.30913e-18)
(0.0272541 -0.00138746 -1.61171e-18)
(0.0671772 -0.0616169 9.57385e-19)
(0.118825 -0.127811 6.22777e-19)
(0.17175 -0.180075 -3.60472e-22)
(0.219014 -0.209856 0)
(0.258031 -0.218131 0)
(0.288864 -0.210181 0)
(0.312759 -0.191838 0)
(0.331182 -0.167813 0)
(0.345344 -0.141291 -7.1388e-19)
(0.356103 -0.114153 0)
(0.36402 -0.0874042 2.27811e-19)
(0.369468 -0.0615164 2.27252e-19)
(0.372713 -0.0366735 0)
(0.373952 -0.0129431 0)
(0.373436 0.0097043 0)
(0.371493 0.0314426 0)
(0.368387 0.0524114 2.42288e-19)
(0.364301 0.0725472 0)
(0.359154 0.0914731 -2.59865e-19)
(0.35256 0.10844 0)
(0.343838 0.122324 0)
(0.332142 0.13171 0)
(0.316694 0.135119 -6.51011e-19)
(0.297183 0.131361 0)
(0.274156 0.119962 3.86059e-19)
(0.249211 0.101308 -8.60197e-19)
(0.224858 0.0765502 0)
(0.203973 0.0471041 0)
(0.189022 0.0146558 0)
(0.180189 -0.0199231 6.24963e-19)
(0.176328 -0.0530092 5.49448e-19)
(0.170879 -0.0743749 0)
(0.15722 -0.0751023 0)
(0.135085 -0.0582386 -7.62943e-19)
(0.105405 -0.0312563 -7.85163e-19)
(0.0685488 0.00137499 8.75684e-19)
(0.0222086 0.0349319 0)
(-0.0443714 0.0666488 0)
(-0.136962 0.105754 0)
(-0.249393 0.155767 0)
(-0.377992 0.211115 -3.97943e-19)
(-0.517008 0.26719 -3.15011e-19)
(-0.658884 0.319904 2.58328e-19)
(-0.797717 0.364429 0)
(-0.929432 0.399403 0)
(-1.05036 0.423853 0)
(-1.15887 0.436934 0)
(-1.25446 0.439296 -1.43428e-19)
(-1.3369 0.431926 0)
(-1.40721 0.416082 0)
(-1.46745 0.393504 -1.20162e-19)
(-1.51964 0.366972 -1.13598e-19)
(-1.56606 0.338867 0)
(-1.60789 0.31036 2.12486e-19)
(-1.64672 0.282883 -1.02152e-19)
(-1.68347 0.257088 9.92591e-20)
(-1.71881 0.23364 0)
(-1.75312 0.212602 0)
(-1.78667 0.19402 0)
(-1.8194 0.177903 0)
(-1.85131 0.163805 8.85194e-20)
(-1.88242 0.151506 1.7384e-19)
(-1.91274 0.140746 8.52703e-20)
(-1.94222 0.131282 -8.37919e-20)
(-1.97086 0.122895 0)
(-1.99864 0.1154 1.62034e-19)
(-2.02555 0.108638 1.59444e-19)
(-2.05158 0.102478 1.56957e-19)
(-2.07671 0.0968114 -1.54559e-19)
(-2.10095 0.091551 0)
(-2.1243 0.086625 -2.25043e-19)
(-2.14675 0.0819772 0)
(-2.1683 0.0775615 7.27429e-20)
(-2.18894 0.0733429 7.18334e-20)
(-2.20868 0.0692911 0)
(-2.22752 0.0653846 0)
(-2.24545 0.0616029 1.37391e-19)
(-2.26247 0.0579324 0)
(-2.27857 0.0543585 1.33418e-19)
(-2.29377 0.0508725 0)
(-2.30804 0.0474635 -1.29503e-19)
(-2.32139 0.0441254 -2.55216e-19)
(-2.33382 0.0408492 0)
(-2.34532 0.0376291 0)
(-2.35588 0.034457 0)
(-2.36551 0.0313254 -1.19825e-19)
(-2.37418 0.0282284 0)
(-2.38191 0.0251622 -1.15948e-19)
(-2.38868 0.0221243 0)
(-2.3945 0.019114 0)
(-2.39937 0.0161336 2.202e-19)
(-2.4033 0.01319 0)
(-2.4063 0.0102929 1.06171e-19)
(-2.40835 0.00745537 0)
(-2.40944 0.0046846 1.02176e-19)
(-2.40953 0.00196797 0)
(-2.40856 -0.000733885 0)
(-2.40648 -0.00343101 0)
(-2.40328 -0.00610484 2.81044e-19)
(-2.39893 -0.0087506 9.14201e-20)
(-2.39343 -0.0113668 0)
(-2.38676 -0.0139514 0)
(-2.37892 -0.0165019 0)
(-2.3699 -0.0190161 0)
(-2.3597 -0.0214908 -8.00653e-20)
(-2.34831 -0.0239239 1.55833e-19)
(-2.33574 -0.0263122 7.53079e-20)
(-2.32198 -0.0286537 -1.46245e-19)
(-2.30703 -0.0309453 -1.4135e-19)
(-2.29091 -0.0331853 -6.79233e-20)
(-2.27361 -0.0353707 0)
(-2.25514 -0.0375001 -1.26254e-19)
(-2.23551 -0.0395713 0)
(-2.21473 -0.0415831 1.15845e-19)
(-2.1928 -0.043534 5.49344e-20)
(-2.16975 -0.0454231 0)
(-2.14558 -0.0472497 -9.97162e-20)
(-2.1203 -0.0490131 -4.67336e-20)
(-2.09394 -0.0507131 0)
(-2.0665 -0.0523488 -4.18815e-20)
(-2.03799 -0.0539204 1.1551e-19)
(-2.00844 -0.0554268 0)
(-1.97787 -0.0568687 0)
(-1.94628 -0.0582438 0)
(-1.91371 -0.059552 0)
(-1.88017 -0.0607912 4.77837e-20)
(-1.84567 -0.0619623 4.07916e-20)
(-1.81025 -0.0630639 0)
(-1.77391 -0.0640945 0)
(-1.73669 -0.0650508 0)
(-1.69859 -0.0659388 0)
(-1.65963 -0.0667624 0)
(-1.61982 -0.0675358 0)
(-1.57921 -0.0682736 -3.53491e-21)
(-1.53784 -0.0689599 -1.02602e-21)
(-1.49575 -0.0695762 0)
(-1.45293 -0.0701284 0)
(-1.40941 -0.0706173 -2.8978e-20)
(-1.3652 -0.0710449 0)
(-1.32035 -0.071415 4.35954e-20)
(-1.27485 -0.0717297 4.93668e-20)
(-1.22875 -0.0719901 0)
(-1.18204 -0.0721994 0)
(-1.13476 -0.0723622 -7.1335e-20)
(-1.08693 -0.0724871 -1.54556e-19)
(-1.03858 -0.0725776 0)
(-0.989723 -0.0726372 0)
(-0.940382 -0.0726602 0)
(-0.890579 -0.0726436 -1.07138e-19)
(-0.840329 -0.0725881 1.1446e-19)
(-0.78966 -0.0724945 0)
(-0.738589 -0.0723712 2.56161e-19)
(-0.687135 -0.0722228 1.34377e-19)
(-0.635309 -0.0720571 -2.8611e-19)
(-0.583119 -0.0718807 0)
(-0.53057 -0.0716992 0)
(-0.477662 -0.0715168 -3.31765e-19)
(-0.424392 -0.0713352 -1.74779e-19)
(-0.370757 -0.0711528 0)
(-0.316755 -0.0709677 0)
(-0.262386 -0.0707792 0)
(-0.207648 -0.07059 0)
(-0.152537 -0.0704027 -4.25652e-19)
(-0.0970457 -0.0702222 0)
(-0.0411662 -0.0700501 0)
(0.0151115 -0.0698856 0)
(0.0717961 -0.0697173 0)
(0.128886 -0.0695245 0)
(0.186359 -0.0692616 0)
(0.244155 -0.0688641 -4.9916e-19)
(0.302184 -0.0682413 0)
(0.360219 -0.067224 0)
(0.418245 -0.0655059 -1.03815e-18)
(0.474697 -0.0625779 5.24847e-19)
(0.533453 -0.0574218 -5.36108e-19)
(0.579629 -0.0447097 5.47605e-19)
(-0.00116415 0.0233398 0)
(0.0020751 0.0265279 5.02875e-18)
(0.024157 -0.0160584 0)
(0.0724842 -0.0998519 8.54687e-19)
(0.133661 -0.187927 0)
(0.191298 -0.251615 0)
(0.236226 -0.282331 -3.22206e-19)
(0.267279 -0.285211 0)
(0.287325 -0.269794 0)
(0.300016 -0.244428 0)
(0.308241 -0.214577 0)
(0.313817 -0.183261 0)
(0.317715 -0.151988 8.06159e-19)
(0.320382 -0.12145 3.96498e-19)
(0.321975 -0.0919529 -3.93954e-19)
(0.322534 -0.0636314 0)
(0.32207 -0.0365471 0)
(0.320599 -0.0107382 0)
(0.318173 0.0137845 0)
(0.314889 0.0370549 0)
(0.310893 0.0591134 4.26665e-19)
(0.306407 0.0799724 4.38299e-19)
(0.301644 0.0995415 -4.54657e-19)
(0.296718 0.11751 4.77001e-19)
(0.291535 0.133239 0)
(0.285758 0.145695 0)
(0.278793 0.153443 5.79118e-19)
(0.269902 0.15479 0)
(0.258499 0.148195 0)
(0.244436 0.13259 7.46998e-19)
(0.228356 0.107835 8.33255e-19)
(0.211359 0.0749908 9.4163e-19)
(0.194773 0.0363003 0)
(0.177607 -0.00372813 0)
(0.153071 -0.032953 -9.45769e-19)
(0.116306 -0.0385061 0)
(0.0688199 -0.0210815 0)
(0.011207 0.0127154 7.6763e-19)
(-0.0596572 0.0576648 -6.86373e-19)
(-0.14657 0.112197 5.482e-19)
(-0.248403 0.173677 0)
(-0.364244 0.237474 0)
(-0.490257 0.301826 5.84176e-19)
(-0.620476 0.365187 0)
(-0.749328 0.423832 4.17913e-19)
(-0.871719 0.472638 5.50062e-19)
(-0.982926 0.509574 -4.9051e-19)
(-1.08078 0.534656 2.96607e-19)
(-1.1646 0.547801 0)
(-1.23425 0.549787 0)
(-1.29124 0.541823 2.35433e-19)
(-1.33746 0.525445 1.09803e-19)
(-1.37515 0.502387 0)
(-1.40682 0.474421 0)
(-1.43483 0.443446 9.45969e-20)
(-1.46104 0.411422 1.83072e-19)
(-1.48668 0.379856 0)
(-1.51244 0.349597 -1.68983e-19)
(-1.53875 0.321318 1.64683e-19)
(-1.56573 0.295313 -1.59785e-19)
(-1.59335 0.271767 0)
(-1.62147 0.250629 0)
(-1.6499 0.231795 0)
(-1.6784 0.215122 0)
(-1.70678 0.200335 0)
(-1.73488 0.187198 -1.38198e-19)
(-1.76258 0.17548 0)
(-1.78976 0.164966 0)
(-1.81636 0.155466 0)
(-1.8423 0.146813 -2.56938e-19)