/*--------------------------------*- C++ -*----------------------------------*\
  =========                 |
  \\      /  F ield         | OpenFOAM: The Open Source CFD Toolbox
   \\    /   O peration     | Website:  https://openfoam.org
    \\  /    A nd           | Version:  8
     \\/     M anipulation  |
\*---------------------------------------------------------------------------*/
FoamFile
{
    version     2.0;
    format      ascii;
    class       volVectorField;
    location    "500";
    object      wallShearStress;
}
// * * * * * * * * * * * * * * * * * * * * * * * * * * * * * * * * * * * * * //

dimensions      [0 2 -2 0 0 0 0];

internalField   uniform (0 0 0);

boundaryField
{
    inlet
    {
        type            calculated;
        value           uniform (0 0 0);
    }
    outlet
    {
        type            calculated;
        value           uniform (0 0 0);
    }
    upperWall
    {
        type            calculated;
        value           nonuniform List<vector> 
223
(
(-0.444387 0.00292148 0)
(-0.475009 0.00542862 0)
(-0.498318 0.00678861 0)
(-0.503977 0.00736816 0)
(-0.500425 0.00738379 0)
(-0.49036 0.00702895 0)
(-0.478425 0.00651742 0)
(-0.46654 0.00594319 0)
(-0.454114 0.00533906 0)
(-0.442412 0.00475324 0)
(-0.431664 0.00420446 0)
(-0.421928 0.00369993 0)
(-0.413206 0.00324281 0)
(-0.405429 0.00283363 0)
(-0.398522 0.00247096 0)
(-0.392393 0.00216492 0)
(-0.386904 0.00191973 0)
(-0.382011 0.00177341 0)
(-0.378094 0.00169558 0)
(-0.374996 0.00164948 5.84485e-22)
(-0.371968 0.00158181 0)
(-0.369022 0.00150273 0)
(-0.366156 0.00141789 0)
(-0.363372 0.00133087 5.95794e-22)
(-0.360676 0.00124346 0)
(-0.35807 0.00115752 0)
(-0.355555 0.00107359 0)
(-0.353131 0.000992591 -1.21181e-21)
(-0.350797 0.000914757 1.21663e-21)
(-0.348553 0.000840589 1.22136e-21)
(-0.346397 0.000769871 0)
(-0.344328 0.000703153 -1.23062e-21)
(-0.342345 0.000640295 0)
(-0.340444 0.000581588 1.23964e-21)
(-0.338622 0.000526712 1.24408e-21)
(-0.336877 0.000475884 -1.24847e-21)
(-0.335205 0.000428843 0)
(-0.333604 0.00038546 0)
(-0.332069 0.00034566 0)
(-0.330599 0.000309126 0)
(-0.32919 0.00027564 -1.27e-21)
(-0.327839 0.000245099 0)
(-0.326543 0.000217018 0)
(-0.325302 0.000191329 1.2828e-21)
(-0.324111 0.000167989 0)
(-0.32297 0.00014666 1.29137e-21)
(-0.321876 0.000127372 -1.29568e-21)
(-0.320829 0.000110083 1.29999e-21)
(-0.319824 9.47536e-05 0)
(-0.318861 8.15986e-05 0)
(-0.317934 7.05543e-05 0)
(-0.317045 6.16149e-05 1.3175e-21)
(-0.316186 5.46532e-05 -1.32194e-21)
(-0.315359 4.96755e-05 0)
(-0.314555 4.65693e-05 0)
(-0.313779 4.51427e-05 0)
(-0.313019 4.53964e-05 0)
(-0.31228 4.71388e-05 0)
(-0.311553 5.03156e-05 0)
(-0.31084 5.47752e-05 0)
(-0.310136 6.04186e-05 0)
(-0.309436 6.71857e-05 1.36349e-21)
(-0.308749 7.4726e-05 -1.3683e-21)
(-0.308048 8.32718e-05 0)
(-0.307375 9.24728e-05 0)
(-0.306658 0.000102753 0)
(-0.305995 0.000112579 -1.38755e-21)
(-0.305216 0.000125567 0)
(-0.304569 0.000132109 0)
(-0.303732 0.000146489 0)
(-0.303087 0.000484872 0)
(-0.304642 0.000604665 0)
(-0.313957 0.000357432 -2.94422e-21)
(-0.308058 0.00056992 0)
(-0.306266 0.000546076 0)
(-0.306709 0.000202881 0)
(-0.305937 0.000164862 0)
(-0.304968 0.000231479 0)
(-0.301243 0.000317734 0)
(-0.299765 0.000182895 0)
(-0.29967 1.33653e-05 3.01067e-21)
(-0.299558 8.37689e-05 0)
(-0.299401 7.49961e-05 0)
(-0.334563 0.000125627 0)
(-0.322424 0.00112954 -3.2574e-21)
(-0.315822 0.00136104 0)
(-0.326278 0.000585806 -3.29473e-21)
(-0.310934 0.000709102 0)
(-0.305984 0.000563945 0)
(-0.300221 0.000303432 0)
(-0.297253 0.00032969 -3.12452e-21)
(-0.303245 9.01533e-05 0)
(-0.296909 -0.000148741 3.16868e-21)
(-0.335961 -0.000209273 3.60842e-21)
(-0.319333 -7.16433e-05 0)
(-0.345463 0.000332219 3.73371e-21)
(-0.325342 0.000512363 0)
(-0.316339 0.000387656 0)
(-0.295242 0.000265315 0)
(-0.324976 4.2727e-05 -3.54237e-21)
(-0.326669 -8.93904e-07 0)
(-0.356781 0.000401801 -3.89504e-21)
(-0.329909 0.000610813 3.58105e-21)
(-0.297315 0.000331761 0)
(-0.347051 0.0010545 0)
(-0.321976 0.00122187 0)
(-0.31184 0.000542602 0)
(-0.299372 0.000285614 0)
(-0.290679 0.000248464 0)
(-0.290223 3.07174e-05 0)
(-0.303456 -0.000221652 -3.3295e-21)
(-0.306005 -0.000162856 0)
(-0.335445 0.00037878 0)
(-0.308668 0.000605557 0)
(-0.287624 0.000235491 0)
(-0.322182 0.000340822 0)
(-0.343031 0.000206542 0)
(-0.342177 0.000389648 0)
(-0.312696 0.00157961 0)
(-0.283906 0.00149769 0)
(-0.282902 0.000770974 0)
(-0.282087 0.000242201 0)
(-0.286402 -0.000120739 0)
(-0.315023 0.000153922 -6.42995e-21)
(-0.330818 0.000338867 0)
(-0.325107 0.000629603 0)
(-0.330878 0.000602766 0)
(-0.322553 0.000274276 6.33047e-21)
(-0.300403 0.000538495 0)
(-0.308832 0.000471624 0)
(-0.298564 0.00115348 5.59026e-21)
(-0.278059 0.00209158 0)
(-0.268462 0.00177754 -4.67844e-21)
(-0.267234 0.00134206 0)
(-0.265795 0.000742762 0)
(-0.281854 0.000799607 0)
(-0.263343 0.000767263 4.13274e-21)
(-0.287251 0.000847698 0)
(-0.260921 0.000703643 -3.78187e-21)
(-0.285075 0.00070266 0)
(-0.258434 0.000615213 0)
(-0.279773 0.000560001 0)
(-0.255766 0.0011686 0)
(-0.254115 0.00116478 0)
(-0.252434 0.000995524 0)
(-0.250778 0.000748606 0)
(-0.248821 0.000346163 0)
(-0.266552 1.49179e-05 0)
(-0.270212 -0.000462956 0)
(-0.245528 -0.000577459 0)
(-0.240122 -9.61258e-05 -1.104e-21)
(-0.238 1.96392e-05 8.11998e-22)
(-0.235952 8.9491e-05 0)
(-0.233732 0.000853052 0)
(-0.249399 0.00203076 0)
(-0.231619 0.00129939 0)
(-0.228919 0.000679462 -7.53814e-22)
(-0.228433 0.00102555 1.0859e-21)
(-0.240965 0.000665846 -1.55002e-21)
(-0.234833 0.00130488 0)
(-0.221317 0.00212783 -2.19631e-21)
(-0.220348 0.00171146 -5.13723e-21)
(-0.218826 0.00137574 0)
(-0.216979 0.00191898 -6.85629e-21)
(-0.216045 0.000621071 7.57803e-21)
(-0.213178 -0.00115239 0)
(-0.210288 -0.00113086 0)
(-0.207364 -0.000948151 0)
(-0.204247 0.00065194 0)
(-0.204751 0.00112544 0)
(-0.202028 0.00112408 -1.39262e-20)
(-0.214894 0.00220118 0)
(-0.201503 0.000787516 -1.52862e-20)
(-0.19694 -0.00036796 0)
(-0.193798 0.000361543 0)
(-0.193824 0.00165193 0)
(-0.192225 0.0022021 0)
(-0.191055 0.00165162 0)
(-0.188224 0.000888083 2.28317e-20)
(-0.184399 0.000515466 0)
(-0.181263 0.000688064 0)
(-0.179285 0.000905254 -2.75707e-20)
(-0.177337 0.000724966 0)
(-0.173786 0.000388894 0)
(-0.16928 0.000129617 0)
(-0.16465 -6.56355e-06 3.59528e-20)
(-0.159606 9.89814e-05 0)
(-0.153871 0.000245919 0)
(-0.145972 0.000501045 0)
(-0.1357 0.000888242 0)
(-0.123808 0.00136431 -5.85165e-20)
(-0.111374 0.00165536 0)
(-0.0998747 0.00168729 0)
(-0.0891132 0.00157046 0)
(-0.0801991 0.00139798 9.37788e-20)
(-0.069917 0.00136984 0)
(-0.064763 0.00180313 0)
(-0.0358739 0.00150211 -1.3855e-19)
(-0.068052 0.00048517 6.01853e-36)
(-0.102185 0.00578643 1.18538e-17)
(-0.125635 0.0102071 2.12526e-17)
(-0.138122 0.0128036 1.9966e-17)
(-0.145491 0.0142318 1.91948e-17)
(-0.150974 0.0151093 1.85798e-17)
(-0.155261 0.0157252 -1.80628e-17)
(-0.158283 0.0161628 -1.75853e-17)
(-0.160599 0.0164586 0)
(-0.16269 0.0166892 -3.35965e-17)
(-0.164775 0.0168936 -1.64213e-17)
(-0.166897 0.0170912 6.37964e-34)
(-0.169311 0.0172929 0)
(-0.172176 0.0175305 -3.02373e-17)
(-0.175651 0.0178196 -2.91117e-17)
(-0.179777 0.0181723 -2.77988e-17)
(-0.184642 0.018595 -2.40741e-35)
(-0.190252 0.019089 4.90821e-17)
(-0.196758 0.0196695 2.25301e-17)
(-0.203983 0.020321 2.40741e-35)
(-0.212678 0.021103 -3.51695e-17)
(-0.221016 0.021884 -1.23217e-20)
(-0.234601 0.0230496 0)
(-0.238926 0.0237759 1.32468e-17)
(-0.264716 0.0253458 -7.12065e-18)
)
;
    }
    lowerWall
    {
        type            calculated;
        value           nonuniform List<vector> 
250
(
(-0.623109 -0.00585668 0)
(-0.59558 -0.00936962 0)
(-0.607428 -0.010581 0)
(-0.694528 -0.011267 0)
(-0.667657 -0.0105808 0)
(-0.586299 -0.0108442 0)
(-0.500283 -0.00841616 0)
(-0.472668 -0.00551932 0)
(-0.46222 -0.00381315 0)
(-0.453299 -0.00231413 0)
(-0.503254 -0.00132237 0)
(-0.51413 -0.000727356 0)
(-0.479115 -0.000552812 0)
(-0.499876 -0.000610583 0)
(-0.521888 -0.000476835 0)
(-0.509643 -0.000313881 0)
(-0.498406 -0.000181895 0)
(-0.490124 -0.000307411 0)
(0.00213685 0.000170687 0)
(0.00238722 -0.0026647 0)
(0.00265928 -0.0056048 0)
(0.00297272 -0.00872529 1.13738e-19)
(0.00330248 -0.0117828 -9.68079e-20)
(0.00357816 -0.0156244 8.4888e-20)
(0.00333266 -0.0156223 -7.64683e-20)
(0.00909483 -0.0351017 0)
(-0.0460511 -0.10632 0)
(0.000222882 -0.000276922 0)
(5.6116e-05 -0.00079092 0)
(-9.58969e-06 -0.000875038 0)
(5.56919e-05 -0.000874654 0)
(3.37025e-05 -0.000843344 1.53715e-19)
(-0.00014237 -0.000274603 -1.49533e-19)
(-0.000580534 0.00116863 0)
(-0.00117827 0.00386973 -1.71711e-19)
(-0.00155349 0.00730192 1.31434e-19)
(-0.00149521 0.0105344 0)
(-0.00110055 0.012913 0)
(-0.000568437 0.0141555 0)
(-6.07271e-05 0.0142381 0)
(0.000341341 0.0133574 0)
(0.000675969 0.0117896 0)
(0.00100483 0.00958232 0)
(0.0013671 0.00677231 0)
(0.00177847 0.00340946 0)
(-0.000143914 -0.000278488 0)
(0.000168417 -0.00044831 0)
(0.000477846 -0.000500681 0)
(0.00079889 -0.00043025 0)
(0.00105365 -0.000194257 -0)
(0.00109762 0.000195888 -0)
(0.000846938 0.000663406 1.44327e-20)
(0.00032991 0.0011009 -1.6298e-20)
(-0.000384036 0.00141776 0)
(-0.00120069 0.00157596 -9.2938e-21)
(-0.00204195 0.00158898 0)
(-0.00284335 0.00148694 0)
(-0.00355981 0.00130626 0)
(-0.00416651 0.00107754 4.5733e-21)
(-0.00465211 0.000821626 0)
(-0.00501253 0.000550146 0)
(-0.00524518 0.000271446 -3.96711e-21)
(-0.00535472 -2.04331e-05 -0)
(-0.00531636 -0.000323129 0)
(-0.00512829 -0.000615554 -0)
(-0.00479938 -0.000877348 4.26936e-21)
(-0.00434134 -0.00108835 -0)
(-0.0037724 -0.00122741 5.05437e-21)
(-0.00311983 -0.00127543 0)
(-0.00242174 -0.00121832 -0)
(-0.00172675 -0.00105358 8.20057e-21)
(-0.00109182 -0.000797533 0)
(-0.000572857 -0.000493888 -1.35888e-20)
(-0.000203522 -0.000212282 0)
(2.98263e-05 -1.53043e-05 2.34913e-20)
(0.000177236 0.000101499 0)
(0.000263064 0.000199433 0)
(0.000255544 0.000313178 0)
(0.000144696 0.000463289 0)
(-0.00010337 0.000659652 0)
(-0.000510787 0.000861681 -1.49492e-20)
(-0.00106007 0.000997365 0)
(-0.00166375 0.00099373 1.77788e-20)
(-0.00220505 0.000839382 0)
(-0.00258598 0.000582205 -1.41892e-20)
(-0.00276868 0.000308754 0)
(-0.00278286 9.35106e-05 0)
(-0.0026875 -1.82427e-05 1.40415e-20)
(-0.00255854 -2.41141e-06 0)
(-0.00246304 0.000133847 1.45531e-20)
(-0.00240767 0.000329976 -1.46255e-20)
(-0.00233455 0.000430413 0)
(-0.0020907 0.000193496 -1.59683e-20)
(-0.00142556 -0.000489216 -1.88064e-20)
(-6.9345e-05 -0.00121436 0)
(0.00168203 -0.00184713 0)
(0.00360069 -0.00252441 0)
(0.0058033 -0.00316951 0)
(0.00826482 -0.00363425 -0)
(0.0107994 -0.00369175 3.52544e-21)
(0.013789 -0.00387712 0)
(0.0159282 -0.00381806 -2.74098e-21)
(0.0182479 -0.00370149 -0)
(0.0215938 -0.0036556 -0)
(0.0224908 -0.00318052 2.12388e-21)
(0.025371 -0.00306564 0)
(0.0281334 -0.00282896 -2.05426e-21)
(0.0285775 -0.00243492 -0)
(0.0313019 -0.00233674 0)
(0.0333335 -0.00216258 -0)
(0.0353733 -0.00201324 1.82365e-21)
(0.037311 -0.00187975 0)
(0.0391644 -0.00175991 -0)
(0.0409537 -0.00165375 1.77718e-21)
(0.0426745 -0.00155928 0)
(0.0443407 -0.00147499 1.7561e-21)
(0.0459553 -0.00139925 0)
(0.0475222 -0.00133061 0)
(0.0490472 -0.00126784 0)
(0.0505308 -0.0012097 -1.72453e-21)
(0.051977 -0.00115543 -0)
(0.0533864 -0.00110417 0)
(0.0547605 -0.00105534 -1.70403e-21)
(0.0560998 -0.00100849 -1.69717e-21)
(0.057405 -0.000963254 -0)
(0.0586764 -0.000919197 -1.68302e-21)
(0.0599136 -0.000876197 0)
(0.0611168 -0.00083386 -3.33575e-21)
(0.0622851 -0.000792178 -0)
(0.0634185 -0.000750821 -3.30281e-21)
(0.0645159 -0.000709841 -0)
(0.0655773 -0.000668913 3.26664e-21)
(0.0666013 -0.00062794 0)
(0.0675873 -0.000586599 0)
(0.0685337 -0.000544753 0)
(0.0694391 -0.000501948 -3.18216e-21)
(0.0703017 -0.000458079 -0)
(0.0711197 -0.00041285 3.1329e-21)
(0.0718911 -0.000365905 0)
(0.0726136 -0.000316867 -3.07853e-21)
(0.0732844 -0.000265577 -3.04943e-21)
(0.0739009 -0.000212103 -3.01904e-21)
(0.0744608 -0.000157119 -0)
(0.0749624 -0.000102624 0)
(0.0754061 -5.22611e-05 0)
(0.0757975 -1.05278e-05 0)
(0.0761416 2.60091e-05 0)
(0.0764391 6.20341e-05 0)
(0.0766901 9.74921e-05 0)
(0.0768935 0.000132833 0)
(0.0770495 0.000168085 2.6763e-21)
(0.0771569 0.000203242 2.62854e-21)
(0.0772154 0.00023816 0)
(0.077225 0.000272875 0)
(0.0771847 0.000307331 0)
(0.0770948 0.000341435 2.41549e-21)
(0.0769549 0.000375131 0)
(0.0767651 0.000408413 0)
(0.0765254 0.000441144 0)
(0.076236 0.000473367 0)
(0.0758971 0.000504944 -2.0965e-21)
(0.075509 0.000536009 0)
(0.0750719 0.000566273 0)
(0.0745866 0.00059591 1.87535e-21)
(0.0740534 0.000624726 -1.79651e-21)
(0.0734732 0.000652892 0)
(0.0728464 0.000680157 -1.63096e-21)
(0.072174 0.000706789 0)
(0.0714562 0.000732493 1.45478e-21)
(0.0706943 0.00075745 0)
(0.0698893 0.00078149 0)
(0.0690421 0.000804863 0)
(0.0681562 0.000827215 0)
(0.0672326 0.000848619 0)
(0.0662599 0.000868535 -1.71992e-21)
(0.0652663 0.000888078 -1.50181e-21)
(0.0642123 0.000905902 0)
(0.0631423 0.000921922 0)
(0.0620312 0.000934697 0)
(0.0608961 0.000941426 5.66763e-22)
(0.0597311 0.000939439 0)
(0.0585392 0.00093205 0)
(0.0573155 0.000936468 0)
(0.0560622 0.000950491 -4.73581e-22)
(0.05478 0.000961103 7.52714e-22)
(0.0534738 0.000970996 0)
(0.0521443 0.000979998 0)
(0.0507931 0.000988081 1.6412e-21)
(0.0494221 0.000995503 1.95571e-21)
(0.0480317 0.00100215 0)
(0.0466242 0.00100822 0)
(0.0452001 0.00101367 -2.96132e-21)
(0.0437609 0.0010187 3.31923e-21)
(0.0423088 0.00102317 0)
(0.0408443 0.00102723 0)
(0.0393706 0.00103116 4.47058e-21)
(0.037885 0.00103453 0)
(0.0363925 0.00103763 0)
(0.034891 0.0010402 5.758e-21)
(0.0333852 0.00104257 0)
(0.0318737 0.00104478 6.70704e-21)
(0.030359 0.00104688 0)
(0.0288413 0.00104914 0)
(0.0273212 0.00105152 0)
(0.0257995 0.00105424 -8.88215e-21)
(0.0242762 0.00105729 0)
(0.0227516 0.00106078 0)
(0.0212256 0.00106463 0)
(0.0196987 0.00106891 0)
(0.018171 0.00107362 0)
(0.0166426 0.00107889 0)
(0.0151138 0.00108483 -1.40412e-20)
(0.0135844 0.00109159 -1.49901e-20)
(0.0120543 0.00109924 0)
(0.0105231 0.00110784 0)
(0.00899066 0.00111724 0)
(0.00745707 0.00112727 1.96427e-20)
(0.00592305 0.00113807 0)
(0.00439017 0.00114858 -4.53713e-20)
(0.00286264 0.00115576 4.89154e-20)
(0.00134964 0.00115442 5.28655e-20)
(-0.000145368 0.00112123 -5.51187e-20)
(-0.00152891 0.0010534 5.40748e-20)
(-0.00306328 0.000886473 -5.21074e-20)
(-0.00340112 0.000495952 0)
(-0.00538967 0.00109689 -3.10654e-18)
(-0.00851392 0.000867751 -2.81576e-18)
(-0.0116131 0.00051939 0)
(-0.0148023 0.000193251 -4.79117e-18)
(-0.0182 -0.000148433 -8.91165e-18)
(-0.0218117 -0.000509025 -4.15909e-18)
(-0.0256475 -0.000889289 3.89217e-18)
(-0.0297302 -0.00129353 -1.20371e-35)
(-0.0340834 -0.00172468 9.0278e-36)
(-0.0387244 -0.00218713 3.22202e-18)
(-0.0436714 -0.00267783 3.03017e-18)
(-0.04894 -0.00316579 3.00927e-36)
(-0.0545429 -0.00368475 0)
(-0.0605389 -0.00428139 0)
(-0.0669822 -0.00493845 -8.15323e-35)
(-0.0738784 -0.0056488 -1.22251e-36)
(-0.0813752 -0.00641438 6.92131e-35)
(-0.0893333 -0.00724013 -3.75869e-18)
(-0.098317 -0.00813685 -3.42447e-18)
(-0.107398 -0.0091066 1.20371e-35)
(-0.118965 -0.0101742 5.38856e-18)
(-0.128547 -0.011344 8.94486e-18)
(-0.145972 -0.0125796 0)
(-0.153374 -0.0140855 -4.31425e-18)
(-0.188027 -0.0164406 6.01853e-36)
)
;
    }
    frontAndBack
    {
        type            empty;
    }
}


// ************************************************************************* //
