/*--------------------------------*- C++ -*----------------------------------*\
  =========                 |
  \\      /  F ield         | OpenFOAM: The Open Source CFD Toolbox
   \\    /   O peration     | Website:  https://openfoam.org
    \\  /    A nd           | Version:  8
     \\/     M anipulation  |
\*---------------------------------------------------------------------------*/
FoamFile
{
    version     2.0;
    format      ascii;
    class       volScalarField;
    location    "1900";
    object      p;
}
// * * * * * * * * * * * * * * * * * * * * * * * * * * * * * * * * * * * * * //

dimensions      [0 2 -2 0 0 0 0];

internalField   nonuniform List<scalar> 
12225
(
-4.1823
-5.08696
-5.47431
-5.6015
-5.73379
-5.88475
-6.02288
-6.13264
-6.22372
-6.30952
-6.38782
-6.45812
-6.52248
-6.58537
-6.6508
-6.72313
-6.81314
-6.91184
-4.46179
-5.11263
-5.44044
-5.56184
-5.69125
-5.84356
-5.98572
-6.10316
-6.19814
-6.28272
-6.35969
-6.42879
-6.49419
-6.55909
-6.62852
-6.70376
-6.7855
-6.85934
-4.68811
-5.11595
-5.42556
-5.57157
-5.7053
-5.85422
-5.99121
-6.10448
-6.19779
-6.28024
-6.35535
-6.42388
-6.48888
-6.55348
-6.62186
-6.69289
-6.76337
-6.82136
-4.84143
-5.14609
-5.43681
-5.59094
-5.71757
-5.85486
-5.98381
-6.09305
-6.18489
-6.26634
-6.341
-6.41019
-6.47587
-6.54048
-6.60628
-6.67215
-6.73502
-6.78717
-4.965
-5.19685
-5.45625
-5.6091
-5.73002
-5.85877
-5.98187
-6.08793
-6.17845
-6.25918
-6.33344
-6.40249
-6.4678
-6.53122
-6.59404
-6.65527
-6.71233
-6.75993
-5.07891
-5.25288
-5.47575
-5.62537
-5.74343
-5.86517
-5.98215
-6.08439
-6.173
-6.25262
-6.326
-6.39422
-6.45854
-6.52029
-6.58018
-6.6373
-6.68963
-6.73371
-5.18502
-5.31173
-5.49869
-5.64199
-5.75673
-5.87135
-5.98189
-6.08025
-6.16685
-6.2452
-6.31747
-6.38467
-6.44779
-6.50781
-6.56504
-6.61875
-6.66749
-6.70916
-5.26772
-5.36401
-5.52304
-5.65784
-5.76845
-5.87686
-5.98179
-6.07665
-6.16123
-6.23817
-6.30923
-6.37532
-6.43724
-6.49569
-6.55082
-6.60205
-6.6484
-6.68849
-5.3352
-5.41105
-5.54724
-5.67308
-5.77945
-5.8823
-5.98216
-6.07371
-6.15623
-6.23165
-6.30144
-6.36638
-6.42709
-6.48409
-6.53744
-6.58673
-6.63129
-6.67021
-5.40248
-5.46179
-5.57587
-5.69099
-5.79207
-5.88895
-5.98328
-6.07104
-6.15106
-6.22457
-6.29277
-6.35626
-6.41551
-6.47089
-6.52241
-6.56983
-6.61275
-6.65058
-5.46868
-5.51475
-5.60861
-5.71168
-5.80632
-5.89689
-5.98532
-6.06881
-6.14586
-6.21708
-6.28333
-6.34508
-6.40265
-6.45624
-6.50593
-6.55155
-6.59295
-6.62977
-5.53256
-5.56841
-5.64466
-5.735
-5.82214
-5.90612
-5.98842
-6.06716
-6.14078
-6.20931
-6.27327
-6.333
-6.38866
-6.44038
-6.48822
-6.53214
-6.57212
-6.60797
-5.59297
-5.62101
-5.68257
-5.76035
-5.83923
-5.91643
-5.99248
-6.06614
-6.1359
-6.20139
-6.26275
-6.3202
-6.37377
-6.42355
-6.46956
-6.51187
-6.55051
-6.58544
-5.64828
-5.67049
-5.72028
-5.7865
-5.85688
-5.92725
-5.99716
-6.0656
-6.13124
-6.19338
-6.25194
-6.3069
-6.35828
-6.40606
-6.45032
-6.49108
-6.52849
-6.56253
-5.69652
-5.71444
-5.75519
-5.81151
-5.87382
-5.93764
-6.00173
-6.06512
-6.12658
-6.1853
-6.24094
-6.29337
-6.34252
-6.38836
-6.43093
-6.47029
-6.50655
-6.53978
-5.73491
-5.74981
-5.78403
-5.8326
-5.88804
-5.94606
-6.00505
-6.06391
-6.12151
-6.17698
-6.22983
-6.27986
-6.32691
-6.37096
-6.412
-6.45009
-6.48534
-6.51784
-5.75951
-5.7725
-5.80257
-5.84598
-5.8965
-5.95019
-6.00531
-6.06067
-6.1152
-6.16801
-6.21856
-6.26657
-6.31188
-6.35443
-6.3942
-6.43125
-6.46568
-6.4976
-5.76395
-5.77633
-5.80504
-5.84667
-5.89525
-5.94712
-6.00045
-6.05417
-6.10712
-6.15853
-6.20778
-6.25464
-6.29888
-6.34052
-6.3795
-6.41592
-6.44982
-6.48139
-5.74777
-5.76083
-5.79106
-5.83434
-5.88424
-5.93691
-5.99084
-6.04491
-6.09811
-6.1495
-6.19867
-6.2453
-6.28934
-6.33069
-6.36943
-6.4056
-6.43934
-6.47077
-5.71619
-5.73113
-5.76536
-5.81322
-5.86685
-5.92237
-5.97859
-6.03462
-6.08928
-6.14177
-6.19165
-6.23881
-6.28315
-6.3247
-6.36352
-6.39974
-6.43348
-6.46495
-5.67252
-5.69069
-5.73165
-5.78669
-5.84583
-5.90549
-5.96528
-6.02432
-6.08133
-6.13553
-6.18668
-6.23476
-6.27975
-6.32173
-6.36082
-6.39721
-6.43106
-6.4626
-5.61865
-5.64193
-5.69292
-5.75753
-5.82324
-5.88785
-5.95207
-6.01487
-6.07471
-6.13098
-6.1837
-6.23291
-6.27871
-6.32121
-6.36064
-6.39721
-6.43119
-6.46279
-5.55554
-5.58676
-5.65188
-5.72797
-5.80056
-5.87057
-5.93989
-6.00685
-6.06971
-6.1282
-6.18258
-6.23303
-6.27964
-6.32266
-6.36238
-6.39912
-6.43313
-6.46478
-5.48329
-5.52701
-5.61132
-5.69972
-5.77861
-5.85434
-5.92932
-6.00061
-6.06644
-6.1271
-6.18313
-6.23474
-6.28211
-6.32554
-6.36546
-6.40224
-6.43625
-6.46786
-5.40143
-5.46449
-5.57406
-5.67419
-5.75788
-5.83938
-5.92032
-5.99586
-6.0645
-6.12727
-6.1849
-6.23759
-6.28556
-6.32926
-6.36918
-6.40583
-6.43964
-6.47108
-5.30931
-5.40073
-5.54121
-5.65154
-5.7386
-5.82561
-5.91208
-5.99137
-6.06257
-6.12739
-6.18666
-6.24052
-6.28923
-6.33328
-6.37328
-6.40984
-6.44349
-6.47492
-5.20635
-5.33937
-5.50998
-5.62693
-5.71851
-5.81262
-5.90469
-5.98728
-6.06066
-6.12724
-6.18783
-6.24257
-6.29176
-6.33596
-6.37584
-6.41216
-6.44557
-6.47686
-5.08205
-5.2927
-5.48474
-5.597
-5.69349
-5.79827
-5.89842
-5.98607
-6.06323
-6.13283
-6.19567
-6.25187
-6.30185
-6.34628
-6.38586
-6.4216
-6.45461
-6.48635
-4.89532
-5.2682
-5.49245
-5.58837
-5.68032
-5.78929
-5.89269
-5.98185
-6.06039
-6.13153
-6.19582
-6.25317
-6.30393
-6.34867
-6.38798
-6.42252
-6.45358
-6.48249
-4.63922
-5.19404
-5.48238
-5.58818
-5.68782
-5.80541
-5.91451
-6.00652
-6.08644
-6.15836
-6.22307
-6.28057
-6.33117
-6.3754
-6.41371
-6.44578
-6.47237
-6.49392
-7.43648
-7.43658
-7.43663
-7.43661
-7.43632
-7.43515
-7.43268
-7.42938
-7.42623
-7.4242
-7.42431
-7.42675
-7.43103
-7.43638
-7.44203
-7.44733
-7.45171
-7.45476
-7.45645
-7.45712
-7.45704
-7.45641
-7.45546
-7.45449
-7.45371
-7.45323
-7.45302
-7.45289
-7.4527
-7.45233
-7.45179
-7.4511
-7.4502
-7.44902
-7.44761
-7.44625
-7.44556
-7.44621
-7.44828
-7.45112
-7.45384
-7.45593
-7.45758
-7.45921
-7.46124
-7.46419
-7.46778
-7.47096
-7.47331
-7.47662
-7.48451
-7.50099
-7.52634
-7.55966
-7.60122
-7.65156
-7.70985
-7.77472
-7.84484
-7.91816
-7.99228
-8.06512
-8.1355
-8.20264
-8.26555
-8.3238
-8.37723
-8.42579
-8.46955
-8.50857
-8.54297
-8.57283
-8.59823
-8.61924
-8.63587
-8.64816
-8.65609
-8.65965
-8.65879
-8.65347
-8.64364
-8.62924
-8.61019
-8.58642
-8.55784
-8.52438
-8.48599
-8.44262
-8.39423
-8.34077
-8.28214
-8.21827
-8.14908
-8.0745
-7.99447
-7.90897
-7.81797
-7.72156
-7.61987
-7.51291
-7.40027
-7.28177
-7.15764
-7.02797
-6.89282
-6.75223
-6.60625
-6.45492
-6.2983
-6.13643
-5.96938
-5.79721
-5.62001
-5.43784
-5.2508
-5.05897
-4.86244
-4.66132
-4.45572
-4.24575
-4.03154
-3.81322
-3.59093
-3.36481
-3.13503
-2.90175
-2.66514
-2.4254
-2.18271
-1.93728
-1.6893
-1.43903
-1.18671
-0.932569
-0.676852
-0.419872
-0.161861
0.0972575
0.357383
0.618109
0.87917
1.14033
1.40135
1.66203
1.92215
2.1815
2.43989
2.69713
2.95304
3.20745
3.46019
3.71109
3.96001
4.20677
4.45123
4.69325
4.93272
5.16952
5.40354
5.6347
5.8629
6.08806
6.31008
6.52888
6.74436
6.95644
7.16502
7.37003
7.57139
7.76901
7.96281
8.15269
8.33856
8.52033
8.6979
8.87122
9.04062
9.20596
9.37032
9.525
-7.43766
-7.43784
-7.4382
-7.43857
-7.43857
-7.43777
-7.43589
-7.43346
-7.43171
-7.4316
-7.43342
-7.43702
-7.44189
-7.44738
-7.45289
-7.4579
-7.46207
-7.46518
-7.46705
-7.46747
-7.46653
-7.46456
-7.46198
-7.45928
-7.45686
-7.455
-7.45374
-7.45291
-7.45225
-7.45163
-7.45103
-7.45044
-7.44979
-7.44901
-7.44803
-7.44727
-7.44744
-7.44904
-7.45184
-7.45488
-7.45703
-7.45787
-7.45785
-7.45704
-7.4556
-7.45505
-7.45779
-7.46424
-7.47073
-7.4772
-7.48712
-7.50202
-7.52362
-7.55533
-7.59915
-7.65409
-7.71794
-7.78851
-7.86291
-7.93829
-8.01261
-8.08489
-8.15399
-8.21858
-8.27849
-8.33379
-8.38445
-8.43053
-8.47214
-8.50935
-8.54226
-8.57093
-8.5954
-8.6157
-8.63182
-8.64376
-8.65148
-8.65494
-8.65409
-8.64887
-8.63922
-8.62506
-8.60631
-8.5829
-8.55474
-8.52175
-8.48387
-8.44104
-8.39323
-8.34038
-8.2824
-8.21923
-8.15077
-8.07697
-7.99774
-7.91306
-7.82287
-7.72712
-7.62571
-7.51859
-7.40598
-7.28805
-7.1647
-7.03587
-6.90158
-6.76186
-6.61675
-6.46629
-6.31054
-6.14954
-5.98336
-5.81206
-5.63572
-5.4544
-5.26821
-5.07722
-4.88153
-4.68123
-4.47644
-4.26727
-4.05384
-3.83629
-3.61474
-3.38935
-3.16026
-2.92766
-2.6917
-2.45258
-2.21048
-1.96559
-1.71813
-1.46832
-1.2164
-0.962572
-0.70699
-0.449826
-0.191333
0.0680093
0.327968
0.588514
0.849413
1.11044
1.37136
1.63197
1.89204
2.15138
2.40978
2.66706
2.92303
3.17753
3.43038
3.68143
3.93051
4.17746
4.42213
4.66438
4.9041
5.14116
5.37545
5.60689
5.83539
6.06085
6.28318
6.5023
6.71812
6.93054
7.13949
7.34487
7.5466
7.74461
7.93882
8.12914
8.31552
8.49791
8.6762
8.85035
9.02056
9.18625
9.35268
9.50669
-7.43894
-7.43893
-7.43896
-7.43904
-7.43912
-7.43915
-7.43937
-7.44029
-7.44237
-7.44577
-7.45028
-7.45556
-7.46117
-7.46669
-7.47175
-7.47605
-7.47938
-7.48163
-7.48273
-7.48262
-7.48131
-7.47895
-7.4757
-7.47176
-7.46739
-7.46285
-7.45845
-7.45445
-7.45106
-7.44836
-7.4463
-7.44467
-7.44319
-7.4419
-7.44128
-7.44202
-7.44463
-7.44885
-7.4533
-7.45614
-7.45604
-7.45385
-7.45164
-7.45098
-7.45149
-7.45299
-7.45795
-7.46779
-7.48172
-7.50019
-7.52415
-7.55387
-7.59001
-7.63319
-7.68331
-7.73927
-7.79974
-7.86334
-7.92846
-7.9936
-8.05767
-8.12003
-8.18003
-8.23699
-8.29057
-8.3406
-8.38696
-8.42958
-8.46842
-8.50346
-8.53468
-8.56205
-8.58555
-8.60515
-8.62079
-8.63243
-8.64
-8.64344
-8.64268
-8.63765
-8.62826
-8.61445
-8.59612
-8.57319
-8.54558
-8.5132
-8.47596
-8.43382
-8.38673
-8.33462
-8.27742
-8.21505
-8.14742
-8.07448
-7.99615
-7.9124
-7.82321
-7.72855
-7.62832
-7.52246
-7.41104
-7.29418
-7.17188
-7.04412
-6.91091
-6.77229
-6.62829
-6.47894
-6.3243
-6.16442
-5.99937
-5.82919
-5.65398
-5.47379
-5.28872
-5.09884
-4.90426
-4.70506
-4.50137
-4.29327
-4.0809
-3.86438
-3.64386
-3.41946
-3.19134
-2.95967
-2.72463
-2.48637
-2.2451
-2.001
-1.7543
-1.50521
-1.25396
-1.00077
-0.745825
-0.489291
-0.231405
0.0274473
0.287018
0.547193
0.807752
1.06847
1.32914
1.58951
1.8494
2.10858
2.36686
2.62405
2.87997
3.13444
3.38729
3.63838
3.88752
4.13456
4.37934
4.62174
4.86161
5.09884
5.33331
5.56495
5.79363
6.01929
6.24183
6.46115
6.67717
6.8898
7.09895
7.30453
7.50646
7.70467
7.89907
8.0896
8.27614
8.45863
8.6371
8.81155
8.98251
9.14884
9.31802
9.46797
-7.44006
-7.43978
-7.43941
-7.43942
-7.44058
-7.44329
-7.44737
-7.45244
-7.45817
-7.46425
-7.47039
-7.47633
-7.48185
-7.48677
-7.49092
-7.49416
-7.49638
-7.49754
-7.4976
-7.49653
-7.49434
-7.49111
-7.48692
-7.48186
-7.47603
-7.46955
-7.46262
-7.45553
-7.44864
-7.4423
-7.4368
-7.43232
-7.42915
-7.42776
-7.42888
-7.43275
-7.43831
-7.44358
-7.44702
-7.44825
-7.44783
-7.44729
-7.44823
-7.45144
-7.45739
-7.46683
-7.48068
-7.49963
-7.52376
-7.55271
-7.58605
-7.62353
-7.66502
-7.7103
-7.75906
-7.81087
-7.86523
-7.92145
-7.97865
-8.03599
-8.09271
-8.14817
-8.20188
-8.25337
-8.30228
-8.34837
-8.39144
-8.43134
-8.46798
-8.50124
-8.53105
-8.55734
-8.58002
-8.59902
-8.61425
-8.62564
-8.6331
-8.63654
-8.63587
-8.63102
-8.62189
-8.60839
-8.59045
-8.56797
-8.54087
-8.50904
-8.47241
-8.43091
-8.38448
-8.33306
-8.27658
-8.21496
-8.1481
-8.07593
-7.9984
-7.91546
-7.82707
-7.73321
-7.63384
-7.52892
-7.41851
-7.30265
-7.18132
-7.05455
-6.92234
-6.78473
-6.64174
-6.49342
-6.33981
-6.18097
-6.01696
-5.84784
-5.67367
-5.49454
-5.31052
-5.1217
-4.92816
-4.73
-4.52734
-4.32027
-4.10891
-3.89338
-3.67383
-3.45038
-3.22319
-2.99242
-2.75824
-2.52082
-2.28035
-2.03702
-1.79105
-1.54266
-1.29206
-1.03948
-0.785109
-0.529151
-0.27185
-0.0134906
0.245689
0.505508
0.765744
1.02618
1.28659
1.54674
1.80644
2.06547
2.32363
2.58074
2.83659
3.09103
3.34389
3.59499
3.84418
4.09129
4.33617
4.57868
4.81869
5.05606
5.2907
5.5225
5.75135
5.97719
6.1999
6.41941
6.63561
6.84842
7.05774
7.26348
7.46557
7.66392
7.85847
8.04914
8.23585
8.41857
8.59731
8.77204
8.94345
9.1098
9.27973
9.42345
-7.44235
-7.44176
-7.44137
-7.44279
-7.44701
-7.45332
-7.46064
-7.46829
-7.47579
-7.48283
-7.48925
-7.49498
-7.49998
-7.50418
-7.50748
-7.50983
-7.51113
-7.51136
-7.51048
-7.50847
-7.50533
-7.50111
-7.49585
-7.48959
-7.48242
-7.47439
-7.4656
-7.45625
-7.44667
-7.43737
-7.42894
-7.42219
-7.41808
-7.41757
-7.42061
-7.42536
-7.43013
-7.43418
-7.43735
-7.44003
-7.44301
-7.44743
-7.45431
-7.46462
-7.47919
-7.49833
-7.52169
-7.54867
-7.57904
-7.61242
-7.64859
-7.68749
-7.7291
-7.77332
-7.81992
-7.86856
-7.91882
-7.9702
-8.02212
-8.07402
-8.12536
-8.1757
-8.22461
-8.27175
-8.3168
-8.35953
-8.39972
-8.4372
-8.47182
-8.50342
-8.53189
-8.55711
-8.57896
-8.59732
-8.61209
-8.62316
-8.63042
-8.63377
-8.63311
-8.62833
-8.61935
-8.60608
-8.58841
-8.56626
-8.53953
-8.50813
-8.47197
-8.43098
-8.38508
-8.33424
-8.27834
-8.21732
-8.15109
-8.07957
-8.00271
-7.92045
-7.83278
-7.73963
-7.64099
-7.53685
-7.42724
-7.31216
-7.19163
-7.06564
-6.93423
-6.79742
-6.65525
-6.50775
-6.35497
-6.19697
-6.03381
-5.86554
-5.69223
-5.51397
-5.33081
-5.14285
-4.95017
-4.75288
-4.55106
-4.34484
-4.13431
-3.91961
-3.70085
-3.47819
-3.25176
-3.02173
-2.78825
-2.55152
-2.31169
-2.06899
-1.82361
-1.57578
-1.32571
-1.07361
-0.819671
-0.564138
-0.307245
-0.0492526
0.209615
0.469149
0.729131
0.989336
1.24954
1.50952
1.76907
2.02798
2.28605
2.54308
2.79889
3.0533
3.30615
3.55727
3.8065
4.05367
4.29863
4.54123
4.78134
5.01883
5.2536
5.48554
5.71455
5.94054
6.16342
6.38308
6.59945
6.81241
7.0219
7.22781
7.43007
7.6286
7.82333
8.01417
8.20108
8.38399
8.56292
8.73777
8.90919
9.0749
9.24431
9.38123
-7.4466
-7.44569
-7.44621
-7.4507
-7.45817
-7.46667
-7.4753
-7.48356
-7.49116
-7.49803
-7.50415
-7.50952
-7.51407
-7.51774
-7.52046
-7.52216
-7.5228
-7.52233
-7.52074
-7.51801
-7.51415
-7.50918
-7.50314
-7.496
-7.48778
-7.47856
-7.46851
-7.4578
-7.4468
-7.43619
-7.42676
-7.41976
-7.41625
-7.41608
-7.41781
-7.42027
-7.42336
-7.42745
-7.43283
-7.43945
-7.44761
-7.4585
-7.47314
-7.49168
-7.51386
-7.53929
-7.56769
-7.59869
-7.63202
-7.66752
-7.70506
-7.74454
-7.78586
-7.82891
-7.87348
-7.91931
-7.96612
-8.01355
-8.06124
-8.1088
-8.15589
-8.20215
-8.24727
-8.29093
-8.33289
-8.37288
-8.41071
-8.44616
-8.47907
-8.50925
-8.53655
-8.56082
-8.58191
-8.59968
-8.614
-8.62474
-8.63178
-8.63499
-8.63427
-8.62951
-8.6206
-8.60745
-8.58996
-8.56804
-8.54158
-8.51049
-8.47468
-8.43407
-8.38859
-8.33816
-8.28271
-8.22215
-8.15639
-8.08536
-8.009
-7.92727
-7.84012
-7.74752
-7.64945
-7.54588
-7.43684
-7.32233
-7.20237
-7.07696
-6.94613
-6.80991
-6.66833
-6.52144
-6.36928
-6.21191
-6.04938
-5.88176
-5.70911
-5.53149
-5.349
-5.16171
-4.9697
-4.77308
-4.57193
-4.36636
-4.15648
-3.94241
-3.72428
-3.50222
-3.27638
-3.04691
-2.81398
-2.57775
-2.33842
-2.09619
-1.85127
-1.60386
-1.35418
-1.10243
-0.84882
-0.593597
-0.336996
-0.0792648
0.179371
0.438696
0.698489
0.958523
1.21857
1.47842
1.73785
1.99666
2.25464
2.51161
2.76737
3.02175
3.27459
3.52572
3.77496
4.02216
4.26716
4.50981
4.74998
4.98755
5.2224
5.45443
5.68354
5.90964
6.13263
6.35241
6.5689
6.782
6.99161
7.19766
7.40005
7.59871
7.79357
7.98454
8.17156
8.35457
8.53354
8.70829
8.87943
9.04417
9.21278
9.3431
-7.45188
-7.45143
-7.45417
-7.46141
-7.47024
-7.47903
-7.4874
-7.49523
-7.50245
-7.50901
-7.51488
-7.51997
-7.52421
-7.52752
-7.52984
-7.53111
-7.5313
-7.53037
-7.5283
-7.5251
-7.52078
-7.51536
-7.50875
-7.50092
-7.49197
-7.4821
-7.47152
-7.4605
-7.4495
-7.4393
-7.43103
-7.42547
-7.42217
-7.42019
-7.4195
-7.42056
-7.42398
-7.4297
-7.43762
-7.44835
-7.46249
-7.48002
-7.50075
-7.52445
-7.55087
-7.57969
-7.61069
-7.6437
-7.67855
-7.71507
-7.75312
-7.79256
-7.83325
-7.87508
-7.91787
-7.96145
-8.00562
-8.05014
-8.09475
-8.13921
-8.18322
-8.22652
-8.26885
-8.30995
-8.34958
-8.3875
-8.42351
-8.45739
-8.48896
-8.51801
-8.54437
-8.56786
-8.58831
-8.60558
-8.61949
-8.62992
-8.63672
-8.63977
-8.63895
-8.63414
-8.62525
-8.61215
-8.59476
-8.57297
-8.54669
-8.51581
-8.48023
-8.43989
-8.39468
-8.34456
-8.28942
-8.22918
-8.16375
-8.09307
-8.01705
-7.93568
-7.84888
-7.75665
-7.65894
-7.55575
-7.44708
-7.33295
-7.21335
-7.08831
-6.95786
-6.82202
-6.68083
-6.53435
-6.38261
-6.22567
-6.06359
-5.89642
-5.72423
-5.5471
-5.36509
-5.17829
-4.98678
-4.79065
-4.59001
-4.38493
-4.17555
-3.96195
-3.74429
-3.52268
-3.29728
-3.06822
-2.83569
-2.59983
-2.36087
-2.11898
-1.87439
-1.62728
-1.37787
-1.12637
-0.872992
-0.617988
-0.361595
-0.104046
0.154427
0.413606
0.673264
0.933175
1.19311
1.45286
1.7122
1.97092
2.22884
2.48574
2.74145
2.9958
3.24861
3.49973
3.74897
3.99616
4.24116
4.48383
4.72401
4.9616
5.19649
5.42856
5.65773
5.88389
6.10696
6.32682
6.54339
6.75656
6.96625
7.17237
7.37484
7.57358
7.76851
7.95955
8.14662
8.32963
8.50852
8.68304
8.85372
9.0174
9.18524
9.30942
-7.45598
-7.45681
-7.46221
-7.47053
-7.47904
-7.4872
-7.49502
-7.50243
-7.50936
-7.51572
-7.5214
-7.5263
-7.53035
-7.53345
-7.53556
-7.5366
-7.53655
-7.53538
-7.53307
-7.52965
-7.52511
-7.51938
-7.51238
-7.50426
-7.49526
-7.48551
-7.47524
-7.4649
-7.45523
-7.44698
-7.44047
-7.43511
-7.43041
-7.42701
-7.42583
-7.4272
-7.43157
-7.43948
-7.45101
-7.46602
-7.48425
-7.50545
-7.52939
-7.55577
-7.58439
-7.615
-7.64743
-7.68149
-7.71703
-7.75388
-7.79191
-7.83099
-7.87101
-7.91184
-7.95333
-7.99534
-8.03773
-8.0803
-8.12287
-8.16523
-8.20716
-8.24844
-8.28885
-8.32817
-8.36617
-8.40263
-8.43735
-8.47011
-8.5007
-8.52893
-8.55458
-8.57748
-8.59744
-8.61429
-8.62786
-8.63801
-8.64458
-8.64746
-8.6465
-8.64161
-8.63266
-8.61956
-8.60219
-8.58046
-8.55427
-8.5235
-8.48807
-8.44788
-8.40286
-8.35291
-8.29797
-8.23792
-8.1727
-8.10221
-8.02641
-7.94523
-7.85864
-7.7666
-7.66909
-7.56609
-7.45762
-7.34366
-7.22425
-7.0994
-6.96914
-6.83351
-6.69254
-6.54629
-6.39479
-6.23812
-6.07631
-5.90944
-5.73756
-5.56075
-5.37908
-5.19263
-5.00148
-4.80571
-4.60543
-4.40072
-4.19169
-3.97846
-3.76114
-3.53986
-3.31477
-3.08601
-2.85375
-2.61816
-2.37946
-2.13782
-1.89345
-1.64654
-1.39732
-1.14598
-0.892762
-0.637907
-0.38165
-0.124223
0.134142
0.393223
0.652788
0.912613
1.17247
1.43214
1.69141
1.95007
2.20791
2.46476
2.72042
2.97473
3.22751
3.4786
3.72782
3.97499
4.21996
4.46259
4.70276
4.94034
5.17523
5.40731
5.6365
5.8627
6.08581
6.30571
6.52231
6.73551
6.94524
7.1514
7.35391
7.5527
7.74767
7.93874
8.1258
8.30874
8.48749
8.6617
8.83186
8.99446
9.1616
9.28025
-7.45719
-7.45969
-7.46667
-7.47469
-7.48252
-7.49018
-7.49766
-7.50484
-7.51162
-7.51789
-7.52351
-7.52838
-7.53239
-7.53547
-7.53755
-7.53857
-7.53852
-7.53734
-7.53505
-7.53163
-7.52704
-7.52121
-7.51422
-7.50634
-7.49773
-7.48865
-7.47953
-7.47087
-7.46304
-7.45607
-7.44972
-7.44387
-7.43889
-7.43573
-7.43529
-7.43814
-7.44467
-7.45497
-7.46877
-7.48589
-7.50606
-7.529
-7.55445
-7.58214
-7.61184
-7.64335
-7.67646
-7.71101
-7.74682
-7.78376
-7.82169
-7.8605
-7.90005
-7.94022
-7.98089
-8.02194
-8.06323
-8.10461
-8.14592
-8.18699
-8.22764
-8.26767
-8.30689
-8.3451
-8.38209
-8.41764
-8.45155
-8.4836
-8.51357
-8.54125
-8.56643
-8.58891
-8.60851
-8.62505
-8.63834
-8.64823
-8.65458
-8.65726
-8.65614
-8.65112
-8.64207
-8.6289
-8.61149
-8.58975
-8.56356
-8.53282
-8.49744
-8.45733
-8.41238
-8.36254
-8.30768
-8.24773
-8.1826
-8.11219
-8.03647
-7.95536
-7.86884
-7.77684
-7.67937
-7.5764
-7.46795
-7.35402
-7.23464
-7.10982
-6.9796
-6.84402
-6.70312
-6.55695
-6.40556
-6.24901
-6.08736
-5.92066
-5.74896
-5.57235
-5.39089
-5.20468
-5.01377
-4.81827
-4.61824
-4.4138
-4.20503
-3.99206
-3.77498
-3.55394
-3.32907
-3.10052
-2.86844
-2.63304
-2.39451
-2.15304
-1.90881
-1.66204
-1.41293
-1.16169
-0.908567
-0.653807
-0.397633
-0.140282
0.118017
0.377033
0.636537
0.896297
1.15609
1.4157
1.6749
1.9335
2.19129
2.44807
2.70367
2.95792
3.21066
3.46172
3.71089
3.95801
4.20293
4.44551
4.68563
4.92317
5.15802
5.39009
5.61927
5.84548
6.06859
6.2885
6.50511
6.71832
6.92805
7.13422
7.33674
7.53555
7.73053
7.92159
8.10861
8.29145
8.46999
8.64385
8.81345
8.975
9.14149
9.25532
-7.45397
-7.45786
-7.46501
-7.47249
-7.48
-7.48749
-7.49487
-7.50203
-7.50885
-7.51521
-7.52098
-7.52601
-7.53022
-7.5335
-7.53578
-7.53699
-7.53711
-7.53609
-7.53393
-7.5306
-7.5261
-7.52044
-7.51382
-7.5065
-7.49876
-7.49092
-7.48321
-7.47573
-7.46853
-7.46172
-7.45543
-7.45001
-7.44607
-7.44438
-7.44554
-7.44997
-7.45789
-7.46938
-7.48427
-7.50238
-7.52346
-7.54721
-7.57336
-7.60167
-7.63189
-7.66383
-7.6973
-7.7321
-7.76809
-7.80513
-7.84307
-7.88178
-7.92113
-7.96102
-8.00132
-8.04192
-8.08269
-8.1235
-8.1642
-8.20464
-8.24466
-8.28409
-8.32273
-8.3604
-8.3969
-8.43202
-8.46555
-8.49725
-8.52689
-8.55426
-8.57915
-8.60135
-8.62067
-8.63693
-8.64996
-8.6596
-8.66571
-8.66818
-8.66688
-8.66169
-8.65252
-8.63924
-8.62174
-8.59993
-8.5737
-8.54293
-8.50754
-8.46742
-8.42249
-8.37264
-8.3178
-8.25786
-8.19271
-8.12229
-8.04653
-7.96537
-7.87877
-7.78669
-7.68912
-7.58605
-7.47749
-7.36346
-7.24397
-7.11906
-6.98876
-6.8531
-6.71216
-6.56596
-6.41457
-6.25804
-6.09644
-5.9298
-5.7582
-5.5817
-5.40037
-5.2143
-5.02357
-4.82825
-4.62841
-4.42417
-4.21559
-4.0028
-3.7859
-3.56503
-3.34031
-3.1119
-2.87995
-2.64468
-2.40627
-2.16491
-1.92078
-1.67409
-1.42505
-1.17387
-0.920807
-0.666102
-0.409978
-0.152672
0.105584
0.364556
0.624013
0.883722
1.14346
1.403
1.66214
1.92067
2.17839
2.4351
2.69063
2.94482
3.19751
3.44852
3.69763
3.94467
4.18951
4.43201
4.67205
4.90952
5.14431
5.37633
5.60548
5.83168
6.05479
6.27468
6.49126
6.70445
6.91416
7.12031
7.32283
7.52164
7.71662
7.90764
8.09458
8.27728
8.45559
8.62905
8.79808
8.95864
9.1245
9.23425
-7.44436
-7.44892
-7.45579
-7.46325
-7.47096
-7.47864
-7.48621
-7.49358
-7.50067
-7.50734
-7.51344
-7.51883
-7.52337
-7.52697
-7.52955
-7.53105
-7.53141
-7.53064
-7.52871
-7.52564
-7.52149
-7.51639
-7.51052
-7.5041
-7.49727
-7.49017
-7.48299
-7.47583
-7.46883
-7.46226
-7.45655
-7.45213
-7.44944
-7.44905
-7.45146
-7.45703
-7.46595
-7.47826
-7.49387
-7.5126
-7.53419
-7.55838
-7.58491
-7.61356
-7.64411
-7.67634
-7.71008
-7.74516
-7.7814
-7.81864
-7.85675
-7.8956
-7.93506
-7.97501
-8.01535
-8.05594
-8.09667
-8.13742
-8.17805
-8.21841
-8.25835
-8.29769
-8.33625
-8.37383
-8.41024
-8.44526
-8.47869
-8.51028
-8.53981
-8.56705
-8.59178
-8.6138
-8.63291
-8.64893
-8.66171
-8.67109
-8.67695
-8.67919
-8.67767
-8.67229
-8.66295
-8.64952
-8.6319
-8.60999
-8.58366
-8.55281
-8.51734
-8.47716
-8.43216
-8.38227
-8.32736
-8.26734
-8.2021
-8.13157
-8.05568
-7.97438
-7.8876
-7.79534
-7.69756
-7.59429
-7.48552
-7.37129
-7.25159
-7.1265
-6.99601
-6.86021
-6.71912
-6.57283
-6.42136
-6.26479
-6.10317
-5.93655
-5.76498
-5.58853
-5.40728
-5.22131
-5.03071
-4.83553
-4.63586
-4.43176
-4.22335
-4.0107
-3.79395
-3.57321
-3.34862
-3.1203
-2.88846
-2.65328
-2.41497
-2.17368
-1.92963
-1.68299
-1.434
-1.18286
-0.929846
-0.67518
-0.419098
-0.161829
0.0963864
0.355316
0.614723
0.874379
1.13406
1.39354
1.65261
1.91106
2.1687
2.42533
2.68078
2.93488
3.18751
3.43847
3.68749
3.93443
4.17916
4.42155
4.66148
4.89886
5.13357
5.36552
5.59462
5.8208
6.04389
6.26374
6.48028
6.69342
6.9031
7.10922
7.31172
7.51051
7.70548
7.89646
8.0833
8.26583
8.44388
8.61692
8.78539
8.94501
9.11025
9.21665
-7.42682
-7.43139
-7.43842
-7.44665
-7.45506
-7.46323
-7.47116
-7.4789
-7.48641
-7.49356
-7.50017
-7.50605
-7.51104
-7.51505
-7.51803
-7.51991
-7.52067
-7.52031
-7.51882
-7.51626
-7.5127
-7.50823
-7.50299
-7.49712
-7.49074
-7.48399
-7.47701
-7.47001
-7.46331
-7.45725
-7.45218
-7.4485
-7.44673
-7.44735
-7.45078
-7.4573
-7.46707
-7.48012
-7.49633
-7.51554
-7.53753
-7.56205
-7.5889
-7.61785
-7.64871
-7.68129
-7.71538
-7.75081
-7.78742
-7.82503
-7.86353
-7.90277
-7.94263
-7.983
-8.02372
-8.06469
-8.10577
-8.14684
-8.18778
-8.22843
-8.26865
-8.30826
-8.34707
-8.3849
-8.42153
-8.45675
-8.49032
-8.52201
-8.5516
-8.57882
-8.60346
-8.62532
-8.64422
-8.65999
-8.67246
-8.6815
-8.68703
-8.68895
-8.68715
-8.68153
-8.67199
-8.65839
-8.64063
-8.61858
-8.59212
-8.56113
-8.52552
-8.48523
-8.44016
-8.39016
-8.33514
-8.27499
-8.20962
-8.13893
-8.06286
-7.98135
-7.89435
-7.80183
-7.70379
-7.60024
-7.49121
-7.37671
-7.25677
-7.13143
-7.00073
-6.86473
-6.72347
-6.57704
-6.42547
-6.26884
-6.10719
-5.94056
-5.76901
-5.5926
-5.41141
-5.22553
-5.03504
-4.84
-4.64047
-4.43653
-4.22827
-4.01578
-3.79918
-3.57858
-3.35411
-3.12591
-2.89417
-2.65909
-2.42087
-2.17967
-1.93569
-1.68912
-1.44018
-1.1891
-0.936137
-0.681518
-0.425479
-0.168253
0.0899161
0.348795
0.608146
0.86774
1.12735
1.38676
1.64574
1.90411
2.16165
2.41819
2.67354
2.92754
3.18014
3.43106
3.67998
3.92678
4.17137
4.41362
4.65343
4.89069
5.1253
5.35716
5.58621
5.81237
6.03544
6.25523
6.4717
6.68479
6.89441
7.1005
7.30297
7.50175
7.6967
7.88763
8.07435
8.2567
8.43447
8.6071
8.77501
8.93376
9.09835
9.20213
-7.40094
-7.40535
-7.41329
-7.42292
-7.43233
-7.44107
-7.44944
-7.4577
-7.46591
-7.47385
-7.48122
-7.48775
-7.49332
-7.49785
-7.50134
-7.50374
-7.50504
-7.50522
-7.50429
-7.50228
-7.49925
-7.49528
-7.49047
-7.4849
-7.47872
-7.47209
-7.46524
-7.45845
-7.45202
-7.44627
-7.44163
-7.43859
-7.43759
-7.43907
-7.44338
-7.45075
-7.46128
-7.47496
-7.4917
-7.51133
-7.53367
-7.55852
-7.5857
-7.61501
-7.64627
-7.6793
-7.71389
-7.74985
-7.787
-7.82518
-7.86426
-7.90409
-7.94456
-7.98552
-8.02685
-8.06843
-8.11013
-8.15182
-8.19336
-8.23459
-8.27536
-8.31551
-8.35484
-8.39316
-8.43024
-8.46585
-8.49975
-8.53167
-8.56133
-8.58847
-8.6129
-8.63445
-8.65298
-8.66832
-8.6803
-8.68883
-8.69389
-8.69542
-8.69331
-8.68746
-8.67776
-8.66405
-8.64617
-8.62402
-8.59741
-8.56621
-8.53039
-8.48998
-8.44481
-8.39474
-8.33961
-8.27933
-8.21381
-8.14296
-8.06672
-7.985
-7.89776
-7.80496
-7.70665
-7.60281
-7.49351
-7.37874
-7.25857
-7.13298
-7.00205
-6.86584
-6.72443
-6.57787
-6.42622
-6.26955
-6.10789
-5.94129
-5.76979
-5.59345
-5.41234
-5.22658
-5.03622
-4.84134
-4.64197
-4.43822
-4.23013
-4.01784
-3.80142
-3.58102
-3.35674
-3.12873
-2.89715
-2.66222
-2.42411
-2.18303
-1.93915
-1.69268
-1.44383
-1.19285
-0.93997
-0.685435
-0.429472
-0.172328
0.0857602
0.344551
0.60381
0.863306
1.12281
1.38211
1.64098
1.89923
2.15664
2.41305
2.66826
2.92215
3.17477
3.42573
3.67454
3.92118
4.1656
4.4077
4.64737
4.88451
5.11901
5.35079
5.57979
5.80598
6.02904
6.24876
6.46515
6.67817
6.88774
7.09378
7.29622
7.495
7.68995
7.88082
8.06742
8.24957
8.42706
8.59927
8.76665
8.92459
9.08848
9.19032
-7.36791
-7.37263
-7.38207
-7.39349
-7.40399
-7.41346
-7.42261
-7.43161
-7.44054
-7.44941
-7.45786
-7.46542
-7.47171
-7.47676
-7.48077
-7.48375
-7.48564
-7.4864
-7.48602
-7.4845
-7.48189
-7.47823
-7.47361
-7.46814
-7.46201
-7.4554
-7.44855
-7.44175
-7.43538
-7.42985
-7.42559
-7.42308
-7.42273
-7.42493
-7.42995
-7.43799
-7.4491
-7.46328
-7.48045
-7.50048
-7.5232
-7.54844
-7.57601
-7.60576
-7.63749
-7.67103
-7.70616
-7.7427
-7.78047
-7.81932
-7.8591
-7.89967
-7.94087
-7.98258
-8.02467
-8.06702
-8.10951
-8.15198
-8.1943
-8.23629
-8.27779
-8.31861
-8.35854
-8.3974
-8.43493
-8.47089
-8.50501
-8.53699
-8.56652
-8.59331
-8.61721
-8.63818
-8.65613
-8.67084
-8.68204
-8.68974
-8.69417
-8.69531
-8.69301
-8.68712
-8.67748
-8.66385
-8.64605
-8.62391
-8.59721
-8.56575
-8.52967
-8.48917
-8.444
-8.39385
-8.3386
-8.27817
-8.2125
-8.14151
-8.0651
-7.98317
-7.89565
-7.80255
-7.7039
-7.59976
-7.49017
-7.37513
-7.25468
-7.12884
-6.99766
-6.86123
-6.71964
-6.57295
-6.42123
-6.26453
-6.10288
-5.93633
-5.76493
-5.58874
-5.40783
-5.22225
-5.03207
-4.83736
-4.63817
-4.43459
-4.22668
-4.01456
-3.79832
-3.57812
-3.35407
-3.12634
-2.89507
-2.66044
-2.42261
-2.18176
-1.9381
-1.69182
-1.44317
-1.19239
-0.93972
-0.685381
-0.429618
-0.172679
0.0851968
0.343767
0.602797
0.862055
1.12131
1.38035
1.63896
1.89693
2.15407
2.41017
2.66508
2.91867
3.17116
3.42206
3.67069
3.9171
4.16131
4.40323
4.64274
4.87974
5.11412
5.34579
5.57478
5.80111
6.02425
6.24389
6.4602
6.67316
6.88268
7.0887
7.29113
7.48994
7.68493
7.87576
8.06223
8.24418
8.42139
8.5932
8.76005
8.91724
9.08039
9.18096
-7.33073
-7.33632
-7.34779
-7.36139
-7.37306
-7.38284
-7.3924
-7.40246
-7.4127
-7.42275
-7.43231
-7.44093
-7.44806
-7.45368
-7.4582
-7.46175
-7.46421
-7.4655
-7.46558
-7.46443
-7.46207
-7.45855
-7.45397
-7.44844
-7.44215
-7.43531
-7.42824
-7.4213
-7.41488
-7.40943
-7.4054
-7.40323
-7.40329
-7.40593
-7.41137
-7.41978
-7.43123
-7.4457
-7.46314
-7.48344
-7.50646
-7.53203
-7.56
-7.59019
-7.62241
-7.65646
-7.69214
-7.72927
-7.7677
-7.80724
-7.84776
-7.88908
-7.93109
-7.97362
-8.01656
-8.05976
-8.10306
-8.14631
-8.18934
-8.23197
-8.27403
-8.31532
-8.35564
-8.39477
-8.43247
-8.46848
-8.5025
-8.53422
-8.56324
-8.58914
-8.61196
-8.63197
-8.64913
-8.66308
-8.67313
-8.67942
-8.6828
-8.68346
-8.6811
-8.67545
-8.66621
-8.65302
-8.63558
-8.6138
-8.58767
-8.55711
-8.52196
-8.48204
-8.4371
-8.38702
-8.33171
-8.2712
-8.2054
-8.13424
-8.05759
-7.97537
-7.88749
-7.79401
-7.69495
-7.59041
-7.48039
-7.36496
-7.24411
-7.11788
-6.98633
-6.84957
-6.70769
-6.56077
-6.40886
-6.25202
-6.0903
-5.92371
-5.75235
-5.57626
-5.39552
-5.2101
-5.02008
-4.82551
-4.6265
-4.42307
-4.21533
-4.00337
-3.78733
-3.56732
-3.34352
-3.11606
-2.88512
-2.6508
-2.41328
-2.1727
-1.92929
-1.68326
-1.43487
-1.18436
-0.931946
-0.677865
-0.422373
-0.165713
0.091868
0.350132
0.608839
0.86776
1.12666
1.38533
1.64354
1.90109
2.15778
2.41341
2.66776
2.9207
3.17206
3.42177
3.66967
3.91561
4.15944
4.40101
4.6402
4.8769
5.11099
5.34238
5.57118
5.7975
6.02066
6.24019
6.45641
6.6693
6.87878
7.08479
7.28722
7.48615
7.6813
7.87214
8.05849
8.24026
8.4172
8.58864
8.75501
8.91149
9.07386
9.17379
-7.29299
-7.2998
-7.31375
-7.32928
-7.34128
-7.35152
-7.36219
-7.37343
-7.38478
-7.39594
-7.40658
-7.4162
-7.42417
-7.43049
-7.43565
-7.43983
-7.44287
-7.44466
-7.44513
-7.44423
-7.44199
-7.43843
-7.43365
-7.4278
-7.4211
-7.41381
-7.4063
-7.39893
-7.39217
-7.38646
-7.38225
-7.37993
-7.37988
-7.38242
-7.38777
-7.3961
-7.40746
-7.42188
-7.43931
-7.45966
-7.4828
-7.50862
-7.53695
-7.56759
-7.60033
-7.63495
-7.67124
-7.70903
-7.74816
-7.78844
-7.82971
-7.87179
-7.91453
-7.95778
-8.00139
-8.0452
-8.08906
-8.13277
-8.17618
-8.21911
-8.26137
-8.30276
-8.34307
-8.3821
-8.41961
-8.45536
-8.48905
-8.5203
-8.54848
-8.57266
-8.59318
-8.61123
-8.62723
-8.64092
-8.65167
-8.65902
-8.66292
-8.66358
-8.66117
-8.65555
-8.64642
-8.63338
-8.61608
-8.59452
-8.5689
-8.53924
-8.50503
-8.46569
-8.42107
-8.37115
-8.31598
-8.25555
-8.18976
-8.11851
-8.04173
-7.95932
-7.87122
-7.77748
-7.67816
-7.57333
-7.46301
-7.34726
-7.2261
-7.09956
-6.96773
-6.83073
-6.68864
-6.54155
-6.38952
-6.23261
-6.07085
-5.90429
-5.73299
-5.55701