/*--------------------------------*- C++ -*----------------------------------*\
  =========                 |
  \\      /  F ield         | OpenFOAM: The Open Source CFD Toolbox
   \\    /   O peration     | Website:  https://openfoam.org
    \\  /    A nd           | Version:  8
     \\/     M anipulation  |
\*---------------------------------------------------------------------------*/
FoamFile
{
    version     2.0;
    format      ascii;
    class       volVectorField;
    location    "1900";
    object      wallShearStress;
}
// * * * * * * * * * * * * * * * * * * * * * * * * * * * * * * * * * * * * * //

dimensions      [0 2 -2 0 0 0 0];

internalField   uniform (0 0 0);

boundaryField
{
    inlet
    {
        type            calculated;
        value           uniform (0 0 0);
    }
    outlet
    {
        type            calculated;
        value           uniform (0 0 0);
    }
    upperWall
    {
        type            calculated;
        value           nonuniform List<vector> 
223
(
(-0.446718 0.00306641 0)
(-0.488385 0.00565338 0)
(-0.505686 0.00690062 0)
(-0.507686 0.00736252 0)
(-0.501842 0.00734809 0)
(-0.491147 0.00699991 0)
(-0.479043 0.00649128 0)
(-0.466692 0.00591598 0)
(-0.454181 0.00531682 0)
(-0.442452 0.00473805 0)
(-0.431695 0.00419603 0)
(-0.421952 0.0036972 0)
(-0.413217 0.00324345 0)
(-0.405429 0.00283619 0)
(-0.398508 0.00247516 0)
(-0.392366 0.00217047 0)
(-0.386861 0.00192619 0)
(-0.381958 0.00178215 0)
(-0.378018 0.00170858 0)
(-0.374906 0.00166343 5.80439e-22)
(-0.371861 0.00159866 0)
(-0.368894 0.00152249 0)
(-0.366002 0.00144063 0)
(-0.363188 0.00135564 5.9286e-22)
(-0.360458 0.00126984 0)
(-0.357816 0.00118383 0)
(-0.355264 0.00109944 0)
(-0.352803 0.00101643 -1.20778e-21)
(-0.350435 0.000936017 1.21305e-21)
(-0.34816 0.000858035 1.21824e-21)
(-0.34598 0.000783368 0)
(-0.343893 0.000711656 -1.22838e-21)
(-0.341898 0.000643929 0)
(-0.339993 0.00058012 1.23823e-21)
(-0.338175 0.000520491 1.24306e-21)
(-0.336443 0.000464895 -1.24783e-21)
(-0.33479 0.000413498 0)
(-0.333216 0.000366211 0)
(-0.331716 0.000322867 0)
(-0.330286 0.000283344 0)
(-0.328921 0.000247557 -1.27101e-21)
(-0.32762 0.000215311 0)
(-0.326378 0.000186434 0)
(-0.32519 0.000160735 1.28456e-21)
(-0.324055 0.000138058 0)
(-0.322968 0.000118233 1.29358e-21)
(-0.321925 0.000100974 -1.2981e-21)
(-0.320925 8.62325e-05 1.30264e-21)
(-0.319964 7.40909e-05 0)
(-0.319037 6.42405e-05 0)
(-0.318143 5.65184e-05 0)
(-0.317279 5.08982e-05 1.32107e-21)
(-0.31644 4.71909e-05 -1.32576e-21)
(-0.315626 4.52123e-05 0)
(-0.314832 4.48717e-05 0)
(-0.314056 4.58855e-05 0)
(-0.313299 4.81523e-05 0)
(-0.31255 5.16023e-05 0)
(-0.311821 5.60461e-05 0)
(-0.311091 6.14399e-05 0)
(-0.310383 6.76193e-05 0)
(-0.309664 7.45988e-05 1.36956e-21)
(-0.308965 8.21964e-05 -1.37459e-21)
(-0.308257 9.06747e-05 0)
(-0.307548 9.9559e-05 0)
(-0.306861 0.000107126 0)
(-0.306118 0.000122001 -1.39464e-21)
(-0.305439 0.000137559 0)
(-0.304667 0.000143762 0)
(-0.303919 0.000136846 0)
(-0.303285 0.00011756 0)
(-0.302333 0.000160335 0)
(-0.301758 0.00020944 -2.84798e-21)
(-0.308996 0.000180233 0)
(-0.376158 0.00014511 0)
(-0.387144 0.000615877 0)
(-0.362764 0.000828306 0)
(-0.342762 0.000470027 0)
(-0.323918 0.00108566 0)
(-0.320146 0.00139794 0)
(-0.329006 0.000837944 3.17235e-21)
(-0.326299 0.00038057 0)
(-0.31797 -9.63452e-05 0)
(-0.310687 -0.000234682 0)
(-0.301034 -7.0128e-05 -3.02109e-21)
(-0.298569 -3.13921e-05 0)
(-0.309557 -0.000163976 -3.14289e-21)
(-0.371187 -6.8438e-05 0)
(-0.347797 0.00108608 0)
(-0.323467 0.00126061 0)
(-0.330107 0.000456335 -3.3609e-21)
(-0.307335 0.00049711 0)
(-0.301445 0.000560565 3.12508e-21)
(-0.301513 0.000147866 3.14538e-21)
(-0.296596 -1.99869e-05 0)
(-0.296473 0.000967139 3.10714e-21)
(-0.320776 0.00185111 0)
(-0.294884 0.00108074 0)
(-0.30429 0.000486936 0)
(-0.311466 0.000315626 -3.33676e-21)
(-0.293556 -0.000440211 0)
(-0.3155 -9.99571e-05 -3.43647e-21)
(-0.303639 0.000655677 3.27164e-21)
(-0.30858 0.000275412 0)
(-0.291991 -0.000380802 0)
(-0.31555 0.000120864 0)
(-0.301302 0.000902572 0)
(-0.290635 0.00043733 0)
(-0.290174 0.000181007 0)
(-0.289791 -3.90208e-05 0)
(-0.342494 0.000783451 -3.74984e-21)
(-0.314914 0.00100007 0)
(-0.288238 0.000184702 0)
(-0.351849 0.0008242 0)
(-0.318674 0.00105291 0)
(-0.309581 0.00051442 0)
(-0.285888 -1.93084e-06 0)
(-0.314564 -5.93345e-05 0)
(-0.291651 0.000168301 0)
(-0.284098 3.45168e-05 0)
(-0.338531 -0.000124025 0)
(-0.34483 -9.20712e-05 0)
(-0.346731 0.00067274 0)
(-0.291559 0.000639522 -5.90949e-21)
(-0.28006 0.000402502 0)
(-0.323654 0.000916843 0)
(-0.298926 0.00137664 0)
(-0.276846 0.000961423 5.26924e-21)
(-0.275711 0.00027831 0)
(-0.30607 0.000669192 0)
(-0.285507 0.00133007 5.17286e-21)
(-0.271847 0.0012414 0)
(-0.270429 0.00124034 -4.70446e-21)
(-0.26866 0.000853214 0)
(-0.267492 -2.38371e-05 0)
(-0.280576 0.000507199 0)
(-0.264504 0.000825423 4.16527e-21)
(-0.285806 0.000966584 0)
(-0.261792 0.000791765 -3.82473e-21)
(-0.285025 0.00074467 0)
(-0.259191 0.000623464 0)
(-0.280075 0.000616205 0)
(-0.256495 0.000565936 0)
(-0.273087 0.000568339 0)
(-0.25359 0.00055631 0)
(-0.264886 0.000553771 0)
(-0.250453 0.000565425 0)
(-0.255849 0.000531739 0)
(-0.247152 0.000523558 0)
(-0.246519 0.000967598 0)
(-0.243578 0.00119099 -1.17349e-21)
(-0.243757 0.00089064 9.28465e-22)
(-0.239442 0.00143907 0)
(-0.237173 0.000926202 0)
(-0.234984 0.00112753 0)
(-0.233127 0.00176166 0)
(-0.231695 0.000708462 -6.58084e-22)
(-0.230895 0.000615306 1.04418e-21)
(-0.228052 0.000228397 -1.39492e-21)
(-0.225089 4.34993e-05 0)
(-0.224258 0.000406574 -2.16326e-21)
(-0.221874 -0.000575979 -5.27512e-21)
(-0.218267 0.000683429 0)
(-0.23629 0.0022144 -7.25726e-21)
(-0.216287 0.00215832 7.49222e-21)
(-0.21481 0.001316 0)
(-0.212416 -0.000114228 0)
(-0.209227 0.000906363 0)
(-0.208364 0.000561587 0)
(-0.204421 -0.000170764 0)
(-0.203109 0.00121583 -1.35958e-20)
(-0.212856 0.00119917 0)
(-0.208369 0.000768995 -1.64498e-20)
(-0.201274 0.000950724 0)
(-0.205862 0.000174629 0)
(-0.191035 -0.000702382 0)
(-0.188075 -0.000624919 0)
(-0.18305 -0.00136781 0)
(-0.178348 -0.00012489 2.51588e-20)
(-0.179551 0.00221803 0)
(-0.187232 0.00252806 0)
(-0.182901 0.0017472 -2.61589e-20)
(-0.182155 0.00113784 0)
(-0.179578 0.000529896 0)
(-0.173909 0.000122121 0)
(-0.168349 0.000186493 3.52611e-20)
(-0.163859 0.000302292 0)
(-0.159582 0.000440088 0)
(-0.15433 0.000576291 0)
(-0.146564 0.000741739 0)
(-0.135371 0.00110312 -5.36166e-20)
(-0.121417 0.00159707 0)
(-0.106713 0.00189529 0)
(-0.0928605 0.00185686 0)
(-0.0813692 0.00165087 9.29763e-20)
(-0.0697744 0.00145883 0)
(-0.0640822 0.00180574 0)
(-0.0349866 0.00145575 -1.39696e-19)
(-0.067695 0.00041237 6.01853e-36)
(-0.101908 0.00576409 1.18849e-17)
(-0.125361 0.0101874 2.13096e-17)
(-0.13785 0.0127859 2.00188e-17)
(-0.145233 0.0142078 1.92387e-17)
(-0.150778 0.0150828 1.86129e-17)
(-0.155115 0.0157002 -1.80858e-17)
(-0.158234 0.016142 -1.76019e-17)
(-0.160598 0.0164474 -6.01853e-36)
(-0.162738 0.0166837 -3.3596e-17)
(-0.164853 0.0168947 -1.64121e-17)
(-0.167036 0.0170966 5.41668e-34)
(-0.169481 0.0173055 -1.20371e-35)
(-0.172382 0.0175469 -3.01902e-17)
(-0.175865 0.0178397 -2.90557e-17)
(-0.180002 0.0181939 -2.77454e-17)
(-0.18487 0.0186178 0)
(-0.190471 0.0191124 4.89795e-17)
(-0.196975 0.0196924 2.24821e-17)
(-0.204176 0.0203437 1.20371e-35)
(-0.212877 0.0211244 -3.50993e-17)
(-0.221171 0.0219047 -1.235e-20)
(-0.234777 0.0230683 0)
(-0.239028 0.0237926 1.3206e-17)
(-0.264857 0.0253602 -7.12411e-18)
)
;
    }
    lowerWall
    {
        type            calculated;
        value           nonuniform List<vector> 
250
(
(-0.623065 -0.00596846 0)
(-0.595393 -0.00943992 0)
(-0.716205 -0.0131156 0)
(-0.632326 -0.0130051 0)
(-0.521246 -0.0100239 0)
(-0.500398 -0.00886927 0)
(-0.483832 -0.00741573 0)
(-0.471154 -0.00509052 0)
(-0.460343 -0.00339895 0)
(-0.452151 -0.001445 0)
(-0.463871 -0.000980351 0)
(-0.549352 -0.0016518 0)
(-0.483898 -0.00257147 0)
(-0.466534 -0.00298679 0)
(-0.42855 -0.00134173 0)
(-0.426079 -0.000405325 0)
(-0.42363 -0.0001234 0)
(-0.42204 0.00112056 0)
(0.00204944 0.000275661 0)
(0.00227595 -0.00252716 0)
(0.00250987 -0.00542317 0)
(0.00275308 -0.00845461 1.18436e-19)
(0.00293004 -0.0113231 -9.98515e-20)
(0.003169 -0.0146394 8.63894e-20)
(0.00304951 -0.014328 -7.73364e-20)
(0.0096939 -0.0326137 0)
(-0.0420481 -0.106393 0)
(0.000216554 -0.000270929 0)
(5.35275e-05 -0.000775857 0)
(-1.05499e-05 -0.000858948 0)
(5.37835e-05 -0.000857626 0)
(3.21097e-05 -0.000827175 1.54496e-19)
(-0.000139942 -0.000268091 -1.50365e-19)
(-0.00057006 0.00115406 0)
(-0.00116226 0.00382259 -1.73245e-19)
(-0.00154267 0.00723227 1.32559e-19)
(-0.00149568 0.0104598 0)
(-0.00111023 0.0128471 0)
(-0.000582415 0.0141037 0)
(-7.55395e-05 0.0142014 0)
(0.000324868 0.0133312 0)
(0.000654329 0.0117763 0)
(0.00097408 0.00958694 0)
(0.00132254 0.00680365 0)
(0.0017132 0.00347735 0)
(-0.000141599 -0.000272634 0)
(0.000165451 -0.000440515 0)
(0.000469056 -0.000493162 0)
(0.000785831 -0.000426871 0)
(0.00104005 -0.00019762 -0)
(0.00108894 0.000185903 -0)
(0.000846082 0.000647419 1.45006e-20)
(0.000339255 0.00108163 -1.6446e-20)
(-0.000364852 0.00139887 0)
(-0.00117317 0.0015595 -9.42845e-21)
(-0.00200799 0.00157584 0)
(-0.00280505 0.00147735 0)
(-0.00351892 0.00129977 0)
(-0.00412431 0.00107366 4.62116e-21)
(-0.00460958 0.000819822 0)
(-0.00497031 0.000550138 0)
(-0.00520398 0.000272935 -4.0028e-21)
(-0.00531486 -1.73125e-05 -0)
(-0.00527892 -0.000318344 0)
(-0.00509394 -0.000609399 -0)
(-0.00476858 -0.000870231 4.30373e-21)
(-0.00431472 -0.00108068 -0)
(-0.00375021 -0.00121966 5.09306e-21)
(-0.00310246 -0.00126797 0)
(-0.00240909 -0.0012113 -0)
(-0.00171905 -0.00104679 8.25787e-21)
(-0.00108932 -0.000790499 0)
(-0.000576401 -0.000486657 -1.36656e-20)
(-0.00021306 -0.000205976 0)
(1.65787e-05 -1.07146e-05 2.36073e-20)
(0.000161764 0.000104289 0)
(0.000245913 0.000199162 0)
(0.000240077 0.000310141 0)
(0.000132397 0.000459455 0)
(-0.000111518 0.000658967 0)
(-0.000517966 0.00086729 -1.49681e-20)
(-0.0010695 0.00100993 0)
(-0.00167888 0.001012 1.77476e-20)
(-0.00222821 0.000861554 0)
(-0.00261904 0.000605561 -1.41015e-20)
(-0.00281133 0.000329366 0)
(-0.00283205 0.000107505 0)
(-0.00273855 -1.27833e-05 1.39267e-20)
(-0.0026061 -6.75714e-06 0)
(-0.00250493 0.000122224 1.44934e-20)
(-0.00244716 0.0003167 -1.46155e-20)
(-0.00237697 0.000432107 0)
(-0.00215647 0.000229112 -1.58988e-20)
(-0.00152114 -0.00042244 -1.85117e-20)
(-0.000250421 -0.00115232 0)
(0.00147348 -0.00178682 0)
(0.00339664 -0.00244761 0)
(0.00559882 -0.00301144 0)
(0.00801718 -0.00343054 -0)
(0.0108382 -0.00389578 3.62266e-21)
(0.0135856 -0.00411445 0)
(0.0162378 -0.00399374 -2.89249e-21)
(0.0189583 -0.00382782 -0)
(0.0211099 -0.00356411 -0)
(0.0222837 -0.00314784 2.15395e-21)
(0.0242252 -0.0029183 0)
(0.0260988 -0.00267567 -1.92725e-21)
(0.0288307 -0.00249811 -0)
(0.0309776 -0.00231932 0)
(0.0331874 -0.00217401 -0)
(0.0351881 -0.00202314 1.82631e-21)
(0.0371354 -0.00188811 0)
(0.0390057 -0.00176799 -0)
(0.0407862 -0.00166109 1.77849e-21)
(0.0425226 -0.00156652 0)
(0.0441861 -0.00148198 1.75691e-21)
(0.0458091 -0.00140632 0)
(0.0473784 -0.0013377 0)
(0.0489087 -0.00127503 0)
(0.0503966 -0.00121696 -1.7248e-21)
(0.0518477 -0.00116265 -0)
(0.0532613 -0.00111139 0)
(0.0546404 -0.0010625 -1.70438e-21)
(0.0559842 -0.00101537 -1.69765e-21)
(0.057294 -0.000969775 -0)
(0.0585695 -0.000925285 -1.68389e-21)
(0.059811 -0.000881552 0)
(0.0610173 -0.000838579 -3.33864e-21)
(0.0621895 -0.00079607 -0)
(0.0633258 -0.000753832 -3.30705e-21)
(0.0644261 -0.00071173 -0)
(0.0654894 -0.000669645 3.27217e-21)
(0.0665147 -0.000627311 0)
(0.0675009 -0.000584705 0)
(0.0684465 -0.000541648 0)
(0.0693505 -0.000498073 -3.19016e-21)
(0.0702112 -0.000453714 -0)
(0.0710273 -0.000408229 3.14209e-21)
(0.0717965 -0.000361186 0)
(0.0725162 -0.000312461 -3.08858e-21)
(0.0731847 -0.000261632 -3.05967e-21)
(0.0737988 -0.000208556 -3.02927e-21)
(0.0743566 -0.000153905 -0)
(0.0748569 -9.93238e-05 0)
(0.0752996 -4.87821e-05 0)
(0.0756907 -7.26457e-06 0)
(0.0760351 2.84253e-05 0)
(0.0763348 6.34783e-05 0)
(0.0765889 9.76809e-05 0)
(0.0767973 0.000131767 0)
(0.0769592 0.000165358 2.68042e-21)
(0.0770751 0.00019884 2.6318e-21)
(0.0771436 0.000231888 0)
(0.0771655 0.000264751 0)
(0.0771394 0.000297188 0)
(0.0770659 0.000329358 2.41642e-21)
(0.0769442 0.000361044 0)
(0.0767748 0.000392499 0)
(0.0765568 0.00042343 0)
(0.076291 0.000453963 0)
(0.0759772 0.000484066 -2.09908e-21)
(0.0756152 0.000513801 0)
(0.0752054 0.000542972 0)
(0.0747483 0.000571763 1.88203e-21)
(0.0742434 0.000600089 -1.80504e-21)
(0.0736916 0.000627908 0)
(0.0730927 0.000655279 -1.64383e-21)
(0.0724476 0.00068201 0)
(0.0717568 0.000708338 1.47259e-21)
(0.0710201 0.00073402 0)
(0.070239 0.000759208 0)
(0.0694134 0.000783771 0)
(0.0685443 0.000807853 0)
(0.0676386 0.000830992 0)
(0.0666845 0.000853143 -1.78664e-21)
(0.065703 0.00087486 -1.5731e-21)
(0.0646606 0.000895084 0)
(0.0636024 0.000913867 0)
(0.0624938 0.000930005 0)
(0.0613622 0.000940679 6.52866e-22)
(0.0601975 0.000942975 0)
(0.059003 0.000935744 0)
(0.0577755 0.000938442 0)
(0.0565159 0.000953721 -3.8087e-22)
(0.0552244 0.000966383 6.59694e-22)
(0.0539069 0.000977947 0)
(0.0525643 0.000988617 0)
(0.0511979 0.000998281 1.55095e-21)
(0.0498102 0.00100711 1.86757e-21)
(0.0484022 0.00101516 0)
(0.0469755 0.0010225 0)
(0.0455322 0.00102914 -2.88242e-21)
(0.0440736 0.00103525 3.24421e-21)
(0.0426002 0.00104059 0)
(0.0411164 0.00104563 0)
(0.0396179 0.00104978 4.4099e-21)
(0.0381132 0.00105366 0)
(0.0365957 0.00105664 0)
(0.0350752 0.00105945 5.71462e-21)
(0.0335451 0.00106165 0)
(0.0320133 0.00106365 6.67735e-21)
(0.030477 0.00106562 0)
(0.0289386 0.0010675 0)
(0.0273989 0.00106957 0)
(0.0258579 0.00107191 -8.88358e-21)
(0.0243162 0.00107459 0)
(0.022774 0.00107763 0)
(0.0212313 0.00108104 0)
(0.0196885 0.00108482 0)
(0.0181458 0.00108902 0)
(0.0166034 0.0010937 0)
(0.0150616 0.00109905 -1.4112e-20)
(0.0135202 0.00110514 -1.50729e-20)
(0.0119791 0.00111211 0)
(0.0104381 0.00111997 0)
(0.00889687 0.00112862 0)
(0.00735572 0.00113782 1.97812e-20)
(0.00581527 0.00114781 0)
(0.00427717 0.00115741 -4.57172e-20)
(0.00274553 0.00116353 4.93003e-20)
(0.0012299 0.00116102 5.32936e-20)
(-0.000267263 0.00112515 -5.52641e-20)
(-0.00165128 0.00105433 5.39334e-20)
(-0.00318312 0.000886214 -5.19911e-20)
(-0.00351932 0.000493988 0)
(-0.00550502 0.00108793 -3.10174e-18)
(-0.00862958 0.000858623 -2.81286e-18)
(-0.0117277 0.00050917 -3.00927e-36)
(-0.0149115 0.000182132 -4.7897e-18)
(-0.018301 -0.000159629 -8.91119e-18)
(-0.0219031 -0.000519716 -4.15965e-18)
(-0.0257282 -0.000899343 3.89321e-18)
(-0.0297989 -0.00130266 -6.62038e-35)
(-0.03414 -0.00173295 6.01853e-36)
(-0.0387686 -0.00219426 3.22331e-18)
(-0.0437028 -0.00268413 3.03128e-18)
(-0.0489584 -0.00317087 3.00927e-36)
(-0.0545495 -0.00368853 0)
(-0.0605327 -0.00428404 0)
(-0.0669654 -0.00494007 -7.20343e-35)
(-0.07385 -0.00564929 2.86821e-35)
(-0.081336 -0.00641361 9.62965e-35)
(-0.0892828 -0.00723803 -3.75728e-18)
(-0.0982604 -0.00813381 -3.42294e-18)
(-0.107322 -0.00910149 6.01853e-36)
(-0.118924 -0.0101722 5.38641e-18)
(-0.128395 -0.0113317 8.93163e-18)
(-0.14601 -0.0125826 6.01853e-36)
(-0.153033 -0.0140555 -4.30086e-18)
(-0.188115 -0.0164391 -3.00927e-36)
)
;
    }
    frontAndBack
    {
        type            empty;
    }
}


// ************************************************************************* //
