/*--------------------------------*- C++ -*----------------------------------*\
  =========                 |
  \\      /  F ield         | OpenFOAM: The Open Source CFD Toolbox
   \\    /   O peration     | Website:  https://openfoam.org
    \\  /    A nd           | Version:  8
     \\/     M anipulation  |
\*---------------------------------------------------------------------------*/
FoamFile
{
    version     2.0;
    format      ascii;
    class       volScalarField;
    location    "2000";
    object      nut;
}
// * * * * * * * * * * * * * * * * * * * * * * * * * * * * * * * * * * * * * //

dimensions      [0 2 -1 0 0 0 0];

internalField   nonuniform List<scalar> 
12225
(
0.000165048
4.7499e-05
5.47751e-05
5.40495e-05
4.85754e-05
4.5261e-05
4.8366e-05
3.74205e-05
0.000104102
0.000149082
7.04486e-05
4.51057e-05
3.37577e-05
4.01981e-05
5.12008e-05
2.69416e-05
0.000128129
5.91532e-05
0.000698244
0.00011131
0.000103518
9.63113e-05
8.04363e-05
6.68835e-05
6.59511e-05
6.30425e-05
6.4967e-05
7.8432e-05
8.08358e-05
6.99254e-05
6.32278e-05
5.91028e-05
6.03747e-05
5.82738e-05
6.41098e-05
6.43057e-05
0.0015645
0.000389837
0.00025388
0.000202982
0.000168824
0.000143794
0.000131029
0.000120554
0.000114373
0.000110744
0.00010729
9.99368e-05
9.80082e-05
9.28619e-05
9.07631e-05
8.77868e-05
8.76293e-05
8.61129e-05
0.00109722
0.000739534
0.00056059
0.000427573
0.000364683
0.000321306
0.000293331
0.000268002
0.000251003
0.000234029
0.000222494
0.000207811
0.000199338
0.000189217
0.000183327
0.000175851
0.000172084
0.000165885
0.000910905
0.000855316
0.000776968
0.000657353
0.000589841
0.000544864
0.000513094
0.000478613
0.000454673
0.000427948
0.000410202
0.00038832
0.00037492
0.000358047
0.000348335
0.000335219
0.000328223
0.000316479
0.000863417
0.000861989
0.000840203
0.000789098
0.000750912
0.000718205
0.00069475
0.000666179
0.000645197
0.000619673
0.000602156
0.000580122
0.000566016
0.000547631
0.000536622
0.000521164
0.000512638
0.000498498
0.000853408
0.000856578
0.000850499
0.000837818
0.0008212
0.000805901
0.000794723
0.000779216
0.000767062
0.000750826
0.000738989
0.000723618
0.000713124
0.000699251
0.000690338
0.000677784
0.000670279
0.00065833
0.000852089
0.000851846
0.000849892
0.000847257
0.000841531
0.000834424
0.000828219
0.000821752
0.000815315
0.000806508
0.000799622
0.000790578
0.000783945
0.000775239
0.000769171
0.000760885
0.000755384
0.000747031
0.00085157
0.00085076
0.000849659
0.000848383
0.000846579
0.000843877
0.000841251
0.000838181
0.000834718
0.000830907
0.000827017
0.00082255
0.0008186
0.000813935
0.000810121
0.000805468
0.000801761
0.000796816
0.000851481
0.000850461
0.000849529
0.000848537
0.000847609
0.000846407
0.000845224
0.000843789
0.000842308
0.000840492
0.00083878
0.000836677
0.000834795
0.000832565
0.000830594
0.000828364
0.000826279
0.000823757
0.000851471
0.000850409
0.000849469
0.000848512
0.00084767
0.000846767
0.000845954
0.000845042
0.000844209
0.000843227
0.000842346
0.000841298
0.000840371
0.000839278
0.000838332
0.000837201
0.000836272
0.000835048
0.000851459
0.000850408
0.000849447
0.000848498
0.000847634
0.000846771
0.000845989
0.000845194
0.000844471
0.00084372
0.000843036
0.000842318
0.000841666
0.000840974
0.000840349
0.000839677
0.000839078
0.000838419
0.000851454
0.000850411
0.000849434
0.000848492
0.000847609
0.000846758
0.000845958
0.000845186
0.000844458
0.000843752
0.000843087
0.000842439
0.000841828
0.000841231
0.000840667
0.000840115
0.000839591
0.000839079
0.000851449
0.00085041
0.000849426
0.000848486
0.000847597
0.000846745
0.000845939
0.000845165
0.000844433
0.000843728
0.000843061
0.000842419
0.00084181
0.000841223
0.000840665
0.000840129
0.000839617
0.000839126
0.000851448
0.000850409
0.000849421
0.000848482
0.000847587
0.000846736
0.000845923
0.00084515
0.000844411
0.000843707
0.000843035
0.000842393
0.000841779
0.000841192
0.000840631
0.000840095
0.000839581
0.000839089
0.000851447
0.000850408
0.000849419
0.000848477
0.000847581
0.000846727
0.000845913
0.000845137
0.000844397
0.000843691
0.000843016
0.000842372
0.000841755
0.000841167
0.000840603
0.000840065
0.000839548
0.000839055
0.000851447
0.000850408
0.000849418
0.000848475
0.000847578
0.000846722
0.000845907
0.00084513
0.000844388
0.000843681
0.000843004
0.000842359
0.00084174
0.000841151
0.000840585
0.000840045
0.000839527
0.000839032
0.000851446
0.00085041
0.000849416
0.000848477
0.000847575
0.000846723
0.000845904
0.00084513
0.000844384
0.000843679
0.000842999
0.000842355
0.000841734
0.000841145
0.000840577
0.000840037
0.000839518
0.000839023
0.000851449
0.000850407
0.00084942
0.000848473
0.000847579
0.00084672
0.000845908
0.000845128
0.000844389
0.000843678
0.000843004
0.000842355
0.000841738
0.000841145
0.000840581
0.000840038
0.000839521
0.000839024
0.000851448
0.000850411
0.000849419
0.000848479
0.000847579
0.000846727
0.00084591
0.000845136
0.000844393
0.000843687
0.000843009
0.000842365
0.000841745
0.000841156
0.000840589
0.000840048
0.000839529
0.000839033
0.000851447
0.000850412
0.000849422
0.000848482
0.000847585
0.000846733
0.000845918
0.000845145
0.000844403
0.000843697
0.000843019
0.000842374
0.000841752
0.00084116
0.000840588
0.000840043
0.000839516
0.000839013
0.000851446
0.000850417
0.000849423
0.000848491
0.000847592
0.000846747
0.000845928
0.000845153
0.000844397
0.000843681
0.000842976
0.000842307
0.000841642
0.000841009
0.000840373
0.00083977
0.000839156
0.000838579
0.000851418
0.000850442
0.000849429
0.000848522
0.000847593
0.000846742
0.000845842
0.000844991
0.000844077
0.000843194
0.000842237
0.000841307
0.000840284
0.000839295
0.000838195
0.000837168
0.000836002
0.000834947
0.000851352
0.000850592
0.000849432
0.000848496
0.000847253
0.000846018
0.000844385
0.000842704
0.0008406
0.000838453
0.000835951
0.000833404
0.000830548
0.000827612
0.000824604
0.000821593
0.000818272
0.000815316
0.000851528
0.000851074
0.000848429
0.000846365
0.000841941
0.000837586
0.000831826
0.00082541
0.000817631
0.000810194
0.000801695
0.000793795
0.000784985
0.000777022
0.000768252
0.000760617
0.000752175
0.000745135
0.00085471
0.000847592
0.000835377
0.000822065
0.000806253
0.000787108
0.00076506
0.000744901
0.000723516
0.00070483
0.000685328
0.000668607
0.000651156
0.000636493
0.000621089
0.000608497
0.000595033
0.000584416
0.000867449
0.000813729
0.000751142
0.000705554
0.00065309
0.000608134
0.000566326
0.000533303
0.000502553
0.000478349
0.000454765
0.000436138
0.000417571
0.00040308
0.000388231
0.000376881
0.000364883
0.000355953
0.00103781
0.000598236
0.000478661
0.000405278
0.000350172
0.000311527
0.000280648
0.000258686
0.000240185
0.000226162
0.000213292
0.000203636
0.000194336
0.0001875
0.000180605
0.000175707
0.000170517
0.000166935
0.000640861
0.000190125
0.000147831
0.000130832
0.000119147
0.000111211
0.000105186
0.000101022
9.76042e-05
9.52139e-05
9.31141e-05
9.17309e-05
9.04493e-05
8.97239e-05
8.8987e-05
8.86862e-05
8.82955e-05
8.824e-05
3.16387e-05
5.08547e-05
5.95706e-05
6.35141e-05
6.4904e-05
6.52128e-05
6.50469e-05
6.47545e-05
6.42395e-05
6.36909e-05
6.314e-05
6.2604e-05
6.20974e-05
6.16235e-05
6.11866e-05
6.0785e-05
6.04169e-05
6.00805e-05
8.82946e-13
1.00332e-10
5.05051e-10
1.95156e-09
6.43691e-09
1.93454e-08
4.88171e-08
9.33551e-08
1.45068e-07
1.92415e-07
2.28361e-07
2.4066e-07
2.35019e-07
2.11195e-07
1.68761e-07
1.26774e-07
9.94963e-08
7.72617e-08
5.74021e-08
3.88807e-08
2.40232e-08
1.38735e-08
7.83163e-09
4.60809e-09
3.11937e-09
3.07732e-09
6.10401e-09
1.05029e-08
3.87518e-08
7.75393e-08
1.13343e-07
1.17765e-07
1.29203e-07
1.59164e-07
1.83161e-07
3.59795e-07
6.80147e-07
1.78597e-06
6.28857e-06
1.88613e-05
3.18916e-05
3.75993e-05
3.99685e-05
4.55722e-05
3.75461e-05
3.53183e-05
3.89138e-05
4.8566e-05
5.10621e-05
7.23869e-05
5.73697e-05
4.46029e-05
4.36287e-05
4.74212e-05
4.69936e-05
4.95329e-05
5.02314e-05
5.08006e-05
5.15766e-05
5.22727e-05
5.28871e-05
5.35478e-05
5.41354e-05
5.47347e-05
5.52986e-05
5.58607e-05
5.63991e-05
5.69339e-05
5.74512e-05
5.79631e-05
5.84628e-05
5.89551e-05
5.94391e-05
5.99142e-05
6.03836e-05
6.08434e-05
6.12984e-05
6.17437e-05
6.21845e-05
6.26155e-05
6.30417e-05
6.34581e-05
6.38689e-05
6.42697e-05
6.46641e-05
6.50481e-05
6.54244e-05
6.57903e-05
6.61472e-05
6.6493e-05
6.68283e-05
6.71525e-05
6.74665e-05
6.777e-05
6.80651e-05
6.8354e-05
6.86418e-05
6.89143e-05
6.91804e-05
6.94358e-05
6.96822e-05
6.9919e-05
7.01454e-05
7.03623e-05
7.05679e-05
7.07636e-05
7.09474e-05
7.11209e-05
7.12818e-05
7.1432e-05
7.15689e-05
7.16948e-05
7.1807e-05
7.19076e-05
7.19941e-05
7.20686e-05
7.21289e-05
7.21766e-05
7.221e-05
7.22304e-05
7.22367e-05
7.22297e-05
7.2209e-05
7.21749e-05
7.21281e-05
7.20685e-05
7.19976e-05
7.19134e-05
7.18136e-05
7.17497e-05
7.15432e-05
7.14937e-05
7.12279e-05
7.11809e-05
7.08648e-05
7.08145e-05
7.04611e-05
7.03592e-05
7.00569e-05
6.98441e-05
6.95919e-05
6.93335e-05
6.90717e-05
6.88023e-05
6.85233e-05
6.82369e-05
6.79432e-05
6.76422e-05
6.73352e-05
6.70223e-05
6.67047e-05
6.63826e-05
6.60566e-05
6.57274e-05
6.53957e-05
6.50625e-05
6.47274e-05
6.43913e-05
6.40538e-05
6.37164e-05
6.33782e-05
6.30409e-05
6.27033e-05
6.23675e-05
6.20326e-05
6.17002e-05
6.13683e-05
6.10381e-05
6.07074e-05
6.03823e-05
6.00577e-05
5.97303e-05
5.93995e-05
5.9063e-05
5.87136e-05
5.8344e-05
5.79278e-05
5.74274e-05
5.68143e-05
5.42084e-05
4.95835e-12
7.94168e-10
1.08211e-08
5.67786e-08
2.44029e-07
7.05772e-07
1.5481e-06
2.73322e-06
4.13337e-06
5.628e-06
7.09996e-06
8.24651e-06
9.11688e-06
9.32179e-06
9.16036e-06
8.391e-06
6.85623e-06
4.9317e-06
3.29183e-06
2.01614e-06
1.20451e-06
7.36899e-07
4.69344e-07
3.16826e-07
2.61809e-07
2.22185e-07
4.43349e-07
7.14435e-07
2.6124e-06
5.11001e-06
7.32941e-06
7.57324e-06
9.14209e-06
9.62963e-06
1.10395e-05
1.53217e-05
2.4392e-05
3.44489e-05
4.42183e-05
5.37565e-05
6.13464e-05
6.69977e-05
7.21779e-05
8.0639e-05
8.84198e-05
9.81461e-05
0.000108025
0.000119807
0.000129363
0.000143137
0.000153719
0.000163449
0.00017736
0.000188881
0.000201423
0.00021327
0.000222814
0.000232496
0.000241338
0.000249823
0.000257878
0.000265638
0.000273074
0.000280257
0.000287238
0.000294012
0.000300656
0.000307148
0.000313551
0.000319851
0.00032609
0.000332262
0.000338395
0.000344487
0.000350558
0.000356605
0.000362646
0.000368675
0.000374708
0.000380738
0.00038678
0.000392825
0.000398887
0.000404955
0.000411039
0.000417128
0.000423227
0.000429324
0.000435419
0.000441496
0.000447543
0.000453533
0.000459434
0.000465189
0.000470725
0.000475943
0.000480737
0.000485694
0.000490517
0.000495368
0.000500161
0.000504936
0.000509669
0.000514365
0.000519017
0.000523622
0.000528177
0.000532674
0.000537111
0.000541482
0.000545782
0.000550005
0.000554147
0.000558202
0.000562163
0.000566026
0.000569785
0.000573433
0.000576965
0.000580376
0.000583658
0.000586809
0.000589818
0.000592685
0.000595399
0.000597959
0.000600355
0.000602592
0.000604676
0.000606658
0.000608387
0.000610052
0.000611414
0.000612769
0.000613786
0.000614863
0.000615569
0.000616354
0.000616809
0.000617193
0.000617323
0.000617241
0.000617097
0.000616808
0.000616367
0.000615781
0.000615051
0.00061418
0.000613172
0.000612031
0.000610763
0.000609367
0.000607849
0.000606211
0.000604458
0.000602594
0.000600619
0.000598534
0.000596341
0.000594047
0.00059165
0.000589154
0.000586557
0.000583866
0.00058109
0.000578224
0.000575256
0.000572193
0.000569028
0.000565772
0.000562396
0.000558882
0.000555215
0.000551362
0.000547247
0.000542786
0.000537666
0.000531675
0.000524197
0.000497437
1.40991e-11
2.36599e-09
4.32018e-08
2.29423e-07
7.67119e-07
1.82548e-06
3.70929e-06
6.3372e-06
9.48076e-06
1.29842e-05
1.65163e-05
1.97294e-05
2.23737e-05
2.38568e-05
2.44976e-05
2.44427e-05
2.27086e-05
2.01641e-05
1.6823e-05
1.3107e-05
9.37041e-06
6.48143e-06
4.24008e-06
3.01342e-06
2.22416e-06
2.40336e-06
3.94008e-06
7.2075e-06
1.86609e-05
2.85399e-05
2.90166e-05
2.81199e-05
3.39958e-05
4.12359e-05
4.77358e-05
5.62136e-05
6.47893e-05
7.58699e-05
8.88129e-05
0.000104387
0.000122089
0.000142171
0.000166502
0.000195843
0.00022506
0.000257893
0.000293493
0.000329233
0.000364924
0.000398622
0.000427462
0.000456244
0.000482643
0.000506051
0.000529848
0.000551022
0.000570615
0.000589125
0.00060664
0.000623309
0.000639299
0.000654656
0.000669514
0.000683913
0.000697956
0.000711666
0.000725123
0.000738342
0.000751381
0.000764253
0.000776996
0.000789625
0.000802164
0.000814626
0.000827028
0.000839379
0.000851691
0.00086397
0.000876224
0.000888456
0.000900674
0.000912875
0.000925064
0.000937237
0.000949393
0.000961525
0.000973629
0.000985692
0.000997704
0.00100965
0.0010215
0.00103324
0.00104483
0.00105624
0.00106744
0.00107845
0.00108934
0.00110026
0.00111107
0.00112184
0.00113252
0.00114313
0.00115365
0.00116408
0.00117441
0.00118463
0.00119472
0.00120469
0.00121451
0.00122417
0.00123368
0.001243
0.00125214
0.00126107
0.00126979
0.00127828
0.00128653
0.00129452
0.00130224
0.00130969
0.00131683
0.00132368
0.0013302
0.00133639
0.00134224
0.00134774
0.00135288
0.00135767
0.00136211
0.0013662
0.00136988
0.00137322
0.00137612
0.00137872
0.00138087
0.00138278
0.00138424
0.00138541
0.0013861
0.00138665
0.00138685
0.0013866
0.00138608
0.0013852
0.00138402
0.00138253
0.00138074
0.00137865
0.00137628
0.00137363
0.00137071
0.00136753
0.00136409
0.0013604
0.00135647
0.00135229
0.00134788
0.00134324
0.00133837
0.00133329
0.001328
0.0013225
0.00131679
0.00131089
0.0013048
0.00129853
0.00129207
0.00128542
0.00127856
0.00127147
0.00126415
0.00125656
0.00124868
0.00124042
0.00123163
0.00122211
0.00121137
0.00119862
0.00118279
0.00113565
5.88868e-11
9.64615e-09
1.36991e-07
5.75259e-07
1.78864e-06
4.72765e-06
9.16468e-06
1.50412e-05
2.19963e-05
2.95124e-05
3.65572e-05
4.24702e-05
4.61591e-05
4.85245e-05
4.88081e-05
4.73039e-05
4.44613e-05
4.01602e-05
3.52717e-05
2.97493e-05
2.38366e-05
1.81745e-05
1.41219e-05
9.77309e-06
9.03228e-06
1.26282e-05
2.71681e-05
4.56651e-05
5.44886e-05
5.58217e-05
5.7071e-05
6.24844e-05
6.88796e-05
7.56978e-05
8.51624e-05
0.000101794
0.000125212
0.00014829
0.000180558
0.000215717
0.000257076
0.000302442
0.00035224
0.000402978
0.000454346
0.000505597
0.000555468
0.000603227
0.00064859
0.000690997
0.000730621
0.000767675
0.000802526
0.000835372
0.000866499
0.000895514
0.000922981
0.000949132
0.000974132
0.000998129
0.00102127
0.00104365
0.00106539
0.00108656
0.00110726
0.00112754
0.00114747
0.00116709
0.00118645
0.00120559
0.00122453
0.0012433
0.00126193
0.00128044
0.00129884
0.00131715
0.00133538
0.00135353
0.00137163
0.00138966
0.00140764
0.00142557
0.00144344
0.00146126
0.00147902
0.00149672
0.00151434
0.00153188
0.00154932
0.00156665
0.00158386
0.00160093
0.00161785
0.00163462
0.00165122
0.0016677
0.00168409
0.00170041
0.00171663
0.00173274
0.00174874
0.00176461
0.00178034
0.00179592
0.00181134
0.00182659
0.00184165
0.00185652
0.00187116
0.00188558
0.00189975
0.00191365
0.00192727
0.0019406
0.0019536
0.00196627
0.00197858
0.00199051
0.00200205
0.00201318
0.00202388
0.00203413
0.00204391
0.00205322
0.00206203
0.00207033
0.00207812
0.00208538
0.00209213
0.00209835
0.002104
0.00210912
0.00211365
0.00211768
0.00212116
0.00212415
0.00212657
0.00212842
0.00212985
0.00213107
0.0021316
0.00213161
0.00213117
0.00213025
0.00212888
0.00212707
0.00212483
0.00212216
0.00211908
0.00211559
0.00211172
0.00210746
0.00210283
0.00209784
0.00209248
0.00208677
0.00208072
0.00207433
0.00206761
0.00206057
0.00205321
0.00204556
0.0020376
0.00202935
0.00202082
0.002012
0.0020029
0.00199354
0.00198388
0.00197391
0.0019636
0.00195292
0.00194182
0.0019302
0.0019179
0.00190465
0.00188991
0.00187246
0.00185129
0.00179567
2.20973e-10
2.93746e-08
3.32109e-07
1.61063e-06
5.4639e-06
1.29666e-05
2.43235e-05
3.85492e-05
5.31221e-05
6.53939e-05
7.37101e-05
7.8935e-05
8.11083e-05
8.03466e-05
7.75391e-05
7.30473e-05
6.71123e-05
6.04671e-05
5.33461e-05
4.61651e-05
3.88928e-05
3.03045e-05
2.42369e-05
2.24719e-05
3.20132e-05
5.18454e-05
6.99893e-05
7.64281e-05
7.76752e-05
8.01272e-05
8.44308e-05
9.21772e-05
0.00010323
0.000123281
0.000153999
0.000187379
0.000228571
0.0002736
0.000327558
0.000383675
0.000444684
0.000507004
0.000570533
0.00063338
0.000695071
0.000754856
0.000812259
0.000867064
0.00091903
0.000968151
0.00101474
0.001059
0.0011008
0.00114053
0.00117823
0.00121406
0.00124829
0.0012811
0.00131264
0.00134306
0.0013725
0.00140108
0.00142889
0.00145604
0.0014826
0.00150865
0.00153426
0.00155947
0.00158435
0.00160892
0.00163323
0.00165731
0.00168119
0.00170488
0.00172841
0.00175179
0.00177503
0.00179816
0.00182116
0.00184406
0.00186686
0.00188955
0.00191214
0.00193463
0.001957
0.00197927
0.00200142
0.00202345
0.00204534
0.00206709
0.00208869
0.00211013
0.00213143
0.00215258
0.00217358
0.00219444
0.00221518
0.00223579
0.00225626
0.00227658
0.00229673
0.00231671
0.0023365
0.0023561
0.00237547
0.00239462
0.00241352
0.00243217
0.00245054
0.00246863
0.00248639
0.00250384
0.00252093
0.00253765
0.00255398
0.0025699
0.00258539
0.00260042
0.00261497
0.00262903
0.00264256
0.00265556
0.002668
0.00267987
0.00269114
0.00270181
0.00271187
0.00272132
0.00273013
0.00273831
0.00274581
0.00275268
0.00275883
0.00276437
0.00276929
0.00277358
0.00277719
0.00278012
0.0027827
0.00278477
0.00278611
0.00278684
0.00278701
0.0027866
0.00278564
0.00278415
0.00278212
0.00277958
0.00277653
0.002773
0.00276898
0.00276449
0.00275954
0.00275414
0.00274829
0.00274201
0.00273529
0.00272816
0.0027206
0.00271264
0.00270426
0.00269546
0.00268628
0.00267671
0.00266678
0.00265648
0.00264581
0.0026348
0.00262345
0.00261171
0.00259955
0.00258696
0.00257387
0.00256021
0.00254579
0.00253038
0.00251345
0.00249398
0.00247018
0.00241473
7.98197e-10
7.77088e-08
9.57922e-07
4.9308e-06
1.63698e-05
3.53138e-05
5.63717e-05
7.37741e-05
8.64585e-05
9.5117e-05
0.000100479
0.000102636
0.000102348
9.98583e-05
9.54011e-05
8.92187e-05
8.16656e-05
7.2796e-05
6.21967e-05
5.04031e-05
3.93263e-05
3.29135e-05
3.59288e-05
5.21913e-05
7.44783e-05
8.86092e-05
9.36366e-05
9.61551e-05
9.87912e-05
0.000104841
0.000116761
0.000140118
0.000171775
0.000212683
0.000259498
0.00031206
0.000371559
0.000434964
0.000503306
0.000572723
0.000643968
0.000714978
0.000785379
0.000854247
0.000921224
0.000985969
0.00104803
0.00110747
0.00116476
0.00121937
0.00127144
0.00132114
0.00136857
0.0014139
0.00145725
0.00149877
0.00153864
0.00157702
0.00161405
0.00164986
0.00168459
0.00171834
0.00175123
0.00178335
0.00181479
0.00184563
0.00187592
0.00190575
0.00193514
0.00196416
0.00199284
0.00202122
0.00204932
0.00207718
0.00210481
0.00213223
0.00215946
0.0021865
0.00221338
0.00224009
0.00226664
0.00229304
0.00231928
0.00234537
0.0023713
0.00239707
0.00242269
0.00244813
0.0024734
0.0024985
0.00252341
0.00254815
0.0025727
0.00259709
0.0026213
0.00264534
0.00266919
0.00269287
0.00271636
0.00273964
0.00276272
0.00278557
0.00280819
0.00283056
0.00285267
0.0028745
0.00289604
0.00291729
0.00293821
0.0029588
0.00297905
0.00299892
0.00301841
0.00303749
0.00305615
0.00307435
0.00309209
0.00310933
0.00312606
0.00314225
0.00315789
0.00317295
0.00318741
0.00320126
0.00321448
0.00322705
0.00323897
0.00325023
0.00326081
0.00327071
0.00327988
0.00328829
0.00329603
0.00330308
0.00330945
0.00331514
0.00332005
0.00332432
0.00332822
0.00333138
0.00333384
0.00333565
0.00333683
0.00333737
0.00333731
0.00333665
0.00333541
0.0033336
0.00333123
0.00332831
0.00332486
0.00332088
0.00331638
0.00331137
0.00330586
0.00329985
0.00329336
0.00328638
0.00327892
0.00327099
0.00326258
0.0032537
0.00324436
0.00323457
0.00322434
0.00321367
0.00320254
0.00319097
0.00317896
0.00316651
0.00315361
0.00314021
0.0031263
0.00311178
0.00309653
0.00308033
0.00306278
0.00304314
0.00301932
0.00296812
2.87e-09
2.2948e-07
2.87389e-06
1.56672e-05
4.07227e-05
6.73374e-05
8.83542e-05
0.000102789
0.000112619
0.000117773
0.000119303
0.000118243
0.000115218
0.000110414
0.000103697
9.53984e-05
8.63116e-05
7.77505e-05
7.02793e-05
6.47468e-05
6.36072e-05
6.66478e-05
7.6791e-05
9.23751e-05
0.000102522
0.000108235
0.000111576
0.000115592
0.000125713
0.000148873
0.000181367
0.000223636
0.000272746
0.000330122
0.000392388
0.000459862
0.000531478
0.000605462
0.000681347
0.000757437
0.000833558
0.000908773
0.000982692
0.00105488
0.00112483
0.00119249
0.00125836
0.00132175
0.00138278
0.0014414
0.00149769
0.00155172
0.00160358
0.0016534
0.00170128
0.00174734
0.00179173
0.00183456
0.00187598
0.0019161
0.00195505
0.00199293
0.00202985
0.00206591
0.00210119
0.00213578
0.00216974
0.00220314
0.00223603
0.00226846
0.00230048
0.00233213
0.00236344
0.00239443
0.00242513
0.00245556
0.00248574
0.00251568
0.00254539
0.00257489
0.00260416
0.00263323
0.00266209
0.00269075
0.00271921
0.00274746
0.00277551
0.00280335
0.00283097
0.00285838
0.00288558
0.00291255
0.0029393
0.00296581
0.0029921
0.00301816
0.003044
0.00306961
0.00309498
0.0031201
0.00314496
0.00316956
0.00319389
0.00321794
0.0032417
0.00326518
0.00328836
0.00331121
0.00333374
0.00335591
0.00337772
0.00339915
0.00342019
0.00344081
0.00346101
0.00348075
0.00350002
0.0035188
0.00353706
0.00355479
0.00357196
0.00358855
0.00360454
0.00361992
0.00363466
0.00364875
0.00366217
0.00367493
0.00368702
0.0036984
0.00370896
0.00371884
0.003728
0.00373646
0.0037442
0.00375124
0.00375748
0.00376314
0.00376828
0.00377266
0.00377633
0.00377933
0.00378169
0.00378346
0.00378464
0.00378522
0.00378519
0.00378456
0.00378334
0.00378155
0.0037792
0.00377629
0.00377284
0.00376884
0.00376432
0.00375926
0.00375368
0.00374757
0.00374095
0.00373382
0.00372616
0.003718
0.00370932
0.00370015
0.00369048
0.00368031
0.00366963
0.00365846
0.00364681
0.00363469
0.00362207
0.00360895
0.00359528
0.00358103
0.00356609
0.00355033
0.0035334
0.00351478
0.00349292
0.00344734
9.08755e-09
6.5718e-07
8.79052e-06
3.52584e-05
6.65052e-05
9.16185e-05
0.000109308
0.000120576
0.000126285
0.000128351
0.00012777
0.000124898
0.000119783
0.00011259
0.000103592
9.33605e-05
8.39868e-05
7.52291e-05
7.09159e-05
7.27932e-05
8.05338e-05
9.33869e-05
0.000105662
0.000114206
0.000120313
0.000125034
0.000131884
0.000151306
0.000182126
0.000223388
0.000272284
0.00032993
0.000393356
0.000462545
0.000535234
0.00061116
0.000689129
0.000768119
0.000847539
0.000926613
0.001005
0.00108222
0.00115789
0.00123157
0.00130374
0.00137403
0.0014422
0.00150818
0.00157197
0.00163356
0.00169296
0.00175024
0.00180544
0.00185864
0.00190993
0.00195942
0.0020072
0.0020534
0.00209811
0.00214147
0.00218357
0.00222452
0.00226442
0.00230338
0.00234148
0.0023788
0.00241541
0.00245138
0.00248677
0.00252162
0.002556
0.00258993
0.00262346
0.00265661
0.00268942
0.0027219
0.00275407
0.00278595
0.00281754
0.00284887
0.00287993
0.00291074
0.0029413
0.0029716
0.00300167
0.00303149
0.00306106
0.00309039
0.00311947
0.0031483
0.00317688
0.00320519
0.00323324
0.00326101
0.00328853
0.0033158
0.0033428
0.00336954
0.00339601
0.00342221
0.00344812
0.00347375
0.00349909
0.00352412
0.00354885
0.00357326
0.00359735
0.00362111
0.00364452
0.00366759
0.00369031
0.00371265
0.00373461
0.00375617
0.00377732
0.00379804
0.00381832
0.00383813
0.00385746
0.00387629
0.00389459
0.00391234
0.00392953
0.00394613
0.00396212
0.0039775
0.00399224
0.00400634
0.00401983
0.00403251
0.00404451
0.00405581
0.00406642
0.00407632
0.00408552
0.00409402
0.00410174
0.00410894
0.00411551
0.00412135
0.00412649
0.00413096
0.00413477
0.00413793
0.00414045
0.00414235
0.00414363
0.0041443
0.00414437
0.00414387
0.00414278
0.00414113
0.00413892
0.00413616
0.00413285
0.00412899
0.0041246
0.00411967
0.00411419
0.00410818
0.00410164
0.00409455
0.00408692
0.00407876
0.00407008
0.00406087
0.0040513
0.00404124
0.00403067
0.0040196
0.00400801
0.0039959
0.00398325
0.00397005
0.00395623
0.00394172
0.00392627
0.00390959
0.00389046
0.00385197
2.37906e-08
1.80361e-06
2.046e-05
5.7488e-05
9.17102e-05
0.00011468
0.000127411
0.000133877
0.000135838
0.000134747
0.000131565
0.000126882
0.000121382
0.00011584
0.000109618
0.000103092
9.70407e-05
9.18122e-05
9.12415e-05
9.89533e-05
0.000108477
0.000117024
0.000124837
0.000131262
0.000137366
0.000150591
0.000177419
0.000215021
0.000261392
0.00031702
0.000379116
0.000447461
0.000519876
0.000595801
0.00067393
0.000753737
0.000834425
0.000915377
0.000996131
0.00107626
0.00115547
0.00123317
0.00130943
0.00138462
0.00145798
0.00152953
0.00159916
0.00166679
0.0017324
0.00179596
0.00185747
0.00191694
0.00197441
0.00202992
0.00208355
0.00213537
0.00218547
0.00223394
0.00228089
0.00232641
0.00237062
0.0024136
0.00245547
0.00249631
0.00253622
0.00257529
0.00261358
0.00265116
0.0026881
0.00272443
0.00276023
0.00279553
0.00283038
0.0028648
0.00289883
0.00293248
0.00296579
0.00299876
0.00303141
0.00306375
0.00309582
0.0031276
0.0031591
0.0031903
0.00322121
0.00325184
0.00328218
0.00331224
0.00334201
0.0033715
0.0034007
0.00342961
0.00345824
0.00348659
0.00351465
0.00354242
0.00356991
0.0035971
0.00362399
0.00365059
0.00367688
0.00370286
0.00372853
0.00375388
0.00377892
0.00380364
0.00382803
0.0038521
0.00387583
0.00389924
0.0039223
0.00394502
0.00396739
0.0039894
0.00401103
0.00403229
0.00405314
0.00407359
0.0040936
0.00411317
0.00413227
0.00415088
0.00416898
0.00418656
0.00420359
0.00422005
0.00423593
0.00425126
0.00426593
0.00427991
0.00429325
0.00430593
0.00431794
0.00432928
0.00433995
0.00434993
0.00435924
0.00436801
0.00437611
0.00438353
0.00439027
0.00439634
0.00440177
0.00440657
0.00441073
0.00441427
0.00441721
0.00441955
0.0044213
0.00442248
0.00442308
0.00442313
0.00442262
0.00442156
0.00441996
0.00441781
0.00441513
0.0044119
0.00440813
0.00440382
0.00439896
0.00439356
0.00438759
0.00438108
0.00437401
0.00436638
0.00435821
0.0043495
0.00434026
0.0043305
0.0043202
0.00430937
0.00429803
0.00428615
0.00427374
0.00426076
0.00424705
0.00423247
0.00421628
0.00418495
5.08859e-08
4.38856e-06
3.53091e-05
7.74601e-05
0.000110359
0.00013004
0.000139031
0.000140896
0.000138924
0.000134882
0.000129467
0.000122653
0.000116077
0.000109329
0.000103433
9.981e-05
0.0001001
0.000104697
0.000112134
0.000119141
0.000126604
0.000133789
0.000141041
0.000150236
0.000171358
0.00020284
0.00024468
0.000296036
0.000354875
0.000420453
0.000490697
0.000564909
0.000641778
0.000720686
0.000800879
0.000881874
0.000963167
0.00104435
0.00112509
0.00120508
0.00128375
0.00136157
0.00143826
0.00151353
0.00158723
0.00165924
0.00172949
0.0017979
0.0018644
0.00192898
0.00199159
0.00205224
0.00211093
0.00216771
0.00222261
0.00227569
0.00232704
0.00237673
0.00242486
0.00247153
0.00251683
0.00256083
0.00260365
0.0026454
0.00268616
0.00272602
0.00276507
0.00280339
0.00284109
0.0028782
0.00291472
0.00295069
0.00298614
0.00302113
0.00305566
0.00308979
0.00312352
0.00315687
0.00318987
0.00322251
0.00325479
0.00328674
0.00331838
0.00334971
0.00338075
0.00341149
0.00344194
0.00347209
0.00350196
0.00353153
0.00356081
0.0035898
0.0036185
0.00364689
0.00367499
0.00370277
0.00373025
0.00375741
0.00378426
0.00381079
0.003837
0.00386289
0.00388845
0.0039137
0.00393863
0.00396324
0.00398753
0.00401151
0.00403518
0.00405854
0.0040816
0.00410434
0.00412678
0.0041489
0.00417071
0.0041922
0.00421335
0.00423417
0.00425462
0.0042747
0.0042944
0.00431368
0.00433253
0.00435094
0.00436887
0.0043863
0.00440325
0.00441967
0.0044355
0.00445075
0.00446542
0.00447947
0.0044929
0.0045057
0.00451786
0.00452939
0.00454032
0.00455072
0.00456048
0.00456956
0.004578
0.0045858
0.00459298
0.00459954
0.00460549
0.00461084
0.0046156
0.00461979
0.0046234
0.00462645
0.00462894
0.0046309
0.00463231
0.00463319
0.00463355
0.00463337
0.00463267
0.00463144
0.00462967
0.00462737
0.00462453
0.00462114
0.0046172
0.00461269
0.00460762
0.00460198
0.00459577
0.004589
0.00458168
0.00457381
0.00456539
0.00455644
0.00454697
0.004537
0.00452654
0.00451561
0.00450411
0.00449202
0.00447867
0.00445358
9.10493e-08
9.18337e-06
5.1941e-05
9.78246e-05
0.000127569
0.000142067
0.00014552
0.000143224
0.000138489
0.000132493
0.000126913
0.000122117
0.00011664
0.000113088
0.000111825
0.000113476
0.000117363
0.000122602
0.00012888
0.000135576
0.000142498
0.00015091
0.000165246
0.000191281
0.00022694
0.000271921
0.00032585
0.000386875
0.000453363
0.000524288
0.000598361
0.000674902
0.000753144
0.000832591
0.000912772
0.000993316
0.00107388
0.00115419
0.00123385
0.00131252
0.00139073
0.00146788
0.00154387
0.00161854
0.00169176
0.00176344
0.00183346
0.00190174
0.00196822
0.00203282
0.00209553
0.00215633
0.00221523
0.00227223
0.00232736
0.00238063
0.00243216
0.00248202
0.0025303
0.00257711
0.00262259
0.00266696
0.00271012
0.00275212
0.00279307
0.00283304
0.00287213
0.0029104
0.0029479
0.00298468
0.00302082
0.0030564
0.00309148
0.00312609
0.00316027
0.00319404
0.00322743
0.00326046
0.00329314
0.00332548
0.0033575
0.00338921
0.00342061
0.0034517
0.00348249
0.00351299
0.0035432
0.00357311
0.00360273
0.00363205
0.00366108
0.00368981
0.00371824
0.00374636
0.00377417
0.00380166
0.00382884
0.00385569
0.00388222
0.00390842
0.00393429
0.00395984
0.00398506
0.00400996
0.00403455
0.00405883
0.0040828
0.00410648
0.00412987
0.00415298
0.00417583
0.0041984
0.00422072
0.00424278
0.0042646
0.00428615
0.00430746
0.0043285
0.00434927
0.00436975
0.00438993
0.00440979
0.00442932
0.00444849
0.00446727
0.00448565
0.00450361
0.00452111
0.00453814
0.00455467
0.00457067
0.00458612
0.00460101
0.00461532
0.00462904
0.00464217
0.00465477
0.00466693
0.00467841
0.00468925
0.00469949
0.00470912
0.00471815
0.00472659
0.00473444
0.00474172
0.00474843
0.00475458
0.00476018
0.00476525
0.00476978
0.00477379
0.00477728
0.00478027
0.00478275
0.00478472
0.00478619
0.00478715
0.00478759
0.00478752
0.00478692
0.00478578
0.0047841
0.00478186
0.00477905
0.00477567
0.00477172
0.00476719
0.00476208
0.00475641
0.00475018
0.00474341
0.00473612
0.00472834
0.00472012
0.00471148
0.00470239
0.00469291
0.00468254
0.00466342
1.43028e-07
1.42056e-05
6.40805e-05
0.000112126
0.000140015
0.000150182
0.000149594
0.00014438
0.000137855
0.000133166
0.000128585
0.000124642
0.000122515
0.000122263
0.000123839
0.00012705
0.000131525
0.000137082
0.000143456
0.000150818
0.000161711
0.000182576
0.000211137
0.000249705
0.000296895
0.000351823
0.000413188
0.000479405
0.000549336
0.000622151
0.000697077
0.000773596
0.000851234
0.000929623
0.00100844
0.00108741
0.00116629
0.00124466
0.00132239
0.00139978
0.00147635
0.00155195
0.00162644
0.00169971
0.00177162
0.00184207