/*--------------------------------*- C++ -*----------------------------------*\
  =========                 |
  \\      /  F ield         | OpenFOAM: The Open Source CFD Toolbox
   \\    /   O peration     | Website:  https://openfoam.org
    \\  /    A nd           | Version:  8
     \\/     M anipulation  |
\*---------------------------------------------------------------------------*/
FoamFile
{
    version     2.0;
    format      ascii;
    class       volScalarField;
    location    "2000";
    object      omega;
}
// * * * * * * * * * * * * * * * * * * * * * * * * * * * * * * * * * * * * * //

dimensions      [0 0 -1 0 0 0 0];

internalField   nonuniform List<scalar> 
12225
(
32582.3
66339.3
50554.1
43484.7
41806.5
42183.6
40370.6
40011.1
32582.3
32582.3
51399.1
54580.6
62192.4
52886.1
46558.3
42999.5
32582.3
52368.5
1242.38
7944.49
9283.81
9737.72
10853.9
12406
12996.3
13420.3
13559.3
13231.8
13576.6
15495.9
16809.5
16911.8
16697.9
16354
15645.3
15960.6
285.865
1170.38
1846.52
2337.74
2793.84
3250.8
3577.03
3907.48
4147.91
4356.52
4532.28
4797.55
4983.76
5171.74
5312.65
5463.56
5521.46
5688.14
352.401
521.634
689.411
912.887
1073.77
1217.43
1330.16
1453.99
1548.42
1651.64
1729.33
1832.8
1898.79
1987.73
2040.06
2116.65
2152.45
2232.07
412.971
437.221
480.352
567.064
630.817
681.446
722.366
771.495
808.871
854.837
887.498
932.215
960.176
1000.44
1022.96
1058.53
1075.85
1111.42
433.532
431.382
440.343
466.854
488.801
509.171
524.542
544.821
560.294
580.789
595.228
615.222
627.922
646.398
657.017
674.021
682.646
699.547
438.172
433.796
434.463
438.723
445.476
451.82
456.208
463.261
468.665
476.797
482.54
490.89
496.273
504.305
509.041
516.763
520.846
528.657
438.761
436.197
434.715
433.69
434.423
435.963
437.208
438.675
440.269
443.229
445.295
448.681
450.842
454.32
456.374
459.879
461.791
465.575
439.009
436.741
434.806
433.068
431.743
430.963
430.272
429.891
429.819
429.997
430.313
431.009
431.522
432.494
433.089
434.218
434.894
436.321
439.041
436.898
434.861
432.972
431.179
429.627
428.182
426.958
425.854
424.998
424.174
423.624
423.037
422.701
422.296
422.093
421.869
421.932
439.044
436.919
434.876
432.966
431.12
429.414
427.773
426.279
424.841
423.561
422.316
421.231
420.16
419.244
418.319
417.551
416.739
416.134
439.044
436.915
434.878
432.96
431.119
429.388
427.725
426.167
424.667
423.268
421.918
420.666
419.453
418.334
417.246
416.246
415.267
414.377
439.047
436.911
434.877
432.951
431.115
429.376
427.715
426.142
424.638
423.213
421.849
420.557
419.32
418.149
417.026
415.962
414.942
413.976
439.047
436.908
434.875
432.945
431.11
429.366
427.706
426.127
424.623
423.191
421.826
420.525
419.285
418.103
416.974
415.898
414.869
413.888
439.047
436.907
434.873
432.941
431.105
429.359
427.697
426.116
424.61
423.176
421.809
420.507
419.264
418.079
416.948
415.868
414.837
413.853
439.047
436.906
434.872
432.939
431.101
429.354
427.691
426.108
424.6
423.165
421.796
420.492
419.248
418.061
416.928
415.847
414.815
413.829
439.046
436.905
434.871
432.937
431.099
429.35
427.686
426.103
424.594
423.157
421.788
420.482
419.237
418.049
416.915
415.833
414.799
413.812
439.046
436.906
434.87
432.937
431.098
429.35
427.685
426.101
424.592
423.155
421.784
420.479
419.232
418.044
416.909
415.826
414.791
413.804
439.047
436.906
434.872
432.937
431.099
429.35
427.687
426.102
424.594
423.156
421.786
420.479
419.234
418.044
416.91
415.827
414.793
413.804
439.047
436.906
434.872
432.939
431.101
429.353
427.689
426.106
424.598
423.161
421.791
420.486
419.24
418.052
416.917
415.835
414.801
413.814
439.047
436.907
434.874
432.941
431.105
429.357
427.695
426.112
424.606
423.17
421.802
420.498
419.255
418.069
416.939
415.859
414.831
413.848
439.052
436.906
434.877
432.942
431.11
429.361
427.706
426.124
424.629
423.199
421.85
420.558
419.341
418.176
417.082
416.033
415.05
414.106
439.061
436.897
434.88
432.938
431.123
429.383
427.774
426.241
424.834
423.499
422.283
421.132
420.102
419.124
418.267
417.436
416.734
416.031
439.106
436.822
434.887
432.969
431.339
429.828
428.635
427.568
426.811
426.16
425.77
425.474
425.409
425.447
425.592
425.795
426.225
426.514
439.016
436.569
435.448
434.226
434.395
434.718
435.902
437.554
440.033
442.419
445.482
448.307
451.758
454.83
458.504
461.612
465.349
468.316
437.396
438.369
442.868
448.529
456.103
466.073
478.298
489.95
502.983
514.687
527.506
538.716
551.079
561.624
573.41
583.095
594.181
602.816
430.939
458.487
498.785
533.939
578.958
622.434
668.158
708.925
750.837
786.539
823.857
854.878
888.4
915.547
945.877
969.519
996.959
1017.24
364.067
649.155
851.807
1031.23
1206.04
1363.14
1513.2
1640.75
1763.91
1864.89
1966.51
2047.43
2133.47
2199.56
2273.88
2328.28
2393.23
2438.06
583.546
2418.39
3485.11
4257.56
4935.27
5488.5
5949.6
6313.7
6623.53
6865.04
7081.51
7245.71
7404.8
7518.4
7641.4
7719.83
7820.36
7874.28
19487.3
22906.9
25073.4
25590.1
26010.3
26034.8
25986.6
25853.7
25656.6
25437.7
25215.9
25000.1
24796.8
24607.4
24433.3
24273.5
24127.2
23993.4
11463.3
2494.65
2496.87
2499.12
2501.38
2503.67
2505.98
2508.3
2510.65
2513.02
2515.42
2517.83
2520.27
2522.73
2525.21
2527.72
2530.25
2532.8
2535.37
2537.97
2540.6
2543.25
2545.92
2548.62
2551.34
2554.09
2556.87
2559.67
2562.5
2565.35
2568.23
2571.14
2574.08
2577.04
2580.04
2583.06
2586.11
2589.19
2592.3
2595.43
2598.6
2601.8
2605.03
2608.29
3102.84
3430.37
3459.12
3457.4
3307.38
2628.54
2632.03
3096.95
3274.16
3251.08
3181.82
3199.85
3293.17
3351.06
3398.06
3453.24
3498.61
3546.82
3591.49
3636.59
3679.49
3722.67
3764.23
3805.86
3846.44
3886.82
3926.59
3966.01
4005.06
4043.69
4082.08
4120.03
4157.79
4195.11
4232.24
4268.94
4305.42
4341.46
4377.24
4412.56
4447.55
4482.07
4516.15
4549.74
4582.81
4615.34
4647.31
4678.68
4709.49
4739.74
4769.56
4799.13
4828.78
4857.52
4885.97
4913.83
4941.22
4968.08
4994.38
5020.16
5045.29
5069.88
5093.78
5117.09
5139.65
5161.6
5182.75
5203.25
5222.92
5241.88
5260
5277.36
5293.87
5309.58
5324.42
5338.42
5351.57
5363.85
5375.3
5385.86
5395.66
5404.62
5412.99
5420.81
5428.49
5432.47
5439.09
5440.46
5446.02
5444.98
5449.68
5446.59
5449.8
5445.11
5444.79
5442
5439.33
5435.8
5431.48
5427.01
5421.82
5416.11
5409.89
5403.19
5396.09
5388.59
5380.78
5372.65
5364.26
5355.64
5346.86
5337.98
5328.95
5319.82
5310.59
5301.31
5292
5282.7
5273.41
5264.21
5255.13
5246.21
5237.39
5228.71
5220.08
5211.91
5203.82
5195.44
5186.82
5177.72
5167.55
5155.59
5139.57
5115.97
5082.35
4869.31
11463.3
2017.64
992.977
797.543
686.442
638.239
647.551
646.486
637.801
618.96
597.564
576.94
561.747
548.751
546.392
562.45
610.356
701.127
806.745
905.446
984.319
1013.13
993.786
945.837
825.667
697.632
593.095
524.142
495.194
504.468
518.576
580.589
652.722
920.9
1315.53
1702.12
1950.49
2099.16
2144.16
2158.52
2139.66
2101.51
2058.11
1986.38
1952.72
1875.3
1813.28
1742.53
1686.65
1620.08
1601.83
1585.72
1558.58
1543.03
1519.4
1507.73
1506.97
1504.93
1505.2
1508.17
1510.96
1515.52
1520.33
1526.18
1532.24
1538.99
1545.88
1553.21
1560.65
1568.34
1576.11
1584.01
1591.96
1599.96
1607.97
1615.97
1623.96
1631.89
1639.77
1647.57
1655.28
1662.88
1670.36
1677.71
1684.91
1691.97
1698.86
1705.6
1712.17
1718.6
1724.9
1731.13
1737.36
1743.74
1750.46
1757.82
1766.19
1773.9
1781.73
1789.27
1796.74
1804.01
1811.14
1818.09
1824.88
1831.49
1837.93
1844.17
1850.24
1856.11
1861.8
1867.28
1872.57
1877.66
1882.54
1887.23
1891.7
1895.97
1900.04
1903.89
1907.54
1910.99
1914.23
1917.27
1920.12
1922.79
1925.28
1927.59
1929.67
1931.38
1933.09
1934.33
1935.7
1936.49
1937.55
1937.9
1938.61
1938.58
1938.83
1938.53
1938.36
1937.91
1937.26
1936.53
1935.61
1934.56
1933.36
1932.02
1930.56
1928.98
1927.29
1925.49
1923.6
1921.62
1919.56
1917.43
1915.23
1912.95
1910.62
1908.21
1905.75
1903.24
1900.69
1898.11
1895.47
1892.82
1890.18
1887.55
1884.96
1882.46
1880
1877.52
1875.07
1872.68
1870.37
1868.31
1866.5
1865.78
1866.32
1869.69
11463.3
2027.83
845.675
700.953
738.933
738.478
711.609
655.526
597.752
542.513
493.296
451.547
417.731
391.232
373.386
359.056
358.069
364.045
380.819
413.552
457.219
497.574
527.537
528.129
502.565
465.077
419.634
416.252
448.792
562.472
747.143
991.419
1223.83
1423
1577.07
1666.03
1701.86
1652.56
1587.9
1511.2
1436.84
1364.7
1300.34
1240.19
1192.15
1147.36
1113.5
1085.32
1064.37
1047.73
1036.99
1027.92
1021.31
1018.5
1014.14
1013.36
1013.97
1015.43
1017.49
1020.23
1023.28
1026.79
1030.53
1034.58
1038.78
1043.18
1047.69
1052.32
1057.02
1061.79
1066.6
1071.45
1076.31
1081.17
1086.04
1090.89
1095.72
1100.53
1105.3
1110.03
1114.71
1119.35
1123.93
1128.46
1132.94
1137.36
1141.73
1146.06
1150.36
1154.64
1158.91
1163.21
1167.56
1172
1176.54
1181.2
1185.85
1190.34
1194.8
1199.14
1203.4
1207.57
1211.63
1215.6
1219.47
1223.23
1226.89
1230.43
1233.88
1237.2
1240.42
1243.51
1246.49
1249.36
1252.1
1254.72
1257.23
1259.6
1261.86
1263.99
1266
1267.89
1269.65
1271.29
1272.81
1274.2
1275.47
1276.62
1277.62
1278.48
1279.23
1279.83
1280.35
1280.69
1280.98
1281.07
1281.11
1280.98
1280.81
1280.46
1280
1279.45
1278.77
1278.01
1277.14
1276.17
1275.1
1273.94
1272.69
1271.36
1269.94
1268.43
1266.85
1265.2
1263.47
1261.67
1259.81
1257.88
1255.88
1253.82
1251.69
1249.51
1247.27
1244.99
1242.65
1240.28
1237.87
1235.44
1232.99
1230.56
1228.16
1225.77
1223.43
1221.19
1219.11
1217.38
1216.15
1216.39
1218.77
1230.14
11463.3
2107.72
1160.9
1090.81
973.711
844.45
728.93
625.156
537.456
466.196
410.984
370.011
340.177
318.727
303.744
293.654
287.481
287.743
290.818
300.343
318.607
343.336
370.176
384.315
395.368
436.333
503.186
635.916
820.39
1019.08
1193.92
1297.06
1365.25
1414.03
1437.01
1374.34
1266.24
1212.01
1135.25
1078.91
1024.62
980.676
943.069
912.254
887.701
868.023
853.229
842.02
833.842
828.097
824.293
822.281
821.184
820.929
821.373
822.814
824.791
827.168
829.861
832.837
836.02
839.395
842.914
846.561
850.304
854.133
858.025
861.97
865.955
869.97
874.007
878.056
882.113
886.171
890.223
894.266
898.295
902.306
906.296
910.262
914.203
918.116
922.001
925.858
929.689
933.494
937.278
941.044
944.796
948.54
952.282
956.03
959.789
963.557
967.327
971.072
974.761
978.373
981.924
985.402
988.809
992.14
995.395
998.57
1001.67
1004.68
1007.6
1010.44
1013.19
1015.85
1018.42
1020.89
1023.26
1025.53
1027.71
1029.78
1031.74
1033.6
1035.35
1037
1038.53
1039.95
1041.26
1042.46
1043.54
1044.51
1045.36
1046.09
1046.69
1047.18
1047.55
1047.8
1047.95
1047.97
1047.89
1047.68
1047.38
1046.95
1046.44
1045.8
1045.07
1044.23
1043.29
1042.26
1041.13
1039.91
1038.6
1037.19
1035.7
1034.13
1032.47
1030.73
1028.91
1027.02
1025.06
1023.02
1020.92
1018.74
1016.5
1014.2
1011.83
1009.39
1006.9
1004.36
1001.77
999.133
996.457
993.745
991.008
988.267
985.539
982.833
980.173
977.603
975.195
973.092
971.464
971.103
972.581
980.309
11463.3
2573.67
1667.17
1268.98
1001.91
784.106
607.591
481.537
397.669
344.318
309.753
286.141
269.697
258.389
250.965
246.81
246.109
247.577
251.986
259.879
273.673
297.007
336.713
396.092
474.42
604.352
807.861
994.642
1120.54
1193.08
1237.94
1257.46
1261.02
1202.17
1100.22
1032.98
969.343
924.525
877.469
843.399
812.327
788.027
767.95
752.223
740.084
731.003
724.484
719.982
717.235
715.863
715.485
715.855
716.984
718.617
720.738
723.27
726.086
729.128
732.352
735.727
739.224
742.822
746.503
750.253
754.057
757.906
761.79
765.703
769.637
773.585
777.545
781.509
785.476
789.44
793.398
797.348
801.287
805.213
809.123
813.015
816.89
820.745
824.58
828.396
832.192
835.971
839.732
843.477
847.207
850.922
854.623
858.309
861.978
865.621
869.23
872.793
876.3
879.747
883.134
886.457
889.714
892.904
896.023
899.07
902.041
904.937
907.752
910.485
913.133
915.694
918.164
920.542
922.824
925.008
927.09
929.07
930.943
932.708
934.361
935.901
937.326
938.633
939.82
940.886
941.828
942.645
943.336
943.897
944.328
944.63
944.809
944.856
944.798
944.601
944.282
943.836
943.273
942.59
941.796
940.886
939.865
938.732
937.492
936.153
934.712
933.17
931.531
929.796
927.968
926.049
924.043
921.952
919.777
917.522
915.19
912.782
910.3
907.747
905.125
902.436
899.688
896.884
894.023
891.108
888.142
885.129
882.079
878.988
875.869
872.74
869.615
866.51
863.446
860.465
857.628
855.051
852.878
851.624
852.011
856.086
11463.3
3338.15
1870.28
1255.41
846.949
589.256
451.308
375.69
327.744
295.179
271.463
253.84
240.947
231.968
226.457
224.214
224.948
229.097
238.621
255.425
279.711
318.451
390.932
512.662
706.113
899.086
1033.74
1106.01
1137.18
1152.33
1142.95
1076.19
1000.68
927.073
870.659
827.181
789.005
759.026
732.005
711.165
693.451
679.6
668.684
660.488
654.561
650.539
648.244
647.279
647.108
647.867
649.346
651.37
653.854
656.681
659.807
663.167
666.705
670.384
674.174
678.055
682.008
686.02
690.078
694.175
698.301
702.451
706.619
710.801
714.992
719.19
723.39
727.59
731.787
735.98
740.165
744.341
748.505
752.657
756.795
760.917
765.023
769.111
773.181
777.233
781.266
785.281
789.276
793.252
797.208
801.141
805.05
808.933
812.784
816.595
820.364
824.083
827.748
831.356
834.904
838.39
841.812
845.166
848.45
851.66
854.795
857.852
860.83
863.722
866.525
869.238
871.855
874.374
876.79
879.101
881.302
883.39
885.362
887.213
888.941
890.542
892.012
893.35
894.551
895.615
896.537
897.317
897.951
898.438
898.777
898.963
899.014
898.931
898.696
898.315
897.79
897.125
896.323
895.385
894.318
893.122
891.8
890.353
888.785
887.104
885.312
883.407
881.393
879.274
877.052
874.73
872.313
869.801
867.2
864.512
861.739
858.886
855.953
852.945
849.864
846.713
843.498
840.223
836.888
833.499
830.057
826.57
823.05
819.504
815.936
812.356
808.778
805.216
801.693
798.245
794.925
791.826
789.065
786.964
786.12
787.658
11463.3
3695.9
1826.48
1007.15
624.212
455.009
369.551
319.633
286.965
263.982
247.484
235.265
226.16
219.99
217.388
218.543
223.75
232.545
249.007
279.65
333.815
427.354
583.894
770.089
919.556
1012.74
1051.47
1068.66
1059.85
997.007
927.005
860.659
808.994
764.421
730.466
702.323
678.54
659.114
642.756
629.803
619.388
611.433
605.554
601.504
599.154
598.177
598.055
598.914
600.521
602.767
605.526
608.692
612.186
615.935
619.892
624.011
628.256
632.597
637.014
641.489
646.01
650.565
655.146
659.747
664.364
668.99
673.623
678.261
682.9
687.537
692.172
696.802
701.424
706.038
710.642
715.233
719.812
724.376
728.925
733.456
737.971
742.466
746.942
751.397
755.831
760.242
764.631
768.994
773.332
777.641
781.918
786.162
790.37
794.538
798.66
802.73
806.745
810.7
814.594
818.423
822.185
825.874
829.489
833.025
836.479
839.841
843.112
846.289
849.368
852.346
855.218
857.979
860.627
863.154
865.559
867.836
869.981
871.988
873.855
875.577
877.149
878.569
879.833
880.938
881.881
882.66
883.273
883.717
883.984
884.085
884.04
883.821
883.433
882.879
882.162
881.285
880.25
879.063
877.728
876.247
874.622
872.858
870.955
868.907
866.721
864.407
861.972
859.419
856.752
853.975
851.092
848.106
845.022
841.843
838.573
835.215
831.773
828.251
824.651
820.979
817.239
813.434
809.57
805.649
801.677
797.659
793.613
789.535
785.436
781.324
777.214
773.12
769.064
765.077
761.206
757.525
754.129
751.251
749.214
748.935
11463.3
3709.63
1495.6
771.16
516.769
405.071
343.107
304.986
278.423
258.456
243.124
231.828
224.59
221.296
222.162
228.215
240.746
262.832
300.657
367.37
489.001
645.314
794.323
904.533
965.124
988.397
993.22
944.898
878.67
815.672
766.243
723.807
690.68
662.95
640.774
622.129
606.59
593.879
583.559
575.496
569.361
564.982
562.193
560.887
560.582
561.231
562.743
564.991
567.842
571.197
574.963
579.062
583.428
588.007
592.754
597.631
602.61
607.666
612.779
617.935
623.123
628.333
633.558
638.792
644.031
649.271
654.51
659.746
664.976
670.2
675.415
680.619
685.81
690.988
696.152
701.299
706.429
711.54
716.632
721.703
726.753
731.781
736.785
741.764
746.717
751.642
756.539
761.404
766.237
771.034
775.792
780.511
785.189
789.819
794.396
798.913
803.366
807.754
812.072
816.316
820.484
824.571
828.574
832.488
836.309
840.034
843.658
847.177
850.587
853.882
857.058
860.108
863.029
865.815
868.459
870.957
873.304
875.493
877.52
879.38
881.067
882.578
883.909
885.055
886.015
886.785
887.363
887.742
887.915
887.92
887.728
887.34
886.761
885.991
885.034
883.893
882.574
881.08
879.416
877.587
875.596
873.448
871.146
868.697
866.105
863.374
860.509
857.515
854.396
851.156
847.801
844.335
840.763
837.088
833.315
829.448
825.492
821.451
817.329
813.131
808.861
804.525
800.128
795.673
791.167
786.614
781.993
777.336
772.658
767.97
763.284
758.616
753.986
749.422
744.963
740.669
736.615
732.963
729.899
727.998
11463.3
3291.22
1174.91
634.745
452.783
372.493
329.204
298.927
276.582
259.599
246.84
238.105
233.416
232.405
238.33
253.962
284.671
340.621
431.456
551.833
677.525
789.35
866.198
905.757
922.926
903.839
844.949
785.46
737.018
695.526
662.993
635.725
613.707
595.267
580.058
567.347
556.891
548.48
541.903
537.004
533.603
531.705
531.015
531.201
532.374
534.371
537.085
540.416
544.269
548.56
553.215
558.17
563.37
568.765
574.317
579.992
585.76
591.6
597.493
603.423
609.381
615.356
621.341
627.329
633.315
639.296
645.268
651.229
657.18
663.119
669.041
674.946
680.832
686.697
692.541
698.362
704.159
709.93
715.675
721.391
727.075
732.727
738.35
743.943
749.506
755.036
760.533
765.993
771.415
776.794
782.127
787.412
792.642
797.814
802.923
807.963
812.932
817.826
822.64
827.371
832.014
836.566
841.021
845.376
849.626
853.766
857.79
861.696
865.475
869.125
872.637
876.007
879.227
882.293
885.196
887.931
890.49
892.869
895.06
897.058
898.857
900.452
901.838
903.011
903.969
904.707
905.224
905.504
905.571
905.423
905.049
904.453
903.638
902.605
901.359
899.905
898.247
896.391
894.344
892.109
889.694
887.102
884.341
881.416
878.332
875.096
871.712
868.186
864.525
860.733
856.816
852.779
848.627
844.366
840.001
835.537
830.979
826.332
821.601
816.791
811.909
806.959
801.947
796.879
791.761
786.601
781.404
776.177
770.931
765.677
760.428
755.198
750.007
744.88
739.851
734.969
730.292
725.938
721.978
718.699
11463.3
2734.44
970.735
575.887
434.868
368.757
331.284
306.974
289.006
275.428
266.456
263.528
266.852
278.672
302.204
344.656
410.405
496.878
594.782
691.624
770.295
821.556
847.424
853.732
813.909
763.469
716.276
675.791
643.431
616.379
594.424
575.95
560.597
547.698
536.975
528.137
521.025
515.501
511.437
508.727
507.391
507.059
507.674
509.195
511.54
514.611
518.322
522.592
527.344
532.51
538.025
543.832
549.882
556.131
562.542
569.082
575.723
582.438
589.209
596.02
602.858
609.72
616.59
623.459
630.322
637.173
644.008
650.819
657.594
664.336
671.057
677.756
684.431
691.08
697.701
704.293
710.854
717.384
723.881
730.345
736.779
743.178
749.539
755.858
762.134
768.367
774.553
780.691
786.777
792.81
798.782
804.692
810.535
816.307
822.005
827.623
833.158
838.605
843.96
849.217
854.373
859.423
864.361
869.183
873.884
878.458
882.899
887.203
891.362
895.371
899.223
902.911
906.427
909.764
912.915
915.873
918.628
921.175
923.506
925.614
927.492
929.135
930.538
931.696
932.606
933.265
933.664
933.806
933.699
933.337
932.721
931.853
930.736
929.373
927.769
925.93
923.863
921.574
919.07
916.358
913.445
910.337
907.043
903.568
899.92
896.106
892.132
888.005
883.731
879.318
874.77
870.094
865.298
860.386
855.364
850.239
845.017
839.703
834.304
828.825
823.273
817.653
811.973
806.239
800.458
794.637
788.784
782.906
777.015
771.12
765.235
759.375
753.556
747.803
742.145
736.622
731.279
726.206
721.447
717.063
11463.3
2194.03
832.277
533.913
426.943
376.372
348.411
329.963
316.705
309.118
307.029
312.69
329.616
360.726
407.73
469.084
540.759
615.906
684.053
736.493
771.859
788.793
780.223
740.614
698.555
661.28
629.159
602.546
580.657
562.173
546.673
533.51
522.42
513.127
505.468
499.303
494.529
491.056
488.861
487.899
487.825
488.728
490.521
493.13
496.484
500.511
505.141
510.307
515.946
521.998
528.404
535.113
542.077
549.253
556.608
564.117
571.739
579.448
587.221
595.037
602.869
610.679
618.497
626.323
634.15
641.969
649.774
657.56
665.331
673.083
680.809
688.498
696.146
703.749
711.306
718.816
726.276
733.687
741.045
748.352
755.604
762.803
769.948
777.038
784.071
791.046
797.962
804.815
811.605
818.325
824.974
831.545
838.036
844.443
850.759
856.981
863.104
869.122
875.031
880.825
886.5
892.05
897.47
902.753
907.896
912.89
917.732
922.413
926.929
931.27
935.431
939.403
943.178
946.746
950.102
953.234
956.135
958.796
961.21
963.368
965.263
966.888
968.238
969.309
970.096
970.595
970.805
970.724
970.354
969.695
968.749
967.521
966.012
964.229
962.177
959.864
957.297
954.484
951.433
948.153
944.654
940.943
937.028
932.919
928.624
924.149
919.504
914.696
909.732
904.62
899.367
893.981
888.469
882.837
877.092
871.241
865.291
859.249
853.122
846.915
840.637
834.293
827.892
821.441
814.947
808.418
801.862
795.289
788.709
782.132
775.572
769.042
762.56
756.147
749.829
743.639
737.614
731.823
726.278
720.876
11463.3
1972.36
807.223
534.833
439.706
398.32
377.456
366.094
361.431
361.327
370.21
389.198
419.441
460.617
510.657
565.315
618.752
664.581
699.69
723.817
732.167
709.119
679.812
646.779
617.37
592.157
570.642
552.46
536.997
523.711
512.348
502.656
494.496
487.743
482.309
478.12
475.112
473.303
472.602
472.789
473.921
475.942
478.791
482.407
486.729
491.7
497.259
503.353
509.931
516.948
524.336
532.045
540.03
548.243
556.634
565.128
573.752
582.493
591.332
600.247
609.219
618.248
627.303
636.378
645.447
654.497
663.518
672.503
681.446
690.339
699.171
707.942
716.65
725.292
733.865
742.368
750.799
759.157
767.44
775.649
783.783
791.841
799.825
807.733
815.566
823.321
830.998
838.596
846.11
853.538
860.876
868.119
875.263
882.303
889.235
896.052
902.748
909.319
915.76
922.063
928.224
934.237
940.097
945.797
951.331
956.693
961.877
966.875
971.682
976.288
980.686
984.867
988.822
992.542
996.017
999.237
1002.19
1004.88
1007.28
1009.39
1011.2
1012.7
1013.89
1014.77
1015.32
1015.55
1015.46
1015.04
1014.29
1013.22
1011.83
1010.12
1008.11
1005.79
1003.17
1000.27
997.09
993.641
989.935
985.981
981.79
977.372
972.737
967.895
962.856
957.628
952.221
946.643
940.905
935.012
928.975
922.801
916.499
910.075
903.538
896.895
890.154
883.322
876.406
869.415
862.356
855.237
848.065
840.848
833.595
826.314
819.014
811.706
804.398
797.102
789.831
782.6
775.423
768.321
761.318
754.441
747.718
741.208
734.905
728.582
11463.3
1900.51
791.069
541.729
459.606
427.401
414.413
410.339
411.613
420.811
438.117
463.447
495.768
532.765
570.949
606.319
635.971
661.592
674.085
673.512
651.23
628.58
604.9
582.269
562.574
545.394
530.405
517.358
505.994
496.121
487.633
480.44
474.479
469.696
466.05
463.493
462.07
461.635
462.119
463.515
465.789
468.911
472.843
477.51
482.863
488.853
495.429
502.536
510.097
518.037
526.37
535.07
544.097
553.414
562.987
572.8
582.792
592.932
603.206
613.57
623.997
634.464
644.944
655.406
665.843
676.246
686.603
696.904
707.138
717.297
727.373
737.358
747.25
757.044
766.736
776.325
785.808
795.184
804.453
813.616
822.672
831.623
840.47
849.213
857.853
866.389
874.822
883.151
891.373
899.484
907.482
915.361
923.117
930.744
938.238
945.591
952.799
959.854
966.751
973.484
980.046
986.433
992.637
998.655
1004.48
1010.1
1015.51
1020.71
1025.69
1030.44
1034.95
1039.21
1043.22
1046.96
1050.42
1053.59
1056.46
1059.02
1061.26
1063.18
1064.76
1065.99
1066.88
1067.4
1067.57
1067.38
1066.83
1065.91
1064.63
1062.99
1061.01
1058.68
1056.01
1053.01
1049.69
1046.06
1042.13
1037.91
1033.42
1028.67
1023.66
1018.42
1012.95
1007.26
1001.37
995.288
989.02
982.578
975.972
969.212
962.307
955.265
948.096
940.808
933.409
925.908
918.312
910.631
902.871
895.042
887.151
879.207
871.219
863.194
855.141
847.07
838.99
830.911
822.844
814.799
806.79
798.83
790.935
783.123
775.414
767.835
760.406
753.178
746.137
738.972
11463.3
1864.24
788.176
555.565
483.345
458.517
451.192
450.64
457.475
470.57
489.089
511.694
536.435
561.04
583.888
605.437
621.67
627.04
617.158
604.735
587.124
570.62
554.305
539.178
525.618
513.441
502.565
492.93
484.483
477.182
470.997
465.896
461.858
458.866
456.96
456.124
456.147
457.085
458.889
461.531
464.971
469.138
473.973
479.532
485.803
492.751
500.337
508.518
517.259
526.537
536.28
546.438
556.968
567.837
579.012
590.44
602.065
613.839
625.71
637.663
649.676
661.722
673.776
685.811
697.808
709.75
721.621
733.406
745.092
756.666
768.117
779.437
790.618
801.655
812.544
823.281
833.864
844.294
854.569
864.693
874.666
884.491
894.172
903.71
913.108
922.367
931.489
940.474
949.32
958.026
966.586
974.997
983.254
991.352
999.284
1007.04
1014.63
1022.02
1029.23
1036.24
1043.04
1049.64
1056.02
1062.18
1068.11
1073.82
1079.28
1084.49
1089.45
1094.15
1098.57
1102.72
1106.57
1110.13
1113.37
1116.29
1118.87
1121.11
1122.98
1124.5
1125.64
1126.39
1126.77
1126.73
1126.33
1125.5
1124.29
1122.68
1120.67
1118.28
1115.51
1112.37
1108.86
1105.01
1100.81
1096.29
1091.45
1086.31
1080.88
1075.18
1069.22
1063.02
1056.59
1049.94
1043.08
1036.03
1028.79
1021.38
1013.82
1006.1
998.239
990.249
982.137
973.913
965.585
957.163
948.654
940.068
931.413
922.698
913.931
905.122
896.278
887.409
878.525
869.634
860.746
851.871
843.021
834.206
825.439
816.734
808.105
799.57
791.147
782.859
774.721
766.78
759.022
751.078
11463.3
1834.2
790.518
570.777
505.455
484.64
479.405
479.932
487.08
498.021
511.549
526.572
542.714
559.398
574.498
581.248
581.141
573.704
564.853
554.466
542.743
531.513
520.546
510.285
500.885
492.368
484.783
478.199
472.704
468.074
464.293
461.364
459.281
458.031
457.522
457.752
458.848
460.844
463.725
467.474
472.07
477.506
483.777
490.828
498.628
507.146
516.347
526.189
536.635
547.659
559.204
571.193
583.563
596.254
609.213
622.414
635.816
649.379
663.059
676.824
690.644
704.487
718.324
732.124
745.862
759.513
773.055
786.467
799.73
812.828
825.745
838.471
850.995
863.309
875.408
887.288
898.948
910.388
921.61
932.617
943.414
954.005
964.398
974.596
984.605
994.429
1004.07
1013.54
1022.82
1031.93
1040.85
1049.58
1058.12
1066.47
1074.61
1082.54
1090.25
1097.75
1105.01
1112.03
1118.81
1125.35
1131.64
1137.66
1143.43
1148.92
1154.15
1159.09
1163.74
1168.09
1172.15
1175.89
1179.31
1182.39
1185.12
1187.5
1189.51
1191.13
1192.36
1193.2
1193.62
1193.61
1193.22
1192.36
1191.08
1189.38
1187.25
1184.69
1181.72
1178.34
1174.55
1170.38
1165.82
1160.9
1155.63
1150.02
1144.08
1137.84
1131.31
1124.5
1117.44
1110.13
1102.6
1094.85
1086.9
1078.76
1070.45
1061.98
1053.35
1044.59
1035.69
1026.68
1017.55
1008.33
999.009
989.609
980.136
970.599
961.007
951.367
941.69
931.985
922.259
912.523
902.785
893.055
883.344
873.66
864.016
854.422
844.89
835.434
826.068
816.807
807.669
798.675
789.836
781.196
772.742
764.082
11463.3
1822.8
796.506
583.732
520.875
499.929
493.164
491.749
494.644
501.371
510.755
522.13
533.109
539.272
540.724
538.277
536.109
531.413
526.235
520.372
514.173
508.257
502.554
496.987
491.701
486.793
482.322
478.253
474.407
471.275
468.964
467.518
466.946
467.25
468.483
470.637
473.687
477.633
482.468
488.183
494.766
502.214
510.515
519.635
529.53
540.172
551.545
563.569
576.178
589.304
602.887
616.892
631.274
645.983
660.971
676.198
691.62
707.197
722.886
738.649
754.448
770.246
786.007
801.696
817.28
832.726
848.004
863.087
877.95
892.57
906.928
921.009
934.8
948.29
961.475
974.349
986.914
999.17
1011.12
1022.78
1034.15
1045.24
1056.06
1066.62
1076.93
1086.99
1096.82
1106.43
1115.8
1124.95
1133.87
1142.55
1151
1159.21
1167.17
1174.88
1182.33
1189.51
1196.42
1203.05
1209.4
1215.46
1221.24
1226.71
1231.89
1236.77
1241.34
1245.59
1249.52
1253.12
1256.4
1259.33
1261.91
1264.11
1265.94
1267.38
1268.44
1269.07
1269.26
1269.06
1268.41
1267.28
1265.73
1263.72
1261.25
1258.34
1254.98
1251.18
1246.95
1242.29
1237.21
1231.74
1225.89
1219.66
1213.08
1206.17
1198.93
1191.4
1183.58
1175.5
1167.17
1158.61
1149.83
1140.85
1131.69
1122.36
1112.87
1103.23
1093.46
1083.56
1073.55
1063.45
1053.25
1042.96
1032.61
1022.19
1011.71
1001.19
990.633
980.046
969.44
958.822
948.203
937.59
926.993
916.423
905.888
895.399
884.964
874.597
864.307
854.109
844.015
834.042
824.203
814.519
804.999
795.683
786.563
777.248
11463.3
1809.97
799.01
590.247
526.285
502.475
492.748
489.568
489.428
492.614
496.115
499.541
502.512
504.561
508.501
511.344
513.483
514.363
514.526
513.689
511.912
509.19
505.79
502.432
499.33
496.612
494.375
492.708
491.811
491.637
492.271
493.759
496.126
499.381
503.558
508.649
514.621
521.454
529.135
537.655
547.005
557.186
568.197
580.059
592.677
605.969
619.849
634.299
649.279
664.743
680.638
696.922
713.548
730.467
747.638
765.013
782.551
800.207
817.941
835.708
853.468
871.176
888.794
906.275
923.582
940.672
957.509
974.057
990.283
1006.16
1021.66
1036.77
1051.48
1065.76
1079.62
1093.06
1106.07
1118.66
1130.84
1142.63
1154.04
1165.08
1175.77
1186.12
1196.15
1205.88
1215.3
1224.45
1233.31
1241.89
1250.2
1258.23
1265.97
1273.43
1280.59
1287.46
1294.02
1300.27
1306.21
1311.83
1317.13
1322.11
1326.76
1331.09
1335.09
1338.75
1342.07
1345.05
1347.69
1349.98
1351.92
1353.51
1354.69
1355.48
1355.89
1355.88
1355.51
1354.63
1353.3
1351.55
1349.36
1346.69
1343.57
1339.98
1335.93
1331.42
1326.45
1321.05
1315.21
1308.94
1302.27
1295.21
1287.78
1279.99
1271.86
1263.41
1254.66
1245.64
1236.35
1226.82
1217.06
1207.1
1196.95
1186.63
1176.14
1165.51
1154.74
1143.86
1132.87
1121.78
1110.6
1099.35
1088.03
1076.66
1065.24
1053.77
1042.28
1030.76
1019.23
1007.69
996.16
984.636
973.132
961.656
950.216
938.822
927.483
916.208
905.008
893.892
882.871
871.959
861.167
850.511
840.003
829.662
819.495
809.542
799.793
789.894
11463.3
1800.36
798.168
590.018
523.853
496.442
482.414
474.985
472.301
473.284
479.167
486.845
495.205
503.362
510.599
516.687
521.912
526.049
529.3
531.665
533.311
534.585
535.78
537.064
538.617
540.577
543.062
546.187
550.088
554.724
560.132
566.312
573.268
580.993
589.49
598.746
608.744
619.464
630.891
643.02
655.85
669.419
683.728
698.635
714.121
730.156
746.695
763.7
781.132
798.948
817.103
835.555
854.255
873.168
892.24
911.441
930.718
950.04
969.355
988.63
1007.81
1026.86
1045.72
1064.35
1082.71
1100.73
1118.39
1135.63
1152.41
1168.71
1184.5
1199.75
1214.46
1228.6
1242.19
1255.21
1267.69
1279.63
1291.05
1301.96
1312.4
1322.38
1331.93
1341.07
1349.83
1358.22
1366.25
1373.95
1381.32
1388.37
1395.1
1401.51
1407.6
1413.35
1418.78
1423.88
1428.64
1433.05
1437.12
1440.84
1444.22
1447.25
1449.92
1452.27
1454.28
1455.92
1457.2
1458.14
1458.72
1458.95
1458.84
1458.38
1457.46
1456.15