/*--------------------------------*- C++ -*----------------------------------*\
  =========                 |
  \\      /  F ield         | OpenFOAM: The Open Source CFD Toolbox
   \\    /   O peration     | Website:  https://openfoam.org
    \\  /    A nd           | Version:  8
     \\/     M anipulation  |
\*---------------------------------------------------------------------------*/
FoamFile
{
    version     2.0;
    format      ascii;
    class       surfaceScalarField;
    location    "2000";
    object      phi;
}
// * * * * * * * * * * * * * * * * * * * * * * * * * * * * * * * * * * * * * //

dimensions      [0 3 -1 0 0 0 0];

internalField   nonuniform List<scalar> 
24170
(
3.03937e-06
9.45792e-08
2.93439e-06
1.05135e-07
2.84329e-06
9.07459e-08
2.75826e-06
8.44567e-08
2.67753e-06
7.98785e-08
2.60581e-06
7.10585e-08
2.54555e-06
5.99064e-08
2.4947e-06
5.07987e-08
2.45381e-06
4.09047e-08
2.42058e-06
3.33147e-08
2.39247e-06
2.84069e-08
2.3654e-06
2.72769e-08
2.33743e-06
2.81153e-08
2.31188e-06
2.55823e-08
2.28714e-06
2.46918e-08
2.26858e-06
1.85117e-08
2.24679e-06
2.18292e-08
2.65292e-08
2.22034e-06
3.50769e-06
4.31523e-08
3.50806e-06
1.03579e-07
3.50543e-06
9.21169e-08
3.49824e-06
9.05228e-08
3.48397e-06
9.31469e-08
3.46428e-06
9.01559e-08
3.4404e-06
8.36914e-08
3.41379e-06
7.7583e-08
3.38539e-06
6.94272e-08
3.35107e-06
6.76716e-08
3.31201e-06
6.75333e-08
3.27385e-06
6.54133e-08
3.24409e-06
5.78402e-08
3.22246e-06
4.71757e-08
3.20444e-06
4.26683e-08
3.1855e-06
3.74356e-08
3.166e-06
4.13294e-08
4.02213e-08
3.15233e-06
3.82346e-06
3.18889e-08
3.83397e-06
9.33812e-08
3.84155e-06
8.47452e-08
3.84976e-06
8.22743e-08
3.85637e-06
8.63181e-08
3.86042e-06
8.58877e-08
3.86117e-06
8.28765e-08
3.85878e-06
7.99848e-08
3.85273e-06
7.54236e-08
3.84619e-06
7.41773e-08
3.83988e-06
7.38775e-08
3.83355e-06
7.17917e-08
3.82637e-06
6.50819e-08
3.81715e-06
5.64342e-08
3.80821e-06
5.16041e-08
3.79813e-06
4.75194e-08
3.79167e-06
4.78125e-08
4.45513e-08
3.78734e-06
4.20836e-06
2.79249e-08
4.22047e-06
8.03935e-08
4.22748e-06
7.71154e-08
4.23374e-06
7.55571e-08
4.24025e-06
7.9551e-08
4.2458e-06
8.03469e-08
4.25002e-06
7.88759e-08
4.25314e-06
7.71208e-08
4.25445e-06
7.42408e-08
4.25576e-06
7.28971e-08
4.2577e-06
7.18962e-08
4.25998e-06
6.94167e-08
4.26111e-06
6.38819e-08
4.26015e-06
5.73428e-08
4.25882e-06
5.29119e-08
4.2569e-06
4.943e-08
4.25689e-06
4.78183e-08
4.40667e-08
4.25739e-06
4.64099e-06
2.42427e-08
4.65214e-06
6.97086e-08
4.65828e-06
7.12763e-08
4.66311e-06
7.08675e-08
4.66867e-06
7.39784e-08
4.67397e-06
7.50497e-08
4.67861e-06
7.42541e-08
4.68275e-06
7.29631e-08
4.68601e-06
7.09294e-08
4.68936e-06
6.95061e-08
4.69321e-06
6.80702e-08
4.69725e-06
6.54249e-08
4.70038e-06
6.08016e-08
4.7021e-06
5.56431e-08
4.7034e-06
5.1609e-08
4.70452e-06
4.83073e-08
4.70663e-06
4.5707e-08
4.18671e-08
4.70879e-06
5.11828e-06
2.05263e-08
5.12821e-06
5.92505e-08
5.1343e-06
6.48123e-08
5.13903e-06
6.59077e-08
5.14435e-06
6.86007e-08
5.14959e-06
6.99459e-08
5.15438e-06
6.96929e-08
5.15883e-06
6.87136e-08
5.16279e-06
6.70903e-08
5.16685e-06
6.55143e-08
5.17124e-06
6.37052e-08
5.17567e-06
6.0984e-08
5.17938e-06
5.70467e-08
5.18217e-06
5.28195e-08
5.18458e-06
4.91651e-08
5.18693e-06
4.59428e-08
5.1897e-06
4.29151e-08
3.92513e-08
5.19231e-06
5.64418e-06
1.74209e-08
5.65314e-06
5.07694e-08
5.65959e-06
5.87067e-08
5.66467e-06
6.09789e-08
5.67002e-06
6.33313e-08
5.67531e-06
6.47109e-08
5.68028e-06
6.47654e-08
5.68498e-06
6.40052e-08
5.68939e-06
6.26351e-08
5.69387e-06
6.10395e-08
5.69852e-06
5.90941e-08
5.7031e-06
5.64534e-08
5.70713e-06
5.3048e-08
5.7105e-06
4.94445e-08
5.71356e-06
4.61019e-08
5.71653e-06
4.29661e-08
5.71959e-06
3.98574e-08
3.64282e-08
5.72238e-06
4.4081e-06
1.55008e-08
4.41362e-06
4.50558e-08
4.41838e-06
5.38127e-08
4.42234e-06
5.69191e-08
4.42633e-06
5.93607e-08
4.43031e-06
6.08428e-08
4.43414e-06
6.10812e-08
4.43781e-06
6.04527e-08
4.44129e-06
5.92225e-08
4.44473e-06
5.76662e-08
4.44816e-06
5.5718e-08
4.45147e-06
5.31758e-08
4.45448e-06
5.00543e-08
4.45716e-06
4.67631e-08
4.45964e-06
4.36107e-08
4.46202e-06
4.05773e-08
4.46434e-06
3.75339e-08
3.43092e-08
4.46645e-06
5.14182e-06
1.35613e-08
5.14736e-06
3.99455e-08
5.15248e-06
4.89486e-08
5.15694e-06
5.2622e-08
5.16137e-06
5.50335e-08
5.16578e-06
5.65067e-08
5.17006e-06
5.68476e-08
5.17417e-06
5.63339e-08
5.17814e-06
5.52439e-08
5.18204e-06
5.37699e-08
5.1859e-06
5.18878e-08
5.18962e-06
4.94957e-08
5.19304e-06
4.66536e-08
5.19616e-06
4.36538e-08
5.19907e-06
4.07046e-08
5.20183e-06
3.78143e-08
5.20446e-06
3.49081e-08
3.19098e-08
5.20685e-06
5.99775e-06
1.17153e-08
6.00322e-06
3.45652e-08
6.00865e-06
4.35578e-08
6.01358e-06
4.77123e-08
6.01846e-06
5.01931e-08
6.02332e-06
5.16919e-08
6.02806e-06
5.21382e-08
6.03265e-06
5.17516e-08
6.03712e-06
5.07836e-08
6.04153e-06
4.93957e-08
6.04585e-06
4.75997e-08
6.05001e-06
4.53743e-08
6.05389e-06
4.28026e-08
6.05747e-06
4.00841e-08
6.06081e-06
3.73647e-08
6.06397e-06
3.46592e-08
6.06693e-06
3.19464e-08
2.92024e-08
6.06963e-06
6.99614e-06
9.85293e-09
7.00149e-06
2.94685e-08
7.00717e-06
3.80598e-08
7.01255e-06
4.24372e-08
7.01789e-06
4.49336e-08
7.02322e-06
4.6407e-08
7.02846e-06
4.69173e-08
7.03357e-06
4.66269e-08
7.03858e-06
4.57721e-08
7.04351e-06
4.44829e-08
7.04832e-06
4.28102e-08
7.05294e-06
4.07789e-08
7.05729e-06
3.84766e-08
7.06135e-06
3.60424e-08
7.06515e-06
3.35699e-08
7.06871e-06
3.10971e-08
7.07204e-06
2.86244e-08
2.61577e-08
7.07508e-06
8.1608e-06
8.16023e-09
8.16594e-06
2.44993e-08
8.17178e-06
3.23513e-08
8.17759e-06
3.67089e-08
8.1834e-06
3.91784e-08
8.18923e-06
4.06039e-08
8.19499e-06
4.11212e-08
8.20067e-06
4.09311e-08
8.20624e-06
4.01771e-08
8.21171e-06
3.90136e-08
8.21704e-06
3.74958e-08
8.22215e-06
3.56841e-08
8.22699e-06
3.36543e-08
8.23154e-06
3.15071e-08
8.2358e-06
2.93116e-08
8.23979e-06
2.71078e-08
8.24351e-06
2.49125e-08
2.27471e-08
8.24692e-06
9.51938e-06
6.5274e-09
9.52431e-06
1.97211e-08
9.53023e-06
2.65393e-08
9.53641e-06
3.06063e-08
9.5427e-06
3.29456e-08
9.54903e-06
3.42421e-08
9.55537e-06
3.47606e-08
9.56164e-06
3.46147e-08
9.56782e-06
3.39774e-08
9.57387e-06
3.29516e-08
9.57975e-06
3.16226e-08
9.58538e-06
3.00489e-08
9.59074e-06
2.83056e-08
9.59579e-06
2.6458e-08
9.60054e-06
2.45661e-08
9.60499e-06
2.26652e-08
9.60913e-06
2.07795e-08
1.89335e-08
9.61294e-06
1.11043e-05
5.02128e-09
1.11089e-05
1.51818e-08
1.11149e-05
2.06989e-08
1.11214e-05
2.41949e-08
1.11281e-05
2.62113e-08
1.1135e-05
2.7341e-08
1.1142e-05
2.77716e-08
1.11489e-05
2.76653e-08
1.11557e-05
2.71307e-08
1.11624e-05
2.62653e-08
1.11688e-05
2.51469e-08
1.11751e-05
2.38363e-08
1.1181e-05
2.23897e-08
1.11866e-05
2.08633e-08
1.11918e-05
1.92978e-08
1.11968e-05
1.77296e-08
1.12014e-05
1.61795e-08
1.46666e-08
1.12057e-05
1.29531e-05
3.58613e-09
1.29576e-05
1.08357e-08
1.29635e-05
1.48478e-08
1.29703e-05
1.74711e-08
1.29776e-05
1.90176e-08
1.2985e-05
1.9845e-08
1.29926e-05
2.01496e-08
1.30002e-05
2.004e-08
1.30078e-05
1.95998e-08
1.30151e-05
1.89039e-08
1.30223e-05
1.80145e-08
1.30291e-05
1.69824e-08
1.30357e-05
1.58531e-08
1.30419e-05
1.46646e-08
1.30477e-05
1.34513e-08
1.30532e-05
1.22388e-08
1.30583e-05
1.10442e-08
9.88652e-09
1.30631e-05
1.51099e-05
2.19343e-09
1.51142e-05
6.61993e-09
1.51203e-05
8.8686e-09
1.51274e-05
1.04177e-08
1.51352e-05
1.12666e-08
1.51433e-05
1.16985e-08
1.51517e-05
1.18011e-08
1.51601e-05
1.16495e-08
1.51684e-05
1.12892e-08
1.51765e-05
1.07685e-08
1.51844e-05
1.01247e-08
1.5192e-05
9.39294e-09
1.51993e-05
8.60134e-09
1.52062e-05
7.77519e-09
1.52127e-05
6.93667e-09
1.52188e-05
6.10386e-09
1.52246e-05
5.2866e-09
4.50302e-09
1.523e-05
1.76259e-05
7.70752e-10
1.76302e-05
2.29115e-09
1.76366e-05
2.57276e-09
1.76442e-05
2.78828e-09
1.76527e-05
2.77762e-09
1.76617e-05
2.68761e-09
1.7671e-05
2.52236e-09
1.76804e-05
2.29796e-09
1.76896e-05
2.01414e-09
1.76987e-05
1.68509e-09
1.77076e-05
1.31217e-09
1.7716e-05
9.12378e-10
1.77241e-05
4.88324e-10
1.77319e-05
5.71121e-11
1.77392e-05
-3.77654e-10
1.77461e-05
-8.01205e-10
1.77526e-05
-1.21508e-09
-1.60025e-09
1.77587e-05
1.78275e-05
-6.07116e-10
1.78316e-05
-1.86476e-09
1.78377e-05
-3.55519e-09
1.78452e-05
-4.71461e-09
1.78536e-05
-5.62514e-09
1.78625e-05
-6.25667e-09
1.78717e-05
-6.68573e-09
1.7881e-05
-6.97622e-09
1.78901e-05
-7.16536e-09
1.78991e-05
-7.29503e-09
1.79078e-05
-7.3811e-09
1.79162e-05
-7.45216e-09
1.79242e-05
-7.50412e-09
1.79318e-05
-7.55451e-09
1.7939e-05
-7.59255e-09
1.79458e-05
-7.62773e-09
1.79522e-05
-7.65339e-09
-7.66341e-09
1.79583e-05
1.58826e-05
-1.87191e-09
1.58862e-05
-5.6495e-09
1.58917e-05
-9.19212e-09
1.58986e-05
-1.16196e-08
1.59062e-05
-1.33149e-08
1.59143e-05
-1.43887e-08
1.59227e-05
-1.50151e-08
1.5931e-05
-1.53215e-08
1.59392e-05
-1.53866e-08
1.59472e-05
-1.52944e-08
1.59549e-05
-1.51051e-08
1.59623e-05
-1.48508e-08
1.59694e-05
-1.45679e-08
1.59761e-05
-1.42611e-08
1.59824e-05
-1.39533e-08
1.59885e-05
-1.36379e-08
1.59941e-05
-1.33302e-08
-1.30112e-08
1.59995e-05
1.41498e-05
-3.09177e-09
1.41533e-05
-9.25698e-09
1.41586e-05
-1.46359e-08
1.41652e-05
-1.82278e-08
1.41724e-05
-2.05979e-08
1.418e-05
-2.20009e-08
1.41877e-05
-2.27391e-08
1.41954e-05
-2.29845e-08
1.42029e-05
-2.28842e-08
1.42101e-05
-2.25454e-08
1.42171e-05
-2.20612e-08
1.42237e-05
-2.14937e-08
1.42301e-05
-2.08783e-08
1.4236e-05
-2.02467e-08
1.42417e-05
-1.96113e-08
1.4247e-05
-1.89852e-08
1.42521e-05
-1.83719e-08
-1.77649e-08
1.42568e-05
1.26062e-05
-4.23685e-09
1.26095e-05
-1.28594e-08
1.26149e-05
-2.01439e-08
1.26214e-05
-2.47896e-08
1.26285e-05
-2.76397e-08
1.26357e-05
-2.92525e-08
1.2643e-05
-3.00153e-08
1.26501e-05
-3.01343e-08
1.26571e-05
-2.97876e-08
1.26637e-05
-2.91658e-08
1.267e-05
-2.83751e-08
1.2676e-05
-2.74939e-08
1.26817e-05
-2.65605e-08
1.26871e-05
-2.56188e-08
1.26921e-05
-2.46799e-08
1.26969e-05
-2.37689e-08
1.27014e-05
-2.28798e-08
-2.20151e-08
1.27057e-05
1.12308e-05
-5.34837e-09
1.12343e-05
-1.64577e-08
1.124e-05
-2.58232e-08
1.12465e-05
-3.13028e-08
1.12534e-05
-3.45244e-08
1.12603e-05
-3.6275e-08
1.12672e-05
-3.69696e-08
1.1274e-05
-3.6838e-08
1.12804e-05
-3.61962e-08
1.12865e-05
-3.5253e-08
1.12923e-05
-3.41416e-08
1.12977e-05
-3.29289e-08
1.13029e-05
-3.16894e-08
1.13077e-05
-3.04444e-08
1.13122e-05
-2.92355e-08
1.13165e-05
-2.80532e-08
1.13206e-05
-2.6924e-08
-2.5819e-08
1.13244e-05
1.00055e-05
-6.21053e-09
1.0009e-05
-2.02848e-08
1.00151e-05
-3.19956e-08
1.00218e-05
-3.80551e-08
1.00285e-05
-4.12734e-08
1.00352e-05
-4.30512e-08
1.00418e-05
-4.35698e-08
1.00481e-05
-4.31671e-08
1.00541e-05
-4.21827e-08
1.00597e-05
-4.0884e-08
1.0065e-05
-3.9427e-08
1.007e-05
-3.78953e-08
1.00746e-05
-3.63433e-08
1.0079e-05
-3.48206e-08
1.00831e-05
-3.33373e-08
1.0087e-05
-3.19198e-08
1.00906e-05
-3.05565e-08
-2.92553e-08
1.0094e-05
8.91366e-06
-7.00582e-09
8.91756e-06
-2.42289e-08
8.92394e-06
-3.83086e-08
8.93058e-06
-4.45258e-08
8.93719e-06
-4.79885e-08
8.94378e-06
-4.97192e-08
8.95006e-06
-4.9981e-08
8.95599e-06
-4.91326e-08
8.96157e-06
-4.77474e-08
8.96678e-06
-4.61356e-08
8.97168e-06
-4.43407e-08
8.97626e-06
-4.24832e-08
8.98053e-06
-4.06251e-08
8.98453e-06
-3.88173e-08
8.98827e-06
-3.7086e-08
8.99179e-06
-3.54312e-08
8.99507e-06
-3.38567e-08
-3.23436e-08
8.99817e-06
7.94072e-06
-6.97739e-09
7.94546e-06
-2.91522e-08
7.95186e-06
-4.48299e-08
7.95814e-06
-5.10202e-08
7.96471e-06
-5.45052e-08
7.97124e-06
-5.63055e-08
7.97745e-06
-5.61742e-08
7.98321e-06
-5.49439e-08
7.98855e-06
-5.31884e-08
7.99355e-06
-5.11416e-08
7.99818e-06
-4.89846e-08
8.00247e-06
-4.6777e-08
8.00645e-06
-4.4612e-08
8.01013e-06
-4.25186e-08
8.01355e-06
-4.05222e-08
8.01675e-06
-3.86282e-08
8.01973e-06
-3.68406e-08
-3.51528e-08
8.02253e-06
7.07164e-06
-4.39569e-09
7.07915e-06
-3.65957e-08
7.08598e-06
-5.14765e-08
7.09236e-06
-5.72033e-08
7.09906e-06
-6.12342e-08
7.10572e-06
-6.29794e-08
7.11196e-06
-6.24948e-08
7.11775e-06
-6.0775e-08
7.12308e-06
-5.84903e-08
7.12796e-06
-5.6052e-08
7.13243e-06
-5.34563e-08
7.13648e-06
-5.08548e-08
7.14017e-06
-4.8312e-08
7.14352e-06
-4.58765e-08
7.14657e-06
-4.3579e-08
7.14935e-06
-4.14225e-08
7.1519e-06
-3.93964e-08
-3.74702e-08
7.1542e-06
6.29478e-06
3.43306e-09
6.30618e-06
-4.75911e-08
6.31493e-06
-6.03622e-08
6.32335e-06
-6.56813e-08
6.33169e-06
-6.94598e-08
6.33919e-06
-7.04414e-08
6.34577e-06
-6.90511e-08
6.35161e-06
-6.65538e-08
6.35672e-06
-6.36881e-08
6.36124e-06
-6.05615e-08
6.36518e-06
-5.73839e-08
6.36858e-06
-5.42431e-08
6.37149e-06
-5.12204e-08
6.37396e-06
-4.83644e-08
6.37606e-06
-4.56882e-08
6.37783e-06
-4.32065e-08
6.37934e-06
-4.09114e-08
-3.87994e-08
6.38065e-06
5.61061e-06
7.86747e-09
5.62388e-06
-6.02098e-08
5.63398e-06
-7.0216e-08
5.64514e-06
-7.66842e-08
5.65653e-06
-8.06706e-08
5.6661e-06
-7.99317e-08
5.67358e-06
-7.64649e-08
5.67915e-06
-7.20784e-08
5.68302e-06
-6.75395e-08
5.68549e-06
-6.3019e-08
5.68677e-06
-5.86471e-08
5.68707e-06
-5.45163e-08
5.68653e-06
-5.06786e-08
5.68532e-06
-4.71466e-08
5.68354e-06
-4.39239e-08
5.68135e-06
-4.10197e-08
5.67884e-06
-3.84121e-08
-3.61068e-08
5.67614e-06
5.04366e-06
-3.3302e-08
5.0656e-06
-8.12503e-08
5.07473e-06
-7.89734e-08
5.07916e-06
-8.09128e-08
5.08073e-06
-8.20464e-08
5.07799e-06
-7.70836e-08
5.0713e-06
-6.9674e-08
5.0613e-06
-6.19967e-08
5.04874e-06
-5.49598e-08
5.0344e-06
-4.86668e-08
5.0189e-06
-4.31236e-08
5.00272e-06
-3.83015e-08
4.9862e-06
-3.41388e-08
4.96961e-06
-3.05569e-08
4.95317e-06
-2.7484e-08
4.93703e-06
-2.48915e-08
4.92139e-06
-2.27769e-08
-2.15797e-08
4.90685e-06
4.42329e-06
4.34208e-06
4.26312e-06
4.18223e-06
4.1002e-06
4.02313e-06
3.95346e-06
3.89147e-06
3.83651e-06
3.78785e-06
3.74473e-06
3.70643e-06
3.6723e-06
3.64174e-06
3.61425e-06
3.58936e-06
3.56658e-06
3.545e-06
-7.6059e-09
7.62932e-09
-2.04767e-08
1.29031e-08
-3.43729e-08
1.39286e-08
-4.58264e-08
1.14749e-08
-5.00628e-08
4.25129e-09
-4.23253e-08
-7.6972e-09
-2.17309e-08
-2.06045e-08
9.077e-09
-3.07369e-08
4.559e-08
-3.65404e-08
8.33418e-08
-3.76831e-08
1.18066e-07
-3.47543e-08
1.47101e-07
-2.89833e-08
1.68484e-07
-2.1406e-08
1.81331e-07
-1.28128e-08
1.85118e-07
-3.79725e-09
1.80054e-07
5.08287e-09
1.66905e-07
1.31503e-08
1.47186e-07
1.97302e-08
1.22954e-07
2.42438e-08
9.67334e-08
2.62344e-08
7.1278e-08
2.548e-08
4.91662e-08
2.21367e-08
3.24336e-08
1.67743e-08
2.22855e-08
1.01814e-08
1.93909e-08
2.95215e-09
2.37019e-08
-4.27843e-09
3.52393e-08
-1.14852e-08
5.34425e-08
-1.81699e-08
7.61321e-08
-2.2657e-08
9.84967e-08
-2.23287e-08
1.1601e-07
-1.75018e-08
1.27606e-07
-1.15652e-08
1.34424e-07
-6.84365e-09
1.39304e-07
-4.83515e-09
1.39284e-07
-6.62975e-11
1.25512e-07
1.39173e-08
9.00867e-08
3.53491e-08
2.88584e-08
6.14178e-08
-5.68833e-08
8.58521e-08
-1.64243e-07
1.07312e-07
-2.9043e-07
1.26355e-07
-4.32015e-07
1.41387e-07
-5.80975e-07
1.49043e-07
-7.32694e-07
1.51607e-07
-8.83493e-07
1.50826e-07
-1.03146e-06
1.47964e-07
-1.17401e-06
1.42582e-07
-1.30884e-06
1.34838e-07
-1.43449e-06
1.2568e-07
-1.54837e-06
1.1387e-07
-1.6507e-06
1.02347e-07
-1.74342e-06
9.27087e-08
-1.82755e-06
8.4151e-08
-1.90413e-06
7.65717e-08
-1.97263e-06
6.85194e-08
-2.03346e-06
6.08359e-08
-2.08874e-06
5.5295e-08
-2.13951e-06
5.07825e-08
-2.18592e-06
4.64267e-08
-2.22866e-06
4.27547e-08
-2.26826e-06
3.96173e-08
-2.30513e-06
3.68954e-08
-2.33965e-06
3.45401e-08
-2.3721e-06
3.2479e-08
-2.40275e-06
3.06635e-08
-2.43176e-06
2.90543e-08
-2.45936e-06
2.76109e-08
-2.48562e-06
2.63101e-08
-2.51074e-06
2.51185e-08
-2.53472e-06
2.40275e-08
-2.55772e-06
2.30072e-08
-2.57973e-06
2.2056e-08
-2.60088e-06
2.1148e-08
-2.62112e-06
2.02902e-08
-2.64058e-06
1.94542e-08
-2.65919e-06
1.8653e-08
-2.67706e-06
1.78595e-08
-2.69411e-06
1.70892e-08
-2.71046e-06
1.63159e-08
-2.72599e-06
1.5557e-08
-2.74082e-06
1.47868e-08
-2.75484e-06
1.40226e-08
-2.76812e-06
1.32391e-08
-2.78058e-06
1.24517e-08
-2.79227e-06
1.16363e-08
-2.80309e-06
1.0807e-08
-2.81308e-06
9.94496e-09
-2.82216e-06
9.06045e-09
-2.83035e-06
8.13655e-09
-2.83757e-06
7.17855e-09
-2.84376e-06
6.16375e-09
-2.84884e-06
5.09164e-09
-2.85276e-06
3.94167e-09
-2.85546e-06
2.70054e-09
-2.85685e-06
1.37293e-09
-2.85691e-06
2.13517e-11
-2.85578e-06
-1.18501e-09
-2.85359e-06
-2.26232e-09
-2.85035e-06
-3.32042e-09
-2.84604e-06
-4.39325e-09
-2.84062e-06
-5.47952e-09
-2.8341e-06
-6.59902e-09
-2.82642e-06
-7.73445e-09
-2.81757e-06
-8.90672e-09
-2.80751e-06
-1.00934e-08
-2.79624e-06
-1.13174e-08
-2.7837e-06
-1.25533e-08
-2.76989e-06
-1.38255e-08
-2.75477e-06
-1.51065e-08
-2.73835e-06
-1.64214e-08
-2.72056e-06
-1.7742e-08
-2.70144e-06
-1.90924e-08
-2.68092e-06
-2.04451e-08
-2.65903e-06
-2.18222e-08
-2.63573e-06
-2.31983e-08
-2.61104e-06
-2.45914e-08
-2.58494e-06
-2.59804e-08
-2.55743e-06
-2.73777e-08
-2.52851e-06
-2.87676e-08
-2.4982e-06
-3.0156e-08
-2.4665e-06
-3.1534e-08
-2.43343e-06
-3.28999e-08
-2.399e-06
-3.42526e-08
-2.36323e-06
-3.55825e-08
-2.32616e-06
-3.68964e-08
-2.28779e-06
-3.81771e-08
-2.2482e-06
-3.94388e-08
-2.20737e-06
-4.0658e-08
-2.16538e-06
-4.18517e-08
-2.12225e-06
-4.30134e-08
-2.07807e-06
-4.41463e-08
-2.03281e-06
-4.52273e-08
-1.98653e-06
-4.62586e-08
-1.93923e-06
-4.72255e-08
-1.89102e-06
-4.8152e-08
-1.84194e-06
-4.90252e-08
-1.7921e-06
-4.98845e-08
-1.74148e-06
-5.06814e-08
-1.69011e-06
-5.14495e-08
-1.638e-06
-5.2143e-08
-1.58522e-06
-5.28028e-08
-1.53185e-06
-5.3409e-08
-1.47795e-06
-5.39889e-08
-1.42353e-06
-5.45247e-08
-1.36865e-06
-5.50278e-08
-1.31332e-06
-5.54831e-08
-1.25759e-06
-5.58967e-08
-1.20147e-06
-5.62645e-08
-1.145e-06
-5.65931e-08
-1.0882e-06
-5.68858e-08
-1.03111e-06
-5.71443e-08
-9.73765e-07
-5.73735e-08
-9.16198e-07
-5.75723e-08
-8.58439e-07
-5.77474e-08
-8.00513e-07
-5.78951e-08
-7.42451e-07
-5.8023e-08
-6.84269e-07
-5.81258e-08
-6.25999e-07
-5.82122e-08
-5.67649e-07
-5.82761e-08
-5.09253e-07
-5.83268e-08
-4.50811e-07
-5.83577e-08
-3.92358e-07
-5.83783e-08
-3.33888e-07
-5.83809e-08
-2.75432e-07
-5.83775e-08
-2.16974e-07
-5.83667e-08
-1.58545e-07
-5.83516e-08
-1.00135e-07
-5.83209e-08
-4.18141e-08
-5.8247e-08
1.63509e-08
-5.80824e-08
7.4402e-08
-5.7985e-08
1.32341e-07
-5.78664e-08
1.89985e-07
-5.75819e-08
2.47221e-07
-5.71673e-08
3.03816e-07
-5.65329e-08
3.59402e-07
-5.55188e-08
4.13287e-07
-5.38198e-08
4.64225e-07
-5.08725e-08
5.09458e-07
-4.51721e-08
5.45252e-07
-3.57396e-08
3.27754e-09
5.4203e-07
-3.69376e-09
1.13637e-08
-9.62371e-09
1.89056e-08
-1.14217e-08
1.57961e-08
-1.88502e-09
1.99872e-09
2.24358e-08
-2.00372e-08
5.94924e-08
-4.47087e-08
1.04058e-07
-6.51683e-08
1.50648e-07
-7.72828e-08
1.94566e-07
-8.04652e-08
2.33055e-07
-7.61322e-08
2.64673e-07
-6.63799e-08
2.88958e-07
-5.32376e-08
3.05851e-07
-3.83052e-08
3.1576e-07
-2.27017e-08
3.19178e-07
-7.21719e-09
3.16683e-07
7.58939e-09
3.0855e-07
2.12857e-08
2.94934e-07
3.33519e-08
2.76131e-07
4.30557e-08
2.52832e-07
4.95427e-08
2.26359e-07
5.19704e-08
1.98778e-07
4.97359e-08
1.72834e-07
4.27486e-08
1.51556e-07
3.14858e-08
1.37553e-07
1.69994e-08
1.32671e-07
6.36136e-10
1.36453e-07
-1.52236e-08
1.44836e-07
-2.65234e-08
1.51843e-07
-2.96323e-08
1.51644e-07
-2.20981e-08
1.40592e-07
-6.4435e-09
1.14658e-07
1.44066e-08
6.58798e-08
4.19029e-08
-1.46831e-08
7.5772e-08
-1.28417e-07
1.13639e-07
-2.67033e-07
1.52591e-07
-4.21649e-07
1.89971e-07
-5.84524e-07
2.24317e-07
-7.51667e-07
2.53011e-07
-9.18904e-07
2.74509e-07
-1.08114e-06
2.88599e-07
-1.23424e-06
2.94414e-07
-1.37652e-06
2.91335e-07
-1.50598e-06
2.81051e-07
-1.6215e-06
2.66369e-07
-1.72236e-06
2.48844e-07
-1.80936e-06
2.29596e-07
-1.88399e-06
2.09475e-07
-1.94768e-06
1.89377e-07
-2.00352e-06
1.69704e-07
-2.05283e-06
1.51657e-07
-2.09606e-06
1.3593e-07
-2.13419e-06
1.22291e-07
-2.16814e-06
1.10513e-07
-2.19961e-06
1.00002e-07
-2.22954e-06
9.07646e-08
-2.25735e-06
8.31132e-08
-2.28323e-06
7.66766e-08
-2.30782e-06
7.10255e-08
-2.33119e-06
6.61322e-08
-2.35344e-06
6.18883e-08
-2.3747e-06
5.81745e-08
-2.39505e-06
5.49028e-08
-2.41454e-06
5.19935e-08
-2.43325e-06
4.9383e-08
-2.45118e-06
4.70192e-08
-2.46842e-06
4.48568e-08
-2.48494e-06
4.28619e-08
-2.50081e-06
4.10022e-08
-2.51601e-06
3.92546e-08
-2.53059e-06
3.75949e-08
-2.54451e-06
3.60107e-08
-2.55783e-06
3.44805e-08
-2.57052e-06
3.29974e-08
-2.5826e-06
3.15444e-08
-2.59404e-06
3.01183e-08
-2.60488e-06
2.87032e-08
-2.61508e-06
2.72993e-08
-2.62466e-06
2.58922e-08
-2.63358e-06
2.44838e-08
-2.64187e-06
2.30601e-08
-2.64949e-06
2.16241e-08
-2.65644e-06
2.01621e-08
-2.66268e-06
1.86768e-08
-2.66823e-06
1.71556e-08
-2.67304e-06
1.56017e-08
-2.67713e-06
1.40059e-08
-2.68047e-06
1.23705e-08
-2.68306e-06
1.06946e-08
-2.68488e-06
8.96441e-09
-2.68591e-06
7.18347e-09
-2.68616e-06
5.34627e-09
-2.68566e-06
3.45306e-09
-2.68448e-06
1.52319e-09
-2.68271e-06
-4.2005e-10
-2.68037e-06
-2.35295e-09
-2.6773e-06
-4.31288e-09
-2.67329e-06
-6.33121e-09
-2.66828e-06
-8.39844e-09
-2.66222e-06
-1.05102e-08
-2.65509e-06
-1.26717e-08
-2.64685e-06
-1.48835e-08
-2.63749e-06
-1.71468e-08
-2.62697e-06
-1.94622e-08
-2.61528e-06
-2.18277e-08
-2.60237e-06
-2.42441e-08
-2.58824e-06
-2.67068e-08
-2.57286e-06
-2.92176e-08
-2.5562e-06
-3.17692e-08
-2.53824e-06
-3.43641e-08
-2.51897e-06
-3.69928e-08
-2.49837e-06
-3.96585e-08
-2.47643e-06
-4.23493e-08
-2.45313e-06
-4.50687e-08
-2.42846e-06
-4.78032e-08
-2.40242e-06
-5.0556e-08
-2.375e-06
-5.33126e-08
-2.34621e-06
-5.60757e-08
-2.31604e-06
-5.88301e-08
-2.2845e-06
-6.15774e-08
-2.25161e-06
-6.43036e-08
-2.21739e-06
-6.7008e-08
-2.18183e-06
-6.96786e-08
-2.14498e-06
-7.23127e-08
-2.10684e-06
-7.4901e-08
-2.06746e-06
-7.74387e-08
-2.02686e-06
-7.99195e-08
-1.98508e-06
-8.23368e-08
-1.94214e-06
-8.46894e-08
-1.89811e-06
-8.69802e-08
-1.85303e-06
-8.91979e-08
-1.80692e-06
-9.13246e-08
-1.75981e-06
-9.33498e-08
-1.71172e-06
-9.5266e-08
-1.66272e-06
-9.70893e-08
-1.6129e-06
-9.8831e-08
-1.56231e-06
-1.00503e-07
-1.51095e-06
-1.02081e-07
-1.45887e-06
-1.0357e-07
-1.40607e-06
-1.04957e-07
-1.35263e-06
-1.06258e-07
-1.29859e-06
-1.07466e-07
-1.24403e-06
-1.08604e-07
-1.18897e-06
-1.0966e-07
-1.13344e-06
-1.10646e-07
-1.07747e-06
-1.11546e-07
-1.0211e-06
-1.12367e-07
-9.64342e-07
-1.13102e-07
-9.07236e-07
-1.13766e-07
-8.49807e-07
-1.14357e-07
-7.92093e-07
-1.14887e-07
-7.34121e-07
-1.15353e-07
-6.75926e-07
-1.15767e-07
-6.17533e-07
-1.16125e-07
-5.58971e-07
-1.16437e-07
-5.00264e-07
-1.167e-07
-4.41433e-07
-1.16924e-07
-3.82501e-07
-1.17104e-07
-3.23486e-07
-1.1725e-07
-2.64408e-07
-1.1736e-07
-2.0528e-07
-1.1744e-07
-1.46122e-07
-1.1749e-07
-8.69419e-08
-1.17515e-07
-2.7766e-08
-1.17508e-07
3.13949e-08
-1.17483e-07
9.05351e-08
-1.17451e-07
1.49664e-07
-1.17409e-07
2.0879e-07
-1.17336e-07
2.67952e-07
-1.17207e-07
3.27002e-07
-1.17003e-07
3.85831e-07
-1.16661e-07
4.44404e-07
-1.16123e-07
5.02604e-07
-1.15335e-07
5.60238e-07
-1.14135e-07
6.16988e-07
-1.12235e-07
6.72335e-07
-1.09134e-07
7.25303e-07
-1.03806e-07
7.74724e-07
-9.45617e-08
8.1692e-07
-7.79062e-08
-3.34115e-08
8.53642e-07
-1.57259e-10
1.15551e-08
4.16121e-09
1.46654e-08
2.30481e-08
-3.04489e-09
6.19053e-08
-3.68192e-08
1.15835e-07
-7.39566e-08
1.73963e-07
-1.0281e-07
2.27114e-07
-1.18318e-07
2.70703e-07
-1.20844e-07
3.03613e-07
-1.13376e-07
3.26846e-07
-9.93393e-08
3.42014e-07
-8.15487e-08
3.50764e-07
-6.19671e-08
3.54309e-07
-4.18499e-08
3.53581e-07
-2.19603e-08
3.49144e-07
-2.77808e-09
3.41487e-07
1.52545e-08
3.31037e-07
3.17378e-08
3.18134e-07
4.62593e-08
3.02902e-07
5.82921e-08
2.85313e-07
6.7139e-08
2.65404e-07
7.18896e-08
2.43711e-07
7.1441e-08
2.21584e-07
6.48961e-08
2.01124e-07
5.19652e-08
1.84508e-07
3.36465e-08
1.72409e-07
1.27588e-08
1.5915e-07
-1.93148e-09
1.3302e-07
-3.70148e-10
8.76293e-08
1.57859e-08
2.17934e-08
4.37609e-08
-6.78407e-08
8.32089e-08
-1.83487e-07
1.30066e-07
-3.21269e-07
1.79687e-07
-4.75152e-07
2.29671e-07
-6.38355e-07
2.76843e-07
-8.03582e-07
3.17833e-07
-9.64114e-07
3.50513e-07
-1.11378e-06
3.73978e-07
-1.24873e-06
3.8796e-07
-1.36681e-06
3.92545e-07
-1.46686e-06
3.8863e-07
-1.54963e-06
3.77166e-07
-1.61778e-06
3.59475e-07
-1.67431e-06
3.37586e-07
-1.72152e-06
3.13596e-07
-1.76153e-06
2.88872e-07
-1.79632e-06
2.64393e-07
-1.82765e-06
2.4081e-07
-1.85687e-06
2.18598e-07
-1.88525e-06
1.98083e-07
-1.91317e-06
1.79578e-07
-1.94042e-06
1.63176e-07
-1.9669e-06
1.4877e-07
-1.99257e-06
1.3618e-07
-2.01768e-06
1.25113e-07
-2.04231e-06
1.15393e-07
-2.06616e-06
1.06967e-07
-2.08913e-06
9.96515e-08
-2.11131e-06
9.32147e-08
-2.13271e-06
8.75371e-08
-2.15332e-06
8.25111e-08
-2.17317e-06
7.80332e-08
-2.19227e-06
7.40158e-08
-2.21065e-06
7.03836e-08
-2.22832e-06
6.70727e-08
-2.24532e-06
6.40292e-08
-2.26165e-06
6.1208e-08
-2.27734e-06
5.85703e-08
-2.29241e-06
5.60832e-08
-2.30686e-06
5.3721e-08
-2.32071e-06
5.14585e-08
-2.33396e-06
4.92761e-08
-2.34663e-06
4.71564e-08
-2.3587e-06
4.50857e-08
-2.37019e-06
4.30484e-08
-2.38109e-06
4.10354e-08
-2.39142e-06
3.90341e-08
-2.40115e-06
3.70374e-08
-2.41029e-06
3.50349e-08
-2.41883e-06
3.30211e-08
-2.42677e-06
3.09866e-08
-2.43408e-06
2.89272e-08
-2.44077e-06
2.68341e-08
-2.44682e-06
2.47037e-08
-2.45221e-06
2.25284e-08
-2.45693e-06
2.03057e-08
-2.46097e-06
1.80301e-08
-2.46432e-06
1.57022e-08
-2.46697e-06
1.33162e-08
-2.4689e-06
1.08746e-08
-2.47009e-06
8.36711e-09
-2.47054e-06
5.79502e-09
-2.47025e-06
3.16297e-09
-2.46921e-06
4.75468e-10
-2.46739e-06
-2.26086e-09
-2.46473e-06
-5.05084e-09
-2.46116e-06
-7.92251e-09
-2.45666e-06
-1.08837e-08
-2.45118e-06
-1.39291e-08
-2.44468e-06
-1.70499e-08
-2.43715e-06
-2.02513e-08
-2.42854e-06
-2.35271e-08
-2.41885e-06
-2.6884e-08
-2.40802e-06
-3.03143e-08
-2.39606e-06
-3.38239e-08
-2.38292e-06
-3.74035e-08
-2.36859e-06
-4.10582e-08
-2.35303e-06
-4.47773e-08
-2.33625e-06
-4.85644e-08
-2.31819e-06
-5.2408e-08
-2.29887e-06
-5.63099e-08
-2.27825e-06
-6.0258e-08
-2.25632e-06
-6.4252e-08
-2.23307e-06
-6.82795e-08
-2.2085e-06
-7.23377e-08
-2.18259e-06
-7.64144e-08
-2.15534e-06
-8.05041e-08
-2.12675e-06
-8.45951e-08
-2.09683e-06
-8.86794e-08
-2.06558e-06
-9.27463e-08
-2.03302e-06
-9.67856e-08
-1.99915e-06
-1.00788e-07
-1.964e-06
-1.04741e-07
-1.92759e-06
-1.08637e-07
-1.88993e-06
-1.12465e-07
-1.85107e-06
-1.16216e-07
-1.81102e-06
-1.19881e-07
-1.76983e-06
-1.23452e-07
-1.72752e-06
-1.26925e-07
-1.68416e-06
-1.303e-07
-1.63977e-06
-1.33562e-07
-1.59438e-06
-1.36693e-07
-1.54802e-06
-1.39678e-07
-1.50072e-06
-1.42511e-07
-1.45255e-06
-1.45207e-07
-1.40358e-06
-1.47784e-07
-1.35384e-06
-1.50244e-07
-1.30336e-06
-1.52574e-07
-1.25217e-06
-1.54769e-07
-1.2003e-06
-1.56827e-07
-1.14779e-06
-1.58751e-07
-1.09472e-06
-1.60549e-07
-1.04111e-06
-1.62233e-07
-9.87016e-07
-1.63802e-07
-9.32455e-07
-1.6526e-07
-8.77459e-07
-1.66601e-07
-8.22057e-07
-1.67827e-07
-7.66277e-07
-1.68937e-07
-7.10147e-07
-1.69939e-07
-6.53698e-07
-1.70839e-07
-5.96962e-07
-1.71646e-07
-5.3997e-07
-1.72364e-07
-4.82749e-07
-1.72999e-07
-4.25327e-07
-1.73557e-07
-3.67728e-07
-1.74041e-07
-3.09977e-07
-1.74457e-07
-2.52095e-07
-1.74807e-07
-1.94105e-07
-1.75098e-07
-1.36023e-07
-1.75332e-07
-7.78709e-08
-1.75515e-07
-1.96624e-08
-1.75647e-07
3.85814e-08
-1.75736e-07
9.68518e-08
-1.75784e-07
1.55139e-07
-1.75798e-07
2.13439e-07
-1.75781e-07
2.71731e-07
-1.75745e-07
3.30008e-07
-1.75684e-07
3.88261e-07
-1.7559e-07
4.46481e-07
-1.75423e-07
5.04604e-07
-1.75124e-07
5.62573e-07
-1.74625e-07
6.20327e-07
-1.73873e-07
6.77763e-07
-1.72763e-07
7.34716e-07
-1.71082e-07
7.9094e-07
-1.68449e-07
8.46049e-07
-1.64233e-07
8.99487e-07
-1.57233e-07
9.50579e-07
-1.45644e-07
9.98379e-07
-1.25697e-07
-8.25857e-08
1.04756e-06
8.63648e-11
1.14899e-08
1.91125e-08
-4.29529e-09
6.82386e-08
-5.2159e-08
1.3564e-07
-1.04192e-07
2.02175e-07
-1.40492e-07
2.55478e-07
-1.56091e-07
2.91826e-07
-1.54667e-07
3.13205e-07
-1.42202e-07
3.23527e-07
-1.23699e-07
3.26582e-07
-1.02374e-07
3.25033e-07
-8.00001e-08
3.20574e-07
-5.749e-08
3.14051e-07
-3.53272e-08
3.05927e-07
-1.38222e-08
2.96415e-07
6.7381e-09
2.85601e-07
2.60754e-08
2.7348e-07
4.38651e-08
2.60044e-07
5.96965e-08
2.45325e-07
7.30173e-08
2.29314e-07
8.31525e-08
2.11907e-07
8.93052e-08
1.93013e-07
9.03444e-08
1.73151e-07
8.47753e-08
1.53221e-07
7.19114e-08
1.29576e-07
5.7319e-08
9.1621e-08
5.07359e-08
3.20587e-08
5.76561e-08
-5.00652e-08
8.1772e-08
-1.55362e-07
1.21097e-07
-2.83151e-07
1.71563e-07
-4.28083e-07
2.28147e-07
-5.83127e-07
2.8512e-07
-7.41373e-07
3.37936e-07
-8.95247e-07
3.83554e-07
-1.0376e-06
4.19199e-07
-1.16352e-06
4.43759e-07
-1.27081e-06
4.57805e-07
-1.35892e-06
4.62075e-07
-1.42864e-06
4.57681e-07
-1.48228e-06
4.46163e-07
-1.52272e-06
4.29062e-07
-1.55343e-06
4.07864e-07
-1.5779e-06
3.8394e-07
-1.59894e-06
3.5863e-07
-1.61837e-06
3.33044e-07
-1.63743e-06
3.07937e-07
-1.65687e-06
2.83836e-07
-1.67713e-06
2.61075e-07
-1.69839e-06
2.39862e-07
-1.72065e-06
2.20338e-07
-1.74366e-06
2.0259e-07
-1.76709e-06
1.86598e-07
-1.79061e-06
1.7229e-07
-1.81398e-06
1.59547e-07
-1.83706e-06
1.482e-07
-1.85977e-06
1.381e-07
-1.88194e-06
1.29138e-07
-1.90347e-06
1.21184e-07
-1.92434e-06
1.1409e-07
-1.94453e-06
1.07736e-07
-1.96404e-06
1.02023e-07
-1.98286e-06
9.68584e-08
-2.00099e-06
9.21618e-08
-2.01846e-06
8.78623e-08
-2.03528e-06
8.38984e-08
-2.05145e-06
8.02169e-08
-2.067e-06
7.67717e-08
-2.08195e-06
7.3524e-08
-2.09629e-06
7.044e-08
-2.11005e-06
6.74896e-08
-2.12322e-06
6.4648e-08
-2.13583e-06
6.18946e-08
-2.14787e-06
5.92085e-08
-2.15934e-06
5.65736e-08
-2.17026e-06
5.39753e-08
-2.18061e-06
5.14002e-08
-2.19041e-06
4.88359e-08
-2.19964e-06
4.62721e-08
-2.2083e-06
4.36984e-08
-2.21639e-06
4.11061e-08
-2.2239e-06
3.84862e-08
-2.23081e-06
3.58313e-08
-2.23712e-06
3.31334e-08
-2.24282e-06
3.03861e-08
-2.24789e-06
2.75825e-08
-2.25232e-06
2.47174e-08
-2.25609e-06
2.17862e-08
-2.25918e-06
1.87855e-08
-2.2616e-06
1.57153e-08
-2.26331e-06
1.25622e-08
-2.26429e-06
9.33493e-09
-2.26452e-06
6.02168e-09
-2.26398e-06
2.62519e-09
-2.26266e-06
-8.56647e-10
-2.26052e-06
-4.4257e-09
-2.25752e-06
-8.09074e-09
-2.25362e-06
-1.18654e-08
-2.24879e-06
-1.57527e-08
-2.24301e-06
-1.97501e-08
-2.23625e-06
-2.38521e-08
-2.22847e-06
-2.80606e-08
-2.21967e-06
-3.2371e-08
-2.20979e-06
-3.67871e-08
-2.19883e-06
-4.13023e-08
-2.18676e-06
-4.59206e-08
-2.17355e-06
-5.06327e-08
-2.15918e-06
-5.54428e-08
-2.14363e-06
-6.03387e-08
-2.12687e-06
-6.53239e-08
-2.1089e-06
-7.03837e-08
-2.08968e-06
-7.55208e-08
-2.06921e-06
-8.0718e-08
-2.04746e-06
-8.59766e-08
-2.02444e-06
-9.12776e-08
-2.00012e-06
-9.66206e-08
-1.97451e-06
-1.01985e-07
-1.9476e-06