/*--------------------------------*- C++ -*----------------------------------*\
  =========                 |
  \\      /  F ield         | OpenFOAM: The Open Source CFD Toolbox
   \\    /   O peration     | Website:  https://openfoam.org
    \\  /    A nd           | Version:  8
     \\/     M anipulation  |
\*---------------------------------------------------------------------------*/
FoamFile
{
    version     2.0;
    format      ascii;
    class       volVectorField;
    location    "2000";
    object      U;
}
// * * * * * * * * * * * * * * * * * * * * * * * * * * * * * * * * * * * * * //

dimensions      [0 1 -1 0 0 0 0];

internalField   nonuniform List<vector> 
12225
(
(9.83905 -0.81323 0)
(9.48463 -0.657164 0)
(9.22846 -0.504309 0)
(8.94534 -0.326021 0)
(8.66818 -0.185288 0)
(8.42159 -0.109369 0)
(8.21186 -0.0720521 0)
(8.03738 -0.0427241 0)
(7.89257 -0.0412893 0)
(7.76652 0.0266482 0)
(7.67934 0.10157 0)
(7.58724 0.126453 0)
(7.51399 0.0636865 0)
(7.41429 -0.0254188 0)
(7.33609 -0.0348278 0)
(7.26569 -0.0483092 0)
(7.19653 0.0167731 0)
(7.18237 0.000177338 0)
(10.0778 0.231923 0)
(10.1624 0.34344 0)
(10.1546 0.331625 0)
(10.1407 0.264921 0)
(10.1056 0.199585 0)
(10.0516 0.1561 0)
(9.99251 0.12208 0)
(9.91663 0.0926097 0)
(9.83521 0.0796091 0)
(9.75807 0.0542243 0)
(9.6385 0.0287069 0)
(9.5303 0.0230389 0)
(9.41417 0.0452422 0)
(9.35327 0.0657502 0)
(9.29545 0.0586308 0)
(9.24263 0.0520862 0)
(9.19815 0.039889 0)
(9.1354 0.051301 0)
(10.0082 0.0704189 0)
(10.0469 0.0652754 0)
(10.0652 0.0252597 0)
(10.0903 0.0154191 0)
(10.1083 0.0267393 0)
(10.122 0.0373322 0)
(10.1291 0.0479312 0)
(10.1271 0.0577127 0)
(10.1159 0.0595962 0)
(10.0997 0.0607752 0)
(10.082 0.0627491 0)
(10.066 0.0625792 0)
(10.0462 0.0577958 0)
(10.0247 0.0542539 0)
(10.0007 0.0572009 0)
(9.97609 0.0567023 0)
(9.95623 0.0582624 0)
(9.94087 0.0566189 0)
(10.0001 0.0182823 0)
(10.0227 0.0403536 0)
(10.0446 0.0431442 0)
(10.0634 0.0542965 0)
(10.0777 0.0661674 0)
(10.0916 0.071132 0)
(10.1033 0.0717787 0)
(10.1123 0.0717064 0)
(10.1179 0.0704146 0)
(10.121 0.0711459 0)
(10.1247 0.0721847 0)
(10.1297 0.071576 0)
(10.1335 0.0675115 0)
(10.1332 0.0618746 0)
(10.1303 0.0592188 0)
(10.1267 0.0575586 0)
(10.1251 0.0595295 0)
(10.1256 0.0572204 0)
(10.0007 0.0127278 0)
(10.0184 0.0456892 0)
(10.0381 0.0519805 0)
(10.0515 0.0553656 0)
(10.0618 0.0593795 0)
(10.0731 0.0613276 0)
(10.0839 0.0620992 0)
(10.0936 0.062858 0)
(10.1019 0.0631423 0)
(10.1091 0.0644933 0)
(10.1168 0.0660581 0)
(10.1252 0.0663828 0)
(10.1328 0.0641071 0)
(10.1378 0.0606019 0)
(10.1409 0.058315 0)
(10.1437 0.0566988 0)
(10.1475 0.0564655 0)
(10.1522 0.054127 0)
(10.0012 0.0135016 0)
(10.0155 0.0432797 0)
(10.0323 0.0477785 0)
(10.0437 0.0491928 0)
(10.053 0.0526839 0)
(10.063 0.0557172 0)
(10.0729 0.0577586 0)
(10.0822 0.0593321 0)
(10.0906 0.0603116 0)
(10.0985 0.061536 0)
(10.1067 0.0626025 0)
(10.1153 0.0625934 0)
(10.1231 0.0608452 0)
(10.1293 0.058351 0)
(10.1343 0.0564285 0)
(10.1391 0.0549206 0)
(10.1443 0.0537606 0)
(10.1496 0.0513145 0)
(10.001 0.0121722 0)
(10.0123 0.0368881 0)
(10.0268 0.0423855 0)
(10.0377 0.0450238 0)
(10.0467 0.0487477 0)
(10.0559 0.0519426 0)
(10.065 0.054117 0)
(10.0738 0.0556766 0)
(10.082 0.0567218 0)
(10.0899 0.0577008 0)
(10.098 0.0583821 0)
(10.1061 0.0581932 0)
(10.1137 0.0568339 0)
(10.1202 0.0549593 0)
(10.1258 0.0532826 0)
(10.1312 0.0517624 0)
(10.1367 0.0501949 0)
(10.1419 0.0478161 0)
(10.0008 0.0104481 0)
(10.0097 0.0311581 0)
(10.022 0.0382537 0)
(10.0325 0.0419996 0)
(10.0414 0.0456859 0)
(10.0502 0.0487765 0)
(10.0591 0.0509503 0)
(10.0678 0.0524581 0)
(10.076 0.0534452 0)
(10.0839 0.0541581 0)
(10.0917 0.0544968 0)
(10.0993 0.0541692 0)
(10.1064 0.0530719 0)
(10.1128 0.0516038 0)
(10.1186 0.0501308 0)
(10.1242 0.0486238 0)
(10.1296 0.0469118 0)
(10.1347 0.0446699 0)
(10.0007 0.00916254 0)
(10.0082 0.0278275 0)
(10.019 0.0351188 0)
(10.0289 0.0390918 0)
(10.0376 0.0425354 0)
(10.046 0.045439 0)
(10.0544 0.0475612 0)
(10.0627 0.0490614 0)
(10.0707 0.0500918 0)
(10.0784 0.0508053 0)
(10.0859 0.0511099 0)
(10.0933 0.0508006 0)
(10.1002 0.049841 0)
(10.1065 0.0485295 0)
(10.1124 0.0471277 0)
(10.1179 0.0456332 0)
(10.1232 0.0439251 0)
(10.1281 0.0418269 0)
(10.0006 0.00795319 0)
(10.007 0.0244683 0)
(10.0163 0.0316412 0)
(10.0255 0.0357663 0)
(10.0337 0.0390591 0)
(10.0417 0.0418233 0)
(10.0497 0.0438849 0)
(10.0576 0.0453468 0)
(10.0653 0.0463563 0)
(10.0727 0.0470114 0)
(10.08 0.0472473 0)
(10.087 0.0469431 0)
(10.0937 0.0461075 0)
(10.0999 0.0449472 0)
(10.1056 0.0436343 0)
(10.1111 0.042184 0)
(10.1162 0.0405303 0)
(10.121 0.0385939 0)
(10.0005 0.00678811 0)
(10.0058 0.0210102 0)
(10.0137 0.0278731 0)
(10.0221 0.0320888 0)
(10.0299 0.0352781 0)
(10.0375 0.0378924 0)
(10.045 0.0398593 0)
(10.0525 0.0412476 0)
(10.0598 0.0421891 0)
(10.0669 0.0427538 0)
(10.0739 0.0429115 0)
(10.0806 0.0426083 0)
(10.087 0.0418756 0)
(10.093 0.0408477 0)
(10.0986 0.0396349 0)
(10.1039 0.0382619 0)
(10.1089 0.0367096 0)
(10.1134 0.0349486 0)
(10.0004 0.00567334 0)
(10.0047 0.01769 0)
(10.0115 0.0240102 0)
(10.0189 0.028136 0)
(10.0262 0.0311664 0)
(10.0334 0.0335865 0)
(10.0405 0.0354021 0)
(10.0475 0.0366867 0)
(10.0545 0.0375316 0)
(10.0613 0.0380009 0)
(10.0679 0.0380914 0)
(10.0743 0.0377921 0)
(10.0804 0.0371412 0)
(10.0861 0.0362262 0)
(10.0915 0.03512 0)
(10.0966 0.0338539 0)
(10.1013 0.0324329 0)
(10.1057 0.030861 0)
(10.0004 0.00462944 0)
(10.0038 0.0144793 0)
(10.0095 0.0200559 0)
(10.0161 0.0238982 0)
(10.0228 0.0266965 0)
(10.0295 0.0288664 0)
(10.0361 0.0304886 0)
(10.0428 0.0316295 0)
(10.0494 0.032357 0)
(10.0558 0.0327282 0)
(10.0621 0.0327589 0)
(10.0681 0.0324633 0)
(10.0739 0.0318787 0)
(10.0794 0.031065 0)
(10.0845 0.0300708 0)
(10.0894 0.0289329 0)
(10.0939 0.0276635 0)
(10.0981 0.0262877 0)
(10.0003 0.00364249 0)
(10.003 0.0114173 0)
(10.0078 0.0160664 0)
(10.0136 0.0194259 0)
(10.0197 0.0218661 0)
(10.0259 0.023722 0)
(10.0321 0.0250977 0)
(10.0384 0.0260477 0)
(10.0446 0.0266361 0)
(10.0507 0.0269021 0)
(10.0567 0.0268764 0)
(10.0624 0.0265829 0)
(10.0678 0.0260551 0)
(10.073 0.0253338 0)
(10.0779 0.0244585 0)
(10.0825 0.0234599 0)
(10.0868 0.0223573 0)
(10.0908 0.0211716 0)
(10.0002 0.0027168 0)
(10.0025 0.00850009 0)
(10.0064 0.0120704 0)
(10.0115 0.0147411 0)
(10.017 0.0166838 0)
(10.0228 0.0181436 0)
(10.0286 0.0192008 0)
(10.0345 0.0199187 0)
(10.0404 0.0203361 0)
(10.0462 0.0204864 0)
(10.0518 0.0204014 0)
(10.0572 0.0201037 0)
(10.0624 0.0196237 0)
(10.0673 0.0189905 0)
(10.0719 0.0182342 0)
(10.0763 0.0173793 0)
(10.0804 0.0164452 0)
(10.0843 0.0154501 0)
(10.0002 0.00182713 0)
(10.002 0.00569339 0)
(10.0054 0.00803398 0)
(10.0099 0.00983628 0)
(10.0149 0.0111343 0)
(10.0202 0.0120885 0)
(10.0257 0.0127602 0)
(10.0313 0.0131899 0)
(10.0369 0.0133999 0)
(10.0423 0.0134166 0)
(10.0477 0.0132596 0)
(10.0528 0.012951 0)
(10.0577 0.0125101 0)
(10.0624 0.0119587 0)
(10.0668 0.0113173 0)
(10.071 0.0106057 0)
(10.075 0.00983517 0)
(10.0787 0.00902837 0)
(10.0002 0.000940919 0)
(10.0017 0.00290352 0)
(10.0047 0.00386051 0)
(10.0088 0.00463643 0)
(10.0134 0.0051339 0)
(10.0185 0.00547724 0)
(10.0237 0.00567993 0)
(10.029 0.00576024 0)
(10.0343 0.00572359 0)
(10.0395 0.00558098 0)
(10.0446 0.0053385 0)
(10.0496 0.00500823 0)
(10.0543 0.00459811 0)
(10.0588 0.00412187 0)
(10.063 0.00358964 0)
(10.0671 0.00301548 0)
(10.0709 0.00240333 0)
(10.0745 0.00177487 0)
(10.0001 5.69028e-05 0)
(10.0016 0.000141909 0)
(10.0044 -0.000338325 0)
(10.0083 -0.000689896 0)
(10.0128 -0.00106361 0)
(10.0177 -0.00139291 0)
(10.0228 -0.00169717 0)
(10.0281 -0.00199016 0)
(10.0333 -0.00228502 0)
(10.0384 -0.00259212 0)
(10.0433 -0.00292026 0)
(10.0481 -0.00327505 0)
(10.0527 -0.00365653 0)
(10.0571 -0.00406536 0)
(10.0613 -0.00449665 0)
(10.0652 -0.00494702 0)
(10.0689 -0.00541527 0)
(10.0724 -0.00588448 0)
(10.0001 -0.000783197 0)
(10.0016 -0.00244684 0)
(10.0044 -0.00431744 0)
(10.0084 -0.00576479 0)
(10.0131 -0.00697569 0)
(10.0181 -0.00793757 0)
(10.0233 -0.00870578 0)
(10.0286 -0.00933028 0)
(10.0338 -0.00984232 0)
(10.0389 -0.0102811 0)
(10.0439 -0.0106698 0)
(10.0487 -0.0110306 0)
(10.0532 -0.0113763 0)
(10.0576 -0.0117157 0)
(10.0617 -0.0120547 0)
(10.0656 -0.0123939 0)
(10.0693 -0.0127383 0)
(10.0727 -0.0130722 0)
(10.0001 -0.00157235 0)
(10.0016 -0.00486025 0)
(10.0048 -0.00807655 0)
(10.0091 -0.0105406 0)
(10.0141 -0.0124999 0)
(10.0194 -0.0139987 0)
(10.0248 -0.0151475 0)
(10.0303 -0.0160241 0)
(10.0357 -0.0166907 0)
(10.0409 -0.017204 0)
(10.0459 -0.017613 0)
(10.0507 -0.0179514 0)
(10.0553 -0.0182445 0)
(10.0597 -0.0185079 0)
(10.0638 -0.0187555 0)
(10.0677 -0.0189918 0)
(10.0713 -0.0192252 0)
(10.0748 -0.0194411 0)
(10.0001 -0.00232143 0)
(10.0018 -0.00723152 0)
(10.0053 -0.0118036 0)
(10.0101 -0.0152055 0)
(10.0156 -0.0177909 0)
(10.0214 -0.0197266 0)
(10.0272 -0.0211776 0)
(10.0329 -0.0222358 0)
(10.0385 -0.0229868 0)
(10.0439 -0.0235207 0)
(10.0491 -0.0239066 0)
(10.054 -0.0241946 0)
(10.0586 -0.0244128 0)
(10.063 -0.0245915 0)
(10.0671 -0.024742 0)
(10.071 -0.0248814 0)
(10.0747 -0.0250104 0)
(10.0782 -0.0251238 0)
(10.0001 -0.00303506 0)
(10.0019 -0.0095737 0)
(10.006 -0.0156059 0)
(10.0116 -0.0198752 0)
(10.0178 -0.0229811 0)
(10.024 -0.0252387 0)
(10.0302 -0.0268864 0)
(10.0363 -0.0280312 0)
(10.0422 -0.0287999 0)
(10.0478 -0.029312 0)
(10.0531 -0.0296464 0)
(10.0581 -0.0298568 0)
(10.0628 -0.029988 0)
(10.0672 -0.0300675 0)
(10.0714 -0.0301209 0)
(10.0753 -0.0301571 0)
(10.079 -0.0301882 0)
(10.0825 -0.0302002 0)
(10.0001 -0.00368644 0)
(10.002 -0.0119813 0)
(10.0068 -0.0195178 0)
(10.0135 -0.0245672 0)
(10.0204 -0.0281257 0)
(10.0272 -0.0306761 0)
(10.0338 -0.0324094 0)
(10.0403 -0.0335218 0)
(10.0465 -0.0342119 0)
(10.0523 -0.0346275 0)
(10.0577 -0.0348676 0)
(10.0629 -0.0349802 0)
(10.0677 -0.0350152 0)
(10.0722 -0.0350024 0)
(10.0764 -0.0349664 0)
(10.0804 -0.034918 0)
(10.0842 -0.0348665 0)
(10.0877 -0.0348027 0)
(9.99992 -0.00428449 0)
(10.002 -0.0147583 0)
(10.0078 -0.0236291 0)
(10.0156 -0.0289385 0)
(10.0233 -0.0328678 0)
(10.0307 -0.0358129 0)
(10.0379 -0.0377386 0)
(10.0448 -0.038814 0)
(10.0513 -0.039375 0)
(10.0573 -0.0396576 0)
(10.063 -0.0397369 0)
(10.0683 -0.039694 0)
(10.0733 -0.0395749 0)
(10.0779 -0.0394259 0)
(10.0823 -0.0392664 0)
(10.0863 -0.0391115 0)
(10.0902 -0.0389608 0)
(10.0937 -0.0388088 0)
(9.99965 -0.00418913 0)
(10.002 -0.0185357 0)
(10.009 -0.0292887 0)
(10.0179 -0.034028 0)
(10.0263 -0.0373543 0)
(10.0343 -0.040207 0)
(10.0423 -0.0422001 0)
(10.05 -0.0433792 0)
(10.057 -0.0440294 0)
(10.0635 -0.0443461 0)
(10.0696 -0.0444213 0)
(10.0752 -0.0443277 0)
(10.0804 -0.0441394 0)
(10.0852 -0.0439016 0)
(10.0897 -0.0436485 0)
(10.0938 -0.0433924 0)
(10.0977 -0.0431452 0)
(10.1013 -0.042901 0)
(9.9982 -0.00150289 0)
(9.99957 -0.0202386 0)
(10.01 -0.0353318 0)
(10.0211 -0.0418325 0)
(10.0306 -0.0447925 0)
(10.0396 -0.0463539 0)
(10.0487 -0.0470194 0)
(10.0574 -0.0472507 0)
(10.0652 -0.0472752 0)
(10.0724 -0.0472087 0)
(10.079 -0.0470312 0)
(10.0851 -0.0467833 0)
(10.0905 -0.0465021 0)
(10.0955 -0.0462111 0)
(10.1 -0.0459324 0)
(10.1041 -0.045672 0)
(10.1079 -0.0454292 0)
(10.1113 -0.0451867 0)
(9.99462 0.000554389 0)
(9.99393 -0.011929 0)
(10.0101 -0.0281071 0)
(10.0263 -0.0428895 0)
(10.0404 -0.0535555 0)
(10.0524 -0.0590192 0)
(10.0635 -0.0608403 0)
(10.0735 -0.0608537 0)
(10.0822 -0.0600958 0)
(10.0898 -0.0589772 0)
(10.0965 -0.0576721 0)
(10.1023 -0.0563222 0)
(10.1073 -0.0550129 0)
(10.1115 -0.0537924 0)
(10.1151 -0.0526872 0)
(10.1182 -0.0517054 0)
(10.1208 -0.0508397 0)
(10.123 -0.0500541 0)
(9.99646 -0.0282393 0)
(10.0019 -0.0186901 0)
(10.0238 0.00555789 0)
(10.0426 0.00791849 0)
(10.0642 -0.00271423 0)
(10.083 -0.0145882 0)
(10.0986 -0.0240866 0)
(10.1103 -0.0313124 0)
(10.1185 -0.0367497 0)
(10.124 -0.0406423 0)
(10.1273 -0.0433129 0)
(10.1287 -0.0450663 0)
(10.1284 -0.0461572 0)
(10.1268 -0.0467843 0)
(10.1241 -0.047087 0)
(10.1205 -0.0471908 0)
(10.1163 -0.0471821 0)
(10.1115 -0.047126 0)
(10.0524 -0.228655 0)
(10.0951 -0.359113 0)
(10.1473 -0.330836 0)
(10.1523 -0.272555 0)
(10.1563 -0.220229 0)
(10.1553 -0.178848 0)
(10.1465 -0.147009 0)
(10.1297 -0.122864 0)
(10.1067 -0.104657 0)
(10.0794 -0.0907043 0)
(10.0494 -0.0798852 0)
(10.0176 -0.0713576 0)
(9.98474 -0.0645604 0)
(9.95152 -0.0590732 0)
(9.91842 -0.0546084 0)
(9.88578 -0.0509827 0)
(9.85395 -0.0480631 0)
(9.82333 -0.0460872 0)
(9.92806 0.785629 0)
(9.8269 0.700817 0)
(9.66903 0.483469 0)
(9.48699 0.310658 0)
(9.29218 0.192899 0)
(9.11105 0.11858 0)
(8.94663 0.0716503 0)
(8.79917 0.0420718 0)
(8.66796 0.0232803 0)
(8.55192 0.011234 0)
(8.44922 0.00358383 0)
(8.3582 -0.00126014 0)
(8.27714 -0.00428335 0)
(8.20479 -0.00613038 0)
(8.13983 -0.00721476 0)
(8.08131 -0.00784317 0)
(8.02793 -0.00821938 0)
(7.9793 -0.00883723 0)
(-0.00247084 0.00704901 0)
(-0.011902 0.0118112 0)
(-0.0243934 0.012984 0)
(-0.0373265 0.0113069 0)
(-0.0459208 0.00639593 0)
(-0.0437558 -0.00159279 0)
(-0.0291301 -0.0121114 -8.85123e-19)
(-0.0052272 -0.0222834 9.95215e-19)
(0.0245218 -0.0287817 0)
(0.0570496 -0.0304022 6.14718e-19)
(0.0893885 -0.0279184 0)
(0.118278 -0.0224353 0)
(0.141291 -0.0149923 0)
(0.156941 -0.0064093 -3.62522e-19)
(0.16478 0.00268316 0)
(0.164384 0.011463 0)
(0.15608 0.0189161 3.67073e-19)
(0.141095 0.0240613 0)
(0.121067 0.0260756 0)
(0.0979914 0.02453 0)
(0.0742772 0.0196351 -5.76912e-19)
(0.0524703 0.0123787 0)
(0.0348041 0.00435107 -8.49903e-19)
(0.0227732 -0.00300641 0)
(0.0168227 -0.00918346 0)
(0.017871 -0.0138963 -1.14501e-18)
(0.0254503 -0.0175534 0)
(0.0391064 -0.020936 8.23291e-19)
(0.0578183 -0.0236805 0)
(0.0784398 -0.0239625 -5.72858e-19)
(0.0966855 -0.0211297 0)
(0.110232 -0.016939 0)
(0.11859 -0.0139984 0)
(0.123734 -0.0155711 0)
(0.126138 -0.0216747 0)
(0.121437 -0.0281962 4.43057e-19)
(0.102063 -0.0247477 0)
(0.0642898 -0.00749441 -1.08967e-18)
(-0.00363132 0.0117159 0)
(-0.0979434 0.0355431 5.75615e-19)
(-0.20298 0.0649575 0)
(-0.321996 0.0901055 0)
(-0.454763 0.099302 -2.31201e-19)
(-0.59501 0.104393 0)
(-0.732893 0.112443 -1.57894e-19)
(-0.868121 0.123412 1.34871e-19)
(-0.999397 0.129204 0)
(-1.12596 0.127339 1.1246e-19)
(-1.24448 0.119589 1.06962e-19)
(-1.35437 0.102322 0)
(-1.45356 0.0861324 0)
(-1.54274 0.0767222 0)
(-1.62367 0.0706444 0)
(-1.69739 0.065586 0)
(-1.76438 0.0566612 -8.64257e-20)
(-1.82448 0.0472562 0)
(-1.87831 0.0431455 8.21476e-20)
(-1.92751 0.0404964 0)
(-1.97317 0.0365881 0)
(-2.01514 0.0333622 -7.78831e-20)
(-2.05409 0.0306551 0)
(-2.09044 0.0282957 7.56176e-20)
(-2.12455 0.0262896 0)
(-2.15671 0.0245426 0)
(-2.18717 0.0230205 0)
(-2.21611 0.0216842 -7.1822e-20)
(-2.24373 0.0204995 0)
(-2.27015 0.0194426 0)
(-2.29548 0.0184883 -6.9328e-20)
(-2.31982 0.0176239 0)
(-2.34325 0.0168285 -6.77545e-20)
(-2.36582 0.0160959 0)
(-2.38759 0.0154091 0)
(-2.40859 0.0147685 0)
(-2.42887 0.014156 6.47189e-20)
(-2.44844 0.0135772 0)
(-2.46733 0.0130148 0)
(-2.48555 0.0124763 6.24869e-20)
(-2.5031 0.0119453 6.17452e-20)
(-2.52 0.0114306 0)
(-2.53625 0.0109159 6.02605e-20)
(-2.55183 0.0104102 0)
(-2.56674 0.00989754 1.17537e-19)
(-2.58098 0.00938594 0)
(-2.59451 0.00885948 1.14529e-19)
(-2.60732 0.00832458 0)
(-2.61939 0.00776598 -1.11492e-19)
(-2.63069 0.00718524 0)
(-2.64118 0.00656885 0)
(-2.65083 0.00591144 0)
(-2.65959 0.00519933 1.05302e-19)
(-2.66738 0.00443578 0)
(-2.67414 0.00362471 -1.02133e-19)
(-2.67985 0.00279567 0)
(-2.6844 0.00199388 9.89266e-20)
(-2.68771 0.00127003 9.73101e-20)
(-2.68973 0.000670044 9.56427e-20)
(-2.69085 0.000142157 0)
(-2.69098 -0.00037484 0)
(-2.69014 -0.000893858 0)
(-2.68829 -0.00141577 0)
(-2.68541 -0.00194907 0)
(-2.68147 -0.00248637 0)
(-2.67644 -0.00303726 0)
(-2.6703 -0.0035916 0)
(-2.66301 -0.00416023 -7.90218e-20)
(-2.65454 -0.00473135 -7.69457e-20)
(-2.64487 -0.00531679 0)
(-2.63398 -0.00590361 0)
(-2.62183 -0.00650406 0)
(-2.60841 -0.00710466 -6.80423e-20)
(-2.59368 -0.00771751 0)
(-2.57764 -0.00832923 0)
(-2.56026 -0.00895097 0)
(-2.54152 -0.0095702 0)
(-2.52142 -0.0101965 5.52893e-20)
(-2.49994 -0.0108188 0)
(-2.47707 -0.0114445 0)
(-2.45282 -0.0120649 -4.65705e-20)
(-2.42717 -0.0126843 4.34592e-20)
(-2.40014 -0.0132971 0)
(-2.37173 -0.0139043 3.69005e-20)
(-2.34195 -0.0145037 0)
(-2.3108 -0.0150929 -2.98619e-20)
(-2.27832 -0.0156731 0)
(-2.24452 -0.0162378 0)
(-2.20942 -0.0167906 0)
(-2.17305 -0.0173208 0)
(-2.13543 -0.0178277 0)
(-2.09663 -0.0183364 1.09358e-20)
(-2.05666 -0.0188182 1.74269e-21)
(-2.01557 -0.0192788 0)
(-1.97334 -0.0197133 0)
(-1.93003 -0.0201231 0)
(-1.88564 -0.020514 3.85423e-20)
(-1.84032 -0.020882 0)
(-1.79405 -0.0212493 0)
(-1.74694 -0.021579 0)
(-1.69893 -0.0219219 8.51774e-20)
(-1.65007 -0.0222088 -9.79938e-20)
(-1.60038 -0.0224946 0)
(-1.54995 -0.0227602 0)
(-1.49882 -0.0230212 -1.39639e-19)
(-1.44704 -0.0232689 -1.54696e-19)
(-1.39463 -0.023506 0)
(-1.34163 -0.0237291 0)
(-1.28804 -0.0239421 2.04028e-19)
(-1.23391 -0.0241448 -2.22049e-19)
(-1.17926 -0.024342 0)
(-1.1241 -0.0245356 0)
(-1.06847 -0.0247278 -2.81825e-19)
(-1.0124 -0.0249211 0)
(-0.955922 -0.025117 0)
(-0.899057 -0.025319 -3.52131e-19)
(-0.841834 -0.0255273 0)
(-0.784277 -0.0257458 -4.06514e-19)
(-0.726406 -0.0259743 0)
(-0.668241 -0.0262176 0)
(-0.609799 -0.0264752 0)
(-0.551098 -0.0267525 5.4014e-19)
(-0.492151 -0.027049 0)
(-0.432973 -0.0273705 0)
(-0.373574 -0.027717 0)
(-0.313965 -0.0280999 0)
(-0.254149 -0.0285441 0)
(-0.194127 -0.0290711 0)
(-0.133912 -0.0296604 9.15895e-19)
(-0.073546 -0.0302737 9.95651e-19)
(-0.0131126 -0.0306723 0)
(0.0473929 -0.0303002 0)
(0.10804 -0.0293678 0)
(0.168757 -0.0284155 -9.68285e-19)
(0.229378 -0.0274805 0)
(0.289704 -0.0265183 1.78604e-18)
(0.349476 -0.0254572 -1.72384e-18)
(0.407969 -0.0241796 -1.66986e-18)
(0.465042 -0.022456 1.62505e-18)
(0.515256 -0.0197123 -1.59181e-18)
(0.568645 -0.0160184 1.57547e-18)
(0.569406 -0.000293306 0)
(-0.000250981 0.0194094 0)
(-0.0063166 0.0332225 0)
(-0.0119966 0.0335935 2.26785e-18)
(-0.0106268 0.0233766 0)
(0.00556705 0.00179957 -2.26137e-18)
(0.0352899 -0.0316164 -1.41608e-18)
(0.0727807 -0.0660697 -4.71687e-19)
(0.113674 -0.0918539 -3.52029e-19)
(0.153999 -0.104848 0)
(0.190727 -0.105333 -2.48121e-19)
(0.221961 -0.0959867 0)
(0.246893 -0.0799985 0)
(0.265303 -0.0601493 4.11896e-19)
(0.277329 -0.0385161 2.0451e-19)
(0.283298 -0.0166116 -4.16374e-19)
(0.283861 0.00456755 -4.18872e-19)
(0.279365 0.0241357 -2.09907e-19)
(0.269855 0.0410628 0)
(0.255443 0.0541712 0)
(0.236526 0.0622252 0)
(0.213972 0.0642064 -2.60013e-19)
(0.189346 0.0596921 0)
(0.164887 0.0491365 9.78345e-19)
(0.143268 0.0338779 0)
(0.127358 0.0155639 0)
(0.118709 -0.0043868 4.67295e-19)
(0.118696 -0.0243637 0)
(0.12574 -0.0420464 -4.01517e-19)
(0.134001 -0.0532468 -7.36098e-19)
(0.137104 -0.0530862 3.50552e-19)
(0.132395 -0.0437146 0)
(0.117264 -0.0306735 0)
(0.0872898 -0.0135049 0)
(0.0355218 0.0093006 -9.8563e-19)
(-0.0567703 0.0438967 -7.45673e-19)
(-0.176237 0.0927462 -2.14187e-19)
(-0.308462 0.14529 0)
(-0.450451 0.195807 2.05988e-19)
(-0.600718 0.238914 0)
(-0.752961 0.273437 -1.33336e-19)
(-0.902082 0.298689 0)
(-1.04593 0.313629 0)
(-1.18185 0.317895 9.22168e-20)
(-1.3054 0.312307 0)
(-1.41632 0.299263 2.39901e-19)
(-1.51455 0.280559 -7.51815e-20)
(-1.60057 0.259157 0)
(-1.67421 0.236777 -6.94944e-20)
(-1.73768 0.214595 -6.75994e-20)
(-1.7929 0.193248 0)
(-1.84107 0.17334 0)
(-1.88387 0.155097 0)
(-1.9217 0.138551 0)
(-1.95559 0.12411 0)
(-1.98667 0.111615 6.00949e-20)
(-2.01577 0.100755 1.18473e-19)
(-2.04328 0.091346 -5.82622e-20)
(-2.06927 0.0833094 0)
(-2.0937 0.076448 1.13533e-19)
(-2.11703 0.0705598 -5.60565e-20)
(-2.13937 0.0654871 0)
(-2.16079 0.0610877 -5.47033e-20)
(-2.18139 0.0572452 0)
(-2.20122 0.0538629 0)
(-2.22035 0.0508598 -1.05624e-19)
(-2.23881 0.048172 5.22435e-20)
(-2.25663 0.0457423 -1.03241e-19)
(-2.27385 0.0435301 1.02073e-19)
(-2.29049 0.0414933 5.04933e-20)
(-2.30655 0.0396081 0)
(-2.32206 0.0378415 4.93466e-20)
(-2.33703 0.036182 0)
(-2.35145 0.0346013 0)
(-2.36534 0.0330966 0)
(-2.37869 0.0316429 4.69962e-20)
(-2.39151 0.0302428 0)
(-2.40379 0.0288736 9.17702e-20)
(-2.41553 0.0275419 -1.35959e-19)
(-2.42673 0.0262264 -4.47609e-20)
(-2.43737 0.0249359 0)
(-2.44744 0.0236502 -4.35933e-20)
(-2.45694 0.0223788 0)
(-2.46585 0.0211024 -8.48216e-20)
(-2.47416 0.0198303 0)
(-2.48184 0.0185453 -8.24221e-20)
(-2.48889 0.0172572 1.62356e-19)
(-2.4953 0.0159535 7.99866e-20)
(-2.50104 0.0146411 0)
(-2.5061 0.0133116 0)
(-2.51049 0.0119586 0)
(-2.51416 0.0105709 -7.49919e-20)
(-2.51712 0.00913909 0)
(-2.51939 0.00764912 7.24229e-20)
(-2.521 0.00610535 0)
(-2.52203 0.00453234 -2.09483e-19)
(-2.52254 0.00298717 -6.84698e-20)
(-2.52258 0.00153206 -6.70996e-20)
(-2.52175 0.000135036 0)
(-2.52003 -0.00125585 0)
(-2.51735 -0.00265153 0)
(-2.51369 -0.00405649 0)
(-2.50901 -0.00547757 0)
(-2.50328 -0.00690946 -1.16987e-19)
(-2.49648 -0.00835911 -1.1394e-19)
(-2.48857 -0.00981755 0)
(-2.47954 -0.0112926 5.37331e-20)
(-2.46934 -0.0127731 5.21134e-20)
(-2.45797 -0.0142678 0)
(-2.44538 -0.0157638 9.78287e-20)
(-2.43156 -0.0172705 0)
(-2.41648 -0.0187737 -4.56214e-20)
(-2.40013 -0.0202831 0)
(-2.38247 -0.0217838 0)
(-2.36351 -0.0232852 8.00018e-20)
(-2.34321 -0.0247723 0)
(-2.32156 -0.0262534 -3.59333e-20)
(-2.29857 -0.0277145 0)
(-2.27421 -0.0291621 0)
(-2.2485 -0.0305839 -3.02972e-20)
(-2.22141 -0.031984 -2.76338e-20)
(-2.19297 -0.0333529 0)
(-2.16317 -0.0346915 2.3782e-20)
(-2.13202 -0.035994 0)
(-2.09955 -0.0372581 -1.91795e-20)
(-2.06576 -0.0384816 -3.29252e-20)
(-2.03067 -0.0396595 0)
(-1.99431 -0.0407935 0)
(-1.95671 -0.041876 0)
(-1.91788 -0.042914 0)
(-1.87788 -0.0439013 -6.57093e-21)
(-1.83675 -0.044842 -4.95866e-21)
(-1.7945 -0.0457194 0)
(-1.75115 -0.0465322 0)
(-1.70673 -0.0472738 0)
(-1.66128 -0.0479593 -2.17885e-20)
(-1.61487 -0.0485922 0)
(-1.56756 -0.0491858 0)
(-1.51938 -0.0497247 7.82578e-20)
(-1.47034 -0.0502112 4.44703e-20)
(-1.42046 -0.0506428 5.27562e-20)
(-1.36976 -0.051025 0)
(-1.31833 -0.0513566 0)
(-1.2662 -0.0516522 7.25991e-20)
(-1.21342 -0.0519049 -7.74271e-20)
(-1.16001 -0.0521249 0)
(-1.106 -0.0523011 0)
(-1.05142 -0.0524397 -1.00563e-19)
(-0.996277 -0.0525379 3.21467e-19)
(-0.94061 -0.0526037 0)
(-0.88444 -0.0526385 0)
(-0.827795 -0.052648 1.30448e-19)
(-0.770704 -0.0526329 0)
(-0.713195 -0.0525982 2.90241e-19)
(-0.655294 -0.0525447 -1.52124e-19)
(-0.597023 -0.0524764 0)
(-0.538406 -0.0523945 1.70934e-19)
(-0.479461 -0.0523022 3.56818e-19)
(-0.420208 -0.052201 0)
(-0.360663 -0.0520936 0)
(-0.300841 -0.0519818 -2.06345e-19)
(-0.240756 -0.0518683 0)
(-0.180422 -0.0517566 4.48232e-19)
(-0.119847 -0.0516487 0)
(-0.0590464 -0.051545 0)
(0.0019604 -0.0514372 0)
(0.0631674 -0.0513186 0)
(0.12459 -0.0511978 -2.56907e-19)
(0.186241 -0.0510762 -2.57551e-19)
(0.248149 -0.0508768 0)
(0.310274 -0.0504292 0)
(0.372469 -0.0497694 0)
(0.434659 -0.0490389 2.59167e-19)
(0.496786 -0.0482315 0)
(0.558692 -0.0472828 -5.19352e-19)
(0.620147 -0.0460708 5.19982e-19)
(0.680616 -0.0443973 5.20934e-19)
(0.73984 -0.0418032 5.19426e-19)
(0.79471 -0.0376536 5.25735e-19)
(0.850462 -0.0302671 5.29214e-19)
(0.879792 -0.00973275 0)
(0.00013002 0.0232397 0)
(-0.000102983 0.0379138 0)
(0.00771014 0.0270165 -2.30528e-18)
(0.0329986 -0.0111791 -1.50929e-18)
(0.0766632 -0.0696307 9.06638e-19)
(0.128806 -0.127054 6.19753e-19)
(0.179495 -0.167593 -4.49822e-22)
(0.222767 -0.1859 0)
(0.256543 -0.184129 0)
(0.281153 -0.167573 0)
(0.297923 -0.141709 0)
(0.308377 -0.110919 0)
(0.313768 -0.0782712 -9.44382e-19)
(0.315049 -0.0457061 0)
(0.312899 -0.0144161 3.30617e-19)
(0.30759 0.0147604 3.31946e-19)
(0.29964 0.04108 0)
(0.289395 0.0638497 0)
(0.277046 0.0822165 0)
(0.262609 0.0950826 0)
(0.246007 0.101144 4.02206e-19)
(0.227401 0.0991626 0)
(0.207544 0.0884291 -4.87106e-19)
(0.188129 0.069097 0)
(0.171257 0.0429501 0)
(0.158995 0.0127392 0)
(0.149325 -0.0165391 -1.41179e-18)
(0.13421 -0.0343219 0)
(0.102423 -0.0335393 6.48061e-19)
(0.0521436 -0.0112303 -1.35294e-18)
(-0.0131148 0.0300493 0)
(-0.107057 0.0838504 0)
(-0.222975 0.14642 0)
(-0.353618 0.214222 2.22168e-19)
(-0.498427 0.282515 1.71534e-19)
(-0.648579 0.34643 0)
(-0.796791 0.400975 0)
(-0.93768 0.444183 -2.02559e-19)
(-1.06711 0.474768 -1.79966e-19)
(-1.18197 0.491548 1.63169e-19)
(-1.2809 0.495302 0)
(-1.3639 0.486796 0)
(-1.43245 0.467432 0)
(-1.48881 0.440194 0)
(-1.53584 0.408561 -1.17998e-19)
(-1.57565 0.374881 -1.14201e-19)
(-1.6101 0.340781 1.09633e-19)
(-1.64077 0.307472 0)
(-1.66907 0.275951 0)
(-1.69613 0.246734 0)
(-1.7227 0.220529 0)
(-1.74882 0.19762 -9.42217e-20)
(-1.77437 0.17777 0)
(-1.79929 0.160672 0)
(-1.8236 0.145749 -8.85062e-20)
(-1.84749 0.132752 -8.68155e-20)
(-1.87086 0.121731 0)
(-1.89355 0.112358 1.68247e-19)
(-1.91548 0.104194 -8.28789e-20)
(-1.93673 0.0970834 8.17135e-20)
(-1.95731 0.0908656 0)
(-1.97722 0.0853844 0)
(-1.99647 0.080517 0)
(-2.0151 0.0761584 0)
(-2.03311 0.0722219 7.65154e-20)
(-2.05052 0.0686374 1.50966e-19)
(-2.06736 0.0653448 7.46127e-20)
(-2.08365 0.0622969 -7.36823e-20)
(-2.09938 0.0594515 0)
(-2.11459 0.0567775 1.43552e-19)
(-2.12927 0.0542439 1.41741e-19)
(-2.14343 0.0518301 1.39937e-19)
(-2.15708 0.049513 -1.3814e-19)
(-2.17023 0.0472793 0)
(-2.18287 0.0451102 -2.0189e-19)
(-2.19501 0.0429978 0)
(-2.20664 0.0409265 6.54188e-20)
(-2.21776 0.0388918 6.46341e-20)
(-2.22837 0.0368806 0)
(-2.23846 0.0348905 0)
(-2.24802 0.0329099 1.23713e-19)
(-2.25705 0.0309374 0)
(-2.26552 0.0289626 1.20046e-19)
(-2.27344 0.0269846 0)
(-2.28078 0.0249944 -1.16341e-19)
(-2.28753 0.0229926 -2.29008e-19)
(-2.29369 0.0209739 0)
(-2.29923 0.0189406 0)
(-2.30414 0.0168912 0)
(-2.30842 0.0148237 -1.0689e-19)
(-2.31204 0.0127375 0)
(-2.31498 0.0106354 -1.03019e-19)
(-2.31726 0.0085235 0)
(-2.31886 0.00641007 0)
(-2.31976 0.00429911 1.94148e-19)
(-2.31993 0.00218442 0)
(-2.31929 3.1564e-05 9.29532e-20)
(-2.3178 -0.00216569 0)
(-2.31542 -0.00439056 8.87331e-20)
(-2.31211 -0.00663671 0)
(-2.30784 -0.00890717 0)
(-2.30258 -0.0111987 0)
(-2.2963 -0.0135141 2.39838e-19)
(-2.28898 -0.0158493 7.75893e-20)
(-2.28058 -0.0182055 0)
(-2.27108 -0.020578 0)
(-2.26046 -0.0229669 0)
(-2.24868 -0.025367 0)
(-2.23572 -0.0277773 -6.5746e-20)
(-2.22157 -0.0301926 1.27014e-19)
(-2.20618 -0.0326104 6.07577e-20)
(-2.18955 -0.0350255 -1.16949e-19)
(-2.17166 -0.0374342 -1.11796e-19)
(-2.15249 -0.0398315 -5.29749e-20)
(-2.13201 -0.0422121 0)
(-2.11023 -0.0445715 -9.58265e-20)
(-2.08714 -0.0469032 0)
(-2.06271 -0.0492029 8.4733e-20)
(-2.03696 -0.0514632 3.9128e-20)
(-2.00988 -0.0536804 0)
(-1.98147 -0.0558467 -6.73907e-20)
(-1.95175 -0.0579585 -3.02608e-20)
(-1.92071 -0.0600085 0)
(-1.88838 -0.0619932 -2.50796e-20)
(-1.85477 -0.0639066 6.39069e-20)
(-1.8199 -0.0657452 0)
(-1.7838 -0.0675043 0)
(-1.74648 -0.0691812 0)
(-1.70798 -0.0707749 0)
(-1.66833 -0.0722874 1.03281e-20)
(-1.62758 -0.0737118 2.38757e-21)
(-1.58574 -0.0750371 0)
(-1.54284 -0.0762565 0)
(-1.49889 -0.0773679 0)
(-1.45395 -0.0783831 0)
(-1.40808 -0.0793149 0)
(-1.36132 -0.0801682 0)
(-1.3137 -0.0809345 -4.6992e-20)
(-1.26524 -0.0816136 -1.3191e-21)
(-1.21596 -0.0822036 0)
(-1.1659 -0.0827123 0)
(-1.11511 -0.0831422 -7.49331e-20)
(-1.06363 -0.0835046 0)
(-1.01151 -0.083798 9.11357e-20)
(-0.958759 -0.0840283 9.72195e-20)
(-0.905413 -0.0841912 0)
(-0.851492 -0.0842898 0)
(-0.79702 -0.0843243 -1.2114e-19)
(-0.74202 -0.0843022 -2.54595e-19)
(-0.68652 -0.0842268 0)
(-0.630546 -0.0841049 0)
(-0.574126 -0.0839388 0)
(-0.517285 -0.0837341 -1.59162e-19)
(-0.460046 -0.0834928 1.66828e-19)
(-0.402432 -0.0832194 0)
(-0.344464 -0.0829159 3.61578e-19)
(-0.286162 -0.0825857 1.87076e-19)
(-0.227542 -0.0822311 -3.92545e-19)
(-0.168622 -0.0818549 0)
(-0.109418 -0.0814595 0)
(-0.0499422 -0.0810471 -4.39388e-19)
(0.00978822 -0.0806201 -2.27722e-19)
(0.0697623 -0.0801797 0)
(0.129977 -0.0797287 0)
(0.190429 -0.0792625 0)
(0.251109 -0.0787793 0)
(0.312005 -0.0782843 -4.88285e-19)
(0.373113 -0.0777804 0)
(0.434434 -0.0772491 0)
(0.495937 -0.0766608 0)
(0.557551 -0.0759889 0)
(0.619222 -0.0752164 0)
(0.680881 -0.0743007 0)
(0.742386 -0.0731507 -5.24968e-19)
(0.803552 -0.0716022 0)
(0.863977 -0.0693813 0)
(0.923492 -0.0659519 -1.08202e-18)
(0.980148 -0.0604851 5.46262e-19)
(1.03783 -0.0512318 -5.57461e-19)
(1.08111 -0.0301773 5.74019e-19)
(-0.00140123 0.0247746 0)
(0.00339333 0.0222095 4.87886e-18)
(0.033384 -0.0342998 0)
(0.0882768 -0.121652 7.62901e-19)
(0.150862 -0.200198 0)
(0.205709 -0.248139 0)
(0.245605 -0.262757 -3.41464e-19)
(0.270565 -0.251477 0)
(0.283867 -0.223937 0)
(0.289222 -0.188003 0)
(0.289565 -0.148802 0)
(0.286788 -0.109184 0)
(0.281938 -0.0705862 1.10244e-18)
(0.275535 -0.0337464 5.69649e-19)
(0.267787 0.0008741 -5.90745e-19)
(0.258922 0.0327962 0)
(0.2489 0.0615396 0)
(0.237687 0.0865376 0)
(0.2253 0.10704 0)
(0.21179 0.122066 0)
(0.197093 0.130297 7.53104e-19)
(0.181046 0.129929 8.31969e-19)
(0.163926 0.119604 -9.3657e-19)
(0.146446 0.0990218 1.0729e-18)
(0.128433 0.0696793 0)
(0.103981 0.0371232 0)
(0.058942 0.0211708 1.27418e-18)
(-0.00523333 0.0401929 0)
(-0.0867253 0.0859892 0)
(-0.191365 0.149208 5.54993e-19)
(-0.3153 0.22574 4.23722e-19)
(-0.451931 0.308246 3.33798e-19)
(-0.594192 0.389378 0)
(-0.736289 0.463894 0)
(-0.871391 0.526141 -1.98916e-19)
(-0.993192 0.572771 0)
(-1.09873 0.603661 0)
(-1.18728 0.61899 1.42537e-19)
(-1.25863 0.619971 -1.34023e-19)
(-1.31426 0.608478 1.24886e-19)
(-1.3567 0.5868 0)
(-1.38882 0.557267 0)
(-1.41384 0.52216 2.06098e-19)
(-1.43467 0.484038 0)
(-1.45346 0.445182 1.86402e-19)
(-1.47154 0.407112 2.6658e-19)
(-1.48979 0.370821 -2.56018e-19)
(-1.50869 0.336889 1.64976e-19)
(-1.52851 0.30562 0)
(-1.54927 0.277185 0)
(-1.57088 0.251702 1.50714e-19)
(-1.59305 0.229106 7.32508e-20)
(-1.61549 0.209216 0)
(-1.63794 0.191752 0)
(-1.66021 0.176372 6.88997e-20)
(-1.68222 0.16283 1.35509e-19)
(-1.70384 0.150975 0)
(-1.72497 0.14058 -1.3099e-19)
(-1.74554 0.131398 1.29032e-19)
(-1.76553 0.123254 -1.27119e-19)
(-1.78493 0.116 0)
(-1.80374 0.109501 0)
(-1.82196 0.103641 0)
(-1.8396 0.0983224 0)
(-1.85667 0.0934593 0)
(-1.87319 0.0889815 -1.17164e-19)
(-1.88916 0.0848283 0)
(-1.9046 0.0809493 0)
(-1.91952 0.0773012 0)
(-1.93393 0.073848 -2.2231e-19)
(-1.94784 0.0705584 -1.09733e-19)