/*--------------------------------*- C++ -*----------------------------------*\
  =========                 |
  \\      /  F ield         | OpenFOAM: The Open Source CFD Toolbox
   \\    /   O peration     | Website:  https://openfoam.org
    \\  /    A nd           | Version:  8
     \\/     M anipulation  |
\*---------------------------------------------------------------------------*/
FoamFile
{
    version     2.0;
    format      ascii;
    class       volVectorField;
    location    "2000";
    object      wallShearStress;
}
// * * * * * * * * * * * * * * * * * * * * * * * * * * * * * * * * * * * * * //

dimensions      [0 2 -2 0 0 0 0];

internalField   uniform (0 0 0);

boundaryField
{
    inlet
    {
        type            calculated;
        value           uniform (0 0 0);
    }
    outlet
    {
        type            calculated;
        value           uniform (0 0 0);
    }
    upperWall
    {
        type            calculated;
        value           nonuniform List<vector> 
223
(
(-0.440859 -0.0464893 0)
(-0.491148 -0.0459622 0)
(-0.533991 -0.0345374 0)
(-0.541604 -0.0224507 0)
(-0.53822 -0.0136722 0)
(-0.528638 -0.008012 0)
(-0.517987 -0.00444676 0)
(-0.507358 -0.00223145 0)
(-0.496587 -0.0008581 0)
(-0.486531 -1.03437e-05 0)
(-0.477305 0.000501077 0)
(-0.468914 0.000802767 0)
(-0.461334 0.000971965 0)
(-0.454495 0.00105849 0)
(-0.448334 0.00109402 0)
(-0.442774 0.0011028 0)
(-0.437725 0.00109821 0)
(-0.433147 0.001133 0)
(-0.42945 0.00119722 0)
(-0.426499 0.00125411 5.34618e-22)
(-0.423597 0.00126879 0)
(-0.42076 0.00125636 0)
(-0.417988 0.00122681 0)
(-0.415282 0.00118608 5.46799e-22)
(-0.412651 0.00113903 0)
(-0.410093 0.0010883 0)
(-0.407611 0.00103653 0)
(-0.405203 0.000984822 -1.11597e-21)
(-0.402867 0.00093456 1.12144e-21)
(-0.400602 0.000885933 1.12688e-21)
(-0.398404 0.00083992 0)
(-0.396273 0.000796385 -1.13769e-21)
(-0.394204 0.000755761 0)
(-0.392194 0.000717753 1.14842e-21)
(-0.390241 0.000682438 1.15375e-21)
(-0.388344 0.00064974 -1.15907e-21)
(-0.386497 0.00061962 0)
(-0.384699 0.000591677 0)
(-0.382948 0.000565788 0)
(-0.381242 0.00054197 0)
(-0.379578 0.000519986 -1.18568e-21)
(-0.377956 0.00049969 0)
(-0.376372 0.000481109 0)
(-0.374826 0.00046412 1.20166e-21)
(-0.373313 0.000448648 0)
(-0.371835 0.000434586 1.21232e-21)
(-0.370387 0.000421906 -1.21765e-21)
(-0.368968 0.00041056 1.22298e-21)
(-0.367576 0.000400508 0)
(-0.36621 0.000391588 0)
(-0.364867 0.000383775 0)
(-0.363546 0.000377052 1.24426e-21)
(-0.362244 0.000371317 -1.24955e-21)
(-0.36096 0.000366482 0)
(-0.359692 0.000362489 0)
(-0.358439 0.000359149 0)
(-0.357199 0.000356566 0)
(-0.355971 0.000354615 0)
(-0.354752 0.000353196 0)
(-0.353543 0.00035223 0)
(-0.352341 0.00035174 0)
(-0.351145 0.000351685 1.29612e-21)
(-0.349955 0.000351977 -1.3011e-21)
(-0.348768 0.000352567 0)
(-0.347584 0.000353457 0)
(-0.346401 0.000354592 0)
(-0.34522 0.000355905 -1.32029e-21)
(-0.344038 0.000357512 0)
(-0.342855 0.00035931 0)
(-0.341669 0.000361291 0)
(-0.340481 0.000363491 0)
(-0.339286 0.000365741 0)
(-0.338091 0.000368126 -2.69114e-21)
(-0.336881 0.000370966 0)
(-0.335675 0.000374149 0)
(-0.334441 0.000377374 0)
(-0.333225 0.000380829 0)
(-0.331958 0.00038474 0)
(-0.330725 0.000389116 0)
(-0.329435 0.000392903 0)
(-0.328137 0.000400071 2.74168e-21)
(-0.326884 0.000404743 0)
(-0.325462 0.000421312 0)
(-0.324033 0.0004161 0)
(-0.322727 -0.000234651 -2.74914e-21)
(-0.321352 -0.000605044 0)
(-0.322405 0.000508402 -2.78326e-21)
(-0.325424 0.00127837 0)
(-0.319789 0.00128729 0)
(-0.328701 0.00120233 0)
(-0.322404 0.000813449 -2.87234e-21)
(-0.32546 0.00104796 0)
(-0.318591 0.000946444 2.92395e-21)
(-0.319724 0.000119767 2.95945e-21)
(-0.316628 -0.000240059 0)
(-0.312159 -0.000199974 2.94424e-21)
(-0.307656 -0.000313998 0)
(-0.306848 -0.000305244 0)
(-0.402287 0.00263877 0)
(-0.367384 0.00241696 -3.41171e-21)
(-0.349396 0.000751887 0)
(-0.32036 0.00065813 -3.0368e-21)
(-0.31118 -0.000267945 2.95201e-21)
(-0.322279 -9.86848e-05 0)
(-0.29927 8.21364e-06 0)
(-0.407976 0.000413857 0)
(-0.366893 6.22148e-05 0)
(-0.414226 0.00200099 0)
(-0.367531 0.00183966 0)
(-0.337759 0.000125898 0)
(-0.310721 0.000606295 -2.8544e-21)
(-0.292444 0.00116866 0)
(-0.291172 0.00119144 0)
(-0.289921 0.000149028 0)
(-0.335264 -8.45623e-06 0)
(-0.408916 0.00374969 0)
(-0.354254 0.00300067 0)
(-0.334762 -0.000139654 0)
(-0.283445 -1.84131e-05 0)
(-0.367297 -0.000644308 0)
(-0.322729 -0.000399516 0)
(-0.321478 0.0011911 0)
(-0.356242 0.00217151 0)
(-0.337968 0.00127969 -5.65443e-21)
(-0.395812 -0.000303151 0)
(-0.385558 0.00206047 0)
(-0.3304 0.00501 0)
(-0.286242 0.00401783 4.27739e-21)
(-0.265978 0.00281605 0)
(-0.264619 0.0029746 0)
(-0.263031 0.00242705 3.57799e-21)
(-0.261195 -0.00110183 0)
(-0.258761 -0.00269819 -3.38174e-21)
(-0.269744 -0.000755355 0)
(-0.273156 0.000118792 0)
(-0.289358 -0.000195173 0)
(-0.298276 -0.000931666 3.17791e-21)
(-0.28569 0.00094965 0)
(-0.252454 0.00243857 -2.28748e-21)
(-0.243406 0.000250202 0)
(-0.271204 -0.00127226 0)
(-0.262399 -0.000889441 0)
(-0.272677 -0.000828815 0)
(-0.254315 -0.000578506 0)
(-0.250288 2.43793e-05 0)
(-0.240765 0.0025706 0)
(-0.230104 0.00423334 0)
(-0.229536 0.00300469 0)
(-0.228995 0.000534284 0)
(-0.242939 -0.00122217 0)
(-0.240353 0.000643612 1.30218e-21)
(-0.224545 0.000780836 -1.52049e-21)
(-0.229766 0.000742199 0)
(-0.221634 0.000572751 0)
(-0.221104 0.00255938 0)
(-0.218861 0.00570357 0)
(-0.217223 0.00254079 -3.20793e-21)
(-0.215058 -0.000917335 3.75987e-21)
(-0.241427 -0.00320277 -5.00603e-21)
(-0.22643 -0.00378936 0)
(-0.203173 -0.00171784 -5.62328e-21)
(-0.199443 0.00231232 -1.22548e-20)
(-0.20063 0.00170439 0)
(-0.198384 -0.00136181 -1.393e-20)
(-0.194975 0.000724779 1.53645e-20)
(-0.21329 0.000675964 0)
(-0.191928 0.00116028 0)
(-0.192857 0.00351134 0)
(-0.19289 0.000280165 0)
(-0.189754 -0.00262612 0)
(-0.185058 -0.00199068 -2.27685e-20)
(-0.180009 0.00143674 0)
(-0.181769 0.00338622 -2.28697e-20)
(-0.181919 0.00225906 0)
(-0.18192 0.0016386 0)
(-0.18157 -0.000537137 0)
(-0.177054 -0.00147245 0)
(-0.174674 0.000261521 0)
(-0.180364 0.00149997 3.2423e-20)
(-0.174486 0.00154585 0)
(-0.172255 0.000229802 0)
(-0.166792 -0.000629518 -3.77654e-20)
(-0.162537 -0.000175686 0)
(-0.16076 0.000242926 0)
(-0.158921 0.000316749 0)
(-0.155718 0.000230073 4.52791e-20)
(-0.150335 0.000116154 0)
(-0.142271 0.000305342 0)
(-0.131999 0.000716311 0)
(-0.12072 0.00111801 0)
(-0.10979 0.00131178 -7.63371e-20)
(-0.100451 0.00122328 0)
(-0.0929738 0.00103016 0)
(-0.0868342 0.000869719 0)
(-0.0815985 0.0008914 1.07203e-19)
(-0.0741448 0.00110286 0)
(-0.0698976 0.00180324 0)
(-0.0414707 0.00156443 -1.49369e-19)
(-0.0726144 0.00097681 0)
(-0.106725 0.00631562 1.28916e-17)
(-0.129935 0.010668 2.32526e-17)
(-0.142319 0.0132238 2.19283e-17)
(-0.149779 0.0146539 2.11184e-17)
(-0.155481 0.0155458 2.04536e-17)
(-0.160044 0.0161699 -1.98812e-17)
(-0.163605 0.0166318 -1.93514e-17)
(-0.166664 0.0169833 -6.01853e-36)
(-0.169552 0.0172877 -3.67414e-17)
(-0.17259 0.0175745 -1.78775e-17)
(-0.175801 0.0178758 -7.22224e-35)
(-0.179446 0.0181977 -1.20371e-35)
(-0.183496 0.0185701 -3.23159e-17)
(-0.188131 0.0189843 -3.0941e-17)
(-0.193281 0.0194605 -2.93759e-17)
(-0.199141 0.0199898 -4.81482e-35)
(-0.205653 0.0205908 5.13984e-17)
(-0.213112 0.0212703 2.35204e-17)
(-0.221199 0.0220193 2.40741e-35)
(-0.231126 0.0229221 -3.65035e-17)
(-0.240313 0.0237994 -1.20201e-20)
(-0.25622 0.0251762 0)
(-0.260793 0.0259802 1.36577e-17)
(-0.291501 0.0278957 -7.6827e-18)
)
;
    }
    lowerWall
    {
        type            calculated;
        value           nonuniform List<vector> 
250
(
(-0.964494 0.104854 0)
(-0.75654 0.0681086 0)
(-0.699251 0.0493897 0)
(-0.63502 0.0293172 0)
(-0.580402 0.0151594 0)
(-0.54996 0.00831246 0)
(-0.540872 0.00526039 0)
(-0.51306 0.00274264 0)
(-0.647705 0.00350078 0)
(-0.737018 -0.00432625 0)
(-0.647173 -0.0121514 0)
(-0.547316 -0.0127826 0)
(-0.508218 -0.00638541 0)
(-0.504238 0.00163008 0)
(-0.522533 0.00269089 0)
(-0.463994 0.00356901 0)
(-0.641989 -0.00245815 0)
(-0.566504 -0.00143884 0)
(0.00286125 -0.00720142 0)
(0.00296202 -0.0111389 0)
(0.00308019 -0.0149504 0)
(0.00325484 -0.0185963 7.319e-20)
(0.00361798 -0.0219955 -6.6195e-20)
(0.00430489 -0.0262157 6.26639e-20)
(0.00292998 -0.0299878 -6.04195e-20)
(-0.00123585 -0.0487951 0)
(-0.0767655 -0.114329 0)
(0.000202544 -0.000254821 0)
(6.02976e-05 -0.000746196 0)
(9.22114e-06 -0.000874635 0)
(6.05038e-05 -0.000930234 0)
(-7.53888e-06 -0.000761437 1.54657e-19)
(-0.000327314 0.000136465 -1.371e-19)
(-0.000984053 0.00234428 0)
(-0.00161535 0.00591666 -1.43547e-19)
(-0.0017691 0.00976482 1.1337e-19)
(-0.0014233 0.0128613 0)
(-0.00082185 0.0146996 0)
(-0.000190131 0.0151511 0)
(0.000339444 0.0143181 0)
(0.000806778 0.0125779 0)
(0.00128387 0.00992766 0)
(0.00179018 0.00644002 0)
(0.00234068 0.0022322 0)
(0.00274128 -0.00261515 0)
(-0.000134757 -0.000256328 0)
(0.000154222 -0.000415234 0)
(0.000435455 -0.000463725 0)
(0.000720468 -0.000399179 0)
(0.000930246 -0.000190239 -0)
(0.000942579 0.000139387 -0)
(0.000702706 0.00051789 1.56575e-20)
(0.000242404 0.00084689 -1.76106e-20)
(-0.000361707 0.0010494 -0)
(-0.00101829 0.00110049 -1.08813e-20)
(-0.00165443 0.00101799 -0)
(-0.00221034 0.000831873 0)
(-0.00264576 0.000577578 -0)
(-0.00293802 0.000286258 6.4332e-21)
(-0.00307925 -2.09118e-05 0)
(-0.00305877 -0.00032003 0)
(-0.00288119 -0.000577847 -6.53227e-21)
(-0.00257011 -0.000763997 -0)
(-0.00215937 -0.000855033 0)
(-0.00169303 -0.000836934 -0)
(-0.00122545 -0.00071216 1.02888e-20)
(-0.000812845 -0.000505626 0)
(-0.000498268 -0.000261245 1.51666e-20)
(-0.000299413 -2.31714e-05 0)
(-0.000214913 0.00019315 0)
(-0.000254063 0.000376056 2.04573e-20)
(-0.000400487 0.000528083 0)
(-0.000652363 0.000665124 -1.47209e-20)
(-0.00101153 0.000765025 0)
(-0.0014237 0.000768221 1.02516e-20)
(-0.00178489 0.000663959 0)
(-0.00202923 0.000513712 0)
(-0.00213747 0.000401255 0)
(-0.00216476 0.00040931 0)
(-0.00217372 0.000507478 0)
(-0.00216014 0.000559169 -7.96667e-21)
(-0.0019836 0.00031967 0)
(-0.00141647 -0.000321753 1.96345e-20)
(-0.000238892 -0.00104491 0)
(0.00139082 -0.001785 -1.04183e-20)
(0.00327841 -0.00259959 0)
(0.0055689 -0.00332466 0)
(0.00810758 -0.00363523 4.23858e-21)
(0.0106539 -0.00377297 0)
(0.0131131 -0.00393619 2.91752e-21)
(0.0155823 -0.00416338 -2.50142e-21)
(0.0180533 -0.00425745 -0)
(0.0216524 -0.0043946 -2.21533e-21)
(0.0240884 -0.00412001 -2.10971e-21)
(0.0275322 -0.00375403 -0)
(0.026899 -0.00293142 0)
(0.0281001 -0.00258083 0)
(0.0295607 -0.00236397 0)
(0.0315766 -0.00222406 -0)
(0.0324568 -0.00191747 1.60906e-21)
(0.0343129 -0.00166657 0)
(0.0358858 -0.00153969 -1.58791e-21)
(0.0372489 -0.00145036 -0)
(0.0385811 -0.00133091 -0)
(0.0398621 -0.00122946 1.55505e-21)
(0.0410325 -0.00114233 0)
(0.0421944 -0.0010671 -1.53903e-21)
(0.0432855 -0.00100191 -0)
(0.0443557 -0.000945199 0)
(0.0453807 -0.000895174 -0)
(0.0463857 -0.000851217 1.51359e-21)
(0.0473573 -0.000811954 0)
(0.0483122 -0.000776728 -0)
(0.0492413 -0.000744665 1.49612e-21)
(0.0501547 -0.000715492 0)
(0.0510487 -0.000688389 1.48425e-21)
(0.051927 -0.000663191 0)
(0.0527898 -0.000639353 0)
(0.0536368 -0.000616877 0)
(0.0544708 -0.000595198 -1.45829e-21)
(0.055289 -0.000574393 -0)
(0.0560948 -0.000554 0)
(0.0568848 -0.000534103 -1.43609e-21)
(0.057662 -0.000514294 -1.42809e-21)
(0.0584231 -0.000494824 -0)
(0.0591708 -0.00047506 -1.41103e-21)
(0.0599011 -0.000455263 0)
(0.0606164 -0.000435049 -2.78496e-21)
(0.0613134 -0.000414486 -0)
(0.061993 -0.000393046 -2.74461e-21)
(0.0626521 -0.000371006 -0)
(0.0632914 -0.000347803 2.70084e-21)
(0.0639081 -0.000323392 0)
(0.0645016 -0.000297338 0)
(0.0650696 -0.000269413 0)
(0.0656107 -0.000238955 -2.60212e-21)
(0.066122 -0.000206018 -0)
(0.0666019 -0.000170976 2.5467e-21)
(0.0670493 -0.000134607 0)
(0.0674622 -9.81925e-05 -2.48774e-21)
(0.0678404 -6.37165e-05 -2.45717e-21)
(0.0681866 -3.46717e-05 -2.42502e-21)
(0.0684997 -9.18788e-06 0)
(0.0687839 1.62851e-05 0)
(0.0690356 4.19719e-05 0)
(0.0692549 6.80549e-05 0)
(0.0694406 9.47769e-05 0)
(0.0695907 0.000121914 0)
(0.069705 0.000149752 0)
(0.0697813 0.000177966 0)
(0.0698195 0.000206966 2.06722e-21)
(0.0698168 0.000236246 2.01859e-21)
(0.0697738 0.000266179 0)
(0.069688 0.000296368 0)
(0.0695595 0.000327202 0)
(0.0693862 0.000358183 1.80263e-21)
(0.0691681 0.000389699 0)
(0.0689035 0.000421216 0)
(0.0685929 0.000453199 0)
(0.0682338 0.000485067 0)
(0.0678277 0.00051716 -1.47732e-21)
(0.0673726 0.000549094 0)
(0.0668691 0.000581021 0)
(0.0663168 0.000612643 1.24769e-21)
(0.0657156 0.000644073 -1.16477e-21)
(0.0650658 0.000675022 0)
(0.0643678 0.000705553 -9.88728e-22)
(0.0636221 0.000735575 0)
(0.0628287 0.000764886 7.98412e-22)
(0.0619898 0.000793499 0)
(0.0611057 0.000821235 0)
(0.0601786 0.000848171 0)
(0.0592093 0.000873909 0)
(0.0581996 0.000898305 0)
(0.0571531 0.000922327 -2.67519e-22)
(0.0560402 0.000944496 -1.64772e-23)
(0.054925 0.000966144 0)
(0.0537298 0.000985716 0)
(0.0525464 0.00100481 0)
(0.0512773 0.00102153 -1.08029e-21)
(0.0500328 0.00103786 0)
(0.0487015 0.00105247 0)
(0.0473916 0.00106635 0)
(0.0460211 0.00107975 -2.33999e-21)
(0.044646 0.00109117 2.68412e-21)
(0.0432424 0.00110189 0)
(0.0418182 0.00111131 0)
(0.0403761 0.00112013 3.79422e-21)
(0.0389185 0.00112812 4.19303e-21)
(0.0374443 0.00113537 0)
(0.0359563 0.00114184 0)
(0.0344548 0.00114765 -5.48967e-21)
(0.0329416 0.00115275 5.95979e-21)
(0.0314183 0.00115744 0)
(0.0298855 0.00116173 0)
(0.0283449 0.00116567 7.50736e-21)
(0.0267976 0.00116938 0)
(0.0252452 0.00117294 0)
(0.0236884 0.00117651 9.30798e-21)
(0.0221286 0.00118008 0)
(0.0205668 0.00118385 1.06896e-20)
(0.0190034 0.00118779 0)
(0.0174395 0.0011921 0)
(0.0158755 0.00119676 0)
(0.0143122 0.00120199 -1.40547e-20)
(0.01275 0.00120776 0)
(0.0111894 0.00121429 0)
(0.0096308 0.00122159 0)
(0.00807468 0.00123007 0)
(0.00652112 0.0012406 0)
(0.00497003 0.00125389 0)
(0.00342141 0.00126912 -2.34013e-20)
(0.00187564 0.00128484 -2.53746e-20)
(0.000333213 0.00129304 0)
(-0.00120461 0.0012754 0)
(-0.0027363 0.00123897 0)
(-0.00426046 0.00120152 2.44387e-20)
(-0.00577452 0.00116404 0)
(-0.00727338 0.00112488 -4.48521e-20)
(-0.00874963 0.00108055 4.31712e-20)
(-0.0101839 0.00102738 4.1692e-20)
(-0.0115688 0.00094869 -4.04223e-20)
(-0.0127598 0.000844682 3.93994e-20)
(-0.0140247 0.000625869 -3.87366e-20)
(-0.0135933 0.000126283 0)
(-0.0159849 0.00034509 -2.3951e-18)
(-0.0196872 -0.000111347 -2.22958e-18)
(-0.0233774 -0.000590872 -6.01853e-36)
(-0.0268742 -0.0010108 -3.94142e-18)
(-0.0304421 -0.00141729 -7.45036e-18)
(-0.0341805 -0.00182617 -3.52863e-18)
(-0.0380979 -0.00224155 3.34633e-18)
(-0.0422211 -0.0026712 -4.81482e-35)
(-0.0465915 -0.00312177 3.00927e-36)
(-0.0512341 -0.00359824 2.86885e-18)
(-0.0561755 -0.0041042 2.72613e-18)
(-0.0614516 -0.0046444 0)
(-0.0670956 -0.00522212 0)
(-0.0731487 -0.00584249 0)
(-0.0796786 -0.00651068 -5.40727e-36)
(-0.0866734 -0.00723031 8.46356e-37)
(-0.0943734 -0.00801374 4.21297e-35)
(-0.102479 -0.00885493 -3.57652e-18)
(-0.111858 -0.00978624 -3.28892e-18)
(-0.121181 -0.0107879 6.01853e-36)
(-0.133199 -0.0118848 5.26758e-18)
(-0.143614 -0.0131622 8.88119e-18)
(-0.161291 -0.0143919 0)
(-0.169236 -0.0161714 -4.37353e-18)
(-0.205639 -0.0172168 3.00927e-36)
)
;
    }
    frontAndBack
    {
        type            empty;
    }
}


// ************************************************************************* //
