/*--------------------------------*- C++ -*----------------------------------*\
  =========                 |
  \\      /  F ield         | OpenFOAM: The Open Source CFD Toolbox
   \\    /   O peration     | Website:  https://openfoam.org
    \\  /    A nd           | Version:  8
     \\/     M anipulation  |
\*---------------------------------------------------------------------------*/
FoamFile
{
    version     2.0;
    format      ascii;
    class       volVectorField;
    location    "700";
    object      U;
}
// * * * * * * * * * * * * * * * * * * * * * * * * * * * * * * * * * * * * * //

dimensions      [0 1 -1 0 0 0 0];

internalField   nonuniform List<vector> 
12225
(
(9.2745 -4.73371 0)
(13.1094 -1.71343 0)
(12.4778 -0.395198 0)
(11.2771 -0.0422046 0)
(10.6314 0.0141378 0)
(10.2979 -9.47726e-05 0)
(10.0776 -0.0165244 0)
(9.91229 -0.0028894 0)
(9.77912 0.0348737 0)
(9.66234 0.0428918 0)
(9.55579 0.0248817 0)
(9.45773 0.00213974 0)
(9.36683 -0.022797 0)
(9.28222 -0.0302332 0)
(9.20247 -0.0217952 0)
(9.13273 -0.0212493 0)
(9.07053 -0.0210577 0)
(9.08982 -0.0278348 0)
(10.2592 0.0928019 0)
(10.7814 0.199338 0)
(10.9594 0.245655 0)
(10.7469 0.229143 0)
(10.5875 0.172968 0)
(10.4527 0.115533 0)
(10.33 0.0823297 0)
(10.2327 0.0647277 0)
(10.155 0.0524737 0)
(10.0894 0.0472299 0)
(10.0324 0.0469875 0)
(9.98216 0.048983 0)
(9.9379 0.0517873 0)
(9.8984 0.0519266 0)
(9.8616 0.0482999 0)
(9.82897 0.0437951 0)
(9.79445 0.0300155 0)
(9.76849 0.0100901 0)
(9.87768 -0.24504 0)
(9.74285 0.00579081 0)
(10.1971 0.125743 0)
(10.3245 0.179363 0)
(10.3564 0.161547 0)
(10.3311 0.120075 0)
(10.2777 0.0904914 0)
(10.2252 0.0746623 0)
(10.1813 0.0658707 0)
(10.1438 0.0600229 0)
(10.1103 0.0562004 0)
(10.08 0.0536399 0)
(10.052 0.0511208 0)
(10.0261 0.048739 0)
(10.0024 0.0460408 0)
(9.98129 0.041708 0)
(9.9593 0.0315728 0)
(9.93475 0.0133737 0)
(9.83416 -0.443933 0)
(9.57654 -0.163147 0)
(9.91603 0.0336698 0)
(10.0933 0.134223 0)
(10.1892 0.145471 0)
(10.2168 0.120736 0)
(10.205 0.0978915 0)
(10.1825 0.0839046 0)
(10.1599 0.0756233 0)
(10.1389 0.0697039 0)
(10.1191 0.0651232 0)
(10.1002 0.0616222 0)
(10.0821 0.058592 0)
(10.0649 0.0561986 0)
(10.0484 0.0538096 0)
(10.0326 0.0500727 0)
(10.0149 0.0423062 0)
(9.99189 0.030423 0)
(9.87825 -0.387476 0)
(9.61653 -0.196148 0)
(9.81623 -0.0186712 0)
(9.96136 0.0916113 0)
(10.0698 0.122194 0)
(10.1219 0.113624 0)
(10.1354 0.0992595 0)
(10.1332 0.0884148 0)
(10.1257 0.0809402 0)
(10.1162 0.0753857 0)
(10.1056 0.0711097 0)
(10.0946 0.0678624 0)
(10.0833 0.0652276 0)
(10.0719 0.0631191 0)
(10.0602 0.060991 0)
(10.0478 0.0580266 0)
(10.0329 0.0529643 0)
(10.0125 0.0467303 0)
(9.91439 -0.28804 0)
(9.68304 -0.185177 0)
(9.78717 -0.0532087 0)
(9.88917 0.0509972 0)
(9.98796 0.0936769 0)
(10.0476 0.0991996 0)
(10.0751 0.0938685 0)
(10.0861 0.0875104 0)
(10.0892 0.0821104 0)
(10.0879 0.0777513 0)
(10.0842 0.0743334 0)
(10.079 0.0717369 0)
(10.0726 0.0697105 0)
(10.0654 0.068129 0)
(10.0572 0.0666662 0)
(10.0477 0.0649595 0)
(10.0354 0.0626679 0)
(10.0186 0.0610145 0)
(9.93763 -0.214041 0)
(9.74856 -0.167536 0)
(9.79244 -0.0752169 0)
(9.85609 0.0162181 0)
(9.93595 0.0644184 0)
(9.99282 0.0805902 0)
(10.0261 0.0835544 0)
(10.0447 0.0822344 0)
(10.0546 0.0797675 0)
(10.0593 0.077272 0)
(10.0606 0.0751556 0)
(10.0596 0.0735324 0)
(10.0571 0.072354 0)
(10.0531 0.0715882 0)
(10.0477 0.0711276 0)
(10.0407 0.0709315 0)
(10.0312 0.0711678 0)
(10.0183 0.0730121 0)
(9.95263 -0.167335 0)
(9.79947 -0.149677 0)
(9.81177 -0.084643 0)
(9.84959 -0.00621301 0)
(9.91141 0.0419279 0)
(9.96107 0.0638915 0)
(9.99432 0.0725424 0)
(10.0156 0.0752761 0)
(10.0289 0.0755167 0)
(10.0367 0.0748864 0)
(10.041 0.0741256 0)
(10.0427 0.0735528 0)
(10.0426 0.0732854 0)
(10.0408 0.0733993 0)
(10.0375 0.0739415 0)
(10.0325 0.0750532 0)
(10.0254 0.0770998 0)
(10.0157 0.0810765 0)
(9.96406 -0.13209 0)
(9.84003 -0.131989 0)
(9.83337 -0.0876918 0)
(9.85306 -0.0213357 0)
(9.89927 0.0244112 0)
(9.94103 0.0495069 0)
(9.97207 0.0621151 0)
(9.99386 0.0680659 0)
(10.0087 0.0706817 0)
(10.0184 0.0717762 0)
(10.0246 0.0722938 0)
(10.0282 0.0727229 0)
(10.0298 0.0733211 0)
(10.0297 0.0742685 0)
(10.028 0.0757227 0)
(10.0248 0.077927 0)
(10.0197 0.0813119 0)
(10.0129 0.0866908 0)
(9.97418 -0.100205 0)
(9.87757 -0.112391 0)
(9.85857 -0.0853683 0)
(9.86387 -0.0323362 0)
(9.89487 0.00892407 0)
(9.92743 0.0352173 0)
(9.9544 0.0507081 0)
(9.97503 0.0594852 0)
(9.99015 0.0644288 0)
(10.001 0.0673397 0)
(10.0085 0.069273 0)
(10.0135 0.0708459 0)
(10.0166 0.072436 0)
(10.018 0.0743183 0)
(10.018 0.0767386 0)
(10.0165 0.0799989 0)
(10.0136 0.0845257 0)
(10.0095 0.0909369 0)
(9.98253 -0.0727094 0)
(9.91035 -0.0921975 0)
(9.88507 -0.0782465 0)
(9.88002 -0.0386111 0)
(9.89746 -0.00337914 0)
(9.92043 0.0221618 0)
(9.94196 0.0391748 0)
(9.96 0.0500686 0)
(9.97426 0.0570402 0)
(9.98519 0.0616845 0)
(9.9934 0.0650535 0)
(9.99942 0.0678308 0)
(10.0037 0.0704757 0)
(10.0064 0.0733343 0)
(10.0078 0.0767088 0)
(10.0081 0.0809191 0)
(10.0073 0.0863398 0)
(10.0058 0.0934079 0)
(9.98894 -0.050257 0)
(9.93733 -0.0723795 0)
(9.91073 -0.0674506 0)
(9.89917 -0.0399866 0)
(9.90566 -0.0116553 0)
(9.91955 0.0114446 0)
(9.93497 0.0285206 0)
(9.94934 0.0405674 0)
(9.9617 0.0490078 0)
(9.97189 0.0550905 0)
(9.9801 0.0597533 0)
(9.98659 0.0636701 0)
(9.99164 0.0673312 0)
(9.99545 0.0711158 0)
(9.9982 0.0753455 0)
(10.0001 0.080323 0)
(10.0013 0.0863494 0)
(10.0021 0.0937088 0)
(9.99348 -0.032909 0)
(9.9582 -0.0538125 0)
(9.93368 -0.0542861 0)
(9.91898 -0.0367913 0)
(9.91755 -0.0154591 0)
(9.92366 0.00398706 0)
(9.93301 0.0197651 0)
(9.94318 0.0318633 0)
(9.9529 0.0409936 0)
(9.96163 0.0479992 0)
(9.96922 0.053621 0)
(9.9757 0.0584514 0)
(9.98118 0.0629536 0)
(9.98578 0.0674954 0)
(9.98964 0.0723806 0)
(9.99293 0.0778697 0)
(9.99585 0.0841852 0)
(9.99867 0.0914987 0)
(9.99643 -0.0202029 0)
(9.97327 -0.0372114 0)
(9.95261 -0.0400481 0)
(9.93731 -0.0298148 0)
(9.9309 -0.0148295 0)
(9.93103 0.000358468 0)
(9.93504 0.0137637 0)
(9.94105 0.0248291 0)
(9.94782 0.0337418 0)
(9.95465 0.0409699 0)
(9.96117 0.0470239 0)
(9.96724 0.0523638 0)
(9.9728 0.0573748 0)
(9.9779 0.0623722 0)
(9.9826 0.0676102 0)
(9.98703 0.0732914 0)
(9.99134 0.0795669 0)
(9.99571 0.0865304 0)
(9.99816 -0.0112881 0)
(9.9833 -0.0229322 0)
(9.96682 -0.0257655 0)
(9.95243 -0.020081 0)
(9.94344 -0.0102478 0)
(9.93953 0.000666794 0)
(9.9394 0.0110193 0)
(9.94183 0.0201303 0)
(9.94582 0.0279082 0)
(9.95069 0.0345511 0)
(9.95597 0.0403608 0)
(9.96139 0.0456469 0)
(9.9668 0.0506877 0)
(9.97215 0.0557152 0)
(9.97743 0.0609137 0)
(9.98268 0.06642 0)
(9.98801 0.0723236 0)
(9.99351 0.0786655 0)
(9.99906 -0.00508129 0)
(9.98922 -0.0107825 0)
(9.97612 -0.0119197 0)
(9.96309 -0.00848706 0)
(9.9531 -0.00244072 0)
(9.94685 0.00457056 0)
(9.94399 0.011547 0)
(9.94384 0.0180075 0)
(9.94569 0.0238227 0)
(9.94896 0.0290612 0)
(9.95317 0.0338784 0)
(9.95799 0.0384511 0)
(9.9632 0.0429442 0)
(9.96867 0.0474951 0)
(9.97434 0.0522081 0)
(9.98018 0.057153 0)
(9.98621 0.0623655 0)
(9.99247 0.0678481 0)
(9.99942 -0.000367668 0)
(9.9918 0.000150097 0)
(9.98042 0.00182954 0)
(9.96821 0.0045895 0)
(9.9579 0.0079143 0)
(9.95061 0.0113938 0)
(9.94642 0.0148068 0)
(9.94498 0.0180761 0)
(9.94576 0.0212188 0)
(9.94825 0.0243008 0)
(9.95198 0.0274035 0)
(9.9566 0.030604 0)
(9.96185 0.0339648 0)
(9.96756 0.03753 0)
(9.9736 0.0413233 0)
(9.97991 0.0453498 0)
(9.98646 0.0495952 0)
(9.99323 0.05403 0)
(9.99935 0.00408438 0)
(9.9911 0.0111717 0)
(9.97897 0.0161308 0)
(9.96616 0.0187329 0)
(9.95552 0.0196075 0)
(9.94819 0.0195393 0)
(9.94419 0.0191504 0)
(9.94311 0.018851 0)
(9.94437 0.0188815 0)
(9.94741 0.0193592 0)
(9.95174 0.0203249 0)
(9.95698 0.0217734 0)
(9.96286 0.0236739 0)
(9.96918 0.0259816 0)
(9.97582 0.0286451 0)
(9.98268 0.0316077 0)
(9.98972 0.0348117 0)
(9.99689 0.0381964 0)
(9.99882 0.00972938 0)
(9.98675 0.0240475 0)
(9.97122 0.0318444 0)
(9.95641 0.0332905 0)
(9.94558 0.0306995 0)
(9.93942 0.0263438 0)
(9.93734 0.0217392 0)
(9.93845 0.0177282 0)
(9.94186 0.0146817 0)
(9.94686 0.0126952 0)
(9.95291 0.0117131 0)
(9.95962 0.0116167 0)
(9.96673 0.0122668 0)
(9.97407 0.0135275 0)
(9.98154 0.0152737 0)
(9.98907 0.0173958 0)
(9.99663 0.0197969 0)
(10.0042 0.0223939 0)
(9.99757 0.0182096 0)
(9.97773 0.0404542 0)
(9.95664 0.0495757 0)
(9.93945 0.0474759 0)
(9.92961 0.0394198 0)
(9.92658 0.0296415 0)
(9.92848 0.0204828 0)
(9.93356 0.012957 0)
(9.94054 0.00733654 0)
(9.94855 0.00350312 0)
(9.95703 0.00120625 0)
(9.96567 0.000155935 0)
(9.97427 8.86993e-05 0)
(9.98275 0.000771254 0)
(9.99107 0.00201626 0)
(9.99923 0.00367165 0)
(10.0072 0.00561424 0)
(10.0151 0.00774841 0)
(9.99502 0.0318142 0)
(9.96177 0.0621328 0)
(9.93371 0.0695498 0)
(9.91534 0.0601125 0)
(9.90932 0.0439473 0)
(9.91249 0.0276553 0)
(9.92084 0.013987 0)
(9.93162 0.00363041 0)
(9.94322 -0.00365353 0)
(9.95479 -0.00838765 0)
(9.96594 -0.0111462 0)
(9.97651 -0.0124107 0)
(9.9865 -0.0125877 0)
(9.99594 -0.0119776 0)
(10.0049 -0.0108151 0)
(10.0135 -0.00927657 0)
(10.0217 -0.00748916 0)
(10.0296 -0.0055528 0)
(9.99018 0.0534615 0)
(9.93561 0.0901511 0)
(9.90098 0.0906263 0)
(9.88514 0.0687545 0)
(9.8878 0.0418156 0)
(9.90121 0.018654 0)
(9.91855 0.00141127 0)
(9.93626 -0.0104042 0)
(9.95284 -0.017951 0)
(9.96785 -0.0224053 0)
(9.98128 -0.0246626 0)
(9.99332 -0.0254045 0)
(10.0042 -0.0251094 0)
(10.0141 -0.024135 0)
(10.0232 -0.022718 0)
(10.0318 -0.0210256 0)
(10.0399 -0.0191804 0)
(10.0475 -0.0172566 0)
(9.9819 0.0862469 0)
(9.89548 0.124257 0)
(9.85817 0.109882 0)
(9.85209 0.0697717 0)
(9.87033 0.030335 0)
(9.89842 0.0014448 0)
(9.92657 -0.0172097 0)
(9.95134 -0.0283273 0)
(9.97219 -0.0344281 0)
(9.98959 -0.0373393 0)
(10.0042 -0.038217 0)
(10.0167 -0.03781 0)
(10.0276 -0.0366281 0)
(10.0372 -0.0349949 0)
(10.0459 -0.0331076 0)
(10.0538 -0.0311107 0)
(10.0613 -0.0290939 0)
(10.0683 -0.0270994 0)
(9.96925 0.133989 0)
(9.83823 0.163088 0)
(9.80793 0.122589 0)
(9.82311 0.058798 0)
(9.86512 0.00730553 0)
(9.91138 -0.02403 0)
(9.95034 -0.040595 0)
(9.98048 -0.0483767 0)
(10.0034 -0.0512418 0)
(10.0212 -0.0515446 0)
(10.0353 -0.0504226 0)
(10.0469 -0.0485179 0)
(10.0565 -0.046261 0)
(10.0649 -0.0438764 0)
(10.0722 -0.0414543 0)
(10.0789 -0.0391088 0)
(10.0852 -0.0369136 0)
(10.091 -0.034854 0)
(9.94951 0.20714 0)
(9.76128 0.207021 0)
(9.75726 0.123477 0)
(9.81042 0.0320094 0)
(9.88381 -0.0278632 0)
(9.94873 -0.0559977 0)
(9.99526 -0.0660764 0)
(10.0266 -0.0678058 0)
(10.048 -0.065977 0)
(10.063 -0.0631961 0)
(10.0743 -0.0598884 0)
(10.083 -0.0564911 0)
(10.09 -0.0531495 0)
(10.0959 -0.0501458 0)
(10.101 -0.0473199 0)
(10.1056 -0.0447096 0)
(10.1099 -0.0424113 0)
(10.114 -0.0403339 0)
(9.91094 0.322718 0)
(9.65922 0.254544 0)
(9.71887 0.107406 0)
(9.83329 -0.0119244 0)
(9.94173 -0.0726543 0)
(10.0199 -0.0901648 0)
(10.0662 -0.0893252 0)
(10.0917 -0.0831419 0)
(10.1058 -0.07604 0)
(10.1141 -0.0696193 0)
(10.1197 -0.0644921 0)
(10.1236 -0.0600677 0)
(10.1261 -0.0563636 0)
(10.1281 -0.0532625 0)
(10.1298 -0.0503298 0)
(10.1313 -0.0475969 0)
(10.1327 -0.0454133 0)
(10.1343 -0.0434717 0)
(9.84404 0.435109 0)
(9.53798 0.261026 0)
(9.7269 0.0591343 0)
(9.92367 -0.0731165 0)
(10.0584 -0.121554 0)
(10.1344 -0.120193 0)
(10.1664 -0.105283 0)
(10.1758 -0.0906199 0)
(10.1759 -0.0784826 0)
(10.1725 -0.0703743 0)
(10.1686 -0.0644312 0)
(10.1647 -0.0597364 0)
(10.1605 -0.0556474 0)
(10.1568 -0.0525775 0)
(10.1536 -0.0497447 0)
(10.1504 -0.0471102 0)
(10.1477 -0.0452557 0)
(10.1458 -0.0437076 0)
(9.83598 0.319666 0)
(9.55021 0.091251 0)
(9.91739 -0.0687259 0)
(10.1507 -0.160113 0)
(10.2634 -0.172137 0)
(10.3032 -0.142728 0)
(10.2978 -0.112097 0)
(10.276 -0.0899567 0)
(10.2516 -0.0753865 0)
(10.2302 -0.0674538 0)
(10.2133 -0.0619395 0)
(10.1984 -0.0574262 0)
(10.1842 -0.0528078 0)
(10.1714 -0.048915 0)
(10.16 -0.0448487 0)
(10.1493 -0.041561 0)
(10.1407 -0.0409194 0)
(10.133 -0.0400011 0)
(10.2049 -0.0633775 0)
(10.4095 -0.191706 0)
(10.7164 -0.282558 0)
(10.6879 -0.282288 0)
(10.619 -0.230104 0)
(10.5417 -0.163669 0)
(10.4545 -0.117044 0)
(10.3763 -0.0925008 0)
(10.3136 -0.0798646 0)
(10.2654 -0.0678695 0)
(10.2262 -0.0589183 0)
(10.1917 -0.0543453 0)
(10.1603 -0.0538318 0)
(10.1327 -0.0525466 0)
(10.1062 -0.0516565 0)
(10.0824 -0.0503171 0)
(10.0648 -0.0460979 0)
(10.0476 -0.0440204 0)
(9.41631 4.45107 0)
(12.7294 2.07612 0)
(12.5649 0.621212 0)
(11.569 0.127657 0)
(10.9309 0.00343416 0)
(10.5866 -0.00206797 0)
(10.3637 0.0123109 0)
(10.2021 0.0302341 0)
(10.0795 0.0412077 0)
(9.97728 0.0358144 0)
(9.88481 0.0251287 0)
(9.79868 0.0222474 0)
(9.72306 0.025804 0)
(9.65559 0.0218084 0)
(9.5989 0.0176679 0)
(9.54937 0.0143571 0)
(9.49604 -0.000955375 0)
(9.44775 -0.00440013 0)
(-0.0276539 0.0935826 0)
(0.136929 -0.183518 0)
(0.324904 -0.306001 0)
(0.525455 -0.31527 0)
(0.703045 -0.27224 0)
(0.833723 -0.211247 0)
(0.910168 -0.146495 -8.59876e-20)
(0.940849 -0.0826311 8.66025e-20)
(0.920085 -0.0202877 0)
(0.859466 0.0344658 9.18124e-20)
(0.772316 0.0739591 0)
(0.672993 0.0920879 0)
(0.578938 0.0878681 0)
(0.505988 0.0668174 -1.43147e-19)
(0.455993 0.0378014 0)
(0.412776 0.00991362 0)
(0.353516 -0.00929554 1.87786e-19)
(0.263666 -0.00941536 0)
(0.136382 0.0281313 0)
(-0.0425995 0.1122 0)
(-0.298867 0.186226 -1.65584e-19)
(-0.592497 0.23519 0)
(-0.913826 0.266863 -7.63541e-20)
(-1.25024 0.29594 0)
(-1.58972 0.323621 0)
(-1.92953 0.336504 -4.13417e-20)
(-2.26208 0.335681 0)
(-2.57931 0.326589 3.45475e-20)
(-2.87821 0.310467 0)
(-3.15535 0.289673 -3.13438e-20)
(-3.40983 0.266535 0)
(-3.64124 0.242649 0)
(-3.85031 0.219049 0)
(-4.03815 0.196444 0)
(-4.20617 0.175211 0)
(-4.35596 0.155558 2.82289e-20)
(-4.48909 0.13752 0)
(-4.60705 0.121027 -5.5569e-20)
(-4.71122 0.10595 0)
(-4.80283 0.0921311 5.47703e-20)
(-4.88292 0.0794077 0)
(-4.9524 0.0676277 0)
(-5.01202 0.0566631 -5.35483e-20)
(-5.0624 0.0464171 0)
(-5.10405 0.0368302 -5.26566e-20)
(-5.13738 0.0278853 5.21788e-20)
(-5.16279 0.0196264 0)
(-5.18067 0.0122012 5.1152e-20)
(-5.19129 0.00585742 5.05996e-20)
(-5.19482 0.000805823 0)
(-5.1925 -0.003149 0)
(-5.18559 -0.00644786 0)
(-5.1742 -0.0093707 0)
(-5.15868 -0.0120818 0)
(-5.13919 -0.0146506 -4.61801e-20)
(-5.11584 -0.0170908 0)
(-5.08878 -0.0194139 4.43149e-20)
(-5.05808 -0.0216287 0)
(-5.02387 -0.0237376 0)
(-4.98623 -0.0257423 -4.11369e-20)
(-4.94528 -0.0276433 0)
(-4.90112 -0.0294406 3.87612e-20)
(-4.85386 -0.031134 0)
(-4.80362 -0.0327235 0)
(-4.75051 -0.034209 0)
(-4.69465 -0.0355903 -3.33817e-20)
(-4.63616 -0.036868 0)
(-4.57518 -0.038043 0)
(-4.51182 -0.0391157 -2.87843e-20)
(-4.44621 -0.040087 0)
(-4.3785 -0.0409582 -2.5443e-20)
(-4.3088 -0.0417306 0)
(-4.23725 -0.0424057 0)
(-4.16398 -0.0429854 0)
(-4.08913 -0.0434715 1.80655e-20)
(-4.01282 -0.0438662 0)
(-3.93518 -0.0441719 0)
(-3.85634 -0.044391 1.18836e-20)
(-3.77642 -0.0445264 9.68984e-21)
(-3.69554 -0.044581 0)
(-3.61383 -0.0445581 5.08817e-21)
(-3.5314 -0.044461 0)
(-3.44836 -0.0442936 3.60573e-22)
(-3.36482 -0.0440607 0)
(-3.28088 -0.0437683 -1.01291e-20)
(-3.19663 -0.0434252 0)
(-3.11217 -0.0430443 2.13718e-20)
(-3.02758 -0.0426445 0)
(-2.94292 -0.0422545 0)
(-2.85825 -0.0419169 0)
(-2.77361 -0.041694 -4.65639e-20)
(-2.68903 -0.0416684 0)
(-2.60452 -0.0419301 6.08393e-20)
(-2.52004 -0.0425352 0)
(-2.43554 -0.0434249 -7.65092e-20)
(-2.3513 -0.0443276 -8.48879e-20)
(-2.26753 -0.0447825 -9.35963e-20)
(-2.18451 -0.0445746 0)
(-2.1024 -0.0439698 0)
(-2.02122 -0.0432714 0)
(-1.94098 -0.0425664 0)
(-1.86169 -0.0418662 0)
(-1.78338 -0.0411717 0)
(-1.70607 -0.0404847 0)
(-1.62978 -0.039809 0)
(-1.55454 -0.0391502 1.92708e-19)
(-1.48037 -0.0385156 2.07029e-19)
(-1.40727 -0.0379105 0)
(-1.33526 -0.0373239 0)
(-1.26437 -0.0366986 0)
(-1.19464 -0.0360408 2.74296e-19)
(-1.12607 -0.0354067 0)
(-1.05865 -0.0347911 0)
(-0.992407 -0.0341954 0)
(-0.927324 -0.0336212 0)
(-0.863407 -0.0330707 -3.90934e-19)
(-0.800654 -0.0325463 0)
(-0.73906 -0.0320511 0)
(-0.67862 -0.0315888 4.8911e-19)
(-0.619327 -0.0311607 -5.28806e-19)
(-0.561174 -0.0307705 0)
(-0.504152 -0.0304285 -6.22411e-19)
(-0.448249 -0.0301586 0)
(-0.393447 -0.0300054 7.41382e-19)
(-0.339723 -0.0299798 0)
(-0.287064 -0.0300433 0)
(-0.235455 -0.030183 0)
(-0.184868 -0.0304097 0)
(-0.135275 -0.030739 0)
(-0.0867224 -0.0311898 -2.84632e-18)
(-0.0394201 -0.0316439 -3.27692e-18)
(0.00668376 -0.0313457 0)
(0.0520985 -0.0298494 0)
(0.0968358 -0.0279993 0)
(0.140755 -0.0262814 2.68512e-18)
(0.183762 -0.0247487 0)
(0.225837 -0.0233753 0)
(0.267003 -0.0221379 0)
(0.307292 -0.0210165 2.04013e-18)
(0.346735 -0.0199939 -1.93383e-18)
(0.385359 -0.0190559 0)
(0.423191 -0.018191 0)
(0.460256 -0.01739 -1.68701e-18)
(0.496579 -0.0166455 -1.62233e-18)
(0.532181 -0.0159511 0)
(0.567087 -0.0153019 0)
(0.601319 -0.0146936 1.46403e-18)
(0.634899 -0.0141224 -1.42053e-18)
(0.66785 -0.0135853 0)
(0.700195 -0.0130797 0)
(0.731955 -0.0126031 -1.31024e-18)
(0.763155 -0.0121538 0)
(0.793817 -0.0117298 0)
(0.823963 -0.0113297 -1.22271e-18)
(0.853617 -0.010952 0)
(0.882803 -0.0105955 -1.17362e-18)
(0.911543 -0.0102591 0)
(0.939861 -0.00994155 0)
(0.967779 -0.00964194 0)
(0.995321 -0.00935915 1.0916e-18)
(1.02251 -0.00909207 0)
(1.04936 -0.00883943 0)
(1.07589 -0.00859977 0)
(1.10213 -0.0083713 0)
(1.12806 -0.00815177 0)
(1.15371 -0.00793825 0)
(1.17907 -0.00772688 9.82774e-19)
(1.2041 -0.00751251 9.69851e-19)
(1.22877 -0.00728814 0)
(1.25302 -0.00704423 0)
(1.27674 -0.00676728 0)
(1.29975 -0.00643868 -9.24501e-19)
(1.32183 -0.00602871 0)
(1.34257 -0.00549864 1.81389e-18)
(1.36151 -0.00476146 -1.80052e-18)
(1.37726 -0.00372569 -1.79179e-18)
(1.38984 -0.00195425 1.79009e-18)
(1.39026 0.00132745 -1.79547e-18)
(1.38757 0.00807521 1.80879e-18)
(1.3083 0.0198891 0)
(0.0963018 -0.268623 0)
(0.334155 -0.681214 0)
(0.51438 -0.706763 1.57329e-19)
(0.612128 -0.571702 0)
(0.663219 -0.409273 -1.11105e-19)
(0.683748 -0.254189 -1.08063e-19)
(0.677805 -0.112512 -5.62296e-20)
(0.647517 0.0152841 -5.61733e-20)
(0.6046 0.125165 0)
(0.545481 0.21178 -6.07701e-20)
(0.468754 0.267393 0)
(0.374376 0.283365 0)
(0.258738 0.256708 1.70376e-19)
(0.111642 0.211521 9.82368e-20)
(-0.0731586 0.205869 -1.84752e-19)
(-0.299218 0.271076 -1.44218e-19)
(-0.577088 0.382589 -5.73422e-20)
(-0.903075 0.512512 0)
(-1.25678 0.642038 0)
(-1.615 0.756091 0)
(-1.97072 0.841885 -2.85991e-20)
(-2.31625 0.895621 0)
(-2.64626 0.919206 6.90833e-20)
(-2.95313 0.915708 0)
(-3.23278 0.889328 0)
(-3.48359 0.845203 1.98192e-20)
(-3.70412 0.788651 0)
(-3.8952 0.725211 -1.97603e-20)
(-4.05871 0.659121 -4.17951e-20)
(-4.1982 0.593097 2.01664e-20)
(-4.31658 0.52924 0)
(-4.41674 0.46934 0)
(-4.50141 0.414228 0)
(-4.57298 0.364258 -4.4256e-20)
(-4.63352 0.319391 -4.47626e-20)
(-4.68473 0.279356 -2.21884e-20)
(-4.72798 0.243743 0)
(-4.76438 0.212069 4.53051e-20)
(-4.79483 0.183836 0)
(-4.82005 0.158563 -4.58774e-20)
(-4.84061 0.135808 0)
(-4.85703 0.115178 0)
(-4.86971 0.0963314 4.60884e-20)
(-4.87903 0.0789768 0)
(-4.88534 0.0628739 1.38167e-19)
(-4.88894 0.047828 -4.56093e-20)
(-4.89011 0.0337036 0)
(-4.8891 0.02047 -4.49403e-20)
(-4.88617 0.00824316 -4.44837e-20)
(-4.88158 -0.00281475 0)
(-4.87443 -0.0127593 0)
(-4.86361 -0.0218865 0)
(-4.84911 -0.0304396 0)
(-4.83082 -0.0385333 0)
(-4.80877 -0.0462373 4.02178e-20)
(-4.78304 -0.0535885 7.9166e-20)
(-4.75368 -0.0606082 -3.84405e-20)
(-4.72079 -0.0673076 0)
(-4.68446 -0.0736925 7.34876e-20)
(-4.64478 -0.0797656 -3.59675e-20)
(-4.60184 -0.0855275 0)
(-4.55575 -0.090978 -3.32674e-20)
(-4.50661 -0.0961171 0)
(-4.45454 -0.100946 0)
(-4.39964 -0.105467 -5.9893e-20)
(-4.34203 -0.109679 2.83859e-20)
(-4.28183 -0.113583 -5.47013e-20)
(-4.21917 -0.117183 5.19825e-20)
(-4.15416 -0.12048 2.42942e-20)
(-4.08694 -0.123481 0)
(-4.01762 -0.12619 2.13612e-20)
(-3.94634 -0.128613 0)
(-3.87323 -0.130757 0)
(-3.79841 -0.132629 0)
(-3.72201 -0.134236 1.56347e-20)
(-3.64416 -0.135589 0)
(-3.56498 -0.136695 2.37665e-20)
(-3.4846 -0.137566 -2.9974e-20)
(-3.40314 -0.13821 -7.94164e-21)
(-3.32071 -0.13864 0)
(-3.23744 -0.138865 -4.141e-21)
(-3.15343 -0.138898 0)
(-3.0688 -0.13875 -2.91185e-22)
(-2.98365 -0.138434 0)
(-2.89808 -0.137961 8.11474e-21)
(-2.81219 -0.137343 -2.35715e-20)
(-2.72607 -0.136593 -1.69681e-20)
(-2.63981 -0.13572 0)
(-2.55352 -0.134733 0)
(-2.46726 -0.133636 0)
(-2.38116 -0.13243 3.61864e-20)
(-2.2953 -0.131107 0)
(-2.20984 -0.129637 -4.66581e-20)
(-2.12493 -0.127966 0)
(-2.04068 -0.12604 1.71888e-19)
(-1.9572 -0.123885 6.36346e-20)
(-1.87447 -0.121602 6.96661e-20)
(-1.79246 -0.119297 0)
(-1.71113 -0.117029 0)
(-1.63054 -0.114795 0)
(-1.55076 -0.112573 0)
(-1.47183 -0.110349 0)
(-1.3938 -0.108118 2.19498e-19)
(-1.3167 -0.105881 2.34991e-19)
(-1.24056 -0.103642 0)
(-1.1654 -0.101403 -1.34764e-19)
(-1.09126 -0.099167 -1.43544e-19)
(-1.01816 -0.096936 0)
(-0.946122 -0.0947118 -3.23043e-19)
(-0.875162 -0.0924989 0)
(-0.805272 -0.0903108 1.81327e-19)
(-0.736464 -0.0881533 0)
(-0.668748 -0.0860266 0)
(-0.602128 -0.0839332 -4.34456e-19)
(-0.536607 -0.0818743 0)
(-0.472186 -0.0798518 2.44834e-19)
(-0.408865 -0.0778684 0)
(-0.346642 -0.07593 0)
(-0.285511 -0.0740453 2.8977e-19)
(-0.225464 -0.0722125 3.09074e-19)
(-0.166493 -0.070426 0)
(-0.108593 -0.0686889 -3.46367e-19)
(-0.0517699 -0.0670014 0)
(0.00398058 -0.0653549 3.82643e-19)
(0.0586993 -0.0637425 7.66219e-19)
(0.11242 -0.0621754 0)
(0.165143 -0.0606686 0)
(0.216869 -0.0592263 0)
(0.267613 -0.0578465 0)
(0.317407 -0.0565313 7.09263e-19)
(0.366321 -0.0552696 2.09651e-18)
(0.414443 -0.0538916 0)
(0.461684 -0.0522468 0)
(0.507904 -0.0504732 0)
(0.553173 -0.0487268 -6.65645e-19)
(0.597572 -0.0470594 0)
(0.641129 -0.0454796 0)
(0.683863 -0.0439848 1.28796e-18)
(0.725793 -0.0425685 6.36961e-19)
(0.766941 -0.0412233 6.32435e-19)
(0.807329 -0.0399425 0)
(0.846978 -0.0387207 0)
(0.885909 -0.0375534 6.15888e-19)
(0.924145 -0.036437 -6.0965e-19)
(0.961705 -0.0353685 0)
(0.998612 -0.0343454 0)
(1.03489 -0.0333656 -5.9679e-19)
(1.07055 -0.0324273 1.77639e-18)
(1.10563 -0.0315288 0)
(1.14013 -0.0306687 0)
(1.17409 -0.0298457 5.80319e-19)
(1.20753 -0.0290587 0)
(1.24046 -0.0283066 1.14492e-18)
(1.27292 -0.0275884 -5.68531e-19)
(1.30491 -0.0269031 0)
(1.33647 -0.0262497 5.62416e-19)
(1.36761 -0.0256272 1.11755e-18)
(1.39836 -0.0250345 0)
(1.42874 -0.0244705 0)
(1.45877 -0.0239335 -5.4958e-19)
(1.48847 -0.0234219 0)
(1.51785 -0.0229333 1.08645e-18)
(1.54694 -0.022465 0)
(1.57574 -0.022013 0)
(1.60427 -0.0215724 0)
(1.63252 -0.0211366 0)
(1.66048 -0.0206965 -5.29002e-19)
(1.68815 -0.0202402 -5.26234e-19)
(1.71548 -0.0197512 0)
(1.74241 -0.0192069 0)
(1.76886 -0.0185756 0)
(1.79467 -0.0178117 5.16141e-19)
(1.81965 -0.0168482 0)
(1.84347 -0.015582 -1.02487e-18)
(1.86571 -0.0138361 1.02261e-18)
(1.88545 -0.0113259 1.02222e-18)
(1.90225 -0.00731091 1.02331e-18)
(1.91246 -0.000520243 1.02848e-18)
(1.92476 0.0124236 1.02037e-18)
(1.9052 0.0361857 0)
(0.116525 -0.859655 0)
(0.269251 -1.05726 0)
(0.316461 -0.82658 -1.26285e-19)
(0.315838 -0.5848 -1.08129e-19)
(0.298469 -0.374308 1.00443e-19)
(0.267326 -0.189153 1.00616e-19)
(0.221216 -0.023662 -6.46852e-22)
(0.159396 0.124118 0)
(0.081744 0.254709 0)
(-0.0129707 0.365693 0)
(-0.128286 0.451479 0)
(-0.272253 0.512558 0)
(-0.457793 0.566275 -2.67626e-19)
(-0.695461 0.640816 0)
(-0.98161 0.753228 6.63499e-20)
(-1.30038 0.895204 5.72306e-20)
(-1.63379 1.04344 0)
(-1.9649 1.17763 0)
(-2.27842 1.28518 0)
(-2.56249 1.35905 0)
(-2.81172 1.39497 3.49112e-20)
(-3.02578 1.3927 0)
(-3.20606 1.35685 -3.23483e-20)
(-3.35536 1.29468 0)
(-3.47816 1.21352 0)
(-3.57906 1.11976 0)
(-3.66286 1.0195 -6.85831e-20)
(-3.73394 0.918071 0)
(-3.79584 0.819619 3.31133e-20)
(-3.85131 0.726943 -7.06951e-20)
(-3.9023 0.641562 0)
(-3.95009 0.564217 0)
(-3.99546 0.494958 0)
(-4.03875 0.433402 3.65611e-20)
(-4.08009 0.378902 3.71488e-20)
(-4.11943 0.330684 0)
(-4.15664 0.287952 0)
(-4.19153 0.249944 -7.7797e-20)
(-4.22393 0.215965 -7.81904e-20)
(-4.25367 0.185405 7.84237e-20)
(-4.28062 0.157744 0)
(-4.30466 0.132554 0)
(-4.32569 0.109485 0)
(-4.34365 0.0882524 0)
(-4.35847 0.0686228 -7.70082e-20)
(-4.3701 0.0503962 -7.69104e-20)
(-4.37847 0.0333879 7.62676e-20)
(-4.38344 0.0173972 0)
(-4.38484 0.00216761 0)
(-4.38251 -0.0125875 0)
(-4.37639 -0.0270013 0)
(-4.36654 -0.0409876 -7.11042e-20)
(-4.35303 -0.0544543 0)
(-4.33587 -0.0673901 0)
(-4.31512 -0.0797993 -6.69925e-20)
(-4.29082 -0.0916909 -6.49668e-20)
(-4.26305 -0.103072 0)
(-4.23186 -0.113947 1.24565e-19)
(-4.19735 -0.124318 -6.00289e-20)
(-4.15959 -0.134184 5.82523e-20)
(-4.11867 -0.143545 0)
(-4.07469 -0.152397 0)
(-4.02775 -0.16074 0)
(-3.97795 -0.168572 0)
(-3.9254 -0.175896 4.84207e-20)
(-3.87021 -0.182714 9.37723e-20)
(-3.8125 -0.189025 4.40554e-20)
(-3.75238 -0.194832 -4.17833e-20)
(-3.68997 -0.200142 0)
(-3.6254 -0.20496 7.54212e-20)
(-3.55878 -0.209296 7.05381e-20)
(-3.49025 -0.213158 6.55387e-20)
(-3.41992 -0.216556 -6.04235e-20)
(-3.34792 -0.219502 0)
(-3.27438 -0.222008 -7.40941e-20)
(-3.19942 -0.224089 0)
(-3.12316 -0.225757 2.00937e-20)
(-3.04573 -0.22703 1.58707e-20)
(-2.96724 -0.227922 0)
(-2.88782 -0.228451 0)
(-2.80757 -0.228634 1.53587e-20)
(-2.72661 -0.228489 0)
(-2.64505 -0.228034 2.92452e-21)
(-2.563 -0.227287 0)
(-2.48055 -0.226268 9.99812e-21)
(-2.39783 -0.224996 3.47237e-20)
(-2.31491 -0.22349 0)
(-2.2319 -0.22177 0)
(-2.14889 -0.219854 0)
(-2.06599 -0.217759 4.45821e-20)
(-1.98328 -0.215502 0)
(-1.90086 -0.213093 5.94034e-20)
(-1.81884 -0.210533 0)
(-1.73729 -0.207809 0)
(-1.6563 -0.204893 -1.67052e-19)
(-1.57589 -0.20177 0)
(-1.49608 -0.198454 -9.93121e-20)
(-1.41688 -0.194989 0)
(-1.33833 -0.191431 -1.16591e-19)
(-1.26046 -0.187819 0)
(-1.18336 -0.184172 0)
(-1.10706 -0.180496 0)
(-1.03161 -0.176797 -4.62685e-19)
(-0.957042 -0.173084 -1.65041e-19)
(-0.883389 -0.169361 0)
(-0.810677 -0.165637 0)
(-0.738931 -0.161917 0)
(-0.668174 -0.158205 0)
(-0.598421 -0.154507 2.18835e-19)
(-0.529686 -0.150828 -4.58459e-19)
(-0.461974 -0.147178 -2.42668e-19)
(-0.395296 -0.143564 5.07649e-19)
(-0.329663 -0.139993 5.33446e-19)
(-0.265081 -0.136471 2.81372e-19)
(-0.201552 -0.132999 0)
(-0.139077 -0.129578 6.1621e-19)
(-0.0776564 -0.126211 0)
(-0.0172928 -0.122901 -6.73548e-19)
(0.0420203 -0.11965 -3.45162e-19)
(0.100297 -0.116459 0)
(0.157542 -0.11333 6.9313e-19)
(0.213763 -0.110267 3.48834e-19)
(0.268969 -0.10727 0)
(0.323171 -0.104329 3.48728e-19)
(0.376377 -0.101433 -1.05283e-18)
(0.428596 -0.0985915 0)
(0.479842 -0.0958148 0)
(0.530131 -0.0931057 0)
(0.579481 -0.0904649 0)
(0.627915 -0.0878969 -7.07755e-19)
(0.675466 -0.0854088 -7.10247e-19)
(0.722158 -0.0830155 0)
(0.767958 -0.0807044 0)
(0.812849 -0.0784363 0)
(0.856885 -0.0762098 0)
(0.900108 -0.0740413 0)
(0.942536 -0.0719392 0)
(0.98418 -0.0699062 -7.14018e-19)
(1.02506 -0.0679421 -1.08884e-21)
(1.06519 -0.0660453 0)
(1.10459 -0.0642137 0)
(1.14328 -0.0624454 -7.13849e-19)
(1.18128 -0.0607385 0)
(1.21861 -0.0590914 7.14896e-19)
(1.25529 -0.0575026 7.14034e-19)
(1.29135 -0.0559708 0)
(1.32679 -0.0544949 0)
(1.36165 -0.0530737 -7.14566e-19)
(1.39594 -0.0517061 -1.42734e-18)
(1.42969 -0.0503912 0)
(1.46291 -0.049128 0)
(1.49563 -0.0479155 0)
(1.52787 -0.0467529 -7.13258e-19)
(1.55965 -0.0456392 7.12876e-19)
(1.59098 -0.0445735 0)
(1.6219 -0.0435546 1.42287e-18)
(1.65242 -0.0425814 7.10417e-19)
(1.68257 -0.0416526 -1.42082e-18)
(1.71236 -0.0407665 0)
(1.74182 -0.0399211 0)
(1.77097 -0.0391138 -1.41701e-18)
(1.79981 -0.0383414 -7.08216e-19)
(1.82838 -0.0375994 0)
(1.85668 -0.0368823 0)
(1.88472 -0.0361823 0)
(1.9125 -0.0354894 0)
(1.94003 -0.03479 -1.40687e-18)
(1.96729 -0.0340659 0)
(1.99424 -0.033292 0)
(2.02085 -0.0324341 0)
(2.04704 -0.0314443 0)
(2.07268 -0.0302543 0)
(2.09761 -0.0287633 0)
(2.12157 -0.0268198 -1.39754e-18)
(2.14422 -0.0241722 0)
(2.16489 -0.0204154 0)
(2.18335 -0.0147569 -2.8163e-18)
(2.19679 -0.00587933 1.41817e-18)
(2.21148 0.00887488 -1.41629e-18)
(2.20639 0.0362538 1.41174e-18)
(0.0334361 -1.16643 0)
(0.0699187 -1.03046 3.59791e-19)
(0.0342339 -0.747474 0)
(-0.0101634 -0.506985 1.1086e-19)
(-0.0654271 -0.284265 0)
(-0.133213 -0.0746729 0)
(-0.216373 0.122191 -8.28367e-20)
(-0.317281 0.305591 0)
(-0.438062 0.475082 0)
(-0.581319 0.631216 0)
(-0.750907 0.776516 0)
(-0.952043 0.917076 0)
(-1.18739 1.06102 2.04321e-19)
(-1.4514 1.21181 9.24865e-20)
(-1.72962 1.36321 -8.37258e-20)
(-2.00365 1.50187 0)
(-2.25773 1.61393 0)
(-2.48179 1.69002 0)
(-2.67101 1.72641 0)
(-2.82399 1.72437 0)
(-2.94327 1.68776 6.01671e-20)
(-3.0344 1.6218 5.88481e-20)
(-3.10345 1.53333 -5.79928e-20)
(-3.15679 1.42998 5.7689e-20)
(-3.19979 1.31849 0)
(-3.23682 1.20425 0)
(-3.27134 1.09165 5.58377e-20)
(-3.30571 0.983973 0)
(-3.34121 0.883341 0)
(-3.37836 0.790802 5.8692e-20)
(-3.41715 0.706601 6.15114e-20)
(-3.45725 0.630513 6.22233e-20)
(-3.49813 0.562007 0)
(-3.53917 0.500388 0)
(-3.57975 0.444895 -6.40343e-20)
(-3.61931 0.394772 0)
(-3.65737 0.349306 0)
(-3.69349 0.307854 6.43077e-20)
(-3.72734 0.269851 -6.60288e-20)
(-3.75865 0.234808 6.60394e-20)
(-3.78718 0.20231 0)
(-3.81275 0.172006 0)
(-3.8352 0.143599 1.30012e-19)
(-3.85442 0.116839 0)
(-3.87028 0.0915132 1.28624e-19)
(-3.88271 0.0674454 1.91033e-19)
(-3.89162 0.0444916 -1.89392e-19)
(-3.89693 0.0225313 1.25327e-19)
(-3.89862 0.00144739 0)
(-3.89668 -0.0188762 0)
(-3.89114 -0.0385176 1.19871e-19)
(-3.88206 -0.0574959 5.84046e-20)
(-3.86948 -0.0758071 0)
(-3.85342 -0.0934501 0)
(-3.83394 -0.110424 5.48985e-20)
(-3.81106 -0.126729 1.08247e-19)
(-3.78486 -0.142363 0)
(-3.75539 -0.157324 -1.01795e-19)
(-3.72272 -0.171607 9.99651e-20)
(-3.68693 -0.185208 -9.69932e-20)
(-3.6481 -0.198122 0)
(-3.60632 -0.210345 0)
(-3.56169 -0.221869 0)
(-3.51429 -0.232694 0)
(-3.46423 -0.242823 0)
(-3.41163 -0.252257 -7.59204e-20)
(-3.35658 -0.260994 0)
(-3.2992 -0.26904 0)
(-3.2396 -0.276401 0)
(-3.17791 -0.283087 -1.22617e-19)
(-3.11424 -0.289108 -5.67011e-20)
(-3.04871 -0.294476 -5.26e-20)
(-2.98144 -0.299205 9.80349e-20)
(-2.91255 -0.30331 -4.536e-20)
(-2.84216 -0.306809 3.98082e-20)
(-2.7704 -0.30972 0)
(-2.69737 -0.312063 -3.08856e-20)
(-2.6232 -0.313858 0)
(-2.54801 -0.315128 0)
(-2.47191 -0.315894 0)
(-2.39501 -0.316181 -2.54855e-20)
(-2.31742 -0.316011 8.48296e-21)
(-2.23924 -0.315409 4.76555e-21)
(-2.16059 -0.3144 -2.98586e-21)