/*--------------------------------*- C++ -*----------------------------------*\
  =========                 |
  \\      /  F ield         | OpenFOAM: The Open Source CFD Toolbox
   \\    /   O peration     | Website:  https://openfoam.org
    \\  /    A nd           | Version:  8
     \\/     M anipulation  |
\*---------------------------------------------------------------------------*/
FoamFile
{
    version     2.0;
    format      ascii;
    class       volScalarField;
    location    "600";
    object      k;
}
// * * * * * * * * * * * * * * * * * * * * * * * * * * * * * * * * * * * * * //

dimensions      [0 2 -2 0 0 0 0];

internalField   nonuniform List<scalar> 
12225
(
0.581859
0.615499
0.613352
0.598062
0.567001
0.534817
0.505736
0.482094
0.463817
0.449156
0.43882
0.430907
0.426447
0.423194
0.42233
0.422398
0.424411
0.42585
0.875783
0.947964
0.896168
0.805364
0.747204
0.715615
0.698322
0.695195
0.697166
0.702213
0.711369
0.721267
0.733786
0.743754
0.758029
0.765952
0.784533
0.786609
0.646307
0.740065
0.744466
0.729944
0.700878
0.676359
0.656422
0.642425
0.632695
0.626479
0.622782
0.621846
0.622511
0.623725
0.627374
0.629812
0.635131
0.639675
0.578049
0.62145
0.638607
0.641302
0.637652
0.629507
0.619504
0.610052
0.601584
0.5943
0.588182
0.583098
0.57928
0.575966
0.573818
0.572043
0.570805
0.570684
0.557356
0.576824
0.588661
0.594154
0.594848
0.593509
0.59023
0.58556
0.580584
0.575574
0.570845
0.566313
0.56229
0.558525
0.555205
0.552276
0.549514
0.547383
0.55138
0.557859
0.564768
0.568916
0.570634
0.570495
0.569634
0.567736
0.56508
0.562063
0.558952
0.555748
0.552648
0.54961
0.546711
0.543994
0.541359
0.539009
0.549337
0.550349
0.553034
0.55519
0.556452
0.556499
0.556177
0.555332
0.553855
0.552029
0.550015
0.547842
0.545624
0.543373
0.54114
0.53896
0.536807
0.534786
0.548827
0.547979
0.5483
0.54894
0.549395
0.549281
0.548909
0.548186
0.547123
0.545794
0.544296
0.542658
0.540947
0.539183
0.537402
0.535631
0.533862
0.532169
0.548757
0.546988
0.546056
0.545609
0.545319
0.544856
0.544262
0.543499
0.542555
0.541441
0.540205
0.538865
0.53746
0.536006
0.534528
0.533047
0.531557
0.53012
0.548788
0.546622
0.544942
0.543676
0.542694
0.541785
0.540887
0.539955
0.538966
0.537905
0.536784
0.535607
0.534392
0.533148
0.531888
0.530627
0.529356
0.528129
0.548816
0.546539
0.544511
0.542753
0.54125
0.539912
0.538682
0.537512
0.536374
0.535245
0.534117
0.532985
0.53185
0.530714
0.52958
0.528457
0.527334
0.526254
0.548825
0.546537
0.544393
0.542413
0.540612
0.53897
0.537459
0.536053
0.534728
0.533465
0.53225
0.531073
0.529928
0.528811
0.527719
0.526655
0.525607
0.524605
0.548826
0.546541
0.544372
0.542323
0.540399
0.538599
0.536917
0.535341
0.533859
0.532461
0.531135
0.529872
0.528665
0.527509
0.526396
0.525328
0.524292
0.523307
0.548825
0.54654
0.544368
0.542303
0.540344
0.538488
0.536732
0.53507
0.533498
0.532009
0.530597
0.529257
0.527982
0.526768
0.52561
0.524505
0.523445
0.522438
0.548824
0.546539
0.544365
0.542297
0.540329
0.538459
0.536679
0.534988
0.533379
0.531849
0.530394
0.529009
0.52769
0.526434
0.525237
0.524096
0.523005
0.521967
0.548823
0.546537
0.544361
0.542292
0.540322
0.538447
0.536662
0.534962
0.533342
0.531799
0.530328
0.528926
0.527588
0.526312
0.525095
0.523933
0.522823
0.521765
0.548823
0.546536
0.544359
0.542288
0.540317
0.53844
0.536653
0.53495
0.533327
0.53178
0.530304
0.528896
0.527553
0.52627
0.525045
0.523876
0.522758
0.521691
0.548823
0.546535
0.544358
0.542286
0.540314
0.538437
0.536648
0.534945
0.533321
0.531772
0.530296
0.528887
0.527542
0.526258
0.525032
0.523862
0.522743
0.521675
0.548823
0.546535
0.544358
0.542286
0.540314
0.538436
0.536649
0.534946
0.533325
0.531779
0.530306
0.528902
0.527563
0.526286
0.525067
0.523904
0.522794
0.521732
0.548823
0.546535
0.544358
0.542287
0.540317
0.538444
0.536665
0.534974
0.533367
0.531841
0.53039
0.529009
0.527696
0.526445
0.525252
0.524115
0.52303
0.521992
0.548823
0.546535
0.544359
0.542294
0.540342
0.5385
0.536764
0.535128
0.533585
0.532127
0.530745
0.529434
0.528187
0.526997
0.525861
0.524773
0.523732
0.522729
0.548821
0.54653
0.544373
0.542363
0.540511
0.538807
0.537232
0.535766
0.534392
0.533091
0.53185
0.53066
0.529512
0.528401
0.527324
0.526276
0.525262
0.524267
0.548802
0.546542
0.544532
0.542797
0.541327
0.540023
0.538825
0.537696
0.536597
0.535506
0.534414
0.533316
0.532214
0.531109
0.530006
0.528908
0.527823
0.526742
0.548729
0.546811
0.545468
0.544642
0.544104
0.543508
0.542849
0.542104
0.541211
0.540189
0.539061
0.537853
0.536584
0.535278
0.533949
0.532611
0.531281
0.529951
0.548716
0.548482
0.549093
0.550288
0.551155
0.551154
0.550891
0.550228
0.549063
0.547635
0.54602
0.544287
0.542481
0.540642
0.538798
0.536967
0.535172
0.533408
0.549961
0.554311
0.560235
0.564027
0.565625
0.565473
0.564615
0.562816
0.560402
0.557728
0.554918
0.552077
0.549256
0.546506
0.543845
0.541293
0.538861
0.53654
0.555009
0.576098
0.587998
0.592439
0.591729
0.58923
0.584576
0.57949
0.574279
0.569224
0.564408
0.55992
0.555746
0.551916
0.548394
0.545179
0.54225
0.539567
0.584041
0.639565
0.650441
0.64526
0.633105
0.619342
0.606839
0.596012
0.586716
0.578861
0.572153
0.566532
0.561738
0.55775
0.554357
0.55155
0.549204
0.547234
0.694994
0.757578
0.736918
0.693541
0.657352
0.631482
0.61324
0.60052
0.591512
0.585282
0.580851
0.577938
0.575938
0.574857
0.574252
0.574323
0.574549
0.57524
0.554995
0.575273
0.575434
0.570332
0.558617
0.542677
0.526529
0.511371
0.497418
0.485006
0.47389
0.464194
0.455581
0.448131
0.441529
0.435838
0.430817
0.426477
0.000503876
0.0029894
0.00560289
0.00789557
0.0100329
0.0124489
0.0152772
0.0187054
0.0228503
0.0277189
0.0332164
0.0392074
0.045549
0.0521157
0.0588024
0.0655191
0.0721953
0.0787583
0.0851562
0.0913203
0.0972085
0.102753
0.107924
0.112671
0.116981
0.12085
0.124296
0.127379
0.129997
0.132008
0.135404
0.138006
0.140611
0.14276
0.1464
0.146842
0.145944
0.144123
0.139383
0.134078
0.139052
0.147348
0.152801
0.161645
0.168331
0.176668
0.184473
0.192834
0.201175
0.209783
0.218503
0.227412
0.236467
0.245689
0.255066
0.264604
0.274298
0.28415
0.294156
0.304316
0.314628
0.325088
0.335694
0.346442
0.357329
0.368348
0.379497
0.390768
0.402157
0.413656
0.425258
0.436955
0.448741
0.460605
0.472539
0.484533
0.496579
0.508665
0.520781
0.532915
0.545056
0.557193
0.569312
0.581402
0.593448
0.605436
0.617353
0.629182
0.640905
0.652505
0.663961
0.675251
0.686351
0.697239
0.707894
0.718309
0.728508
0.738583
0.748388
0.757979
0.767324
0.776426
0.785268
0.793841
0.802132
0.810133
0.817832
0.825219
0.832285
0.83902
0.845416
0.851465
0.857159
0.86249
0.867452
0.87204
0.876247
0.88007
0.883503
0.886543
0.889189
0.891436
0.893286
0.894736
0.895788
0.89644
0.896693
0.896613
0.89604
0.89513
0.893752
0.891971
0.889912
0.887552
0.884739
0.881575
0.878056
0.874194
0.869999
0.865479
0.860644
0.855506
0.850074
0.84436
0.838376
0.832132
0.825641
0.818917
0.811972
0.804818
0.79747
0.789939
0.782239
0.774383
0.766385
0.758257
0.750013
0.741666
0.733234
0.724734
0.716198
0.707718
0.700021
0.695318
0.691553
0.687844
0.684119
0.680374
0.676614
0.672842
0.669062
0.665272
0.661467
0.657628
0.653719
0.649659
0.645286
0.640164
0.633309
0.607795
0.00260645
0.0110761
0.0169185
0.0212506
0.0250554
0.0287576
0.03272
0.0371682
0.0422075
0.0478397
0.0539939
0.0605666
0.0674471
0.0745345
0.0817437
0.0890023
0.0962517
0.103438
0.110516
0.117441
0.124175
0.130678
0.136924
0.142892
0.148582
0.154013
0.159225
0.164302
0.169364
0.17461
0.180294
0.186482
0.193441
0.200784
0.207265
0.213073
0.219829
0.227764
0.238449
0.247579
0.260385
0.274308
0.288548
0.301002
0.313382
0.326632
0.34018
0.354114
0.368367
0.382955
0.397863
0.413094
0.428645
0.444517
0.460711
0.477226
0.494065
0.511227
0.528713
0.546523
0.564656
0.58311
0.601884
0.620975
0.640379
0.660091
0.680107
0.70042
0.721024
0.741909
0.763068
0.78449
0.806165
0.828081
0.850224
0.872582
0.89514
0.917882
0.940792
0.963852
0.987045
1.01035
1.03375
1.05722
1.08074
1.10429
1.12785
1.15138
1.17486
1.19827
1.22157
1.24473
1.26771
1.29048
1.31297
1.33514
1.35691
1.3782
1.39921
1.4199
1.44026
1.46028
1.47992
1.49917
1.518
1.53639
1.55432
1.57176
1.5887
1.60511
1.62097
1.63626
1.65097
1.66507
1.67856
1.6914
1.7036
1.71513
1.72598
1.73613
1.74559
1.75434
1.76236
1.76966
1.77624
1.78207
1.78717
1.79154
1.79517
1.79806
1.80011
1.8013
1.80187
1.80195
1.80118
1.79966
1.79742
1.79449
1.79088
1.78659
1.78165
1.77606
1.76985
1.76303
1.75562
1.74764
1.73912
1.73006
1.7205
1.71045
1.69994
1.68899
1.67763
1.66587
1.65375
1.64129
1.6285
1.61542
1.60208
1.58849
1.57469
1.56074
1.54683
1.53337
1.52002
1.50659
1.49309
1.47954
1.46596
1.45235
1.43875
1.42514
1.41155
1.39796
1.38436
1.37069
1.35678
1.34263
1.32673
1.29093
0.00562808
0.0192784
0.0271347
0.0329528
0.0381061
0.0431331
0.0483396
0.0539113
0.0599381
0.0664315
0.073347
0.0806108
0.0881409
0.095861
0.103706
0.111624
0.119573
0.127519
0.135435
0.143296
0.151087
0.158795
0.166418
0.173971
0.181492
0.189052
0.196763
0.204775
0.21324
0.222318
0.232113
0.242595
0.253589
0.26472
0.275986
0.287751
0.300149
0.313601
0.328123
0.343035
0.358857
0.37517
0.391645
0.408193
0.425046
0.442357
0.460079
0.478209
0.496733
0.515649
0.534955
0.55465
0.574733
0.595205
0.616064
0.637313
0.65895
0.680975
0.703388
0.726188
0.749372
0.772937
0.796881
0.821199
0.845886
0.870935
0.896341
0.922094
0.948185
0.974605
1.00134
1.02838
1.05572
1.08333
1.1112
1.13931
1.16765
1.1962
1.22494
1.25384
1.28289
1.31206
1.34132
1.37066
1.40004
1.42944
1.45883
1.48818
1.51745
1.54663
1.57566
1.60453
1.6332
1.66163
1.6898
1.71766
1.74519
1.77239
1.79923
1.82569
1.85173
1.87733
1.90245
1.92706
1.95114
1.97465
1.99757
2.01986
2.04151
2.06247
2.08273
2.10226
2.12103
2.13903
2.15623
2.17261
2.18815
2.20284
2.21665
2.22957
2.24158
2.25269
2.26286
2.27211
2.28041
2.28777
2.29418
2.29964
2.30414
2.30769
2.31024
2.31171
2.31232
2.3122
2.31106
2.30897
2.30597
2.30207
2.29729
2.29165
2.28517
2.27786
2.26975
2.26087
2.25123
2.24086
2.22978
2.21803
2.20563
2.1926
2.17899
2.16481
2.1501
2.13489
2.11921
2.10308
2.08655
2.06965
2.0524
2.03484
2.01702
1.99898
1.98087
1.96289
1.94493
1.92689
1.90876
1.89056
1.87233
1.85409
1.83585
1.81765
1.7995
1.78141
1.76341
1.74551
1.72764
1.70991
1.69102
1.66014
0.00917746
0.027199
0.0369366
0.0440408
0.0502504
0.056215
0.062271
0.0686105
0.07533
0.0824542
0.0899576
0.097786
0.105876
0.114166
0.122606
0.131155
0.139787
0.148481
0.157229
0.166024
0.174871
0.183779
0.19277
0.20188
0.211164
0.220703
0.230596
0.240956
0.2519
0.263521
0.27586
0.288871
0.302447
0.316459
0.330911
0.345906
0.36151
0.377855
0.394927
0.412591
0.430808
0.449493
0.468567
0.487989
0.50779
0.528014
0.548673
0.569771
0.591306
0.613281
0.635696
0.658552
0.681851
0.705594
0.729782
0.754415
0.779496
0.805022
0.830995
0.857413
0.884274
0.911576
0.939315
0.967487
0.996087
1.02511
1.05454
1.08438
1.11461
1.14523
1.17622
1.20756
1.23925
1.27126
1.30358
1.33618
1.36906
1.40218
1.43553
1.46907
1.50279
1.53665
1.57064
1.60471
1.63884
1.673
1.70716
1.74128
1.77532
1.80926
1.84306
1.87668
1.91009
1.94326
1.97615
2.00872
2.04095
2.0728
2.10424
2.13522
2.16572
2.19569
2.22509
2.2539
2.28207
2.30957
2.33637
2.36242
2.3877
2.41218
2.43582
2.45859
2.48047
2.50143
2.52144
2.54048
2.55853
2.57556
2.59156
2.6065
2.62037
2.63316
2.64486
2.65545
2.66493
2.67329
2.68053
2.68665
2.69164
2.6955
2.6982
2.69966
2.70013
2.69961
2.69795
2.69518
2.69134
2.68645
2.68053
2.67359
2.66567
2.65678
2.64696
2.63622
2.6246
2.61213
2.59883
2.58474
2.56989
2.55432
2.53806
2.52114
2.50361
2.48548
2.46682
2.44764
2.42798
2.4079
2.38741
2.36657
2.34542
2.32402
2.30247
2.28091
2.2593
2.23759
2.2158
2.19394
2.17204
2.15015
2.12828
2.10649
2.08479
2.06324
2.04189
2.0208
2.00003
1.97974
1.95883
1.93057
0.012816
0.0346919
0.0461854
0.0544815
0.0616301
0.0683797
0.0751092
0.0820321
0.0892624
0.096845
0.104776
0.113023
0.12154
0.13028
0.139205
0.148285
0.157505
0.166855
0.17634
0.185968
0.195756
0.205729
0.215921
0.226377
0.237151
0.248313
0.25994
0.272113
0.284907
0.298374
0.312535
0.32736
0.342801
0.358803
0.375354
0.392474
0.410197
0.428563
0.447555
0.467131
0.48725
0.507876
0.528978
0.550533
0.572542
0.595017
0.617969
0.641403
0.665325
0.689738
0.714644
0.740048
0.765953
0.792361
0.819274
0.846695
0.874626
0.903067
0.932019
0.961481
0.991454
1.02193
1.05292
1.0844
1.11638
1.14885
1.1818
1.21522
1.24911
1.28344
1.31821
1.3534
1.38899
1.42497
1.46131
1.498
1.53502
1.57232
1.6099
1.64772
1.68576
1.72398
1.76235
1.80084
1.83941
1.87803
1.91667
1.95527
1.99381
2.03225
2.07054
2.10866
2.14654
2.18417
2.22149
2.25847
2.29506
2.33121
2.3669
2.40206
2.43666
2.47066
2.50402
2.53668
2.56862
2.59978
2.63013
2.65963
2.68824
2.71592
2.74264
2.76837
2.79307
2.81671
2.83926
2.86069
2.88098
2.90011
2.91804
2.93477
2.95028
2.96454
2.97755
2.98929
2.99976
3.00895
3.01686
3.02349
3.02883
3.03287
3.0356
3.03694
3.03718
3.0362
3.03395
3.03045
3.02574
3.01983
3.01275
3.00453
2.99518
2.98475
2.97325
2.96072
2.9472
2.93271
2.91729
2.90098
2.88381
2.86583
2.84707
2.82757
2.80738
2.78653
2.76507
2.74304
2.72048
2.69743
2.67394
2.65005
2.62581
2.60129
2.57657
2.55174
2.52681
2.50177
2.47664
2.45145
2.42622
2.40101
2.37586
2.35082
2.32593
2.30128
2.27693
2.25302
2.22967
2.20708
2.1843
2.15671
0.0163284
0.0415649
0.0546449
0.0640307
0.0720245
0.0794583
0.086752
0.0941428
0.101766
0.109686
0.117924
0.126467
0.135288
0.144356
0.153645
0.163135
0.17282
0.182699
0.192785
0.203095
0.213657
0.224503
0.23567
0.247204
0.259154
0.271577
0.284528
0.298062
0.312227
0.327055
0.34256
0.358734
0.375556
0.392998
0.411044
0.429694
0.448951
0.468821
0.489296
0.51036
0.531996
0.554186
0.576917
0.600175
0.623958
0.648266
0.673107
0.698485
0.724408
0.750879
0.777905
0.80549
0.83364
0.862359
0.891651
0.92152
0.951968
0.982998
1.01461
1.04681
1.0796
1.11296
1.14691
1.18144
1.21655
1.25221
1.28844
1.32522
1.36254
1.40038
1.43874
1.47759
1.51692
1.5567
1.59692
1.63755
1.67857
1.71994
1.76164
1.80364
1.8459
1.88838
1.93106
1.9739
2.01684
2.05986
2.10292
2.14596
2.18894
2.23183
2.27456
2.31711
2.35942
2.40144
2.44312
2.48442
2.52528
2.56565
2.60549
2.64474
2.68335
2.72129
2.75849
2.79492
2.83051
2.86524
2.89904
2.93188
2.96371
2.9945
3.0242
3.05277
3.08017
3.10638
3.13136
3.15508
3.17751
3.19862
3.21839
3.2368
3.25382
3.26945
3.28367
3.29646
3.30782
3.31775
3.32623
3.33327
3.33887
3.34302
3.3457
3.34686
3.34678
3.34528
3.34239
3.33811
3.33247
3.32551
3.31724
3.3077
3.29692
3.28492
3.27174
3.25742
3.24199
3.2255
3.20797
3.18947
3.17001
3.14966
3.12845
3.10642
3.08363
3.06012
3.03594
3.01113
2.98574
2.95982
2.93341
2.90657
2.87934
2.8518
2.82401
2.79605
2.76795
2.73973
2.71141
2.68303
2.65463
2.62626
2.59798
2.56984
2.54193
2.51433
2.48715
2.46056
2.43473
2.40987
2.38512
2.35696
0.0195751
0.0476754
0.0621431
0.0724926
0.0812317
0.0892596
0.0970305
0.104803
0.112731
0.1209
0.12935
0.138091
0.147114
0.156403
0.165944
0.175728
0.185756
0.196036
0.206584
0.217425
0.22859
0.240113
0.252034
0.264394
0.277236
0.290604
0.304539
0.319079
0.334257
0.350093
0.366601
0.38378
0.401623
0.420116
0.43925
0.459016
0.479409
0.500429
0.522069
0.544326
0.567192
0.590661
0.614727
0.639386
0.664634
0.690473
0.716907
0.743942
0.771586
0.799844
0.828724
0.858233
0.888377
0.919164
0.950599
0.982687
1.01543
1.04884
1.08292
1.11767
1.15308
1.18917
1.22592
1.26334
1.30143
1.34017
1.37955
1.41958
1.46024
1.5015
1.54337
1.58581
1.62882
1.67236
1.71641
1.76095
1.80594
1.85136
1.89717
1.94333
1.98981
2.03657
2.08357
2.13076
2.1781
2.22554
2.27303
2.32052
2.36797
2.41532
2.46252
2.50951
2.55624
2.60265
2.64869
2.6943
2.73942
2.784
2.82797
2.87129
2.9139
2.95575
2.99677
3.03692
3.07614
3.11438
3.1516
3.18773
3.22273
3.25657
3.28918
3.32053
3.35059
3.3793
3.40664
3.43257
3.45706
3.48008
3.50161
3.52162
3.54009
3.55701
3.57235
3.58612
3.59829
3.60887
3.61785
3.62523
3.63101
3.63521
3.63775
3.6387
3.6382
3.63614
3.63254
3.62743
3.62082
3.61276
3.60326
3.59236
3.5801
3.56651
3.55163
3.5355
3.51816
3.49965
3.48002
3.45932
3.43759
3.41487
3.39122
3.3667
3.34134
3.31519
3.28832
3.26077
3.23259
3.20384
3.17456
3.14482
3.11466
3.08415
3.05336
3.02235
2.99117
2.95986
2.92844
2.89696
2.86547
2.83404
2.80272
2.77159
2.74074
2.71028
2.68035
2.65114
2.62284
2.59565
2.56879
2.53923
0.0224546
0.05293
0.0685683
0.079737
0.0891099
0.0976393
0.105806
0.113885
0.122046
0.130392
0.138982
0.147843
0.156984
0.166405
0.176105
0.186082
0.196346
0.206909
0.217792
0.229022
0.240631
0.252655
0.265128
0.27809
0.291577
0.305623
0.320262
0.33552
0.351421
0.367982
0.385215
0.403124
0.421709
0.440965
0.460887
0.481471
0.502713
0.524611
0.547164
0.57037
0.594231
0.618744
0.643911
0.669731
0.696206
0.72334
0.751138
0.779606
0.808754
0.838589
0.869121
0.90036
0.932313
0.96499
0.998398
1.03255
1.06744
1.10309
1.13949
1.17666
1.21459
1.25329
1.29276
1.33299
1.37398
1.41572
1.45821
1.50144
1.54539
1.59005
1.6354
1.68143
1.7281
1.77539
1.82328
1.87174
1.92073
1.97022
2.02016
2.07052
2.12126
2.17233
2.22367
2.27525
2.32702
2.37891
2.43087
2.48285
2.53478
2.58662
2.63829
2.68974
2.74091
2.79172
2.84212
2.89204
2.94141
2.99018
3.03828
3.08565
3.13222
3.17794
3.22275
3.26658
3.30938
3.3511
3.39166
3.43103
3.46915
3.50596
3.54142
3.57548
3.6081
3.63924
3.66886
3.69692
3.72339
3.74824
3.77143
3.79296
3.81279
3.8309
3.84729
3.86193
3.87483
3.88598
3.89537
3.90301
3.9089
3.91305
3.9154
3.91607
3.91509
3.9124
3.90804
3.90204
3.89441
3.8852
3.87443
3.86214
3.84837
3.83317
3.81656
3.7986
3.77934
3.75882
3.73708
3.71418
3.69018
3.66512
3.63906
3.61205
3.58414
3.5554
3.52588
3.49562
3.4647
3.43317
3.40107
3.36847
3.33543
3.30201
3.26828
3.23429
3.20012
3.16578
3.13135
3.09685
3.06236
3.02794
2.99367
2.95963
2.92592
2.89266
2.86003
2.82822
2.79744
2.76786
2.73876
2.70758
0.0249032
0.0572868
0.0738702
0.0857032
0.0955899
0.104523
0.113004
0.121318
0.129649
0.138112
0.146781
0.1557
0.164893
0.174375
0.184153
0.194239
0.204644
0.215387
0.22649
0.237982
0.249893
0.262256
0.275106
0.288476
0.302397
0.316899
0.332008
0.347747
0.364135
0.381188
0.398918
0.417331
0.436432
0.456223
0.476706
0.49788
0.519745
0.542304
0.565558
0.589511
0.614167
0.639528
0.665601
0.692391
0.719903
0.748145
0.777124
0.806849
0.837331
0.868582
0.900612
0.933433
0.967056
1.00149
1.03676
1.07285
1.10979
1.14758
1.18623
1.22575
1.26613
1.30739
1.34952
1.39251
1.43638
1.4811
1.52668
1.5731
1.62035
1.66841
1.71726
1.76688
1.81724
1.86831
1.92007
1.97247
2.02549
2.07908
2.13319
2.18778
2.2428
2.2982
2.35393
2.40992
2.46613
2.52249
2.57893
2.6354
2.69182
2.74814
2.80428
2.86016
2.91574
2.97092
3.02563
3.07982
3.1334
3.1863
3.23846
3.28981
3.34027
3.38979
3.4383
3.48573
3.53201
3.57709
3.62091
3.66341
3.70452
3.7442
3.78239
3.81904
3.85411
3.88756
3.91933
3.9494
3.97772
4.00427
4.02901
4.05193
4.073
4.09219
4.1095
4.12492
4.13844
4.15004
4.15975
4.16754
4.17344
4.17747
4.17956
4.17985
4.17831
4.17494
4.16976
4.16281
4.15411
4.14371
4.13164
4.11793
4.10264
4.0858
4.06746
4.04767
4.02649
4.00396
3.98013
3.95507
3.92882
3.90145
3.87301
3.84356
3.81316
3.78187
3.74975
3.71686
3.68325
3.649
3.61415
3.57878
3.54293
3.50668
3.47008
3.43321
3.39613
3.35888
3.32152
3.28411
3.24671
3.2094
3.17226
3.13539
3.0989
3.06292
3.02764
2.99326
2.95999
2.92798
2.89655
2.86361
0.0268871
0.0607452
0.0780521
0.0903929
0.10067
0.109908
0.118619
0.127099
0.135538
0.144063
0.152759
0.161684
0.170875
0.180356
0.190147
0.200265
0.21073
0.221562
0.232787
0.24443
0.256521
0.26909
0.282168
0.295783
0.309964
0.324737
0.340126
0.356151
0.372832
0.390182
0.408217
0.426945
0.446377
0.466519
0.487377
0.508958
0.531267
0.554309
0.578092
0.602622
0.627908
0.653959
0.680784
0.708393
0.736794
0.766
0.796023
0.826873
0.858566
0.891115
0.924535
0.95884
0.994044
1.03016
1.0672
1.10519
1.14412
1.18401
1.22487
1.2667
1.30952
1.35332
1.3981
1.44387
1.49062
1.53834
1.58703
1.63667
1.68724
1.73873
1.79111
1.84435
1.89844
1.95333
2.00898
2.06537
2.12244
2.18015
2.23845
2.29728
2.3566
2.41633
2.47643
2.53683
2.59746
2.65825
2.71914
2.78005
2.8409
2.90163
2.96216
3.0224
3.08229
3.14173
3.20066
3.25899
3.31665
3.37356
3.42964
3.48482
3.53902
3.59218
3.64422
3.69508
3.74467
3.79295
3.83984
3.88527
3.9292
3.97156
4.01229
4.05135
4.08868
4.12424
4.15799
4.18988
4.21988
4.24795
4.27407
4.29821
4.32035
4.34047
4.35856
4.3746
4.38859
4.40052
4.41041
4.41824
4.42405
4.42783
4.42958
4.42939
4.42724
4.4231
4.41704
4.40909
4.39928
4.38766
4.37425
4.35911
4.34228
4.32381
4.30375
4.28215
4.25907
4.23457
4.20869
4.18151
4.15307
4.12345
4.0927
4.06088
4.02807
3.99432
3.95969
3.92425
3.88807
3.8512
3.81371
3.77566
3.73712
3.69814
3.6588
3.61917
3.5793
3.53926
3.49911
3.4589
3.41872
3.37864
3.33875
3.29916
3.25999
3.22138
3.18352
3.14662
3.11088
3.07643
3.04263
3.00772
0.0283987
0.0633397
0.0811626
0.0938597
0.104406
0.113849
0.122707
0.131283
0.139771
0.148305
0.15698
0.165863
0.175002
0.184434
0.194186
0.204282
0.214744
0.225593
0.236855
0.248553
0.260716
0.27337
0.286544
0.300264
0.314557
0.329448
0.344958
0.36111
0.377921
0.395411
0.413594
0.432485
0.452097
0.472443
0.493534
0.515381
0.537996
0.561389
0.585571
0.610553
0.63635
0.662973
0.690437
0.718758
0.747949
0.778027
0.809006
0.840903
0.873736
0.907522
0.94228
0.978026
1.01478
1.05255
1.09136
1.13122
1.17215
1.21415
1.25724
1.30142
1.3467
1.39309
1.44058
1.48917
1.53885
1.58963
1.64148
1.69439
1.74834
1.80331
1.85927
1.91619
1.97404
2.03278
2.09236
2.15275
2.21388
2.27571
2.33818
2.40124
2.46481
2.52883
2.59324
2.65797
2.72293
2.78806
2.85327
2.91849
2.98364
3.04862
3.11337
3.17779
3.2418
3.30531
3.36823
3.43049
3.492
3.55267
3.61242
3.67118
3.72887
3.7854
3.84071
3.89472
3.94735
3.99854
4.04822
4.09632
4.14278
4.18754
4.23054
4.27173
4.31105
4.34846
4.38392
4.41738
4.44881
4.47816
4.50543
4.53056
4.55356
4.57439
4.59305
4.60953
4.62382
4.63591
4.64582
4.65355
4.65912
4.66255
4.66384
4.66309
4.66023
4.65526
4.64826
4.63926
4.6283
4.61543
4.60067
4.5841
4.56574
4.54566
4.52391
4.50055
4.47563
4.44921
4.42136
4.39214
4.3616
4.32983
4.29688
4.26281
4.2277
4.19161
4.15461
4.11676
4.07813
4.0388
3.99881
3.95824
3.91715
3.87561
3.83369
3.79146
3.74898
3.70631
3.66352
3.62069
3.57788
3.53518
3.49269
3.45053
3.4088
3.36769
3.32735
3.28801
3.24985
3.213
3.17685
3.13994
0.0294541
0.0651321
0.0832804
0.0961936
0.106895
0.116446
0.12537
0.13397
0.142447
0.15094
0.159551
0.168357
0.177412
0.186758
0.196428
0.206448
0.216845
0.227641
0.23886
0.250527
0.262665
0.275301
0.288461
0.30217
0.316455
0.331339
0.346847
0.362999
0.379819
0.397326
0.415539
0.434479
0.454163
0.474609
0.495835
0.517856
0.540691
0.564354
0.588861
0.614226
0.640469
0.667607
0.695658
0.724644
0.754587
0.785504
0.817419
0.850353
0.884327
0.919363
0.955482
0.992704
1.03105
1.07053
1.11118
1.15299
1.19599
1.24019
1.2856
1.33223
1.38008
1.42915
1.47945
1.53097
1.58369
1.63762
1.69273
1.749
1.80642
1.86494
1.92454
1.98519
2.04684
2.10944
2.17295
2.23732
2.30248
2.36839
2.43496
2.50215
2.56987
2.63805
2.70663
2.77551
2.84462
2.91387
2.98319
3.05248
3.12165
3.19061
3.25929
3.32757
3.39538
3.46262
3.5292
3.59502
3.66001
3.72407
3.78712
3.84907
3.90984
3.96936
4.02753
4.08429
4.13955
4.19326
4.24533
4.2957
4.3443
4.39108
4.43596
4.47891
4.51986
4.55877
4.59559
4.63028
4.6628
4.69313
4.72123
4.74708
4.77066
4.79194
4.81093
4.82761
4.84197
4.85403
4.86378
4.87124
4.87642
4.87934
4.88005
4.87865
4.87498
4.86911
4.86111
4.85102
4.83889
4.82475
4.80866
4.79067
4.77082
4.74918
4.7258
4.70075
4.67407
4.64584
4.61613
4.58499
4.55249
4.5187
4.4837
4.44754
4.4103
4.37205
4.33285
4.29278
4.2519
4.21029
4.168
4.12511
4.08169
4.03779
3.9935
3.94887
3.90399
3.85891
3.8137
3.76844
3.72321
3.67809
3.6332
3.58863
3.54454
3.50107
3.4584
3.41674
3.37626
3.3371
3.29868
3.2598
0.0300979
0.0662077
0.0845072
0.097508
0.108257
0.117825
0.126736
0.135298
0.143714
0.152124
0.160635
0.169325
0.178255
0.187472
0.197013
0.206908
0.217185
0.227868
0.238982
0.250553
0.262608
0.275168
0.288252
0.301886
0.316094
0.330903
0.346336
0.362418
0.379175
0.396629
0.414805
0.433726
0.453416
0.473897
0.495194
0.517328
0.540325
0.564211
0.58902
0.614774
0.641486
0.669165
0.697829
0.727513
0.75825
0.790066
0.82299
0.857048
0.892266
0.928668
0.966279
1.00512
1.04521
1.08657
1.12922
1.17317
1.21843
1.26502
1.31294
1.36221
1.41281
1.46476
1.51805
1.57266
1.62859
1.68581
1.74431
1.80407
1.86504
1.92719
1.99049
2.05489
2.12034
2.18679
2.25419
2.32246
2.39155
2.46139
2.53191
2.60303
2.67468
2.74677
2.81923
2.89196
2.96489
3.03791
3.11094
3.18389
3.25667
3.32917
3.4013
3.47298
3.54409
3.61455
3.68426
3.75313
3.82106
3.88797
3.95376
4.01835
4.08166
4.14359
4.20408
4.26303
4.32039
4.37607
4.42999
4.4821
4.53233
4.58061
4.62689
4.67111
4.71321
4.75316
4.7909
4.8264
4.85962
4.89052
4.91909
4.94529
4.96911
4.99054
5.00955
5.02616
5.04035
5.05213
5.06151
5.0685
5.07312
5.0754
5.07539
5.07325
5.06866
5.06181
5.05277
5.04157
5.02825
5.01287
4.99547
4.9761
4.95483
4.93171
4.9068
4.88016
4.85186
4.82197
4.79054
4.75765
4.72337
4.68777
4.65091
4.61287
4.57372
4.53353
4.49238
4.45032
4.40744
4.3638
4.31947
4.27452
4.22902
4.18303
4.13663
4.08988
4.04285
3.99562
3.94825
3.90083
3.85343
3.80614
3.75908
3.71235
3.66609
3.62047
3.57566
3.53184
3.4892
3.44788
3.40732
3.3666
0.0303254
0.0666108
0.084914
0.097895
0.108603
0.118114
0.126954
0.135431
0.143752
0.152065
0.160476
0.169061
0.17788
0.186982
0.196404
0.206179
0.216334
0.226893
0.23788
0.249319
0.261231
0.27364
0.286571
0.300049
0.314102
0.328759
0.34405
0.360003
0.376647
0.394012
0.412128
0.431025
0.450733
0.471282
0.492703
0.515027
0.538284
0.562501
0.587696
0.613898
0.641144
0.669455
0.698856
0.729389
0.761095
0.794009
0.828158
0.863574
0.900289
0.93833
0.977722
1.01849
1.06064
1.1042
1.14918
1.19559
1.24344
1.29275
1.3435
1.39571
1.44937
1.50447
1.561
1.61895
1.6783
1.73901
1.80106
1.86441
1.92903
1.99486
2.06187
2.12999
2.19917
2.26936
2.34047
2.41245
2.48523
2.55872
2.63286
2.70755
2.78272
2.85828
2.93415
3.01022
3.08642
3.16265
3.2388
3.31479
3.39052
3.46589
3.54081
3.61516
3.68887
3.76183
3.83394
3.9051
3.97524
4.04424
4.11203
4.17851
4.24361
4.30723
4.3693
4.42974
4.48847
4.54542
4.60052
4.6537
4.7049
4.75405
4.80109
4.84598
4.88866
4.92909
4.96721
5.00301
5.03643
5.06745
5.09604
5.12218
5.14585
5.16705
5.18576
5.20198
5.21571
5.22696
5.23573
5.24204
5.24591
5.24738
5.24661
5.24354
5.23796
5.23009
5.21998
5.20766
5.19317
5.17658
5.15794
5.13729
5.11469
5.09021
5.06391
5.03586
5.00611
4.97473
4.94181
4.90739
4.87156
4.83438
4.79594
4.75629
4.71551
4.67367
4.63085
4.58712
4.54254
4.49719
4.45114
4.40445
4.35719
4.30943
4.26124
4.21269
4.16385
4.11479
4.06558
4.0163
3.96704
3.91789
3.86894
3.82033
3.77218
3.72466
3.67794
3.6322
3.5876
3.54429
3.50179
3.45941
0.030276
0.0665536
0.0847829
0.0976951
0.108328
0.117754
0.126495
0.134861
0.143056
0.151223
0.159471
0.167878
0.176511
0.18542
0.194646
0.204223
0.214176
0.224533
0.235317
0.246552
0.258262
0.270476
0.283223
0.296533
0.310436
0.324962
0.340145
0.356018
0.372617
0.38998
0.408145
0.427148
0.447025
0.467809
0.489538
0.512251
0.535992
0.56079
0.586671
0.613657
0.641756
0.671037
0.701563
0.733364
0.766467
0.800908
0.836726
0.873963
0.912661
0.952853
0.994558
1.03779
1.08256
1.12887
1.17673
1.22613
1.27709
1.32961
1.38366
1.43926
1.49638
1.555
1.61511
1.67668
1.73966
1.80403
1.86975
1.93676
2.00502
2.07447
2.14506
2.21672
2.28938
2.36299
2.43746
2.51272
2.58869
2.6653
2.74246
2.82009
2.8981
2.97641
3.05491
3.13353
3.21216
3.29072
3.3691
3.44721
3.52496
3.60225
3.67897
3.75504
3.83035
3.90481
3.97832
4.0508
4.12214
4.19226
4.26107
4.32848
4.39441
4.45878
4.52151
4.58252
4.64174
4.6991
4.75453
4.80797
4.85934
4.90859
4.95567
5.00051
5.04308
5.08333
5.12122
5.15671
5.18977
5.22037
5.24849
5.2741
5.29718
5.31775
5.33579
5.35129
5.36426
5.3747
5.38262
5.38804
5.39099
5.39152
5.3899
5.38576
5.37915
5.37024
5.35905
5.34564
5.33005
5.31233
5.29254
5.27073
5.24697
5.22131
5.19382
5.16456
5.13359
5.101
5.06684
5.03118
4.9941
4.95567
4.91596
4.87504
4.83298
4.78985
4.74573
4.70069
4.6548
4.60812
4.56072
4.51268
4.46405
4.41492
4.36533
4.31537
4.2651
4.2146
4.16393
4.11317
4.06241
4.01174
3.96127
3.91111
3.86139
3.81228
3.76393
3.71654
3.67024
3.62521
3.581
3.53721
0.0301236
0.0662871
0.084329
0.0970693
0.107523
0.116759
0.1253
0.133459
0.141442
0.149395
0.157429
0.165631
0.174065
0.182777
0.191806
0.201187
0.210947
0.221114
0.231715
0.242778
0.254333
0.26641
0.279044
0.292271
0.306129
0.320656
0.335888
0.351865
0.36863
0.386229
0.404713
0.424136
0.444531
0.465939
0.488397
0.511935
0.536559
0.562326
0.589308
0.617568
0.647175
0.678173
0.710595
0.744473
0.779837
0.816718
0.855147
0.895153
0.936755
0.979988
1.02491
1.07151
1.11978
1.1697
1.22126
1.27444
1.32923
1.38561
1.44357
1.50308
1.56411
1.62663
1.6906
1.75597
1.8227
1.89074
1.96004
2.03053
2.10217
2.17487
2.24859
2.32326
2.39879
2.47512
2.55218
2.62989
2.70816
2.78693
2.8661
2.9456
3.02533
3.10523
3.18518
3.26512
3.34494
3.42456
3.50388
3.58281
3.66127
3.73915
3.81636
3.89282
3.96842
4.04308
4.1167
4.1892
4.26049
4.33048
4.39909
4.46622
4.53182
4.59578
4.65805
4.71855
4.7772
4.83394
4.88871
4.94145
4.99207
5.04054
5.0868
5.13079
5.17247
5.21181
5.24877
5.2833
5.31538
5.34499
5.3721
5.39668
5.41872
5.43825
5.45523
5.46967
5.48158
5.49095
5.4978
5.50214
5.50399
5.50355
5.50093
5.49566
5.48803
5.47809
5.46588
5.45146
5.43487
5.41617
5.3954
5.37263
5.34792
5.32132
5.2929
5.26272
5.23085
5.19736
5.16231
5.12577
5.08782
5.04852
5.00795
4.96616
4.92325
4.87926
4.83429
4.78838
4.74162
4.69407
4.64579
4.59686
4.54733
4.49728
4.44676
4.39585
4.34461
4.29311
4.24142
4.18962
4.1378
4.08603
4.03443
3.98312
3.93222
3.88187
3.83226
3.78354
3.73586
3.68941
3.64378
3.59888
0.0298017
0.065718
0.0834791
0.0959736
0.106184
0.115177
0.123478
0.131401
0.139157
0.146893
0.154718
0.162716
0.17095
0.17947
0.188318
0.19753
0.20714
0.217182
0.227689
0.238694
0.250232
0.262343
0.275066
0.288449
0.302547
0.317421
0.333108
0.349652
0.367102
0.385502
0.404877
0.425243
0.446708
0.469347
0.493223
0.5184
0.544955
0.57294
0.6024
0.633387
0.665954
0.700141
0.735979
0.773494
0.812704
0.853619
0.896248
0.940598
0.986673
1.03448
1.08402
1.13534
1.18836
1.24304
1.29932
1.35718
1.41657
1.47746
1.53982
1.60359
1.66873
1.73518
1.80291
1.87184
1.94193
2.01311
2.08533
2.15853
2.23263
2.30759