/*--------------------------------*- C++ -*----------------------------------*\
  =========                 |
  \\      /  F ield         | OpenFOAM: The Open Source CFD Toolbox
   \\    /   O peration     | Website:  https://openfoam.org
    \\  /    A nd           | Version:  8
     \\/     M anipulation  |
\*---------------------------------------------------------------------------*/
FoamFile
{
    version     2.0;
    format      ascii;
    class       volScalarField;
    location    "600";
    object      nut;
}
// * * * * * * * * * * * * * * * * * * * * * * * * * * * * * * * * * * * * * //

dimensions      [0 2 -1 0 0 0 0];

internalField   nonuniform List<scalar> 
12225
(
6.428e-05
6.80002e-05
6.77724e-05
6.60631e-05
6.2657e-05
5.90936e-05
5.58788e-05
5.32664e-05
5.1247e-05
4.9627e-05
4.8485e-05
4.76107e-05
4.71184e-05
4.6756e-05
4.66758e-05
4.66415e-05
4.68657e-05
4.67297e-05
0.000519853
0.000302427
0.00026611
0.000219304
0.000194598
0.000178314
0.000168153
0.00016311
0.000158195
0.000154848
0.000152111
0.0001508
0.00014926
0.00014853
0.000147534
0.000147052
0.000146856
0.000146476
0.00102125
0.000541716
0.000430355
0.000379343
0.000339844
0.00031134
0.000289322
0.000273542
0.000259901
0.000249523
0.000239598
0.000232154
0.000224601
0.000218296
0.000213128
0.000207649
0.000204655
0.000199818
0.0015314
0.000953376
0.000726957
0.000614763
0.00055058
0.000504718
0.000468946
0.000441467
0.000418719
0.000399713
0.000383501
0.000368712
0.000356634
0.000343979
0.000334961
0.000323768
0.000316883
0.000307008
0.00171879
0.00143442
0.00113442
0.000962143
0.000851409
0.000776251
0.000720377
0.000675877
0.000640512
0.000610262
0.000585874
0.000562898
0.000545042
0.00052613
0.000512544
0.000496291
0.000485459
0.000470866
0.00179423
0.00170483
0.00149846
0.0013279
0.00119866
0.0010995
0.0010246
0.000963952
0.000914823
0.000872483
0.000838311
0.000806608
0.000781565
0.000756171
0.000737229
0.000715671
0.000701321
0.000681635
0.00182098
0.0017998
0.00171398
0.00160515
0.00150057
0.00140697
0.00132925
0.0012629
0.00120662
0.00115703
0.00111562
0.00107754
0.00104622
0.00101563
0.000991571
0.00096567
0.000947507
0.000923902
0.00182772
0.00182052
0.00178687
0.00173491
0.00166591
0.00159613
0.00153181
0.00147267
0.00142018
0.00137228
0.00133065
0.00129201
0.001259
0.00122714
0.00120097
0.00117367
0.00115346
0.00112842
0.00182874
0.00182634
0.00181377
0.00179402
0.0017566
0.00171266
0.00166691
0.00162151
0.0015787
0.00153792
0.00150086
0.00146575
0.0014346
0.00140448
0.00137875
0.00135233
0.00133183
0.00130714
0.00182853
0.00182802
0.00182505
0.00181642
0.00180264
0.00178248
0.00175612
0.00172774
0.0016987
0.00166935
0.00164114
0.00161348
0.00158786
0.00156268
0.00154028
0.00151729
0.00149866
0.00147655
0.0018284
0.00182784
0.0018275
0.00182488
0.00182102
0.00181244
0.00180204
0.00178898
0.00177329
0.00175622
0.00173865
0.00172063
0.00170306
0.00168522
0.00166866
0.00165139
0.00163679
0.00161948
0.00182839
0.00182769
0.00182744
0.0018266
0.00182568
0.00182334
0.00181984
0.00181504
0.0018089
0.00180128
0.00179276
0.00178381
0.00177421
0.00176401
0.00175409
0.00174342
0.001734
0.00172268
0.00182837
0.00182771
0.00182723
0.00182668
0.00182622
0.00182554
0.00182456
0.00182314
0.00182123
0.00181873
0.00181565
0.00181208
0.00180813
0.00180367
0.00179909
0.00179394
0.00178917
0.00178334
0.00182836
0.00182773
0.00182718
0.00182664
0.00182615
0.00182568
0.0018252
0.00182465
0.00182402
0.00182324
0.00182229
0.00182115
0.00181985
0.00181831
0.00181668
0.00181476
0.0018129
0.00181059
0.00182835
0.00182774
0.00182716
0.00182662
0.00182611
0.00182563
0.00182517
0.00182474
0.00182431
0.00182389
0.00182345
0.00182298
0.00182248
0.00182193
0.00182136
0.00182071
0.00182005
0.00181928
0.00182835
0.00182774
0.00182716
0.00182661
0.00182609
0.0018256
0.00182513
0.00182469
0.00182428
0.00182388
0.0018235
0.00182313
0.00182278
0.00182243
0.00182208
0.00182174
0.0018214
0.00182105
0.00182835
0.00182774
0.00182715
0.0018266
0.00182608
0.00182559
0.00182512
0.00182467
0.00182425
0.00182384
0.00182346
0.0018231
0.00182275
0.00182241
0.00182209
0.00182179
0.00182149
0.00182121
0.00182835
0.00182773
0.00182715
0.0018266
0.00182608
0.00182558
0.00182511
0.00182466
0.00182424
0.00182383
0.00182345
0.00182308
0.00182273
0.00182239
0.00182207
0.00182176
0.00182147
0.00182118
0.00182835
0.00182773
0.00182715
0.0018266
0.00182608
0.00182558
0.00182511
0.00182467
0.00182425
0.00182384
0.00182346
0.00182308
0.00182272
0.00182236
0.00182201
0.00182166
0.0018213
0.00182095
0.00182835
0.00182773
0.00182715
0.0018266
0.00182609
0.0018256
0.00182514
0.0018247
0.00182425
0.0018238
0.00182332
0.00182281
0.00182225
0.00182166
0.001821
0.00182032
0.00181955
0.00181879
0.00182834
0.00182773
0.00182716
0.00182664
0.00182614
0.00182564
0.00182507
0.00182439
0.00182354
0.0018225
0.00182125
0.00181978
0.00181808
0.0018162
0.00181412
0.00181192
0.0018095
0.00180713
0.00182831
0.00182778
0.00182727
0.00182669
0.00182596
0.00182482
0.0018229
0.00182036
0.00181705
0.00181304
0.00180836
0.00180316
0.0017975
0.00179155
0.00178529
0.00177899
0.00177242
0.00176613
0.00182825
0.00182824
0.00182722
0.00182522
0.00182204
0.00181594
0.00180722
0.00179755
0.00178577
0.0017729
0.00175933
0.00174546
0.00173143
0.00171761
0.00170386
0.00169073
0.00167754
0.00166562
0.00182889
0.00182875
0.00182182
0.00181161
0.00179594
0.00177197
0.0017449
0.00171685
0.00168844
0.00166061
0.00163367
0.0016081
0.00158375
0.00156105
0.00153939
0.0015196
0.00150027
0.00148342
0.00183224
0.00181648
0.00179454
0.00174624
0.00169083
0.00163277
0.001579
0.00152982
0.00148426
0.00144325
0.00140604
0.00137269
0.0013422
0.00131492
0.00128955
0.00126712
0.00124551
0.00122721
0.00184933
0.00175646
0.00166083
0.00154218
0.00144081
0.00135579
0.00128699
0.00122883
0.0011788
0.00113617
0.00109892
0.00106671
0.00103783
0.0010127
0.000989488
0.000969484
0.000950153
0.000934157
0.00181393
0.00153922
0.00131633
0.00116715
0.00106152
0.000985834
0.00092468
0.000876132
0.000835954
0.000802596
0.000773809
0.000749392
0.000727528
0.000708863
0.000691494
0.000676832
0.000662495
0.000650841
0.00153411
0.00105463
0.000856088
0.000752481
0.000680717
0.000626753
0.000585786
0.000553923
0.000528054
0.000507002
0.00048899
0.000474009
0.000460619
0.000449445
0.000438999
0.000430406
0.000421949
0.000415198
0.000866649
0.00057024
0.000479103
0.000414197
0.000369443
0.000339364
0.000318326
0.000303188
0.000291683
0.000282898
0.000275699
0.000270033
0.000265059
0.000261138
0.000257443
0.000254678
0.000251745
0.000249644
0.000123948
0.000128554
0.000128581
0.000127429
0.000124819
0.000121254
0.000117645
0.000114258
0.00011114
0.000108367
0.000105883
0.000103717
0.000101793
0.000100128
9.86527e-05
9.73814e-05
9.62589e-05
9.52896e-05
1.58307e-07
4.314e-06
8.07631e-06
1.13702e-05
1.44316e-05
1.78858e-05
2.19205e-05
2.6804e-05
3.27059e-05
3.96346e-05
4.74638e-05
5.59891e-05
6.50212e-05
7.43607e-05
8.38763e-05
9.34066e-05
0.000102876
0.000112134
0.000121138
0.000129749
0.000137937
0.000145585
0.000152695
0.00015924
0.000165268
0.000170916
0.000176303
0.000181738
0.000186919
0.000191638
0.000201614
0.00021068
0.000220032
0.000227867
0.000230798
0.000224074
0.000214673
0.000203987
0.000193436
4.05652e-05
4.20347e-05
4.66897e-05
4.90076e-05
4.9931e-05
5.09881e-05
5.22059e-05
5.3316e-05
5.44757e-05
5.56053e-05
5.67456e-05
5.7874e-05
5.90031e-05
6.01252e-05
6.12451e-05
6.23598e-05
6.34713e-05
6.45782e-05
6.56815e-05
6.67804e-05
6.78754e-05
6.89658e-05
7.00519e-05
7.11331e-05
7.22094e-05
7.32804e-05
7.43457e-05
7.54051e-05
7.6458e-05
7.75042e-05
7.85431e-05
7.95743e-05
8.05973e-05
8.16117e-05
8.26167e-05
8.36122e-05
8.45972e-05
8.55714e-05
8.65342e-05
8.7485e-05
8.84232e-05
8.93482e-05
9.02595e-05
9.11564e-05
9.20383e-05
9.29045e-05
9.37544e-05
9.45872e-05
9.54022e-05
9.61987e-05
9.69756e-05
9.77319e-05
9.84666e-05
9.91785e-05
9.98663e-05
0.000100529
0.000101168
0.000101783
0.000102383
0.000102957
0.00010351
0.00010404
0.000104548
0.000105033
0.000105494
0.000105932
0.000106346
0.000106735
0.0001071
0.00010744
0.000107755
0.000108045
0.000108309
0.000108548
0.000108761
0.000108947
0.000109108
0.000109243
0.000109351
0.000109434
0.00010949
0.00010952
0.000109524
0.000109501
0.000109454
0.00010938
0.000109281
0.000109156
0.00010901
0.000108833
0.000108634
0.000108406
0.000108152
0.000107881
0.000107591
0.000107272
0.000106931
0.000106567
0.000106182
0.000105775
0.000105347
0.0001049
0.000104432
0.000103945
0.00010344
0.000102917
0.000102376
0.000101819
0.000101245
0.000100657
0.000100053
9.94358e-05
9.88052e-05
9.8162e-05
9.75069e-05
9.68407e-05
9.61641e-05
9.54779e-05
9.47828e-05
9.40798e-05
9.337e-05
9.26553e-05
9.19418e-05
9.12774e-05
9.08065e-05
9.03951e-05
8.99862e-05
8.95753e-05
8.91621e-05
8.87469e-05
8.83299e-05
8.79114e-05
8.74912e-05
8.7069e-05
8.66436e-05
8.62124e-05
8.57704e-05
8.53065e-05
8.47919e-05
8.41608e-05
8.22749e-05
8.18992e-07
2.34795e-05
5.39608e-05
7.53778e-05
8.9018e-05
9.7928e-05
0.000104963
0.000111823
0.000119375
0.000127915
0.000137412
0.000147679
0.000158481
0.000169585
0.000180796
0.000191942
0.000202884
0.000213485
0.000223632
0.000233206
0.000242112
0.000250265
0.000257632
0.000264237
0.000270198
0.000275763
0.00028055
0.000284231
0.00028718
0.000289484
0.000291089
0.000291059
0.00028919
0.000287727
0.000282697
0.000276161
0.000261278
0.000251707
0.000247768
0.00022355
0.000240485
0.000252589
0.00026457
0.000270887
0.00027799
0.00028566
0.000293682
0.00030178
0.000310068
0.000318437
0.00032692
0.000335484
0.000344132
0.000352857
0.000361659
0.000370537
0.000379491
0.000388524
0.000397636
0.000406828
0.0004161
0.000425456
0.000434894
0.000444415
0.000454019
0.000463706
0.000473474
0.000483322
0.000493248
0.00050325
0.000513325
0.000523469
0.00053368
0.000543953
0.000554283
0.000564665
0.000575095
0.000585568
0.000596076
0.000606616
0.000617179
0.000627761
0.000638356
0.000648956
0.000659556
0.00067015
0.000680733
0.000691298
0.00070184
0.000712352
0.000722826
0.000733249
0.0007436
0.000753845
0.000763925
0.000773734
0.000783095
0.000791697
0.000800216
0.000808588
0.000816829
0.00082493
0.000832887
0.000840693
0.000848344
0.000855832
0.000863151
0.000870297
0.000877264
0.000884045
0.000890636
0.000897032
0.000903229
0.00090922
0.000915003
0.000920572
0.000925925
0.000931057
0.000935964
0.000940645
0.000945095
0.000949312
0.000953295
0.000957041
0.00096055
0.000963821
0.000966853
0.000969641
0.000972232
0.000974598
0.000976662
0.000978317
0.000979805
0.000981253
0.000982388
0.000983255
0.000983884
0.000984279
0.000984442
0.000984377
0.000984088
0.000983578
0.000982851
0.000981911
0.000980764
0.000979412
0.000977863
0.000976121
0.000974191
0.000972081
0.000969795
0.00096734
0.000964723
0.00096195
0.000959027
0.00095596
0.000952757
0.000949421
0.000945958
0.000942367
0.000938631
0.00093466
0.000929986
0.000923463
0.00091603
0.000908304
0.000900449
0.000892519
0.000884536
0.000876512
0.000868452
0.000860361
0.000852235
0.000844065
0.000835823
0.000827462
0.000818826
0.000809661
0.000798466
0.000768537
1.76821e-06
3.96364e-05
8.67208e-05
0.000122402
0.000148145
0.000166763
0.000180855
0.00019253
0.00020326
0.000213917
0.000224911
0.000236346
0.000248155
0.000260199
0.000272316
0.000284352
0.000296164
0.000307618
0.000318591
0.000328963
0.000338627
0.000347489
0.000355489
0.000362608
0.000368872
0.000374334
0.000379678
0.000385623
0.000392217
0.000399613
0.000407763
0.000416245
0.00042444
0.000431702
0.000437433
0.000442256
0.000447361
0.000454164
0.000463141
0.000472912
0.00049196
0.000509441
0.000526203
0.000542108
0.00055832
0.000574748
0.000591412
0.000608229
0.000625216
0.000642345
0.000659617
0.000677024
0.000694566
0.000712241
0.00073005
0.000747996
0.000766078
0.000784301
0.000802663
0.000821168
0.000839816
0.000858606
0.000877539
0.000896613
0.000915826
0.000935175
0.000954657
0.000974268
0.000994002
0.00101385
0.00103381
0.00105388
0.00107404
0.00109429
0.00111461
0.001135
0.00115545
0.00117594
0.00119647
0.00121702
0.00123758
0.00125814
0.00127868
0.00129919
0.00131967
0.00134008
0.00136043
0.00138069
0.00140085
0.00142089
0.00144078
0.00146049
0.00147999
0.00149921
0.0015181
0.00153657
0.00155454
0.00157204
0.00158931
0.0016063
0.00162301
0.00163943
0.00165554
0.00167133
0.0016868
0.00170192
0.00171668
0.00173108
0.00174511
0.00175874
0.00177198
0.00178481
0.00179722
0.00180921
0.00182076
0.00183186
0.00184251
0.00185271
0.00186244
0.00187169
0.00188047
0.00188877
0.00189658
0.0019039
0.00191074
0.00191708
0.00192293
0.00192829
0.00193319
0.00193765
0.00194154
0.00194463
0.00194734
0.00194985
0.00195177
0.00195317
0.00195408
0.0019545
0.00195445
0.00195393
0.00195295
0.00195152
0.00194964
0.00194733
0.00194459
0.00194143
0.00193787
0.0019339
0.00192956
0.00192484
0.00191977
0.00191434
0.00190858
0.0019025
0.00189612
0.00188944
0.00188247
0.00187524
0.00186774
0.00185999
0.00185194
0.00184349
0.00183418
0.00182314
0.00181095
0.0017982
0.00178514
0.00177186
0.00175844
0.00174489
0.00173124
0.00171749
0.00170365
0.00168969
0.00167556
0.00166117
0.00164622
0.00162999
0.00160968
0.00156563
2.88293e-06
5.24434e-05
0.000112311
0.000158707
0.000192702
0.000217783
0.000236976
0.000252636
0.000266443
0.000279485
0.000292367
0.000305358
0.000318516
0.000331784
0.00034506
0.000358229
0.000371181
0.000383817
0.00039605
0.000407802
0.000419011
0.000429637
0.000439683
0.000449214
0.000458388
0.000467488
0.000476961
0.00048727
0.000498777
0.000511771
0.000526345
0.000542245
0.000558809
0.000575484
0.000592258
0.00060912
0.000625708
0.000644099
0.000663288
0.000684394
0.000707599
0.00073079
0.000753884
0.000776989
0.000800259
0.000823702
0.000847335
0.000871146
0.000895137
0.000919303
0.000943645
0.000968161
0.000992853
0.00101772
0.00104277
0.001068
0.00109341
0.00111902
0.00114481
0.00117079
0.00119696
0.00122331
0.00124985
0.00127657
0.00130347
0.00133053
0.00135777
0.00138516
0.0014127
0.00144038
0.00146819
0.00149612
0.00152416
0.00155229
0.0015805
0.00160878
0.00163711
0.00166547
0.00169386
0.00172225
0.00175062
0.00177896
0.00180725
0.00183546
0.00186359
0.00189161
0.0019195
0.00194723
0.00197479
0.00200213
0.00202924
0.00205608
0.0020826
0.00210876
0.00213451
0.00215979
0.0021846
0.002209
0.00223303
0.00225669
0.00227995
0.00230281
0.00232524
0.00234722
0.00236875
0.0023898
0.00241036
0.00243041
0.00244993
0.00246892
0.00248736
0.00250524
0.00252254
0.00253924
0.00255535
0.00257084
0.00258571
0.00259995
0.00261354
0.00262649
0.00263878
0.0026504
0.00266135
0.00267163
0.00268124
0.00269017
0.00269842
0.002706
0.00271296
0.00271935
0.00272477
0.00272927
0.00273333
0.00273691
0.00273973
0.00274184
0.00274328
0.00274405
0.00274417
0.00274363
0.00274246
0.00274066
0.00273824
0.00273521
0.00273159
0.00272739
0.00272262
0.0027173
0.00271145
0.00270507
0.00269818
0.00269081
0.00268297
0.00267467
0.00266594
0.00265679
0.00264724
0.0026373
0.00262699
0.00261632
0.00260525
0.00259369
0.00258131
0.00256761
0.00255284
0.00253739
0.00252149
0.00250528
0.00248881
0.00247215
0.00245532
0.00243834
0.00242122
0.00240398
0.00238659
0.00236889
0.00235053
0.00233056
0.00230569
0.00225949
4.02587e-06
6.3226e-05
0.000133864
0.000189256
0.000230488
0.000261241
0.000284883
0.000304018
0.00032053
0.000335687
0.000350265
0.000364679
0.000379105
0.00039358
0.000408073
0.000422527
0.000436886
0.000451102
0.000465146
0.000479005
0.000492682
0.000506206
0.000519635
0.000533076
0.000546699
0.000560745
0.000575521
0.000591355
0.000608541
0.00062729
0.000647641
0.000669376
0.000692035
0.00071523
0.00073883
0.000762747
0.000787154
0.000812662
0.000838628
0.000865501
0.000893218
0.000921248
0.00094948
0.000977876
0.00100647
0.00103526
0.00106426
0.00109346
0.00112287
0.00115248
0.0011823
0.00121233
0.00124256
0.001273
0.00130364
0.00133449
0.00136556
0.00139684
0.00142835
0.00146006
0.001492
0.00152414
0.00155648
0.00158902
0.00162176
0.00165468
0.00168777
0.00172103
0.00175444
0.00178799
0.00182167
0.00185546
0.00188935
0.00192332
0.00195736
0.00199144
0.00202555
0.00205968
0.00209379
0.00212788
0.00216191
0.00219587
0.00222974
0.0022635
0.00229711
0.00233056
0.00236383
0.00239687
0.00242968
0.00246222
0.00249445
0.00252635
0.00255789
0.00258903
0.00261975
0.00265005
0.00267989
0.0027093
0.00273828
0.00276681
0.00279486
0.00282244
0.0028495
0.00287604
0.00290204
0.00292747
0.00295232
0.00297657
0.0030002
0.0030232
0.00304556
0.00306724
0.00308825
0.00310856
0.00312817
0.00314705
0.00316521
0.00318262
0.00319927
0.00321516
0.00323028
0.00324461
0.00325816
0.00327091
0.00328287
0.00329404
0.0033044
0.00331399
0.00332294
0.00333098
0.00333798
0.00334397
0.0033495
0.0033543
0.00335825
0.00336137
0.00336369
0.00336522
0.00336597
0.00336594
0.00336516
0.00336362
0.00336135
0.00335835
0.00335464
0.00335023
0.00334514
0.00333938
0.00333298
0.00332594
0.00331828
0.00331004
0.00330122
0.00329184
0.00328193
0.0032715
0.00326058
0.00324919
0.00323733
0.00322503
0.00321225
0.00319894
0.0031849
0.00316985
0.00315389
0.00313722
0.00312003
0.00310244
0.00308454
0.00306636
0.00304797
0.00302938
0.00301062
0.00299169
0.00297255
0.00295311
0.00293303
0.00291131
0.00288475
0.00284119
5.12934e-06
7.23656e-05
0.000152136
0.000215289
0.000263023
0.000298965
0.000326721
0.000349095
0.000368149
0.000385315
0.000401525
0.000417331
0.000433032
0.000448759
0.00046456
0.000480439
0.000496395
0.000512431
0.000528568
0.000544839
0.000561297
0.000578008
0.000595055
0.000612543
0.000630602
0.000649391
0.000669092
0.000689891
0.000711954
0.000735383
0.000760174
0.000786186
0.00081316
0.000840838
0.000869064
0.000897752
0.000926955
0.000956809
0.000987233
0.00101827
0.00104985
0.00108181
0.00111406
0.00114656
0.00117929
0.00121226
0.00124544
0.00127885
0.00131247
0.00134632
0.00138038
0.00141467
0.00144918
0.00148391
0.00151889
0.00155408
0.0015895
0.00162513
0.00166097
0.00169703
0.00173329
0.00176975
0.0018064
0.00184325
0.00188027
0.00191746
0.00195482
0.00199232
0.00202996
0.00206772
0.00210559
0.00214355
0.00218159
0.00221969
0.00225784
0.002296
0.00233418
0.00237234
0.00241047
0.00244854
0.00248654
0.00252444
0.00256222
0.00259985
0.00263732
0.00267459
0.00271164
0.00274846
0.002785
0.00282124
0.00285716
0.00289273
0.00292792
0.0029627
0.00299706
0.00303098
0.00306445
0.00309745
0.00312997
0.00316201
0.00319353
0.00322452
0.00325496
0.00328482
0.00331409
0.00334274
0.00337077
0.00339813
0.00342483
0.00345084
0.00347614
0.00350072
0.00352456
0.00354764
0.00356996
0.00359149
0.00361222
0.00363214
0.00365124
0.00366951
0.00368694
0.00370351
0.00371922
0.00373407
0.00374804
0.00376115
0.00377337
0.00378482
0.00379554
0.0038051
0.00381367
0.00382119
0.0038282
0.00383431
0.0038395
0.0038438
0.00384722
0.00384976
0.00385144
0.00385227
0.00385226
0.00385141
0.00384975
0.00384728
0.00384402
0.00383998
0.00383517
0.00382962
0.00382334
0.00381635
0.00380867
0.00380032
0.00379132
0.00378168
0.00377144
0.00376061
0.00374921
0.00373726
0.00372479
0.0037118
0.00369829
0.00368422
0.00366948
0.00365393
0.00363759
0.00362056
0.00360299
0.00358497
0.00356657
0.00354786
0.00352889
0.00350969
0.0034903
0.00347074
0.00345101
0.00343101
0.00341049
0.0033885
0.00336222
0.00332297
6.14947e-06
7.99752e-05
0.0001674
0.000237303
0.000290908
0.000331668
0.000363329
0.000388838
0.000410396
0.000429578
0.000447452
0.000464702
0.000481738
0.000498788
0.000515975
0.000533365
0.000551
0.000568924
0.000587187
0.00060585
0.000624984
0.000644669
0.000664987
0.000686021
0.000707859
0.000730591
0.000754306
0.000779087
0.000804997
0.000832066
0.000860267
0.000889514
0.000919662
0.000950559
0.000982084
0.00101416
0.00104677
0.00107992
0.00111358
0.00114774
0.00118235
0.00121734
0.00125264
0.00128824
0.00132409
0.00136019
0.00139653
0.00143309
0.00146987
0.00150687
0.00154409
0.00158152
0.00161917
0.00165704
0.00169513
0.00173343
0.00177193
0.00181064
0.00184955
0.00188866
0.00192796
0.00196744
0.00200711
0.00204694
0.00208694
0.0021271
0.00216739
0.00220782
0.00224837
0.00228902
0.00232977
0.0023706
0.00241148
0.00245241
0.00249337
0.00253434
0.0025753
0.00261623
0.00265712
0.00269793
0.00273866
0.00277928
0.00281976
0.00286008
0.00290023
0.00294017
0.00297988
0.00301934
0.00305852
0.00309739
0.00313594
0.00317413
0.00321195
0.00324936
0.00328635
0.0033229
0.00335899
0.00339461
0.00342974
0.00346436
0.00349844
0.00353197
0.00356493
0.00359729
0.00362903
0.00366014
0.00369058
0.00372035
0.00374942
0.00377777
0.00380539
0.00383225
0.00385834
0.00388364
0.00390814
0.00393182
0.00395467
0.00397667
0.00399781
0.00401808
0.00403746
0.00405595
0.00407354
0.00409022
0.00410599
0.00412083
0.00413476
0.00414797
0.00416016
0.0041713
0.00418138
0.00419049
0.00419892
0.00420639
0.00421291
0.00421849
0.00422313
0.00422685
0.00422965
0.00423155
0.00423255
0.00423267
0.00423192
0.00423031
0.00422785
0.00422455
0.00422044
0.00421553
0.00420983
0.00420336
0.00419615
0.00418821
0.00417956
0.00417023
0.00416023
0.00414958
0.00413832
0.00412645
0.004114
0.00410099
0.00408742
0.00407326
0.00405847
0.00404298
0.00402678
0.00400993
0.00399253
0.00397465
0.00395636
0.00393772
0.00391878
0.00389961
0.00388023
0.0038607
0.00384104
0.00382121
0.00380098
0.00377957
0.00375461
0.00371967
7.05427e-06
8.61455e-05
0.000179866
0.000255594
0.000314471
0.000359702
0.000395089
0.000423665
0.000447732
0.000468977
0.000488585
0.000507353
0.000525794
0.000544226
0.000562842
0.000581761
0.000601067
0.000620823
0.000641093
0.000661947
0.000683461
0.000705716
0.000728787
0.000752717
0.000777556
0.00080335
0.000830134
0.000857932
0.000886752
0.000916581
0.000947384
0.000979097
0.00101163
0.0010449
0.00107881
0.0011133
0.00114832
0.00118383
0.00121982
0.00125624
0.00129305
0.00133023
0.00136773
0.00140554
0.00144362
0.00148195
0.00152052
0.00155931
0.00159831
0.00163751
0.00167691
0.00171651
0.00175631
0.0017963
0.00183649
0.00187686
0.00191742
0.00195816
0.00199908
0.00204018
0.00208145
0.00212288
0.00216447
0.00220622
0.00224811
0.00229014
0.0023323
0.00237457
0.00241696
0.00245943
0.00250199
0.00254462
0.00258731
0.00263003
0.00267278
0.00271554
0.00275829
0.00280101
0.00284369
0.00288629
0.00292882
0.00297124
0.00301353
0.00305567
0.00309764
0.00313942
0.00318098
0.00322229
0.00326334
0.0033041
0.00334454
0.00338465
0.00342439
0.00346375
0.0035027
0.00354122
0.00357929
0.0036169
0.00365401
0.00369061
0.00372668
0.0037622
0.00379713
0.00383147
0.00386518
0.00389825
0.00393066
0.00396237
0.00399338
0.00402366
0.00405319
0.00408196
0.00410994
0.00413712
0.00416348
0.004189
0.00421368
0.00423749
0.00426041
0.00428245
0.00430358
0.0043238
0.00434308
0.00436144
0.00437884
0.0043953
0.00441087
0.00442565
0.00443929
0.00445198
0.00446355
0.00447424
0.00448409
0.00449296
0.00450085
0.00450776
0.00451371
0.00451871
0.00452276
0.00452587
0.00452806
0.00452932
0.00452968
0.00452913
0.00452771
0.00452541
0.00452226
0.00451827
0.00451345
0.00450783
0.00450142
0.00449424
0.00448631
0.00447766
0.00446829
0.00445824
0.00444752
0.00443616
0.00442418
0.00441159
0.0043984
0.00438462
0.00437023
0.00435517
0.00433947
0.00432315
0.00430627
0.00428889
0.00427108
0.0042529
0.0042344
0.00421565
0.0041967
0.00417762
0.00415845
0.0041392
0.00411971
0.00409934
0.00407617
0.00404586
7.82358e-06
9.0974e-05
0.000189732
0.000270403
0.000333958
0.000383306
0.000422227
0.000453789
0.00048036
0.000503707
0.000525108
0.000545454
0.00056535
0.000585191
0.000605229
0.00062564
0.000646561
0.000668044
0.000690137
0.000712895
0.000736368
0.000760586
0.000785612
0.000811561
0.000838479
0.000866382
0.000895277
0.000925153
0.000955994
0.000987767
0.00102043
0.00105394
0.00108821
0.0011232
0.00115882
0.00119502
0.00123176
0.00126898
0.00130665
0.00134473
0.00138318
0.00142195
0.00146096
0.00150017
0.00153963
0.00157937
0.00161934
0.0016595
0.00169984
0.00174036
0.00178105
0.0018219
0.00186292
0.00190411
0.00194546
0.00198697
0.00202864
0.00207047
0.00211245
0.00215459
0.00219688
0.00223931
0.00228189
0.00232461
0.00236747
0.00241046
0.00245357
0.00249679
0.00254013
0.00258356
0.00262708
0.00267068
0.00271435
0.00275806
0.00280182
0.00284561
0.0028894
0.00293319
0.00297696
0.00302068
0.00306434
0.00310793
0.00315141
0.00319478
0.003238
0.00328106
0.00332392
0.00336658
0.003409
0.00345116
0.00349303
0.0035346
0.00357583
0.0036167
0.00365719
0.00369728
0.00373693
0.00377614
0.00381487
0.0038531
0.00389081
0.00392798
0.00396458
0.00400058
0.00403597
0.00407072
0.0041048
0.00413821
0.00417091
0.00420288
0.0042341
0.00426455
0.00429422
0.00432308
0.00435111
0.00437831
0.00440464
0.0044301
0.00445468
0.00447835
0.0045011
0.00452293
0.00454382
0.00456376
0.00458274
0.00460075
0.00461792
0.0046341
0.00464925
0.00466345
0.00467655
0.00468879
0.00470009
0.00471038
0.00471968
0.00472799
0.00473531
0.00474167
0.00474705
0.00475148
0.00475496
0.00475749
0.0047591
0.00475978
0.00475955
0.00475843
0.00475642
0.00475355
0.00474983
0.00474527
0.0047399
0.00473372
0.00472677
0.00471905
0.0047106
0.00470142
0.00469155
0.004681
0.00466979
0.00465794
0.00464547
0.00463239
0.00461868
0.00460435
0.00458939
0.00457383
0.00455771
0.00454108
0.00452401
0.00450654
0.00448874
0.00447068
0.00445242
0.00443405
0.00441563
0.00439721
0.0043787
0.00435958
0.00433837
0.00431247
8.44669e-06
9.45684e-05
0.000197203
0.000281979
0.000349614
0.0004027
0.000444934
0.00047937
0.000508404
0.000533857
0.000557075
0.000579027
0.000600407
0.000621663
0.000643035
0.000664677
0.000686645
0.000709169
0.000732393
0.000756394
0.000781232
0.000806975
0.000833674
0.000861352
0.000889992
0.00091958
0.000950104
0.000981541
0.00101386
0.00104703
0.001081
0.00111573
0.00115115
0.00118721
0.00122385
0.00126103
0.00129869
0.00133679
0.00137528
0.00141413
0.00145331
0.00149278
0.00153254
0.00157259
0.00161286
0.00165326
0.00169384
0.00173456
0.00177541
0.00181638
0.00185748
0.0018987
0.00194006
0.00198155
0.00202317
0.00206492
0.00210681
0.00214884
0.00219101
0.00223332
0.00227577
0.00231837
0.00236111
0.00240399
0.00244701
0.00249018
0.00253349
0.00257693
0.0026205
0.0026642
0.00270802
0.00275194
0.00279597
0.00284009
0.00288428
0.00292855
0.00297287
0.00301723
0.00306161
0.00310599
0.00315036
0.0031947
0.00323899
0.0032832
0.00332732
0.00337132
0.00341518
0.00345887
0.00350236
0.00354565
0.00358868
0.00363145
0.00367392
0.00371607
0.00375788
0.0037993
0.00384033
0.00388093
0.00392109
0.00396076
0.00399993
0.00403858
0.00407667
0.00411418
0.00415109
0.00418737
0.00422301
0.00425796
0.00429222
0.00432576
0.00435855
0.00439059
0.00442183
0.00445227
0.00448189
0.00451067
0.00453858
0.00456562
0.00459177
0.00461702
0.00464134
0.00466473
0.00468718
0.00470867
0.00472919
0.00474875
0.00476741
0.00478505
0.00480173
0.00481742
0.0048321
0.00484587
0.00485866
0.00487041
0.00488116
0.00489092
0.00489968
0.00490746
0.00491426
0.00492009
0.00492495
0.00492886
0.00493182
0.00493385
0.00493495
0.00493514
0.00493442
0.00493283
0.00493036
0.00492703
0.00492287
0.00491789
0.0049121
0.00490553
0.00489819
0.00489011
0.0048813
0.00487178
0.00486158
0.00485072
0.0048392
0.00482705
0.00481427
0.00480086
0.00478684
0.00477223
0.00475705
0.00474136
0.0047252
0.00470862
0.00469171
0.00467451
0.00465713
0.00463964
0.00462214
0.00460471
0.00458729
0.0045695
0.00455019
0.00452789
8.92122e-06
9.70427e-05
0.000202476
0.000290686
0.000361689
0.000418123
0.000463416
0.000500572
0.000531984
0.000559514
0.000584529
0.000607951
0.000630412
0.000652427
0.000674518
0.000696992
0.000720098
0.000743957
0.000768569
0.000793975
0.000820217
0.000847333
0.000875328
0.000904172
0.000933889
0.000964479
0.00099593
0.00102822
0.0010613
0.00109515
0.00112972
0.00116496
0.00120082
0.00123725
0.0012742
0.00131163
0.00134948
0.00138772
0.00142629
0.00146517
0.00150431
0.00154369
0.00158331
0.00162312
0.00166309
0.00170334
0.00174376
0.00178422
0.00182472
0.00186526
0.00190588
0.00194659
0.00198739
0.00202829
0.00206931
0.00211045
0.00215171
0.00219311
0.00223464
0.00227633
0.00231817
0.00236018
0.00240236
0.00244471
0.00248725
0.00252996
0.00257287
0.00261595
0.00265922
0.00270267
0.0027463
0.00279011
0.00283407
0.0028782
0.00292247
0.00296687
0.0030114
0.00305603
0.00310075
0.00314554
0.00319039
0.00323527
0.00328016
0.00332504
0.00336989
0.00341468
0.00345938
0.00350397
0.00354842
0.0035927
0.00363679
0.00368066
0.00372427
0.0037676
0.00381063
0.00385331
0.00389562
0.00393754
0.00397903
0.00402008
0.00406064
0.00410069
0.00414021
0.00417917
0.00421755
0.00425531
0.00429243
0.00432889
0.00436466
0.00439972
0.00443404
0.00446761
0.00450039
0.00453238
0.00456354
0.00459387
0.00462334
0.00465194
0.00467964
0.00470644
0.00473232
0.00475727
0.00478126
0.0048043
0.00482638
0.00484748
0.00486762
0.00488677
0.00490498
0.00492221
0.00493845
0.00495381
0.00496816
0.0049814
0.00499366
0.00500491
0.00501518
0.00502445
0.00503274
0.00504005
0.0050464
0.00505177
0.00505619
0.00505967
0.00506221
0.00506383
0.00506454
0.00506435
0.00506328
0.00506133
0.00505853
0.0050549
0.00505044
0.00504518
0.00503913
0.00503232
0.00502476
0.00501647
0.00500747
0.00499778
0.00498741
0.00497639
0.00496473
0.00495243
0.00493951
0.004926
0.00491192
0.0048973
0.0048822
0.00486668
0.00485079
0.00483461
0.00481824
0.00480176
0.00478529
0.00476892
0.00475266
0.00473621
0.00471868
0.00469939
9.25217e-06
9.85378e-05
0.000205816
0.000296702
0.000370489
0.000429849
0.00047791
0.000517606
0.000551161
0.000580297
0.00060642
0.000630786
0.000654297
0.00067762
0.000701041
0.000724799
0.000749063
0.000773879
0.00079937
0.0008256
0.000852602
0.0008804
0.000909007
0.000938414
0.000968618
0.000999606
0.00103136
0.00106385
0.00109704
0.00113089
0.00116536
0.00120041
0.00123598
0.00127204
0.00130855
0.00134544
0.00138269
0.00142024
0.00145805
0.00149609
0.00153432
0.00157268
0.0016112
0.00164996
0.0016891
0.0017283
0.00176751
0.00180675
0.00184597
0.00188515
0.00192437
0.00196364
0.00200299
0.00204244
0.002082
0.00212169
0.00216153
0.00220154
0.00224172
0.00228209
0.00232268
0.00236349
0.00240454
0.00244584
0.00248739
0.00252921
0.00257129
0.00261365
0.00265628
0.00269919
0.00274237
0.00278581
0.00282951
0.00287346
0.00291765
0.00296206
0.00300668
0.00305149
0.00309648
0.00314163
0.0031869
0.00323229
0.00327776
0.00332329
0.00336885
0.00341442
0.00345996
0.00350546
0.00355086