/*--------------------------------*- C++ -*----------------------------------*\
  =========                 |
  \\      /  F ield         | OpenFOAM: The Open Source CFD Toolbox
   \\    /   O peration     | Website:  https://openfoam.org
    \\  /    A nd           | Version:  8
     \\/     M anipulation  |
\*---------------------------------------------------------------------------*/
FoamFile
{
    version     2.0;
    format      ascii;
    class       volVectorField;
    location    "600";
    object      U;
}
// * * * * * * * * * * * * * * * * * * * * * * * * * * * * * * * * * * * * * //

dimensions      [0 1 -1 0 0 0 0];

internalField   nonuniform List<vector> 
12225
(
(9.75486 0.046572 0)
(9.31446 0.0884144 0)
(8.8951 0.0935098 0)
(8.51814 0.0798445 0)
(8.18744 0.0818767 0)
(7.89694 0.0817212 0)
(7.65602 0.067362 0)
(7.45304 0.0658412 0)
(7.27958 0.053787 0)
(7.13984 0.035653 0)
(7.01424 0.029712 0)
(6.89478 0.0224114 0)
(6.80099 0.0168495 0)
(6.72598 0.0193689 0)
(6.6545 0.0177448 0)
(6.59867 0.00886994 0)
(6.55263 0.0022031 0)
(6.52814 -0.00632225 0)
(10.0872 0.0576036 0)
(10.2431 0.0895782 0)
(10.3115 0.0855628 0)
(10.3167 0.083484 0)
(10.2941 0.0789576 0)
(10.2222 0.0721167 0)
(10.1485 0.0675242 0)
(10.0531 0.061899 0)
(9.95231 0.0584019 0)
(9.85309 0.0561878 0)
(9.76617 0.0523227 0)
(9.68506 0.0485063 0)
(9.60853 0.0448632 0)
(9.52555 0.0401291 0)
(9.45133 0.0364113 0)
(9.37893 0.033849 0)
(9.31905 0.0293873 0)
(9.26033 0.0231461 0)
(10.0218 0.0419284 0)
(10.0766 0.0664161 0)
(10.1286 0.069107 0)
(10.1619 0.0730001 0)
(10.1899 0.07933 0)
(10.2129 0.0824343 0)
(10.2282 0.0812299 0)
(10.2347 0.0791407 0)
(10.2354 0.0753586 0)
(10.2299 0.0718875 0)
(10.2215 0.0701255 0)
(10.2117 0.0675832 0)
(10.1993 0.0644647 0)
(10.1845 0.0623022 0)
(10.1702 0.0595597 0)
(10.154 0.0554136 0)
(10.1378 0.0499531 0)
(10.1195 0.041667 0)
(10.0088 0.031029 0)
(10.0407 0.0557295 0)
(10.073 0.0630578 0)
(10.0943 0.0679143 0)
(10.1123 0.0729927 0)
(10.1308 0.0751491 0)
(10.1473 0.0742986 0)
(10.1612 0.0730922 0)
(10.1729 0.0706889 0)
(10.1821 0.0677233 0)
(10.1895 0.0650963 0)
(10.1955 0.0625012 0)
(10.2005 0.0603944 0)
(10.205 0.0584688 0)
(10.2092 0.0557068 0)
(10.2127 0.0518334 0)
(10.215 0.0469396 0)
(10.2154 0.0408726 0)
(10.0047 0.0238749 0)
(10.028 0.0486332 0)
(10.0528 0.0577475 0)
(10.0704 0.0627868 0)
(10.0851 0.0673701 0)
(10.1 0.0696282 0)
(10.1139 0.0695821 0)
(10.1262 0.0687244 0)
(10.1369 0.0668731 0)
(10.1462 0.0645321 0)
(10.1544 0.0622423 0)
(10.1617 0.0599377 0)
(10.1684 0.057828 0)
(10.175 0.0557221 0)
(10.1814 0.0530725 0)
(10.1873 0.0496397 0)
(10.1924 0.0454217 0)
(10.1961 0.0404641 0)
(10.0031 0.0190387 0)
(10.0206 0.0418521 0)
(10.0408 0.0518848 0)
(10.0566 0.0574405 0)
(10.0701 0.0621388 0)
(10.0834 0.0646793 0)
(10.096 0.0650778 0)
(10.1072 0.0643689 0)
(10.1171 0.0627943 0)
(10.1259 0.0608003 0)
(10.1338 0.0587138 0)
(10.1411 0.0565852 0)
(10.1478 0.0544947 0)
(10.1544 0.0522957 0)
(10.1607 0.0496654 0)
(10.1666 0.0464694 0)
(10.1718 0.0426949 0)
(10.1759 0.038483 0)
(10.0021 0.0153561 0)
(10.0153 0.0357304 0)
(10.032 0.0461508 0)
(10.0464 0.0521176 0)
(10.0589 0.0567786 0)
(10.0712 0.0594663 0)
(10.0829 0.0601964 0)
(10.0934 0.0597242 0)
(10.1029 0.0584635 0)
(10.1114 0.0567848 0)
(10.1191 0.0549147 0)
(10.1262 0.0529305 0)
(10.1329 0.050882 0)
(10.1392 0.0486684 0)
(10.1452 0.0461097 0)
(10.1508 0.0431238 0)
(10.1558 0.0397353 0)
(10.16 0.0360981 0)
(10.0015 0.0127324 0)
(10.012 0.0311683 0)
(10.0264 0.0416109 0)
(10.0396 0.0476975 0)
(10.0514 0.0521162 0)
(10.0628 0.0547532 0)
(10.0737 0.0556496 0)
(10.0837 0.055379 0)
(10.0927 0.054393 0)
(10.1009 0.052984 0)
(10.1085 0.0513263 0)
(10.1155 0.0494902 0)
(10.122 0.0475226 0)
(10.1282 0.0453547 0)
(10.1341 0.0429007 0)
(10.1395 0.0401116 0)
(10.1443 0.0370355 0)
(10.1484 0.0337928 0)
(10.0012 0.0107653 0)
(10.0096 0.0273018 0)
(10.022 0.0375403 0)
(10.0342 0.0436919 0)
(10.0452 0.048033 0)
(10.056 0.0507019 0)
(10.0663 0.0517587 0)
(10.0759 0.0516804 0)
(10.0846 0.0508797 0)
(10.0926 0.0496254 0)
(10.1 0.0480809 0)
(10.1069 0.046332 0)
(10.1133 0.044421 0)
(10.1194 0.0423112 0)
(10.125 0.0399493 0)
(10.1303 0.0373265 0)
(10.1349 0.0344854 0)
(10.139 0.0315398 0)
(10.0009 0.00904677 0)
(10.0075 0.0235525 0)
(10.0181 0.0333167 0)
(10.0291 0.0394056 0)
(10.0394 0.0435928 0)
(10.0494 0.0462293 0)
(10.0592 0.0473984 0)
(10.0683 0.0474901 0)
(10.0767 0.0468644 0)
(10.0845 0.0457715 0)
(10.0916 0.0443582 0)
(10.0983 0.042719 0)
(10.1046 0.0408931 0)
(10.1104 0.0388687 0)
(10.1159 0.0366351 0)
(10.1209 0.034189 0)
(10.1254 0.0315899 0)
(10.1294 0.0289187 0)
(10.0007 0.0075181 0)
(10.0059 0.0199504 0)
(10.0148 0.0289796 0)
(10.0245 0.0348478 0)
(10.034 0.0388108 0)
(10.0433 0.0413488 0)
(10.0524 0.0425804 0)
(10.061 0.0428069 0)
(10.069 0.0423414 0)
(10.0765 0.0414047 0)
(10.0834 0.040138 0)
(10.0899 0.0386246 0)
(10.0959 0.0369104 0)
(10.1015 0.035006 0)
(10.1067 0.0329224 0)
(10.1115 0.0306733 0)
(10.1158 0.0283117 0)
(10.1197 0.0259168 0)
(10.0005 0.00615122 0)
(10.0046 0.0165216 0)
(10.0119 0.0245739 0)
(10.0205 0.0300496 0)
(10.0292 0.0337191 0)
(10.0377 0.0360976 0)
(10.0461 0.0373372 0)
(10.0542 0.0376615 0)
(10.0618 0.0373282 0)
(10.0689 0.0365388 0)
(10.0755 0.0354125 0)
(10.0817 0.0340389 0)
(10.0875 0.0324511 0)
(10.0928 0.0307008 0)
(10.0978 0.0287819 0)
(10.1024 0.026752 0)
(10.1065 0.0246293 0)
(10.1103 0.0225005 0)
(10.0004 0.00491743 0)
(10.0036 0.0133029 0)
(10.0096 0.0201706 0)
(10.017 0.0250591 0)
(10.0248 0.0283414 0)
(10.0326 0.0304956 0)
(10.0403 0.0316719 0)
(10.0478 0.0320442 0)
(10.055 0.0318148 0)
(10.0617 0.0311494 0)
(10.068 0.0301638 0)
(10.0739 0.0289242 0)
(10.0794 0.0274954 0)
(10.0846 0.0259024 0)
(10.0893 0.0241908 0)
(10.0937 0.022374 0)
(10.0976 0.020511 0)
(10.1013 0.0186314 0)
(10.0003 0.00379303 0)
(10.0029 0.0102816 0)
(10.0078 0.0158132 0)
(10.0142 0.0199252 0)
(10.0211 0.0227128 0)
(10.0282 0.024554 0)
(10.0352 0.025586 0)
(10.0422 0.0259418 0)
(10.0489 0.0257727 0)
(10.0552 0.0252063 0)
(10.0612 0.024346 0)
(10.0668 0.0232492 0)
(10.072 0.0219847 0)
(10.0769 0.020578 0)
(10.0814 0.0190763 0)
(10.0856 0.0174958 0)
(10.0894 0.0158817 0)
(10.0929 0.0142606 0)
(10.0003 0.00275176 0)
(10.0024 0.00741624 0)
(10.0064 0.0115163 0)
(10.0119 0.0146863 0)
(10.018 0.0168514 0)
(10.0244 0.0182767 0)
(10.0309 0.0190727 0)
(10.0373 0.0193343 0)
(10.0435 0.0191654 0)
(10.0495 0.0186687 0)
(10.0551 0.0179107 0)
(10.0605 0.0169645 0)
(10.0654 0.0158616 0)
(10.0701 0.0146602 0)
(10.0744 0.0133684 0)
(10.0784 0.0120332 0)
(10.0821 0.0106602 0)
(10.0855 0.00929562 0)
(10.0002 0.00176275 0)
(10.002 0.00463276 0)
(10.0055 0.00723334 0)
(10.0102 0.00931786 0)
(10.0157 0.0107264 0)
(10.0215 0.0116274 0)
(10.0275 0.0120888 0)
(10.0334 0.0121715 0)
(10.0392 0.0119459 0)
(10.0448 0.0114721 0)
(10.0501 0.0108054 0)
(10.0552 0.00998921 0)
(10.0599 0.00906163 0)
(10.0644 0.00805214 0)
(10.0685 0.00698406 0)
(10.0724 0.00588003 0)
(10.076 0.0047562 0)
(10.0793 0.0036352 0)
(10.0002 0.00077544 0)
(10.0018 0.00181479 0)
(10.0049 0.0028408 0)
(10.0092 0.00372206 0)
(10.0142 0.00424294 0)
(10.0196 0.00451892 0)
(10.0251 0.00454979 0)
(10.0307 0.00438513 0)
(10.0362 0.00403515 0)
(10.0415 0.00354933 0)
(10.0465 0.00293901 0)
(10.0514 0.00224402 0)
(10.0559 0.0014739 0)
(10.0602 0.000657608 0)
(10.0642 -0.000197367 0)
(10.068 -0.00106933 0)
(10.0714 -0.00195287 0)
(10.0747 -0.00282883 0)
(10.0002 -0.000218057 0)
(10.0018 -0.00103968 0)
(10.0048 -0.00158523 0)
(10.0089 -0.00195966 0)
(10.0138 -0.00235317 0)
(10.019 -0.00275302 0)
(10.0243 -0.00316941 0)
(10.0297 -0.00362938 0)
(10.035 -0.00411771 0)
(10.0402 -0.00465424 0)
(10.0451 -0.00521823 0)
(10.0498 -0.00582134 0)
(10.0542 -0.00644225 0)
(10.0584 -0.00708821 0)
(10.0623 -0.00774025 0)
(10.066 -0.00840188 0)
(10.0694 -0.00905883 0)
(10.0726 -0.00970959 0)
(10.0002 -0.00118284 0)
(10.0019 -0.00381318 0)
(10.0051 -0.00584106 0)
(10.0094 -0.00737563 0)
(10.0144 -0.00861413 0)
(10.0197 -0.00961488 0)
(10.0252 -0.01044 0)
(10.0306 -0.0111438 0)
(10.0359 -0.0117599 0)
(10.041 -0.0123222 0)
(10.0459 -0.0128482 0)
(10.0506 -0.0133567 0)
(10.055 -0.0138503 0)
(10.0591 -0.0143378 0)
(10.063 -0.0148164 0)
(10.0667 -0.0152895 0)
(10.0701 -0.0157536 0)
(10.0732 -0.0162067 0)
(10.0002 -0.00213161 0)
(10.0022 -0.00655678 0)
(10.0058 -0.00996925 0)
(10.0107 -0.0125208 0)
(10.0161 -0.0144782 0)
(10.0217 -0.0159622 0)
(10.0273 -0.0171115 0)
(10.0329 -0.0179813 0)
(10.0383 -0.0186653 0)
(10.0436 -0.0192104 0)
(10.0485 -0.0196778 0)
(10.0532 -0.0200792 0)
(10.0577 -0.0204483 0)
(10.0618 -0.0207853 0)
(10.0657 -0.0211089 0)
(10.0694 -0.0214148 0)
(10.0728 -0.0217134 0)
(10.0759 -0.0219966 0)
(10.0003 -0.00313509 0)
(10.0027 -0.00944439 0)
(10.007 -0.014167 0)
(10.0126 -0.0176006 0)
(10.0185 -0.0201265 0)
(10.0246 -0.0220071 0)
(10.0306 -0.0233698 0)
(10.0365 -0.0243427 0)
(10.0422 -0.0250215 0)
(10.0476 -0.0255138 0)
(10.0527 -0.0258757 0)
(10.0574 -0.0261579 0)
(10.0619 -0.0263824 0)
(10.0661 -0.0265762 0)
(10.0701 -0.0267447 0)
(10.0737 -0.0269011 0)
(10.0772 -0.027046 0)
(10.0804 -0.027183 0)
(10.0004 -0.00426988 0)
(10.0034 -0.0126116 0)
(10.0087 -0.0185641 0)
(10.0152 -0.022704 0)
(10.0219 -0.025676 0)
(10.0285 -0.0278328 0)
(10.035 -0.0293335 0)
(10.0413 -0.0303124 0)
(10.0473 -0.0309328 0)
(10.0529 -0.0313257 0)
(10.0581 -0.0315593 0)
(10.063 -0.0316973 0)
(10.0676 -0.0317679 0)
(10.0718 -0.0318061 0)
(10.0758 -0.0318229 0)
(10.0795 -0.0318334 0)
(10.083 -0.0318384 0)
(10.0862 -0.0318427 0)
(10.0005 -0.0056566 0)
(10.0046 -0.0161429 0)
(10.0112 -0.0232043 0)
(10.0188 -0.0278678 0)
(10.0263 -0.0311589 0)
(10.0335 -0.0335019 0)
(10.0405 -0.0350293 0)
(10.0472 -0.0359415 0)
(10.0535 -0.0364514 0)
(10.0593 -0.0367013 0)
(10.0647 -0.0367884 0)
(10.0698 -0.0367651 0)
(10.0745 -0.0366839 0)
(10.0788 -0.0365653 0)
(10.0829 -0.0364382 0)
(10.0867 -0.0363071 0)
(10.0902 -0.0361837 0)
(10.0935 -0.0360648 0)
(10.0007 -0.00745625 0)
(10.0066 -0.0200273 0)
(10.0145 -0.0280689 0)
(10.0234 -0.033063 0)
(10.0316 -0.0365845 0)
(10.0395 -0.0390299 0)
(10.047 -0.040485 0)
(10.0542 -0.0412479 0)
(10.0607 -0.041596 0)
(10.0668 -0.041683 0)
(10.0725 -0.0416086 0)
(10.0777 -0.0414329 0)
(10.0826 -0.0412002 0)
(10.0871 -0.0409416 0)
(10.0914 -0.0406798 0)
(10.0953 -0.0404296 0)
(10.099 -0.0401965 0)
(10.1025 -0.0399822 0)
(10.001 -0.00953469 0)
(10.0096 -0.0242308 0)
(10.0189 -0.0332899 0)
(10.0289 -0.0383796 0)
(10.0378 -0.0419414 0)
(10.0462 -0.0443452 0)
(10.0543 -0.0456554 0)
(10.0619 -0.0462401 0)
(10.0689 -0.0464517 0)
(10.0754 -0.0464027 0)
(10.0815 -0.0461822 0)
(10.0872 -0.0458635 0)
(10.0925 -0.0454829 0)
(10.0974 -0.0450792 0)
(10.102 -0.0446785 0)
(10.1063 -0.044304 0)
(10.1103 -0.0439576 0)
(10.114 -0.0436515 0)
(10.0005 -0.0134836 0)
(10.0117 -0.029965 0)
(10.0242 -0.0391319 0)
(10.0354 -0.0439388 0)
(10.0448 -0.0472551 0)
(10.0538 -0.0493597 0)
(10.0627 -0.0504425 0)
(10.0712 -0.050918 0)
(10.0793 -0.0510731 0)
(10.087 -0.0509734 0)
(10.0942 -0.0506862 0)
(10.101 -0.0502702 0)
(10.1073 -0.0497837 0)
(10.1131 -0.0492601 0)
(10.1183 -0.0487467 0)
(10.1232 -0.0482649 0)
(10.1277 -0.0478284 0)
(10.1318 -0.0474509 0)
(10.0046 -0.016898 0)
(10.0145 -0.0345545 0)
(10.0323 -0.0428889 0)
(10.0448 -0.0483565 0)
(10.0553 -0.0524911 0)
(10.0663 -0.0549094 0)
(10.078 -0.0558729 0)
(10.0899 -0.0562446 0)
(10.1013 -0.0562766 0)
(10.1121 -0.0558928 0)
(10.1222 -0.0552984 0)
(10.1312 -0.0545821 0)
(10.1392 -0.0537913 0)
(10.1462 -0.0529854 0)
(10.1523 -0.0522213 0)
(10.1576 -0.0515336 0)
(10.1622 -0.0509283 0)
(10.1662 -0.0504245 0)
(10.0118 -0.0229753 0)
(10.0306 -0.0438138 0)
(10.0585 -0.0466815 0)
(10.0804 -0.0503784 0)
(10.1028 -0.0550178 0)
(10.1276 -0.0586622 0)
(10.1516 -0.0609123 0)
(10.1723 -0.0620479 0)
(10.1901 -0.0624766 0)
(10.2041 -0.0623587 0)
(10.2147 -0.061716 0)
(10.2223 -0.0607533 0)
(10.2274 -0.059602 0)
(10.2305 -0.0583747 0)
(10.2318 -0.0571834 0)
(10.2316 -0.0561253 0)
(10.2305 -0.0552404 0)
(10.2283 -0.0546471 0)
(10.0414 -0.0336928 0)
(10.1608 -0.0657678 0)
(10.253 -0.0707319 0)
(10.3226 -0.0729729 0)
(10.3692 -0.0742975 0)
(10.3915 -0.0739886 0)
(10.3939 -0.072249 0)
(10.3811 -0.069859 0)
(10.356 -0.0671005 0)
(10.3238 -0.0641138 0)
(10.2877 -0.0610889 0)
(10.2495 -0.0581378 0)
(10.21 -0.0553117 0)
(10.17 -0.05265 0)
(10.1299 -0.050231 0)
(10.0902 -0.0480967 0)
(10.0517 -0.0462725 0)
(10.0148 -0.0451879 0)
(9.88555 -0.0373658 0)
(9.64586 -0.072338 0)
(9.37941 -0.0832888 0)
(9.11091 -0.0861673 0)
(8.85937 -0.0834491 0)
(8.63588 -0.0771034 0)
(8.43873 -0.0696817 0)
(8.26538 -0.061876 0)
(8.1148 -0.0542635 0)
(7.98346 -0.0475098 0)
(7.86804 -0.0415597 0)
(7.76624 -0.0362149 0)
(7.67664 -0.0313633 0)
(7.59776 -0.0270192 0)
(7.52812 -0.0231954 0)
(7.46644 -0.0199961 0)
(7.41051 -0.0174612 0)
(7.36001 -0.015832 0)
(-0.0026949 0.00761953 0)
(-0.0127463 0.0126679 0)
(-0.0263681 0.0138207 0)
(-0.0408296 0.0118317 0)
(-0.0513236 0.00605196 0)
(-0.0502657 -0.00351208 0)
(-0.0343665 -0.0165066 -8.21093e-19)
(-0.00698848 -0.0300983 9.25889e-19)
(0.0286828 -0.0402852 0)
(0.0697236 -0.0452662 5.28704e-19)
(0.113111 -0.0457068 0)
(0.155401 -0.0427871 0)
(0.193829 -0.0375811 0)
(0.226736 -0.0309044 -2.60253e-19)
(0.253245 -0.0233365 0)
(0.272937 -0.0152369 0)
(0.285472 -0.0068128 2.25232e-19)
(0.291064 0.00201031 0)
(0.288561 0.0111122 0)
(0.27819 0.0200085 0)
(0.260591 0.0279401 -2.41672e-19)
(0.236414 0.0341209 0)
(0.206606 0.037815 -2.86276e-19)
(0.172578 0.0384011 0)
(0.136203 0.0354348 0)
(0.09977 0.0289037 -4.67445e-19)
(0.0658159 0.0194917 0)
(0.0367947 0.00894778 7.82814e-19)
(0.0144717 -1.18608e-05 0)
(-0.000831415 -0.00528708 -1.31719e-18)
(-0.0103888 -0.00769009 0)
(-0.0151639 -0.00936025 0)
(-0.0140661 -0.011538 0)
(-0.00667511 -0.0151122 0)
(0.00805067 -0.0205831 0)
(0.0304959 -0.0266961 8.55942e-19)
(0.0591077 -0.0310719 0)
(0.0897151 -0.0313044 -1.00274e-18)
(0.117186 -0.0269415 0)
(0.137246 -0.0193901 7.9397e-19)
(0.148063 -0.0112124 0)
(0.150763 -0.00461424 0)
(0.148041 -0.000952249 -7.8169e-19)
(0.143847 -0.00120464 0)
(0.141321 -0.0061585 -8.11431e-19)
(0.1385 -0.0151367 8.17204e-19)
(0.128925 -0.0228079 0)
(0.105277 -0.0189742 8.9553e-19)
(0.0621857 0.000170837 1.05254e-18)
(-0.0136243 0.0190507 0)
(-0.110928 0.0382521 0)
(-0.216377 0.0624408 0)
(-0.333773 0.0848117 0)
(-0.460741 0.101052 0)
(-0.59351 0.108439 -1.87129e-19)
(-0.727962 0.112345 0)
(-0.859543 0.111069 1.47663e-19)
(-0.988072 0.107646 0)
(-1.10894 0.104147 0)
(-1.22271 0.095667 -1.15092e-19)
(-1.3281 0.0864054 0)
(-1.4249 0.0797902 1.03005e-19)
(-1.51412 0.0715908 0)
(-1.59582 0.0641015 0)
(-1.67096 0.0587566 0)
(-1.74034 0.0535992 -8.94682e-20)
(-1.80453 0.0491284 0)
(-1.86416 0.0452581 0)
(-1.91981 0.0418585 -8.31169e-20)
(-1.97194 0.0388866 0)
(-2.02098 0.0362806 -7.98759e-20)
(-2.06727 0.0339697 0)
(-2.11112 0.031908 0)
(-2.15274 0.0300486 0)
(-2.19234 0.0283537 7.47063e-20)
(-2.23008 0.0267959 0)
(-2.26607 0.0253469 0)
(-2.30042 0.0239907 7.15155e-20)
(-2.3332 0.0227081 7.05366e-20)
(-2.36449 0.0214888 0)
(-2.39433 0.0203211 6.8672e-20)
(-2.42277 0.0191969 0)
(-2.44984 0.0181101 1.33807e-19)
(-2.47556 0.0170534 0)
(-2.49996 0.0160239 1.30405e-19)
(-2.52305 0.0150141 0)
(-2.54484 0.0140232 -1.27089e-19)
(-2.56534 0.0130431 0)
(-2.58453 0.0120725 0)
(-2.60241 0.011107 0)
(-2.61899 0.0101398 1.20578e-19)
(-2.63426 0.00916414 0)
(-2.64819 0.00817403 -1.1733e-19)
(-2.66076 0.00716087 0)
(-2.67193 0.00611871 1.1406e-19)
(-2.68166 0.0050413 1.12412e-19)
(-2.68989 0.00392918 1.10753e-19)
(-2.69657 0.00279937 0)
(-2.70165 0.00170467 0)
(-2.70505 0.000740234 0)
(-2.70679 -4.05602e-05 0)
(-2.70737 -0.000716476 0)
(-2.70671 -0.00137092 0)
(-2.70486 -0.00200755 0)
(-2.70182 -0.0026376 0)
(-2.6976 -0.00325758 -9.46333e-20)
(-2.69218 -0.00387209 -9.26436e-20)
(-2.68558 -0.00447704 0)
(-2.67777 -0.00507645 0)
(-2.66877 -0.00566631 0)
(-2.65858 -0.00625041 -8.42248e-20)
(-2.64718 -0.0068252 0)
(-2.63459 -0.00739391 0)
(-2.6208 -0.0079538 0)
(-2.60581 -0.00850724 0)
(-2.58963 -0.00905254 7.25636e-20)
(-2.57225 -0.00959098 0)
(-2.55369 -0.0101221 0)
(-2.53394 -0.0106459 -6.48806e-20)
(-2.513 -0.0111631 6.21926e-20)
(-2.49089 -0.0116727 0)
(-2.46761 -0.0121764 5.6611e-20)
(-2.44316 -0.0126719 0)
(-2.41755 -0.013162 -5.0736e-20)
(-2.39079 -0.0136437 0)
(-2.3629 -0.0141207 0)
(-2.33388 -0.0145891 0)
(-2.30374 -0.0150513 0)
(-2.27251 -0.0154963 0)
(-2.2402 -0.0159365 6.21491e-20)
(-2.20682 -0.0163595 5.4918e-20)
(-2.1724 -0.016766 0)
(-2.13697 -0.0171432 0)
(-2.10056 -0.0174453 0)
(-2.06323 -0.017622 -2.37519e-20)
(-2.02506 -0.0175924 0)
(-1.98609 -0.0173607 0)
(-1.9463 -0.0174223 0)
(-1.90557 -0.0177859 1.14974e-20)
(-1.864 -0.018062 -2.1064e-20)
(-1.82164 -0.0183301 0)
(-1.77853 -0.0185807 0)
(-1.73471 -0.0188204 -5.1837e-20)
(-1.69024 -0.0190451 -6.28404e-20)
(-1.64512 -0.0192586 0)
(-1.59942 -0.0194568 0)
(-1.55316 -0.0196451 9.83519e-20)
(-1.50636 -0.0198195 -1.11098e-19)
(-1.45907 -0.0199795 0)
(-1.41129 -0.0201305 0)
(-1.36306 -0.0202622 -1.52484e-19)
(-1.31438 -0.0203863 0)
(-1.26533 -0.0204949 0)
(-1.2159 -0.0205976 -1.99287e-19)
(-1.16615 -0.020694 0)
(-1.11609 -0.0207855 -2.34101e-19)
(-1.06574 -0.0208789 0)
(-1.01511 -0.020975 0)
(-0.964213 -0.0210782 0)
(-0.913046 -0.0211918 3.14514e-19)
(-0.861606 -0.0213176 0)
(-0.809886 -0.0214578 0)
(-0.75788 -0.0216125 0)
(-0.705583 -0.0217835 0)
(-0.65299 -0.0219714 0)
(-0.600095 -0.02218 0)
(-0.54689 -0.0224115 5.07232e-19)
(-0.493359 -0.0226707 5.42861e-19)
(-0.439487 -0.0229591 0)
(-0.385255 -0.0232787 0)
(-0.330649 -0.0236261 0)
(-0.275671 -0.0239995 -7.17956e-19)
(-0.220345 -0.0244057 0)
(-0.164743 -0.0248276 1.66561e-18)
(-0.109029 -0.0252001 -1.79974e-18)
(-0.0535697 -0.0253805 -1.94971e-18)
(0.00144295 -0.0249284 2.04955e-18)
(0.0527307 -0.023195 -2.02917e-18)
(0.109486 -0.0207303 1.96571e-18)
(0.125422 -0.00935979 0)
(-0.000154651 0.0204383 0)
(-0.00575263 0.0355689 0)
(-0.0121411 0.0368275 2.19573e-18)
(-0.0124723 0.0273654 0)
(0.00165024 0.00550328 -2.2781e-18)
(0.0312678 -0.0315297 -1.43681e-18)
(0.0704699 -0.0730553 -4.53837e-19)
(0.115244 -0.107108 -3.24412e-19)
(0.161527 -0.128018 0)
(0.205889 -0.135432 -2.1253e-19)
(0.24614 -0.132012 0)
(0.281341 -0.121155 0)
(0.311168 -0.105768 3.17181e-19)
(0.335643 -0.0879344 1.51138e-19)
(0.354992 -0.0690111 -2.94692e-19)
(0.36953 -0.0497707 -2.91327e-19)
(0.379645 -0.0306013 -1.45719e-19)
(0.385512 -0.011635 0)
(0.388142 0.00713955 0)
(0.387417 0.0255495 0)
(0.38295 0.0432302 -1.54036e-19)
(0.374231 0.0596368 0)
(0.360691 0.074011 4.93021e-19)
(0.341845 0.0853629 0)
(0.317478 0.0925504 0)
(0.28783 0.0944838 1.99893e-19)
(0.253797 0.0904157 0)
(0.217039 0.0804188 -2.53711e-19)
(0.179913 0.0655661 -5.95165e-19)
(0.145359 0.0476843 3.5676e-19)
(0.116524 0.0284085 0)
(0.0967308 0.00864786 0)
(0.0872971 -0.0117416 0)
(0.0900544 -0.0318781 -1.05104e-18)
(0.103053 -0.0519097 -8.83148e-19)
(0.12269 -0.0692468 -3.64052e-19)
(0.142919 -0.0767589 0)
(0.157803 -0.0711139 5.24323e-19)
(0.164798 -0.055317 0)
(0.163529 -0.0347629 -5.09313e-19)
(0.154721 -0.0161224 0)
(0.139219 -0.00375248 0)
(0.116739 0.00351101 6.5366e-19)
(0.0814353 0.0102678 0)
(0.0227539 0.0236375 2.51956e-18)
(-0.0719183 0.0552819 -6.29473e-19)
(-0.192144 0.0984601 0)
(-0.323481 0.143193 -2.68824e-19)
(-0.46082 0.185805 -1.9974e-19)
(-0.604167 0.22119 0)
(-0.748695 0.247788 0)
(-0.891142 0.266204 0)
(-1.02947 0.276251 0)
(-1.16029 0.27798 0)
(-1.28161 0.272501 8.48198e-20)
(-1.39033 0.261913 1.59708e-19)
(-1.48757 0.247485 -7.52853e-20)
(-1.57361 0.23007 0)
(-1.64963 0.211862 1.38592e-19)
(-1.7173 0.193705 -6.74656e-20)
(-1.77765 0.176212 0)
(-1.83198 0.160167 -6.32064e-20)
(-1.88158 0.145616 0)
(-1.92691 0.132616 0)
(-1.96894 0.121253 -1.19297e-19)
(-2.00811 0.111277 5.85048e-20)
(-2.04497 0.102572 -1.15123e-19)
(-2.07983 0.0949778 1.13256e-19)
(-2.11296 0.0883234 5.57528e-20)
(-2.14454 0.0824675 0)
(-2.17471 0.0772661 5.41538e-20)
(-2.20357 0.0726141 0)
(-2.23121 0.0684035 0)
(-2.25768 0.0645633 0)
(-2.28303 0.0610183 5.12095e-20)
(-2.30729 0.0577232 0)
(-2.33049 0.0546276 9.98911e-20)
(-2.35264 0.051703 -1.47987e-19)
(-2.37377 0.0489172 -4.87402e-20)
(-2.39388 0.0462512 0)
(-2.41298 0.0436853 -4.75251e-20)
(-2.43107 0.0412055 0)
(-2.44815 0.0388006 -9.26726e-20)
(-2.46423 0.0364587 0)
(-2.4793 0.0341736 -9.0324e-20)
(-2.49337 0.031934 1.78179e-19)
(-2.50642 0.0297368 8.79826e-20)
(-2.51846 0.0275724 0)
(-2.52947 0.0254393 0)
(-2.53945 0.0233332 0)
(-2.54841 0.0212504 -8.32528e-20)
(-2.55635 0.019185 0)
(-2.56326 0.0171346 8.08406e-20)
(-2.56915 0.0150936 0)
(-2.57402 0.013059 -2.35167e-19)
(-2.5779 0.0110233 -7.71331e-20)
(-2.58081 0.00898065 -7.58705e-20)
(-2.58282 0.00692984 0)
(-2.58401 0.0048972 0)
(-2.58448 0.0029551 0)
(-2.58426 0.00116765 0)
(-2.58293 -0.000512435 0)
(-2.58047 -0.00215219 -1.35724e-19)
(-2.57687 -0.0037573 -1.32858e-19)
(-2.57211 -0.00534016 0)
(-2.56618 -0.00689788 6.33909e-20)
(-2.55908 -0.00843493 6.18753e-20)
(-2.55081 -0.00994674 0)
(-2.54137 -0.011437 1.17787e-19)
(-2.53075 -0.012901 0)
(-2.51896 -0.0143422 -5.58411e-20)
(-2.50598 -0.0157563 0)
(-2.49183 -0.0171463 0)
(-2.47649 -0.0185084 1.01399e-19)
(-2.45998 -0.0198449 0)
(-2.4423 -0.0211529 -4.70409e-20)
(-2.42343 -0.0224337 0)
(-2.4034 -0.0236855 0)
(-2.38219 -0.0249086 -4.20096e-20)
(-2.35982 -0.0261026 -3.97071e-20)
(-2.3363 -0.0272663 0)
(-2.31161 -0.0284005 3.63252e-20)
(-2.28578 -0.0295023 0)
(-2.25881 -0.0305734 -3.23687e-20)
(-2.23071 -0.0316096 -6.01508e-20)
(-2.20149 -0.0326133 0)
(-2.17116 -0.0335799 0)
(-2.13974 -0.0345129 0)
(-2.10723 -0.0354079 0)
(-2.07367 -0.0362673 -3.79981e-20)
(-2.03907 -0.0370867 -1.01531e-19)
(-2.00345 -0.0378666 0)
(-1.96684 -0.038603 0)
(-1.92926 -0.0393031 0)
(-1.89073 -0.0399794 1.42568e-20)
(-1.85125 -0.0406472 0)
(-1.81082 -0.041299 0)
(-1.76947 -0.0419153 7.84062e-22)
(-1.72731 -0.0424535 4.96935e-21)
(-1.68435 -0.0429149 1.18369e-20)
(-1.64061 -0.043324 0)
(-1.59613 -0.0436866 0)
(-1.55095 -0.0440104 2.8698e-20)
(-1.50511 -0.0442939 -3.29573e-20)
(-1.45863 -0.0445418 0)
(-1.41157 -0.0447522 0)
(-1.36394 -0.0449295 -5.26354e-20)
(-1.31579 -0.0450736 1.75018e-19)
(-1.26714 -0.0451815 0)
(-1.218 -0.0452599 0)
(-1.1684 -0.0453008 7.83074e-20)
(-1.11837 -0.0453111 0)
(-1.06794 -0.04529 1.81951e-19)
(-1.01713 -0.0452391 -9.70468e-20)
(-0.965985 -0.0451664 0)
(-0.914513 -0.0450716 1.12997e-19)
(-0.862738 -0.0449659 2.38879e-19)
(-0.810672 -0.044852 0)
(-0.75832 -0.0447375 0)
(-0.705685 -0.0446264 -1.43008e-19)
(-0.65276 -0.0445239 0)
(-0.599539 -0.0444308 3.1591e-19)
(-0.546012 -0.0443484 0)
(-0.49217 -0.0442748 0)
(-0.438007 -0.0442116 0)
(-0.383514 -0.0441599 0)
(-0.32868 -0.044124 -2.01229e-19)
(-0.273491 -0.0441064 -2.10255e-19)
(-0.217929 -0.0441104 0)
(-0.161975 -0.0441355 0)
(-0.105614 -0.0441755 0)
(-0.048849 -0.0442129 2.48527e-19)
(0.00829003 -0.0442118 0)
(0.0657477 -0.0441214 -5.16255e-19)
(0.123426 -0.0438813 5.17606e-19)
(0.181053 -0.0433538 5.19001e-19)
(0.238559 -0.0422046 5.17373e-19)
(0.293709 -0.0399895 5.23291e-19)
(0.351557 -0.0358652 5.25389e-19)
(0.387674 -0.0233799 0)
(0.000399748 0.0231859 0)
(0.000812711 0.0399429 0)
(0.00672479 0.0326263 -2.32488e-18)
(0.0269248 -0.000897555 -1.62831e-18)
(0.0667666 -0.0607592 9.70332e-19)
(0.118416 -0.126889 6.30171e-19)
(0.171388 -0.179321 -3.5662e-22)
(0.218782 -0.209365 0)
(0.257918 -0.21786 0)
(0.288845 -0.210048 0)
(0.3128 -0.191767 0)
(0.331251 -0.167745 0)
(0.345418 -0.141187 -7.21991e-19)
(0.356161 -0.113984 0)
(0.364047 -0.0871525 2.30446e-19)
(0.369451 -0.0611689 2.29909e-19)
(0.372642 -0.0362201 0)
(0.373815 -0.0123754 0)
(0.373228 0.0103923 0)
(0.371205 0.0322554 0)
(0.368007 0.0533536 2.44979e-19)
(0.363807 0.0736168 0)
(0.358517 0.0926656 -2.62517e-19)
(0.351735 0.109738 0)
(0.342762 0.123699 0)
(0.33073 0.133117 0)
(0.31485 0.136498 -6.56991e-19)
(0.294802 0.132643 0)
(0.271154 0.121064 3.90537e-19)
(0.24554 0.102146 -8.72166e-19)
(0.220552 0.0770371 0)
(0.199164 0.0471655 0)
(0.183993 0.0142572 0)
(0.175197 -0.0207329 6.4352e-19)
(0.171555 -0.0543279 5.6611e-19)
(0.166334 -0.0761935 0)
(0.152896 -0.0770439 0)
(0.131057 -0.0597735 -7.7358e-19)
(0.101734 -0.0322307 -7.96941e-19)
(0.0651465 0.000821418 8.87997e-19)
(0.0190186 0.0347338 0)
(-0.0469856 0.0666885 0)
(-0.138733 0.105542 0)
(-0.250207 0.155197 0)
(-0.377829 0.210173 -4.03692e-19)
(-0.515899 0.26591 -3.19579e-19)
(-0.656868 0.318307 2.62066e-19)
(-0.795112 0.362662 0)
(-0.926431 0.397537 0)
(-1.04729 0.421963 0)
(-1.15605 0.43518 0)
(-1.25208 0.437842 -1.45388e-19)
(-1.33493 0.430779 0)
(-1.4056 0.415189 0)
(-1.46608 0.393042 -1.21585e-19)
(-1.5184 0.366841 -1.14991e-19)
(-1.56474 0.338716 0)
(-1.60651 0.310197 2.14816e-19)
(-1.64519 0.282738 -1.03114e-19)
(-1.6818 0.25698 1.00215e-19)
(-1.717 0.233392 0)
(-1.75117 0.212383 0)
(-1.78447 0.193846 0)
(-1.81703 0.177585 0)
(-1.84882 0.16347 8.91982e-20)
(-1.87981 0.151167 1.75109e-19)
(-1.91 0.140416 8.58648e-20)
(-1.93937 0.130974 -8.43466e-20)
(-1.96791 0.122616 0)
(-1.9956 0.115157 1.62994e-19)
(-2.02243 0.108436 1.60336e-19)
(-2.0484 0.102323 1.57789e-19)
(-2.07349 0.0967035 -1.55336e-19)
(-2.09772 0.0914923 0)
(-2.12107 0.0866139 -2.26089e-19)
(-2.14354 0.0820123 0)
(-2.16513 0.077639 7.30527e-20)
(-2.18584 0.0734581 7.21556e-20)
(-2.20565 0.0694386 0)
(-2.22457 0.0655574 0)
(-2.24259 0.0617946 1.38019e-19)
(-2.2597 0.0581346 0)
(-2.2759 0.0545648 1.34081e-19)
(-2.29118 0.0510735 0)
(-2.30555 0.0476523 -1.3022e-19)
(-2.31898 0.0442918 -2.56721e-19)
(-2.33147 0.0409859 0)
(-2.34302 0.0377272 0)
(-2.35362 0.0345119 0)
(-2.36327 0.0313376 -1.2069e-19)
(-2.37196 0.0282001 0)
(-2.3797 0.0250977 -1.16867e-19)
(-2.38648 0.0220295 0)
(-2.3923 0.0189979 0)
(-2.39715 0.0160072 2.22136e-19)
(-2.40105 0.0130634 0)
(-2.40399 0.0101759 1.07151e-19)
(-2.40599 0.00735585 0)
(-2.40704 0.0046124 1.03138e-19)
(-2.40708 0.00193183 0)
(-2.40609 -0.000725231 0)
(-2.404 -0.00337098 0)
(-2.40081 -0.00598583 2.8368e-19)
(-2.39652 -0.00856677 9.22693e-20)
(-2.3911 -0.0111124 0)
(-2.38456 -0.0136223 0)
(-2.37688 -0.0160951 0)
(-2.36807 -0.0185301 0)
(-2.35812 -0.0209262 -8.08126e-20)
(-2.34702 -0.0232826 1.57294e-19)
(-2.33478 -0.0255983 7.60385e-20)
(-2.3214 -0.0278724 -1.47684e-19)
(-2.30687 -0.0301044 -1.42795e-19)
(-2.29119 -0.032293 -6.86696e-20)
(-2.27436 -0.0344377 0)
(-2.25639 -0.036537 -1.27793e-19)
(-2.23727 -0.0385907 0)
(-2.21701 -0.0405974 1.17508e-19)
(-2.1956 -0.0425569 5.58253e-20)
(-2.17306 -0.0444681 0)
(-2.14939 -0.0463305 -1.01645e-19)
(-2.12458 -0.048143 -4.77693e-20)
(-2.09865 -0.0499042 0)
(-2.07161 -0.0516128 -4.29905e-20)
(-2.04346 -0.0532667 1.19078e-19)
(-2.01422 -0.0548646 0)
(-1.98388 -0.0564043 0)
(-1.95248 -0.0578851 0)
(-1.92001 -0.0593044 0)
(-1.88651 -0.0606607 5.06587e-20)
(-1.85198 -0.0619505 4.37508e-20)
(-1.81645 -0.0631724 0)
(-1.77995 -0.064321 0)
(-1.74249 -0.0653943 0)
(-1.7041 -0.0663942 0)
(-1.66478 -0.0673268 0)
(-1.62456 -0.0681985 0)
(-1.58347 -0.0690245 -4.90418e-22)
(-1.54158 -0.0697838 -1.05654e-21)
(-1.49892 -0.0704536 0)
(-1.4555 -0.0710435 0)
(-1.41135 -0.0715597 -2.62167e-20)
(-1.36652 -0.0720076 0)
(-1.32103 -0.0723892 4.11155e-20)
(-1.27492 -0.0727075 4.69746e-20)
(-1.22824 -0.0729652 0)
(-1.181 -0.0731645 0)
(-1.13324 -0.0733073 -6.94067e-20)
(-1.08499 -0.0733932 -1.50912e-19)
(-1.03626 -0.0734252 0)
(-0.987076 -0.0734032 0)
(-0.937469 -0.0733283 0)
(-0.887457 -0.0732051 -1.05919e-19)
(-0.837073 -0.0730324 1.13348e-19)
(-0.786339 -0.0728216 0)
(-0.735277 -0.0725744 2.5433e-19)
(-0.683905 -0.0723044 1.33534e-19)
(-0.632234 -0.0720181 -2.8459e-19)
(-0.580271 -0.0717258 0)
(-0.528015 -0.071434 0)
(-0.475462 -0.0711503 -3.30437e-19)
(-0.422604 -0.0708762 -1.74099e-19)
(-0.36943 -0.0706129 0)
(-0.31593 -0.0703575 0)
(-0.262096 -0.0701113 0)
(-0.207919 -0.0698752 0)
(-0.153386 -0.0696541 -4.23674e-19)
(-0.0984832 -0.0694509 0)
(-0.0431918 -0.0692687 0)
(0.0125031 -0.0691036 0)
(0.0686172 -0.0689448 0)
(0.125159 -0.0687691 0)
(0.182113 -0.0685324 0)
(0.23943 -0.06817 -4.96337e-19)
(0.297022 -0.0675912 0)
(0.35467 -0.0666257 0)
(0.412366 -0.0649731 -1.03156e-18)
(0.468555 -0.0621287 5.21423e-19)
(0.527111 -0.0570838 -5.32497e-19)
(0.573155 -0.0445523 5.43797e-19)
(-0.00109519 0.0233455 0)
(0.001987 0.0268281 5.07731e-18)
(0.0239838 -0.0155336 0)
(0.0721937 -0.0990315 8.6424e-19)
(0.133379 -0.187112 0)
(0.191183 -0.251016 0)
(0.236313 -0.282028 -3.25602e-19)
(0.267547 -0.285129 0)
(0.287712 -0.26982 0)
(0.300469 -0.244476 0)
(0.308719 -0.214593 0)
(0.314297 -0.183213 0)
(0.318181 -0.151859 8.15307e-19)
(0.320822 -0.121228 4.0105e-19)
(0.322385 -0.0916312 -3.98525e-19)
(0.322908 -0.0632038 0)
(0.322406 -0.0360064 0)
(0.320892 -0.0100767 0)
(0.318425 0.0145745 0)
(0.315095 0.0379794 0)
(0.311053 0.0601826 4.31519e-19)
(0.306518 0.0811929 4.43209e-19)
(0.301705 0.100919 -4.5958e-19)
(0.296722 0.119043 4.81863e-19)
(0.291469 0.134922 0)
(0.285591 0.147513 0)
(0.278481 0.155359 5.83527e-19)
(0.269377 0.156748 0)
(0.257695 0.150109 0)
(0.243264 0.134351 7.52143e-19)
(0.226769 0.109276 8.39869e-19)
(0.209373 0.075929 9.51722e-19)
(0.192448 0.0366105 0)
(0.175156 -0.00410985 0)
(0.150531 -0.0341607 -9.69e-19)
(0.113707 -0.0402896 0)
(0.0661921 -0.0230155 0)
(0.00888806 0.0110643 7.72781e-19)
(-0.0612553 0.0563006 -6.91263e-19)
(-0.147454 0.110815 5.53761e-19)
(-0.24845 0.172105 0)
(-0.363412 0.235684 0)
(-0.488629 0.299781 5.9253e-19)
(-0.618158 0.362986 0)
(-0.746533 0.421623 4.23918e-19)
(-0.868655 0.470543 5.57673e-19)
(-0.979806 0.507642 -4.97123e-19)
(-1.07779 0.532926 3.00464e-19)
(-1.1619 0.54631 0)
(-1.23197 0.548549 0)
(-1.28943 0.54084 2.38474e-19)
(-1.33608 0.524661 1.11231e-19)
(-1.37411 0.501721 0)
(-1.40601 0.473824 0)
(-1.43415 0.44297 9.57145e-20)
(-1.46037 0.411085 1.85158e-19)
(-1.48591 0.379554 0)
(-1.51154 0.349259 -1.70698e-19)
(-1.5377 0.320952 1.66274e-19)
(-1.56452 0.294941 -1.613e-19)
(-1.59196 0.27134 0)
(-1.61989 0.250183 0)
(-1.64811 0.231345 0)
(-1.67642 0.214626 0)
(-1.70463 0.199823 0)
(-1.73258 0.186689 -1.39214e-19)
(-1.76013 0.174991 0)
(-1.78719 0.164513 0)
(-1.81367 0.155059 0)
(-1.83951 0.146462 -2.58463e-19)
(-1.86467 0.138578 -1.27021e-19)