/*--------------------------------*- C++ -*----------------------------------*\
  =========                 |
  \\      /  F ield         | OpenFOAM: The Open Source CFD Toolbox
   \\    /   O peration     | Website:  https://openfoam.org
    \\  /    A nd           | Version:  8
     \\/     M anipulation  |
\*---------------------------------------------------------------------------*/
FoamFile
{
    version     2.0;
    format      ascii;
    class       volScalarField;
    location    "3400";
    object      nut;
}
// * * * * * * * * * * * * * * * * * * * * * * * * * * * * * * * * * * * * * //

dimensions      [0 2 -1 0 0 0 0];

internalField   nonuniform List<scalar> 
12225
(
0.0122671
0.00158819
0.000666129
0.000410105
0.000294025
0.00022806
0.000183261
0.000170805
0.000132697
0.000106844
9.46735e-05
8.80085e-05
7.89856e-05
7.2233e-05
6.77318e-05
6.4507e-05
6.12103e-05
6.46338e-05
0.0323823
0.00744532
0.00330638
0.00204329
0.00146801
0.0011445
0.000936338
0.000799975
0.00067951
0.000577234
0.000506286
0.000452432
0.00041054
0.000378806
0.000350182
0.000327767
0.000311172
0.000292817
0.0490123
0.01515
0.00728196
0.00457854
0.00330639
0.00258054
0.00211233
0.00178913
0.00154181
0.00134762
0.00119772
0.0010787
0.000982056
0.000902481
0.000835978
0.000780909
0.000735546
0.00068717
0.063054
0.0237783
0.0122894
0.00788814
0.00573397
0.00448498
0.00367412
0.00310733
0.00268471
0.00235805
0.00210111
0.00189458
0.00172531
0.00158451
0.00146613
0.00136604
0.00128146
0.00119789
0.074932
0.0328517
0.0181452
0.0119262
0.00874548
0.00686412
0.0056308
0.00476254
0.00411748
0.00362029
0.00322731
0.00290992
0.00264899
0.00243143
0.00224799
0.00209188
0.00195826
0.00183626
0.0849536
0.0420208
0.0246655
0.0166359
0.0123325
0.00972587
0.00799539
0.00676785
0.00585345
0.00514769
0.00458844
0.00413587
0.00376334
0.00345239
0.00318983
0.00296596
0.0027736
0.00260471
0.0933822
0.0510219
0.0316642
0.0219415
0.016474
0.0130717
0.0107778
0.00913551
0.0079057
0.0069534
0.0061969
0.00558367
0.00507837
0.00465632
0.00429976
0.00399561
0.00373414
0.00350818
0.0993794
0.0583363
0.0378386
0.0268568
0.0204171
0.0163053
0.0134891
0.011453
0.00991891
0.00872629
0.00777635
0.00700497
0.00636866
0.00583685
0.0053874
0.00500398
0.00467452
0.00439126
0.104023
0.0645454
0.0433804
0.0314239
0.0241571
0.0194092
0.0161097
0.0137018
0.0118766
0.0104521
0.00931443
0.00838904
0.00762485
0.00698574
0.00644544
0.00598449
0.00558858
0.00524877
0.108368
0.0708939
0.0493756
0.0365496
0.0284517
0.0230231
0.0191863
0.0163547
0.0141926
0.0124968
0.011138
0.0100303
0.00911434
0.00834759
0.0076991
0.00714579
0.00667068
0.00626297
0.112368
0.0772557
0.0557282
0.0421918
0.0332976
0.0271652
0.0227467
0.0194432
0.0168984
0.0148903
0.0132749
0.0119544
0.0108605
0.00994379
0.00916796
0.00850586
0.00793736
0.00744915
0.115994
0.0834975
0.0623053
0.0482611
0.0386474
0.0318167
0.026789
0.0229739
0.0200046
0.0176452
0.0157378
0.0141736
0.0128749
0.011785
0.0108618
0.0100736
0.00939671
0.00881464
0.119234
0.0894856
0.0689377
0.0546109
0.0443919
0.0369007
0.0312597
0.0269088
0.0234836
0.02074
0.0185096
0.0166735
0.0151449
0.01386
0.0127704
0.0118396
0.0110397
0.0103508
0.122086
0.095084
0.075415
0.0610223
0.0503361
0.0422534
0.0360231
0.0311353
0.0272402
0.024093
0.021519
0.0193909
0.017614
0.0161174
0.0148466
0.01376
0.0128257
0.0120196
0.124546
0.100135
0.0814619
0.0671725
0.056158
0.047577
0.0408126
0.0354174
0.031066
0.0275196
0.0246012
0.0221777
0.0201481
0.0184349
0.0169782
0.0157314
0.0146583
0.0137311
0.126578
0.104396
0.0866605
0.0725515
0.0613228
0.0523526
0.0451453
0.0393148
0.0345631
0.0306611
0.0274325
0.0247409
0.0224806
0.020569
0.0189413
0.0175468
0.0163454
0.0153061
0.128011
0.107322
0.0902141
0.0762353
0.0648743
0.0556509
0.0481493
0.0420254
0.0370012
0.0328553
0.0294126
0.0265352
0.0241143
0.0220643
0.0203172
0.0188191
0.0175275
0.0164083
0.128006
0.107313
0.0902048
0.0762269
0.0648674
0.0556454
0.048145
0.0420222
0.0369988
0.0328537
0.0294117
0.0265349
0.0241147
0.0220652
0.0203185
0.0188206
0.0175287
0.0164083
0.126509
0.104255
0.0864922
0.0723807
0.0611613
0.052205
0.0450128
0.0391967
0.0344584
0.0305686
0.0273506
0.0246684
0.0224163
0.0205118
0.0188903
0.0175006
0.0163024
0.0152631
0.124267
0.0995604
0.0807712
0.0664676
0.0554886
0.0469631
0.0402594
0.0349228
0.0306248
0.0271258
0.0242488
0.0218611
0.0198626
0.0181762
0.0167426
0.0155152
0.0144575
0.0135405
0.12136
0.0936399
0.0737261
0.0593348
0.0487592
0.0408249
0.0347467
0.0300003
0.0262308
0.0231928
0.0207127
0.018665
0.0169572
0.0155198
0.0142999
0.0132567
0.0123583
0.0115798
0.117686
0.0865903
0.0656967
0.0514791
0.0415374
0.0343608
0.0290184
0.0249322
0.0217348
0.0191848
0.0171184
0.0154211
0.0140106
0.0128263
0.0118229
0.0109657
0.010228
0.00958895
0.11305
0.0784122
0.056921
0.0432687
0.0342296
0.0279652
0.0234365
0.0200435
0.0174263
0.0153597
0.0136966
0.0123369
0.0112106
0.0102671
0.00946866
0.0087872
0.00820103
0.00769347
0.107169
0.0691009
0.0476372
0.035029
0.0271566
0.021922
0.0182437
0.0155401
0.0134817
0.0118706
0.0105816
0.00953197
0.00866487
0.00793966
0.0073267
0.00680379
0.00635415
0.00596495
0.0996761
0.0587036
0.0381279
0.0270699
0.0205782
0.0164329
0.0135949
0.0115438
0.00999922
0.00879908
0.00784341
0.00706755
0.00642791
0.00589357
0.0054423
0.00505733
0.00472648
0.00444011
0.0901097
0.0473665
0.0287363
0.0196847
0.0146976
0.0116312
0.00957853
0.00811528
0.00702331
0.00617994
0.00551057
0.00496792
0.00452115
0.00414809
0.00383337
0.0035644
0.00333375
0.0031339
0.0779076
0.0353826
0.0198606
0.0131383
0.00966107
0.00759298
0.00623352
0.00527429
0.00456399
0.00401882
0.00358698
0.00323605
0.00294731
0.00270564
0.00250269
0.00232746
0.00217867
0.00204917
0.06238
0.0232554
0.0119461
0.00765493
0.00556337
0.00435256
0.00356724
0.00301639
0.00261307
0.00230792
0.00206663
0.00186697
0.00170276
0.00156309
0.00144892
0.0013453
0.00125985
0.00118502
0.0426105
0.0117794
0.0054693
0.00341385
0.00246071
0.00192005
0.00157275
0.00132885
0.00115943
0.00103843
0.000944192
0.000857063
0.000786427
0.000717886
0.000672587
0.000621656
0.000573112
0.00054086
0.0168348
0.00255985
0.00110002
0.000683428
0.000493724
0.000386803
0.000318219
0.000266306
0.000272636
0.000321836
0.000355141
0.000335067
0.000307992
0.000243785
0.000288124
0.000270219
0.000194303
0.000217891
3.99385e-09
5.91176e-07
2.00092e-06
6.28945e-06
1.08027e-05
1.3532e-05
1.32572e-05
1.17922e-05
9.0642e-06
5.94817e-06
3.52416e-06
2.0251e-06
1.41001e-06
1.503e-06
2.06711e-06
2.56604e-06
2.45448e-06
2.06916e-06
2.54282e-06
8.67667e-06
9.02522e-06
5.55426e-06
6.75165e-06
2.65115e-05
5.6752e-05
7.44252e-05
9.09788e-05
0.000104827
0.000117047
0.000127208
0.000136112
0.000143759
0.000150449
0.000156276
0.000161358
0.000165844
0.000169818
0.000173369
0.000176551
0.00017941
0.000181975
0.000184268
0.000186308
0.000188111
0.000189692
0.000191063
0.000192235
0.000193215
0.000194004
0.000194476
0.000194974
0.000195082
0.000195144
0.000195019
0.00019472
0.000194274
0.000193676
0.000192929
0.000192035
0.000190997
0.000189816
0.000188494
0.000187034
0.000185438
0.00018371
0.000181851
0.000179861
0.000177744
0.000175502
0.000173138
0.000170654
0.000168051
0.000165333
0.0001625
0.000159554
0.000156495
0.000153323
0.000150037
0.000146634
0.00014311
0.000139464
0.000135694
0.0001318
0.000127783
0.00012364
0.000119352
0.000114891
0.000110234
0.00010538
0.000100334
9.50566e-05
8.94793e-05
8.36057e-05
7.75424e-05
7.15354e-05
6.62483e-05
6.24921e-05
6.01492e-05
5.83972e-05
5.67911e-05
5.5215e-05
5.36466e-05
5.20844e-05
5.053e-05
4.89854e-05
4.74524e-05
4.59339e-05
4.44359e-05
4.29867e-05
4.17497e-05
4.05457e-05
3.93559e-05
3.81833e-05
3.70287e-05
3.58928e-05
3.47765e-05
3.36806e-05
3.26057e-05
3.15526e-05
3.05215e-05
2.95129e-05
2.85274e-05
2.75653e-05
2.66273e-05
2.57134e-05
2.48233e-05
2.39583e-05
2.31462e-05
2.2412e-05
2.16963e-05
2.09957e-05
2.03183e-05
1.9669e-05
1.9034e-05
1.8413e-05
1.78091e-05
1.72232e-05
1.66555e-05
1.61058e-05
1.55739e-05
1.50591e-05
1.45612e-05
1.40797e-05
1.36141e-05
1.31641e-05
1.27293e-05
1.23092e-05
1.19034e-05
1.15117e-05
1.11336e-05
1.07687e-05
1.04168e-05
1.00774e-05
9.75017e-06
9.43491e-06
9.13128e-06
8.839e-06
8.55784e-06
8.28756e-06
8.02795e-06
7.77882e-06
7.54e-06
7.31131e-06
7.09256e-06
6.88356e-06
6.68405e-06
6.49371e-06
6.3121e-06
6.1387e-06
5.97273e-06
5.81342e-06
5.65915e-06
5.5095e-06
5.35951e-06
5.21376e-06
5.04773e-06
4.89375e-06
4.64738e-06
4.48921e-06
3.59416e-06
1.68172e-07
6.14246e-06
6.3883e-05
0.000139686
0.000183241
0.000207006
0.00021638
0.000214887
0.000206542
0.000189839
0.000169047
0.000148912
0.000138498
0.000143712
0.000157681
0.000166604
0.000169022
0.000170206
0.000175609
0.000185311
0.000200066
0.000217505
0.000234339
0.000250842
0.000262142
0.000272046
0.000280861
0.000293707
0.000312803
0.000326749
0.000339492
0.000350417
0.000360346
0.000369445
0.000377345
0.000384558
0.000391273
0.000397715
0.000404014
0.000410238
0.00041638
0.000422398
0.00042824
0.000433865
0.000439244
0.000444361
0.000449201
0.000453752
0.000458014
0.000461988
0.000465713
0.000469155
0.000472352
0.000475294
0.000477985
0.000480427
0.00048262
0.000484565
0.000486263
0.000487714
0.000488918
0.000489877
0.000490592
0.000491069
0.000491318
0.000491342
0.000491138
0.000490701
0.000490049
0.000489183
0.000488111
0.00048684
0.000485375
0.000483724
0.000481893
0.000479891
0.000477724
0.0004754
0.000472925
0.000470307
0.000467554
0.000464672
0.000461672
0.000458563
0.000455355
0.000452057
0.000448672
0.000445203
0.000441658
0.000438057
0.000434413
0.000430718
0.000426959
0.000423146
0.000419264
0.000415272
0.000411164
0.000406964
0.000402723
0.000398466
0.000394201
0.000389932
0.000385662
0.000381394
0.000377133
0.000372881
0.000368641
0.000364416
0.000360205
0.000356006
0.00035183
0.000347682
0.000343563
0.000339475
0.00033542
0.0003314
0.000327415
0.000323469
0.000319561
0.000315693
0.000311866
0.000308081
0.000304339
0.000300641
0.000296988
0.000293379
0.000289815
0.000286294
0.000282814
0.00027938
0.000275989
0.000272649
0.000269363
0.000266112
0.000262898
0.000259725
0.000256596
0.000253512
0.000250473
0.000247478
0.000244528
0.000241622
0.000238758
0.000235937
0.000233157
0.000230419
0.000227721
0.000225064
0.000222446
0.000219868
0.000217329
0.000214829
0.000212367
0.000209944
0.00020756
0.000205214
0.000202908
0.000200641
0.000198415
0.000196231
0.000194091
0.000191995
0.000189945
0.000187944
0.000185992
0.000184093
0.000182245
0.000180451
0.000178709
0.000177018
0.000175373
0.000173773
0.000172195
0.000170681
0.00016907
0.000167748
0.000165616
0.0001649
0.000162093
0.00016072
7.68597e-07
4.45417e-05
0.000164289
0.000246524
0.000299859
0.000330181
0.00034122
0.000338351
0.000325519
0.000306245
0.00028647
0.000273747
0.000271486
0.000278166
0.000288523
0.000299353
0.000312116
0.00032907
0.00035067
0.000375833
0.000403223
0.000431578
0.000469794
0.000516181
0.000561836
0.000605993
0.000649095
0.000692768
0.000732109
0.000763399
0.000788408
0.000808233
0.000823948
0.000836417
0.000846421
0.000854738
0.000862067
0.000869054
0.000876235
0.000883966
0.000892355
0.000901279
0.000910497
0.000919774
0.000928931
0.00093785
0.000946455
0.000954696
0.000962539
0.000969954
0.00097692
0.000983406
0.00098941
0.000994925
0.00099995
0.00100448
0.00100852
0.00101207
0.00101513
0.00101769
0.00101976
0.00102134
0.00102242
0.00102296
0.00102312
0.00102284
0.00102204
0.0010208
0.00101911
0.00101699
0.00101446
0.00101151
0.00100818
0.00100446
0.00100038
0.00099595
0.000991184
0.000986096
0.000980703
0.000975019
0.000969059
0.000962837
0.000956371
0.000949674
0.000942763
0.000935652
0.000928357
0.000920889
0.000913262
0.00090549
0.000897589
0.000889568
0.000881432
0.000873192
0.000864859
0.000856438
0.000847945
0.000839394
0.000830801
0.000822181
0.000813544
0.000804899
0.000796253
0.000787615
0.000778992
0.00077039
0.000761816
0.000753276
0.000744776
0.000736321
0.000727916
0.000719568
0.000711281
0.000703058
0.000694904
0.000686821
0.000678813
0.000670884
0.000663035
0.000655268
0.000647586
0.000639991
0.000632484
0.000625068
0.000617743
0.00061051
0.00060337
0.000596322
0.000589368
0.000582509
0.000575744
0.000569074
0.000562498
0.000556008
0.000549606
0.000543292
0.000537069
0.000530938
0.000524898
0.000518949
0.00051309
0.00050732
0.000501639
0.000496044
0.000490535
0.000485112
0.000479771
0.000474513
0.000469337
0.00046424
0.000459223
0.000454284
0.000449421
0.000444634
0.000439922
0.000435284
0.000430718
0.000426223
0.000421799
0.000417443
0.000413154
0.000408932
0.000404773
0.000400676
0.000396638
0.000392657
0.000388727
0.000384843
0.000381
0.000377188
0.000373394
0.000369606
0.000365797
0.00036195
0.000357991
0.000353951
0.000349469
0.000345076
0.000338585
0.000327126
5.07082e-07
8.12898e-05
0.000212972
0.000309207
0.000372991
0.000410404
0.000425978
0.000426369
0.000416357
0.000402954
0.000394797
0.00039396
0.000403187
0.000420398
0.000443154
0.000470909
0.000504263
0.000543574
0.000588031
0.000650269
0.000724134
0.000803926
0.000888189
0.00095885
0.00102128
0.0010774
0.00112782
0.00117272
0.00121199
0.00124587
0.00127512
0.00130045
0.00132257
0.00134211
0.00135965
0.00137567
0.0013906
0.00140476
0.00141842
0.00143177
0.00144494
0.00145799
0.00147095
0.00148381
0.0014965
0.00150896
0.00152109
0.0015328
0.00154399
0.00155459
0.00156454
0.00157382
0.00158239
0.00159025
0.00159739
0.0016038
0.00160947
0.00161441
0.00161861
0.00162207
0.00162479
0.00162677
0.00162793
0.00162837
0.00162824
0.00162733
0.0016257
0.00162338
0.00162038
0.00161673
0.00161243
0.00160751
0.00160199
0.00159589
0.00158923
0.00158204
0.00157433
0.00156614
0.00155747
0.00154836
0.00153883
0.0015289
0.0015186
0.00150795
0.00149696
0.00148567
0.0014741
0.00146226
0.00145018
0.00143788
0.00142538
0.0014127
0.00139985
0.00138685
0.00137372
0.00136047
0.00134712
0.00133369
0.0013202
0.00130666
0.0012931
0.00127953
0.00126596
0.0012524
0.00123886
0.00122536
0.0012119
0.0011985
0.00118516
0.00117189
0.0011587
0.0011456
0.00113259
0.00111969
0.00110689
0.0010942
0.00108163
0.00106918
0.00105685
0.00104465
0.00103259
0.00102066
0.00100886
0.000997208
0.000985695
0.000974324
0.000963097
0.000952015
0.000941077
0.000930287
0.000919642
0.000909144
0.000898789
0.000888573
0.000878495
0.000868557
0.00085876
0.000849104
0.000839588
0.000830213
0.000820977
0.000811878
0.000802916
0.000794088
0.000785393
0.000776829
0.000768394
0.000760087
0.000751906
0.000743849
0.000735913
0.000728098
0.000720402
0.000712822
0.000705357
0.000698006
0.000690765
0.000683634
0.000676609
0.00066969
0.000662873
0.000656156
0.000649536
0.00064301
0.000636573
0.00063022
0.000623946
0.000617742
0.0006116
0.000605507
0.000599446
0.000593397
0.000587329
0.000581206
0.000574963
0.000568544
0.000561767
0.000554575
0.000546333
0.000530143
1.49345e-06
0.000102059
0.000235125
0.000355062
0.000433979
0.000481488
0.000505126
0.000513595
0.00051517
0.000516158
0.000523038
0.0005392
0.000565258
0.000600245
0.000643373
0.000694657
0.000754743
0.000838164
0.000933838
0.00103006
0.00111907
0.00120346
0.00128281
0.00135551
0.00142227
0.00148368
0.00154015
0.001592
0.0016396
0.00168337
0.0017238
0.00176137
0.0017965
0.00182958
0.00186091
0.00189076
0.0019193
0.00194669
0.00197301
0.00199834
0.0020227
0.00204611
0.00206856
0.00209002
0.00211049
0.00212992
0.00214829
0.00216556
0.00218172
0.00219674
0.00221062
0.00222334
0.00223494
0.00224541
0.00225478
0.00226306
0.00227028
0.00227644
0.00228157
0.00228568
0.00228877
0.00229082
0.00229174
0.00229183
0.00229095
0.00228907
0.00228624
0.00228247
0.00227778
0.0022722
0.00226575
0.00225847
0.00225037
0.00224149
0.00223186
0.00222151
0.00221046
0.00219876
0.00218643
0.0021735
0.00216
0.00214597
0.00213143
0.00211643
0.00210097
0.00208511
0.00206886
0.00205227
0.00203535
0.00201813
0.00200065
0.00198292
0.00196498
0.00194684
0.00192853
0.00191008
0.0018915
0.00187282
0.00185406
0.00183525
0.00181641
0.00179755
0.00177869
0.00175985
0.00174105
0.0017223
0.00170361
0.001685
0.00166648
0.00164805
0.00162974
0.00161155
0.00159349
0.00157557
0.0015578
0.00154018
0.00152272
0.00150543
0.00148831
0.00147136
0.0014546
0.00143802
0.00142163
0.00140543
0.00138943
0.00137361
0.001358
0.00134258
0.00132736
0.00131235
0.00129753
0.00128291
0.00126848
0.00125425
0.00124021
0.00122637
0.00121271
0.00119925
0.00118598
0.0011729
0.00116001
0.00114731
0.00113479
0.00112246
0.00111031
0.00109833
0.00108653
0.00107491
0.00106345
0.00105217
0.00104105
0.00103009
0.00101929
0.00100866
0.000998175
0.000987845
0.000977666
0.000967635
0.000957748
0.000948004
0.000938397
0.000928926
0.000919586
0.000910372
0.00090128
0.000892303
0.000883433
0.000874663
0.000865979
0.000857367
0.000848809
0.000840278
0.000831742
0.000823157
0.000814454
0.000805563
0.00079632
0.000786576
0.000776608
0.000756788
2.27171e-06
0.000118203
0.00025637
0.000390155
0.000487244
0.000549163
0.000587028
0.000610493
0.000628252
0.000647577
0.000673722
0.000709335
0.000755153
0.000811449
0.000878627
0.000969132
0.00107427
0.00117599
0.00127521
0.00137071
0.00146141
0.00154741
0.00162865
0.00170511
0.00177707
0.00184489
0.00190891
0.00196946
0.00202687
0.00208148
0.0021336
0.00218353
0.00223151
0.00227776
0.00232243
0.00236564
0.00240749
0.00244803
0.00248728
0.00252527
0.00256198
0.0025974
0.00263149
0.00266423
0.00269557
0.00272547
0.0027539
0.00278081
0.00280616
0.00282993
0.00285209
0.00287261
0.00289147
0.00290868
0.00292422
0.00293808
0.00295028
0.00296082
0.00296971
0.00297698
0.00298263
0.00298672
0.00298914
0.00299004
0.00298958
0.00298761
0.00298427
0.00297956
0.00297356
0.00296631
0.00295786
0.00294827
0.00293758
0.00292586
0.00291314
0.00289947
0.00288491
0.00286949
0.00285327
0.00283628
0.00281857
0.00280017
0.00278114
0.00276151
0.00274132
0.00272061
0.00269942
0.00267779
0.00265576
0.00263336
0.00261063
0.0025876
0.00256431
0.00254078
0.00251704
0.00249313
0.00246908
0.0024449
0.00242064
0.00239632
0.00237196
0.00234758
0.00232322
0.00229888
0.0022746
0.00225038
0.00222625
0.00220222
0.0021783
0.00215452
0.00213088
0.0021074
0.00208408
0.00206095
0.002038
0.00201525
0.00199271
0.00197038
0.00194827
0.00192639
0.00190474
0.00188332
0.00186214
0.00184121
0.00182052
0.00180008
0.00177988
0.00175994
0.00174026
0.00172082
0.00170164
0.00168271
0.00166403
0.0016456
0.00162741
0.00160947
0.00159177
0.00157432
0.0015571
0.00154013
0.0015234
0.0015069
0.00149064
0.00147461
0.00145881
0.00144323
0.00142787
0.00141274
0.00139781
0.0013831
0.0013686
0.00135431
0.00134022
0.00132632
0.00131262
0.00129912
0.0012858
0.00127267
0.00125972
0.00124695
0.00123435
0.00122192
0.00120966
0.00119756
0.00118561
0.00117381
0.00116215
0.00115062
0.0011392
0.00112788
0.00111664
0.00110545
0.00109428
0.00108307
0.00107177
0.00106029
0.00104848
0.00103626
0.00102408
0.0010016
2.80557e-06
0.000126821
0.000269281
0.000407729
0.000526504
0.000608041
0.000664247
0.000706257
0.000743316
0.000782689
0.000829433
0.000886498
0.000955507
0.00104784
0.00115484
0.00126145
0.00136756
0.00147092
0.001571
0.00166735
0.00175975
0.00184819
0.00193275
0.00201361
0.002091
0.0021652
0.00223647
0.0023051
0.00237134
0.00243541
0.00249754
0.0025579
0.00261663
0.00267386
0.00272967
0.00278411
0.00283723
0.00288903
0.00293951
0.00298864
0.00303641
0.00308277
0.00312768
0.00317109
0.00321295
0.0032532
0.00329179
0.00332868
0.0033638
0.00339712
0.00342858
0.00345816
0.00348582
0.00351152
0.00353524
0.00355696
0.00357667
0.00359436
0.00361001
0.00362363
0.00363523
0.00364481
0.00365239
0.00365801
0.00366166
0.00366328
0.00366319
0.0036612
0.00365743
0.00365191
0.0036447
0.00363586
0.00362545
0.00361351
0.00360013
0.00358536
0.00356927
0.00355193
0.0035334
0.00351375
0.00349305
0.00347136
0.00344876
0.0034253
0.00340105
0.00337607
0.00335043
0.00332417
0.00329737
0.00327006
0.00324231
0.00321415
0.00318565
0.00315683
0.00312775
0.00309844
0.00306894
0.00303929
0.00300952
0.00297967
0.00294977
0.00291985
0.00288994
0.00286006
0.00283023
0.00280049
0.00277085
0.00274133
0.00271195
0.00268273
0.00265368
0.00262482
0.00259617
0.00256773
0.00253953
0.00251156
0.00248384
0.00245638
0.00242918
0.00240226
0.00237561
0.00234925
0.00232318
0.0022974
0.00227192
0.00224674
0.00222186
0.00219728
0.00217301
0.00214904
0.00212537
0.00210201
0.00207895
0.00205619
0.00203372
0.00201155
0.00198968
0.0019681
0.00194681
0.0019258
0.00190509
0.00188466
0.00186451
0.00184464
0.00182504
0.00180571
0.00178665
0.00176785
0.00174931
0.00173103
0.00171299
0.0016952
0.00167766
0.00166035
0.00164328
0.00162645
0.00160984
0.00159345
0.00157728
0.00156132
0.00154558
0.00153004
0.00151471
0.00149956
0.00148461
0.00146983
0.00145523
0.00144078
0.00142649
0.00141232
0.00139825
0.00138427
0.00137032
0.00135637
0.00134235
0.00132818
0.0013137
0.00129895
0.00128394
0.00125969
2.94247e-06
0.000128735
0.00027067
0.000407308
0.00053811
0.00064178
0.000719045
0.000780499
0.000836305
0.000894163
0.000961771
0.00105374
0.00116338
0.00128511
0.00140069
0.00151196
0.0016198
0.00172437
0.00182563
0.0019235
0.002018
0.0021092
0.00219726
0.00228236
0.00236471
0.00244454
0.00252208
0.00259754
0.0026711
0.00274294
0.0028132
0.002882
0.00294943
0.00301556
0.00308042
0.00314404
0.00320641
0.00326752
0.00332735
0.00338584
0.00344297
0.00349866
0.00355286
0.00360551
0.00365654
0.00370589
0.0037535
0.00379929
0.00384321
0.0038852
0.0039252
0.00396317
0.00399905
0.00403281
0.00406441
0.0040938
0.00412098
0.00414591
0.00416858
0.00418898
0.00420711
0.00422296
0.00423654
0.00424787
0.00425696
0.00426383
0.00426855
0.004271
0.00427144
0.00426979
0.00426612
0.00426048
0.00425291
0.00424349
0.00423225
0.00421928
0.00420463
0.00418838
0.00417058
0.00415131
0.00413065
0.00410865
0.00408541
0.00406098
0.00403544
0.00400886
0.00398132
0.00395287
0.0039236
0.00389357
0.00386284
0.00383148
0.00379955
0.0037671
0.00373421
0.00370091
0.00366727
0.00363333
0.00359915
0.00356477
0.00353025
0.00349561
0.0034609
0.00342617
0.00339143
0.00335673
0.0033221
0.00328756
0.00325314
0.00321887
0.00318477
0.00315085
0.00311715
0.00308367
0.00305043
0.00301745
0.00298474
0.00295231
0.00292017
0.00288834
0.00285682
0.00282561
0.00279473
0.00276419
0.00273398
0.0027041
0.00267457
0.00264539
0.00261655
0.00258806
0.00255992
0.00253213
0.00250468
0.00247757
0.00245081
0.00242439
0.00239831
0.00237257
0.00234716
0.00232209
0.00229735
0.00227293
0.00224884
0.00222508
0.00220162
0.00217848
0.00215565
0.00213313
0.0021109
0.00208897
0.00206733
0.00204598
0.00202492
0.00200413
0.00198361
0.00196337
0.00194339
0.00192367
0.00190421
0.00188499
0.00186603
0.00184731
0.00182882
0.00181056
0.00179253
0.00177471
0.00175709
0.00173967
0.00172242
0.00170533
0.00168837
0.00167153
0.00165475
0.00163799
0.00162118
0.00160425
0.00158705
0.00156965
0.00155171
0.00152557
2.7594e-06
0.000125269
0.000264044
0.000395769
0.000520541
0.000633074
0.000727062
0.000808269
0.000891337
0.000986687
0.00109594
0.00122064
0.00135705
0.00148457
0.00160488
0.0017199
0.00183062
0.00193739
0.00204054
0.00214042
0.00223725
0.00233122
0.00242254
0.0025114
0.00259802
0.0026826
0.00276532
0.00284637
0.0029259
0.00300402
0.00308086
0.00315649
0.00323097
0.00330432
0.00337657
0.0034477
0.0035177
0.00358653
0.00365413
0.00372046
0.00378544
0.00384902
0.0039111
0.00397162
0.0040305
0.00408766
0.00414302
0.00419652
0.00424806
0.0042976
0.00434505
0.00439037
0.00443349
0.00447436
0.00451294
0.00454919
0.00458306
0.00461455
0.00464361
0.00467023
0.00469441
0.00471614
0.00473542
0.00475225
0.00476665
0.00477864
0.00478825
0.00479548
0.00480041
0.00480298
0.00480337
0.00480155
0.00479759
0.00479152
0.00478342
0.00477334
0.00476134
0.00474749
0.00473185
0.00471449
0.00469548
0.00467489
0.0046528
0.00462927
0.00460439
0.00457822
0.00455083
0.0045223
0.00449271
0.00446211
0.00443059
0.0043982
0.00436502
0.00433112
0.00429655
0.00426138
0.00422567
0.00418948
0.00415287
0.0041159
0.00407861
0.00404106
0.00400331
0.00396538
0.00392734
0.00388922
0.00385106
0.00381289
0.00377476
0.0037367
0.00369873
0.00366088
0.00362319
0.00358567
0.00354836
0.00351126
0.0034744
0.0034378
0.00340148
0.00336544
0.00332971
0.00329429
0.00325919
0.00322443
0.00319001
0.00315593
0.00312222
0.00308886
0.00305586
0.00302324
0.00299098
0.00295909
0.00292757
0.00289643
0.00286566
0.00283525
0.00280522
0.00277555
0.00274625
0.00271732
0.00268875
0.00266054
0.00263268
0.00260518
0.00257804
0.00255124
0.00252478
0.00249866
0.00247288
0.00244743
0.0024223
0.00239749
0.00237301
0.00234883
0.00232497
0.00230141
0.00227815
0.00225518
0.00223251
0.00221012
0.00218801
0.00216617
0.0021446
0.0021233
0.00210225
0.00208144
0.00206088
0.00204053
0.00202039
0.00200044
0.00198065
0.00196099
0.00194142
0.00192189
0.00190234
0.00188269
0.0018628
0.00184274
0.00182199
0.00179366
2.34435e-06
0.000117989
0.000252848
0.000380973
0.000503946
0.000620482
0.000731377
0.000840493
0.000955427
0.00108133
0.00121946
0.00136924
0.00151156
0.00164355
0.00176782
0.00188625
0.00199997
0.00210962
0.00221559
0.00231807
0.00241748
0.00251419
0.00260849
0.00270065
0.00279089
0.00287942
0.00296641
0.00305203
0.0031364
0.00321964
0.00330183
0.00338303
0.00346327
0.00354257
0.00362091
0.00369828
0.00377463
0.00384991
0.00392405
0.00399698
0.00406862
0.00413889
0.0042077
0.00427495
0.00434056
0.00440444
0.00446649
0.00452664
0.00458479
0.00464087
0.0046948
0.00474652
0.00479596
0.00484305
0.00488776
0.00493003
0.00496981
0.00500709
0.00504182
0.00507399
0.00510359
0.0051306
0.00515502
0.00517686
0.00519612
0.00521282
0.00522699
0.00523864
0.00524782
0.00525454
0.00525886
0.00526079
0.00526045
0.00525784
0.00525303
0.00524606
0.00523701
0.00522593
0.00521289
0.00519795
0.00518119
0.00516267
0.00514247
0.00512065
0.00509729
0.00507246
0.00504624
0.00501869
0.00498989
0.00495992
0.00492883
0.00489671
0.00486361
0.00482962
0.00479478
0.00475918
0.00472287
0.00468591
0.00464838
0.00461032
0.0045718
0.00453287
0.00449359
0.004454
0.00441416
0.00437412
0.00433391
0.00429358
0.00425317
0.00421273
0.00417228
0.00413186
0.0040915
0.00405125
0.00401111
0.00397112
0.00393131
0.0038917
0.0038523
0.00381314
0.00377424
0.00373561
0.00369727
0.00365923
0.00362151
0.00358411
0.00354704
0.00351032
0.00347395
0.00343794
0.00340228
0.003367
0.00333208
0.00329754
0.00326337
0.00322958
0.00319616
0.00316312
0.00313046
0.00309817
0.00306626
0.00303473
0.00300356
0.00297277
0.00294235
0.0029123
0.00288261
0.00285327
0.0028243
0.00279568
0.0027674
0.00273947
0.00271188
0.00268463
0.00265772
0.00263113
0.00260486
0.00257892
0.00255329
0.00252798
0.00250297
0.00247826
0.00245385
0.00242973
0.00240588
0.00238231
0.002359
0.00233594
0.00231311
0.00229049
0.00226806
0.00224578
0.00222361
0.0022015
0.00217939
0.00215719
0.00213479
0.00211221
0.00208891
0.00205825
1.92687e-06
0.000110308
0.000242563
0.000369908
0.000495649
0.000620082
0.000745012
0.000874507
0.00101188
0.00115921
0.00131665
0.00147845
0.00162627
0.00176272
0.00189083
0.00201259
0.00212929
0.00224173
0.00235047
0.00245588
0.00255827
0.00265783
0.002755
0.00285014
0.00294352
0.0030354
0.00312596
0.00321536
0.00330375
0.00339121
0.00347782
0.00356363
0.00364866
0.00373291
0.00381636
0.00389896
0.00398067
0.00406141
0.0041411
0.00421966
0.004297
0.00437301
0.00444759
0.00452065
0.00459207
0.00466176
0.00472962
0.00479554
0.00485944
0.00492123
0.00498083
0.00503815
0.00509313
0.0051457
0.0051958
0.00524338
0.00528839
0.00533081
0.00537058
0.0054077
0.00544213
0.00547388
0.00550293
0.00552929
0.00555297
0.00557397
0.00559232
0.00560804
0.00562116
0.00563172
0.00563975
0.00564529
0.0056484
0.00564913
0.00564752
0.00564364
0.00563755
0.0056293
0.00561897
0.0056066
0.00559228
0.00557606
0.00555803
0.00553825
0.00551679
0.00549373
0.00546914
0.00544309
0.00541566
0.0053869
0.00535691
0.00532573
0.00529346
0.00526014
0.00522585
0.00519066
0.00515463
0.00511782
0.0050803
0.00504213
0.00500337
0.00496408
0.0049243
0.00488411
0.00484354
0.00480265
0.00476149
0.00472009
0.00467852
0.0046368
0.00459498
0.00455309
0.00451118
0.00446927
0.0044274
0.0043856
0.0043439
0.00430233
0.0042609
0.00421965
0.00417859
0.00413775
0.00409714
0.00405679
0.0040167
0.00397689
0.00393738
0.00389818
0.00385929
0.00382073
0.0037825
0.00374462
0.00370709
0.0036699
0.00363308
0.00359662
0.00356052
0.00352479
0.00348943
0.00345444
0.00341982
0.00338558
0.0033517
0.0033182
0.00328507
0.00325231
0.00321992
0.00318789
0.00315622
0.00312492
0.00309397
0.00306338
0.00303314
0.00300325
0.00297371
0.00294451
0.00291565
0.00288712
0.00285893
0.00283106
0.00280352
0.00277629
0.00274938
0.00272277
0.00269647
0.00267045
0.00264472
0.00261925
0.00259403
0.00256905
0.00254427
0.00251966
0.00249518
0.00247078
0.00244639
0.00242194
0.00239732
0.00237252
0.00234701
0.0023142
1.54348e-06
0.000102167
0.000232072
0.000359053
0.000487721
0.00061899
0.000755525
0.00089924
0.00105187
0.00121393
0.00138596
0.00155194
0.00170373
0.00184405
0.00197566
0.00210054
0.00222004
0.0023351
0.00244637
0.00255435
0.00265943
0.0027619
0.00286205
0.00296005
0.00305634
0.0031512
0.00324486
0.00333753
0.00342933
0.00352038
0.00361075
0.00370048
0.00378958
0.00387804
0.00396583
0.00405291
0.0041392
0.00422463
0.00430909
0.0043925
0.00447475
0.00455573
0.00463531
0.0047134
0.00478987
0.00486462
0.00493753
0.0050085
0.00507742
0.00514421
0.00520877
0.00527101
0.00533087
0.00538826
0.00544313
0.00549542
0.00554508
0.00559206
0.00563634
0.00567788
0.00571666
0.00575268
0.00578592
0.00581638
0.00584407
0.00586901
0.00589121
0.00591069
0.00592748
0.00594161
0.00595312
0.00596206
0.00596847
0.00597239
0.00597388
0.00597301
0.00596985
0.00596441
0.00595679
0.00594704
0.00593523
0.00592143
0.00590571
0.00588813
0.00586878
0.00584772
0.00582503
0.00580077
0.00577502
0.00574785
0.00571933
0.00568953
0.00565851
0.00562635
0.00559311
0.00555886
0.00552367
0.00548759
0.0054507
0.00541305
0.00537471
0.00533573
0.00529617
0.00525609
0.00521553
0.00517455
0.0051332
0.00509153
0.00504958
0.0050074
0.00496502
0.00492249
0.00487985
0.00483713
0.00479437
0.0047516
0.00470886
0.00466616
0.00462355
0.00458104
0.00453866
0.00449643
0.00445438
0.00441253
0.00437088
0.00432947
0.00428831
0.0042474
0.00420677
0.00416643
0.00412638
0.00408664
0.00404721