/*--------------------------------*- C++ -*----------------------------------*\
  =========                 |
  \\      /  F ield         | OpenFOAM: The Open Source CFD Toolbox
   \\    /   O peration     | Website:  https://openfoam.org
    \\  /    A nd           | Version:  8
     \\/     M anipulation  |
\*---------------------------------------------------------------------------*/
FoamFile
{
    version     2.0;
    format      ascii;
    class       surfaceScalarField;
    location    "3400";
    object      phi;
}
// * * * * * * * * * * * * * * * * * * * * * * * * * * * * * * * * * * * * * //

dimensions      [0 3 -1 0 0 0 0];

internalField   nonuniform List<scalar> 
24170
(
3.92539e-06
-7.91498e-07
3.76465e-06
1.6075e-07
3.63345e-06
1.31209e-07
3.43331e-06
2.00144e-07
3.28028e-06
1.53027e-07
3.18901e-06
9.11905e-08
3.13091e-06
5.81104e-08
3.08609e-06
4.58912e-08
3.04612e-06
4.23233e-08
3.01059e-06
3.81625e-08
2.97876e-06
3.38022e-08
2.94904e-06
3.07702e-08
2.92187e-06
2.73779e-08
2.89642e-06
2.52002e-08
2.87227e-06
2.36056e-08
2.85193e-06
1.94844e-08
2.84097e-06
9.85745e-09
-6.37486e-09
2.84668e-06
3.58445e-06
-9.19499e-07
3.80424e-06
-5.90413e-08
3.74282e-06
1.92629e-07
3.6906e-06
2.52374e-07
3.63729e-06
2.06333e-07
3.59023e-06
1.3828e-07
3.55289e-06
9.55996e-08
3.52309e-06
7.56597e-08
3.49853e-06
6.65696e-08
3.47732e-06
5.92151e-08
3.45871e-06
5.25293e-08
3.44253e-06
4.72647e-08
3.42795e-06
4.23381e-08
3.41466e-06
3.87868e-08
3.40269e-06
3.57308e-08
3.39122e-06
3.10532e-08
3.38036e-06
2.08431e-08
4.78309e-09
3.36944e-06
3.68518e-06
-7.92482e-07
3.83639e-06
-2.10251e-07
3.91494e-06
1.14082e-07
3.94502e-06
2.22293e-07
3.94408e-06
2.07264e-07
3.92749e-06
1.54897e-07
3.90755e-06
1.15615e-07
3.88932e-06
9.36445e-08
3.874e-06
8.11966e-08
3.86056e-06
7.1916e-08
3.84834e-06
6.42562e-08
3.83728e-06
5.81356e-08
3.82691e-06
5.27796e-08
3.8174e-06
4.84758e-08
3.80891e-06
4.44346e-08
3.80097e-06
3.92549e-08
3.79195e-06
3.02092e-08
1.77997e-08
3.77944e-06
4.05359e-06
-6.4151e-07
4.1146e-06
-2.71259e-07
4.20799e-06
2.06916e-08
4.26635e-06
1.63932e-07
4.29069e-06
1.82926e-07
4.29287e-06
1.52749e-07
4.28571e-06
1.22819e-07
4.27631e-06
1.02843e-07
4.26727e-06
8.96864e-08
4.25873e-06
7.98178e-08
4.25056e-06
7.195e-08
4.24283e-06
6.56353e-08
4.23534e-06
6.0247e-08
4.22823e-06
5.56941e-08
4.22149e-06
5.13537e-08
4.21464e-06
4.63471e-08
4.20599e-06
3.9186e-08
3.06623e-08
4.19351e-06
4.50491e-06
-5.09114e-07
4.51536e-06
-2.81708e-07
4.58529e-06
-4.92342e-08
4.64665e-06
1.02566e-07
4.68258e-06
1.46992e-07
4.69688e-06
1.38473e-07
4.69946e-06
1.20237e-07
4.69723e-06
1.04926e-07
4.69331e-06
9.32554e-08
4.68868e-06
8.40578e-08
4.68366e-06
7.66425e-08
4.67851e-06
7.06088e-08
4.67321e-06
6.54954e-08
4.66783e-06
6.1107e-08
4.66227e-06
5.70065e-08
4.65606e-06
5.27052e-08
4.64786e-06
4.75934e-08
4.26079e-08
4.63612e-06
5.00014e-06
-3.94663e-07
4.98614e-06
-2.67704e-07
5.03069e-06
-9.3779e-08
5.08506e-06
4.81979e-08
5.12454e-06
1.07517e-07
5.14608e-06
1.1694e-07
5.15584e-06
1.10489e-07
5.1594e-06
1.01285e-07
5.15985e-06
9.26082e-08
5.15859e-06
8.50842e-08
5.15629e-06
7.87437e-08
5.15333e-06
7.34436e-08
5.14984e-06
6.89349e-08
5.14589e-06
6.50651e-08
5.14136e-06
6.15885e-08
5.13584e-06
5.83116e-08
5.12839e-06
5.5151e-08
5.30541e-08
5.11808e-06
5.54382e-06
-2.97475e-07
5.51664e-06
-2.40529e-07
5.54055e-06
-1.17686e-07
5.58388e-06
4.87034e-09
5.62166e-06
6.97344e-08
5.64656e-06
9.20462e-08
5.66107e-06
9.59686e-08
5.66906e-06
9.32475e-08
5.67315e-06
8.84248e-08
5.67481e-06
8.33018e-08
5.6749e-06
7.85526e-08
5.6739e-06
7.43766e-08
5.67204e-06
7.0767e-08
5.6694e-06
6.76974e-08
5.66591e-06
6.51015e-08
5.66127e-06
6.29903e-08
5.65494e-06
6.15496e-08
6.15349e-08
5.6465e-06
4.34788e-06
-2.39242e-07
4.32251e-06
-2.15162e-07
4.33078e-06
-1.25951e-07
4.35419e-06
-1.85363e-08
4.3784e-06
4.5526e-08
4.39646e-06
7.3985e-08
4.40841e-06
8.4023e-08
4.41597e-06
8.5674e-08
4.42059e-06
8.37682e-08
4.42325e-06
8.05983e-08
4.42456e-06
7.71974e-08
4.4249e-06
7.40038e-08
4.42446e-06
7.11813e-08
4.42334e-06
6.88117e-08
4.42151e-06
6.69386e-08
4.41885e-06
6.5673e-08
4.41514e-06
6.52712e-08
6.63515e-08
4.41035e-06
5.08621e-06
-1.85599e-07
5.05777e-06
-1.86718e-07
5.0584e-06
-1.26578e-07
5.07686e-06
-3.70024e-08
5.09918e-06
2.32141e-08
5.11773e-06
5.54363e-08
5.13124e-06
7.05072e-08
5.14059e-06
7.63171e-08
5.14686e-06
7.74761e-08
5.15094e-06
7.64978e-08
5.15344e-06
7.4677e-08
5.15477e-06
7.26673e-08
5.15514e-06
7.0798e-08
5.15468e-06
6.92656e-08
5.15341e-06
6.82117e-08
5.15128e-06
6.78152e-08
5.14821e-06
6.83526e-08
7.02744e-08
5.14429e-06
5.94839e-06
-1.38193e-07
5.91832e-06
-1.56649e-07
5.91161e-06
-1.19866e-07
5.924e-06
-4.93967e-08
5.94286e-06
4.35873e-09
5.96058e-06
3.77169e-08
5.97479e-06
5.62914e-08
5.98546e-06
6.56468e-08
5.9932e-06
6.97362e-08
5.99867e-06
7.10179e-08
6.00242e-06
7.09162e-08
6.00484e-06
7.02406e-08
6.00618e-06
6.9459e-08
6.00657e-06
6.88684e-08
6.0061e-06
6.86891e-08
6.00478e-06
6.9137e-08
6.00267e-06
7.04633e-08
7.29773e-08
5.99997e-06
6.95439e-06
-9.8313e-08
6.92401e-06
-1.26278e-07
6.91113e-06
-1.06984e-07
6.9168e-06
-5.50657e-08
6.93087e-06
-9.71033e-09
6.94635e-06
2.22396e-08
6.96015e-06
4.24931e-08
6.9714e-06
5.43966e-08
6.98017e-06
6.09619e-08
6.98684e-06
6.43482e-08
6.9918e-06
6.59559e-08
6.99537e-06
6.66654e-08
6.9978e-06
6.70314e-08
6.99924e-06
6.7425e-08
6.99982e-06
6.81143e-08
6.99963e-06
6.93255e-08
6.99883e-06
7.12686e-08
7.41304e-08
6.99768e-06
8.12719e-06
-6.64877e-08
8.09793e-06
-9.7021e-08
8.08056e-06
-8.96089e-08
8.07955e-06
-5.40586e-08
8.08793e-06
-1.80892e-08
8.09985e-06
1.0323e-08
8.11198e-06
3.03592e-08
8.12286e-06
4.35225e-08
8.13202e-06
5.17959e-08
8.1395e-06
5.68684e-08
8.14548e-06
5.99761e-08
8.15018e-06
6.19707e-08
8.15378e-06
6.3432e-08
8.15644e-06
6.47578e-08
8.15832e-06
6.62343e-08
8.15958e-06
6.80751e-08
8.1604e-06
7.04419e-08
7.34399e-08
8.16109e-06
9.49368e-06
-4.24387e-08
9.4668e-06
-7.01428e-08
9.44683e-06
-6.96402e-08
9.43991e-06
-4.71317e-08
9.44229e-06
-2.04677e-08
9.44965e-06
2.95569e-09
9.45895e-06
2.10648e-08
9.4684e-06
3.40709e-08
9.47716e-06
4.30368e-08
9.48491e-06
4.91212e-08
9.49159e-06
5.32942e-08
9.49727e-06
5.62922e-08
9.50205e-06
5.8647e-08
9.50607e-06
6.07389e-08
9.50947e-06
6.28349e-08
9.51243e-06
6.51209e-08
9.51515e-06
6.77153e-08
7.06713e-08
9.51792e-06
1.10854e-05
-2.5159e-08
1.10618e-05
-4.65026e-08
1.1041e-05
-4.88067e-08
1.10294e-05
-3.55515e-08
1.10261e-05
-1.71696e-08
1.10284e-05
6.05171e-10
1.1034e-05
1.5475e-08
1.10411e-05
2.69712e-08
1.10487e-05
3.54922e-08
1.10561e-05
4.17163e-08
1.1063e-05
4.63139e-08
1.10695e-05
4.98435e-08
1.10754e-05
5.27353e-08
1.10808e-05
5.53035e-08
1.10859e-05
5.77683e-08
1.10908e-05
6.02734e-08
1.10956e-05
6.28994e-08
6.56694e-08
1.11006e-05
1.29396e-05
-1.31186e-08
1.29194e-05
-2.62786e-08
1.28988e-05
-2.82519e-08
1.28839e-05
-2.06876e-08
1.28758e-05
-8.99564e-09
1.28732e-05
3.14508e-09
1.28748e-05
1.39403e-08
1.28789e-05
2.27888e-08
1.28847e-05
2.9745e-08
1.28913e-05
3.51437e-08
1.28982e-05
3.9384e-08
1.29052e-05
4.28288e-08
1.29122e-05
4.57704e-08
1.29191e-05
4.84256e-08
1.29259e-05
5.09436e-08
1.29327e-05
5.3416e-08
1.29398e-05
5.58859e-08
5.83562e-08
1.29471e-05
1.50998e-05
-4.48307e-09
1.50822e-05
-8.67608e-09
1.50621e-05
-8.1136e-09
1.50448e-05
-3.45824e-09
1.50327e-05
3.10965e-09
1.50259e-05
9.93869e-09
1.50237e-05
1.61619e-08
1.5025e-05
2.14644e-08
1.50289e-05
2.58535e-08
1.50346e-05
2.9485e-08
1.50414e-05
3.25549e-08
1.5049e-05
3.52435e-08
1.50571e-05
3.76943e-08
1.50655e-05
4.00083e-08
1.50742e-05
4.22483e-08
1.50832e-05
4.44435e-08
1.50925e-05
4.65965e-08
4.86889e-08
1.51021e-05
1.76171e-05
2.89313e-09
1.75999e-05
8.52294e-09
1.75787e-05
1.30294e-08
1.7559e-05
1.62775e-08
1.75436e-05
1.84721e-08
1.75336e-05
1.99572e-08
1.75287e-05
2.10516e-08
1.75282e-05
2.1993e-08
1.75311e-05
2.29391e-08
1.75366e-05
2.39851e-08
1.7544e-05
2.51771e-08
1.75527e-05
2.65281e-08
1.75624e-05
2.80265e-08
1.75727e-05
2.96472e-08
1.75836e-05
3.13533e-08
1.7595e-05
3.31039e-08
1.76067e-05
3.48529e-08
3.65558e-08
1.76188e-05
1.78181e-05
1.10003e-08
1.77994e-05
2.72123e-08
1.77768e-05
3.56237e-08
1.7756e-05
3.70578e-08
1.77402e-05
3.43252e-08
1.77302e-05
2.99452e-08
1.77257e-05
2.54986e-08
1.7726e-05
2.17764e-08
1.77298e-05
1.90734e-08
1.77364e-05
1.73986e-08
1.7745e-05
1.66316e-08
1.77549e-05
1.6603e-08
1.77658e-05
1.71421e-08
1.77773e-05
1.80907e-08
1.77894e-05
1.9317e-08
1.78018e-05
2.07067e-08
1.78144e-05
2.21708e-08
2.36331e-08
1.78274e-05
1.58702e-05
2.21333e-08
1.58478e-05
4.95811e-08
1.58233e-05
6.01317e-08
1.58032e-05
5.72337e-08
1.57899e-05
4.76092e-08
1.57834e-05
3.63699e-08
1.57827e-05
2.61954e-08
1.57864e-05
1.81441e-08
1.57931e-05
1.23626e-08
1.58019e-05
8.61001e-09
1.5812e-05
6.49523e-09
1.5823e-05
5.62865e-09
1.58345e-05
5.66636e-09
1.58462e-05
6.3325e-09
1.58581e-05
7.40572e-09
1.58701e-05
8.72225e-09
1.58821e-05
1.01534e-08
1.161e-08
1.58942e-05
1.41313e-05
3.95386e-08
1.41021e-05
7.87066e-08
1.40745e-05
8.77873e-08
1.40557e-05
7.60375e-08
1.40469e-05
5.64121e-08
1.40462e-05
3.70378e-08
1.40512e-05
2.12079e-08
1.40597e-05
9.57946e-09
1.40704e-05
1.75962e-09
1.4082e-05
-3.05142e-09
1.40941e-05
-5.60578e-09
1.41063e-05
-6.56023e-09
1.41184e-05
-6.41165e-09
1.41303e-05
-5.55164e-09
1.41419e-05
-4.2503e-09
1.41534e-05
-2.70905e-09
1.41646e-05
-1.06537e-09
5.83576e-10
1.41756e-05
1.25772e-05
6.73554e-08
1.25392e-05
1.16739e-07
1.25091e-05
1.17888e-07
1.24942e-05
9.08901e-08
1.24928e-05
5.78126e-08
1.25002e-05
2.96812e-08
1.25122e-05
9.12863e-09
1.25264e-05
-4.49936e-09
1.25409e-05
-1.28386e-08
1.25552e-05
-1.73503e-08
1.25689e-05
-1.92846e-08
1.25819e-05
-1.94974e-08
1.25941e-05
-1.86482e-08
1.26057e-05
-1.71434e-08
1.26167e-05
-1.52902e-08
1.26273e-05
-1.32826e-08
1.26375e-05
-1.12494e-08
-9.27384e-09
1.26473e-05
1.11862e-05
1.10916e-07
1.11384e-05
1.6457e-07
1.11088e-05
1.4752e-07
1.11022e-05
9.7484e-08
1.11117e-05
4.83119e-08
1.11289e-05
1.24e-08
1.11486e-05
-1.04634e-08
1.11678e-05
-2.37302e-08
1.11855e-05
-3.0511e-08
1.12014e-05
-3.32933e-08
1.12157e-05
-3.35553e-08
1.12285e-05
-3.23566e-08
1.12402e-05
-3.02951e-08
1.12509e-05
-2.78385e-08
1.12608e-05
-2.52237e-08
1.12701e-05
-2.26142e-08
1.1279e-05
-2.01127e-08
-1.7751e-08
1.12875e-05
9.93908e-06
1.76452e-07
9.88248e-06
2.21163e-07
9.85873e-06
1.71262e-07
9.86593e-06
9.02751e-08
9.8896e-06
2.46381e-08
9.9176e-06
-1.55568e-08
9.94391e-06
-3.67968e-08
9.96668e-06
-4.64124e-08
9.98571e-06
-4.96146e-08
1.00017e-05
-4.92915e-08
1.00153e-05
-4.71295e-08
1.00269e-05
-4.39975e-08
1.00371e-05
-4.05283e-08
1.00463e-05
-3.69832e-08
1.00546e-05
-3.35402e-08
1.00623e-05
-3.03181e-08
1.00696e-05
-2.73585e-08
-2.46625e-08
1.00764e-05
8.81963e-06
2.69916e-07
8.75785e-06
2.82944e-07
8.74788e-06
1.81225e-07
8.77481e-06
6.33227e-08
8.81458e-06
-1.51294e-08
8.85212e-06
-5.30925e-08
8.88268e-06
-6.72309e-08
8.90623e-06
-7.00292e-08
8.92427e-06
-6.76224e-08
8.93843e-06
-6.33785e-08
8.94985e-06
-5.84098e-08
8.95927e-06
-5.33442e-08
8.96728e-06
-4.84775e-08
8.97429e-06
-4.3977e-08
8.98055e-06
-3.98164e-08
8.98629e-06
-3.60593e-08
8.99168e-06
-3.27848e-08
-2.9847e-08
8.99686e-06
7.81391e-06
3.96675e-07
7.75391e-06
3.42943e-07
7.76868e-06
1.6644e-07
7.82053e-06
1.1461e-08
7.87567e-06
-7.02742e-08
7.91912e-06
-9.64916e-08
7.94967e-06
-9.78368e-08
7.97057e-06
-9.06531e-08
7.98484e-06
-8.15954e-08
7.99525e-06
-7.35626e-08
8.00317e-06
-6.61259e-08
8.0094e-06
-5.94291e-08
8.0145e-06
-5.33382e-08
8.01892e-06
-4.8212e-08
8.02279e-06
-4.36675e-08
8.02626e-06
-3.96047e-08
8.02961e-06
-3.62069e-08
-3.32009e-08
8.0329e-06
6.90424e-06
5.66768e-07
6.86137e-06
3.85804e-07
6.91716e-06
1.10634e-07
6.99674e-06
-6.81329e-08
7.06253e-06
-1.36071e-07
7.10529e-06
-1.39268e-07
7.13032e-06
-1.2255e-07
7.14447e-06
-1.04621e-07
7.15207e-06
-8.89993e-08
7.15709e-06
-7.5819e-08
7.16038e-06
-6.66921e-08
7.16271e-06
-5.95592e-08
7.16421e-06
-5.41523e-08
7.16558e-06
-4.94557e-08
7.16675e-06
-4.49738e-08
7.16771e-06
-4.08466e-08
7.1688e-06
-3.7639e-08
-3.51284e-08
7.17004e-06
6.07162e-06
7.97662e-07
6.08526e-06
3.72164e-07
6.19865e-06
-2.77333e-09
6.29989e-06
-1.69397e-07
6.36526e-06
-2.01462e-07
6.39754e-06
-1.71503e-07
6.41011e-06
-1.35218e-07
6.41342e-06
-1.06951e-07
6.41239e-06
-8.58109e-08
6.40989e-06
-7.4039e-08
6.40749e-06
-6.45262e-08
6.40488e-06
-5.76e-08
6.40237e-06
-5.1329e-08
6.40035e-06
-4.70123e-08
6.3984e-06
-4.30816e-08
6.39641e-06
-3.91724e-08
6.39476e-06
-3.69209e-08
-3.47319e-08
6.39408e-06
5.35805e-06
1.05451e-06
5.50649e-06
2.23716e-07
5.64777e-06
-1.44085e-07
5.73564e-06
-2.57314e-07
5.77646e-06
-2.42346e-07
5.78324e-06
-1.78423e-07
5.77527e-06
-1.26643e-07
5.76327e-06
-9.4007e-08
5.74975e-06
-7.56679e-08
5.73931e-06
-6.39919e-08
5.73029e-06
-5.65626e-08
5.72235e-06
-4.998e-08
5.71442e-06
-4.46745e-08
5.70782e-06
-4.05659e-08
5.70185e-06
-3.69858e-08
5.69607e-06
-3.35172e-08
5.69145e-06
-3.16795e-08
-3.13865e-08
5.68767e-06
5.04576e-06
1.01105e-06
5.36491e-06
-9.545e-08
5.35251e-06
-1.31767e-07
5.33285e-06
-2.37745e-07
5.296e-06
-2.05651e-07
5.25016e-06
-1.32588e-07
5.20891e-06
-8.47341e-08
5.17485e-06
-6.08244e-08
5.14636e-06
-4.98269e-08
5.12485e-06
-4.29234e-08
5.10673e-06
-3.93773e-08
5.09051e-06
-3.57033e-08
5.07531e-06
-3.14405e-08
5.06199e-06
-2.76023e-08
5.04966e-06
-2.44277e-08
5.0389e-06
-2.20365e-08
5.02966e-06
-2.20882e-08
-2.33819e-08
5.02214e-06
5.4676e-06
5.37215e-06
5.24037e-06
5.0026e-06
4.79694e-06
4.66444e-06
4.57967e-06
4.51835e-06
4.46848e-06
4.42538e-06
4.38566e-06
4.34948e-06
4.31793e-06
4.29038e-06
4.26609e-06
4.2442e-06
4.2223e-06
4.19948e-06
2.31256e-08
-2.31246e-08
2.37205e-07
-2.14081e-07
4.89331e-07
-2.52095e-07
7.09598e-07
-2.20245e-07
8.77314e-07
-1.67696e-07
9.88443e-07
-1.11119e-07
1.04411e-06
-5.56512e-08
1.04653e-06
-2.42097e-09
1.00102e-06
4.55134e-08
9.17748e-07
8.32679e-08
8.11947e-07
1.0581e-07
7.02759e-07
1.09175e-07
6.09974e-07
9.27798e-08
5.43686e-07
6.6298e-08
4.92541e-07
5.11627e-08
4.33359e-07
5.98829e-08
3.47048e-07
8.61705e-08
2.21944e-07
1.25875e-07
4.36343e-08
1.77892e-07
-2.01835e-07
2.44839e-07
-5.04375e-07
3.02283e-07
-8.45367e-07
3.4074e-07
-1.20971e-06
3.64348e-07
-1.5871e-06
3.77406e-07
-1.9687e-06
3.8164e-07
-2.34453e-06
3.7585e-07
-2.70657e-06
3.62056e-07
-3.04964e-06
3.43086e-07
-3.36993e-06
3.20303e-07
-3.6651e-06
2.95175e-07
-3.93429e-06
2.69191e-07
-4.17781e-06
2.43525e-07
-4.39669e-06
2.18883e-07
-4.59241e-06
1.95722e-07
-4.76668e-06
1.74267e-07
-4.92128e-06
1.54601e-07
-5.05796e-06
1.36685e-07
-5.17836e-06
1.204e-07
-5.28395e-06
1.05588e-07
-5.37602e-06
9.20675e-08
-5.45567e-06
7.96562e-08
-5.52386e-06
6.81819e-08
-5.58135e-06
5.74894e-08
-5.62879e-06
4.74446e-08
-5.66673e-06
3.79385e-08
-5.69561e-06
2.88839e-08
-5.71582e-06
2.02094e-08
-5.72771e-06
1.18853e-08
-5.73175e-06
4.03938e-09
-5.72881e-06
-2.94012e-09
-5.71997e-06
-8.83853e-09
-5.706e-06
-1.39651e-08
-5.68732e-06
-1.86815e-08
-5.66418e-06
-2.31489e-08
-5.63673e-06
-2.74454e-08
-5.60513e-06
-3.15992e-08
-5.56951e-06
-3.5625e-08
-5.52998e-06
-3.95297e-08
-5.48666e-06
-4.33142e-08
-5.43969e-06
-4.69776e-08
-5.38917e-06
-5.05172e-08
-5.33524e-06
-5.39296e-08
-5.27803e-06
-5.72114e-08
-5.21767e-06
-6.03593e-08
-5.1543e-06
-6.33708e-08
-5.08805e-06
-6.62428e-08
-5.01908e-06
-6.89718e-08
-4.94753e-06
-7.15556e-08
-4.87354e-06
-7.39925e-08
-4.79725e-06
-7.62813e-08
-4.71883e-06
-7.84212e-08
-4.63842e-06
-8.04119e-08
-4.55617e-06
-8.22537e-08
-4.47222e-06
-8.39473e-08
-4.38673e-06
-8.5494e-08
-4.29983e-06
-8.68953e-08
-4.21168e-06
-8.81537e-08
-4.12241e-06
-8.92715e-08
-4.03216e-06
-9.02517e-08
-3.94106e-06
-9.10978e-08
-3.84925e-06
-9.18131e-08
-3.75685e-06
-9.24021e-08
-3.66398e-06
-9.28691e-08
-3.57076e-06
-9.32204e-08
-3.4773e-06
-9.34629e-08
-3.38369e-06
-9.36048e-08
-3.29004e-06
-9.36544e-08
-3.19642e-06
-9.36203e-08
-3.10291e-06
-9.35128e-08
-3.00956e-06
-9.33498e-08
-2.9164e-06
-9.31562e-08
-2.82345e-06
-9.29565e-08
-2.73069e-06
-9.27635e-08
-2.63813e-06
-9.25583e-08
-2.54587e-06
-9.22595e-08
-2.45411e-06
-9.17631e-08
-2.36313e-06
-9.09836e-08
-2.27319e-06
-8.99392e-08
-2.1844e-06
-8.8786e-08
-2.09677e-06
-8.76314e-08
-2.0103e-06
-8.64754e-08
-1.925e-06
-8.53021e-08
-1.8409e-06
-8.41042e-08
-1.75802e-06
-8.28809e-08
-1.67638e-06
-8.16344e-08
-1.59602e-06
-8.03687e-08
-1.51693e-06
-7.90876e-08
-1.43914e-06
-7.77938e-08
-1.36266e-06
-7.64851e-08
-1.28752e-06
-7.51408e-08
-1.21375e-06
-7.37731e-08
-1.14134e-06
-7.24096e-08
-1.0703e-06
-7.10454e-08
-1.00062e-06
-6.96816e-08
-9.32301e-07
-6.83192e-08
-8.65344e-07
-6.69599e-08
-7.99741e-07
-6.56057e-08
-7.35484e-07
-6.42593e-08
-6.72564e-07
-6.29228e-08
-6.10971e-07
-6.15955e-08
-5.50696e-07
-6.02781e-08
-4.91725e-07
-5.89733e-08
-4.34041e-07
-5.76873e-08
-3.77618e-07
-5.64255e-08
-3.22436e-07
-5.51838e-08
-2.6848e-07
-5.3959e-08
-2.15727e-07
-5.27548e-08
-1.64159e-07
-5.15706e-08
-1.13766e-07
-5.03943e-08
-6.45417e-08
-4.92261e-08
-1.66075e-08
-4.79354e-08
3.01689e-08
-4.67774e-08
7.60945e-08
-4.59263e-08
1.21063e-07
-4.49684e-08
1.6497e-07
-4.3908e-08
2.07814e-07
-4.28439e-08
2.49612e-07
-4.17971e-08
2.90392e-07
-4.07802e-08
3.30188e-07
-3.97952e-08
3.6903e-07
-3.88406e-08
4.06945e-07
-3.79146e-08
4.43962e-07
-3.70158e-08
4.80106e-07
-3.61432e-08
5.15403e-07
-3.52959e-08
5.49877e-07
-3.44735e-08
5.83553e-07
-3.36757e-08
6.16455e-07
-3.29022e-08
6.48607e-07
-3.21529e-08
6.80034e-07
-3.14277e-08
7.10759e-07
-3.07265e-08
7.40807e-07
-3.00493e-08
7.70202e-07
-2.93961e-08
7.98967e-07
-2.87669e-08
8.27127e-07
-2.81618e-08
8.54706e-07
-2.75806e-08
8.81727e-07
-2.70235e-08
9.08215e-07
-2.64902e-08
9.34194e-07
-2.59805e-08
9.59685e-07
-2.54939e-08
9.84712e-07
-2.50295e-08
1.0093e-06
-2.45862e-08
1.03346e-06
-2.41619e-08
1.05721e-06
-2.3754e-08
1.08056e-06
-2.33584e-08
1.10353e-06
-2.29692e-08
1.12611e-06
-2.25785e-08
1.14828e-06
-2.21749e-08
1.17002e-06
-2.17426e-08
1.19128e-06
-2.12594e-08
1.21197e-06
-2.06944e-08
1.23197e-06
-2.00033e-08
1.25109e-06
-1.91223e-08
1.26904e-06
-1.7954e-08
1.28539e-06
-1.63542e-08
1.29944e-06
-1.40475e-08
1.31006e-06
-1.06238e-08
1.31463e-06
-4.55953e-09
1.30777e-06
6.85555e-09
1.27823e-06
2.95356e-08
7.23276e-08
1.2059e-06
2.54188e-07
-2.77334e-07
4.90088e-07
-4.49977e-07
6.39672e-07
-4.01676e-07
7.24305e-07
-3.04875e-07
7.63819e-07
-2.07201e-07
7.69765e-07
-1.17069e-07
7.48833e-07
-3.47132e-08
7.06651e-07
3.97539e-08
6.4629e-07
1.05879e-07
5.67662e-07
1.61887e-07
4.70047e-07
2.03432e-07
3.51776e-07
2.27435e-07
2.06811e-07
2.3775e-07
2.36108e-08
2.49514e-07
-2.0861e-07
2.8339e-07
-4.94257e-07
3.45622e-07
-8.32221e-07
4.24223e-07
-1.21208e-06
5.05752e-07
-1.6159e-06
5.81669e-07
-2.01734e-06
6.46225e-07
-2.40737e-06
6.92256e-07
-2.78284e-06
7.16203e-07
-3.13779e-06
7.1929e-07
-3.46521e-06
7.04833e-07
-3.75997e-06
6.76405e-07
-4.02111e-06
6.36997e-07
-4.24904e-06
5.89998e-07
-4.44506e-06
5.39102e-07
-4.61205e-06
4.87299e-07
-4.75353e-06
4.3666e-07
-4.87288e-06
3.88537e-07
-4.97325e-06
3.43901e-07
-5.05753e-06
3.03167e-07
-5.12824e-06
2.66423e-07
-5.18747e-06
2.33505e-07
-5.23698e-06
2.04111e-07
-5.27817e-06
1.77871e-07
-5.31216e-06
1.54394e-07
-5.33987e-06
1.33298e-07
-5.36204e-06
1.1423e-07
-5.37926e-06
9.68816e-08
-5.39206e-06
8.09852e-08
-5.40089e-06
6.63192e-08
-5.40615e-06
5.27019e-08
-5.4082e-06
3.99865e-08
-5.40737e-06
2.8058e-08
-5.404e-06
1.68387e-08
-5.39841e-06
6.29382e-09
-5.39075e-06
-3.62073e-09
-5.3806e-06
-1.30947e-08
-5.36707e-06
-2.23681e-08
-5.34956e-06
-3.14703e-08
-5.32791e-06
-4.03354e-08
-5.3021e-06
-4.89598e-08
-5.27219e-06
-5.73505e-08
-5.23828e-06
-6.55135e-08
-5.20045e-06
-7.34517e-08
-5.15882e-06
-8.11645e-08
-5.11349e-06
-8.86488e-08
-5.06456e-06
-9.58988e-08
-5.01217e-06
-1.02908e-07
-4.95644e-06
-1.09668e-07
-4.89748e-06
-1.16172e-07
-4.83542e-06
-1.22412e-07
-4.77041e-06
-1.28384e-07
-4.70257e-06
-1.34082e-07
-4.63205e-06
-1.39497e-07
-4.55898e-06
-1.44625e-07
-4.48351e-06
-1.49464e-07
-4.40578e-06
-1.5401e-07
-4.32594e-06
-1.58262e-07
-4.24413e-06
-1.6222e-07
-4.1605e-06
-1.65883e-07
-4.07519e-06
-1.69254e-07
-3.98835e-06
-1.72335e-07
-3.90012e-06
-1.75128e-07
-3.81064e-06
-1.77638e-07
-3.72004e-06
-1.79871e-07
-3.62846e-06
-1.81832e-07
-3.53603e-06
-1.83528e-07
-3.44288e-06
-1.84965e-07
-3.34912e-06
-1.86154e-07
-3.25489e-06
-1.87102e-07
-3.16029e-06
-1.87821e-07
-3.06544e-06
-1.8832e-07
-2.97043e-06
-1.88612e-07
-2.87538e-06
-1.88708e-07
-2.78038e-06
-1.88622e-07
-2.68552e-06
-1.88364e-07
-2.59093e-06
-1.8795e-07
-2.49669e-06
-1.8739e-07
-2.40296e-06
-1.86694e-07
-2.30987e-06
-1.85853e-07
-2.21759e-06
-1.8484e-07
-2.12623e-06
-1.83613e-07
-2.03586e-06
-1.82142e-07
-1.94642e-06
-1.80422e-07
-1.85786e-06
-1.78494e-07
-1.77022e-06
-1.76436e-07
-1.68355e-06
-1.74301e-07
-1.59792e-06
-1.72103e-07
-1.51338e-06
-1.69842e-07
-1.42997e-06
-1.67521e-07
-1.34771e-06
-1.65142e-07
-1.26663e-06
-1.62712e-07
-1.18677e-06
-1.60235e-07
-1.10814e-06
-1.57717e-07
-1.03077e-06
-1.55162e-07
-9.54685e-07
-1.52572e-07
-8.79881e-07
-1.49946e-07
-8.06356e-07
-1.47299e-07
-7.34125e-07
-1.44643e-07
-6.63191e-07
-1.41982e-07
-5.93555e-07
-1.39319e-07
-5.25217e-07
-1.36659e-07
-4.58176e-07
-1.34003e-07
-3.92428e-07
-1.31356e-07
-3.27967e-07
-1.28722e-07
-2.64784e-07
-1.26108e-07
-2.02868e-07
-1.23513e-07
-1.42211e-07
-1.20938e-07
-8.28005e-08
-1.18386e-07
-2.46302e-08
-1.15859e-07
3.23138e-08
-1.13371e-07
8.80594e-08
-1.10931e-07
1.42624e-07
-1.08525e-07
1.96018e-07
-1.0615e-07
2.48256e-07
-1.0381e-07
2.99367e-07
-1.01506e-07
3.49378e-07
-9.9238e-08
3.98448e-07
-9.70066e-08
4.46552e-07
-9.48811e-08
4.93471e-07
-9.2846e-08
5.39274e-07
-9.07722e-08
5.8404e-07
-8.86735e-08
6.27798e-07
-8.66026e-08
6.7058e-07
-8.45785e-08
7.12408e-07
-8.26082e-08
7.53306e-07
-8.0693e-08
7.93297e-07
-7.88316e-08
8.32405e-07
-7.70224e-08
8.70654e-07
-7.52638e-08
9.08065e-07
-7.35547e-08
9.44664e-07
-7.1894e-08
9.80472e-07
-7.02813e-08
1.01551e-06
-6.87161e-08
1.04981e-06
-6.71981e-08
1.08338e-06
-6.57271e-08
1.11626e-06
-6.4303e-08
1.14846e-06
-6.29257e-08
1.18e-06
-6.15953e-08
1.21092e-06
-6.03116e-08
1.24122e-06
-5.90747e-08
1.27094e-06
-5.78845e-08
1.3001e-06
-5.67411e-08
1.32872e-06
-5.56441e-08
1.35682e-06
-5.45932e-08
1.38443e-06
-5.35877e-08
1.41156e-06
-5.26264e-08
1.43824e-06
-5.17075e-08
1.46448e-06
-5.08284e-08
1.4903e-06
-4.99852e-08
1.51572e-06
-4.91724e-08
1.54074e-06
-4.83819e-08
1.56537e-06
-4.76029e-08
1.58961e-06
-4.682e-08
1.61345e-06
-4.60117e-08
1.63685e-06
-4.51488e-08
1.65978e-06
-4.419e-08
1.68216e-06
-4.3078e-08
1.70389e-06
-4.1731e-08
1.72479e-06
-4.0031e-08
1.74464e-06
-3.78013e-08
1.76306e-06
-3.47725e-08
1.77949e-06
-3.04837e-08
1.79305e-06
-2.41828e-08
1.80277e-06
-1.42758e-08
1.80763e-06
1.99503e-09
1.80575e-06
3.14211e-08
8.80284e-08
1.79003e-06
2.46011e-07
-5.23365e-07
3.42325e-07
-5.46295e-07
3.58612e-07
-4.17961e-07
3.47568e-07
-2.93821e-07
3.19866e-07
-1.79493e-07
2.75783e-07
-7.2985e-08
2.14606e-07
2.6466e-08
1.35286e-07
1.1907e-07
3.67601e-08
2.04406e-07
-8.31339e-08
2.81777e-07
-2.30102e-07
3.504e-07
-4.14663e-07
4.11996e-07
-6.5023e-07
4.73313e-07
-9.4372e-07
5.43008e-07
-1.28497e-06
6.2464e-07
-1.65207e-06
7.12723e-07
-2.02418e-06
7.96328e-07
-2.38444e-06
8.65995e-07
-2.71895e-06
9.16163e-07
-3.01717e-06
9.44434e-07
-3.27523e-06
9.50321e-07
-3.49412e-06
9.35102e-07
-3.67683e-06
9.01999e-07
-3.82739e-06
8.55397e-07
-3.95053e-06
7.99546e-07
-4.05166e-06
7.3813e-07
-4.13611e-06
6.74451e-07
-4.20828e-06
6.11268e-07
-4.27159e-06
5.50613e-07
-4.32867e-06
4.93739e-07
-4.38138e-06
4.41253e-07
-4.43087e-06
3.9339e-07
-4.47777e-06
3.50065e-07
-4.52234e-06
3.10997e-07
-4.56463e-06
2.75795e-07
-4.60454e-06
2.4402e-07
-4.64191e-06
2.15233e-07
-4.67653e-06
1.89017e-07
-4.70823e-06
1.64996e-07
-4.73684e-06
1.42839e-07
-4.76222e-06
1.22263e-07
-4.78426e-06
1.0303e-07
-4.80289e-06
8.49427e-08
-4.81802e-06
6.78357e-08
-4.8296e-06
5.1569e-08
-4.83757e-06
3.60235e-08
-4.84183e-06
2.10975e-08
-4.84223e-06
6.69715e-09
-4.83857e-06
-7.28433e-09
-4.8307e-06
-2.09612e-08
-4.81868e-06
-3.43931e-08
-4.80258e-06
-4.75676e-08
-4.78245e-06
-6.04625e-08
-4.75834e-06
-7.30693e-08
-4.73031e-06
-8.53816e-08
-4.69843e-06
-9.73936e-08
-4.66279e-06
-1.09099e-07
-4.62346e-06
-1.20488e-07
-4.58056e-06
-1.31551e-07
-4.53418e-06
-1.42276e-07
-4.48444e-06
-1.52652e-07
-4.43144e-06
-1.62665e-07
-4.37531e-06
-1.72302e-07
-4.31617e-06
-1.81551e-07
-4.25415e-06
-1.90407e-07
-4.18938e-06
-1.98857e-07
-4.12198e-06
-2.06891e-07
-4.05211e-06
-2.14502e-07
-3.97988e-06
-2.21685e-07
-3.90546e-06
-2.28436e-07
-3.82897e-06
-2.34752e-07
-3.75056e-06
-2.40631e-07
-3.67037e-06
-2.46076e-07
-3.58854e-06
-2.51086e-07
-3.5052e-06
-2.55665e-07
-3.42051e-06
-2.59819e-07
-3.3346e-06
-2.63553e-07
-3.2476e-06
-2.66873e-07
-3.15964e-06
-2.6979e-07
-3.07086e-06
-2.72311e-07
-2.98137e-06
-2.74448e-07
-2.89132e-06
-2.76212e-07
-2.8008e-06
-2.77616e-07
-2.70995e-06
-2.78673e-07
-2.61887e-06
-2.79398e-07
-2.52768e-06
-2.79804e-07
-2.43648e-06
-2.79908e-07
-2.34538e-06
-2.79723e-07
-2.25448e-06
-2.79264e-07
-2.16389e-06
-2.78545e-07
-2.0737e-06
-2.77576e-07
-1.98403e-06
-2.76364e-07
-1.89498e-06
-2.74907e-07
-1.80663e-06
-2.73193e-07
-1.71903e-06
-2.71207e-07
-1.63223e-06
-2.68947e-07
-1.54622e-06
-2.66427e-07
-1.46103e-06
-2.63686e-07
-1.3767e-06
-2.60767e-07
-1.2933e-06
-2.57706e-07
-1.21088e-06
-2.54524e-07
-1.12949e-06
-2.51231e-07
-1.04917e-06
-2.47839e-07
-9.69957e-07
-2.44357e-07
-8.91876e-07
-2.40793e-07
-8.14955e-07
-2.37157e-07
-7.39217e-07
-2.33456e-07
-6.64681e-07
-2.29699e-07
-5.91361e-07
-2.25893e-07
-5.19263e-07
-2.22045e-07
-4.48396e-07
-2.18167e-07
-3.78769e-07
-2.14271e-07
-3.10389e-07
-2.10362e-07
-2.43258e-07
-2.06451e-07
-1.77375e-07
-2.02542e-07
-1.1274e-07
-1.98639e-07
-4.9348e-08
-1.94749e-07
1.28073e-08
-1.90878e-07
7.373e-08
-1.87032e-07
1.33428e-07
-1.83213e-07
1.91915e-07
-1.79425e-07
2.49202e-07
-1.75674e-07
3.05305e-07
-1.71964e-07
3.60237e-07
-1.68303e-07
4.14002e-07
-1.64697e-07
4.66617e-07
-1.61141e-07
5.18102e-07
-1.57636e-07
5.68476e-07
-1.54185e-07
6.17761e-07
-1.50791e-07
6.65987e-07
-1.47464e-07
7.13196e-07
-1.44216e-07
7.59371e-07
-1.41057e-07
8.04478e-07
-1.37954e-07
8.48566e-07
-1.34861e-07
8.9168e-07
-1.31787e-07
9.33841e-07
-1.28764e-07
9.75069e-07
-1.25807e-07
1.01538e-06
-1.22922e-07
1.0548e-06
-1.20111e-07
1.09334e-06
-1.17375e-07
1.13103e-06
-1.14713e-07
1.16789e-06
-1.12122e-07
1.20394e-06
-1.09603e-07
1.2392e-06
-1.07155e-07
1.2737e-06
-1.04777e-07
1.30745e-06
-1.02468e-07
1.34048e-06
-1.00228e-07
1.37281e-06
-9.80579e-08
1.40446e-06
-9.59564e-08
1.43546e-06
-9.39238e-08
1.46582e-06
-9.19599e-08
1.49558e-06
-9.00649e-08
1.52474e-06
-8.82387e-08
1.55334e-06
-8.64813e-08
1.58139e-06
-8.47925e-08
1.60891e-06
-8.31719e-08
1.63594e-06
-8.16191e-08
1.66248e-06
-8.01327e-08
1.68857e-06
-7.87112e-08
1.71421e-06
-7.7352e-08
1.73943e-06
-7.60511e-08
1.76425e-06
-7.48029e-08
1.78868e-06
-7.35996e-08
1.81272e-06
-7.24298e-08
1.8364e-06
-7.1278e-08
1.8597e-06
-7.01225e-08
1.88262e-06
-6.89333e-08
1.90514e-06
-6.76693e-08
1.92722e-06
-6.62731e-08
1.94881e-06
-6.46646e-08
1.9698e-06
-6.27307e-08
1.99008e-06
-6.03085e-08
2.00944e-06
-5.71575e-08
2.02758e-06
-5.29144e-08
2.04408e-06
-4.69885e-08
2.05834e-06
-3.844e-08
2.06957e-06
-2.55092e-08
2.07692e-06
-5.35233e-09
2.08081e-06
2.75189e-08
8.54887e-08
2.08335e-06
9.37349e-08
-6.1711e-07
6.23909e-08
-5.14963e-07
1.39072e-08
-3.69469e-07
-4.31843e-08
-2.36723e-07
-1.12682e-07
-1.0999e-07
-1.98054e-07
1.23916e-08
-3.02286e-07
1.30699e-07
-4.27792e-07
2.44576e-07
-5.77149e-07
3.53763e-07
-7.53742e-07
4.5837e-07
-9.62327e-07
5.58982e-07
-1.20722e-06
6.5689e-07
-1.48721e-06
7.533e-07
-1.7915e-06
8.47292e-07
-2.10139e-06
9.34519e-07
-2.39724e-06
1.00857e-06
-2.66458e-06
1.06366e-06
-2.89513e-06
1.09653e-06
-3.08563e-06
1.10665e-06
-3.23688e-06
1.09569e-06
-3.35326e-06
1.0667e-06
-3.4413e-06
1.02315e-06
-3.50811e-06
9.6882e-07
-3.56023e-06
9.07516e-07
-3.60313e-06
8.42447e-07
-3.64124e-06
7.76246e-07
-3.67781e-06
7.11026e-07
-3.71488e-06
6.48335e-07
-3.75344e-06
5.89175e-07
-3.79377e-06
5.34068e-07
-3.83568e-06
4.83166e-07
-3.87869e-06
4.36392e-07
-3.92213e-06
3.93512e-07
-3.96534e-06
3.54206e-07
-4.00766e-06
3.1811e-07
-4.04849e-06
2.84856e-07
-4.08735e-06
2.54085e-07
-4.1238e-06
2.25467e-07
-4.1575e-06
1.98702e-07
-4.18819e-06
1.73524e-07
-4.21563e-06
1.49706e-07
-4.23965e-06
1.27051e-07
-4.2601e-06
1.05392e-07
-4.27685e-06
8.45877e-08
-4.2898e-06
6.45188e-08
-4.29886e-06
4.50836e-08
-4.30396e-06
2.61959e-08
-4.30504e-06
7.77881e-09
-4.30209e-06
-1.02413e-08
-4.29512e-06
-2.79257e-08
-4.28421e-06
-4.53022e-08
-4.26941e-06
-6.23677e-08
-4.25077e-06
-7.91094e-08
-4.22832e-06
-9.55148e-08
-4.20213e-06
-1.1157e-07
-4.17227e-06
-1.27262e-07
-4.13879e-06
-1.42573e-07
-4.10179e-06
-1.57488e-07
-4.06135e-06
-1.71989e-07
-4.01757e-06
-1.86057e-07
-3.97055e-06
-1.99675e-07
-3.92039e-06
-2.12825e-07
-3.86721e-06
-2.25485e-07
-3.81112e-06
-2.37641e-07
-3.75224e-06
-2.49281e-07
-3.69071e-06
-2.60392e-07
-3.62664e-06
-2.70959e-07
-3.56017e-06
-2.80973e-07
-3.49143e-06
-2.90426e-07
-3.42055e-06
-2.99312e-07
-3.34768e-06
-3.07628e-07
-3.27294e-06
-3.15371e-07
-3.19647e-06
-3.22541e-07
-3.11842e-06
-3.29142e-07
-3.03891e-06
-3.35176e-07
-2.95807e-06
-3.4065e-07
-2.87606e-06
-3.45571e-07
-2.79298e-06
-3.49948e-07
-2.70898e-06
-3.53791e-07
-2.62418e-06
-3.57114e-07
-2.5387e-06
-3.59928e-07
-2.45266e-06
-3.6225e-07
-2.36618e-06
-3.64094e-07
-2.27938e-06
-3.65476e-07
-2.19236e-06
-3.66416e-07
-2.10524e-06
-3.66929e-07
-2.01811e-06
-3.67034e-07
-1.93109e-06
-3.66748e-07
-1.84426e-06
-3.66089e-07
-1.75774e-06
-3.65073e-07
-1.6716e-06
-3.63713e-07
-1.58594e-06
-3.62021e-07
-1.50085e-06
-3.60002e-07
-1.41638e-06
-3.5766e-07
-1.33259e-06
-3.54996e-07
-1.24952e-06
-3.52019e-07
-1.1672e-06
-3.48751e-07
-1.08566e-06
-3.45221e-07
-1.00497e-06
-3.41465e-07
-9.25158e-07
-3.37514e-07
-8.46291e-07
-3.33391e-07
-7.68409e-07
-3.29114e-07
-6.91549e-07
-3.247e-07
-6.15745e-07
-3.20161e-07
-5.41026e-07
-3.15512e-07
-4.67418e-07
-3.10766e-07
-3.94941e-07
-3.05933e-07
-3.23615e-07
-3.01026e-07
-2.53453e-07
-2.96056e-07
-1.84464e-07
-2.91035e-07
-1.16659e-07
-2.85973e-07
-5.00451e-08
-2.80885e-07
1.53717e-08
-2.7578e-07
7.95869e-08
-2.70667e-07
1.42599e-07