/*--------------------------------*- C++ -*----------------------------------*\
| =========                 |                                                 |
| \\      /  F ield         | OpenFOAM: The Open Source CFD Toolbox           |
|  \\    /   O peration     | Version:  v2012                                 |
|   \\  /    A nd           | Website:  www.openfoam.com                      |
|    \\/     M anipulation  |                                                 |
\*---------------------------------------------------------------------------*/
FoamFile
{
    version     2.0;
    format      ascii;
    class       surfaceScalarField;
    location    "3400";
    object      phi;
}
// * * * * * * * * * * * * * * * * * * * * * * * * * * * * * * * * * * * * * //

dimensions      [0 3 -1 0 0 0 0];
oriented        oriented;


internalField   nonuniform List<scalar> 
24170
(
3.92539e-06
-7.91497e-07
3.76462e-06
1.60755e-07
3.63337e-06
1.31207e-07
3.4332e-06
2.00137e-07
3.28009e-06
1.53077e-07
3.18945e-06
9.06039e-08
3.12909e-06
6.0237e-08
3.0812e-06
4.75827e-08
3.04135e-06
3.9386e-08
3.00449e-06
3.62838e-08
2.96989e-06
3.40353e-08
2.93783e-06
3.15362e-08
2.90844e-06
2.89576e-08
2.88168e-06
2.64214e-08
2.85784e-06
2.35966e-08
2.83842e-06
1.93198e-08
2.83029e-06
8.19924e-09
-9.53389e-09
2.83993e-06
3.58444e-06
-9.19499e-07
3.80423e-06
-5.90418e-08
3.7428e-06
1.92618e-07
3.69055e-06
2.5236e-07
3.63725e-06
2.06331e-07
3.58984e-06
1.3796e-07
3.55258e-06
9.73754e-08
3.52378e-06
7.61502e-08
3.50038e-06
6.24481e-08
3.48091e-06
5.52903e-08
3.46384e-06
5.05973e-08
3.44835e-06
4.65216e-08
3.43407e-06
4.27914e-08
3.42072e-06
3.93883e-08
3.40828e-06
3.57282e-08
3.39662e-06
3.07739e-08
3.38508e-06
1.96522e-08
3.77783e-09
3.37146e-06
3.68518e-06
-7.92483e-07
3.83638e-06
-2.10252e-07
3.91493e-06
1.14072e-07
3.945e-06
2.22283e-07
3.94407e-06
2.07255e-07
3.92722e-06
1.54803e-07
3.90781e-06
1.16789e-07
3.89028e-06
9.37229e-08
3.87466e-06
7.81637e-08
3.86141e-06
6.86637e-08
3.84986e-06
6.22734e-08
3.83928e-06
5.71836e-08
3.82934e-06
5.2765e-08
3.82e-06
4.87148e-08
3.81129e-06
4.43756e-08
3.80311e-06
3.88703e-08
3.79329e-06
2.93678e-08
1.74896e-08
3.77926e-06
4.05359e-06
-6.41512e-07
4.1146e-06
-2.71266e-07
4.20798e-06
2.06743e-08
4.26634e-06
1.6391e-07
4.29068e-06
1.82895e-07
4.29272e-06
1.52731e-07
4.28602e-06
1.23472e-07
4.27705e-06
1.02715e-07
4.2676e-06
8.76959e-08
4.25883e-06
7.75546e-08
4.25083e-06
7.03742e-08
4.24332e-06
6.47459e-08
4.23614e-06
5.99555e-08
4.22921e-06
5.56048e-08
4.22241e-06
5.10876e-08
4.21537e-06
4.57948e-08
4.20615e-06
3.84352e-08
3.02437e-08
4.1931e-06
4.50491e-06
-5.09116e-07
4.51536e-06
-2.81715e-07
4.58528e-06
-4.92503e-08
4.64664e-06
1.02546e-07
4.68257e-06
1.46969e-07
4.69681e-06
1.38497e-07
4.69973e-06
1.20583e-07
4.69776e-06
1.0476e-07
4.69353e-06
9.20432e-08
4.68861e-06
8.26262e-08
4.68359e-06
7.55494e-08
4.67854e-06
6.99171e-08
4.67345e-06
6.51442e-08
4.66822e-06
6.08648e-08
4.66267e-06
5.66201e-08
4.65632e-06
5.20855e-08
4.6478e-06
4.68583e-08
4.19925e-08
4.63587e-06
5.00014e-06
-3.94666e-07
4.98614e-06
-2.67715e-07
5.03068e-06
-9.38011e-08
5.08505e-06
4.81673e-08
5.12452e-06
1.0748e-07
5.14607e-06
1.16937e-07
5.15605e-06
1.10594e-07
5.15977e-06
1.01079e-07
5.16002e-06
9.18753e-08
5.15854e-06
8.4218e-08
5.15618e-06
7.80165e-08
5.15328e-06
7.29072e-08
5.14992e-06
6.85496e-08
5.14609e-06
6.47018e-08
5.14158e-06
6.10954e-08
5.13596e-06
5.76406e-08
5.12834e-06
5.43876e-08
5.22185e-08
5.11793e-06
5.54382e-06
-2.97478e-07
5.51664e-06
-2.40539e-07
5.54055e-06
-1.17706e-07
5.58387e-06
4.84281e-09
5.62165e-06
6.97014e-08
5.64657e-06
9.20259e-08
5.66123e-06
9.59552e-08
5.66931e-06
9.30485e-08
5.67328e-06
8.79743e-08
5.67481e-06
8.2771e-08
5.67485e-06
7.80586e-08
5.67388e-06
7.39481e-08
5.6721e-06
7.03782e-08
5.66955e-06
6.72761e-08
5.66607e-06
6.45644e-08
5.66137e-06
6.23116e-08
5.65493e-06
6.07556e-08
6.06528e-08
5.64643e-06
4.34788e-06
-2.39246e-07
4.32251e-06
-2.15176e-07
4.33078e-06
-1.25976e-07
4.35419e-06
-1.85727e-08
4.3784e-06
4.54816e-08
4.39648e-06
7.39431e-08
4.40847e-06
8.39653e-08
4.41605e-06
8.54842e-08
4.42063e-06
8.34185e-08
4.42326e-06
8.01876e-08
4.42458e-06
7.67928e-08
4.42494e-06
7.36205e-08
4.42456e-06
7.07954e-08
4.42347e-06
6.83702e-08
4.42164e-06
6.63853e-08
4.41894e-06
6.49923e-08
4.41519e-06
6.44923e-08
6.54447e-08
4.41032e-06
5.08622e-06
-1.85604e-07
5.05777e-06
-1.86731e-07
5.0584e-06
-1.26604e-07
5.07687e-06
-3.70407e-08
5.09918e-06
2.31653e-08
5.11774e-06
5.53823e-08
5.13129e-06
7.04255e-08
5.14066e-06
7.61386e-08
5.14691e-06
7.71876e-08
5.15097e-06
7.61551e-08
5.15347e-06
7.43185e-08
5.15482e-06
7.23006e-08
5.15523e-06
7.0404e-08
5.15479e-06
6.88047e-08
5.15352e-06
6.76488e-08
5.15135e-06
6.71442e-08
5.14823e-06
6.75795e-08
6.9418e-08
5.14424e-06
5.94839e-06
-1.38199e-07
5.91832e-06
-1.56664e-07
5.91161e-06
-1.19895e-07
5.924e-06
-4.94407e-08
5.94286e-06
4.30098e-09
5.9606e-06
3.76449e-08
5.97485e-06
5.61845e-08
5.98553e-06
6.54665e-08
5.99325e-06
6.9478e-08
5.99871e-06
7.07122e-08
6.00246e-06
7.05819e-08
6.0049e-06
6.98801e-08
6.00625e-06
6.90534e-08
6.00666e-06
6.83969e-08
6.00618e-06
6.81291e-08
6.00483e-06
6.84839e-08
6.00267e-06
6.97354e-08
7.21618e-08
5.99989e-06
6.95439e-06
-9.83194e-08
6.92402e-06
-1.26294e-07
6.91113e-06
-1.07016e-07
6.91681e-06
-5.51148e-08
6.93088e-06
-9.77693e-09
6.94637e-06
2.21513e-08
6.9602e-06
4.23675e-08
6.97146e-06
5.42123e-08
6.98022e-06
6.07188e-08
6.98688e-06
6.40596e-08
6.99184e-06
6.56312e-08
6.99542e-06
6.63e-08
6.99786e-06
6.66217e-08
6.9993e-06
6.69507e-08
6.99986e-06
6.75679e-08
6.99965e-06
6.87065e-08
6.99879e-06
7.05732e-08
7.33766e-08
6.99757e-06
8.12719e-06
-6.64947e-08
8.09793e-06
-9.70376e-08
8.08056e-06
-8.96439e-08
8.07956e-06
-5.41126e-08
8.08794e-06
-1.81637e-08
8.09987e-06
1.02218e-08
8.11202e-06
3.02207e-08
8.1229e-06
4.33363e-08
8.13207e-06
5.15587e-08
8.13954e-06
5.65888e-08
8.14552e-06
5.96536e-08
8.15022e-06
6.161e-08
8.15381e-06
6.30195e-08
8.15647e-06
6.42948e-08
8.15833e-06
6.57096e-08
8.15955e-06
6.749e-08
8.16033e-06
6.97997e-08
7.27398e-08
8.16094e-06
9.49368e-06
-4.2447e-08
9.4668e-06
-7.01611e-08
9.44683e-06
-6.96788e-08
9.43991e-06
-4.7191e-08
9.4423e-06
-2.05508e-08
9.44967e-06
2.84563e-09
9.45898e-06
2.09196e-08
9.46844e-06
3.38833e-08
9.47719e-06
4.28071e-08
9.48494e-06
4.88483e-08
9.49162e-06
5.29824e-08
9.49728e-06
5.59343e-08
9.50206e-06
5.82483e-08
9.50606e-06
6.02889e-08
9.50944e-06
6.23384e-08
9.51235e-06
6.45705e-08
9.51502e-06
6.7122e-08
7.00309e-08
9.51772e-06
1.10854e-05
-2.51682e-08
1.10618e-05
-4.65224e-08
1.1041e-05
-4.88481e-08
1.10294e-05
-3.56148e-08
1.10261e-05
-1.72564e-08
1.10284e-05
4.9005e-10
1.1034e-05
1.53277e-08
1.10411e-05
2.67874e-08
1.10487e-05
3.52692e-08
1.10561e-05
4.14544e-08
1.1063e-05
4.60109e-08
1.10695e-05
4.95008e-08
1.10754e-05
5.23487e-08
1.10808e-05
5.48754e-08
1.10858e-05
5.72955e-08
1.10906e-05
5.97627e-08
1.10954e-05
6.23496e-08
6.50924e-08
1.11003e-05
1.29396e-05
-1.31281e-08
1.29194e-05
-2.62992e-08
1.28988e-05
-2.82936e-08
1.28839e-05
-2.07513e-08
1.28758e-05
-9.08384e-09
1.28732e-05
3.03024e-09
1.28748e-05
1.37947e-08
1.2879e-05
2.26097e-08
1.28847e-05
2.95302e-08
1.28913e-05
3.48926e-08
1.28982e-05
3.90951e-08
1.29052e-05
4.25017e-08
1.29121e-05
4.54045e-08
1.2919e-05
4.80225e-08
1.29257e-05
5.0505e-08
1.29325e-05
5.29459e-08
1.29395e-05
5.53888e-08
5.78377e-08
1.29467e-05
1.50998e-05
-4.49231e-09
1.50822e-05
-8.69752e-09
1.50621e-05
-8.15482e-09
1.50448e-05
-3.52145e-09
1.50327e-05
3.02425e-09
1.50259e-05
9.82602e-09
1.50237e-05
1.60213e-08
1.5025e-05
2.12921e-08
1.50289e-05
2.56493e-08
1.50346e-05
2.92471e-08
1.50414e-05
3.22832e-08
1.50489e-05
3.4938e-08
1.5057e-05
3.73559e-08
1.50654e-05
3.96392e-08
1.5074e-05
4.18512e-08
1.50829e-05
4.40227e-08
1.50921e-05
4.61567e-08
4.82348e-08
1.51017e-05
1.76171e-05
2.88408e-09
1.75999e-05
8.49958e-09
1.75787e-05
1.2986e-08
1.7559e-05
1.62183e-08
1.75436e-05
1.8388e-08
1.75336e-05
1.98538e-08
1.75287e-05
2.09195e-08
1.75282e-05
2.18371e-08
1.75311e-05
2.27517e-08
1.75365e-05
2.37705e-08
1.75439e-05
2.49307e-08
1.75526e-05
2.6254e-08
1.75622e-05
2.77236e-08
1.75725e-05
2.93204e-08
1.75834e-05
3.10038e-08
1.75946e-05
3.27376e-08
1.76063e-05
3.44723e-08
3.61663e-08
1.76184e-05
1.78181e-05
1.09926e-08
1.77994e-05
2.71829e-08
1.77768e-05
3.55819e-08
1.7756e-05
3.69961e-08
1.77402e-05
3.42526e-08
1.77302e-05
2.98501e-08
1.77257e-05
2.5389e-08
1.77259e-05
2.16403e-08
1.77298e-05
1.89185e-08
1.77363e-05
1.72138e-08
1.77448e-05
1.6423e-08
1.77547e-05
1.63648e-08
1.77656e-05
1.68811e-08
1.77771e-05
1.78052e-08
1.77891e-05
1.90156e-08
1.78014e-05
2.03885e-08
1.78141e-05
2.1846e-08
2.32996e-08
1.78269e-05
1.58702e-05
2.21262e-08
1.58478e-05
4.95511e-08
1.58233e-05
6.00879e-08
1.58032e-05
5.71793e-08
1.57899e-05
4.75397e-08
1.57834e-05
3.62924e-08
1.57827e-05
2.61048e-08
1.57863e-05
1.80416e-08
1.5793e-05
1.22399e-08
1.58018e-05
8.46781e-09
1.58119e-05
6.32573e-09
1.58228e-05
5.43243e-09
1.58343e-05
5.44167e-09
1.5846e-05
6.08481e-09
1.58579e-05
7.13739e-09
1.58698e-05
8.44247e-09
1.58818e-05
9.864e-09
1.13203e-08
1.58938e-05
1.41313e-05
3.95332e-08
1.41021e-05
7.86779e-08
1.40745e-05
8.77456e-08
1.40557e-05
7.59836e-08
1.40469e-05
5.63514e-08
1.40462e-05
3.69757e-08
1.40512e-05
2.11376e-08
1.40597e-05
9.50763e-09
1.40703e-05
1.67353e-09
1.40819e-05
-3.14707e-09
1.4094e-05
-5.72498e-09
1.41061e-05
-6.71093e-09
1.41182e-05
-6.59651e-09
1.41301e-05
-5.76928e-09
1.41417e-05
-4.49066e-09
1.41531e-05
-2.96748e-09
1.41643e-05
-1.32851e-09
3.19117e-10
1.41753e-05
1.25772e-05
6.7351e-08
1.25392e-05
1.16713e-07
1.25091e-05
1.17851e-07
1.24942e-05
9.08409e-08
1.24928e-05
5.776e-08
1.25002e-05
2.96274e-08
1.25122e-05
9.0905e-09
1.25263e-05
-4.55478e-09
1.25409e-05
-1.28716e-08
1.25551e-05
-1.73917e-08
1.25687e-05
-1.93409e-08
1.25817e-05
-1.9594e-08
1.25939e-05
-1.87904e-08
1.26055e-05
-1.73247e-08
1.26165e-05
-1.55128e-08
1.2627e-05
-1.3525e-08
1.26372e-05
-1.15035e-08
-9.52061e-09
1.2647e-05
1.11862e-05
1.10913e-07
1.11384e-05
1.64549e-07
1.11088e-05
1.47486e-07
1.11022e-05
9.74399e-08
1.11117e-05
4.82651e-08
1.1129e-05
1.23677e-08
1.11486e-05
-1.05042e-08
1.11678e-05
-2.37336e-08
1.11854e-05
-3.05203e-08
1.12013e-05
-3.32496e-08
1.12155e-05
-3.35231e-08
1.12283e-05
-3.23614e-08
1.12399e-05
-3.03805e-08
1.12506e-05
-2.79888e-08
1.12605e-05
-2.54216e-08
1.12699e-05
-2.28615e-08
1.12787e-05
-2.03678e-08
-1.79988e-08
1.12872e-05
9.93908e-06
1.7645e-07
9.88248e-06
2.21146e-07
9.85873e-06
1.71234e-07
9.86595e-06
9.02344e-08
9.88963e-06
2.45955e-08
9.91761e-06
-1.5599e-08
9.94393e-06
-3.67903e-08
9.96667e-06
-4.64246e-08
9.98572e-06
-4.94997e-08
1.00016e-05
-4.91304e-08
1.0015e-05
-4.69648e-08
1.00266e-05
-4.39431e-08
1.00368e-05
-4.05226e-08
1.0046e-05
-3.70578e-08
1.00543e-05
-3.37107e-08
1.0062e-05
-3.05719e-08
1.00693e-05
-2.76391e-08
-2.49148e-08
1.00762e-05
8.81963e-06
2.69915e-07
8.75784e-06
2.82933e-07
8.74788e-06
1.812e-07
8.77483e-06
6.32854e-08
8.81461e-06
-1.5178e-08
8.85216e-06
-5.31187e-08
8.88269e-06
-6.72605e-08
8.90629e-06
-6.9947e-08
8.92431e-06
-6.75432e-08
8.93834e-06
-6.30906e-08
8.94958e-06
-5.8136e-08
8.95895e-06
-5.31007e-08
8.96692e-06
-4.84212e-08
8.97392e-06
-4.3972e-08
8.9802e-06
-3.9938e-08
8.98601e-06
-3.63317e-08
8.99146e-06
-3.31061e-08
-3.01224e-08
8.99665e-06
7.81391e-06
3.96675e-07
7.7539e-06
3.42935e-07
7.76868e-06
1.66418e-07
7.82055e-06
1.14228e-08
7.87571e-06
-7.03259e-08
7.91917e-06
-9.65602e-08
7.94973e-06
-9.78103e-08
7.97062e-06
-9.07509e-08
7.98498e-06
-8.16916e-08
7.99516e-06
-7.31759e-08
8.0029e-06
-6.56864e-08
8.00899e-06
-5.92083e-08
8.01414e-06
-5.33692e-08
8.0185e-06
-4.82389e-08
8.02236e-06
-4.36759e-08
8.02591e-06
-3.99248e-08
8.02936e-06
-3.66025e-08
-3.34849e-08
8.0327e-06
6.90424e-06
5.66768e-07
6.86136e-06
3.85802e-07
6.91717e-06
1.10614e-07
6.99676e-06
-6.81749e-08
7.06257e-06
-1.36143e-07
7.10536e-06
-1.39353e-07
7.13033e-06
-1.22655e-07
7.1445e-06
-1.04873e-07
7.15241e-06
-8.95901e-08
7.15702e-06
-7.76198e-08
7.16001e-06
-6.85479e-08
7.16221e-06
-6.11025e-08
7.16386e-06
-5.49771e-08
7.16521e-06
-4.9551e-08
7.16622e-06
-4.47443e-08
7.16728e-06
-4.1011e-08
7.16849e-06
-3.78397e-08
-3.49499e-08
7.1698e-06
6.07162e-06
7.97663e-07
6.08525e-06
3.7216e-07
6.19865e-06
-2.7911e-09
6.29991e-06
-1.69437e-07
6.3653e-06
-2.01536e-07
6.3976e-06
-1.71634e-07
6.41008e-06
-1.35248e-07
6.41332e-06
-1.07817e-07
6.41229e-06
-8.86062e-08
6.40981e-06
-7.51196e-08
6.40725e-06
-6.59317e-08
6.40475e-06
-5.86792e-08
6.40234e-06
-5.27187e-08
6.4001e-06
-4.72244e-08
6.39783e-06
-4.24843e-08
6.3961e-06
-3.93395e-08
6.39458e-06
-3.64388e-08
-3.39964e-08
6.3937e-06
5.35805e-06
1.05451e-06
5.50649e-06
2.23712e-07
5.64777e-06
-1.44089e-07
5.73565e-06
-2.57335e-07
5.77649e-06
-2.42395e-07
5.7833e-06
-1.78547e-07
5.77504e-06
-1.26854e-07
5.76263e-06
-9.54952e-08
5.7501e-06
-7.62658e-08
5.73914e-06
-6.44318e-08
5.73021e-06
-5.72048e-08
5.7223e-06
-5.10669e-08
5.71489e-06
-4.55752e-08
5.70786e-06
-4.03907e-08
5.70142e-06
-3.61474e-08
5.69646e-06
-3.44602e-08
5.69143e-06
-3.13239e-08
-3.01038e-08
5.6875e-06
5.04576e-06
1.01105e-06
5.36491e-06
-9.54598e-08
5.35252e-06
-1.31741e-07
5.33288e-06
-2.37718e-07
5.29604e-06
-2.05631e-07
5.25015e-06
-1.32738e-07
5.20833e-06
-8.50626e-08
5.17426e-06
-6.15829e-08
5.14682e-06
-4.92148e-08
5.12471e-06
-4.27642e-08
5.10675e-06
-3.96488e-08
5.091e-06
-3.58634e-08
5.07634e-06
-3.14752e-08
5.06244e-06
-2.68139e-08
5.05028e-06
-2.41662e-08
5.0414e-06
-2.56263e-08
5.03086e-06
-2.0746e-08
-2.16983e-08
5.0225e-06
5.4676e-06
5.37214e-06
5.24039e-06
5.00267e-06
4.79702e-06
4.66428e-06
4.5792e-06
4.51756e-06
4.46826e-06
4.42543e-06
4.38568e-06
4.34969e-06
4.31813e-06
4.29128e-06
4.26709e-06
4.24147e-06
4.22074e-06
4.19906e-06
2.49569e-08
-2.49785e-08
2.38901e-07
-2.13943e-07
4.90139e-07
-2.51272e-07
7.09266e-07
-2.19134e-07
8.75787e-07
-1.6655e-07
9.85777e-07
-1.09996e-07
1.04025e-06
-5.45044e-08
1.04152e-06
-1.26462e-09
9.94934e-07
4.65627e-08
9.10843e-07
8.41033e-08
8.0459e-07
1.06243e-07
6.95568e-07
1.09071e-07
6.0341e-07
9.22061e-08
5.37529e-07
6.58402e-08
4.85989e-07
5.1627e-08
4.24475e-07
6.12687e-08
3.36233e-07
8.83426e-08
2.07453e-07
1.28711e-07
3.01827e-08
1.77404e-07
-2.15378e-07
2.45821e-07
-5.19856e-07
3.0454e-07
-8.61051e-07
3.41319e-07
-1.22464e-06
3.63574e-07
-1.6012e-06
3.76581e-07
-1.98195e-06
3.80711e-07
-2.35678e-06
3.74827e-07
-2.71779e-06
3.60981e-07
-3.05976e-06
3.41957e-07
-3.37893e-06
3.19152e-07
-3.67298e-06
2.94044e-07
-3.94111e-06
2.68119e-07
-4.18364e-06
2.42533e-07
-4.40163e-06
2.17984e-07
-4.59655e-06
1.94918e-07
-4.77011e-06
1.73558e-07
-4.92409e-06
1.53981e-07
-5.06024e-06
1.36146e-07
-5.18017e-06
1.19934e-07
-5.28536e-06
1.05186e-07
-5.37708e-06
9.17199e-08
-5.45643e-06
7.93553e-08
-5.52435e-06
6.79207e-08
-5.58161e-06
5.72613e-08
-5.62886e-06
4.72445e-08
-5.66662e-06
3.77616e-08
-5.69534e-06
2.87267e-08
-5.71541e-06
2.00687e-08
-5.72717e-06
1.17588e-08
-5.7311e-06
3.93382e-09
-5.72806e-06
-3.03782e-09
-5.71915e-06
-8.91276e-09
-5.70513e-06
-1.4016e-08
-5.6864e-06
-1.8737e-08
-5.6632e-06
-2.31997e-08
-5.6357e-06
-2.74931e-08
-5.60406e-06
-3.16443e-08
-5.56839e-06
-3.56682e-08
-5.52882e-06
-3.95712e-08
-5.48547e-06
-4.33544e-08
-5.43845e-06
-4.70165e-08
-5.38789e-06
-5.0555e-08
-5.33393e-06
-5.39663e-08
-5.27668e-06
-5.72471e-08
-5.21629e-06
-6.03941e-08
-5.15288e-06
-6.34048e-08
-5.08661e-06
-6.6276e-08
-5.0176e-06
-6.90043e-08
-4.94601e-06
-7.15876e-08
-4.87199e-06
-7.4024e-08
-4.79568e-06
-7.63125e-08
-4.71723e-06
-7.84524e-08
-4.63678e-06
-8.04432e-08
-4.5545e-06
-8.22853e-08
-4.47052e-06
-8.39791e-08
-4.38499e-06
-8.55257e-08
-4.29807e-06
-8.69263e-08
-4.20988e-06
-8.81829e-08
-4.12059e-06
-8.92974e-08
-4.03031e-06
-9.02728e-08
-3.9392e-06
-9.11124e-08
-3.84738e-06
-9.18206e-08
-3.75498e-06
-9.24028e-08
-3.66212e-06
-9.28647e-08
-3.56891e-06
-9.32134e-08
-3.47545e-06
-9.34554e-08
-3.38185e-06
-9.3598e-08
-3.28821e-06
-9.36487e-08
-3.19459e-06
-9.36167e-08
-3.10108e-06
-9.35138e-08
-3.00772e-06
-9.33553e-08
-2.91456e-06
-9.31622e-08
-2.8216e-06
-9.29605e-08
-2.72884e-06
-9.27682e-08
-2.63627e-06
-9.25643e-08
-2.54401e-06
-9.2262e-08
-2.45225e-06
-9.17602e-08
-2.36128e-06
-9.0975e-08
-2.27135e-06
-8.99266e-08
-2.18258e-06
-8.87731e-08
-2.09496e-06
-8.76189e-08
-2.0085e-06
-8.6463e-08
-1.92321e-06
-8.52896e-08
-1.83912e-06
-8.40915e-08
-1.75625e-06
-8.2868e-08
-1.67463e-06
-8.16214e-08
-1.59427e-06
-8.03558e-08
-1.5152e-06
-7.90748e-08
-1.43742e-06
-7.77813e-08
-1.36094e-06
-7.64728e-08
-1.28582e-06
-7.51284e-08
-1.21205e-06
-7.37608e-08
-1.13966e-06
-7.23983e-08
-1.06862e-06
-7.10347e-08
-9.98948e-07
-6.96717e-08
-9.30637e-07
-6.83102e-08
-8.63685e-07
-6.69518e-08
-7.98085e-07
-6.55986e-08
-7.33831e-07
-6.42536e-08
-6.70912e-07
-6.29182e-08
-6.0932e-07
-6.15921e-08
-5.49043e-07
-6.02758e-08
-4.9007e-07
-5.89724e-08
-4.32382e-07
-5.76879e-08
-3.75953e-07
-5.64282e-08
-3.20764e-07
-5.51882e-08
-2.66798e-07
-5.39651e-08
-2.14034e-07
-5.27626e-08
-1.62453e-07
-5.15798e-08
-1.12046e-07
-5.04043e-08
-6.28068e-08
-4.92368e-08
-1.48644e-08
-4.79382e-08
3.19296e-08
-4.67897e-08
7.78774e-08
-4.59445e-08
1.22855e-07
-4.49759e-08
1.6677e-07
-4.39135e-08
2.09619e-07
-4.28483e-08
2.51423e-07
-4.18007e-08
2.9221e-07
-4.07832e-08
3.32011e-07
-3.97974e-08
3.70855e-07
-3.88421e-08
4.08772e-07
-3.79151e-08
4.4579e-07
-3.70154e-08
4.81936e-07
-3.61413e-08
5.17234e-07
-3.52925e-08
5.51709e-07
-3.44683e-08
5.85383e-07
-3.36686e-08
6.18282e-07
-3.28937e-08
6.50426e-07
-3.21433e-08
6.81842e-07
-3.14177e-08
7.12553e-07
-3.07164e-08
7.42585e-07
-3.00395e-08
7.71961e-07
-2.93866e-08
8.00707e-07
-2.87582e-08
8.28847e-07
-2.81537e-08
8.56408e-07
-2.75738e-08
8.83412e-07
-2.70174e-08
9.09884e-07
-2.64855e-08
9.35849e-07
-2.59765e-08
9.61329e-07
-2.54911e-08
9.86347e-07
-2.5027e-08
1.01092e-06
-2.45845e-08
1.03508e-06
-2.41599e-08
1.05882e-06
-2.37524e-08
1.08217e-06
-2.33559e-08
1.10513e-06
-2.29667e-08
1.12771e-06
-2.25749e-08
1.14987e-06
-2.21712e-08
1.17161e-06
-2.17376e-08
1.19286e-06
-2.12544e-08
1.21354e-06
-2.0688e-08
1.23353e-06
-1.99968e-08
1.25264e-06
-1.9114e-08
1.27058e-06
-1.79454e-08
1.28692e-06
-1.63422e-08
1.30094e-06
-1.40366e-08
1.31154e-06
-1.06053e-08
1.31607e-06
-4.53858e-09
1.30916e-06
6.89646e-09
1.27953e-06
2.96178e-08
7.24448e-08
1.20708e-06
2.53711e-07
-2.78702e-07
4.88754e-07
-4.48988e-07
6.37721e-07
-4.00253e-07
7.21755e-07
-3.03173e-07
7.60645e-07
-2.05452e-07
7.65964e-07
-1.1532e-07
7.44426e-07
-3.29786e-08
7.0171e-07
4.14482e-08
6.40785e-07
1.07478e-07
5.61592e-07
1.63297e-07
4.63331e-07
2.04501e-07
3.44274e-07
2.28129e-07
1.98156e-07
2.38345e-07
1.32531e-08
2.507e-07
-2.20744e-07
2.85631e-07
-5.07965e-07
3.48435e-07
-8.46473e-07
4.26853e-07
-1.2253e-06
5.07557e-07
-1.63001e-06
5.82139e-07
-2.03051e-06
6.46363e-07
-2.41867e-06
6.92726e-07
-2.79343e-06
7.16101e-07
-3.14805e-06
7.18195e-07
-3.47458e-06
7.0312e-07
-3.76819e-06
6.74314e-07
-4.02807e-06
6.34702e-07
-4.25476e-06
5.87654e-07
-4.44963e-06
5.36821e-07
-4.61564e-06
4.85154e-07
-4.75629e-06
4.3469e-07
-4.87494e-06
3.86769e-07
-4.97475e-06
3.42341e-07
-5.05858e-06
3.01809e-07
-5.12891e-06
2.65252e-07
-5.18785e-06
2.32502e-07
-5.23713e-06
2.03255e-07
-5.27813e-06
1.77143e-07
-5.31197e-06
1.53775e-07
-5.33955e-06
1.3277e-07
-5.36161e-06
1.1378e-07
-5.37875e-06
9.64953e-08
-5.39148e-06
8.06525e-08
-5.40025e-06
6.60313e-08
-5.40546e-06
5.24514e-08
-5.40746e-06
3.97673e-08
-5.4066e-06
2.78653e-08
-5.4032e-06
1.66687e-08
-5.39758e-06
6.14358e-09
-5.38989e-06
-3.75439e-09
-5.37971e-06
-1.32196e-08
-5.36614e-06
-2.24849e-08
-5.34858e-06
-3.15776e-08
-5.32688e-06
-4.04375e-08
-5.30102e-06
-4.90567e-08
-5.27107e-06
-5.74426e-08
-5.23711e-06
-6.56016e-08
-5.19924e-06
-7.35363e-08
-5.15757e-06
-8.12462e-08
-5.1122e-06
-8.87277e-08
-5.06324e-06
-9.59753e-08
-5.01081e-06
-1.02982e-07
-4.95504e-06
-1.0974e-07
-4.89604e-06
-1.16242e-07
-4.83395e-06
-1.2248e-07
-4.76891e-06
-1.28451e-07
-4.70104e-06
-1.34146e-07
-4.63048e-06
-1.39559e-07
-4.55739e-06
-1.44686e-07
-4.48189e-06
-1.49523e-07
-4.40413e-06
-1.54067e-07
-4.32427e-06
-1.58318e-07
-4.24244e-06
-1.62274e-07
-4.15879e-06
-1.65935e-07
-4.07346e-06
-1.69304e-07
-3.98661e-06
-1.72382e-07
-3.89836e-06
-1.75173e-07
-3.80886e-06
-1.77679e-07
-3.71825e-06
-1.79908e-07
-3.62666e-06
-1.81864e-07
-3.53422e-06
-1.83554e-07
-3.44106e-06
-1.84986e-07
-3.34729e-06
-1.8617e-07
-3.25304e-06
-1.87114e-07
-3.15843e-06
-1.87829e-07
-3.06356e-06
-1.88327e-07
-2.96854e-06
-1.88618e-07
-2.87347e-06
-1.88714e-07
-2.77846e-06
-1.88627e-07
-2.68361e-06
-1.88369e-07
-2.58901e-06
-1.87954e-07
-2.49478e-06
-1.87393e-07
-2.40105e-06
-1.86694e-07
-2.30797e-06
-1.85851e-07
-2.2157e-06
-1.84836e-07
-2.12436e-06
-1.83604e-07
-2.03399e-06
-1.82128e-07
-1.94456e-06
-1.80404e-07
-1.85601e-06
-1.78473e-07
-1.76837e-06
-1.76414e-07
-1.68171e-06
-1.74279e-07
-1.5961e-06
-1.7208e-07
-1.51157e-06
-1.69818e-07
-1.42816e-06
-1.67496e-07
-1.34592e-06
-1.65117e-07
-1.26485e-06
-1.62687e-07
-1.185e-06
-1.6021e-07
-1.10638e-06
-1.57693e-07
-1.02902e-06
-1.55138e-07
-9.52946e-07
-1.52548e-07
-8.78151e-07
-1.49923e-07
-8.04636e-07
-1.47276e-07
-7.32412e-07
-1.44621e-07
-6.61485e-07
-1.41962e-07
-5.91855e-07
-1.39301e-07
-5.23523e-07
-1.36642e-07
-4.56486e-07
-1.33988e-07
-3.90742e-07
-1.31343e-07
-3.26283e-07
-1.28711e-07
-2.63102e-07
-1.261e-07
-2.01186e-07
-1.23508e-07
-1.40527e-07
-1.20934e-07
-8.11143e-08
-1.18385e-07
-2.2941e-08
-1.15861e-07
3.40068e-08
-1.13376e-07
8.97573e-08
-1.10938e-07
1.44327e-07
-1.08534e-07
1.97727e-07
-1.06162e-07
2.49972e-07
-1.03824e-07
3.0109e-07
-1.01521e-07
3.51109e-07
-9.92551e-08
4.00197e-07
-9.70242e-08
4.48312e-07
-9.49023e-08
4.95236e-07
-9.28669e-08
5.41049e-07
-9.07881e-08
5.85823e-07
-8.86875e-08
6.29591e-07
-8.66156e-08
6.72383e-07
-8.45906e-08
7.14221e-07
-8.26194e-08
7.55128e-07
-8.0703e-08
7.95127e-07
-7.88405e-08
8.34242e-07
-7.70297e-08
8.72498e-07
-7.52695e-08
9.09916e-07
-7.35581e-08
9.46521e-07
-7.18951e-08
9.82336e-07
-7.02794e-08
1.01738e-06
-6.87119e-08
1.05168e-06
-6.71914e-08
1.08525e-06
-6.57194e-08
1.11813e-06
-6.42941e-08
1.15032e-06
-6.29172e-08
1.18186e-06
-6.15865e-08
1.21277e-06
-6.03038e-08
1.24307e-06
-5.90672e-08
1.27279e-06
-5.78785e-08
1.30194e-06
-5.67358e-08
1.33055e-06
-5.56405e-08
1.35865e-06
-5.45905e-08
1.38625e-06
-5.35864e-08
1.41337e-06
-5.26258e-08
1.44005e-06
-5.17076e-08
1.46629e-06
-5.08286e-08
1.49211e-06
-4.99852e-08
1.51752e-06
-4.91716e-08
1.54254e-06
-4.83802e-08
1.56717e-06
-4.75998e-08
1.59141e-06
-4.68155e-08
1.61524e-06
-4.60056e-08
1.63864e-06
-4.51411e-08
1.66157e-06
-4.41806e-08
1.68394e-06
-4.30667e-08
1.70566e-06
-4.17177e-08
1.72656e-06
-4.0015e-08
1.74639e-06
-3.77827e-08
1.7648e-06
-3.47489e-08
1.78121e-06
-3.04584e-08
1.79475e-06
-2.41448e-08
1.80444e-06
-1.42389e-08
1.80928e-06
2.05825e-09
1.80737e-06
3.15266e-08
8.81768e-08
1.79163e-06
2.44786e-07
-5.23494e-07
3.39796e-07
-5.44e-07
3.55537e-07
-4.16002e-07
3.4419e-07
-2.91825e-07
3.16143e-07
-1.77414e-07
2.71652e-07
-7.08285e-08
2.09991e-07
2.86737e-08
1.3014e-07
1.21298e-07
3.09971e-08
2.06613e-07
-8.96341e-08
2.83924e-07
-2.3759e-07
3.52453e-07
-4.23519e-07
4.14046e-07
-6.60752e-07
4.75578e-07
-9.55695e-07
5.45624e-07
-1.2975e-06
6.27431e-07
-1.66429e-06
7.15214e-07
-2.03549e-06
7.98064e-07
-2.39465e-06
8.66726e-07
-2.72841e-06
9.15917e-07
-3.02561e-06
9.43579e-07
-3.28193e-06
9.49058e-07
-3.49912e-06
9.33302e-07
-3.68057e-06
8.99652e-07
-3.83015e-06
8.527e-07
-3.95252e-06
7.9668e-07
-4.05307e-06
7.35251e-07
-4.1371e-06
6.71677e-07
-4.20896e-06
6.08679e-07
-4.27206e-06
5.48255e-07
-4.329e-06
4.91626e-07
-4.38162e-06
4.39386e-07
-4.43103e-06
3.91756e-07
-4.47787e-06
3.48644e-07
-4.52238e-06
3.09768e-07
-4.56462e-06
2.74734e-07
-4.60447e-06
2.43105e-07
-4.64177e-06
2.14443e-07
-4.67632e-06
1.88334e-07
-4.70796e-06
1.64403e-07
-4.7365e-06
1.42323e-07
-4.76182e-06
1.21812e-07
-4.7838e-06
1.02635e-07
-4.80236e-06
8.45945e-08
-4.81744e-06
6.75271e-08
-4.82896e-06
5.1294e-08
-4.83687e-06
3.57769e-08
-4.84108e-06
2.08747e-08
-4.84143e-06
6.49396e-09
-4.83771e-06
-7.47195e-09
-4.82979e-06
-2.11367e-08
-4.81772e-06
-3.4558e-08
-4.80157e-06
-4.77229e-08
-4.7814e-06
-6.06096e-08
-4.75725e-06
-7.32094e-08
-4.72918e-06
-8.55156e-08
-4.69726e-06
-9.75223e-08
-4.66157e-06
-1.09223e-07
-4.62221e-06
-1.20607e-07
-4.57927e-06
-1.31667e-07
-4.53286e-06
-1.42389e-07
-4.48308e-06
-1.52761e-07
-4.43005e-06
-1.62771e-07
-4.37388e-06
-1.72405e-07
-4.31471e-06
-1.81652e-07
-4.25266e-06
-1.90504e-07
-4.18785e-06
-1.98952e-07
-4.12043e-06
-2.06983e-07
-4.05052e-06
-2.14591e-07
-3.97828e-06
-2.21771e-07
-3.90383e-06
-2.28518e-07
-3.82731e-06
-2.34831e-07
-3.74888e-06
-2.40707e-07
-3.66867e-06
-2.46148e-07
-3.58682e-06
-2.51155e-07
-3.50347e-06
-2.5573e-07
-3.41876e-06
-2.59879e-07
-3.33283e-06
-2.63608e-07
-3.24582e-06
-2.66924e-07
-3.15785e-06
-2.69835e-07
-3.06905e-06
-2.7235e-07
-2.97955e-06
-2.74482e-07
-2.88948e-06
-2.7624e-07
-2.79896e-06
-2.7764e-07
-2.7081e-06
-2.78693e-07
-2.61701e-06
-2.79414e-07
-2.52581e-06
-2.79818e-07
-2.43461e-06
-2.79918e-07
-2.3435e-06
-2.79731e-07
-2.2526e-06
-2.79269e-07
-2.16201e-06
-2.78547e-07
-2.07183e-06
-2.77574e-07
-1.98217e-06
-2.76359e-07
-1.89312e-06
-2.74898e-07
-1.80478e-06
-2.73181e-07
-1.71719e-06
-2.7119e-07
-1.63039e-06
-2.68925e-07
-1.5444e-06
-2.66402e-07
-1.45921e-06
-2.63657e-07
-1.37489e-06
-2.60736e-07
-1.2915e-06
-2.57674e-07
-1.20909e-06
-2.5449e-07
-1.12771e-06
-2.51197e-07
-1.0474e-06
-2.47804e-07
-9.68196e-07
-2.44321e-07
-8.90126e-07
-2.40757e-07
-8.13216e-07
-2.3712e-07
-7.37488e-07
-2.3342e-07
-6.62962e-07
-2.29664e-07
-5.89652e-07
-2.25858e-07
-5.17563e-07
-2.22011e-07
-4.46704e-07
-2.18135e-07
-3.77085e-07
-2.1424e-07
-3.08713e-07
-2.10334e-07
-2.41588e-07
-2.06425e-07
-1.75711e-07
-2.02519e-07
-1.1108e-07
-1.98619e-07
-4.76915e-08
-1.94731e-07
1.4461e-08
-1.90863e-07
7.53817e-08
-1.8702e-07
1.35079e-07
-1.83204e-07
1.93565e-07
-1.7942e-07
2.50854e-07
-1.75673e-07
3.06959e-07
-1.71966e-07
3.61893e-07
-1.6831e-07
4.15662e-07
-1.64707e-07
4.68282e-07
-1.61154e-07
5.19772e-07
-1.57652e-07
5.70152e-07
-1.54204e-07
6.19444e-07
-1.50813e-07
6.67678e-07
-1.47488e-07
7.14896e-07
-1.44242e-07
7.6108e-07
-1.41084e-07
8.06194e-07
-1.37981e-07
8.50291e-07
-1.34885e-07
8.93414e-07
-1.3181e-07
9.35584e-07
-1.28786e-07
9.76822e-07
-1.25828e-07
1.01715e-06
-1.22941e-07
1.05657e-06
-1.2013e-07
1.09512e-06
-1.17392e-07
1.13282e-06
-1.14727e-07
1.16969e-06
-1.12135e-07
1.20575e-06
-1.09613e-07
1.24102e-06
-1.07162e-07
1.27552e-06
-1.0478e-07
1.30928e-06
-1.02468e-07
1.34231e-06
-1.00226e-07
1.37465e-06
-9.80534e-08
1.4063e-06
-9.59506e-08
1.4373e-06
-9.39177e-08
1.46767e-06
-9.19537e-08
1.49742e-06
-9.00593e-08
1.52658e-06
-8.82337e-08
1.55518e-06
-8.64775e-08
1.58323e-06
-8.47898e-08
1.61075e-06
-8.31707e-08
1.63778e-06
-8.16191e-08
1.66432e-06
-8.01341e-08
1.6904e-06
-7.87135e-08
1.71605e-06
-7.73548e-08
1.74127e-06
-7.60539e-08
1.76609e-06
-7.48052e-08
1.79052e-06
-7.36009e-08
1.81456e-06
-7.24294e-08
1.83824e-06
-7.12757e-08
1.86154e-06
-7.01178e-08
1.88446e-06
-6.89263e-08
1.90698e-06
-6.76596e-08
1.92906e-06
-6.62608e-08
1.95064e-06
-6.46492e-08
1.97163e-06
-6.27121e-08
1.9919e-06
-6.0286e-08
2.01124e-06
-5.71308e-08
2.02937e-06
-5.28815e-08
2.04586e-06
-4.69501e-08
2.0601e-06
-3.83895e-08
2.07131e-06
-2.54543e-08
2.07863e-06
-5.26748e-09
2.08251e-06
2.76447e-08
8.56565e-08
2.08503e-06
9.21501e-08
-6.15647e-07
6.06613e-08
-5.12508e-07
1.1625e-08
-3.66971e-07
-4.60271e-08
-2.34169e-07
-1.16114e-07
-1.07332e-07
-2.02099e-07
1.51591e-08
-3.06993e-07
1.33563e-07
-4.33207e-07
2.4751e-07
-5.83337e-07
3.56741e-07
-7.60785e-07
4.61366e-07
-9.70305e-07
5.61972e-07
-1.21612e-06
6.59849e-07
-1.4967e-06
7.56157e-07
-1.80095e-06
8.49874e-07
-2.11009e-06
9.36564e-07
-2.4047e-06
1.00983e-06
-2.67064e-06
1.064e-06
-2.89986e-06
1.09596e-06
-3.08921e-06
1.10528e-06
-3.23935e-06
1.09372e-06
-3.3546e-06
1.06431e-06
-3.44173e-06
1.02044e-06
-3.50797e-06
9.65894e-07
-3.55977e-06
9.04505e-07
-3.60255e-06
8.39458e-07
-3.64067e-06
7.73369e-07
-3.67732e-06
7.08326e-07
-3.71449e-06
6.4585e-07
-3.75316e-06
5.86922e-07
-3.79358e-06
5.32047e-07
-3.83556e-06
4.81368e-07
-3.87861e-06
4.34801e-07
-3.92207e-06
3.9211e-07
-3.96528e-06
3.52972e-07
-4.00757e-06
3.17026e-07
-4.04836e-06
2.83903e-07
-4.08717e-06
2.53247e-07
-4.12356e-06
2.24729e-07
-4.15721e-06
1.9805e-07
-4.18783e-06
1.72947e-07
-4.21522e-06
1.49194e-07
-4.23917e-06
1.26594e-07
-4.25956e-06
1.04983e-07
-4.27625e-06
8.42199e-08
-4.28915e-06
6.41862e-08
-4.29815e-06
4.47811e-08
-4.30319e-06
2.59188e-08
-4.30422e-06
7.52317e-09
-4.30122e-06
-1.04792e-08
-4.2942e-06
-2.81487e-08
-4.28325e-06
-4.55125e-08
-4.2684e-06
-6.25668e-08
-4.24972e-06
-7.92988e-08
-4.22723e-06
-9.56958e-08
-4.201e-06
-1.11744e-07
-4.17109e-06
-1.27429e-07
-4.13758e-06
-1.42734e-07
-4.10054e-06
-1.57644e-07
-4.06007e-06
-1.7214e-07
-4.01625e-06
-1.86204e-07
-3.9692e-06
-1.99818e-07
-3.91901e-06
-2.12964e-07
-3.86579e-06
-2.2562e-07
-3.80967e-06
-2.37772e-07
-3.75077e-06
-2.49409e-07
-3.6892e-06
-2.60516e-07
-3.6251e-06
-2.71079e-07
-3.55861e-06
-2.81089e-07
-3.48984e-06
-2.90537e-07
-3.41894e-06
-2.99419e-07
-3.34604e-06
-3.0773e-07
-3.27128e-06
-3.15468e-07
-3.19479e-06
-3.22634e-07
-3.11672e-06
-3.2923e-07
-3.03719e-06
-3.35259e-07
-2.95634e-06
-3.40727e-07
-2.87431e-06
-3.45642e-07
-2.79122e-06
-3.50012e-07
-2.70721e-06
-3.53849e-07
-2.62239e-06
-3.57165e-07
-2.5369e-06
-3.59974e-07
-2.45085e-06
-3.62289e-07
-2.36437e-06
-3.64127e-07
-2.27755e-06
-3.65504e-07
-2.19053e-06
-3.66438e-07
-2.1034e-06
-3.66946e-07
-2.01627e-06
-3.67047e-07
-1.92925e-06
-3.66757e-07
-1.84243e-06
-3.66093e-07
-1.7559e-06
-3.65072e-07
-1.66977e-06
-3.63708e-07
-1.58412e-06
-3.62011e-07
-1.49903e-06
-3.59988e-07
-1.41457e-06
-3.5764e-07
-1.33079e-06
-3.54971e-07
-1.24772e-06
-3.5199e-07
-1.16541e-06
-3.48717e-07
-1.08388e-06
-3.45184e-07
-1.00319e-06
-3.41426e-07
-9.23394e-07
-3.37472e-07
-8.44537e-07
-3.33348e-07
-7.66665e-07
-3.29069e-07
-6.89815e-07
-3.24653e-07
-6.14022e-07
-3.20114e-07
-5.39314e-07
-3.15465e-07
-4.65716e-07
-3.10719e-07
-3.93249e-07