/*--------------------------------*- C++ -*----------------------------------*\
| =========                 |                                                 |
| \\      /  F ield         | OpenFOAM: The Open Source CFD Toolbox           |
|  \\    /   O peration     | Version:  v2012                                 |
|   \\  /    A nd           | Website:  www.openfoam.com                      |
|    \\/     M anipulation  |                                                 |
\*---------------------------------------------------------------------------*/
FoamFile
{
    version     2.0;
    format      ascii;
    class       volVectorField;
    location    "3400";
    object      U;
}
// * * * * * * * * * * * * * * * * * * * * * * * * * * * * * * * * * * * * * //

dimensions      [0 1 -1 0 0 0 0];


internalField   nonuniform List<vector> 
12225
(
(9.2745 -4.73371 0)
(13.1094 -1.71343 0)
(12.4777 -0.395208 0)
(11.2768 -0.0422189 0)
(10.6311 0.014198 0)
(10.2978 -0.000806566 0)
(10.0739 -0.00364839 0)
(9.90489 -0.0200183 0)
(9.76634 -0.0506579 0)
(9.64488 -0.0479308 0)
(9.53133 -0.0366099 0)
(9.4246 -0.0321656 0)
(9.3264 -0.030313 0)
(9.23644 -0.02442 0)
(9.15511 -0.0135631 0)
(9.08883 -0.00428949 0)
(9.02786 0.0101179 0)
(9.051 0.0250274 0)
(10.2592 0.0928024 0)
(10.7814 0.199338 0)
(10.9593 0.245649 0)
(10.7468 0.229135 0)
(10.5874 0.172968 0)
(10.4522 0.115287 0)
(10.329 0.0818653 0)
(10.2315 0.0692365 0)
(10.1585 0.065164 0)
(10.0982 0.0585044 0)
(10.0454 0.0523361 0)
(9.99832 0.0498769 0)
(9.95534 0.0493927 0)
(9.91582 0.0486095 0)
(9.8784 0.0456606 0)
(9.84455 0.0401599 0)
(9.80884 0.0217163 0)
(9.77655 -0.00181385 0)
(9.87768 -0.24504 0)
(9.74284 0.00578997 0)
(10.1971 0.125736 0)
(10.3244 0.179355 0)
(10.3564 0.161538 0)
(10.3308 0.119966 0)
(10.2777 0.0911492 0)
(10.2264 0.0752894 0)
(10.183 0.0657438 0)
(10.1459 0.0604549 0)
(10.1137 0.0572152 0)
(10.0848 0.0545617 0)
(10.0579 0.0519213 0)
(10.0327 0.0489375 0)
(10.0089 0.0452204 0)
(9.98691 0.040165 0)
(9.96328 0.0290139 0)
(9.93579 0.00977883 0)
(9.83416 -0.443933 0)
(9.57654 -0.163149 0)
(9.91602 0.033661 0)
(10.0932 0.134211 0)
(10.1892 0.145455 0)
(10.2166 0.120704 0)
(10.2052 0.0984846 0)
(10.1836 0.0838839 0)
(10.161 0.0740269 0)
(10.1394 0.0682689 0)
(10.1196 0.0645748 0)
(10.1012 0.0616241 0)
(10.0837 0.0589871 0)
(10.0669 0.0565323 0)
(10.0506 0.0536343 0)
(10.0344 0.0493132 0)
(10.0157 0.041035 0)
(9.9914 0.0292836 0)
(9.87825 -0.387477 0)
(9.61653 -0.196152 0)
(9.81622 -0.0186817 0)
(9.96135 0.091597 0)
(10.0698 0.122175 0)
(10.1218 0.113627 0)
(10.1356 0.0996031 0)
(10.134 0.0883243 0)
(10.1264 0.0798551 0)
(10.1162 0.0742283 0)
(10.1055 0.0704027 0)
(10.0946 0.0675571 0)
(10.0836 0.0652333 0)
(10.0725 0.0631454 0)
(10.061 0.0607243 0)
(10.0484 0.0573795 0)
(10.033 0.0520337 0)
(10.0121 0.0459113 0)
(9.91439 -0.288041 0)
(9.68303 -0.185182 0)
(9.78717 -0.0532204 0)
(9.88916 0.0509811 0)
(9.98795 0.0936574 0)
(10.0476 0.0992082 0)
(10.0753 0.0940364 0)
(10.0867 0.0873878 0)
(10.0896 0.0813988 0)
(10.088 0.076923 0)
(10.084 0.0737179 0)
(10.0788 0.0713688 0)
(10.0727 0.0695339 0)
(10.0656 0.0679629 0)
(10.0576 0.0663008 0)
(10.0479 0.0643173 0)
(10.0354 0.0618398 0)
(10.0183 0.0601524 0)
(9.93763 -0.214043 0)
(9.74856 -0.167541 0)
(9.79243 -0.0752275 0)
(9.85608 0.0162039 0)
(9.93595 0.0644029 0)
(9.99283 0.0805954 0)
(10.0262 0.0836105 0)
(10.045 0.0820974 0)
(10.0549 0.0792988 0)
(10.0593 0.0767004 0)
(10.0605 0.0746643 0)
(10.0596 0.0731652 0)
(10.0571 0.0720773 0)
(10.0533 0.0712932 0)
(10.048 0.0706833 0)
(10.0409 0.0702847 0)
(10.0313 0.070365 0)
(10.0182 0.0720928 0)
(9.95263 -0.167337 0)
(9.79947 -0.149685 0)
(9.81178 -0.0846592 0)
(9.84959 -0.00623807 0)
(9.91142 0.041894 0)
(9.9611 0.0638561 0)
(9.9944 0.0724968 0)
(10.0157 0.0751179 0)
(10.0289 0.0752128 0)
(10.0368 0.0745303 0)
(10.041 0.0737774 0)
(10.0428 0.0732219 0)
(10.0427 0.0729446 0)
(10.041 0.0729867 0)
(10.0378 0.0733835 0)
(10.0328 0.0743186 0)
(10.0256 0.0762041 0)
(10.0158 0.0800068 0)
(9.96406 -0.132092 0)
(9.84003 -0.131997 0)
(9.83337 -0.0877079 0)
(9.85306 -0.0213603 0)
(9.89928 0.0243793 0)
(9.94105 0.049473 0)
(9.97214 0.0620659 0)
(9.99396 0.0679259 0)
(10.0087 0.0704248 0)
(10.0185 0.0714619 0)
(10.0247 0.0719687 0)
(10.0283 0.0723974 0)
(10.0299 0.0729726 0)
(10.0299 0.0738465 0)
(10.0282 0.0751726 0)
(10.025 0.0772266 0)
(10.0199 0.0804708 0)
(10.0129 0.0856972 0)
(9.97418 -0.100208 0)
(9.87757 -0.112399 0)
(9.85857 -0.085385 0)
(9.86388 -0.0323619 0)
(9.89488 0.00888988 0)
(9.92745 0.0351766 0)
(9.95445 0.0506447 0)
(9.97511 0.0593501 0)
(9.99023 0.0642047 0)
(10.001 0.0670603 0)
(10.0085 0.0689666 0)
(10.0136 0.0705191 0)
(10.0167 0.072069 0)
(10.0181 0.0738758 0)
(10.0181 0.0761828 0)
(10.0166 0.0793149 0)
(10.0136 0.0837189 0)
(10.0094 0.0900046 0)
(9.98253 -0.0727128 0)
(9.91035 -0.0922062 0)
(9.88507 -0.0782652 0)
(9.88002 -0.0386404 0)
(9.89747 -0.00341953 0)
(9.92045 0.0221084 0)
(9.94201 0.0390935 0)
(9.96006 0.0499302 0)
(9.97432 0.0568356 0)
(9.98524 0.0614294 0)
(9.99345 0.0647615 0)
(9.99948 0.0675012 0)
(10.0037 0.0700958 0)
(10.0065 0.0728789 0)
(10.0079 0.0761554 0)
(10.0081 0.0802574 0)
(10.0073 0.0855708 0)
(10.0057 0.0925273 0)
(9.98894 -0.0502608 0)
(9.93733 -0.0723886 0)
(9.91073 -0.0674709 0)
(9.89917 -0.0400192 0)
(9.90567 -0.0117014 0)
(9.91957 0.0113803 0)
(9.935 0.0284265 0)
(9.94939 0.0404263 0)
(9.96175 0.0488131 0)
(9.97193 0.0548485 0)
(9.98014 0.0594674 0)
(9.98663 0.0633396 0)
(9.99168 0.0669455 0)
(9.99549 0.0706612 0)
(9.99823 0.0748066 0)
(10.0001 0.079694 0)
(10.0012 0.0856234 0)
(10.002 0.0928886 0)
(9.99348 -0.0329134 0)
(9.9582 -0.0538224 0)
(9.93368 -0.0543084 0)
(9.91899 -0.0368271 0)
(9.91756 -0.015511 0)
(9.92367 0.00391466 0)
(9.93304 0.0196631 0)
(9.94321 0.0317208 0)
(9.95293 0.0408055 0)
(9.96166 0.0477657 0)
(9.96925 0.0533421 0)
(9.97573 0.0581245 0)
(9.9812 0.0625719 0)
(9.98579 0.0670506 0)
(9.98963 0.0718647 0)
(9.99289 0.077274 0)
(9.99577 0.0835119 0)
(9.99853 0.0907384 0)
(9.99643 -0.0202079 0)
(9.97327 -0.0372222 0)
(9.95261 -0.0400724 0)
(9.93731 -0.0298537 0)
(9.9309 -0.0148856 0)
(9.93103 0.000280795 0)
(9.93505 0.0136579 0)
(9.94106 0.0246876 0)
(9.94783 0.0335604 0)
(9.95466 0.0407453 0)
(9.96118 0.046755 0)
(9.96724 0.0520456 0)
(9.9728 0.0570051 0)
(9.97788 0.0619433 0)
(9.98256 0.067119 0)
(9.98695 0.0727327 0)
(9.99121 0.0789414 0)
(9.99554 0.0858368 0)
(9.99816 -0.0112935 0)
(9.9833 -0.0229437 0)
(9.96682 -0.0257908 0)
(9.95243 -0.0201214 0)
(9.94344 -0.0103059 0)
(9.93953 0.000587145 0)
(9.93941 0.0109131 0)
(9.94183 0.0199922 0)
(9.94582 0.0277335 0)
(9.95068 0.0343369 0)
(9.95596 0.040103 0)
(9.96137 0.0453435 0)
(9.96677 0.0503335 0)
(9.9721 0.0553089 0)
(9.97735 0.0604508 0)
(9.98257 0.0659023 0)
(9.98786 0.0717487 0)
(9.99332 0.0780389 0)
(9.99906 -0.0050867 0)
(9.98922 -0.0107944 0)
(9.97612 -0.0119449 0)
(9.96309 -0.00852738 0)
(9.9531 -0.00249831 0)
(9.94685 0.00449168 0)
(9.94399 0.0114432 0)
(9.94383 0.017874 0)
(9.94568 0.0236562 0)
(9.94894 0.028858 0)
(9.95314 0.0336355 0)
(9.95795 0.0381656 0)
(9.96315 0.0426135 0)
(9.9686 0.0471179 0)
(9.97424 0.0517834 0)
(9.98004 0.0566821 0)
(9.98604 0.0618498 0)
(9.99226 0.0672899 0)
(9.99942 -0.00037293 0)
(9.99181 0.000137318 0)
(9.98042 0.00180383 0)
(9.96821 0.00455071 0)
(9.9579 0.00785812 0)
(9.9506 0.0113192 0)
(9.94641 0.0147083 0)
(9.94496 0.0179523 0)
(9.94574 0.0210643 0)
(9.94821 0.0241145 0)
(9.95194 0.0271808 0)
(9.95654 0.0303443 0)
(9.96178 0.0336652 0)
(9.96747 0.0371912 0)
(9.97348 0.0409445 0)
(9.97977 0.0449336 0)
(9.98628 0.0491428 0)
(9.99302 0.0535444 0)
(9.99935 0.00407962 0)
(9.9911 0.011156 0)
(9.97897 0.0161046 0)
(9.96616 0.0186942 0)
(9.95552 0.0195555 0)
(9.94818 0.0194708 0)
(9.94418 0.0190637 0)
(9.94309 0.0187417 0)
(9.94434 0.0187481 0)
(9.94737 0.0191967 0)
(9.95168 0.0201317 0)
(9.95691 0.021546 0)
(9.96277 0.0234125 0)
(9.96907 0.025685 0)
(9.97569 0.0283158 0)
(9.98252 0.0312458 0)
(9.98954 0.034422 0)
(9.99669 0.0377785 0)
(9.99882 0.00972523 0)
(9.98675 0.0240296 0)
(9.97122 0.0318178 0)
(9.95642 0.0332532 0)
(9.94558 0.0306522 0)
(9.93941 0.0262843 0)
(9.93733 0.0216678 0)
(9.93842 0.0176398 0)
(9.94182 0.0145748 0)
(9.94681 0.0125639 0)
(9.95284 0.0115548 0)
(9.95953 0.0114263 0)
(9.96663 0.012044 0)
(9.97395 0.0132713 0)
(9.9814 0.0149874 0)
(9.98891 0.017081 0)
(9.99645 0.0194582 0)
(10.004 0.0220331 0)
(9.99757 0.0182062 0)
(9.97774 0.0404365 0)
(9.95664 0.049549 0)
(9.93945 0.047441 0)
(9.92961 0.0393764 0)
(9.92658 0.0295937 0)
(9.92847 0.0204257 0)
(9.93354 0.0128935 0)
(9.9405 0.00725739 0)
(9.94849 0.00341007 0)
(9.95695 0.00108796 0)
(9.96556 6.68094e-06 0)
(9.97415 -9.63925e-05 0)
(9.98261 0.000550791 0)
(9.99092 0.00176394 0)
(9.99906 0.00339179 0)
(10.0071 0.00531231 0)
(10.0149 0.00742895 0)
(9.99502 0.0318115 0)
(9.96177 0.0621162 0)
(9.93372 0.0695252 0)
(9.91535 0.0600791 0)
(9.90933 0.0439096 0)
(9.91249 0.0276155 0)
(9.92084 0.013949 0)
(9.9316 0.0035841 0)
(9.94318 -0.00369732 0)
(9.95472 -0.00843929 0)
(9.96584 -0.0112154 0)
(9.97638 -0.0125149 0)
(9.98634 -0.0127336 0)
(9.99577 -0.0121643 0)
(10.0047 -0.0110418 0)
(10.0133 -0.00953237 0)
(10.0215 -0.00776789 0)
(10.0294 -0.0058454 0)
(9.99018 0.0534596 0)
(9.93561 0.0901371 0)
(9.90098 0.0906039 0)
(9.88515 0.0687243 0)
(9.88781 0.0417824 0)
(9.90123 0.0186244 0)
(9.91856 0.00138342 0)
(9.93625 -0.0104262 0)
(9.95282 -0.0179671 0)
(9.96779 -0.0224025 0)
(9.98116 -0.0246703 0)
(9.99314 -0.0254482 0)
(10.004 -0.0252145 0)
(10.0139 -0.0242921 0)
(10.023 -0.0229222 0)
(10.0316 -0.0212719 0)
(10.0396 -0.0194501 0)
(10.0473 -0.0175354 0)
(9.9819 0.0862456 0)
(9.89548 0.124246 0)
(9.85818 0.109863 0)
(9.8521 0.0697443 0)
(9.87036 0.030305 0)
(9.89845 0.00141923 0)
(9.92659 -0.0172228 0)
(9.95135 -0.0283344 0)
(9.9722 -0.0343907 0)
(9.98955 -0.0372613 0)
(10.0041 -0.0381413 0)
(10.0165 -0.0377998 0)
(10.0273 -0.036676 0)
(10.0369 -0.0351101 0)
(10.0456 -0.033288 0)
(10.0536 -0.031358 0)
(10.0611 -0.02937 0)
(10.0681 -0.0273771 0)
(9.96925 0.133989 0)
(9.83823 0.16308 0)
(9.80793 0.122573 0)
(9.82312 0.0587729 0)
(9.86515 0.00727508 0)
(9.91143 -0.0240539 0)
(9.95038 -0.0406031 0)
(9.98053 -0.0483538 0)
(10.0035 -0.0511713 0)
(10.0212 -0.0513677 0)
(10.0351 -0.0502471 0)
(10.0466 -0.0484086 0)
(10.0562 -0.0462588 0)
(10.0645 -0.0439282 0)
(10.0719 -0.041602 0)
(10.0786 -0.0393598 0)
(10.0849 -0.0372213 0)
(10.0908 -0.0351445 0)
(9.94951 0.20714 0)
(9.76128 0.207016 0)
(9.75726 0.123462 0)
(9.81043 0.0319852 0)
(9.88385 -0.0278967 0)
(9.94879 -0.0560293 0)
(9.99532 -0.0660788 0)
(10.0267 -0.0678125 0)
(10.0481 -0.0659894 0)
(10.063 -0.0629267 0)
(10.074 -0.0596107 0)
(10.0826 -0.0563278 0)
(10.0895 -0.0531835 0)
(10.0954 -0.0501908 0)
(10.1005 -0.0474081 0)
(10.1051 -0.0449864 0)
(10.1095 -0.0427823 0)
(10.1138 -0.040663 0)
(9.91094 0.322718 0)
(9.65922 0.254541 0)
(9.71887 0.107393 0)
(9.8333 -0.0119499 0)
(9.94177 -0.0726951 0)
(10.0199 -0.0902179 0)
(10.0662 -0.0893498 0)
(10.0918 -0.0832765 0)
(10.1061 -0.0763347 0)
(10.1143 -0.07021 0)
(10.1194 -0.0651074 0)
(10.123 -0.0606953 0)
(10.1256 -0.0568286 0)
(10.1276 -0.053389 0)
(10.1292 -0.050309 0)
(10.1305 -0.0479191 0)
(10.1322 -0.0457962 0)
(10.134 -0.0437872 0)
(9.84404 0.43511 0)
(9.53797 0.261024 0)
(9.7269 0.0591224 0)
(9.92369 -0.0731424 0)
(10.0584 -0.121603 0)
(10.1345 -0.120265 0)
(10.1665 -0.105335 0)
(10.1757 -0.0910437 0)
(10.1757 -0.0798269 0)
(10.1724 -0.071735 0)
(10.1684 -0.0660333 0)
(10.1644 -0.061146 0)
(10.1605 -0.0568706 0)
(10.1567 -0.0529147 0)
(10.1528 -0.049546 0)
(10.1495 -0.0474794 0)
(10.1472 -0.0457742 0)
(10.1455 -0.0441594 0)
(9.83598 0.319666 0)
(9.5502 0.0912488 0)
(9.91738 -0.0687333 0)
(10.1507 -0.160133 0)
(10.2635 -0.172178 0)
(10.3033 -0.142806 0)
(10.2976 -0.112197 0)
(10.2753 -0.0909373 0)
(10.2514 -0.0770509 0)
(10.2303 -0.0683372 0)
(10.213 -0.0632971 0)
(10.1982 -0.0589622 0)
(10.1849 -0.0545819 0)
(10.1719 -0.0493833 0)
(10.1593 -0.0449984 0)
(10.149 -0.0437998 0)
(10.1408 -0.0416007 0)
(10.1332 -0.0383343 0)
(10.2049 -0.0633778 0)
(10.4095 -0.19171 0)
(10.7164 -0.282555 0)
(10.6879 -0.282291 0)
(10.6191 -0.230114 0)
(10.5417 -0.163739 0)
(10.4538 -0.117597 0)
(10.3752 -0.0935971 0)
(10.3137 -0.0804906 0)
(10.2655 -0.0697679 0)
(10.2262 -0.0604112 0)
(10.1921 -0.0558238 0)
(10.1627 -0.0543306 0)
(10.1332 -0.0543897 0)
(10.1069 -0.053042 0)
(10.0874 -0.0465809 0)
(10.068 -0.0414935 0)
(10.0488 -0.0392877 0)
(9.41631 4.45107 0)
(12.7294 2.07612 0)
(12.5649 0.621224 0)
(11.5691 0.127667 0)
(10.9311 0.00343188 0)
(10.5863 -0.00224904 0)
(10.3631 0.0139535 0)
(10.2009 0.0314191 0)
(10.0783 0.0453391 0)
(9.97735 0.045201 0)
(9.88479 0.0336831 0)
(9.79988 0.0308612 0)
(9.7214 0.0319221 0)
(9.65746 0.034752 0)
(9.60335 0.0311615 0)
(9.54655 0.00465336 0)
(9.49266 -0.000958824 0)
(9.44439 -0.0259124 0)
(-0.0248886 0.0907208 0)
(0.137642 -0.182784 0)
(0.326011 -0.304527 0)
(0.525732 -0.313472 0)
(0.702281 -0.270639 0)
(0.831667 -0.209917 0)
(0.906933 -0.145183 -8.59327e-20)
(0.936585 -0.0813294 8.66455e-20)
(0.914578 -0.0191234 0)
(0.853 0.0354925 9.2048e-20)
(0.765266 0.0745578 0)
(0.66585 0.092082 0)
(0.572282 0.0873045 0)
(0.500071 0.0660227 -1.44006e-19)
(0.450216 0.0372344 0)
(0.405855 0.0101034 0)
(0.344972 -0.00778505 1.89322e-19)
(0.257524 -0.00687723 0)
(0.122856 0.0152837 0)
(-0.0744955 0.112079 0)
(-0.307836 0.203787 -1.41806e-19)
(-0.602923 0.246485 0)
(-0.929833 0.269521 -7.48148e-20)
(-1.2651 0.296786 0)
(-1.60366 0.323578 0)
(-1.94255 0.336018 -4.1125e-20)
(-2.27399 0.335017 0)
(-2.59018 0.325701 3.44458e-20)
(-2.88793 0.309441 0)
(-3.16395 0.288595 -3.12882e-20)
(-3.41732 0.26547 0)
(-3.64771 0.241635 0)
(-3.85584 0.218113 0)
(-4.04282 0.195597 0)
(-4.2101 0.174458 0)
(-4.35922 0.154897 2.82034e-20)
(-4.49177 0.136945 0)
(-4.60923 0.120528 -5.55201e-20)
(-4.71298 0.105519 0)
(-4.80421 0.0917598 5.47215e-20)
(-4.88398 0.0790868 0)
(-4.95318 0.0673497 0)
(-5.01256 0.0564214 -5.34984e-20)
(-5.06273 0.0462064 0)
(-5.1042 0.0366463 -5.26057e-20)
(-5.13737 0.0277252 5.21273e-20)
(-5.16263 0.0194892 0)
(-5.18038 0.0120856 5.10993e-20)
(-5.19088 0.00577846 5.05469e-20)
(-5.1943 0.00070695 0)
(-5.19191 -0.00321368 0)
(-5.18494 -0.00645885 0)
(-5.1735 -0.00940885 0)
(-5.15793 -0.0121175 0)
(-5.13839 -0.0146846 -4.61217e-20)
(-5.115 -0.0171235 0)
(-5.08789 -0.0194457 4.42549e-20)
(-5.05715 -0.0216601 0)
(-5.0229 -0.0237688 0)
(-4.98523 -0.0257739 -4.10742e-20)
(-4.94424 -0.0276755 0)
(-4.90004 -0.0294739 3.86967e-20)
(-4.85275 -0.0311688 0)
(-4.80247 -0.0327604 0)
(-4.74932 -0.0342486 0)
(-4.69343 -0.0356335 -3.3313e-20)
(-4.63491 -0.0369157 0)
(-4.57389 -0.0380961 0)
(-4.5105 -0.0391755 -2.87118e-20)
(-4.44486 -0.0401545 0)
(-4.37711 -0.0410345 -2.53675e-20)
(-4.30738 -0.0418162 0)
(-4.2358 -0.0425006 0)
(-4.1625 -0.0430882 0)
(-4.08761 -0.0435792 1.79828e-20)
(-4.01127 -0.0439737 0)
(-3.9336 -0.0442718 0)
(-3.85473 -0.0444742 1.17945e-20)
(-3.77478 -0.0445829 9.59871e-21)
(-3.69388 -0.0446019 0)
(-3.61216 -0.0445377 4.99338e-21)
(-3.52971 -0.0443993 0)
(-3.44667 -0.0441973 1.64274e-22)
(-3.36313 -0.0439427 0)
(-3.27919 -0.0436449 -1.03341e-20)
(-3.19495 -0.0433123 0)
(-3.11048 -0.0429533 2.15898e-20)
(-3.02589 -0.0425803 0)
(-2.94122 -0.0422158 0)
(-2.85655 -0.0418993 0)
(-2.7719 -0.0416925 -4.68187e-20)
(-2.68732 -0.0416798 0)
(-2.60279 -0.0419527 6.11163e-20)
(-2.5183 -0.0425671 0)
(-2.43379 -0.0434616 -7.68112e-20)
(-2.34954 -0.0443598 -8.52024e-20)
(-2.26578 -0.0448012 -9.39229e-20)
(-2.18276 -0.044581 0)
(-2.10066 -0.0439719 0)
(-2.01948 -0.0432731 0)
(-1.93925 -0.0425682 0)
(-1.85997 -0.0418682 0)
(-1.78166 -0.0411739 0)
(-1.70436 -0.0404873 0)
(-1.62808 -0.039812 0)
(-1.55284 -0.0391539 1.93211e-19)
(-1.47867 -0.0385201 2.07562e-19)
(-1.40558 -0.037916 0)
(-1.33357 -0.0373301 0)
(-1.26269 -0.0367042 0)
(-1.19296 -0.0360463 2.74986e-19)
(-1.12439 -0.0354134 0)
(-1.05698 -0.0347987 0)
(-0.990738 -0.0342041 0)
(-0.925657 -0.033631 0)
(-0.86174 -0.0330818 -3.91957e-19)
(-0.798986 -0.0325588 0)
(-0.73739 -0.0320652 0)
(-0.676947 -0.0316046 4.90476e-19)
(-0.617649 -0.0311783 -5.30328e-19)
(-0.559491 -0.0307901 0)
(-0.502463 -0.0304507 -6.24335e-19)
(-0.446553 -0.0301845 0)
(-0.391741 -0.0300369 7.43893e-19)
(-0.338006 -0.0300163 0)
(-0.285335 -0.0300837 0)
(-0.233712 -0.0302276 0)
(-0.183107 -0.0304592 0)
(-0.133498 -0.0307942 0)
(-0.084929 -0.0312518 -2.86128e-18)
(-0.0376224 -0.0317062 -3.29613e-18)
(0.00849709 -0.0313623 0)
(0.0539424 -0.029821 0)
(0.0986988 -0.0279675 0)
(0.14263 -0.026254 2.67699e-18)
(0.185646 -0.0247251 0)
(0.227729 -0.0233546 0)
(0.268903 -0.0221197 0)
(0.309199 -0.0210002 2.0357e-18)
(0.348647 -0.0199791 -1.92989e-18)
(0.387275 -0.0190423 0)
(0.42511 -0.0181783 0)
(0.462178 -0.0173778 -1.68407e-18)
(0.498503 -0.0166336 -1.61963e-18)
(0.534108 -0.0159394 0)
(0.569014 -0.0152903 0)
(0.603243 -0.0146821 1.46185e-18)
(0.636818 -0.0141113 -1.41849e-18)
(0.669759 -0.0135748 0)
(0.702091 -0.0130699 0)
(0.733836 -0.0125942 -1.30851e-18)
(0.765018 -0.0121457 0)
(0.795661 -0.0117226 0)
(0.825788 -0.0113233 -1.22121e-18)
(0.855423 -0.0109465 0)
(0.884591 -0.0105907 -1.17225e-18)
(0.913314 -0.010255 0)
(0.941618 -0.00993792 0)
(0.969524 -0.00963886 0)
(0.997055 -0.00935626 1.09048e-18)
(1.02423 -0.00908949 0)
(1.05108 -0.00883678 0)
(1.07761 -0.00859726 0)
(1.10383 -0.00836855 0)
(1.12976 -0.00814906 0)
(1.15541 -0.00793523 0)
(1.18075 -0.00772391 9.82075e-19)
(1.20578 -0.00750925 9.69211e-19)
(1.23045 -0.00728496 0)
(1.25469 -0.00704074 0)
(1.27839 -0.00676394 0)
(1.30139 -0.00643464 -9.24098e-19)
(1.32346 -0.00602549 0)
(1.34418 -0.00549238 1.81333e-18)
(1.36311 -0.00476165 -1.80004e-18)
(1.37881 -0.00371151 -1.79155e-18)
(1.39142 -0.00195739 1.78965e-18)
(1.39168 0.00137788 -1.79576e-18)
(1.38906 0.00811231 1.80808e-18)
(1.30957 0.0198611 0)
(0.0970379 -0.272556 0)
(0.332992 -0.681748 0)
(0.512757 -0.704795 1.57182e-19)
(0.60979 -0.568808 0)
(0.660303 -0.406136 -1.11202e-19)
(0.680182 -0.251042 -1.08218e-19)
(0.673608 -0.109412 -5.63574e-20)
(0.642666 0.0182882 -5.62831e-20)
(0.599341 0.127889 0)
(0.539635 0.213966 -6.0968e-20)
(0.462279 0.268671 0)
(0.367172 0.283372 0)
(0.25047 0.255646 1.71507e-19)
(0.101741 0.21129 9.89543e-20)
(-0.0847259 0.208746 -1.83746e-19)
(-0.312488 0.276247 -1.42101e-19)
(-0.591546 0.388108 -5.65508e-20)
(-0.917316 0.516762 0)
(-1.2715 0.643534 0)
(-1.62891 0.75571 0)
(-1.98219 0.841427 -2.83361e-20)
(-2.32782 0.8947 0)
(-2.65733 0.917497 6.88153e-20)
(-2.96327 0.913451 0)
(-3.24189 0.88661 0)
(-3.49139 0.842155 1.98023e-20)
(-3.71063 0.785478 0)
(-3.90047 0.722076 -1.97547e-20)
(-4.06292 0.656119 -4.17809e-20)
(-4.2015 0.590287 2.01673e-20)
(-4.31912 0.526687 0)
(-4.41866 0.467065 0)
(-4.50282 0.412232 0)
(-4.57399 0.362529 -4.42444e-20)
(-4.63421 0.317907 -4.47482e-20)
(-4.68516 0.278091 -2.21823e-20)
(-4.7282 0.242669 0)
(-4.76444 0.21116 4.52851e-20)
(-4.79475 0.183067 0)
(-4.81986 0.157911 -4.58504e-20)
(-4.84033 0.135255 0)
(-4.85667 0.114707 0)
(-4.86929 0.0959268 4.60533e-20)
(-4.87856 0.0786277 0)
(-4.88481 0.0625703 1.38048e-19)
(-4.88838 0.047562 -4.55683e-20)
(-4.88952 0.0334692 0)
(-4.88848 0.0202642 -4.48962e-20)
(-4.88552 0.00806526 -4.44375e-20)
(-4.88092 -0.00296457 0)
(-4.87373 -0.0128887 0)
(-4.86286 -0.0220041 0)
(-4.8483 -0.0305471 0)
(-4.82997 -0.0386329 0)
(-4.80788 -0.0463307 4.01666e-20)
(-4.7821 -0.0536769 7.90625e-20)
(-4.75271 -0.0606924 -3.8388e-20)
(-4.71978 -0.0673882 0)
(-4.68341 -0.07377 7.33804e-20)
(-4.64368 -0.0798402 -3.59135e-20)
(-4.60071 -0.0855995 0)
(-4.55458 -0.0910475 -3.32116e-20)
(-4.50541 -0.0961841 0)
(-4.4533 -0.101011 0)
(-4.39837 -0.105529 -5.97777e-20)
(-4.34073 -0.109739 2.8327e-20)
(-4.2805 -0.11364 -5.4583e-20)
(-4.21781 -0.117236 5.18626e-20)
(-4.15277 -0.120531 2.42327e-20)
(-4.08551 -0.123528 0)
(-4.01617 -0.126233 2.12977e-20)
(-3.94487 -0.128652 0)
(-3.87173 -0.130792 0)
(-3.79688 -0.132659 0)
(-3.72047 -0.134263 1.55683e-20)
(-3.6426 -0.135611 0)
(-3.5634 -0.136715 2.36264e-20)
(-3.48301 -0.137583 -2.9759e-20)
(-3.40153 -0.138227 -7.86852e-21)
(-3.31909 -0.138657 0)
(-3.2358 -0.138885 -4.06522e-21)
(-3.15178 -0.138922 0)
(-3.06713 -0.138778 -1.34024e-22)
(-2.98196 -0.138465 0)
(-2.89637 -0.137994 8.27841e-21)
(-2.81045 -0.137376 -2.39108e-20)
(-2.72432 -0.136624 -1.71398e-20)
(-2.63805 -0.135748 0)
(-2.55175 -0.134757 0)
(-2.46549 -0.133656 0)
(-2.37938 -0.132447 3.63782e-20)
(-2.29352 -0.131119 0)
(-2.20806 -0.129645 -4.68614e-20)
(-2.12315 -0.127969 0)
(-2.03891 -0.126038 1.72535e-19)
(-1.95543 -0.123878 6.38575e-20)
(-1.87271 -0.121594 6.9896e-20)
(-1.7907 -0.11929 0)
(-1.70937 -0.117022 0)
(-1.62879 -0.114788 0)
(-1.54901 -0.112566 0)
(-1.47008 -0.110342 0)
(-1.39206 -0.108111 2.20063e-19)
(-1.31496 -0.105874 2.35577e-19)
(-1.23883 -0.103635 0)
(-1.16368 -0.101396 -1.35082e-19)
(-1.08954 -0.0991608 -1.43876e-19)
(-1.01645 -0.0969302 0)
(-0.944415 -0.0947065 -3.23766e-19)
(-0.873459 -0.0924943 0)
(-0.803573 -0.0903072 1.81724e-19)
(-0.734768 -0.0881508 0)
(-0.667054 -0.0860253 0)
(-0.600436 -0.0839332 -4.35384e-19)
(-0.534916 -0.0818757 0)
(-0.470495 -0.0798545 2.45354e-19)
(-0.407172 -0.0778728 0)
(-0.344947 -0.0759363 0)
(-0.283814 -0.0740536 2.90395e-19)
(-0.223762 -0.0722226 3.09744e-19)
(-0.164786 -0.0704379 0)
(-0.106881 -0.0687028 -3.47138e-19)
(-0.0500508 -0.0670171 0)
(0.00570665 -0.065372 3.83043e-19)
(0.0604342 -0.0637609 7.66072e-19)
(0.114164 -0.0621958 0)
(0.166897 -0.060691 0)
(0.218632 -0.0592508 0)
(0.269386 -0.0578727 0)
(0.319191 -0.0565591 7.09121e-19)
(0.36812 -0.0552976 2.09609e-18)
(0.416261 -0.0539096 0)
(0.463513 -0.0522515 0)
(0.509741 -0.0504731 0)
(0.555021 -0.0487259 -6.65493e-19)
(0.599432 -0.0470587 0)
(0.643001 -0.045479 0)
(0.685746 -0.0439843 1.28763e-18)
(0.727686 -0.0425678 6.36793e-19)
(0.768844 -0.0412224 6.32263e-19)
(0.809241 -0.0399411 0)
(0.848899 -0.0387187 0)
(0.887838 -0.0375504 6.15701e-19)
(0.926081 -0.036433 -6.09459e-19)
(0.963649 -0.0353632 0)
(1.00056 -0.0343391 0)
(1.03684 -0.0333584 -5.96586e-19)
(1.07251 -0.0324198 1.77577e-18)
(1.10758 -0.0315212 0)
(1.14209 -0.0306617 0)
(1.17604 -0.0298392 5.80107e-19)
(1.20947 -0.029053 0)
(1.2424 -0.0283016 1.1445e-18)
(1.27485 -0.0275844 -5.68323e-19)
(1.30683 -0.0268999 0)
(1.33838 -0.0262475 5.62222e-19)
(1.36952 -0.0256258 1.11718e-18)
(1.40027 -0.0250339 0)
(1.43064 -0.0244704 0)
(1.46067 -0.0239339 -5.4943e-19)
(1.49036 -0.0234225 0)
(1.51974 -0.0229338 1.08621e-18)
(1.54883 -0.0224653 0)
(1.57763 -0.0220129 0)
(1.60615 -0.0215718 0)
(1.6344 -0.0211353 0)
(1.66237 -0.0206947 -5.28982e-19)
(1.69003 -0.0202377 -5.26238e-19)
(1.71736 -0.0197482 0)
(1.74428 -0.0192031 0)
(1.77072 -0.0185713 0)
(1.79653 -0.0178065 5.16251e-19)
(1.8215 -0.0168424 0)
(1.8453 -0.0155745 -1.02521e-18)
(1.86752 -0.0138283 1.023e-18)
(1.88725 -0.0113137 1.02275e-18)
(1.904 -0.00730122 1.02375e-18)
(1.91422 -0.000504846 1.02934e-18)
(1.92644 0.0124701 1.02066e-18)
(1.90691 0.0362513 0)
(0.118521 -0.861611 0)
(0.266657 -1.05237 0)
(0.313515 -0.822526 -1.25655e-19)
(0.312595 -0.580647 -1.08163e-19)
(0.294876 -0.370191 1.00634e-19)
(0.263323 -0.185059 1.00905e-19)
(0.216731 -0.0196259 -6.43426e-22)
(0.1544 0.128041 0)
(0.0761802 0.25842 0)
(-0.0191899 0.369018 0)
(-0.135386 0.454215 0)
(-0.280615 0.514972 0)
(-0.467865 0.569254 -2.65691e-19)
(-0.707243 0.645168 0)
(-0.994348 0.758783 6.57925e-20)
(-1.31315 0.900808 5.67808e-20)
(-1.64585 1.04795 0)
(-1.97592 1.18043 0)
(-2.28851 1.28617 0)
(-2.57152 1.35907 0)
(-2.81917 1.39426 3.48141e-20)
(-3.03171 1.39072 0)
(-3.21054 1.35352 -3.22847e-20)
(-3.35874 1.29047 0)
(-3.48066 1.20883 0)
(-3.58087 1.11493 0)
(-3.66417 1.01476 -6.85545e-20)
(-3.73489 0.913607 0)
(-3.79654 0.815538 3.31181e-20)
(-3.85185 0.723292 -7.06837e-20)
(-3.90273 0.638355 0)
(-3.95045 0.561439 0)
(-3.99575 0.492577 0)
(-4.03899 0.431377 3.65575e-20)
(-4.08028 0.377187 3.71415e-20)
(-4.11956 0.329235 0)
(-4.1567 0.286728 0)
(-4.19153 0.24891 -7.77549e-20)
(-4.22387 0.21509 -7.8143e-20)
(-4.25355 0.184661 7.83714e-20)
(-4.28043 0.15711 0)
(-4.30441 0.132011 0)
(-4.32538 0.109018 0)
(-4.34328 0.0878489 0)
(-4.35805 0.0682725 -7.69402e-20)
(-4.36963 0.0500901 -7.68391e-20)
(-4.37794 0.0331184 7.61943e-20)
(-4.38286 0.0171566 0)
(-4.38421 0.00194821 0)
(-4.38182 -0.0127935 0)
(-4.37566 -0.0271946 0)
(-4.36577 -0.0411667 -7.10218e-20)
(-4.3522 -0.0546224 0)
(-4.33501 -0.0675485 0)
(-4.31421 -0.0799494 -6.69075e-20)
(-4.28988 -0.0918336 -6.48809e-20)
(-4.26206 -0.103208 0)
(-4.23084 -0.114078 1.2439e-19)
(-4.19629 -0.124444 -5.99402e-20)
(-4.15849 -0.134306 5.81627e-20)
(-4.11754 -0.143663 0)
(-4.07352 -0.152511 0)
(-4.02655 -0.16085 0)
(-3.97672 -0.168679 0)
(-3.92414 -0.175999 4.83262e-20)
(-3.86892 -0.182814 9.3582e-20)
(-3.81117 -0.189122 4.39588e-20)
(-3.75102 -0.194925 -4.16856e-20)
(-3.68859 -0.200232 0)
(-3.62398 -0.205047 7.52218e-20)
(-3.55734 -0.20938 7.03363e-20)
(-3.48878 -0.213238 6.53341e-20)
(-3.41843 -0.216633 -6.02161e-20)
(-3.34641 -0.219576 0)
(-3.27285 -0.222079 -7.37731e-20)
(-3.19787 -0.224156 0)
(-3.12159 -0.225821 1.99827e-20)
(-3.04414 -0.22709 1.57581e-20)
(-2.96564 -0.227979 0)
(-2.88619 -0.228504 0)
(-2.80593 -0.228682 1.51196e-20)
(-2.72495 -0.228532 0)
(-2.64338 -0.228072 2.67668e-21)
(-2.56131 -0.227321 0)
(-2.47885 -0.226299 1.02542e-20)
(-2.39611 -0.225024 3.52437e-20)
(-2.31318 -0.223515 0)
(-2.23017 -0.221793 0)
(-2.14716 -0.219874 0)
(-2.06425 -0.217777 4.48604e-20)
(-1.98154 -0.215517 0)
(-1.89912 -0.213105 5.96929e-20)
(-1.8171 -0.210543 0)
(-1.73555 -0.207815 0)
(-1.65456 -0.204895 -1.6767e-19)
(-1.57415 -0.201768 0)
(-1.49435 -0.198448 -9.9636e-20)
(-1.41515 -0.19498 0)
(-1.3366 -0.191421 -1.16931e-19)
(-1.25874 -0.187809 0)
(-1.18164 -0.18416 0)
(-1.10535 -0.180484 0)
(-1.0299 -0.176785 -4.63816e-19)
(-0.95534 -0.173071 -1.65429e-19)
(-0.881692 -0.169349 0)
(-0.808986 -0.165625 0)
(-0.737245 -0.161905 0)
(-0.666493 -0.158194 0)
(-0.596746 -0.154497 2.19283e-19)
(-0.528014 -0.150819 -4.59382e-19)
(-0.460306 -0.14717 -2.43145e-19)
(-0.393631 -0.143558 5.08633e-19)
(-0.328002 -0.139988 5.34464e-19)
(-0.263422 -0.136467 2.819e-19)
(-0.199893 -0.132997 0)
(-0.137418 -0.129578 6.17342e-19)
(-0.0759979 -0.126213 0)
(-0.0156332 -0.122905 -6.74378e-19)
(0.0436822 -0.119656 -3.45377e-19)
(0.101961 -0.116467 0)
(0.159211 -0.113341 6.93527e-19)
(0.215436 -0.110279 3.49024e-19)
(0.270648 -0.107284 0)
(0.324856 -0.104344 3.48902e-19)
(0.378069 -0.10145 -1.05332e-18)
(0.430295 -0.0986092 0)
(0.481548 -0.0958338 0)
(0.531846 -0.0931256 0)
(0.581205 -0.0904856 0)
(0.629649 -0.0879181 -7.08014e-19)
(0.677212 -0.0854304 -7.1049e-19)
(0.723916 -0.0830377 0)
(0.769725 -0.0807257 0)
(0.814626 -0.0784552 0)
(0.858673 -0.0762269 0)
(0.901908 -0.074057 0)
(0.944346 -0.0719535 0)
(0.986002 -0.0699192 -7.14164e-19)
(1.02689 -0.0679537 -1.08909e-21)
(1.06703 -0.0660556 0)
(1.10644 -0.0642225 0)
(1.14514 -0.0624525 -7.13939e-19)
(1.18315 -0.0607437 0)
(1.22049 -0.0590947 7.1496e-19)
(1.25718 -0.0575038 7.14085e-19)
(1.29324 -0.0559703 0)
(1.32869 -0.0544929 0)
(1.36356 -0.053071 -7.14584e-19)
(1.39785 -0.0517029 -1.42735e-18)
(1.4316 -0.0503883 0)
(1.46483 -0.0491252 0)
(1.49755 -0.0479135 0)
(1.52978 -0.0467514 -7.13244e-19)
(1.56156 -0.0456386 7.12862e-19)
(1.5929 -0.0445736 0)
(1.62381 -0.0435557 1.42286e-18)
(1.65433 -0.0425833 7.10415e-19)
(1.68448 -0.0416553 -1.42083e-18)
(1.71427 -0.0407697 0)
(1.74373 -0.0399247 0)
(1.77288 -0.0391174 -1.41711e-18)
(1.80172 -0.0383448 -7.08285e-19)
(1.83029 -0.0376023 0)
(1.85859 -0.0368844 0)
(1.88663 -0.0361835 0)
(1.91442 -0.0354895 0)
(1.94195 -0.0347891 -1.40724e-18)
(1.9692 -0.0340637 0)
(1.99616 -0.0332887 0)
(2.02276 -0.0324296 0)
(2.04894 -0.0314385 0)
(2.07457 -0.030247 0)
(2.0995 -0.0287544 0)
(2.12345 -0.0268086 -1.39839e-18)
(2.14608 -0.0241588 0)
(2.16674 -0.020398 0)
(2.18517 -0.0147358 -2.81846e-18)
(2.1986 -0.00584887 1.41951e-18)
(2.21325 0.0089235 -1.41738e-18)
(2.20815 0.0363273 1.41317e-18)
(0.0331864 -1.16421 0)
(0.0680435 -1.02539 3.60217e-19)
(0.03203 -0.742597 0)
(-0.0127828 -0.50215 1.10852e-19)
(-0.0686214 -0.279283 0)
(-0.137021 -0.0695452 0)
(-0.220832 0.127415 -8.2577e-20)
(-0.322436 0.310844 0)
(-0.443963 0.480318 0)
(-0.58805 0.63642 0)
(-0.758569 0.781757 0)
(-0.960715 0.922506 0)
(-1.19692 1.06672 2.03161e-19)
(-1.46123 1.2175 9.19944e-20)
(-1.73901 1.36828 -8.33252e-20)
(-2.01196 1.50566 0)
(-2.26463 1.61601 0)
(-2.48728 1.69028 0)
(-2.67527 1.72501 0)
(-2.82706 1.72172 0)
(-2.94516 1.68418 6.00533e-20)
(-3.03527 1.61739 5.87508e-20)
(-3.10363 1.52828 -5.79177e-20)
(-3.15655 1.42463 5.76376e-20)
(-3.19936 1.31309 0)
(-3.23634 1.19903 0)
(-3.27092 1.08676 5.58363e-20)
(-3.30539 0.979505 0)
(-3.34101 0.879337 0)
(-3.37826 0.787261 5.86928e-20)
(-3.41714 0.7035 6.14968e-20)
(-3.45731 0.627817 6.22062e-20)
(-3.49822 0.559673 0)
(-3.53926 0.498373 0)
(-3.57983 0.443158 -6.40069e-20)
(-3.61937 0.393273 0)
(-3.65738 0.348012 0)
(-3.69345 0.306735 6.42733e-20)
(-3.72725 0.268881 -6.59831e-20)
(-3.7585 0.233965 6.59911e-20)
(-3.78697 0.201575 0)
(-3.81247 0.171362 0)
(-3.83487 0.143033 1.29906e-19)
(-3.85403 0.116338 0)
(-3.86984 0.0910682 1.2851e-19)
(-3.88221 0.0670473 1.90857e-19)
(-3.89106 0.044133 -1.89211e-19)
(-3.89633 0.0222059 1.25203e-19)
(-3.89796 0.00114937 0)
(-3.89597 -0.019152 0)
(-3.89039 -0.0387745 1.19737e-19)
(-3.88127 -0.0577362 5.83368e-20)
(-3.86865 -0.0760334 0)
(-3.85255 -0.0936643 0)
(-3.83303 -0.110628 5.48284e-20)
(-3.81012 -0.126924 1.08106e-19)
(-3.78388 -0.14255 0)
(-3.75437 -0.157503 -1.0165e-19)
(-3.72167 -0.17178 9.98198e-20)
(-3.68584 -0.185375 -9.68466e-20)
(-3.64698 -0.198284 0)
(-3.60517 -0.210502 0)
(-3.5605 -0.222022 0)
(-3.51306 -0.232842 0)
(-3.46298 -0.242967 0)
(-3.41034 -0.252396 -7.5765e-20)
(-3.35526 -0.261129 0)
(-3.29786 -0.26917 0)
(-3.23823 -0.276527 0)
(-3.17652 -0.283209 -1.22294e-19)
(-3.11282 -0.289225 -5.65376e-20)
(-3.04726 -0.294588 -5.24346e-20)
(-2.97997 -0.299312 9.77002e-20)
(-2.91105 -0.303413 -4.51905e-20)
(-2.84064 -0.306906 3.96363e-20)
(-2.76886 -0.309812 0)
(-2.69581 -0.31215 -3.07085e-20)
(-2.62163 -0.313939 0)