/*--------------------------------*- C++ -*----------------------------------*\
  =========                 |
  \\      /  F ield         | OpenFOAM: The Open Source CFD Toolbox
   \\    /   O peration     | Website:  https://openfoam.org
    \\  /    A nd           | Version:  8
     \\/     M anipulation  |
\*---------------------------------------------------------------------------*/
FoamFile
{
    version     2.0;
    format      ascii;
    class       volScalarField;
    location    "500";
    object      p;
}
// * * * * * * * * * * * * * * * * * * * * * * * * * * * * * * * * * * * * * //

dimensions      [0 2 -2 0 0 0 0];

internalField   nonuniform List<scalar> 
12225
(
514.676
55.5281
2.36376
0.281623
-1.89888
-3.37447
-3.81175
-4.02221
-4.23202
-4.369
-4.41625
-4.426
-4.42916
-4.45734
-4.51102
-4.57792
-4.72387
-4.94805
-122.179
0.238869
-2.71846
-0.765176
-2.21658
-3.52506
-3.95283
-4.13698
-4.28073
-4.3848
-4.45983
-4.51827
-4.56938
-4.60197
-4.62317
-4.64913
-4.7163
-4.81138
-200.645
-16.1484
-2.34648
-0.358403
-1.90092
-3.24494
-3.77239
-4.02269
-4.19544
-4.31978
-4.41256
-4.4799
-4.52868
-4.55412
-4.56942
-4.58534
-4.61762
-4.60136
-110.616
-10.9741
-2.17719
-0.432115
-1.78785
-3.02896
-3.6015
-3.90874
-4.11807
-4.26395
-4.36642
-4.43722
-4.48609
-4.51486
-4.53242
-4.54053
-4.53977
-4.47136
-61.5728
-8.14589
-3.62266
-1.21012
-2.01537
-2.99853
-3.52946
-3.84928
-4.07186
-4.22662
-4.33435
-4.40911
-4.46061
-4.4919
-4.50737
-4.50497
-4.47895
-4.38892
-45.7308
-8.78533
-5.25887
-2.20047
-2.43012
-3.10131
-3.53682
-3.83384
-4.04989
-4.20379
-4.31294
-4.38977
-4.44234
-4.4734
-4.48511
-4.47452
-4.43455
-4.34003
-35.7947
-9.27658
-6.38066
-3.12491
-2.92214
-3.29027
-3.60423
-3.85517
-4.05065
-4.19591
-4.30198
-4.37787
-4.42959
-4.45944
-4.46849
-4.45399
-4.41006
-4.32299
-27.7781
-8.90736
-6.97412
-3.80317
-3.36222
-3.4991
-3.7012
-3.90074
-4.07016
-4.2025
-4.30234
-4.37518
-4.42519
-4.45412
-4.46255
-4.44832
-4.40736
-4.33259
-21.6902
-8.52032
-7.13482
-4.31103
-3.72951
-3.70671
-3.81704
-3.96544
-4.1058
-4.22213
-4.31327
-4.38141
-4.42895
-4.45698
-4.46575
-4.45384
-4.41884
-4.3578
-16.6129
-8.141
-7.08847
-4.75592
-4.08382
-3.93507
-3.95998
-4.05348
-4.1599
-4.25616
-4.33569
-4.39737
-4.44166
-4.46891
-4.47914
-4.47169
-4.44575
-4.40122
-12.6392
-7.68119
-6.90649
-5.10222
-4.40744
-4.17104
-4.12267
-4.16227
-4.23252
-4.30593
-4.37158
-4.42536
-4.46592
-4.49277
-4.5058
-4.50497
-4.49068
-4.46446
-9.69931
-7.1491
-6.62959
-5.32704
-4.67928
-4.39783
-4.29519
-4.28751
-4.32273
-4.37243
-4.423
-4.46807
-4.50476
-4.53185
-4.54904
-4.55663
-4.55571
-4.54837
-7.66637
-6.60504
-6.30635
-5.43201
-4.88371
-4.59795
-4.46437
-4.42125
-4.42657
-4.45439
-4.49041
-4.52704
-4.56037
-4.58858
-4.61109
-4.62829
-4.64133
-4.65219
-6.37127
-6.11337
-5.98607
-5.44073
-5.01634
-4.75819
-4.61679
-4.55316
-4.53718
-4.54779
-4.57189
-4.60175
-4.63302
-4.66346
-4.69222
-4.71943
-4.74599
-4.77331
-5.62301
-5.7227
-5.70936
-5.39122
-5.08632
-4.87343
-4.74223
-4.6727
-4.64572
-4.64594
-4.6626
-4.68871
-4.71999
-4.75401
-4.78964
-4.82665
-4.86543
-4.90673
-5.24369
-5.46049
-5.50843
-5.32788
-5.11537
-4.94832
-4.83605
-4.77108
-4.7424
-4.73955
-4.75423
-4.78051
-4.81444
-4.85357
-4.89653
-4.9427
-4.99196
-5.04449
-5.10243
-5.34456
-5.41724
-5.29924
-5.13522
-4.99611
-4.89845
-4.84056
-4.81545
-4.81525
-4.83309
-4.86368
-4.90326
-4.94929
-5.00017
-5.05494
-5.11308
-5.17438
-5.14014
-5.40034
-5.47444
-5.34828
-5.17446
-5.02872
-4.92845
-4.87123
-4.8493
-4.85414
-4.87832
-4.91614
-4.9635
-5.01757
-5.07645
-5.13895
-5.20431
-5.27209
-5.3924
-5.65476
-5.69045
-5.4753
-5.22606
-5.03567
-4.91454
-4.85144
-4.83238
-4.84464
-4.87828
-4.92611
-4.98324
-5.04643
-5.11358
-5.18334
-5.25493
-5.32792
-6.00177
-6.13657
-6.04232
-5.63478
-5.24676
-4.98697
-4.84041
-4.77545
-4.76591
-4.79227
-4.84082
-4.90266
-4.97219
-5.04601
-5.12204
-5.1991
-5.27654
-5.35414
-7.24937
-6.88919
-6.49384
-5.76151
-5.18271
-4.85255
-4.69591
-4.64573
-4.65964
-4.71015
-4.78037
-4.8604
-4.9447
-5.03024
-5.11547
-5.19965
-5.28252
-5.36422
-9.64087
-7.96425
-6.98225
-5.7715
-4.97915
-4.61172
-4.48147
-4.47322
-4.52805
-4.61337
-4.71113
-4.81228
-4.91238
-5.00965
-5.10353
-5.19406
-5.28157
-5.36657
-13.982
-9.39072
-7.40281
-5.56916
-4.59435
-4.26376
-4.21459
-4.2792
-4.39133
-4.51881
-4.64694
-4.76948
-4.88455
-4.99206
-5.09297
-5.18837
-5.27921
-5.36654
-20.8896
-10.9537
-7.55383
-5.05686
-4.01546
-3.83541
-3.92951
-4.09363
-4.27172
-4.44258
-4.59915
-4.74051
-4.86759
-4.98251
-5.08794
-5.1861
-5.27867
-5.36697
-29.7362
-11.9491
-7.03317
-4.12575
-3.26366
-3.37755
-3.67061
-3.94635
-4.18864
-4.39668
-4.5753
-4.72977
-4.86428
-4.9831
-5.09011
-5.18882
-5.28138
-5.36946
-43.1062
-12.6136
-5.47245
-2.72859
-2.41288
-2.96304
-3.48384
-3.86192
-4.15313
-4.38546
-4.5772
-4.7376
-4.87409
-4.99218
-5.09785
-5.19534
-5.28691
-5.37429
-84.5991
-17.3731
-3.66376
-1.26509
-1.69565
-2.72144
-3.43577
-3.8695
-4.17297
-4.41012
-4.60595
-4.76783
-4.89924
-5.00994
-5.11065
-5.2035
-5.29095
-5.37697
-177.885
-26.8493
-3.67983
-0.769874
-1.53474
-2.84269
-3.61369
-4.01482
-4.27058
-4.46665
-4.65016
-4.81579
-4.95139
-5.05609
-5.14189
-5.2214
-5.30085
-5.38326
-154.79
-9.62697
-3.27207
-1.06796
-1.84276
-3.22051
-3.91331
-4.2246
-4.417
-4.55858
-4.70107
-4.85408
-5.00261
-5.12577
-5.22043
-5.29366
-5.36121
-5.4426
428.057
66.6058
7.05628
1.59975
-0.915258
-2.85656
-3.65258
-3.99425
-4.30987
-4.57627
-4.70737
-4.75279
-4.80123
-4.89035
-5.00821
-5.13522
-5.24847
-5.33017
-8.52581
-8.51297
-8.50229
-8.54362
-8.63668
-8.74045
-8.82046
-8.86055
-8.86426
-8.8466
-8.81916
-8.79054
-8.7688
-8.75992
-8.76487
-8.77749
-8.7887
-8.79379
-8.79286
-8.79034
-8.7943
-8.82684
-8.91695
-9.08804
-9.34091
-9.65858
-10.0296
-10.4434
-10.8844
-11.3365
-11.7845
-12.2165
-12.6233
-12.9982
-13.3369
-13.6369
-13.8972
-14.118
-14.2997
-14.4436
-14.5507
-14.6225
-14.6604
-14.6656
-14.6396
-14.5837
-14.4994
-14.3892
-14.2542
-14.0923
-13.9008
-13.681
-13.4358
-13.1667
-12.8751
-12.5619
-12.2284
-11.8755
-11.5041
-11.1154
-10.7105
-10.2904
-9.85625
-9.40929
-8.95067
-8.48157
-8.00318
-7.51671
-7.02335
-6.52428
-6.02068
-5.51367
-5.00437
-4.49387
-3.9832
-3.47337
-2.96533
-2.45999
-1.95823
-1.46083
-0.968567
-0.482133
-0.00217614
0.470713
0.935997
1.3932
1.84189
2.2817
2.71231
3.13346
3.54495
3.94661
4.33826
4.71987
5.09169
5.45373
5.80552
6.14668
6.47718
6.79727
7.10718
7.40713
7.69729
7.97785
8.24899
8.51091
8.76383
9.00796
9.24352
9.47071
9.68977
9.90093
10.1044
10.3006
10.4895
10.6716
10.8469
11.0158
11.1785
11.3353
11.4863
11.6317
11.7718
11.9069
12.037
12.1624
12.2833
12.3998
12.5123
12.6207
12.7253
12.8264
12.9243
13.019
13.1104
13.1987
13.284
13.3665
13.4462
13.5234
13.5981
13.6704
13.7404
13.8083
13.8741
13.9378
13.9997
14.0596
14.1178
14.1742
14.2289
14.282
14.3335
14.3835
14.432
14.479
14.5246
14.5687
14.6115
14.6529
14.693
14.7317
14.7691
14.8053
14.8401
14.8737
14.9061
14.9374
14.9675
14.9967
15.025
15.0527
15.0802
15.1078
15.1365
15.1673
15.2027
15.2443
15.3022
15.3625
-8.58324
-8.6145
-8.68846
-8.78209
-8.88561
-8.9779
-9.03924
-9.06371
-9.04673
-8.98633
-8.89657
-8.79968
-8.71794
-8.66649
-8.64429
-8.64098
-8.65047
-8.67595
-8.71127
-8.73137
-8.7556
-8.83323
-8.99241
-9.23165
-9.53832
-9.90914
-10.3348
-10.7949
-11.2678
-11.7357
-12.1859
-12.6091
-12.9989
-13.3515
-13.665
-13.9393
-14.1747
-14.3722
-14.533
-14.6583
-14.7492
-14.8069
-14.8323
-14.8263
-14.7898
-14.7233
-14.6274
-14.502
-14.3477
-14.1677
-13.9655
-13.7415
-13.4948
-13.2254
-12.9341
-12.6216
-12.2889
-11.9367
-11.5661
-11.1782
-10.7739
-10.3545
-9.92094
-9.47451
-9.01634
-8.54759
-8.06949
-7.58322
-7.08998
-6.59095
-6.08729
-5.58015
-5.07065
-4.55985
-4.04881
-3.53853
-3.02996
-2.52403
-2.0216
-1.52347
-1.0304
-0.54311
-0.062238
0.411615
0.877904
1.33614
1.78588
2.22673
2.65834
3.08041
3.49267
3.89489
4.28685
4.66843
5.03973
5.40095
5.75229
6.09377
6.42526
6.74663
7.05794
7.3593
7.65087
7.93282
8.20534
8.46861
8.72284
8.96825
9.20506
9.43352
9.65385
9.86626
10.071
10.2683
10.4585
10.6416
10.8181
10.9881
11.1519
11.3097
11.4617
11.6082
11.7493
11.8853
12.0164
12.1429
12.2649
12.3825
12.496
12.6055
12.7113
12.8131
12.9111
13.0059
13.0974
13.1859
13.2715
13.3542
13.4342
13.5117
13.5867
13.6593
13.7297
13.7978
13.8639
13.928
13.9901
14.0503
14.1088
14.1654
14.2204
14.2738
14.3256
14.3758
14.4245
14.4717
14.5175
14.5619
14.6048
14.6464
14.6867
14.7256
14.7632
14.7995
14.8345
14.8682
14.9007
14.9321
14.9624
14.9917
15.0201
15.0479
15.0755
15.1032
15.132
15.1627
15.1975
15.237
15.2907
15.3405
-8.71031
-8.79215
-8.91018
-9.01608
-9.09906
-9.15299
-9.17369
-9.15993
-9.11041
-9.02733
-8.91976
-8.80425
-8.70428
-8.63951
-8.61061
-8.60566
-8.62457
-8.68124
-8.78485
-8.9319
-9.1221
-9.36254
-9.65624
-9.99514
-10.367
-10.7626
-11.172
-11.5833
-11.9859
-12.3725
-12.7384
-13.08
-13.3944
-13.68
-13.9358
-14.1613
-14.3562
-14.5207
-14.655
-14.7594
-14.8342
-14.8799
-14.897
-14.8857
-14.8466
-14.7801
-14.6865
-14.5659
-14.4182
-14.2445
-14.0461
-13.824
-13.5789
-13.3112
-13.0217
-12.711
-12.3801
-12.0297
-11.6609
-11.2746
-10.8719
-10.4539
-10.0217
-9.57649
-9.11935
-8.65149
-8.17414
-7.68847
-7.19568
-6.69696
-6.19348
-5.68637
-5.17676
-4.66573
-4.15434
-3.64359
-3.13444
-2.62782
-2.1246
-1.62559
-1.13156
-0.643223
-0.161234
0.313804
0.781344
1.24089
1.692
2.13429
2.56742
2.9911
3.40509
3.8092
4.20327
4.58721
4.961
5.32465
5.67819
6.02163
6.35494
6.67811
6.99123
7.2944
7.58777
7.87151
8.14579
8.4108
8.66676
8.91386
9.15234
9.38243
9.60434
9.81831
10.0246
10.2234
10.415
10.5996
10.7774
10.9488
11.1139
11.2729
11.4262
11.5738
11.7161
11.8532
11.9853
12.1126
12.2353
12.3537
12.4679
12.578
12.6843
12.7869
12.8859
12.9817
13.0743
13.1638
13.2502
13.3338
13.4147
13.4929
13.5687
13.642
13.713
13.7818
13.8484
13.9131
13.9757
14.0365
14.0954
14.1526
14.208
14.2618
14.3139
14.3645
14.4136
14.4612
14.5073
14.552
14.5953
14.6372
14.6777
14.7168
14.7547
14.7912
14.8264
14.8604
14.8931
14.9246
14.9551
14.9845
15.013
15.041
15.0685
15.0962
15.1247
15.1548
15.1883
15.2249
15.2722
15.3058
-8.74989
-8.84739
-8.94872
-9.03529
-9.09979
-9.13954
-9.15204
-9.13467
-9.08742
-9.01528
-8.92945
-8.84674
-8.78533
-8.75815
-8.77008
-8.82321
-8.92142
-9.06838
-9.26471
-9.5054
-9.78159
-10.086
-10.4128
-10.7555
-11.1088
-11.4676
-11.8263
-12.1799
-12.5238
-12.8539
-13.1668
-13.4599
-13.731
-13.9784
-14.201
-14.3978
-14.5682
-14.7118
-14.8283
-14.9178
-14.9803
-15.0158
-15.0244
-15.0063
-14.9616
-14.8905
-14.7933
-14.6703
-14.522
-14.3491
-14.1521
-13.9316
-13.6881
-13.422
-13.1342
-12.8252
-12.4959
-12.1471
-11.7798
-11.395
-10.9936
-10.5768
-10.1456
-9.7012
-9.24475
-8.77745
-8.30049
-7.81505
-7.32233
-6.82352
-6.3198
-5.8123
-5.30215
-4.79044
-4.27824
-3.76654
-3.25633
-2.74853
-2.24402
-1.74362
-1.24811
-0.758195
-0.274549
0.202221
0.67156
1.13297
1.586
2.03026
2.46541
2.89116
3.30727
3.71354
4.10983
4.49606
4.87218
5.23815
5.59394
5.93954
6.27496
6.60022
6.91541
7.22065
7.51607
7.80184
8.07813
8.34512
8.60302
8.85204
9.0924
9.32432
9.54803
9.76376
9.97174
10.1722
10.3655
10.5517
10.7311
10.904
11.0705
11.231
11.3856
11.5346
11.6781
11.8164
11.9497
12.0782
12.2021
12.3216
12.4369
12.5481
12.6554
12.759
12.8591
12.9559
13.0494
13.1398
13.2272
13.3116
13.3933
13.4723
13.5488
13.6228
13.6945
13.764
13.8313
13.8965
13.9598
14.0211
14.0805
14.1382
14.1941
14.2484
14.301
14.352
14.4015
14.4494
14.4959
14.541
14.5846
14.6268
14.6676
14.7071
14.7452
14.782
14.8174
14.8516
14.8845
14.9162
14.9468
14.9763
15.0049
15.0327
15.0602
15.0875
15.1154
15.1443
15.1756
15.2081
15.2474
15.266
-8.53816
-8.62311
-8.72323
-8.82036
-8.89775
-8.95051
-8.97762
-8.97989
-8.96179
-8.9316
-8.9014
-8.88519
-8.89575
-8.94269
-9.0322
-9.16743
-9.3485
-9.57083
-9.82599
-10.1059
-10.4051
-10.7194
-11.0443
-11.375
-11.707
-12.0366
-12.3605
-12.6755
-12.9788
-13.2681
-13.5413
-13.7968
-14.033
-14.2488
-14.4432
-14.6153
-14.7643
-14.8899
-14.9914
-15.0685
-15.121
-15.1485
-15.151
-15.1284
-15.0806
-15.0076
-14.9096
-14.7866
-14.6389
-14.467
-14.2712
-14.052
-13.8099
-13.5453
-13.259
-12.9515
-12.6236
-12.2763
-11.9103
-11.5266
-11.1264
-10.7105
-10.2801
-9.83642
-9.38052
-8.91362
-8.43691
-7.95157
-7.4588
-6.95979
-6.45572
-5.94774
-5.43697
-4.9245
-4.41141
-3.89871
-3.38737
-2.87834
-2.37248
-1.87064
-1.37358
-0.882039
-0.396679
0.0818837
0.553091
1.01644
1.47147
1.91779
2.35506
2.78298
3.20131
3.60984
4.00842
4.39696
4.77538
5.14363
5.50169
5.84953
6.18717
6.51466
6.83207
7.13952
7.43714
7.72509
8.00353
8.27266
8.53266
8.78375
9.02616
9.2601
9.48579
9.70346
9.91334
10.1157
10.3107
10.4987
10.6798
10.8543
11.0225
11.1846
11.3407
11.4912
11.6362
11.776
11.9107
12.0406
12.1658
12.2866
12.4031
12.5155
12.624
12.7287
12.8299
12.9277
13.0222
13.1136
13.2018
13.2872
13.3697
13.4496
13.5268
13.6016
13.6741
13.7443
13.8122
13.8781
13.942
14.0039
14.064
14.1222
14.1787
14.2334
14.2866
14.3381
14.388
14.4364
14.4833
14.5288
14.5728
14.6153
14.6565
14.6963
14.7347
14.7718
14.8075
14.8419
14.875
14.9069
14.9375
14.9671
14.9957
15.0234
15.0505
15.0773
15.1042
15.1315
15.16
15.1879
15.2194
15.2255
-8.11818
-8.20659
-8.32754
-8.45025
-8.5555
-8.63593
-8.69423
-8.73628
-8.7697
-8.80427
-8.85095
-8.92004
-9.0196
-9.15444
-9.32677
-9.53564
-9.77634
-10.0433
-10.3312
-10.6343
-10.9472
-11.2651
-11.584
-11.9005
-12.2118
-12.5157
-12.8103
-13.094
-13.3654
-13.6232
-13.8661
-14.093
-14.3028
-14.4947
-14.6676
-14.8207
-14.9533
-15.0646
-15.1541
-15.2212
-15.2654
-15.2864
-15.2838
-15.2573
-15.2067
-15.1319
-15.0328
-14.9096
-14.7622
-14.591
-14.3961
-14.1781
-13.9372
-13.674
-13.389
-13.083
-12.7565
-12.4105
-12.0459
-11.6635
-11.2643
-10.8495
-10.42
-9.97701
-9.52171
-9.05526
-8.57885
-8.09365
-7.60088
-7.10172
-6.59734
-6.08891
-5.57754
-5.06435
-4.5504
-4.03671
-3.52427
-3.01401
-2.50683
-2.00356
-1.50497
-1.01181
-0.524745
-0.0443948
0.428676
0.893957
1.35099
1.79938
2.23878
2.66887
3.08942
3.50021
3.90109
4.29193
4.67266
5.04322
5.40356
5.75369
6.09361
6.42339
6.74308
7.05281
7.35269
7.64289
7.92357
8.19492
8.45712
8.71038
8.95491
9.19093
9.41867
9.63835
9.85022
10.0545
10.2514
10.4413
10.6242
10.8006
10.9705
11.1343
11.2921
11.4442
11.5908
11.7321
11.8683
11.9996
12.1263
12.2484
12.3663
12.48
12.5897
12.6957
12.798
12.8969
12.9925
13.0849
13.1741
13.2604
13.3439
13.4247
13.5028
13.5785
13.6518
13.7227
13.7915
13.8581
13.9226
13.9852
14.0459
14.1048
14.1619
14.2172
14.2709
14.3229
14.3734
14.4223
14.4696
14.5155
14.56
14.6029
14.6445
14.6846
14.7234
14.7608
14.7968
14.8314
14.8647
14.8968
14.9275
14.9571
14.9856
15.0131
15.0397
15.0658
15.0914
15.1168
15.1423
15.1652
15.1895
15.185
-7.65296
-7.75166
-7.89373
-8.04253
-8.18048
-8.2991
-8.40197
-8.49841
-8.59783
-8.70914
-8.83999
-8.99525
-9.17769
-9.38776
-9.62376
-9.88358
-10.1643
-10.4611
-10.7689
-11.0825
-11.3976
-11.7109
-12.0194
-12.3213
-12.6149
-12.8989
-13.1722
-13.434
-13.6834
-13.9195
-14.1416
-14.3486
-14.5399
-14.7146
-14.8719
-15.0109
-15.131
-15.2313
-15.3113
-15.3702
-15.4075
-15.4228
-15.4155
-15.3852
-15.3318
-15.2549
-15.1544
-15.0303
-14.8826
-14.7114
-14.5169
-14.2994
-14.0593
-13.797
-13.513
-13.2081
-12.8828
-12.538
-12.1746
-11.7933
-11.3953
-10.9816
-10.5531
-10.1111
-9.65664
-9.19092
-8.71512
-8.23043
-7.73805
-7.23914
-6.73488
-6.22644
-5.71493
-5.20146
-4.68709
-4.17285
-3.65974
-3.14868
-2.64057
-2.13625
-1.6365
-1.14207
-0.653619
-0.171786
0.302865
0.769818
1.22861
1.67884
2.12015
2.55222
2.97481
3.3877
3.79071
4.18373
4.56665
4.93941
5.30196
5.65431
5.99647
6.32848
6.65043
6.96241
7.26455
7.55699
7.8399
8.11345
8.37785
8.63328
8.87996
9.11811
9.34795
9.5697
9.78361
9.9899
10.1888
10.3806
10.5655
10.7436
10.9154
11.0809
11.2405
11.3943
11.5425
11.6854
11.8232
11.9561
12.0842
12.2078
12.327
12.4421
12.5532
12.6604
12.764
12.8641
12.9608
13.0542
13.1446
13.2319
13.3164
13.3982
13.4773
13.5538
13.628
13.6998
13.7693
13.8367
13.9021
13.9654
14.0268
14.0863
14.144
14.2
14.2543
14.3069
14.3579
14.4073
14.4552
14.5016
14.5465
14.5899
14.6318
14.6724
14.7115
14.7492
14.7855
14.8204
14.8539
14.8861
14.917
14.9465
14.9748
15.002
15.0281
15.0532
15.0775
15.1006
15.1228
15.1409
15.1586
15.1448
-7.29701
-7.39052
-7.54257
-7.7083
-7.87513
-8.03608
-8.19064
-8.34669
-8.51249
-8.69383
-8.89477
-9.11653
-9.35769
-9.61737
-9.895
-10.1883
-10.4935
-10.8062
-11.1221
-11.4378
-11.7503
-12.0572
-12.3569
-12.6478
-12.929
-13.1996
-13.4589
-13.7063
-13.9411
-14.1629
-14.3709
-14.5645
-14.7431
-14.9058
-15.0519
-15.1808
-15.2916
-15.3837
-15.4564
-15.5089
-15.5406
-15.5511
-15.5398
-15.5062
-15.45
-15.3709
-15.2686
-15.1432
-14.9945
-14.8226
-14.6277
-14.41
-14.1699
-13.9077
-13.6241
-13.3196
-12.9948
-12.6506
-12.2878
-11.9073
-11.5101
-11.0971
-10.6695
-10.2283
-9.77463
-9.30971
-8.83467
-8.35071
-7.85899
-7.3607
-6.85701
-6.34904
-5.83793
-5.32477
-4.81062
-4.29649
-3.78338
-3.27221
-2.76388
-2.25922
-1.75901
-1.264
-0.774859
-0.292212
0.183367
0.65136
1.1113
1.56279
2.00545
2.43898
2.8631
3.2776
3.6823
4.07706
4.46177
4.83637
5.20081
5.55507
5.89919
6.23319
6.55715
6.87118
7.17538
7.4699
7.75489
8.03054
8.29702
8.55454
8.8033
9.04351
9.2754
9.49918
9.71509
9.92337
10.1242
10.3179
10.5047
10.6847
10.8583
11.0257
11.187
11.3425
11.4924
11.637
11.7763
11.9108
12.0404
12.1655
12.2861
12.4026
12.515
12.6236
12.7284
12.8298
12.9277
13.0223
13.1137
13.2022
13.2877
13.3705
13.4506
13.5281
13.6031
13.6758
13.7462
13.8145
13.8806
13.9447
14.0068
14.0671
14.1255
14.1821
14.237
14.2902
14.3418
14.3918
14.4402
14.4871
14.5325
14.5764
14.6188
14.6597
14.6992
14.7373
14.7739
14.8091
14.8428
14.8751
14.906
14.9355
14.9636
14.9904
15.0158
15.0399
15.0626
15.0834
15.1022
15.1156
15.1273
15.1054
-7.10641
-7.19253
-7.34665
-7.51903
-7.70242
-7.89471
-8.09247
-8.29768
-8.51493
-8.74665
-8.99313
-9.25435
-9.53024
-9.82042
-10.123
-10.4347
-10.7519
-11.0713
-11.3898
-11.7048
-12.0141
-12.316
-12.6093
-12.893
-13.1661
-13.4281
-13.6786
-13.9169
-14.1426
-14.3553
-14.5544
-14.7393
-14.9095
-15.0643
-15.203
-15.325
-15.4294
-15.5156
-15.5829
-15.6306
-15.6581
-15.6648
-15.6501
-15.6136
-15.5549
-15.4736
-15.3695
-15.2425
-15.0924
-14.9195
-14.7237
-14.5052
-14.2645
-14.002
-13.7181
-13.4134
-13.0886
-12.7444
-12.3818
-12.0015
-11.6046
-11.1921
-10.7649
-10.3243
-9.87125
-9.40698
-8.93264
-8.4494
-7.95843
-7.46089
-6.95793
-6.45071
-5.94032
-5.42784
-4.91434
-4.40081
-3.88823
-3.37753
-2.86959
-2.36523
-1.86524
-1.37035
-0.881217
-0.398479
0.0772993
0.545601
1.00596
1.45796
1.90125
2.3355
2.76046
3.17589
3.58161
3.97748
4.36338
4.73925
5.10504
5.46072
5.8063
6.14184
6.4674
6.78307
7.08896
7.38521
7.67197
7.94941
8.21771
8.47706
8.72766
8.96972
9.20346
9.4291
9.64686
9.85697
10.0597
10.2552
10.4437
10.6256
10.8009
10.9699
11.133
11.2901
11.4417
11.5878
11.7288
11.8648
11.9959
12.1224
12.2446
12.3624
12.4762
12.5861
12.6922
12.7948
12.8939
12.9897
13.0823
13.1718
13.2584
13.3422
13.4233
13.5018
13.5778
13.6514
13.7227
13.7917
13.8587
13.9236
13.9865
14.0474
14.1065
14.1638
14.2194
14.2733
14.3255
14.376
14.425
14.4725
14.5183
14.5627
14.6056
14.647
14.6869
14.7253
14.7622
14.7976
14.8316
14.864
14.895
14.9244
14.9522
14.9785
15.0032
15.0261
15.0471
15.0655
15.081
15.0899
15.0961
15.0671
-7.07828
-7.16511
-7.31282
-7.48162
-7.66836
-7.87291
-8.09212
-8.324
-8.56879
-8.82709
-9.09843
-9.38194
-9.67739
-9.98362
-10.2979
-10.6173
-10.9389
-11.26
-11.5781
-11.8913
-12.1977
-12.4961
-12.7852
-13.0644
-13.3328
-13.59
-13.8354
-14.0687
-14.2893
-14.497
-14.6911
-14.8711
-15.0365
-15.1866
-15.3208
-15.4385
-15.5389
-15.6213
-15.685
-15.7293
-15.7537
-15.7575
-15.7402
-15.7013
-15.6403
-15.557
-15.4511
-15.3224
-15.1709
-14.9966
-14.7996
-14.5802
-14.3386
-14.0753
-13.7908
-13.4856
-13.1604
-12.8161
-12.4534
-12.0731
-11.6764
-11.2641
-10.8373
-10.3971
-9.94469
-9.48109
-9.0075
-8.52508
-8.03499
-7.53838
-7.0364
-6.53017
-6.0208
-5.50934
-4.99685
-4.48432
-3.97271
-3.46294
-2.95588
-2.45235
-1.95311
-1.45891
-0.970386
-0.48817
-0.0128202
0.455154
0.915291
1.36718
1.81047
2.24483
2.67
3.08575
3.49189
3.88827
4.27478
4.65134
5.01791
5.37446
5.721
6.05757
6.38424
6.70108
7.00822
7.30578
7.5939
7.87275
8.1425
8.40334
8.65546
8.89907
9.13438
9.36161
9.58097
9.79269
9.99701
10.1941
10.3843
10.5677
10.7447
10.9153
11.0799
11.2386
11.3917
11.5394
11.6818
11.8192
11.9518
12.0797
12.2032
12.3224
12.4375
12.5487
12.6561
12.7599
12.8601
12.9571
13.0508
13.1414
13.2291
13.3139
13.396
13.4754
13.5523
13.6269
13.699
13.7689
13.8367
13.9024
13.966
14.0278
14.0876
14.1456
14.2018
14.2563
14.3091
14.3603
14.4099
14.4578
14.5043
14.5491
14.5925
14.6343
14.6746
14.7134
14.7506
14.7863
14.8205
14.853
14.884
14.9133
14.9408
14.9666
14.9905
15.0121
15.0314
15.0474
15.0596
15.0643
15.0656
15.0305
-7.18899
-7.26737
-7.39833
-7.55423
-7.73288
-7.93397
-8.1548
-8.39279
-8.64628
-8.91397
-9.19418
-9.4858
-9.78788
-10.0985
-10.4151
-10.7352
-11.0562
-11.3759
-11.6921
-12.003
-12.3071
-12.6031
-12.89
-13.1669
-13.4333
-13.6885
-13.932
-14.1634
-14.3822
-14.5879
-14.78
-14.9581
-15.1214
-15.2694
-15.4015
-15.517
-15.6152
-15.6954
-15.7569
-15.7991
-15.8214
-15.8232
-15.8038
-15.763
-15.7002
-15.6151
-15.5075
-15.3772
-15.2243
-15.0486
-14.8504
-14.6298
-14.3873
-14.1231
-13.8379
-13.5322
-13.2066
-12.8621
-12.4993
-12.1191
-11.7226
-11.3107
-10.8844
-10.4449
-9.99324
-9.53056
-9.058
-8.57672
-8.08786
-7.59256
-7.09195
-6.58715
-6.07924
-5.56929
-5.05831
-4.5473
-4.03719
-3.5289
-3.02326
-2.52111
-2.02319
-1.53022
-1.04285
-0.561695
-0.0873149
0.379788
0.839156
1.29038
1.73311
2.16703
2.59186
3.00738
3.41339
3.80976
4.19637
4.57313
4.93999
5.29693
5.64396
5.98111
6.30845
6.62606
6.93404
7.23251
7.52162
7.80151
8.07237
8.33437
8.5877
8.83256
9.06916
9.29771
9.51842
9.73152
9.93722
10.1358
10.3273
10.5122
10.6905
10.8626
11.0286
11.1887
11.3432
11.4923
11.6361
11.7749
11.9088
12.038
12.1628
12.2833
12.3997
12.512
12.6206
12.7255
12.827
12.925
13.0198
13.1115
13.2002
13.286
13.369
13.4494
13.5273
13.6027
13.6757
13.7465
13.815
13.8815
13.9459
14.0084
14.0689
14.1276
14.1845
14.2396
14.2931
14.3448
14.395
14.4435
14.4904
14.5358
14.5796
14.6219
14.6626
14.7018
14.7393
14.7753
14.8097
14.8423
14.8733
14.9024
14.9297
14.9549
14.9779
14.9983
15.0158
15.0294
15.0385
15.0392
15.036
14.9957
-7.3654
-7.42999
-7.54091
-7.67936
-7.84318
-8.03192
-8.24322
-8.47441
-8.72304
-8.98677
-9.26339
-9.55171
-9.85052
-10.1576
-10.4705
-10.7869
-11.1045
-11.421
-11.7344
-12.0432
-12.3457
-12.6407
-12.927
-13.2039
-13.4704
-13.726
-13.9701
-14.2021
-14.4214
-14.6277
-14.8202
-14.9984
-15.1618
-15.3097
-15.4414
-15.5563
-15.6538
-15.733
-15.7935
-15.8345
-15.8555
-15.8558
-15.835
-15.7927
-15.7283
-15.6417
-15.5327
-15.401
-15.2467
-15.0698
-14.8704
-14.6489
-14.4055
-14.1406
-13.8549
-13.5488
-13.2231
-12.8785
-12.5159
-12.1362
-11.7403
-11.3291
-10.9038
-10.4655
-10.0151
-9.55387
-9.0829
-8.60332
-8.11628
-7.62289
-7.12427
-6.62152
-6.1157
-5.60786
-5.09901
-4.59012
-4.08213
-3.57592
-3.07233
-2.57217
-2.07617
-1.58505
-1.09944
-0.619958
-0.147145
0.318499
0.776523
1.22652
1.66815
2.10107
2.52504
2.93983
3.34523
3.7411
4.12733
4.50384
4.87055
5.22747
5.57458
5.91193
6.23956
6.55756
6.86603
7.16508
7.45484
7.73548
8.00715
8.27002
8.52429
8.77015
9.00779
9.23742
9.45926
9.67352
9.88041
10.0802
10.273
10.4591
10.6387
10.812
10.9793
11.1407
11.2965
11.4468
11.5919
11.7319
11.8671
11.9976
12.1236
12.2453
12.3628
12.4763
12.586
12.6921
12.7946
12.8937
12.9895
13.0822
13.1719
13.2587
13.3426
13.424
13.5027
13.579
13.6528
13.7244
13.7938
13.861
13.9262
13.9894
14.0506
14.11
14.1676
14.2233
14.2774
14.3298
14.3805
14.4296
14.477
14.5229
14.5672
14.6099
14.6511
14.6906
14.7285
14.7648
14.7993
14.8321
14.863
14.892
14.9189
14.9436
14.9657
14.9848
15.0006
15.0119
15.018
15.0151
15.0078
14.9631
-7.53929
-7.59078
-7.68336
-7.80395
-7.95057
-8.12271
-8.31829
-8.53495
-8.77021
-9.02153
-9.28687
-9.56513
-9.85492
-10.154
-10.4599
-10.7704
-11.0831
-11.3958
-11.7067
-12.0139
-12.3158
-12.6111
-12.8985
-13.177
-13.4456
-13.7036
-13.9503
-14.1848
-14.4067
-14.6153
-14.81
-14.9902
-15.1551
-15.3043
-15.4369
-15.5525
-15.6502
-15.7295
-15.7896
-15.8301
-15.8503
-15.8498
-15.828
-15.7845
-15.7189
-15.6311
-15.5209
-15.3881
-15.2327
-15.0548
-14.8547
-14.6324
-14.3885
-14.1234
-13.8375
-13.5315
-13.2062
-12.8621
-12.5003
-12.1216
-11.7269
-11.3172
-10.8935
-10.4569
-10.0086
-9.54952
-9.08087
-8.60375
-8.11928
-7.62857
-7.13272
-6.63279
-6.12984
-5.6249
-5.11896
-4.61297
-4.10785
-3.60448
-3.10368
-2.60622
-2.11285
-1.62427
-1.14109
-0.663931
-0.193317
0.270254
0.726338
1.17454
1.61449
2.0459
2.46849
2.88203
3.28634
3.68126
4.06667
4.44249
4.80866
5.16515
5.51198
5.84915
6.17674
6.4948
6.80344
7.10277
7.39291
7.67401
7.94623
8.20973
8.4647
8.71133
8.9498
9.18032
9.4031
9.61834
9.82625
10.0271
10.221
10.4082
10.5889
10.7634
10.9318
11.0944
11.2514
11.4029
11.5491
11.6903
11.8267
11.9583
12.0855
12.2083
12.3269
12.4415
12.5523
12.6594
12.763
12.8631
12.9599
13.0536
13.1442
13.232
13.3169
13.3991
13.4787
13.5558
13.6305
13.7029
13.7731
13.8411
13.907
13.9709
14.0328
14.0929
14.1511
14.2075
14.2622
14.3152
14.3665
14.4161
14.4641
14.5105
14.5553
14.5985
14.64
14.68
14.7182
14.7547
14.7895
14.8224
14.8533
14.8822
14.9087
14.9328
14.954
14.972
14.986
14.9951
14.9984
14.9922
14.9813
14.9327
-7.66611
-7.70829
-7.78547
-7.88942
-8.01865
-8.17271
-8.34986
-8.54813
-8.76552
-8.99983
-9.24966
-9.5143
-9.79231
-10.0814
-10.3791
-10.6831
-10.9909
-11.3004
-11.6095
-11.9162
-12.219
-12.516
-12.8061
-13.0879
-13.3604
-13.6225
-13.8733
-14.1121
-14.338
-14.5503
-14.7484
-14.9316
-15.0991
-15.2504
-15.3848
-15.5017
-15.6003
-15.68
-15.7404
-15.7808
-15.8006
-15.7995
-15.7769
-15.7326
-15.6662
-15.5775
-15.4665
-15.3329
-15.1768
-14.9985
-14.7979
-14.5755
-14.3317
-14.0668
-13.7815
-13.4763
-13.152
-12.8094
-12.4491
-12.0722
-11.6796
-11.2722
-10.8511
-10.4174
-9.97199
-9.51607
-9.05073
-8.57705
-8.09614
-7.60908
-7.11695
-6.6208
-6.12166
-5.62054
-5.11841
-4.6162
-4.11481
-3.61511
-3.11791
-2.62397
-2.134
-1.64869
-1.16866
-0.694512
-0.226764
0.234093
0.687622
1.13342
1.57115
2.00049
2.42118
2.83299
3.23572
3.62923
4.01339
4.38812
4.75335
5.10906
5.45524
5.79191
6.11913
6.43696
6.74548
7.04482
7.33508
7.6164
7.88894
8.15286
8.40833
8.65553
8.89465
9.12589
9.34944
9.56551
9.7743
9.97602
10.1709
10.3591
10.5409
10.7164
10.8859
11.0495
11.2076
11.3602
11.5075
11.6498
11.7873
11.92
12.0483
12.1722
12.2919
12.4076
12.5194
12.6275
12.7321
12.8332
12.931
13.0256
13.1172
13.2059
13.2917
13.3747
13.4552
13.5332
13.6087
13.6819
13.7528
13.8216
13.8882
13.9528
14.0155
14.0762
14.1351
14.1921
14.2474
14.301
14.3529
14.4031
14.4517
14.4986
14.5439
14.5875
14.6295
14.6699
14.7085
14.7453
14.7802
14.8133
14.8442
14.8729
14.8992
14.9227
14.9431
14.9598
14.9723
14.9793
14.9801
14.9708
14.9565
14.9049
-7.7216
-7.75985
-7.82544
-7.91443
-8.02665
-8.16204
-8.31957
-8.49792
-8.69551
-8.91083
-9.14335
-9.39298
-9.65838
-9.93716
-10.2268
-10.5247
-10.8284
-11.1357
-11.4442
-11.7519
-12.0568
-12.3572
-12.6513
-12.9378
-13.2153
-13.4827
-13.7389
-13.9828
-14.2136
-14.4305
-14.6327
-14.8196
-14.9902
-15.1442
-15.2807
-15.3991
-15.4989
-15.5794
-15.6402
-15.6807
-15.7004
-15.699
-15.6761
-15.6313
-15.5644
-15.4752
-15.3638
-15.23
-15.0739
-14.8957
-14.6955
-14.4738
-14.2308
-13.9671
-13.6833
-13.3799
-13.0577
-12.7174
-12.3599
-11.986
-11.5966
-11.1927
-10.7754
-10.3455
-9.90429
-9.45269
-8.99181
-8.52273
-8.04651
-7.56423
-7.07692
-6.58564
-6.09137
-5.5951
-5.09778
-4.60033
-4.10362
-3.6085
-3.11576
-2.62617
-2.14043
-1.65918
-1.18306
-0.712634
-0.24844
0.209048
0.659394
1.1022
1.53713
1.96386
2.38214
2.79172
3.19242
3.58408
3.96658
4.33982
4.70374
5.05831
5.40351
5.73937
6.06593
6.38325
6.6914
6.9905
7.28064
7.56197
7.83463
8.09877
8.35456
8.60217
8.84179
9.07359
9.29778
9.51455
9.72411
9.92664
10.1224
10.3115
10.4942
10.6706
10.8411
11.0058
11.1649
11.3185
11.4669
11.6103
11.7487
11.8825
12.0118
12.1368
12.2575
12.3742
12.4871
12.5962
12.7018
12.8038
12.9026
12.9982
13.0907
13.1802
13.2669
13.3509
13.4322
13.511
13.5873
13.6613
13.733
13.8025
13.8699
13.9352
13.9985
14.0599
14.1195
14.1772
14.2331
14.2873
14.3398
14.3906
14.4397
14.4872
14.533
14.5771
14.6196
14.6603
14.6993
14.7364
14.7716
14.8048
14.8358
14.8644
14.8903
14.9133
14.9329
14.9486
14.9595
14.9646
14.963
14.9511
14.9338
14.8795
-7.70724
-7.74193
-7.79876
-7.87391
-7.96892
-8.08462
-8.22101
-8.37773
-8.55401
-8.74914
-8.96356
-9.19777
-9.45057
-9.71948
-10.0018
-10.2949
-10.596
-10.9026
-11.2122
-11.5224
-11.8311
-12.1361
-12.4356
-12.7279
-13.0114
-13.2848
-13.5468
-13.7964
-14.0325
-14.2542
-14.4607
-14.6512
-14.825
-14.9815
-15.12
-15.24
-15.341
-15.4223
-15.4836
-15.5244
-15.5442
-15.5428
-15.5198
-15.475
-15.4082
-15.3192
-15.2081
-15.0749
-14.9196
-14.7424
-14.5436
-14.3235
-14.0826
-13.8213
-13.5401
-13.2398
-12.921
-12.5844
-12.2309
-11.8613
-11.4765
-11.0775
-10.6653
-10.2408
-9.80504
-9.3591
-8.90401
-8.44082
-7.97058
-7.49431
-7.01306
-6.52781
-6.03955
-5.54924
-5.05781
-4.56615
-4.07512
-3.58554
-3.09818
-2.61381
-2.13313
-1.65676
-1.18532
-0.719355
-0.259401
0.194063
0.640604
1.07983
1.51139
1.93499
2.35034
2.75723
3.15545
3.54484
3.92528
4.29667
4.65893
5.01204
5.35597
5.69073
6.01637
6.33292
6.64047
6.93911
7.22894
7.51008
7.78268
8.04688
8.30283
8.55071
8.79069
9.02294
9.24765
9.46502
9.67523
9.87849
10.075
10.2649
10.4485
10.6258
10.7973
10.9629
11.1229
11.2775
11.4269
11.5713
11.7108
11.8456
11.9759
12.1019
12.2237
12.3414
12.4552
12.5653
12.6719
12.7749
12.8746
12.9711
13.0645
13.1549
13.2425
13.3273
13.4095
13.4891
13.5662
13.641
13.7135
13.7837
13.8519
13.9179
13.9819
14.044
14.1043
14.1626
14.2192
14.274
14.3271
14.3785
14.4282
14.4762
14.5225
14.5672
14.6101
14.6513
14.6906
14.7281
14.7636
14.7969
14.828
14.8565
14.8822
14.9048
14.9237
14.9383
14.9479
14.9512
14.9475
14.9331
14.9131
14.8567
-7.64355
-7.66929
-7.71544
-7.77407
-7.84882
-7.9417
-8.05392
-8.18637
-8.33928
-8.51292
-8.70869
-8.92762
-9.16853
-9.42874
-9.70525
-9.9951
-10.2953
-10.603
-10.9153
-11.2295
-11.5431
-11.8538
-12.1594
-12.458
-12.7478
-13.0274
-13.2953
-13.5503
-13.7913
-14.0174
-14.2278
-14.4216
-14.5982
-14.757
-14.8973
-15.0188
-15.1208
-15.2031
-15.265
-15.3063
-15.3267
-15.3257