/*--------------------------------*- C++ -*----------------------------------*\
  =========                 |
  \\      /  F ield         | OpenFOAM: The Open Source CFD Toolbox
   \\    /   O peration     | Website:  https://openfoam.org
    \\  /    A nd           | Version:  8
     \\/     M anipulation  |
\*---------------------------------------------------------------------------*/
FoamFile
{
    version     2.0;
    format      ascii;
    class       volScalarField;
    location    "800";
    object      nut;
}
// * * * * * * * * * * * * * * * * * * * * * * * * * * * * * * * * * * * * * //

dimensions      [0 2 -1 0 0 0 0];

internalField   nonuniform List<scalar> 
12225
(
2.96509e-06
1.4818e-05
2.40547e-05
3.52935e-05
3.85706e-05
2.88685e-05
2.22694e-05
2.83333e-05
3.57879e-05
3.42765e-05
2.62184e-05
2.15825e-05
2.78512e-05
3.44851e-05
3.79798e-05
3.14971e-05
3.36725e-05
2.67954e-05
0.000132782
3.78514e-05
3.17411e-05
3.36113e-05
3.74266e-05
3.65069e-05
3.62074e-05
3.53012e-05
4.06613e-05
4.38016e-05
4.13053e-05
4.07878e-05
3.9854e-05
4.48352e-05
4.57118e-05
4.55852e-05
4.72521e-05
4.80409e-05
0.00043992
0.000186163
0.000124957
7.85661e-05
6.05789e-05
5.05596e-05
4.60874e-05
4.0258e-05
3.75626e-05
3.60652e-05
3.48951e-05
3.45469e-05
3.35298e-05
3.31972e-05
3.30937e-05
3.31455e-05
3.33303e-05
3.35809e-05
0.000502951
0.000370262
0.000332411
0.000262522
0.000214618
0.000174974
0.000153405
0.000134326
0.000120687
0.000108773
0.000101118
9.35377e-05
8.83123e-05
8.22061e-05
7.86638e-05
7.42937e-05
7.20973e-05
6.84162e-05
0.000462998
0.00044359
0.000427236
0.00040722
0.000381721
0.000346329
0.000324624
0.000297839
0.000280036
0.000258422
0.000245484
0.000228991
0.000219499
0.000206046
0.00019899
0.000188512
0.000183407
0.000174438
0.000455965
0.000453168
0.000449687
0.000445263
0.000439219
0.000429031
0.000420399
0.000406556
0.000397934
0.000383395
0.000374677
0.000361154
0.00035334
0.000341182
0.000334447
0.000323847
0.000318289
0.000308619
0.000454565
0.000453455
0.000453205
0.000451984
0.000451087
0.000448901
0.000446373
0.000443164
0.000440149
0.000435559
0.000432158
0.000426699
0.000423055
0.000417306
0.000413644
0.000408002
0.000404542
0.000398955
0.000454314
0.000453575
0.000453388
0.000452749
0.000452429
0.00045164
0.00045101
0.000449856
0.000448953
0.000447489
0.000446137
0.000444385
0.000442711
0.000440638
0.00043883
0.000436547
0.000434758
0.000432146
0.00045423
0.000453642
0.000453343
0.000452841
0.000452551
0.000452054
0.000451741
0.000451202
0.000450832
0.000450228
0.000449765
0.000449037
0.000448489
0.000447606
0.000446989
0.000445975
0.000445318
0.000444198
0.000454189
0.000453675
0.000453306
0.000452852
0.000452522
0.000452105
0.000451803
0.000451412
0.000451131
0.000450752
0.00045048
0.000450095
0.000449822
0.00044942
0.000449131
0.000448711
0.000448399
0.000447968
0.000454168
0.00045369
0.000453282
0.000452855
0.000452489
0.000452104
0.000451774
0.000451424
0.000451124
0.000450805
0.00045053
0.000450236
0.00044998
0.000449707
0.000449465
0.000449209
0.000448976
0.000448733
0.000454158
0.000453695
0.000453268
0.000452853
0.000452468
0.000452094
0.000451746
0.000451408
0.000451093
0.000450786
0.000450498
0.000450218
0.000449955
0.0004497
0.000449459
0.000449226
0.000449004
0.00044879
0.000454155
0.000453695
0.000453261
0.000452847
0.000452456
0.000452082
0.000451729
0.00045139
0.000451069
0.000450761
0.000450469
0.000450188
0.000449921
0.000449665
0.000449421
0.000449188
0.000448964
0.000448751
0.000454154
0.000453693
0.000453257
0.000452842
0.000452449
0.000452073
0.000451717
0.000451377
0.000451053
0.000450744
0.000450448
0.000450166
0.000449896
0.000449639
0.000449393
0.000449158
0.000448932
0.000448717
0.000454155
0.000453695
0.000453261
0.000452846
0.000452453
0.000452078
0.000451723
0.000451383
0.00045106
0.00045075
0.000450457
0.000450174
0.000449906
0.000449648
0.000449403
0.000449166
0.000448943
0.000448726
0.000454165
0.000453724
0.000453309
0.000452909
0.000452533
0.000452171
0.000451831
0.000451501
0.000451193
0.000450891
0.000450611
0.000450334
0.000450079
0.000449825
0.000449593
0.000449359
0.000449148
0.000448931
0.000454192
0.000453804
0.000453435
0.000453081
0.000452745
0.000452422
0.000452115
0.00045182
0.000451538
0.000451268
0.00045101
0.000450762
0.000450525
0.000450297
0.000450079
0.000449869
0.000449669
0.000449476
0.000454191
0.000453804
0.000453433
0.00045308
0.000452742
0.00045242
0.000452111
0.000451817
0.000451534
0.000451264
0.000451004
0.000450756
0.000450517
0.00045029
0.00045007
0.000449861
0.000449658
0.000449466
0.000454163
0.000453723
0.000453303
0.000452905
0.000452524
0.000452163
0.000451817
0.000451489
0.000451173
0.000450875
0.000450586
0.000450314
0.000450049
0.000449801
0.000449557
0.000449331
0.000449107
0.0004489
0.000454153
0.000453694
0.000453257
0.000452842
0.000452446
0.00045207
0.000451711
0.000451369
0.000451042
0.000450731
0.000450433
0.000450148
0.000449876
0.000449616
0.000449367
0.000449129
0.000448901
0.000448683
0.000454153
0.000453693
0.000453255
0.000452838
0.000452442
0.000452064
0.000451704
0.000451362
0.000451034
0.000450721
0.000450422
0.000450137
0.000449863
0.000449602
0.000449352
0.000449113
0.000448883
0.000448664
0.000454151
0.000453696
0.000453255
0.000452844
0.000452445
0.000452071
0.00045171
0.00045137
0.000451042
0.000450732
0.000450431
0.000450147
0.000449872
0.000449611
0.000449358
0.000449119
0.000448886
0.000448665
0.000454141
0.000453708
0.000453251
0.000452858
0.000452445
0.000452087
0.000451711
0.000451381
0.000451032
0.000450723
0.000450395
0.000450103
0.000449793
0.000449515
0.000449219
0.00044895
0.000448663
0.0004484
0.000454095
0.000453758
0.000453236
0.000452905
0.000452417
0.000452093
0.000451609
0.000451226
0.000450696
0.000450254
0.000449642
0.000449148
0.000448483
0.000447947
0.000447242
0.000446661
0.000445906
0.000445275
0.000453965
0.000454004
0.000453223
0.000452889
0.00045191
0.000451392
0.000449834
0.00044858
0.000446587
0.000444424
0.000441955
0.000439625
0.000436769
0.000434442
0.000431483
0.000429128
0.00042609
0.000423685
0.000454448
0.000455015
0.00045257
0.000448362
0.000444775
0.000440053
0.000431126
0.000422907
0.000411916
0.00040294
0.000392216
0.000383857
0.000374101
0.000366654
0.000357896
0.000351315
0.000343432
0.000337645
0.000465252
0.000453199
0.000435822
0.000407121
0.000381501
0.000350253
0.000318184
0.000293407
0.000269542
0.000251965
0.000234938
0.000222681
0.000210307
0.000201528
0.000192171
0.000185653
0.000178304
0.000173315
0.000559883
0.000363468
0.000282149
0.000213749
0.000163512
0.00013344
0.000113037
9.96368e-05
8.95032e-05
8.24035e-05
7.66241e-05
7.24958e-05
6.88399e-05
6.62737e-05
6.38496e-05
6.21857e-05
6.04863e-05
5.93438e-05
0.000350565
9.36724e-05
6.09026e-05
4.97159e-05
4.5353e-05
4.31848e-05
4.25629e-05
4.22491e-05
4.26273e-05
4.29448e-05
4.37778e-05
4.44486e-05
4.5585e-05
4.6519e-05
4.78896e-05
4.90413e-05
5.05159e-05
5.06827e-05
4.32302e-06
1.15536e-05
1.60063e-05
1.91219e-05
2.09556e-05
2.20408e-05
2.23827e-05
2.25017e-05
2.24536e-05
2.22178e-05
2.19291e-05
2.16217e-05
2.13155e-05
2.10239e-05
2.07512e-05
2.05036e-05
2.02764e-05
2.00761e-05
1.56667e-12
1.77398e-10
9.03466e-10
3.55214e-09
1.1837e-08
3.58438e-08
9.39171e-08
1.86863e-07
3.02782e-07
4.25027e-07
5.346e-07
6.1921e-07
6.75718e-07
6.95878e-07
6.86317e-07
6.57448e-07
6.03751e-07
5.14469e-07
4.3742e-07
3.71258e-07
3.08657e-07
2.48e-07
1.89547e-07
1.3545e-07
8.76286e-08
5.09328e-08
2.68716e-08
1.34946e-08
6.86954e-09
3.73823e-09
2.26918e-09
1.72434e-09
1.96647e-09
4.08246e-09
9.15277e-09
5.81007e-08
1.30237e-07
2.88767e-07
4.33682e-07
4.71037e-07
4.30732e-07
3.43754e-07
2.75916e-07
2.56754e-07
2.7653e-07
3.7122e-07
4.91938e-07
9.37594e-07
2.05081e-06
5.97069e-06
1.67149e-05
3.13751e-05
4.14339e-05
4.60505e-05
4.57936e-05
4.16972e-05
3.87395e-05
3.87211e-05
3.60276e-05
3.20772e-05
3.53023e-05
3.48045e-05
3.60494e-05
3.11871e-05
3.31945e-05
3.35163e-05
3.41911e-05
3.47178e-05
3.53269e-05
3.58525e-05
3.64244e-05
3.69499e-05
3.74956e-05
3.80171e-05
3.85462e-05
3.90618e-05
3.95799e-05
4.00896e-05
4.05999e-05
4.11044e-05
4.16085e-05
4.21086e-05
4.26077e-05
4.3104e-05
4.35987e-05
4.40914e-05
4.45819e-05
4.50711e-05
4.55579e-05
4.60434e-05
4.6527e-05
4.7008e-05
4.74864e-05
4.79615e-05
4.84331e-05
4.89006e-05
4.93639e-05
4.98243e-05
5.02825e-05
5.07429e-05
5.12099e-05
5.16887e-05
5.21635e-05
5.26447e-05
5.31293e-05
5.36204e-05
5.41166e-05
5.46201e-05
5.513e-05
5.5648e-05
5.61737e-05
5.67086e-05
5.72528e-05
5.78072e-05
5.83725e-05
5.89494e-05
5.9539e-05
6.01416e-05
6.0759e-05
6.13911e-05
6.20402e-05
6.27059e-05
6.33911e-05
6.40952e-05
6.48212e-05
6.55686e-05
6.63408e-05
6.71379e-05
6.79712e-05
6.88421e-05
6.97254e-05
7.06779e-05
7.16235e-05
7.26503e-05
7.37102e-05
7.48371e-05
7.60277e-05
7.72685e-05
7.71345e-05
7.68911e-05
7.66343e-05
7.63671e-05
7.60894e-05
7.58022e-05
7.55055e-05
7.52007e-05
7.4888e-05
7.45679e-05
7.42403e-05
7.39051e-05
7.35626e-05
7.32153e-05
7.28542e-05
7.24961e-05
7.21209e-05
7.17489e-05
7.13677e-05
7.09832e-05
7.05965e-05
7.0205e-05
6.9813e-05
6.94171e-05
6.90202e-05
6.86208e-05
6.82203e-05
6.78187e-05
6.74166e-05
6.7015e-05
6.6614e-05
6.62149e-05
6.58166e-05
6.54205e-05
6.50236e-05
6.46264e-05
6.42225e-05
6.38066e-05
6.3366e-05
6.28745e-05
6.22731e-05
6.07293e-05
7.03695e-12
1.14316e-09
1.54666e-08
8.21427e-08
3.56886e-07
1.16055e-06
2.70322e-06
4.94559e-06
7.67284e-06
1.07792e-05
1.39218e-05
1.68282e-05
1.9296e-05
2.11357e-05
2.2226e-05
2.25311e-05
2.2176e-05
2.14547e-05
1.89785e-05
1.58969e-05
1.22158e-05
8.95486e-06
6.28736e-06
4.21498e-06
2.64751e-06
1.62982e-06
9.94351e-07
6.15518e-07
3.86079e-07
2.52912e-07
1.83416e-07
1.62113e-07
1.56377e-07
2.90512e-07
4.17389e-07
3.44449e-06
7.58265e-06
1.54087e-05
2.13127e-05
2.32852e-05
2.19252e-05
1.92432e-05
1.60884e-05
1.48621e-05
1.58003e-05
1.64223e-05
1.87256e-05
2.48915e-05
3.58848e-05
4.66026e-05
5.82412e-05
6.80827e-05
7.67306e-05
8.42353e-05
9.24576e-05
0.000102931
0.000115088
0.000127988
0.000140595
0.000152042
0.000167717
0.000181407
0.000196224
0.000204105
0.000217529
0.000228748
0.00023996
0.000250689
0.000261045
0.000271086
0.000280779
0.000290237
0.000299419
0.000308414
0.000317197
0.000325825
0.000334287
0.000342616
0.00035081
0.000358887
0.000366848
0.000374703
0.000382455
0.000390107
0.000397665
0.000405129
0.000412504
0.000419792
0.000426997
0.000434118
0.000441162
0.000448118
0.000454987
0.000461756
0.00046841
0.000474926
0.000481267
0.000487387
0.000493211
0.000498646
0.00050356
0.000507953
0.00051239
0.00051663
0.000520781
0.000524794
0.000528685
0.000532443
0.000536069
0.000539558
0.000542909
0.000546119
0.000549185
0.000552106
0.000554879
0.000557504
0.000559979
0.000562303
0.000564475
0.000566495
0.000568363
0.000570078
0.000571641
0.000573053
0.000574313
0.00057542
0.000576376
0.000577175
0.000577811
0.000578285
0.000578616
0.000578832
0.000578812
0.00057876
0.000578431
0.000578116
0.000577775
0.000577526
0.000577521
0.000577274
0.000576905
0.000576413
0.000575805
0.000575082
0.00057425
0.00057331
0.000572268
0.000571124
0.000569882
0.000568538
0.000567103
0.000565534
0.000563972
0.000562147
0.000560351
0.000558397
0.000556362
0.000554272
0.000552066
0.000549819
0.000547479
0.000545087
0.000542619
0.000540093
0.000537499
0.000534845
0.00053213
0.000529363
0.000526547
0.000523684
0.000520774
0.000517815
0.000514791
0.000511698
0.00050846
0.000505008
0.000501209
0.000496774
0.000490933
0.000475045
1.82994e-11
3.11977e-09
5.89311e-08
3.56816e-07
1.12305e-06
2.90041e-06
6.17564e-06
1.07366e-05
1.63791e-05
2.27973e-05
2.96223e-05
3.63976e-05
4.25092e-05
4.75977e-05
5.1446e-05
5.39658e-05
5.53084e-05
5.56314e-05
5.40323e-05
5.11189e-05
4.64292e-05
4.04494e-05
3.32487e-05
2.60756e-05
1.95174e-05
1.39022e-05
9.41844e-06
6.26282e-06
3.96845e-06
2.63338e-06
1.87252e-06
1.50269e-06
1.27306e-06
2.14191e-06
3.98838e-06
1.72121e-05
3.62288e-05
5.46932e-05
6.43298e-05
6.29528e-05
5.17285e-05
4.10118e-05
3.87105e-05
4.4196e-05
5.13727e-05
6.02535e-05
7.26901e-05
8.47726e-05
9.73094e-05
0.000113268
0.000131358
0.000151361
0.000173894
0.000198749
0.000226415
0.000255578
0.000287656
0.000317978
0.000348524
0.000377869
0.000407058
0.000434081
0.000461145
0.000485205
0.000509554
0.000532421
0.000554347
0.00057551
0.000595956
0.000615801
0.000635089
0.000653925
0.000672331
0.000690382
0.000708092
0.000725511
0.000742649
0.000759534
0.000776175
0.000792588
0.000808781
0.000824762
0.000840535
0.000856106
0.000871478
0.000886652
0.00090163
0.000916412
0.000930997
0.000945382
0.000959561
0.00097352
0.000987245
0.00100071
0.0010139
0.00102676
0.00103927
0.00105138
0.00106305
0.00107426
0.00108501
0.00109546
0.00110573
0.00111571
0.00112544
0.00113489
0.00114406
0.00115295
0.00116154
0.00116984
0.00117783
0.00118551
0.00119288
0.00119993
0.00120665
0.00121305
0.00121912
0.00122486
0.00123027
0.00123535
0.00124009
0.00124451
0.00124859
0.00125234
0.00125577
0.00125887
0.00126164
0.00126408
0.00126619
0.00126799
0.00126949
0.0012707
0.00127158
0.00127223
0.00127247
0.00127258
0.00127258
0.00127247
0.0012722
0.00127165
0.00127085
0.00126977
0.00126844
0.00126685
0.00126502
0.00126294
0.00126062
0.00125807
0.0012553
0.0012523
0.00124908
0.00124562
0.00124199
0.001238
0.00123392
0.00122954
0.00122499
0.00122027
0.00121533
0.00121027
0.00120502
0.00119965
0.00119413
0.00118847
0.00118268
0.00117675
0.0011707
0.00116455
0.00115829
0.00115195
0.00114551
0.00113898
0.00113231
0.00112549
0.00111839
0.00111084
0.00110255
0.0010928
0.00107969
0.00105084
6.81098e-11
1.1505e-08
1.82238e-07
8.21957e-07
2.47868e-06
6.84489e-06
1.35677e-05
2.2612e-05
3.32979e-05
4.45368e-05
5.5404e-05
6.5395e-05
7.3954e-05
8.04728e-05
8.53394e-05
8.84119e-05
8.96153e-05
8.93421e-05
8.77111e-05
8.45244e-05
7.99257e-05
7.43516e-05
6.69482e-05
5.81364e-05
4.84173e-05
3.8682e-05
2.97564e-05
2.2323e-05
1.66635e-05
1.20731e-05
9.37009e-06
6.93255e-06
7.5408e-06
1.15172e-05
2.60151e-05
4.99262e-05
6.90962e-05
7.99657e-05
7.66715e-05
7.26105e-05
7.17378e-05
7.46081e-05
8.1604e-05
9.20323e-05
0.000106584
0.000117657
0.00013467
0.000157958
0.000182151
0.000213442
0.000247188
0.000285145
0.000325729
0.000368663
0.000413067
0.00045775
0.000502605
0.000545655
0.000587775
0.000628414
0.000667502
0.000704716
0.000741125
0.000775548
0.000808824
0.000840838
0.000871806
0.000901868
0.000931117
0.00095966
0.00098757
0.00101493
0.00104178
0.00106817
0.00109415
0.00111974
0.00114496
0.00116982
0.00119435
0.00121855
0.00124243
0.00126599
0.00128923
0.00131216
0.00133479
0.0013571
0.00137909
0.00140077
0.00142213
0.00144316
0.00146385
0.00148419
0.00150416
0.00152374
0.00154291
0.00156164
0.00157992
0.00159772
0.00161504
0.0016319
0.00164832
0.00166438
0.00168008
0.00169538
0.00171029
0.00172478
0.00173885
0.00175249
0.00176568
0.00177843
0.00179071
0.00180253
0.00181388
0.00182475
0.00183513
0.00184503
0.00185445
0.00186337
0.00187179
0.00187973
0.00188717
0.00189412
0.00190058
0.00190656
0.00191205
0.00191706
0.00192159
0.00192565
0.00192924
0.00193237
0.00193506
0.00193732
0.00193914
0.00194055
0.00194144
0.00194206
0.00194242
0.00194248
0.0019422
0.00194152
0.00194045
0.00193899
0.00193714
0.00193491
0.00193231
0.00192935
0.00192603
0.00192237
0.00191836
0.00191403
0.00190935
0.00190432
0.00189898
0.00189324
0.00188723
0.00188086
0.0018742
0.00186726
0.00186005
0.0018526
0.00184491
0.00183701
0.00182889
0.00182057
0.00181204
0.00180332
0.00179442
0.00178536
0.00177615
0.00176681
0.00175734
0.00174774
0.00173797
0.00172796
0.0017176
0.00170665
0.00169475
0.0016809
0.00166245
0.00162816
2.33042e-10
3.47505e-08
4.11771e-07
1.93353e-06
6.69864e-06
1.60945e-05
2.98525e-05
4.62322e-05
6.32963e-05
7.93957e-05
9.34093e-05
0.000104343
0.000112419
0.000117975
0.000121051
0.000122256
0.000121842
0.000120026
0.000117016
0.000112818
0.000107449
0.000101405
9.40227e-05
8.53067e-05
7.52793e-05
6.42372e-05
5.30096e-05
4.28485e-05
3.44606e-05
2.77793e-05
2.19374e-05
2.07089e-05
2.56486e-05
4.28672e-05
6.77639e-05
8.39317e-05
9.16983e-05
9.48492e-05
9.69977e-05
0.000101258
0.000109215
0.000121654
0.000135025
0.000147013
0.000166146
0.000194216
0.000224096
0.000262003
0.000302817
0.000349845
0.000398709
0.000450859
0.000504212
0.000558515
0.000612858
0.000666501
0.000719187
0.00077024
0.000819832
0.000867667
0.000914196
0.000959265
0.0010026
0.00104452
0.00108517
0.00112463
0.00116305
0.00120053
0.00123719
0.00127309
0.00130831
0.00134293
0.00137697
0.0014105
0.00144352
0.00147607
0.00150816
0.00153981
0.00157102
0.0016018
0.00163216
0.00166208
0.00169158
0.00172066
0.00174931
0.00177754
0.00180533
0.00183269
0.0018596
0.00188608
0.00191209
0.00193765
0.00196272
0.0019873
0.00201138
0.00203494
0.00205798
0.00208049
0.00210249
0.00212398
0.00214498
0.00216551
0.00218554
0.00220507
0.00222408
0.00224256
0.0022605
0.00227788
0.0022947
0.00231095
0.00232661
0.00234168
0.00235616
0.00237003
0.0023833
0.00239595
0.002408
0.00241943
0.00243025
0.00244045
0.00245004
0.00245903
0.0024674
0.00247517
0.00248235
0.00248892
0.00249492
0.00250032
0.00250516
0.00250944
0.00251316
0.00251637
0.00251903
0.00252115
0.00252265
0.00252382
0.00252456
0.00252487
0.00252471
0.00252407
0.00252295
0.00252134
0.00251927
0.00251672
0.0025137
0.00251024
0.00250633
0.00250199
0.00249722
0.00249204
0.00248642
0.00248038
0.00247392
0.00246701
0.00245971
0.00245199
0.00244391
0.00243547
0.00242669
0.00241759
0.0024082
0.00239852
0.00238857
0.00237836
0.00236788
0.00235716
0.00234621
0.00233506
0.00232371
0.00231219
0.0023005
0.00228863
0.00227655
0.0022642
0.00225147
0.00223812
0.00222378
0.00220746
0.00218613
0.00215149
7.40131e-10
8.52896e-08
1.02801e-06
5.21784e-06
1.69942e-05
3.58598e-05
5.86075e-05
8.17494e-05
0.000101915
0.000117835
0.000129692
0.000138419
0.000143801
0.000146721
0.000147684
0.000147079
0.000145164
0.000142123
0.000138099
0.000133056
0.000127103
0.000120538
0.000112855
0.000104064
9.39161e-05
7.83702e-05
6.33205e-05
4.92409e-05
3.74055e-05
3.19026e-05
3.27378e-05
4.36983e-05
6.51822e-05
8.74578e-05
0.000103198
0.00011257
0.000118242
0.000123934
0.000133241
0.00014811
0.000160224
0.000172468
0.000193627
0.000221593
0.000254663
0.000295759
0.000340873
0.000392373
0.000446354
0.000504045
0.000562879
0.000623255
0.000683861
0.000744402
0.000804318
0.000863214
0.00092076
0.000976706
0.00103154
0.00108497
0.00113679
0.00118719
0.0012361
0.00128373
0.00133016
0.00137548
0.0014198
0.00146321
0.00150578
0.00154759
0.0015887
0.00162916
0.001669
0.00170825
0.00174694
0.00178508
0.00182268
0.00185974
0.00189627
0.00193227
0.00196774
0.00200267
0.00203707
0.00207094
0.00210428
0.00213707
0.00216933
0.00220105
0.00223222
0.00226284
0.00229291
0.00232242
0.00235136
0.00237973
0.00240752
0.00243473
0.00246134
0.00248737
0.00251283
0.00253772
0.00256203
0.00258576
0.0026089
0.00263144
0.00265337
0.00267468
0.00269536
0.00271539
0.00273477
0.00275349
0.00277153
0.00278889
0.00280557
0.00282156
0.00283686
0.00285147
0.00286538
0.0028786
0.00289113
0.00290296
0.0029141
0.00292456
0.00293434
0.00294343
0.00295186
0.00295961
0.00296671
0.00297316
0.00297897
0.00298416
0.00298875
0.00299271
0.00299607
0.00299878
0.00300085
0.00300253
0.00300366
0.00300427
0.00300434
0.00300387
0.00300287
0.00300133
0.00299926
0.00299665
0.00299353
0.0029899
0.00298578
0.00298116
0.00297606
0.00297049
0.00296442
0.00295788
0.00295086
0.00294335
0.00293538
0.00292695
0.0029181
0.00290884
0.00289919
0.00288917
0.0028788
0.0028681
0.00285708
0.00284575
0.00283411
0.00282219
0.00280999
0.00279754
0.00278486
0.00277198
0.0027589
0.00274562
0.00273212
0.00271835
0.00270419
0.00268948
0.00267386
0.00265645
0.00263459
0.0026017
2.3672e-09
2.17713e-07
2.7185e-06
1.42234e-05
3.71396e-05
6.60607e-05
9.33023e-05
0.000115564
0.000132599
0.000145477
0.000154625
0.000160263
0.000163225
0.000164205
0.000163661
0.000161893
0.000159094
0.000155371
0.000150693
0.000144973
0.000138425
0.000130874
0.000122001
0.000106436
9.08932e-05
7.72223e-05
6.50217e-05
5.6003e-05
5.40194e-05
6.11876e-05
7.41984e-05
9.83655e-05
0.00011724
0.000130387
0.000139753
0.00014746
0.0001573
0.000172687
0.000183604
0.000194988
0.00021558
0.000242568
0.000276127
0.000316671
0.000363307
0.000416166
0.000472632
0.000532839
0.000594738
0.000658449
0.000722725
0.000787421
0.000851859
0.000915778
0.000978608
0.00104032
0.00110122
0.0011608
0.00121903
0.00127594
0.00133147
0.0013857
0.00143866
0.00149045
0.00154114
0.0015908
0.00163952
0.00168736
0.00173439
0.00178065
0.00182621
0.00187109
0.00191532
0.00195892
0.0020019
0.00204426
0.00208601
0.00212713
0.00216764
0.00220753
0.00224679
0.00228542
0.00232342
0.00236079
0.00239752
0.00243362
0.00246909
0.00250392
0.00253812
0.00257169
0.00260463
0.00263693
0.0026686
0.00269962
0.00273
0.00275974
0.00278882
0.00281725
0.00284501
0.00287211
0.00289857
0.00292437
0.00294951
0.00297398
0.00299778
0.00302089
0.00304331
0.00306503
0.00308604
0.00310634
0.00312593
0.0031448
0.00316294
0.00318034
0.00319701
0.00321294
0.00322812
0.00324257
0.00325627
0.00326924
0.00328147
0.00329297
0.00330374
0.00331379
0.00332312
0.00333175
0.00333967
0.0033469
0.00335344
0.00335937
0.00336457
0.00336914
0.00337306
0.00337625
0.00337883
0.00338092
0.00338242
0.00338332
0.00338365
0.00338341
0.00338259
0.0033812
0.00337926
0.00337681
0.00337383
0.00337031
0.00336627
0.00336171
0.00335663
0.00335104
0.00334493
0.00333832
0.00333119
0.00332356
0.00331542
0.00330681
0.00329774
0.00328823
0.00327829
0.00326796
0.00325724
0.00324616
0.00323471
0.00322292
0.00321078
0.00319833
0.00318556
0.00317252
0.00315921
0.00314567
0.0031319
0.00311792
0.00310371
0.00308924
0.00307442
0.00305913
0.00304309
0.00302555
0.00300449
0.00297458
7.10533e-09
5.74624e-07
7.29595e-06
3.03867e-05
6.41026e-05
9.77945e-05
0.000125794
0.000146687
0.000161159
0.000170006
0.000174442
0.000176183
0.000176247
0.000174994
0.000172734
0.000169627
0.000165645
0.000160684
0.000154816
0.000148236
0.000140816
0.000132151
0.000115168
9.84324e-05
8.43549e-05
7.42979e-05
7.07482e-05
7.49153e-05
8.37449e-05
0.000103699
0.000128997
0.000151949
0.00016631
0.000175812
0.000186423
0.000198009
0.000204256
0.000215239
0.000233739
0.000258391
0.000290385
0.000328995
0.000374196
0.000425571
0.000482035
0.000542545
0.000605489
0.000670414
0.00073634
0.000803009
0.000869824
0.000936518
0.00100262
0.00106779
0.00113239
0.00119612
0.0012587
0.0013201
0.00138031
0.00143933
0.00149715
0.00155382
0.00160937
0.00166386
0.00171735
0.00176989
0.00182155
0.00187239
0.00192244
0.00197176
0.00202037
0.00206831
0.00211559
0.00216221
0.00220818
0.00225348
0.00229812
0.00234207
0.00238534
0.00242791
0.00246977
0.00251092
0.00255136
0.00259108
0.0026301
0.00266839
0.00270598
0.00274286
0.00277904
0.00281453
0.00284932
0.00288342
0.00291684
0.00294956
0.0029816
0.00301294
0.00304359
0.00307353
0.00310276
0.00313129
0.00315913
0.00318629
0.00321275
0.00323852
0.00326357
0.00328791
0.00331152
0.0033344
0.00335655
0.00337796
0.00339862
0.00341852
0.00343766
0.00345604
0.00347366
0.00349052
0.00350661
0.00352194
0.0035365
0.00355031
0.00356336
0.00357566
0.0035872
0.00359801
0.00360808
0.00361742
0.00362603
0.00363393
0.00364117
0.00364771
0.00365351
0.00365865
0.00366314
0.00366685
0.00367
0.00367256
0.0036745
0.00367583
0.00367656
0.00367669
0.00367624
0.00367521
0.0036736
0.00367142
0.0036687
0.00366542
0.0036616
0.00365724
0.00365236
0.00364694
0.003641
0.00363452
0.00362752
0.00362
0.00361196
0.00360343
0.00359442
0.00358496
0.00357505
0.00356472
0.00355398
0.00354285
0.00353133
0.00351944
0.00350718
0.00349456
0.00348162
0.00346836
0.00345481
0.00344101
0.00342696
0.00341267
0.00339815
0.00338338
0.00336831
0.00335285
0.0033368
0.00331968
0.00329989
0.00327349
1.84748e-08
1.42523e-06
1.62394e-05
5.10885e-05
9.10496e-05
0.000125106
0.000150845
0.000168523
0.000179512
0.000185221
0.000187063
0.000186191
0.000183528
0.000179809
0.000175444
0.000170541
0.000165042
0.000158965
0.000152281
0.000145011
0.000137133
0.00012494
0.00011261
0.000105331
0.000101599
9.66589e-05
9.99039e-05
0.000114054
0.000133483
0.000154677
0.000174885
0.00019174
0.000203978
0.000212566
0.000221262
0.000232049
0.000248762
0.000270679
0.000299807
0.000335431
0.0003777
0.000425954
0.000479773
0.000538309
0.000600375
0.000664867
0.000730821
0.000797792
0.000865264
0.000932945
0.0010005
0.00106734
0.00113369
0.00119967
0.00126468
0.00132875
0.00139178
0.00145375
0.00151464
0.00157447
0.00163322
0.00169095
0.00174767
0.00180345
0.00185832
0.00191233
0.00196553
0.00201796
0.00206966
0.00212068
0.00217103
0.00222075
0.00226984
0.00231829
0.00236608
0.00241318
0.0024596
0.00250531
0.00255029
0.00259452
0.00263798
0.00268067
0.00272259
0.00276374
0.00280413
0.0028438
0.00288272
0.00292087
0.00295824
0.00299487
0.00303074
0.00306587
0.00310026
0.00313392
0.00316685
0.00319905
0.00323053
0.00326129
0.00329135
0.0033207
0.00334934
0.00337728
0.00340449
0.00343099
0.00345676
0.0034818
0.00350611
0.00352967
0.00355249
0.00357456
0.00359587
0.00361643
0.00363622
0.00365524
0.0036735
0.003691
0.00370772
0.00372368
0.00373887
0.00375331
0.00376698
0.0037799
0.00379207
0.00380349
0.00381417
0.00382411
0.00383333
0.00384185
0.00384971
0.00385678
0.00386317
0.00386888
0.00387391
0.00387819
0.00388191
0.00388499
0.00388744
0.00388927
0.00389049
0.00389111
0.00389114
0.00389059
0.00388947
0.00388778
0.00388553
0.00388274
0.00387941
0.00387554
0.00387114
0.00386621
0.00386076
0.00385477
0.00384826
0.00384122
0.00383367
0.00382563
0.0038171
0.00380812
0.00379868
0.00378881
0.00377853
0.00376783
0.00375673
0.00374523
0.00373335
0.00372109
0.00370847
0.00369553
0.00368227
0.00366872
0.00365491
0.00364084
0.00362653
0.00361198
0.00359716
0.00358202
0.00356642
0.00354995
0.00353132
0.00350804
4.11534e-08
3.28885e-06
2.93026e-05
7.44447e-05
0.000118371
0.000152194
0.000174615
0.000188331
0.000195004
0.000196275
0.000194019
0.000189617
0.000184012
0.000177776
0.000171229
0.000164149
0.000156954
0.000149006
0.00014101
0.00013263
0.000123921
0.000115751
0.00010999
0.000108906
0.000114357
0.000125843
0.000141689
0.000159253
0.000177435
0.000194737
0.000209365
0.000220534
0.000231989
0.0002446
0.000260406
0.000280216
0.000306319
0.000338455
0.00037701
0.000421359
0.000471194
0.000525899
0.000584825
0.00064704
0.000711526
0.000777448
0.000844212
0.000911453
0.000978844
0.00104596
0.0011125
0.00117901
0.0012448
0.00130984
0.00137399
0.0014372
0.00149944
0.00156069
0.00162096
0.00168024
0.00173854
0.00179591
0.00185239
0.00190803
0.00196288
0.00201698
0.00207037
0.00212303
0.00217506
0.00222649
0.00227737
0.00232769
0.00237747
0.00242674
0.00247556
0.00252387
0.00257148
0.00261834
0.00266441
0.00270968
0.00275412
0.00279771
0.00284045
0.00288234
0.00292338
0.00296354
0.00300288
0.00304142
0.00307919
0.00311621
0.00315247
0.003188
0.00322279
0.00325685
0.00329019
0.00332282
0.00335473
0.00338593
0.00341643
0.00344621
0.00347528
0.00350364
0.00353128
0.00355819
0.00358438
0.00360985
0.00363458
0.00365857
0.00368183
0.00370435
0.00372612
0.00374714
0.00376741
0.00378692
0.00380568
0.00382368
0.00384092
0.00385741
0.00387315
0.00388813
0.00390237
0.00391585
0.0039286
0.00394061
0.00395189
0.00396243
0.00397226
0.00398142
0.00398984
0.00399753
0.00400454
0.00401087
0.0040165
0.00402143
0.00402577
0.00402945
0.0040325
0.00403493
0.00403675
0.00403797
0.00403861
0.00403866
0.00403816
0.00403709
0.00403548
0.00403334
0.00403066
0.00402745
0.00402373
0.00401948
0.00401472
0.00400943
0.00400361
0.00399729
0.00399046
0.00398314
0.00397535
0.0039671
0.00395841
0.00394928
0.00393973
0.00392976
0.00391938
0.00390858
0.00389739
0.0038858
0.00387384
0.00386152
0.00384887
0.00383591
0.00382267
0.00380914
0.00379537
0.00378134
0.00376707
0.00375253
0.00373765
0.00372209
0.00370484
0.00368499
7.82912e-08
6.73756e-06
4.35259e-05
9.49276e-05
0.000140545
0.000173132
0.000193477
0.000203149
0.000205383
0.000202717
0.000197015
0.000189586
0.000181301
0.000172348
0.000163718
0.000154921
0.000146769
0.000139537
0.000133763
0.000129305
0.000126952
0.000127759
0.000132294
0.000140696
0.000152448
0.000166661
0.000182194
0.000197946
0.000212638
0.000225221
0.000238035
0.000252564
0.000268648
0.000287599
0.000311193
0.000340041
0.000374718
0.000414855
0.00046022
0.000510291
0.000564645
0.000622707
0.000683795
0.000747096
0.000811831
0.000877391
0.00094335
0.00100943
0.00107503
0.00114042
0.00120554
0.00127
0.00133369
0.00139653
0.00145844
0.00151941
0.00157944
0.00163854
0.00169673
0.00175402
0.00181041
0.00186591
0.00192066
0.00197471
0.00202812
0.00208097
0.00213338
0.0021856
0.00223741
0.00228873
0.00233956
0.0023899
0.00243976
0.00248913
0.00253794
0.00258614
0.00263373
0.0026806
0.00272676
0.00277215
0.00281675
0.0028605
0.00290341
0.00294546
0.00298667
0.00302706
0.00306666
0.00310548
0.00314353
0.00318081
0.00321734
0.00325314
0.0032882
0.00332254
0.00335616
0.00338906
0.00342125
0.00345274
0.00348352
0.00351359
0.00354296
0.00357161
0.00359956
0.0036268
0.00365332
0.00367913
0.00370422
0.00372859
0.00375224
0.00377516
0.00379736
0.00381882
0.00383956
0.00385956
0.00387882
0.00389734
0.00391512
0.00393217
0.00394848
0.00396405
0.00397889
0.003993
0.00400638
0.00401904
0.00403098
0.00404219
0.00405273
0.00406255
0.00407166
0.00408006
0.00408778
0.00409481
0.00410116
0.00410685
0.00411191
0.0041163
0.00412007
0.00412321
0.00412576
0.00412771
0.00412907
0.00412987
0.00413012
0.00412981
0.00412897
0.00412761
0.00412573
0.00412333
0.00412043
0.00411703
0.00411311
0.00410868
0.00410374
0.00409829
0.00409235
0.00408594
0.00407907
0.00407175
0.00406399
0.00405581
0.0040472
0.00403817
0.00402872
0.00401886
0.00400857
0.00399788
0.00398681
0.00397536
0.00396356
0.00395143
0.00393898
0.00392624
0.00391322
0.00389995
0.00388643
0.00387268
0.00385865
0.00384412
0.00382819
0.00381129
1.25374e-07
1.15594e-05
5.91727e-05
0.000116656
0.000162311
0.000192838
0.00020914
0.000214909
0.000213604
0.000207885
0.000199707
0.000190168
0.000180519
0.000171316
0.000163171
0.000156206
0.000150738
0.000147558
0.000146398
0.000147533
0.000151241
0.000157609
0.00016646
0.000177413
0.00018994
0.000203495
0.000216998
0.000229614
0.000242583
0.000257805
0.000274854
0.000293411
0.00031548