/*--------------------------------*- C++ -*----------------------------------*\
  =========                 |
  \\      /  F ield         | OpenFOAM: The Open Source CFD Toolbox
   \\    /   O peration     | Website:  https://openfoam.org
    \\  /    A nd           | Version:  8
     \\/     M anipulation  |
\*---------------------------------------------------------------------------*/
FoamFile
{
    version     2.0;
    format      ascii;
    class       volScalarField;
    location    "800";
    object      omega;
}
// * * * * * * * * * * * * * * * * * * * * * * * * * * * * * * * * * * * * * //

dimensions      [0 0 -1 0 0 0 0];

internalField   nonuniform List<scalar> 
12225
(
32582.3
32582.3
32582.3
32582.3
32582.3
44239.6
41685.7
32582.3
32582.3
32582.3
46574.1
43516.8
32582.3
32582.3
32582.3
32582.3
32582.3
40363.5
14.541
6825.49
10250.5
12928.4
13671.7
15952.8
16392
17256
16477.3
16324
17987
18399
19165.1
18094.2
18833.5
18943.5
18587.9
18138.7
453.931
1089.23
1659.66
2716.19
3631.65
4519.72
5115.31
5766.38
6290.03
6658.45
6990.81
7191.86
7499.35
7712.69
7921.33
8030.06
8075.13
8154.11
396.655
535.604
596.534
755.752
927.262
1136.98
1297.9
1480.27
1642.79
1811.45
1939.17
2082.35
2191.28
2337.21
2426.42
2551.59
2609.39
2734.07
430.703
446.663
461.81
482.224
513.003
563.609
599.868
651.124
690.094
743.956
779.729
831.145
862.597
913.256
940.306
986.398
1008.05
1053.6
437.356
437.288
438.371
440.264
444.396
452.884
460.494
474.13
482.603
498.73
508.355
525.077
534.524
551.097
559.874
575.629
583.302
599.024
438.663
437.043
434.889
433.642
432.369
432.354
432.916
434.139
435.365
438.161
439.941
443.848
446.048
450.514
452.907
457.537
459.906
464.784
438.881
436.925
434.658
432.88
430.983
429.602
428.234
427.422
426.501
426.162
425.818
425.899
425.988
426.502
426.833
427.665
428.086
429.369
438.947
436.855
434.663
432.763
430.808
429.143
427.434
426.025
424.563
423.4
422.191
421.299
420.314
419.699
418.899
418.525
417.872
417.707
438.978
436.815
434.668
432.721
430.786
429.04
427.3
425.74
424.174
422.787
421.382
420.161
418.909
417.845
416.74
415.82
414.853
414.058
438.992
436.794
434.669
432.692
430.777
428.995
427.268
425.659
424.098
422.644
421.23
419.914
418.633
417.443
416.285
415.21
414.165
413.194
438.999
436.782
434.668
432.672
430.767
428.966
427.246
425.619
424.063
422.588
421.177
419.838
418.556
417.34
416.174
415.068
414.008
413.001
439
436.777
434.663
432.661
430.755
428.948
427.226
425.592
424.034
422.553
421.139
419.794
418.509
417.286
416.118
415.004
413.939
412.925
439
436.774
434.659
432.653
430.745
428.933
427.209
425.571
424.01
422.524
421.108
419.758
418.471
417.244
416.072
414.955
413.886
412.869
438.999
436.77
434.65
432.64
430.727
428.911
427.182
425.539
423.973
422.484
421.062
419.709
418.416
417.186
416.008
414.888
413.815
412.794
438.989
436.74
434.601
432.574
430.643
428.813
427.067
425.412
423.83
422.33
420.894
419.533
418.226
416.989
415.799
414.674
413.588
412.563
438.963
436.662
434.479
432.408
430.441
428.572
426.796
425.107
423.499
421.97
420.513
419.125
417.802
416.541
415.337
414.19
413.094
412.048
438.963
436.663
434.48
432.408
430.441
428.572
426.796
425.106
423.499
421.968
420.511
419.122
417.8
416.536
415.334
414.184
413.09
412.042
438.991
436.74
434.606
432.575
430.649
428.814
427.072
425.411
423.833
422.327
420.895
419.526
418.225
416.979
415.795
414.661
413.582
412.547
439
436.769
434.651
432.638
430.726
428.907
427.177
425.53
423.963
422.469
421.046
419.689
418.394
417.159
415.981
414.856
413.783
412.756
439.001
436.772
434.657
432.647
430.737
428.921
427.195
425.551
423.987
422.496
421.076
419.721
418.43
417.198
416.023
414.9
413.829
412.805
439.004
436.773
434.662
432.651
430.746
428.929
427.207
425.563
424.004
422.513
421.098
419.745
418.459
417.229
416.059
414.94
413.875
412.856
439.015
436.766
434.674
432.649
430.762
428.935
427.231
425.584
424.047
422.561
421.177
419.838
418.59
417.382
416.259
415.172
414.164
413.188
439.059
436.728
434.699
432.624
430.809
428.96
427.364
425.779
424.422
423.075
421.971
420.836
419.936
418.986
418.261
417.478
416.917
416.291
439.189
436.508
434.713
432.657
431.324
429.707
429.168
428.461
428.545
428.902
429.64
430.344
431.646
432.508
434.074
435.1
436.888
438.085
438.756
435.537
435.295
437.12
438.555
441.393
448.644
455.604
465.956
474.64
485.896
494.827
506.059
514.68
525.595
533.736
544.275
551.849
428.619
437.35
452.402
483.204
514.912
560.092
615.367
666.031
723.201
771.809
825.401
868.439
916.65
953.452
996.433
1027.55
1066.04
1092.24
356.09
551.52
711.172
953.066
1264.77
1566.38
1866.08
2128.23
2380.27
2590.94
2791.66
2952.65
3108.94
3229.05
3351.21
3439.99
3537.65
3604.24
309.845
2315.73
3976.69
5511.94
6745.75
7713.91
8418.05
8934.74
9307.46
9574.76
9751.5
9873.62
9940.59
9981.88
9989.09
9985.49
9970.4
9950.04
16112.1
16112.1
21251.4
23153.3
24107.7
24579.7
24624.5
24564.5
24400.8
24156.7
23890
23620.7
23359.5
23113.2
22883.9
22674.4
22481.4
22308.6
11463.3
2494.65
2496.87
2499.12
2501.38
2503.67
2505.98
2508.3
2510.65
2513.02
2515.42
2517.83
2520.27
2522.73
2525.21
2527.72
2530.25
2532.8
2535.37
2537.97
2540.6
2543.25
2545.92
2548.62
2551.34
2554.09
2556.87
2559.67
2562.5
2565.35
2568.23
2571.14
2574.08
2577.04
2580.04
2583.06
2586.11
2589.19
2592.3
2595.43
2598.6
2601.8
2605.03
2608.29
2611.59
2614.91
2618.27
2621.66
2625.08
2628.54
2632.03
2635.55
2639.11
2642.71
2646.33
2650
2653.7
2657.44
2661.21
3264.51
3270.5
3425.74
2676.69
3368.05
3403.25
3499.3
3581.75
3655.77
3733.55
3803.78
3875.19
3942.4
4009.32
4073.63
4137.17
4198.83
4259.6
4318.88
4377.23
4434.33
4490.48
4545.51
4599.6
4652.67
4704.76
4755.89
4806.02
4855.2
4903.35
4950.52
4996.66
5041.72
5085.69
5128.5
5170.1
5210.45
5249.48
5287.24
5323.72
5359.15
5393.76
5427.83
5460.64
5492.61
5523.54
5553.54
5582.53
5610.56
5637.58
5663.61
5688.62
5712.63
5735.63
5757.61
5778.6
5798.55
5817.53
5835.47
5852.45
5868.4
5883.41
5897.4
5910.46
5922.5
5933.61
5943.69
5952.82
5960.89
5968.3
5975.27
5981.7
5986.04
5990.74
5993.79
5996.79
5999.04
6001.1
6002.36
6001.85
6000.48
5998.23
5995.24
5991.4
5986.92
5981.61
5975.72
5969.06
5961.9
5954.14
5945.88
5937.09
5927.69
5917.88
5907.29
5896.53
5885.12
5873.49
5861.5
5849.22
5836.77
5824.06
5811.22
5798.21
5785.08
5771.86
5758.59
5745.34
5732.13
5719.08
5706.16
5693.47
5680.92
5668.48
5655.94
5642.98
5628.87
5612.67
5591.83
5561.33
5445.33
11463.3
1992.88
995.305
809.38
691.609
619.468
625.705
622.403
611.416
589.25
565.397
541.96
520.452
502.789
490.588
482.29
481.912
482.052
513.32
561.385
646.008
747.783
858.033
967.436
1064.61
1140
1180.07
1173.13
1129.28
1047.88
922.876
770.41
641.094
559.046
493.961
457.583
451.247
458.92
478.939
511.139
539.371
585.719
668.459
786.464
953.229
1241.02
1558.61
1792.8
1942.58
2025.92
2054.18
2055.28
2018.78
1982.81
1948.92
1904.21
1830.66
1789.18
1745.2
1737.47
1687.89
1665.08
1631.69
1660.11
1644.55
1645.14
1644.44
1645.87
1648.97
1652.8
1658
1663.62
1670.1
1676.85
1684.09
1691.5
1699.18
1706.93
1714.81
1722.71
1730.62
1738.51
1746.35
1754.12
1761.8
1769.37
1776.79
1784.07
1791.16
1798.07
1804.75
1811.22
1817.46
1823.48
1829.3
1834.96
1840.58
1846.24
1852.2
1858.7
1866.19
1874.68
1882.45
1890.24
1897.72
1905.03
1912.11
1918.97
1925.62
1932.06
1938.28
1944.29
1950.09
1955.67
1961.05
1966.22
1971.18
1975.93
1980.48
1984.83
1988.97
1992.91
1996.65
2000.19
2003.54
2006.69
2009.65
2012.45
2015.12
2017.65
2020
2022.1
2024.12
2025.93
2027.71
2029.26
2030.58
2031.29
2030.93
2030.6
2030.09
2029.41
2028.54
2027.49
2026.26
2024.87
2023.3
2021.59
2019.72
2017.72
2015.53
2013.32
2010.57
2008.26
2005.37
2002.6
1999.7
1996.61
1993.56
1990.33
1987.1
1983.75
1980.38
1976.94
1973.48
1969.98
1966.47
1962.96
1959.46
1955.99
1952.56
1949.2
1945.9
1942.64
1939.55
1936.65
1934.06
1932.27
1930.36
1938.77
11463.3
2010.11
813.051
636.032
673.987
676.125
649.554
595.195
535.989
480.22
430.793
389.022
356.174
330.445
310.671
295.501
284.978
276.795
274.96
277.423
287.9
306.744
339.332
383.657
438.957
499.742
560.993
608.025
638.116
635.77
613.004
570.569
507.945
438.572
388.102
377.819
386.685
408.241
440.327
504.431
606.739
748.48
939.598
1119.93
1268.34
1397.12
1507.59
1542.87
1547.47
1511.01
1458.18
1399.97
1341.81
1291.68
1246.82
1209.21
1173.44
1150.56
1130.32
1116.67
1104.2
1098.05
1090.94
1090.46
1088.11
1088.1
1089.05
1090.71
1093.02
1095.78
1098.98
1102.44
1106.18
1110.09
1114.16
1118.33
1122.59
1126.9
1131.25
1135.62
1139.99
1144.36
1148.7
1153.02
1157.29
1161.51
1165.68
1169.78
1173.82
1177.78
1181.69
1185.53
1189.31
1193.06
1196.78
1200.52
1204.3
1208.16
1212.16
1216.29
1220.57
1224.8
1228.85
1232.83
1236.67
1240.4
1244.01
1247.51
1250.88
1254.14
1257.28
1260.31
1263.21
1266
1268.67
1271.21
1273.65
1275.96
1278.15
1280.23
1282.18
1284.02
1285.74
1287.34
1288.83
1290.2
1291.47
1292.63
1293.68
1294.63
1295.46
1296.16
1296.78
1297.27
1297.68
1297.92
1297.99
1297.81
1297.44
1296.96
1296.37
1295.66
1294.85
1293.93
1292.91
1291.78
1290.55
1289.23
1287.8
1286.28
1284.66
1282.97
1281.11
1279.31
1277.31
1275.3
1273.2
1271.02
1268.8
1266.5
1264.16
1261.76
1259.32
1256.83
1254.31
1251.77
1249.2
1246.62
1244.03
1241.44
1238.87
1236.33
1233.85
1231.45
1229.22
1227.26
1225.75
1225.28
1226.27
1236.07
11463.3
2037.78
1006.31
968.053
896.17
769.239
653.485
547.541
463.64
401.023
353.944
316.914
288.189
266.25
249.56
236.91
227.454
220.563
215.969
214.272
215.345
218.431
226.751
241.024
262.639
291.411
326.098
361.405
392.941
416.176
421.949
415.225
392.607
390.452
424.496
506.98
569.397
621.938
687.689
782.009
912.204
1037.88
1119.82
1188.15
1248.15
1274.47
1257.51
1205.24
1167.83
1112.84
1067.13
1024.04
988.356
958.642
934.248
915.129
899.557
888.95
880.686
874.935
871.075
869.171
867.558
867.63
868.256
869.596
871.418
873.619
876.136
878.899
881.869
884.996
888.257
891.618
895.065
898.574
902.132
905.725
909.343
912.974
916.611
920.244
923.867
927.473
931.057
934.614
938.14
941.632
945.09
948.516
951.908
955.272
958.611
961.933
965.245
968.555
971.871
975.198
978.532
981.86
985.152
988.361
991.472
994.501
997.436
1000.28
1003.03
1005.69
1008.25
1010.72
1013.09
1015.37
1017.55
1019.63
1021.61
1023.49
1025.27
1026.95
1028.52
1030
1031.37
1032.64
1033.81
1034.88
1035.85
1036.71
1037.48
1038.15
1038.72
1039.19
1039.56
1039.82
1039.98
1040.05
1040.01
1039.85
1039.55
1039.11
1038.55
1037.89
1037.14
1036.3
1035.36
1034.33
1033.21
1032
1030.69
1029.3
1027.83
1026.26
1024.62
1022.9
1021.08
1019.23
1017.27
1015.27
1013.2
1011.06
1008.87
1006.62
1004.32
1001.97
999.587
997.161
994.704
992.217
989.708
987.18
984.641
982.099
979.567
977.057
974.601
972.23
970.01
968.042
966.476
965.79
966.559
972.482
11463.3
2306.92
1456.45
1177.43
936.028
724.792
559.295
448.246
372.612
319.639
281.67
254.707
235.127
220.399
209.033
200.242
193.576
188.758
185.554
184.057
184.347
185.716
189.529
196.328
207.115
222.927
243.962
267.811
291.966
311.485
326.221
353.65
406.726
504.729
591.547
657.222
723.6
797.601
870.934
936.764
993.549
1042.36
1079.91
1092.23
1072.97
1023.96
991.251
946.917
911.922
875.483
847.406
822.525
802.842
786.891
774.411
765.036
758.065
753.434
750.423
748.926
748.251
748.365
749.345
750.895
752.868
755.205
757.819
760.655
763.672
766.837
770.123
773.509
776.976
780.509
784.097
787.728
791.391
795.079
798.782
802.494
806.208
809.918
813.617
817.303
820.969
824.612
828.229
831.817
835.377
838.906
842.407
845.878
849.32
852.736
856.125
859.488
862.821
866.121
869.376
872.577
875.708
878.76
881.727
884.611
887.408
890.119
892.739
895.268
897.705
900.048
902.296
904.448
906.502
908.456
910.31
912.062
913.711
915.257
916.698
918.034
919.264
920.388
921.406
922.318
923.124
923.825
924.421
924.913
925.3
925.581
925.756
925.814
925.776
925.632
925.378
925.008
924.522
923.914
923.197
922.384
921.474
920.468
919.369
918.178
916.894
915.519
914.053
912.5
910.859
909.132
907.324
905.437
903.471
901.441
899.33
897.157
894.917
892.614
890.255
887.839
885.373
882.86
880.306
877.716
875.092
872.438
869.76
867.063
864.353
861.639
858.937
856.266
853.644
851.102
848.695
846.507
844.658
843.479
843.529
846.41
11463.3
2912.59
1721.7
1201.93
830.385
585.913
442.343
354.197
299.691
264.272
239.592
221.378
207.375
196.406
187.664
180.715
175.342
171.425
168.875
167.802
168.126
169.508
172.706
177.914
185.628
197.172
213.432
234.465
261.548
301.288
355.876
442.223
548.655
637.212
703.708
765.266
818.689
860.278
895.58
928.883
952.32
958.381
936.01
904.081
874.855
839.753
811.007
781.376
757.768
736.327
719.504
705.401
694.438
685.958
679.721
675.426
672.826
671.694
671.396
671.925
673.241
675.102
677.471
680.193
683.197
686.428
689.839
693.396
697.071
700.846
704.703
708.628
712.612
716.644
720.715
724.816
728.94
733.08
737.228
741.378
745.524
749.66
753.782
757.884
761.963
766.015
770.036
774.023
777.975
781.89
785.767
789.606
793.403
797.159
800.87
804.534
808.147
811.702
815.19
818.605
821.941
825.193
828.359
831.436
834.421
837.313
840.109
842.807
845.403
847.898
850.289
852.574
854.751
856.817
858.772
860.614
862.34
863.951
865.445
866.82
868.078
869.216
870.235
871.136
871.917
872.581
873.126
873.554
873.864
874.054
874.119
874.071
873.911
873.632
873.235
872.718
872.082
871.328
870.461
869.489
868.412
867.232
865.95
864.571
863.092
861.515
859.842
858.074
856.213
854.262
852.224
850.103
847.901
845.622
843.265
840.837
838.339
835.776
833.152
830.47
827.735
824.951
822.125
819.261
816.362
813.432
810.477
807.501
804.513
801.522
798.541
795.586
792.678
789.843
787.127
784.597
782.346
780.61
779.745
780.595
11463.3
3418.49
1767.88
1033.01
649.221
456.223
358.541
303.022
267.485
242.212
223.156
208.301
196.421
186.628
178.523
171.938
166.796
163.074
160.851
160.246
161.058
163.518
168.148
175.321
185.95
200.228
221.208
253.857
304.998
384.944
488.785
580.188
648.602
707.657
755.175
790.889
819.064
843.198
855.013
856.38
837.092
814.026
789.62
764.018
739.76
715.683
695.162
676.549
661.424
648.586
638.459
630.436
624.475
620.267
617.775
616.652
616.429
617.182
618.725
620.9
623.618
626.749
630.228
633.969
637.92
642.038
646.292
650.656
655.111
659.642
664.237
668.888
673.584
678.318
683.082
687.869
692.671
697.481
702.29
707.093
711.884
716.656
721.404
726.124
730.812
735.463
740.073
744.638
749.156
753.624
758.041
762.405
766.713
770.962
775.15
779.273
783.328
787.312
791.222
795.051
798.791
802.437
805.986
809.435
812.782
816.022
819.153
822.171
825.074
827.857
830.515
833.048
835.455
837.734
839.885
841.905
843.793
845.548
847.168
848.654
850.003
851.217
852.295
853.237
854.045
854.718
855.256
855.661
855.933
856.059
856.066
855.94
855.685
855.299
854.784
854.14
853.37
852.474
851.457
850.324
849.077
847.716
846.241
844.645
842.938
841.123
839.203
837.179
835.054
832.831
830.513
828.104
825.608
823.026
820.36
817.616
814.797
811.908
808.953
805.936
802.863
799.738
796.568
793.358
790.111
786.832
783.526
780.2
776.863
773.522
770.191
766.884
763.622
760.427
757.336
754.403
751.698
749.391
747.65
746.95
11463.3
3565.24
1560.23
814.89
514.386
381.46
312.703
272.223
245.911
227.544
213.587
201.966
191.749
182.889
175.366
169.255
164.731
161.976
160.958
161.51
163.799
168.387
175.987
188.099
207.28
236.392
280.318
348.875
435.686
517.929
582.699
637.601
684.001
721.132
750.656
771.421
779.813
776.583
761.077
743.808
723.933
704.342
685.043
666.163
648.467
632.247
618.405
606.548
596.918
589.148
583.213
578.888
576.124
574.811
574.497
575.139
576.684
578.985
581.913
585.357
589.234
593.456
597.961
602.691
607.601
612.658
617.834
623.108
628.464
633.888
639.369
644.898
650.465
656.065
661.688
667.327
672.973
678.617
684.25
689.866
695.457
701.018
706.542
712.024
717.46
722.847
728.179
733.451
738.658
743.8
748.874
753.876
758.804
763.656
768.427
773.115
777.718
782.232
786.659
790.985
795.203
799.311
803.304
807.178
810.931
814.56
818.061
821.431
824.665
827.762
830.719
833.533
836.202
838.724
841.097
843.319
845.389
847.306
849.068
850.675
852.125
853.42
854.56
855.544
856.375
857.052
857.576
857.948
858.159
858.222
858.147
857.922
857.549
857.032
856.371
855.569
854.628
853.551
852.342
851.003
849.538
847.948
846.234
844.401
842.447
840.376
838.19
835.892
833.484
830.969
828.351
825.635
822.823
819.918
816.924
813.844
810.683
807.448
804.142
800.771
797.339
793.852
790.317
786.739
783.122
779.472
775.794
772.096
768.387
764.676
760.974
757.297
753.662
750.089
746.609
743.264
740.108
737.24
734.732
732.735
11463.3
3398.88
1281.35
660.71
443.755
347.987
295.98
263.958
242.223
225.875
212.921
202.178
193.049
185.244
178.774
173.865
170.814
169.787
170.979
174.56
181.08
192.001
209.005
235.457
277.219
334.59
401.757
465.863
523.07
572.606
614.896
650.369
680.658
703.497
712.685
711.824
699.86
686.541
670.57
655.115
639.815
625.176
610.969
597.41
584.986
574.041
564.824
557.215
551.204
546.657
543.497
541.799
541.226
541.537
542.86
545.03
547.949
551.514
555.628
560.204
565.17
570.458
576.011
581.78
587.726
593.819
600.032
606.348
612.745
619.209
625.727
632.287
638.878
645.491
652.121
658.759
665.391
672.008
678.6
685.159
691.678
698.149
704.567
710.926
717.216
723.425
729.558
735.616
741.595
747.492
753.305
759.031
764.666
770.208
775.65
780.991
786.225
791.348
796.352
801.235
805.99
810.615
815.105
819.456
823.665
827.728
831.642
835.403
839.008
842.453
845.735
848.85
851.798
854.575
857.179
859.61
861.865
863.944
865.845
867.568
869.112
870.477
871.665
872.676
873.512
874.173
874.662
874.974
875.105
875.083
874.894
874.537
874.017
873.335
872.495
871.499
870.35
869.052
867.608
866.021
864.295
862.431
860.432
858.301
856.039
853.649
851.133
848.496
845.738
842.863
839.876
836.781
833.583
830.282
826.885
823.396
819.82
816.165
812.434
808.632
804.766
800.841
796.864
792.842
788.778
784.68
780.555
776.41
772.254
768.097
763.952
759.831
755.75
751.73
747.793
743.975
740.316
736.903
733.752
730.743
11463.3
2977.07
1034.02
561.92
399.279
325.404
285.837
260.645
243.082
230.114
219.67
210.819
203.274
197.138
192.686
190.678
191.091
194.946
202.223
213.54
230.51
255.441
289.828
333.128
380.681
429.15
475.194
516.745
553.814
585.621
613.494
638.147
650.581
652.931
646.837
637.502
625.058
612.816
600.682
589.279
578.259
567.612
557.34
547.73
539.13
531.761
525.709
520.946
517.444
515.237
514.283
514.186
515.12
516.972
519.679
523.151
527.303
532.053
537.324
543.045
549.153
555.589
562.298
569.232
576.353
583.629
591.035
598.563
606.177
613.854
621.579
629.338
637.11
644.875
652.599
660.28
667.944
675.587
683.198
690.765
698.279
705.735
713.125
720.445
727.689
734.858
741.94
748.919
755.788
762.547
769.192
775.722
782.132
788.419
794.58
800.61
806.504
812.259
817.871
823.337
828.652
833.813
838.815
843.653
848.324
852.824
857.15
861.298
865.265
869.046
872.637
876.037
879.241
882.249
885.058
887.668
890.077
892.284
894.288
896.088
897.684
899.077
900.269
901.26
902.054
902.652
903.055
903.252
903.268
903.098
902.741
902.2
901.478
900.579
899.504
898.259
896.846
895.27
893.534
891.643
889.599
887.404
885.063
882.577
879.95
877.184
874.283
871.25
868.086
864.795
861.383
857.854
854.212
850.461
846.606
842.653
838.609
834.479
830.27
825.986
821.633
817.217
812.746
808.226
803.664
799.065
794.44
789.797
785.145
780.493
775.855
771.241
766.669
762.153
757.715
753.385
749.192
745.206
741.408
737.459
11463.3
2502.68
887.647
518.156
383.504
320.989
286.462
265.968
252.232
242.054
233.999
227.574
222.838
220.63
220.691
224.45
232.156
243.157
257.476
277.272
303.024
333.825
368.009
403.47
438.342
471.583
502.356
529.638
554.312
577.32
592.426
597.606
596.927
592.097
584.034
574.98
565.628
556.827
548.414
540.353
532.467
524.785
517.46
510.756
504.921
500.108
496.377
493.731
492.324
491.898
492.391
493.853
496.24
499.489
503.54
508.319
513.754
519.775
526.316
533.316
540.732
548.51
556.578
564.889
573.4
582.069
590.843
599.635
608.496
617.43
626.422
635.452
644.497
653.534
662.559
671.557
680.507
689.409
698.241
706.991
715.653
724.222
732.695
741.065
749.327
757.47
765.482
773.36
781.1
788.698
796.155
803.468
810.634
817.65
824.51
831.211
837.748
844.119
850.321
856.35
862.202
867.87
873.351
878.639
883.732
888.626
893.317
897.802
902.077
906.138
909.981
913.603
917.001
920.174
923.121
925.841
928.333
930.595
932.627
934.429
936.002
937.346
938.462
939.356
940.028
940.484
940.714
940.734
940.544
940.146
939.543
938.739
937.737
936.542
935.156
933.585
931.833
929.904
927.803
925.534
923.099
920.503
917.749
914.841
911.781
908.573
905.22
901.726
898.093
894.324
890.426
886.401
882.256
877.995
873.625
869.153
864.585
859.929
855.189
850.37
845.478
840.52
835.504
830.436
825.324
820.176
815.003
809.814
804.619
799.427
794.249
789.099
783.989
778.936
773.957
769.077
764.32
759.743
755.316
750.513
11463.3
2088.57
786.098
484.89
374.613
321.699
293.883
277.453
266.805
259.444
254.295
251.438
250.699
252.7
258.188
267.258
279.388
294.214
312.63
334.33
358.513
384.129
410.132
435.66
460.041
482.429
503.391
523.387
539.07
546.653
548.72
548.389
544.748
539.348
533.078
526.749
520.592
514.709
508.968
503.307
497.716
492.307
487.27
482.831
479.176
476.42
474.732
474.082
474.274
475.473
477.603
480.645
484.567
489.339
494.945
501.264
508.233
515.79
523.866
532.382
541.224
550.331
559.757
569.476
579.451
589.64
600.008
610.551
621.203
631.91
642.637
653.363
664.054
674.661
685.164
695.545
705.787
715.874
725.825
735.652
745.358
754.942
764.405
773.743
782.947
792.004
800.902
809.632
818.191
826.578
834.791
842.829
850.69
858.368
865.86
873.16
880.265
887.173
893.881
900.386
906.684
912.767
918.632
924.272
929.685
934.868
939.817
944.531
949.004
953.233
957.214
960.944
964.421
967.642
970.609
973.32
975.776
977.976
979.919
981.605
983.036
984.212
985.137
985.816
986.25
986.445
986.4
986.121
985.611
984.876
983.919
982.744
981.358
979.763
977.965
975.97
973.781
971.404
968.844
966.105
963.191
960.107
956.855
953.441
949.867
946.138
942.257
938.228
934.054
929.738
925.285
920.698
915.985
911.153
906.21
901.161
896.016
890.778
885.454
880.049
874.568
869.018
863.407
857.742
852.032
846.289
840.523
834.744
828.963
823.188
817.43
811.701
806.013
800.382
794.824
789.363
784.015
778.829
773.783
768.184
11463.3
1955.29
768.062
481.381
376.735
329.97
306.057
292.602
284.547
279.892
277.889
277.718
280.226
285.614
293.834
304.625
317.661
332.961
350.093
368.492
387.653
406.832
425.445
443.149
460.276
477.103
491.221
500.319
504.692
506.223
506.34
504.649
501.645
498.036
494.202
490.364
486.558
482.776
478.985
475.217
471.559
468.163
465.208
462.874
461.404
460.846
461.143
462.551
464.873
468.104
472.22
477.194
482.975
489.469
496.513
504.273
512.74
521.866
531.59
541.854
552.627
563.867
575.489
587.441
599.676
612.142
624.78
637.553
650.398
663.205
675.9
688.415
700.708
712.764
724.567
736.11
747.393
758.436
769.274
779.947
790.47
800.855
811.108
821.227
831.197
840.992
850.599
860.009
869.216
878.218
887.015
895.606
903.987
912.153
920.099
927.82
935.314
942.577
949.609
956.407
962.966
969.279
975.341
981.147
986.693
991.977
996.997
1001.75
1006.24
1010.45
1014.38
1018.04
1021.41
1024.5
1027.3
1029.83
1032.07
1034.03
1035.71
1037.11
1038.24
1039.08
1039.65
1039.96
1039.99
1039.77
1039.29
1038.56
1037.59
1036.37
1034.92
1033.24
1031.33
1029.21
1026.87
1024.32
1021.58
1018.63
1015.5
1012.18
1008.68
1005
1001.15
997.133
992.951
988.609
984.111
979.462
974.665
969.723
964.642
959.421
954.072
948.605
943.026
937.344
931.563
925.69
919.728
913.685
907.565
901.375
895.12
888.811
882.46
876.079
869.679
863.271
856.865
850.468
844.092
837.746
831.444
825.2
819.032
812.961
806.998
801.185
795.526
789.178
11463.3
1865.47
740.447
478.052
383.725
341.491
320.56
309.31
303.138
300.321
299.644
301.306
305.624
312.245
320.876
331.19
342.908
355.762
369.379
383.379
397.333
411.052
424.705
438.21
449.933
458.27
464.094
467.972
470.045
470.87
471.006
470.292
469.005
467.43
465.699
463.882
462.007
460.115
458.277
456.627
455.389
454.681
454.482
454.944
456.198
458.233
460.975
464.237
468.343
473.395
479.403
486.35
494.204
502.943
512.602
523.088
534.372
546.385
559.052
572.307
586.094
600.342
614.958
629.867
645.024
660.366
675.742
691.025
706.096
720.9
735.366
749.423
763.024
776.148
788.788
800.951
812.659
823.983
835.024
845.911
856.661
867.291
877.832
888.279
898.593
908.706
918.617
928.315
937.789
947.036
956.052
964.834
973.38
981.682
989.735
997.534
1005.08
1012.36
1019.38
1026.15
1032.64
1038.87
1044.81
1050.47
1055.84
1060.93
1065.72
1070.22
1074.43
1078.33
1081.94
1085.25
1088.25
1090.94
1093.32
1095.4
1097.19
1098.67
1099.85
1100.73
1101.33
1101.63
1101.62
1101.36
1100.79
1099.95
1098.84
1097.46
1095.83
1093.94
1091.82
1089.46
1086.87
1084.05
1081.02
1077.77
1074.32
1070.67
1066.83
1062.79
1058.58
1054.19
1049.62
1044.89
1039.99
1034.93
1029.71
1024.35
1018.83
1013.18
1007.39
1001.46
995.403
989.236
982.962
976.587
970.114
963.548
956.896
950.163
943.354
936.477
929.533
922.536
915.504
908.449
901.38
894.308
887.243
880.19
873.163
866.167
859.219
852.333
845.527
838.823
832.23
825.781
819.513
812.455
11463.3
1848.75
740.275
484.815
394.726
354.87
335.231
324.793
319.321
317.029
316.662
318.837
323.329
329.584
337.173
345.757
355.119
365.032
375.251
385.555
396.116
406.442
415.332
422.638
428.612
433.703
437.737
440.878
443.325
445.297
446.965
448.417
449.662
450.704
451.603
452.415
453.197
454.008
454.903
455.899
456.877
458.255
460.359
463.455
467.5
472.476
478.395
485.38
493.383
502.422
512.511
523.621
535.701
548.72
562.664
577.466
593.179
609.608
626.608
644.072
661.901
679.993
698.235
716.514
734.692
752.637
770.293
787.558
804.316
820.461
835.885
850.493
864.268
877.236
889.44
900.897
911.612
921.764
931.563
941.449
951.307
961.127
971.027
980.975
990.877
1000.66
1010.27
1019.67
1028.83
1037.74
1046.4
1054.81
1062.97
1070.87
1078.5
1085.85
1092.93
1099.72
1106.24
1112.48
1118.44
1124.11
1129.48
1134.54
1139.3
1143.75
1147.89
1151.72
1155.25
1158.46
1161.36
1163.94
1166.2
1168.13
1169.74
1171.04
1172.03
1172.71
1173.08
1173.12
1172.9
1172.35
1171.5
1170.35
1168.91
1167.19
1165.19
1162.92
1160.38
1157.59
1154.57
1151.3
1147.81
1144.09
1140.15
1136
1131.64
1127.09
1122.35
1117.42
1112.32
1107.04
1101.59
1095.98
1090.21
1084.29
1078.21
1071.99
1065.63
1059.14
1052.52
1045.8
1038.97
1032.04
1025.01
1017.88
1010.66
1003.35
995.951
988.476
980.93
973.322
965.647
957.929
950.184
942.424
934.657
926.891
919.137
911.4
903.693
896.021
888.402
880.856
873.401
866.053
858.823
851.73
844.861
837.129
11463.3
1824.18
738.844
492.515
404.4
365.672
346.82
336.422
330.79
328.38
327.901
329.709
333.526
338.718
344.864
351.698
359.098
366.953
375.106
382.971
390.48
397.498
404.348
410.717
416.696
422.367
427.715
432.774
437.539
441.975
446.022
449.493
452.627
455.688
458.768
461.947
465.307
468.938
472.932
477.415
482.629
488.718
495.921
504.499
514.122
524.76
536.443
549.224
563.059
577.942
593.974
611.051
628.984
647.646
666.925
686.693
706.746
727.061
747.568
768.17
788.766
809.252
829.529
849.497
869.059
888.122
906.611
924.446
941.541
957.802
973.107
987.26
1000.37
1012.56
1023.94
1034.58
1044.52
1053.79
1062.46
1070.75
1078.74
1086.67
1095.04
1103.71
1112.4
1121.04
1129.51
1137.74
1145.71
1153.43
1160.88
1168.08
1175.03
1181.71
1188.13
1194.26
1200.1
1205.67
1210.95
1215.97
1220.7
1225.16
1229.31
1233.14
1236.67
1239.89
1242.8
1245.41
1247.72
1249.72
1251.41
1252.78
1253.83
1254.55
1254.96
1255.04
1254.86
1254.36
1253.53
1252.4
1250.98
1249.26
1247.23
1244.92
1242.33
1239.46
1236.33
1232.94
1229.29
1225.41
1221.28
1216.93
1212.35
1207.55
1202.55
1197.34
1191.94
1186.35
1180.59
1174.65
1168.54
1162.28
1155.86
1149.28
1142.55
1135.68
1128.68
1121.53
1114.26
1106.86
1099.35
1091.75
1084.07
1076.29
1068.41
1060.44
1052.38
1044.24
1036.01
1027.72
1019.36
1010.95
1002.51
994.052
985.576
977.089
968.6
960.117
951.65
943.21
934.807
926.446
918.149
909.939
901.831
893.838
885.97
878.236
870.771
862.407
11463.3
1809.13
740.351
497.647
410.799
373.119
354.517
343.97
338.202
335.667
335.09
336.629
340.081
344.867
350.602
357.031
363.98
371.281
378.811
386.717
394.619
402.351
410.074
417.72
425.351
433.01
440.715
448.498
456.284
464.011
471.753
479.647
487.756
496.15
504.918
514.162
523.982
534.487
545.776
557.963
571.177
585.423
600.661
616.644
633.484
651.218
669.862
689.443
709.875
730.978
752.529
774.578
797.065
819.745
842.463
865.084
887.482
909.574
931.279
952.516
973.218
993.335
1012.82
1031.64
1049.75
1067.11
1083.7
1099.49
1114.45
1128.58
1141.85
1154.3
1165.77
1176.43
1186.42
1195.85
1204.77
1213.03
1220.59
1227.29
1233.53
1239.78
1246.32
1252.86
1259.24
1265.43
1271.39
1277.11
1282.58
1287.81
1292.83
1297.64
1302.22
1306.58
1310.71
1314.59
1318.24
1321.64
1324.81
1327.75
1330.45
1332.92
1335.12
1337.02
1338.65
1340.01
1341.1
1341.93
1342.49
1342.79
1342.8
1342.55
1341.96
1341.09
1339.95
1338.53
1336.85
1334.88
1332.64
1330.12
1327.32
1324.26
1320.93
1317.34
1313.5
1309.42
1305.1
1300.55
1295.77
1290.77
1285.56
1280.14
1274.52
1268.71
1262.7
1256.52
1250.16
1243.63
1236.95
1230.11
1223.13
1216
1208.72
1201.31
1193.76
1186.08
1178.27
1170.33
1162.28
1154.1
1145.81
1137.41
1128.91
1120.32
1111.63
1102.85
1093.98
1085.03
1076
1066.91
1057.76
1048.56
1039.35
1030.12
1020.89
1011.64
1002.4
993.164
983.954
974.779
965.653
956.603
947.642
938.781
930.029
921.402
912.907
904.546
896.496
887.552
11463.3
1794.46
741.011
500.036
414.035
378.531
360.563
350.698
346.297
344.721
345.054
347.927
352.541
358.474
365.59
374.097
383.291
392.873
403.331
414.912
427.203
439.729
452.88
466.685
481.143
496.226
511.926
528.208
545.076
562.575
580.738
599.61
619.145
639.316
660.172
681.772
704.23
727.693
752.146
777.467
803.516
830.103
857.015
884.006
911.037
938.051
965.063
992.375
1019.76
1046.56
1072.39
1096.95
1120.2
1142.24
1163.11
1182.83
1201.4
1218.82
1235.14
1250.41
1264.69
1278.04
1290.51
1302.13
1312.97
1323.01
1332.25
1340.75
1348.53
1355.63
1362.16
1368.45
1374.49
1380.22
1385.56
1390.44
1394.87
1398.63
1401.97
1405.14
1408.63
1412.27
1415.44
1418.08
1420.33
1422.33
1424.15
1425.83
1427.37
1428.8
1430.13
1431.33
1432.41
1433.36
1434.19
1434.87
1435.42
1435.84
1436.12
1436.26
1436.24
1436.11
1435.74
1435.13
1434.35
1433.38
1432.22
1430.88
1429.33
1427.58
1425.6
1423.41
1420.99
1418.34
1415.47
1412.38
1409.08
1405.55
1401.8