/*--------------------------------*- C++ -*----------------------------------*\
  =========                 |
  \\      /  F ield         | OpenFOAM: The Open Source CFD Toolbox
   \\    /   O peration     | Website:  https://openfoam.org
    \\  /    A nd           | Version:  8
     \\/     M anipulation  |
\*---------------------------------------------------------------------------*/
FoamFile
{
    version     2.0;
    format      ascii;
    class       surfaceScalarField;
    location    "2000";
    object      phi;
}
// * * * * * * * * * * * * * * * * * * * * * * * * * * * * * * * * * * * * * //

dimensions      [0 3 -1 0 0 0 0];

internalField   nonuniform List<scalar> 
24170
(
3.002e-06
1.31893e-07
2.85666e-06
1.4541e-07
2.728e-06
1.28697e-07
2.61737e-06
1.10611e-07
2.52069e-06
9.65136e-08
2.43789e-06
8.25558e-08
2.36828e-06
6.93849e-08
2.30902e-06
5.92523e-08
2.25802e-06
5.10079e-08
2.2145e-06
4.35293e-08
2.17766e-06
3.68013e-08
2.1473e-06
3.02977e-08
2.12297e-06
2.43058e-08
2.10341e-06
1.9553e-08
2.08825e-06
1.52026e-08
2.07819e-06
1.01237e-08
2.07233e-06
5.93016e-09
-2.94473e-10
2.07271e-06
3.5125e-06
7.58192e-08
3.54225e-06
1.15499e-07
3.55492e-06
1.15896e-07
3.5532e-06
1.12241e-07
3.54071e-06
1.08911e-07
3.5214e-06
1.01805e-07
3.49705e-06
9.38008e-08
3.46957e-06
8.69199e-08
3.44086e-06
7.9939e-08
3.41175e-06
7.28341e-08
3.3823e-06
6.6377e-08
3.35288e-06
5.98074e-08
3.32464e-06
5.26149e-08
3.29735e-06
4.68758e-08
3.27034e-06
4.22373e-08
3.24449e-06
3.59834e-08
3.22062e-06
2.98116e-08
2.30419e-08
3.19727e-06
3.83261e-06
5.54149e-08
3.85117e-06
9.70398e-08
3.86593e-06
1.01203e-07
3.8781e-06
1.00072e-07
3.88819e-06
9.87318e-08
3.89514e-06
9.46935e-08
3.89935e-06
8.94879e-08
3.90153e-06
8.473e-08
3.90174e-06
7.97232e-08
3.90017e-06
7.43924e-08
3.89713e-06
6.93754e-08
3.89277e-06
6.41182e-08
3.88702e-06
5.83271e-08
3.88067e-06
5.32092e-08
3.87422e-06
4.87038e-08
3.86686e-06
4.33609e-08
3.859e-06
3.77079e-08
3.1153e-08
3.85093e-06
4.21653e-06
4.34397e-08
4.23e-06
8.34793e-08
4.24037e-06
9.0769e-08
4.24892e-06
9.1465e-08
4.2566e-06
9.10043e-08
4.26307e-06
8.8235e-08
4.26859e-06
8.40618e-08
4.27361e-06
7.98795e-08
4.27799e-06
7.55033e-08
4.28166e-06
7.08608e-08
4.28478e-06
6.63368e-08
4.28737e-06
6.16047e-08
4.28919e-06
5.6544e-08
4.29062e-06
5.18041e-08
4.292e-06
4.73331e-08
4.29289e-06
4.24809e-08
4.29331e-06
3.72935e-08
3.16249e-08
4.29282e-06
4.64618e-06
3.45826e-08
4.65768e-06
7.20772e-08
4.6669e-06
8.15898e-08
4.67453e-06
8.38447e-08
4.68133e-06
8.41587e-08
4.68725e-06
8.22598e-08
4.69247e-06
7.8822e-08
4.6973e-06
7.50411e-08
4.70176e-06
7.10383e-08
4.7058e-06
6.67918e-08
4.70955e-06
6.25468e-08
4.713e-06
5.81057e-08
4.71604e-06
5.34804e-08
4.71884e-06
4.8997e-08
4.72153e-06
4.46421e-08
4.72393e-06
4.00979e-08
4.7259e-06
3.53307e-08
3.04485e-08
4.72714e-06
5.12155e-06
2.76315e-08
5.13183e-06
6.17419e-08
5.14062e-06
7.27538e-08
5.14815e-06
7.62754e-08
5.15492e-06
7.73809e-08
5.16093e-06
7.62923e-08
5.16628e-06
7.3577e-08
5.17122e-06
7.02358e-08
5.17579e-06
6.65786e-08
5.18001e-06
6.26632e-08
5.18397e-06
5.86549e-08
5.18767e-06
5.44553e-08
5.19105e-06
5.01375e-08
5.1942e-06
4.58711e-08
5.19718e-06
4.1673e-08
5.19988e-06
3.73979e-08
5.20218e-06
3.30433e-08
2.86931e-08
5.2039e-06
5.64649e-06
2.21639e-08
5.65578e-06
5.25372e-08
5.66424e-06
6.43292e-08
5.67178e-06
6.87418e-08
5.67871e-06
7.04382e-08
5.685e-06
6.99964e-08
5.69067e-06
6.79109e-08
5.6959e-06
6.50202e-08
5.70075e-06
6.17134e-08
5.70525e-06
5.81367e-08
5.70947e-06
5.44004e-08
5.71342e-06
5.04903e-08
5.71706e-06
4.64774e-08
5.72045e-06
4.24791e-08
5.7236e-06
3.85145e-08
5.72647e-06
3.4538e-08
5.72893e-06
3.05636e-08
2.67202e-08
5.73095e-06
4.40933e-06
1.89542e-08
4.41535e-06
4.65035e-08
4.42128e-06
5.83845e-08
4.42669e-06
6.33132e-08
4.43176e-06
6.53835e-08
4.43647e-06
6.53386e-08
4.44078e-06
6.36661e-08
4.44477e-06
6.11034e-08
4.44847e-06
5.80592e-08
4.45192e-06
5.472e-08
4.45516e-06
5.11875e-08
4.45818e-06
4.74876e-08
4.46098e-06
4.36959e-08
4.46356e-06
3.99055e-08
4.46594e-06
3.61399e-08
4.46809e-06
3.23959e-08
4.46996e-06
2.87034e-08
2.51435e-08
4.47153e-06
5.14282e-06
1.59987e-08
5.14881e-06
4.05755e-08
5.155e-06
5.22263e-08
5.16083e-06
5.7499e-08
5.16638e-06
5.98459e-08
5.17161e-06
6.01349e-08
5.17646e-06
5.88475e-08
5.18096e-06
5.66136e-08
5.18516e-06
5.38589e-08
5.18908e-06
5.07839e-08
5.19277e-06
4.7498e-08
5.1962e-06
4.40434e-08
5.19939e-06
4.05046e-08
5.20234e-06
3.69513e-08
5.20505e-06
3.34347e-08
5.20749e-06
2.99474e-08
5.20963e-06
2.65468e-08
2.33122e-08
5.21149e-06
5.99849e-06
1.3319e-08
6.00436e-06
3.47238e-08
6.01074e-06
4.58632e-08
6.01694e-06
5.13113e-08
6.02296e-06
5.38565e-08
6.0287e-06
5.44287e-08
6.03408e-06
5.34938e-08
6.03912e-06
5.15935e-08
6.04384e-06
4.91421e-08
6.04827e-06
4.63516e-08
6.05243e-06
4.3333e-08
6.05632e-06
4.01497e-08
6.05994e-06
3.68828e-08
6.06328e-06
3.36141e-08
6.06634e-06
3.03545e-08
6.06912e-06
2.71753e-08
6.07159e-06
2.40867e-08
2.1164e-08
6.07375e-06
6.99669e-06
1.09013e-08
7.00236e-06
2.91015e-08
7.00885e-06
3.93955e-08
7.01538e-06
4.48141e-08
7.02183e-06
4.74437e-08
7.02807e-06
4.82206e-08
7.03399e-06
4.75967e-08
7.03957e-06
4.60247e-08
7.04484e-06
4.38842e-08
7.04979e-06
4.13956e-08
7.05446e-06
3.86667e-08
7.05883e-06
3.57823e-08
7.0629e-06
3.28242e-08
7.06666e-06
2.98438e-08
7.07012e-06
2.69122e-08
7.07324e-06
2.40353e-08
7.07606e-06
2.12854e-08
1.8669e-08
7.07856e-06
8.16119e-06
8.74157e-09
8.16657e-06
2.37583e-08
8.17311e-06
3.2892e-08
8.17991e-06
3.80356e-08
8.18676e-06
4.06278e-08
8.19349e-06
4.15198e-08
8.19995e-06
4.11387e-08
8.20609e-06
3.9875e-08
8.21192e-06
3.80533e-08
8.21742e-06
3.58748e-08
8.22261e-06
3.34717e-08
8.22748e-06
3.09105e-08
8.23203e-06
2.82926e-08
8.23624e-06
2.56492e-08
8.24009e-06
2.30515e-08
8.24362e-06
2.05226e-08
8.24679e-06
1.81071e-08
1.58281e-08
8.24966e-06
9.51968e-06
6.79701e-09
9.52475e-06
1.87296e-08
9.53124e-06
2.64332e-08
9.53827e-06
3.10383e-08
9.54549e-06
3.34466e-08
9.55268e-06
3.43288e-08
9.55969e-06
3.41294e-08
9.56641e-06
3.31343e-08
9.57282e-06
3.16155e-08
9.57891e-06
2.97728e-08
9.58465e-06
2.77002e-08
9.59007e-06
2.55196e-08
9.5951e-06
2.32451e-08
9.5998e-06
2.09908e-08
9.60409e-06
1.8742e-08
9.60803e-06
1.65923e-08
9.61161e-06
1.45185e-08
1.2587e-08
9.61485e-06
1.11045e-05
5.02741e-09
1.11092e-05
1.40039e-08
1.11156e-05
2.00626e-08
1.11229e-05
2.38628e-08
1.11304e-05
2.58948e-08
1.11381e-05
2.66803e-08
1.11456e-05
2.65596e-08
1.11529e-05
2.57844e-08
1.116e-05
2.45623e-08
1.11667e-05
2.30428e-08
1.1173e-05
2.13483e-08
1.1179e-05
1.95284e-08
1.11846e-05
1.76715e-08
1.11898e-05
1.57881e-08
1.11946e-05
1.39555e-08
1.1199e-05
1.21721e-08
1.1203e-05
1.0493e-08
8.90671e-09
1.12067e-05
1.29533e-05
3.38203e-09
1.29578e-05
9.50729e-09
1.29641e-05
1.3762e-08
1.29715e-05
1.6502e-08
1.29794e-05
1.79977e-08
1.29875e-05
1.8542e-08
1.29956e-05
1.84239e-08
1.30036e-05
1.78119e-08
1.30113e-05
1.68536e-08
1.30187e-05
1.56665e-08
1.30257e-05
1.4337e-08
1.30323e-05
1.29232e-08
1.30385e-05
1.14707e-08
1.30443e-05
1.0017e-08
1.30496e-05
8.59646e-09
1.30546e-05
7.23231e-09
1.30591e-05
5.94521e-09
4.74829e-09
1.30633e-05
1.511e-05
1.80463e-09
1.51144e-05
5.1243e-09
1.51208e-05
7.4299e-09
1.51284e-05
8.9087e-09
1.51367e-05
9.67097e-09
1.51453e-05
9.86409e-09
1.51541e-05
9.65225e-09
1.51628e-05
9.14121e-09
1.51712e-05
8.41479e-09
1.51794e-05
7.54826e-09
1.51871e-05
6.59377e-09
1.51945e-05
5.59357e-09
1.52014e-05
4.57632e-09
1.52078e-05
3.57046e-09
1.52138e-05
2.59575e-09
1.52194e-05
1.67053e-09
1.52245e-05
8.05389e-10
1.43513e-11
1.52293e-05
1.7626e-05
2.23287e-10
1.76305e-05
6.54642e-10
1.76371e-05
8.40961e-10
1.76451e-05
8.52711e-10
1.76541e-05
7.20921e-10
1.76635e-05
4.29294e-10
1.76732e-05
4.44435e-11
1.76827e-05
-4.25017e-10
1.76921e-05
-9.35613e-10
1.77012e-05
-1.48699e-09
1.77098e-05
-2.04296e-09
1.7718e-05
-2.60814e-09
1.77258e-05
-3.15408e-09
1.7733e-05
-3.6846e-09
1.77398e-05
-4.17835e-09
1.77461e-05
-4.63804e-09
1.7752e-05
-5.04991e-09
-5.41273e-09
1.77574e-05
1.78277e-05
-1.28399e-09
1.7832e-05
-3.6319e-09
1.78384e-05
-5.54527e-09
1.78463e-05
-6.98795e-09
1.7855e-05
-8.0396e-09
1.78643e-05
-8.82032e-09
1.78737e-05
-9.41278e-09
1.78832e-05
-9.83598e-09
1.78924e-05
-1.01636e-08
1.79014e-05
-1.03897e-08
1.79099e-05
-1.05759e-08
1.7918e-05
-1.06985e-08
1.79256e-05
-1.08031e-08
1.79328e-05
-1.08607e-08
1.79395e-05
-1.0905e-08
1.79458e-05
-1.09085e-08
1.79517e-05
-1.08973e-08
-1.08452e-08
1.79571e-05
1.58828e-05
-2.70311e-09
1.58868e-05
-7.63427e-09
1.58927e-05
-1.14754e-08
1.59e-05
-1.4199e-08
1.5908e-05
-1.60185e-08
1.59164e-05
-1.72155e-08
1.59249e-05
-1.79317e-08
1.59334e-05
-1.83062e-08
1.59417e-05
-1.84077e-08
1.59496e-05
-1.8348e-08
1.59572e-05
-1.81553e-08
1.59644e-05
-1.78988e-08
1.59712e-05
-1.75772e-08
1.59776e-05
-1.72352e-08
1.59835e-05
-1.68612e-08
1.59891e-05
-1.6484e-08
1.59943e-05
-1.60884e-08
-1.5692e-08
1.59991e-05
1.41501e-05
-4.15986e-09
1.41542e-05
-1.16809e-08
1.41601e-05
-1.73477e-08
1.41671e-05
-2.11741e-08
1.41747e-05
-2.36075e-08
1.41826e-05
-2.50899e-08
1.41905e-05
-2.58668e-08
1.41983e-05
-2.61019e-08
1.42059e-05
-2.59665e-08
1.42131e-05
-2.55765e-08
1.422e-05
-2.50309e-08
1.42265e-05
-2.43818e-08
1.42326e-05
-2.36782e-08
1.42383e-05
-2.29449e-08
1.42437e-05
-2.2206e-08
1.42487e-05
-2.14677e-08
1.42533e-05
-2.07426e-08
-2.00267e-08
1.42577e-05
1.26066e-05
-5.76231e-09
1.2611e-05
-1.60178e-08
1.2617e-05
-2.34151e-08
1.2624e-05
-2.81264e-08
1.26314e-05
-3.10039e-08
1.2639e-05
-3.26597e-08
1.26465e-05
-3.33858e-08
1.26539e-05
-3.34178e-08
1.26609e-05
-3.29809e-08
1.26676e-05
-3.22418e-08
1.26739e-05
-3.13227e-08
1.26798e-05
-3.02881e-08
1.26853e-05
-2.92096e-08
1.26905e-05
-2.81082e-08
1.26953e-05
-2.70251e-08
1.26998e-05
-2.59583e-08
1.2704e-05
-2.49299e-08
-2.3931e-08
1.27079e-05
1.12317e-05
-7.62058e-09
1.12365e-05
-2.08555e-08
1.12429e-05
-2.982e-08
1.12499e-05
-3.51648e-08
1.12573e-05
-3.83117e-08
1.12646e-05
-4.00222e-08
1.12718e-05
-4.05971e-08
1.12788e-05
-4.03408e-08
1.12853e-05
-3.95499e-08
1.12915e-05
-3.84366e-08
1.12974e-05
-3.71219e-08
1.13028e-05
-3.57094e-08
1.13078e-05
-3.42502e-08
1.13125e-05
-3.28072e-08
1.13169e-05
-3.13887e-08
1.1321e-05
-3.00276e-08
1.13248e-05
-2.87129e-08
-2.74643e-08
1.13283e-05
1.00069e-05
-9.88664e-09
1.00124e-05
-2.63952e-08
1.00192e-05
-3.66334e-08
1.00264e-05
-4.23028e-08
1.00336e-05
-4.55718e-08
1.00408e-05
-4.72221e-08
1.00478e-05
-4.75393e-08
1.00544e-05
-4.6925e-08
1.00606e-05
-4.57441e-08
1.00663e-05
-4.42239e-08
1.00717e-05
-4.2511e-08
1.00768e-05
-4.07047e-08
1.00814e-05
-3.88854e-08
1.00857e-05
-3.70966e-08
1.00897e-05
-3.53735e-08
1.00934e-05
-3.37227e-08
1.00968e-05
-3.21579e-08
-3.06692e-08
1.01e-05
8.91598e-06
-1.27594e-08
8.92241e-06
-3.28278e-08
8.92961e-06
-4.38434e-08
8.93685e-06
-4.95364e-08
8.94408e-06
-5.2805e-08
8.95113e-06
-5.4281e-08
8.95784e-06
-5.42491e-08
8.96413e-06
-5.32195e-08
8.97001e-06
-5.16148e-08
8.97546e-06
-4.96805e-08
8.98052e-06
-4.75574e-08
8.98518e-06
-4.53631e-08
8.98948e-06
-4.31786e-08
8.99345e-06
-4.10579e-08
8.99711e-06
-3.90324e-08
9.00051e-06
-3.71154e-08
9.00367e-06
-3.53079e-08
-3.36068e-08
9.00661e-06
7.94442e-06
-1.65151e-08
7.95197e-06
-4.03819e-08
7.95954e-06
-5.14121e-08
7.96684e-06
-5.68488e-08
7.97407e-06
-6.00363e-08
7.98104e-06
-6.12493e-08
7.98759e-06
-6.07982e-08
7.99369e-06
-5.93257e-08
7.99936e-06
-5.72839e-08
8.00459e-06
-5.49128e-08
8.00941e-06
-5.23705e-08
8.01383e-06
-4.97801e-08
8.01788e-06
-4.72268e-08
8.0216e-06
-4.47708e-08
8.02502e-06
-4.24452e-08
8.02818e-06
-4.02655e-08
8.03111e-06
-3.82268e-08
-3.63126e-08
8.03382e-06
7.07937e-06
-2.15477e-08
7.08828e-06
-4.92999e-08
7.09627e-06
-5.94094e-08
7.10379e-06
-6.43686e-08
7.1112e-06
-6.74522e-08
7.1183e-06
-6.83493e-08
7.12494e-06
-6.7447e-08
7.13112e-06
-6.5503e-08
7.13682e-06
-6.29816e-08
7.14205e-06
-6.01468e-08
7.14684e-06
-5.71517e-08
7.15119e-06
-5.41298e-08
7.15515e-06
-5.11815e-08
7.15874e-06
-4.83551e-08
7.16201e-06
-4.57111e-08
7.165e-06
-4.32506e-08
7.16775e-06
-4.09737e-08
-3.88584e-08
7.17031e-06
6.30994e-06
-2.89735e-08
6.32058e-06
-5.99466e-08
6.3296e-06
-6.84403e-08
6.3382e-06
-7.29751e-08
6.34669e-06
-7.59433e-08
6.35475e-06
-7.64131e-08
6.36224e-06
-7.49372e-08
6.36913e-06
-7.23841e-08
6.3754e-06
-6.92554e-08
6.38105e-06
-6.57983e-08
6.38611e-06
-6.22058e-08
6.3906e-06
-5.86245e-08
6.39457e-06
-5.5139e-08
6.39806e-06
-5.18459e-08
6.40113e-06
-4.87752e-08
6.40384e-06
-4.59568e-08
6.40624e-06
-4.33676e-08
-4.09969e-08
6.40838e-06
5.62934e-06
-4.34185e-08
5.6444e-06
-7.50135e-08
5.65782e-06
-8.18716e-08
5.67122e-06
-8.63821e-08
5.68403e-06
-8.87527e-08
5.69554e-06
-8.79202e-08
5.70554e-06
-8.49401e-08
5.71405e-06
-8.08836e-08
5.72107e-06
-7.62801e-08
5.7267e-06
-7.14301e-08
5.73104e-06
-6.6553e-08
5.73423e-06
-6.18002e-08
5.73638e-06
-5.72871e-08
5.73762e-06
-5.30819e-08
5.73809e-06
-4.92458e-08
5.73794e-06
-4.58055e-08
5.73731e-06
-4.27347e-08
-4.02314e-08
5.73655e-06
5.04986e-06
-9.09774e-08
5.0855e-06
-1.10663e-07
5.1142e-06
-1.10578e-07
5.13463e-06
-1.06825e-07
5.14635e-06
-1.00466e-07
5.15059e-06
-9.21643e-08
5.14894e-06
-8.32851e-08
5.14268e-06
-7.46253e-08
5.13289e-06
-6.64917e-08
5.12045e-06
-5.89901e-08
5.10607e-06
-5.21735e-08
5.09034e-06
-4.60536e-08
5.07368e-06
-4.06284e-08
5.05647e-06
-3.58751e-08
5.03899e-06
-3.17684e-08
5.02156e-06
-2.83703e-08
5.00451e-06
-2.56861e-08
-2.4016e-08
4.9883e-06
4.36557e-06
4.25491e-06
4.14433e-06
4.0375e-06
3.93704e-06
3.84487e-06
3.76159e-06
3.68696e-06
3.62047e-06
3.56148e-06
3.50931e-06
3.46326e-06
3.42263e-06
3.38675e-06
3.35498e-06
3.32661e-06
3.30093e-06
3.27691e-06
-8.20118e-09
8.20299e-09
-2.22241e-08
1.40277e-08
-3.75199e-08
1.53012e-08
-5.06582e-08
1.31415e-08
-5.64843e-08
5.83474e-09
-4.89715e-08
-7.51242e-09
-2.60252e-08
-2.29335e-08
9.96607e-09
-3.59895e-08
5.48855e-08
-4.49035e-08
1.03906e-07
-4.90158e-08
1.52597e-07
-4.8675e-08
1.97849e-07
-4.52448e-08
2.3766e-07
-3.97937e-08
2.70777e-07
-3.31073e-08
2.96505e-07
-2.57086e-08
3.14416e-07
-1.78986e-08
3.2425e-07
-9.81282e-09
3.25671e-07
-1.4046e-09
3.18494e-07
7.20278e-09
3.02892e-07
1.56218e-08
2.7949e-07
2.34317e-08
2.49268e-07
3.02468e-08
2.13644e-07
3.56569e-08
1.74473e-07
3.92004e-08
1.34088e-07
4.04241e-08
9.5119e-08
3.90057e-08
6.0243e-08
3.49207e-08
3.16329e-08
2.86549e-08
1.04133e-08
2.12714e-08
-3.58698e-09
1.40452e-08
-1.1235e-08
7.69971e-09
-1.3027e-08
1.82461e-09
-8.68785e-09
-4.29237e-09
2.93108e-09
-1.16019e-08
2.34287e-08
-2.04656e-08
5.2712e-08
-2.92815e-08
8.69351e-08
-3.42075e-08
1.19888e-07
-3.29601e-08
1.46125e-07
-2.62332e-08
1.62442e-07
-1.63204e-08
1.6898e-07
-6.55518e-09
1.68588e-07
3.86626e-10
1.64687e-07
3.8836e-09
1.60783e-07
3.89011e-09
1.58988e-07
1.78674e-09
1.53538e-07
5.38291e-09
1.35201e-07
1.83712e-08
9.55965e-08
3.94232e-08
2.94624e-08
6.62159e-08
-6.08803e-08
9.01801e-08
-1.69675e-07
1.08833e-07
-2.93835e-07
1.24143e-07
-4.29795e-07
1.35965e-07
-5.73347e-07
1.43608e-07
-7.20196e-07
1.46844e-07
-8.66506e-07
1.46359e-07
-1.00918e-06
1.42644e-07
-1.14528e-06
1.36126e-07
-1.27341e-06
1.28087e-07
-1.39325e-06
1.19855e-07
-1.50376e-06
1.10478e-07
-1.60469e-06
1.00937e-07
-1.69717e-06
9.24629e-08
-1.78205e-06
8.48859e-08
-1.86015e-06
7.80814e-08
-1.93197e-06
7.1828e-08
-1.99835e-06
6.63642e-08
-2.0599e-06
6.15543e-08
-2.11724e-06
5.73375e-08
-2.17087e-06
5.36193e-08
-2.2212e-06
5.03289e-08
-2.26859e-06
4.73891e-08
-2.31333e-06
4.47426e-08
-2.35567e-06
4.23288e-08
-2.39577e-06
4.01115e-08
-2.43382e-06
3.80451e-08
-2.46992e-06
3.61083e-08
-2.50419e-06
3.42689e-08
-2.5367e-06
3.25155e-08
-2.56752e-06
3.08264e-08
-2.59671e-06
2.91953e-08
-2.62432e-06
2.76089e-08
-2.65038e-06
2.60609e-08
-2.67491e-06
2.45448e-08
-2.69797e-06
2.30518e-08
-2.71953e-06
2.15817e-08
-2.73965e-06
2.01226e-08
-2.75832e-06
1.86794e-08
-2.77558e-06
1.72467e-08
-2.79145e-06
1.58098e-08
-2.80588e-06
1.43823e-08
-2.81886e-06
1.2949e-08
-2.83039e-06
1.15028e-08
-2.84043e-06
1.0037e-08
-2.84896e-06
8.53695e-09
-2.85594e-06
6.99936e-09
-2.86132e-06
5.40244e-09
-2.86503e-06
3.73967e-09
-2.86703e-06
2.00047e-09
-2.86728e-06
2.62563e-10
-2.86599e-06
-1.29923e-09
-2.86335e-06
-2.65487e-09
-2.85944e-06
-3.94491e-09
-2.85425e-06
-5.21657e-09
-2.8478e-06
-6.48719e-09
-2.84008e-06
-7.7619e-09
-2.83108e-06
-9.0393e-09
-2.8208e-06
-1.03237e-08
-2.80923e-06
-1.16082e-08
-2.79638e-06
-1.29001e-08
-2.78223e-06
-1.41886e-08
-2.7668e-06
-1.54843e-08
-2.75005e-06
-1.67731e-08
-2.73203e-06
-1.80679e-08
-2.7127e-06
-1.93522e-08
-2.69209e-06
-2.06407e-08
-2.67019e-06
-2.19153e-08
-2.64701e-06
-2.31914e-08
-2.62256e-06
-2.44505e-08
-2.59686e-06
-2.57079e-08
-2.56989e-06
-2.69455e-08
-2.5417e-06
-2.81773e-08
-2.51228e-06
-2.93868e-08
-2.48166e-06
-3.05853e-08
-2.44986e-06
-3.17588e-08
-2.41689e-06
-3.29153e-08
-2.38279e-06
-3.40447e-08
-2.34757e-06
-3.51536e-08
-2.31126e-06
-3.62341e-08
-2.27391e-06
-3.72927e-08
-2.23553e-06
-3.83215e-08
-2.19617e-06
-3.93134e-08
-2.15586e-06
-4.02591e-08
-2.11465e-06
-4.11346e-08
-2.07262e-06
-4.19558e-08
-2.02984e-06
-4.26997e-08
-1.98641e-06
-4.34052e-08
-1.94219e-06
-4.41931e-08
-1.89716e-06
-4.49969e-08
-1.85139e-06
-4.56668e-08
-1.805e-06
-4.62924e-08
-1.75801e-06
-4.68606e-08
-1.71053e-06
-4.74129e-08
-1.66255e-06
-4.79161e-08
-1.61415e-06
-4.84018e-08
-1.56534e-06
-4.88355e-08
-1.51621e-06
-4.9253e-08
-1.46675e-06
-4.96225e-08
-1.41699e-06
-4.99573e-08
-1.36692e-06
-5.02469e-08
-1.31659e-06
-5.04839e-08
-1.26603e-06
-5.06806e-08
-1.21531e-06
-5.08358e-08
-1.16444e-06
-5.09548e-08
-1.11345e-06
-5.10454e-08
-1.06238e-06
-5.11079e-08
-1.01124e-06
-5.11517e-08
-9.60046e-07
-5.11844e-08
-9.08806e-07
-5.12094e-08
-8.57517e-07
-5.12383e-08
-8.06181e-07
-5.12695e-08
-7.54789e-07
-5.1313e-08
-7.03334e-07
-5.13607e-08
-6.51813e-07
-5.14208e-08
-6.00216e-07
-5.14833e-08
-5.48542e-07
-5.15606e-08
-4.96769e-07
-5.16455e-08
-4.44893e-07
-5.17522e-08
-3.92882e-07
-5.18726e-08
-3.40734e-07
-5.20157e-08
-2.88426e-07
-5.21604e-08
-2.35986e-07
-5.23023e-08
-1.83431e-07
-5.24019e-08
-1.30892e-07
-5.23997e-08
-7.85465e-08
-5.21977e-08
-2.68645e-08
-5.15525e-08
2.35287e-08
-5.02644e-08
7.09508e-08
-4.73274e-08
1.14856e-07
-4.38293e-08
-1.94624e-08
1.34367e-07
-3.46647e-09
1.1673e-08
-9.62335e-09
2.01978e-08
-1.24877e-08
1.81784e-08
-4.94951e-09
5.61427e-09
1.80268e-08
-1.71279e-08
5.56064e-08
-4.50879e-08
1.03308e-07
-7.06258e-08
1.55546e-07
-8.82247e-08
2.07204e-07
-9.65521e-08
2.5501e-07
-9.68179e-08
2.97494e-07
-9.11485e-08
3.33955e-07
-8.16998e-08
3.64298e-07
-7.01246e-08
3.88712e-07
-5.75133e-08
4.07539e-07
-4.45218e-08
4.21158e-07
-3.15062e-08
4.29999e-07
-1.86367e-08
4.34612e-07
-6.0023e-09
4.35401e-07
6.4343e-09
4.32257e-07
1.87841e-08
4.24712e-07
3.10003e-08
4.12151e-07
4.28299e-08
3.94011e-07
5.38226e-08
3.69927e-07
6.33095e-08
3.39929e-07
7.04491e-08
3.04628e-07
7.43345e-08
2.65377e-07
7.42016e-08
2.24359e-07
6.97031e-08
1.84588e-07
6.10789e-08
1.4962e-07
4.90476e-08
1.22938e-07
3.44271e-08
1.07017e-07
1.7782e-08
1.03313e-07
-5.41851e-10
1.11409e-07
-1.96788e-08
1.29307e-07
-3.83378e-08
1.51752e-07
-5.17242e-08
1.71636e-07
-5.40834e-08
1.83957e-07
-4.52798e-08
1.87005e-07
-2.92828e-08
1.8073e-07
-1.00434e-08
1.66487e-07
7.68088e-09
1.45913e-07
2.09591e-08
1.1406e-07
3.57133e-08
6.10171e-08
5.69215e-08
-2.24026e-08
8.51757e-08
-1.37112e-07
1.20035e-07
-2.74985e-07
1.56219e-07
-4.25988e-07
1.90373e-07
-5.81719e-07
2.21931e-07
-7.39698e-07
2.48127e-07
-8.97795e-07
2.66924e-07
-1.05237e-06
2.78717e-07
-1.19994e-06
2.83535e-07
-1.33762e-06
2.8131e-07
-1.46352e-06
2.72747e-07
-1.57657e-06
2.59419e-07
-1.67689e-06
2.42955e-07
-1.76559e-06
2.24836e-07
-1.84398e-06
2.06461e-07
-1.91297e-06
1.88841e-07
-1.97465e-06
1.72156e-07
-2.03046e-06
1.56738e-07
-2.08113e-06
1.43128e-07
-2.12749e-06
1.3125e-07
-2.17033e-06
1.20917e-07
-2.21037e-06
1.11858e-07
-2.24797e-06
1.03959e-07
-2.28346e-06
9.70459e-08
-2.31709e-06
9.09596e-08
-2.34903e-06
8.55562e-08
-2.37941e-06
8.07126e-08
-2.40835e-06
7.63213e-08
-2.4359e-06
7.22977e-08
-2.46214e-06
6.85676e-08
-2.4871e-06
6.50743e-08
-2.51083e-06
6.17687e-08
-2.53333e-06
5.86163e-08
-2.55465e-06
5.55843e-08
-2.57478e-06
5.26524e-08
-2.59375e-06
4.97997e-08
-2.61157e-06
4.70138e-08
-2.62824e-06
4.42813e-08
-2.64377e-06
4.15937e-08
-2.65816e-06
3.89426e-08
-2.67143e-06
3.63202e-08
-2.68356e-06
3.37214e-08
-2.69457e-06
3.11391e-08
-2.70445e-06
2.8572e-08
-2.71324e-06
2.60096e-08
-2.72092e-06
2.34582e-08
-2.72748e-06
2.09063e-08
-2.73292e-06
1.8354e-08
-2.73722e-06
1.57978e-08
-2.74041e-06
1.32305e-08
-2.74251e-06
1.06506e-08
-2.74355e-06
8.05805e-09
-2.74358e-06
5.45436e-09
-2.74267e-06
2.85411e-09
-2.74095e-06
2.84613e-10
-2.73847e-06
-2.21787e-09
-2.73509e-06
-4.6845e-09
-2.73059e-06
-7.16073e-09
-2.72491e-06
-9.6513e-09
-2.718e-06
-1.21483e-08
-2.70986e-06
-1.46567e-08
-2.70047e-06
-1.71748e-08
-2.68984e-06
-1.97042e-08
-2.67796e-06
-2.22426e-08
-2.66481e-06
-2.47893e-08
-2.6504e-06
-2.73426e-08
-2.63473e-06
-2.98999e-08
-2.61778e-06
-3.24604e-08
-2.59956e-06
-3.50198e-08
-2.58008e-06
-3.75783e-08
-2.55932e-06
-4.01298e-08
-2.5373e-06
-4.26756e-08
-2.51403e-06
-4.52079e-08
-2.4895e-06
-4.77291e-08
-2.46372e-06
-5.02301e-08
-2.43671e-06
-5.27141e-08
-2.40848e-06
-5.5171e-08
-2.37904e-06
-5.76042e-08
-2.3484e-06
-6.00028e-08
-2.31659e-06
-6.23701e-08
-2.28362e-06
-6.46947e-08
-2.24952e-06
-6.69799e-08
-2.21431e-06
-6.92153e-08
-2.17801e-06
-7.14052e-08
-2.14066e-06
-7.35406e-08
-2.10228e-06
-7.56259e-08
-2.06292e-06
-7.76484e-08
-2.02261e-06
-7.9601e-08
-1.98136e-06
-8.14648e-08
-1.93921e-06
-8.32364e-08
-1.89619e-06
-8.4924e-08
-1.85231e-06
-8.65362e-08
-1.80761e-06
-8.80895e-08
-1.76217e-06
-8.96252e-08
-1.71604e-06
-9.10916e-08
-1.66923e-06
-9.24235e-08
-1.62179e-06
-9.3656e-08
-1.57378e-06
-9.48003e-08
-1.52527e-06
-9.58792e-08
-1.47628e-06
-9.68809e-08
-1.42687e-06
-9.78171e-08
-1.37707e-06
-9.86787e-08
-1.32694e-06
-9.94752e-08
-1.27649e-06
-1.00196e-07
-1.22574e-06
-1.00838e-07
-1.1747e-06
-1.01398e-07
-1.12341e-06
-1.01869e-07
-1.0719e-06
-1.02262e-07
-1.02022e-06
-1.02582e-07
-9.68386e-07
-1.02829e-07
-9.16441e-07
-1.03023e-07
-8.64397e-07
-1.03161e-07
-8.12282e-07
-1.03268e-07
-7.60099e-07
-1.03345e-07
-7.07863e-07
-1.03418e-07
-6.55566e-07
-1.03487e-07
-6.0321e-07
-1.03575e-07
-5.5078e-07
-1.03675e-07
-4.98273e-07
-1.03799e-07
-4.45676e-07
-1.03936e-07
-3.92983e-07
-1.04095e-07
-3.40182e-07
-1.04271e-07
-2.87258e-07
-1.04479e-07
-2.34195e-07
-1.04717e-07
-1.80971e-07
-1.04999e-07
-1.27572e-07
-1.05314e-07
-7.39816e-08
-1.05649e-07
-2.02263e-08
-1.05955e-07
3.3654e-08
-1.06181e-07
8.75817e-08
-1.06231e-07
1.41417e-07
-1.05941e-07
1.94921e-07
-1.04972e-07
2.47532e-07
-1.02797e-07
2.9868e-07
-9.84127e-08
3.4499e-07
-9.00868e-08
-6.37672e-08
3.89332e-07
4.22457e-10
1.12568e-08
4.1241e-09
1.65121e-08
1.90809e-08
3.23438e-09
5.30299e-08
-2.83278e-08
1.04353e-07
-6.84448e-08
1.63267e-07
-1.03999e-07
2.19916e-07
-1.27269e-07
2.68777e-07
-1.37084e-07
3.0825e-07
-1.36019e-07
3.39047e-07
-1.27611e-07
3.62769e-07
-1.14864e-07
3.8095e-07
-9.98755e-08
3.94775e-07
-8.39408e-08
4.05053e-07
-6.77848e-08
4.12329e-07
-5.17868e-08
4.16965e-07
-3.6132e-08
4.19247e-07
-2.09051e-08
4.19411e-07
-6.15262e-09
4.17755e-07
8.10787e-09
4.14637e-07
2.19191e-08
4.10327e-07
3.53301e-08
4.04855e-07
4.83212e-08
3.97949e-07
6.07515e-08
3.89e-07
7.22806e-08
3.77157e-07
8.23157e-08
3.61517e-07
8.99975e-08
3.41486e-07
9.42573e-08
3.17223e-07
9.39899e-08
2.89975e-07
8.83526e-08
2.62087e-07
7.69602e-08
2.36545e-07
5.99975e-08
2.16118e-07
3.82328e-08
2.02483e-07
1.31214e-08
1.95505e-07
-1.26863e-08
1.90735e-07
-3.35516e-08
1.80638e-07
-4.16209e-08
1.61305e-07
-3.47439e-08
1.32909e-07
-1.68823e-08
9.61586e-08
7.47434e-09
4.8995e-08
3.713e-08
-1.42765e-08
7.09502e-08
-1.00451e-07
1.0714e-07
-2.11313e-07
1.46568e-07
-3.43639e-07
1.8924e-07
-4.9122e-07
2.32746e-07
-6.45217e-07
2.7401e-07
-7.99352e-07
3.10337e-07
-9.48664e-07
3.39658e-07
-1.08784e-06
3.61095e-07
-1.21401e-06
3.74272e-07
-1.32625e-06
3.79156e-07
-1.42399e-06
3.76457e-07
-1.5076e-06
3.67144e-07
-1.57866e-06
3.52374e-07
-1.6395e-06
3.33585e-07
-1.69242e-06
3.12347e-07
-1.73954e-06
2.90064e-07
-1.78259e-06
2.67891e-07
-1.82281e-06
2.46677e-07
-1.86088e-06
2.2691e-07
-1.89754e-06
2.08807e-07
-1.93327e-06
1.92463e-07
-1.96806e-06
1.7792e-07
-2.00191e-06
1.65092e-07
-2.0348e-06
1.53805e-07
-2.06677e-06
1.43833e-07
-2.09782e-06
1.35001e-07
-2.12791e-06
1.27136e-07
-2.15703e-06
1.20079e-07
-2.18517e-06
1.13689e-07
-2.21231e-06
1.07847e-07
-2.23844e-06
1.0245e-07
-2.26355e-06
9.74124e-08
-2.28765e-06
9.26631e-08
-2.31072e-06
8.81458e-08
-2.33277e-06
8.3813e-08
-2.35378e-06
7.96287e-08
-2.37375e-06
7.55629e-08
-2.39269e-06
7.15933e-08
-2.41059e-06
6.77013e-08
-2.42745e-06
6.38732e-08
-2.44326e-06
6.00973e-08
-2.45803e-06
5.63645e-08
-2.47176e-06
5.26673e-08
-2.48443e-06
4.89985e-08
-2.49606e-06
4.53528e-08
-2.50664e-06
4.17247e-08
-2.51618e-06
3.8109e-08
-2.52468e-06
3.45047e-08
-2.53216e-06
3.09008e-08
-2.53858e-06
2.73057e-08
-2.54395e-06
2.37115e-08
-2.54827e-06
2.01167e-08
-2.55155e-06
1.65177e-08
-2.5538e-06
1.29163e-08
-2.55503e-06
9.30976e-09
-2.55525e-06
5.70497e-09
-2.55449e-06
2.10485e-09
-2.55272e-06
-1.47754e-09
-2.54989e-06
-5.04872e-09
-2.54594e-06
-8.63398e-09
-2.54086e-06
-1.2257e-08
-2.53461e-06
-1.59112e-08
-2.52719e-06
-1.95905e-08
-2.51857e-06
-2.32921e-08
-2.50876e-06
-2.70133e-08
-2.49774e-06
-3.07534e-08
-2.4855e-06
-3.45083e-08
-2.47204e-06
-3.82781e-08
-2.45735e-06
-4.20572e-08
-2.44143e-06
-4.58458e-08
-2.42427e-06
-4.96373e-08
-2.40589e-06
-5.34316e-08
-2.38626e-06
-5.72212e-08
-2.36541e-06
-6.10059e-08
-2.34332e-06
-6.47773e-08
-2.32001e-06
-6.85349e-08
-2.29547e-06
-7.22704e-08
-2.26973e-06
-7.59824e-08
-2.24278e-06
-7.96631e-08
-2.21464e-06
-8.33098e-08
-2.18531e-06
-8.6915e-08
-2.15483e-06
-9.0475e-08
-2.1232e-06
-9.39823e-08
-2.09044e-06
-9.7432e-08
-2.05658e-06
-1.00818e-07
-2.02163e-06
-1.04134e-07
-1.98563e-06
-1.07378e-07
-1.94859e-06
-1.10543e-07
-1.91056e-06
-1.13627e-07
-1.87156e-06
-1.16619e-07
-1.83163e-06
-1.19507e-07
-1.79079e-06
-1.22275e-07
-1.74906e-06
-1.24919e-07
-1.70649e-06
-1.27451e-07
-1.66312e-06
-1.29881e-07
-1.61897e-06
-1.32216e-07
-1.57411e-06
-1.3446e-07
-1.52859e-06
-1.36581e-07
-1.48241e-06
-1.38545e-07
-1.43563e-06
-1.4037e-07
-1.3883e-06
-1.42071e-07
-1.34047e-06
-1.43661e-07
-1.29218e-06
-1.4514e-07
-1.24348e-06
-1.4651e-07
-1.19441e-06
-1.47775e-07
-1.14499e-06
-1.48934e-07
-1.09527e-06
-1.49985e-07
-1.04525e-06
-1.50922e-07
-9.94962e-07
-1.51741e-07
-9.44428e-07
-1.52444e-07
-8.93685e-07
-1.53036e-07
-8.42763e-07
-1.53529e-07
-7.91693e-07
-1.53918e-07
-7.405e-07
-1.54228e-07
-6.89206e-07
-1.54462e-07
-6.37828e-07
-1.54646e-07
-5.86377e-07
-1.54793e-07
-5.34857e-07
-1.54929e-07
-4.83269e-07
-1.55066e-07
-4.31606e-07
-1.55225e-07
-3.79859e-07
-1.55411e-07
-3.28015e-07
-1.55628e-07
-2.76068e-07
-1.55872e-07
-2.24004e-07
-1.56146e-07
-1.71814e-07
-1.56453e-07
-1.19479e-07
-1.56803e-07
-6.69859e-08
-1.57206e-07
-1.43116e-08
-1.57666e-07
3.85532e-08
-1.58177e-07
9.16273e-08
-1.58717e-07
1.44911e-07
-1.59239e-07
1.98387e-07
-1.59653e-07
2.51984e-07
-1.59829e-07
3.05583e-07
-1.59537e-07
3.58991e-07
-1.5838e-07
4.11885e-07
-1.55685e-07
4.6384e-07
-1.50367e-07
5.13886e-07
-1.40133e-07
-1.15353e-07
5.65468e-07
-1.25844e-10
1.13921e-08
1.32565e-08
3.14636e-09
5.37834e-08
-3.72813e-08
1.16451e-07
-9.09914e-08
1.83749e-07
-1.35737e-07
2.41518e-07
-1.61766e-07
2.84277e-07
-1.70024e-07
3.13017e-07
-1.65821e-07
3.31378e-07
-1.54375e-07
3.43028e-07
-1.39257e-07
3.50639e-07
-1.2247e-07
3.55798e-07
-1.0503e-07
3.59311e-07
-8.74457e-08
3.61516e-07
-6.99836e-08
3.62534e-07
-5.27952e-08
3.62393e-07
-3.59813e-08
3.61117e-07
-1.9616e-08
3.58741e-07
-3.76326e-09
3.55342e-07
1.15233e-08
3.51062e-07
2.62159e-08
3.46122e-07
4.02893e-08
3.40756e-07
5.37067e-08
3.35135e-07
6.63947e-08
3.29255e-07
7.81822e-08
3.22861e-07
8.87339e-08
3.15418e-07
9.74635e-08
3.06194e-07
1.03507e-07
2.94474e-07
1.05733e-07
2.79903e-07
1.02949e-07
2.6266e-07
9.42272e-08
2.43708e-07
7.8975e-08
2.24406e-07
5.75574e-08
2.05222e-07
3.23326e-08
1.82411e-07
1.01411e-08
1.4891e-07
-3.0846e-11
1.02175e-07
5.1201e-09
4.34113e-08
2.40346e-08
-2.83212e-08
5.48618e-08
-1.15732e-07
9.48921e-08
-2.1966e-07
1.41067e-07
-3.3892e-07
1.90217e-07
-4.71355e-07
2.39576e-07
-6.12093e-07
2.87305e-07
-7.54746e-07
3.31888e-07
-8.93266e-07
3.7126e-07
-1.02216e-06
4.02891e-07
-1.13748e-06
4.25642e-07
-1.23761e-06
4.39766e-07
-1.32205e-06
4.45521e-07
-1.39152e-06
4.43727e-07
-1.44788e-06
4.35509e-07
-1.49345e-06
4.22021e-07
-1.53082e-06
4.04508e-07
-1.5626e-06
3.84153e-07
-1.59112e-06
3.62101e-07
-1.61815e-06
3.3938e-07
-1.6449e-06
3.16807e-07
-1.67203e-06
2.95023e-07
-1.69982e-06
2.74468e-07
-1.72829e-06
2.55375e-07
-1.75735e-06
2.37867e-07
-1.78686e-06
2.21967e-07
-1.81656e-06
2.0762e-07
-1.84621e-06
1.94744e-07
-1.87561e-06
1.83201e-07
-1.90461e-06
1.72827e-07
-1.93308e-06
1.63467e-07
-1.96092e-06
1.54973e-07
-1.98805e-06
1.47206e-07
-2.01441e-06
1.40047e-07
-2.03995e-06
1.33387e-07
-2.06463e-06
1.27133e-07
-2.08843e-06
1.21209e-07
-2.11132e-06
1.15549e-07
-2.13328e-06
1.10101e-07
-2.15428e-06
1.04821e-07
-2.17433e-06
9.96753e-08
-2.19341e-06
9.46377e-08
-2.2115e-06
8.96871e-08
-2.2286e-06
8.48068e-08
-2.24471e-06
7.99844e-08
-2.25982e-06
7.52096e-08
-2.27393e-06
7.04745e-08
-2.28703e-06
6.57723e-08
-2.29913e-06
6.10972e-08
-2.31022e-06
5.64444e-08
-2.3203e-06
5.18089e-08
-2.32938e-06
4.7187e-08
-2.33746e-06
4.25702e-08
-2.34454e-06
3.79658e-08
-2.35061e-06
3.33581e-08
-2.35566e-06
2.87544e-08
-2.35969e-06
2.41501e-08
-2.3627e-06
1.95416e-08
-2.36469e-06
1.49289e-08
-2.36567e-06
1.03073e-08
-2.36562e-06
5.67963e-09
-2.36455e-06
1.04242e-09
-2.36242e-06
-3.60132e-09
-2.3592e-06
-8.26468e-09
-2.35488e-06
-1.29614e-08
-2.34944e-06
-1.77048e-08
-2.34287e-06
-2.2489e-08
-2.33517e-06
-2.73108e-08
-2.32632e-06
-3.21646e-08
-2.3163e-06
-3.7048e-08
-2.30512e-06
-4.19576e-08
-2.29276e-06
-4.68895e-08
-2.27922e-06
-5.18417e-08
-2.26449e-06
-5.68084e-08
-2.24857e-06
-6.17885e-08
-2.23145e-06
-6.67739e-08
-2.21314e-06
-7.17643e-08
-2.19362e-06
-7.67492e-08
-2.17292e-06
-8.1729e-08
-2.15101e-06
-8.66912e-08
-2.12792e-06
-9.16371e-08