/*--------------------------------*- C++ -*----------------------------------*\
| =========                 |                                                 |
| \\      /  F ield         | OpenFOAM: The Open Source CFD Toolbox           |
|  \\    /   O peration     | Version:  v2012                                 |
|   \\  /    A nd           | Website:  www.openfoam.com                      |
|    \\/     M anipulation  |                                                 |
\*---------------------------------------------------------------------------*/
FoamFile
{
    version     2.0;
    format      ascii;
    class       volVectorField;
    location    "2000";
    object      U;
}
// * * * * * * * * * * * * * * * * * * * * * * * * * * * * * * * * * * * * * //

dimensions      [0 1 -1 0 0 0 0];


internalField   nonuniform List<vector> 
12225
(
(9.76883 0.043585 0)
(9.33316 0.0791809 0)
(8.9118 0.0854745 0)
(8.51537 0.0822286 0)
(8.16085 0.0754503 0)
(7.85061 0.067048 0)
(7.58033 0.0581601 0)
(7.3462 0.0494985 0)
(7.14464 0.0417535 0)
(6.96996 0.0352866 0)
(6.81759 0.0298553 0)
(6.68563 0.0251861 0)
(6.57115 0.021008 0)
(6.47337 0.0171867 0)
(6.39069 0.013476 0)
(6.3233 0.0094177 0)
(6.27392 0.0051469 0)
(6.23795 -0.00640098 0)
(10.0816 0.0582315 0)
(10.225 0.0920397 0)
(10.3019 0.0916399 0)
(10.3241 0.0883488 0)
(10.3136 0.0857397 0)
(10.2808 0.0824012 0)
(10.231 0.078289 0)
(10.1689 0.0738892 0)
(10.0991 0.0694599 0)
(10.0264 0.0651829 0)
(9.95383 0.0611697 0)
(9.88213 0.0572244 0)
(9.81284 0.0532425 0)
(9.74613 0.0490698 0)
(9.68329 0.0445275 0)
(9.62405 0.039055 0)
(9.57031 0.0318626 0)
(9.5162 0.0195506 0)
(10.0176 0.0424272 0)
(10.0769 0.0651538 0)
(10.1248 0.0680922 0)
(10.1603 0.0721781 0)
(10.1894 0.0762422 0)
(10.2141 0.0779687 0)
(10.2326 0.0776569 0)
(10.2451 0.0762185 0)
(10.2519 0.0741858 0)
(10.2544 0.0718314 0)
(10.2534 0.0691527 0)
(10.2498 0.0661614 0)
(10.244 0.0628425 0)
(10.2367 0.0591262 0)
(10.2283 0.0548176 0)
(10.219 0.0493395 0)
(10.2089 0.0422233 0)
(10.1951 0.0310275 0)
(10.0079 0.0305633 0)
(10.0421 0.0552164 0)
(10.0728 0.062374 0)
(10.0951 0.0674172 0)
(10.1143 0.0710208 0)
(10.1326 0.0723068 0)
(10.1491 0.0719229 0)
(10.1633 0.0707247 0)
(10.1755 0.0690948 0)
(10.186 0.0671552 0)
(10.1951 0.0649345 0)
(10.203 0.0624446 0)
(10.2099 0.0596331 0)
(10.2159 0.0563945 0)
(10.2211 0.0525213 0)
(10.2255 0.047602 0)
(10.2287 0.0413784 0)
(10.2295 0.0332438 0)
(10.0047 0.023683 0)
(10.0288 0.0486701 0)
(10.0531 0.057249 0)
(10.071 0.0620869 0)
(10.0862 0.0655196 0)
(10.1008 0.0670606 0)
(10.1144 0.0670955 0)
(10.1265 0.0662826 0)
(10.1374 0.0649754 0)
(10.1473 0.0633025 0)
(10.1564 0.0613187 0)
(10.1648 0.0590212 0)
(10.1727 0.0563593 0)
(10.18 0.0532348 0)
(10.1867 0.0494956 0)
(10.1928 0.0448996 0)
(10.1978 0.0393724 0)
(10.2011 0.0329072 0)
(10.0031 0.0188571 0)
(10.0209 0.0420723 0)
(10.0411 0.0514245 0)
(10.0569 0.0565906 0)
(10.0704 0.0602901 0)
(10.0833 0.0621969 0)
(10.0955 0.0625667 0)
(10.1064 0.0620009 0)
(10.1163 0.0608797 0)
(10.1255 0.0593483 0)
(10.134 0.057468 0)
(10.1421 0.0552415 0)
(10.1496 0.0526397 0)
(10.1567 0.0495891 0)
(10.1633 0.0459939 0)
(10.1692 0.0417294 0)
(10.1742 0.0368124 0)
(10.1778 0.0313868 0)
(10.0021 0.0151516 0)
(10.0154 0.0359269 0)
(10.0323 0.0457302 0)
(10.0465 0.0512341 0)
(10.0589 0.055083 0)
(10.0707 0.0572125 0)
(10.0819 0.0578342 0)
(10.0921 0.0574844 0)
(10.1015 0.0565358 0)
(10.1101 0.0551376 0)
(10.1183 0.0533572 0)
(10.1259 0.0512116 0)
(10.1331 0.048692 0)
(10.1398 0.0457533 0)
(10.146 0.0423468 0)
(10.1516 0.0384271 0)
(10.1563 0.0340589 0)
(10.16 0.0294239 0)
(10.0015 0.0125401 0)
(10.0121 0.0312253 0)
(10.0264 0.0411357 0)
(10.0394 0.0467763 0)
(10.0509 0.0506294 0)
(10.062 0.052858 0)
(10.0725 0.0536473 0)
(10.0823 0.0534648 0)
(10.0912 0.0526557 0)
(10.0996 0.0513682 0)
(10.1074 0.0496763 0)
(10.1147 0.0476101 0)
(10.1216 0.0451776 0)
(10.1281 0.0423586 0)
(10.134 0.0391381 0)
(10.1393 0.0355163 0)
(10.1438 0.0315758 0)
(10.1474 0.027487 0)
(10.0012 0.010592 0)
(10.0097 0.027406 0)
(10.0221 0.0371528 0)
(10.034 0.0428403 0)
(10.0448 0.0466714 0)
(10.0552 0.0489488 0)
(10.0651 0.0498527 0)
(10.0744 0.0497959 0)
(10.0831 0.0490956 0)
(10.0911 0.0479006 0)
(10.0987 0.0462889 0)
(10.1058 0.0443015 0)
(10.1124 0.041959 0)
(10.1186 0.039262 0)
(10.1242 0.0362182 0)
(10.1293 0.0328555 0)
(10.1336 0.0292602 0)
(10.1372 0.0255859 0)
(10.0009 0.00887756 0)
(10.0077 0.0236797 0)
(10.0182 0.0329966 0)
(10.0289 0.038625 0)
(10.039 0.04238 0)
(10.0486 0.0446644 0)
(10.058 0.0456575 0)
(10.0668 0.0457089 0)
(10.0751 0.0451094 0)
(10.0828 0.0440083 0)
(10.09 0.0424862 0)
(10.0969 0.0405934 0)
(10.1032 0.0383622 0)
(10.1091 0.0358122 0)
(10.1145 0.0329692 0)
(10.1193 0.0298787 0)
(10.1234 0.0266241 0)
(10.127 0.0233381 0)
(10.0007 0.00735354 0)
(10.006 0.0200882 0)
(10.0148 0.0287315 0)
(10.0244 0.0341671 0)
(10.0336 0.037773 0)
(10.0425 0.0400074 0)
(10.0512 0.0410522 0)
(10.0596 0.0411908 0)
(10.0674 0.0406811 0)
(10.0747 0.0396719 0)
(10.0816 0.0382474 0)
(10.0881 0.0364648 0)
(10.0941 0.034367 0)
(10.0997 0.0319883 0)
(10.1048 0.0293679 0)
(10.1093 0.0265597 0)
(10.1133 0.0236396 0)
(10.1168 0.0207167 0)
(10.0005 0.00599327 0)
(10.0047 0.0166764 0)
(10.0119 0.0244177 0)
(10.0203 0.0295003 0)
(10.0287 0.0328737 0)
(10.0369 0.0349903 0)
(10.0449 0.0360359 0)
(10.0527 0.036233 0)
(10.06 0.0358002 0)
(10.067 0.0348808 0)
(10.0735 0.0335621 0)
(10.0796 0.0319058 0)
(10.0853 0.0299627 0)
(10.0906 0.0277773 0)
(10.0954 0.0253962 0)
(10.0997 0.0228751 0)
(10.1035 0.020279 0)
(10.1069 0.0176957 0)
(10.0004 0.00477733 0)
(10.0037 0.0134736 0)
(10.0096 0.0201189 0)
(10.0168 0.0246716 0)
(10.0243 0.0277141 0)
(10.0318 0.029635 0)
(10.0391 0.0306164 0)
(10.0463 0.0308314 0)
(10.0532 0.0304561 0)
(10.0597 0.0296217 0)
(10.0658 0.0284147 0)
(10.0716 0.0268993 0)
(10.0769 0.0251297 0)
(10.0819 0.0231554 0)
(10.0864 0.021025 0)
(10.0905 0.0187913 0)
(10.0941 0.0165076 0)
(10.0974 0.0142436 0)
(10.0003 0.00368087 0)
(10.0029 0.0104782 0)
(10.0077 0.0158859 0)
(10.0139 0.0197338 0)
(10.0205 0.0223313 0)
(10.0272 0.023969 0)
(10.0339 0.0248106 0)
(10.0405 0.0249899 0)
(10.0469 0.0246426 0)
(10.053 0.0238807 0)
(10.0587 0.0227855 0)
(10.0641 0.0214192 0)
(10.0691 0.0198353 0)
(10.0738 0.0180829 0)
(10.078 0.0162085 0)
(10.0819 0.0142583 0)
(10.0854 0.012275 0)
(10.0886 0.0103136 0)
(10.0003 0.00267607 0)
(10.0023 0.00766283 0)
(10.0063 0.0117414 0)
(10.0115 0.0147279 0)
(10.0173 0.0167573 0)
(10.0233 0.0180176 0)
(10.0294 0.0186374 0)
(10.0355 0.0187177 0)
(10.0413 0.0183578 0)
(10.047 0.0176463 0)
(10.0523 0.016653 0)
(10.0573 0.0154341 0)
(10.0621 0.014038 0)
(10.0664 0.0125088 0)
(10.0705 0.0108872 0)
(10.0742 0.00921167 0)
(10.0775 0.00751526 0)
(10.0806 0.00584097 0)
(10.0002 0.00173327 0)
(10.0019 0.00497558 0)
(10.0052 0.00766527 0)
(10.0097 0.00965902 0)
(10.0148 0.0109974 0)
(10.0202 0.0117811 0)
(10.0257 0.0120948 0)
(10.0312 0.0120073 0)
(10.0366 0.0115856 0)
(10.0419 0.0108925 0)
(10.0468 0.0099816 0)
(10.0516 0.00889802 0)
(10.056 0.00768122 0)
(10.0601 0.00636698 0)
(10.0639 0.00498785 0)
(10.0675 0.0035736 0)
(10.0707 0.00214873 0)
(10.0737 0.000746612 0)
(10.0002 0.000815995 0)
(10.0016 0.00233604 0)
(10.0045 0.00358447 0)
(10.0084 0.00447829 0)
(10.013 0.00501277 0)
(10.0179 0.00522303 0)
(10.023 0.00514751 0)
(10.0281 0.0048224 0)
(10.0331 0.00428445 0)
(10.038 0.00357003 0)
(10.0426 0.00271282 0)
(10.047 0.00174268 0)
(10.0512 0.000687064 0)
(10.0551 -0.000429225 0)
(10.0588 -0.00158315 0)
(10.0622 -0.00275419 0)
(10.0653 -0.00392555 0)
(10.0683 -0.00507254 0)
(10.0002 -7.26265e-05 0)
(10.0015 -0.000227601 0)
(10.0042 -0.000404281 0)
(10.0079 -0.000628826 0)
(10.0122 -0.000930918 0)
(10.0168 -0.00132967 0)
(10.0216 -0.00183008 0)
(10.0264 -0.00242784 0)
(10.0312 -0.00311455 0)
(10.0358 -0.00387951 0)
(10.0403 -0.00471065 0)
(10.0445 -0.00559431 0)
(10.0485 -0.00651704 0)
(10.0523 -0.00746496 0)
(10.0559 -0.00842553 0)
(10.0592 -0.00938613 0)
(10.0622 -0.0103376 0)
(10.0651 -0.0112618 0)
(10.0002 -0.000904494 0)
(10.0016 -0.00262264 0)
(10.0043 -0.0041135 0)
(10.0081 -0.00535696 0)
(10.0124 -0.0064153 0)
(10.017 -0.0073644 0)
(10.0217 -0.00824952 0)
(10.0265 -0.00909495 0)
(10.0311 -0.00991823 0)
(10.0357 -0.0107334 0)
(10.0401 -0.0115478 0)
(10.0442 -0.0123634 0)
(10.0481 -0.0131788 0)
(10.0519 -0.0139909 0)
(10.0553 -0.0147952 0)
(10.0586 -0.0155866 0)
(10.0617 -0.0163609 0)
(10.0645 -0.0171058 0)
(10.0002 -0.00171099 0)
(10.0018 -0.00492269 0)
(10.0048 -0.00761108 0)
(10.0089 -0.00973025 0)
(10.0134 -0.0114155 0)
(10.0182 -0.0128132 0)
(10.023 -0.0140052 0)
(10.0278 -0.015039 0)
(10.0326 -0.0159585 0)
(10.0371 -0.0168005 0)
(10.0415 -0.0175892 0)
(10.0456 -0.0183395 0)
(10.0496 -0.01906 0)
(10.0533 -0.0197565 0)
(10.0567 -0.0204311 0)
(10.06 -0.0210845 0)
(10.063 -0.0217159 0)
(10.0659 -0.0223174 0)
(10.0002 -0.00256119 0)
(10.0022 -0.00730074 0)
(10.0058 -0.0111014 0)
(10.0104 -0.0139513 0)
(10.0153 -0.0161319 0)
(10.0203 -0.0178799 0)
(10.0254 -0.0192992 0)
(10.0304 -0.0204581 0)
(10.0352 -0.0214272 0)
(10.0399 -0.0222656 0)
(10.0443 -0.0230117 0)
(10.0485 -0.0236892 0)
(10.0524 -0.0243166 0)
(10.0562 -0.0249057 0)
(10.0597 -0.0254657 0)
(10.0629 -0.0259996 0)
(10.066 -0.0265112 0)
(10.0689 -0.0269935 0)
(10.0003 -0.00352535 0)
(10.0028 -0.00990125 0)
(10.0072 -0.0147175 0)
(10.0126 -0.0181319 0)
(10.018 -0.0206803 0)
(10.0234 -0.0226838 0)
(10.0287 -0.0242508 0)
(10.034 -0.0254695 0)
(10.039 -0.0264434 0)
(10.0438 -0.0272496 0)
(10.0483 -0.0279341 0)
(10.0526 -0.0285289 0)
(10.0567 -0.0290591 0)
(10.0604 -0.0295443 0)
(10.064 -0.029997 0)
(10.0673 -0.0304248 0)
(10.0704 -0.0308318 0)
(10.0733 -0.0312143 0)
(10.0004 -0.00469297 0)
(10.0038 -0.0128623 0)
(10.0094 -0.0185307 0)
(10.0156 -0.0223133 0)
(10.0216 -0.0251146 0)
(10.0274 -0.0272922 0)
(10.0332 -0.0289287 0)
(10.0387 -0.030147 0)
(10.044 -0.0310864 0)
(10.049 -0.0318359 0)
(10.0537 -0.0324437 0)
(10.0581 -0.0329467 0)
(10.0623 -0.0333771 0)
(10.0661 -0.0337601 0)
(10.0698 -0.034112 0)
(10.0732 -0.0344433 0)
(10.0764 -0.0347589 0)
(10.0794 -0.0350558 0)
(10.0006 -0.006188 0)
(10.0054 -0.0163062 0)
(10.0125 -0.022571 0)
(10.0198 -0.0264939 0)
(10.0264 -0.0294538 0)
(10.0327 -0.031741 0)
(10.0389 -0.0333866 0)
(10.0449 -0.0345594 0)
(10.0504 -0.0354363 0)
(10.0557 -0.0361103 0)
(10.0606 -0.0366275 0)
(10.0653 -0.0370296 0)
(10.0696 -0.0373552 0)
(10.0737 -0.037635 0)
(10.0774 -0.03789 0)
(10.081 -0.0381324 0)
(10.0843 -0.0383691 0)
(10.0874 -0.0385949 0)
(10.001 -0.00816656 0)
(10.0078 -0.0203089 0)
(10.0169 -0.0268915 0)
(10.0253 -0.0307447 0)
(10.0326 -0.0337541 0)
(10.0397 -0.0360659 0)
(10.0465 -0.0376672 0)
(10.053 -0.0387756 0)
(10.059 -0.0395854 0)
(10.0647 -0.0401795 0)
(10.07 -0.0405988 0)
(10.075 -0.0408899 0)
(10.0796 -0.041098 0)
(10.0839 -0.0412616 0)
(10.0879 -0.0414071 0)
(10.0916 -0.041552 0)
(10.0951 -0.0417033 0)
(10.0983 -0.0418505 0)
(10.0016 -0.0108726 0)
(10.0117 -0.0247963 0)
(10.0233 -0.0315349 0)
(10.0333 -0.03531 0)
(10.0416 -0.0382806 0)
(10.0497 -0.0404484 0)
(10.0576 -0.0418715 0)
(10.0649 -0.0428474 0)
(10.0717 -0.0435589 0)
(10.0781 -0.0440619 0)
(10.084 -0.0443836 0)
(10.0895 -0.0445712 0)
(10.0945 -0.044674 0)
(10.0992 -0.0447357 0)
(10.1035 -0.0447905 0)
(10.1074 -0.04486 0)
(10.1111 -0.0449556 0)
(10.1145 -0.0450531 0)
(10.0028 -0.0150741 0)
(10.0183 -0.0298467 0)
(10.034 -0.0360569 0)
(10.0468 -0.0399276 0)
(10.0575 -0.0431493 0)
(10.0677 -0.0452616 0)
(10.0775 -0.0464648 0)
(10.0865 -0.0472066 0)
(10.0946 -0.0476899 0)
(10.1021 -0.0479533 0)
(10.1091 -0.0480265 0)
(10.1154 -0.0479645 0)
(10.1211 -0.0478246 0)
(10.1262 -0.0476603 0)
(10.1308 -0.0475138 0)
(10.1349 -0.0474129 0)
(10.1386 -0.0473699 0)
(10.1419 -0.047328 0)
(10.0069 -0.0236412 0)
(10.0348 -0.0379479 0)
(10.061 -0.0407944 0)
(10.0809 -0.0435358 0)
(10.0981 -0.0469194 0)
(10.1139 -0.0494104 0)
(10.1282 -0.0509556 0)
(10.1404 -0.0519924 0)
(10.151 -0.0526961 0)
(10.16 -0.0530688 0)
(10.1676 -0.0531498 0)
(10.1739 -0.0530068 0)
(10.1789 -0.0527247 0)
(10.1827 -0.0523765 0)
(10.1854 -0.052045 0)
(10.1872 -0.0517982 0)
(10.1884 -0.0516506 0)
(10.1889 -0.051635 0)
(10.0293 -0.0339074 0)
(10.1114 -0.057674 0)
(10.1691 -0.0599036 0)
(10.2037 -0.058882 0)
(10.226 -0.0584348 0)
(10.2398 -0.0577528 0)
(10.2459 -0.0567658 0)
(10.2453 -0.0557632 0)
(10.2392 -0.0547893 0)
(10.2288 -0.0537508 0)
(10.215 -0.0526119 0)
(10.1984 -0.051393 0)
(10.1795 -0.0501462 0)
(10.1589 -0.0489425 0)
(10.137 -0.0478512 0)
(10.1145 -0.0469817 0)
(10.092 -0.0463794 0)
(10.07 -0.0464148 0)
(9.90726 -0.0259677 0)
(9.70429 -0.0518319 0)
(9.50204 -0.0595212 0)
(9.30053 -0.0616507 0)
(9.11083 -0.061552 0)
(8.93607 -0.0599777 0)
(8.77509 -0.05747 0)
(8.62622 -0.0545533 0)
(8.48881 -0.0514724 0)
(8.36257 -0.048287 0)
(8.24695 -0.0450684 0)
(8.14126 -0.0418832 0)
(8.04475 -0.0387825 0)
(7.9567 -0.035819 0)
(7.87629 -0.0331114 0)
(7.80216 -0.0308464 0)
(7.73292 -0.0290524 0)
(7.66839 -0.0280303 0)
(-0.00345985 0.00957186 0)
(-0.0159696 0.0156508 0)
(-0.0329373 0.0169899 0)
(-0.0515338 0.0145081 0)
(-0.0676428 0.00739838 0)
(-0.0725372 -0.00391205 0)
(-0.058071 -0.0187721 -6.67135e-19)
(-0.0287688 -0.0357643 7.92821e-19)
(0.0120558 -0.0500379 0)
(0.0604289 -0.0581746 5.47862e-19)
(0.113452 -0.0604847 0)
(0.167395 -0.0586138 0)
(0.218463 -0.0538135 0)
(0.264273 -0.0471138 -2.2558e-19)
(0.303595 -0.039287 0)
(0.335854 -0.0308581 0)
(0.360782 -0.0221292 1.80972e-19)
(0.378216 -0.0132143 0)
(0.388095 -0.00401192 0)
(0.390153 0.00569756 0)
(0.383271 0.015811 -1.75552e-19)
(0.367942 0.0257838 0)
(0.344575 0.034851 -1.89701e-19)
(0.313643 0.0422134 0)
(0.275988 0.0471025 0)
(0.23295 0.0487491 -2.55622e-19)
(0.186404 0.0464938 0)
(0.13874 0.039968 3.70242e-19)
(0.0927914 0.0293466 0)
(0.0517292 0.015808 -6.56207e-19)
(0.0188402 0.00233702 0)
(-0.00365999 -0.00640013 0)
(-0.0179912 -0.00803632 0)
(-0.0268789 -0.00486139 0)
(-0.032297 -0.000387019 0)
(-0.0366004 0.00242156 9.44712e-19)
(-0.0407497 0.0020927 0)
(-0.0419472 -0.00170484 -1.83802e-18)
(-0.0352578 -0.00856805 0)
(-0.018477 -0.0174446 2.12882e-18)
(0.00772398 -0.0263161 0)
(0.0406909 -0.0321568 0)
(0.075962 -0.0326956 -1.09513e-18)
(0.108586 -0.0282887 0)
(0.134133 -0.0207169 -8.06683e-19)
(0.150125 -0.0120835 7.67364e-19)
(0.156515 -0.00401994 0)
(0.154255 0.00161633 7.7044e-19)
(0.147776 0.00352316 7.93876e-19)
(0.141502 0.00321529 0)
(0.138616 0.00095263 0)
(0.14642 -0.01041 0)
(0.156177 -0.0272029 0)
(0.159386 -0.0451603 0)
(0.14085 -0.0515275 -7.76716e-19)
(0.0948254 -0.0343599 0)
(0.00962461 0.0069217 9.24257e-19)
(-0.128124 0.0545816 0)
(-0.282647 0.0898957 0)
(-0.450716 0.114141 -2.48913e-19)
(-0.625381 0.128283 0)
(-0.799653 0.133487 1.60204e-19)
(-0.968123 0.131172 0)
(-1.1268 0.123894 0)
(-1.27322 0.11398 0)
(-1.40635 0.102914 -1.0439e-19)
(-1.52616 0.0918268 0)
(-1.63352 0.0813654 0)
(-1.72941 0.0718777 -8.963e-20)
(-1.8151 0.0635219 0)
(-1.89188 0.0562972 -8.39182e-20)
(-1.96098 0.0501296 0)
(-2.02349 0.0448952 0)
(-2.08038 0.0404619 0)
(-2.13247 0.0366984 7.66123e-20)
(-2.18044 0.0334863 0)
(-2.22485 0.0307215 0)
(-2.26616 0.0283208 7.28038e-20)
(-2.30473 0.0262125 7.16983e-20)
(-2.34086 0.0243402 0)
(-2.37479 0.0226575 6.96471e-20)
(-2.4067 0.0211288 0)
(-2.43676 0.0197242 1.35497e-19)
(-2.46507 0.0184214 0)
(-2.49174 0.0172007 1.31903e-19)
(-2.51685 0.0160475 0)
(-2.54045 0.0149479 -1.28444e-19)
(-2.56261 0.0138914 0)
(-2.58334 0.0128672 0)
(-2.60269 0.0118658 0)
(-2.62065 0.0108776 1.21741e-19)
(-2.63725 0.00989333 0)
(-2.65247 0.00890268 -1.1843e-19)
(-2.66631 0.00789589 0)
(-2.67874 0.00686341 1.15117e-19)
(-2.68974 0.00579833 1.13456e-19)
(-2.69924 0.0046976 1.1179e-19)
(-2.7072 0.00356978 0)
(-2.71356 0.00244824 0)
(-2.71826 0.00140275 0)
(-2.72124 0.000510978 0)
(-2.72268 -0.000220735 0)
(-2.72291 -0.000876188 0)
(-2.7219 -0.00151378 0)
(-2.71967 -0.00214003 0)
(-2.71622 -0.0027605 -9.59507e-20)
(-2.71154 -0.00337501 -9.40124e-20)
(-2.70564 -0.00398414 0)
(-2.6985 -0.00458708 0)
(-2.69013 -0.00518394 0)
(-2.68052 -0.00577372 -8.58038e-20)
(-2.66967 -0.00635659 0)
(-2.65758 -0.00693145 0)
(-2.64425 -0.00749858 0)
(-2.62969 -0.00805683 0)
(-2.6139 -0.00860661 7.43717e-20)
(-2.59689 -0.00914674 0)
(-2.57865 -0.00967775 0)
(-2.5592 -0.0101984 -6.67907e-20)
(-2.53856 -0.0107094 6.41306e-20)
(-2.51671 -0.0112092 0)
(-2.49369 -0.011698 5.85967e-20)
(-2.4695 -0.0121734 0)
(-2.44416 -0.0126338 -5.27615e-20)
(-2.41768 -0.0130721 0)
(-2.39008 -0.0134779 0)
(-2.36139 -0.0138251 0)
(-2.33164 -0.0140876 0)
(-2.30088 -0.0142173 0)
(-2.26915 -0.0141892 6.64465e-20)
(-2.23644 -0.0142702 5.92974e-20)
(-2.2027 -0.0145876 0)
(-2.16794 -0.0149329 0)
(-2.13222 -0.0152525 0)
(-2.09556 -0.0155605 -2.85278e-20)
(-2.058 -0.0158561 0)
(-2.01955 -0.0161388 0)
(-1.98025 -0.016411 0)
(-1.94013 -0.0166722 6.36506e-21)
(-1.89921 -0.0169231 -1.58303e-20)
(-1.85752 -0.0171638 0)
(-1.81508 -0.017395 0)
(-1.77194 -0.0176168 -4.62673e-20)
(-1.72811 -0.0178303 -5.71586e-20)
(-1.68362 -0.0180365 0)
(-1.6385 -0.0182366 0)
(-1.59277 -0.0184312 9.23868e-20)
(-1.54647 -0.0186142 -1.05077e-19)
(-1.49961 -0.0187959 0)
(-1.45224 -0.018965 0)
(-1.40435 -0.0191319 -1.46374e-19)
(-1.35601 -0.0192858 0)
(-1.30721 -0.0194388 0)
(-1.25804 -0.0195804 -1.93407e-19)
(-1.20845 -0.0197249 0)
(-1.15855 -0.0198617 -2.28554e-19)
(-1.10829 -0.0200064 0)
(-1.05774 -0.0201478 0)
(-1.00685 -0.0203016 0)
(-0.955692 -0.0204575 3.10332e-19)
(-0.904213 -0.0206236 0)
(-0.852447 -0.0208007 0)
(-0.800384 -0.0209852 0)
(-0.748032 -0.0211812 0)
(-0.695394 -0.0213898 0)
(-0.64247 -0.0216148 0)
(-0.589256 -0.0218594 5.08945e-19)
(-0.535742 -0.0221277 5.45957e-19)
(-0.481914 -0.0224218 0)
(-0.42776 -0.0227424 0)
(-0.373271 -0.0230865 0)
(-0.318458 -0.0234474 -7.28878e-19)
(-0.263363 -0.0238205 0)
(-0.208067 -0.0242077 1.6995e-18)
(-0.152738 -0.0245524 -1.84127e-18)
(-0.0976866 -0.0247292 -2.00034e-18)
(-0.0433258 -0.0245695 2.17958e-18)
(0.00731413 -0.0232924 -2.28141e-18)
(0.0642718 -0.0210278 2.24632e-18)
(0.0774555 -0.00984497 0)
(-4.43371e-05 0.0253088 0)
(-0.00661232 0.0442316 0)
(-0.015299 0.047107 1.97515e-18)
(-0.0193907 0.039281 0)
(-0.00894008 0.0184519 -2.32249e-18)
(0.0226116 -0.0204328 -1.6124e-18)
(0.0649917 -0.071041 -4.64059e-19)
(0.115468 -0.11666 -3.13456e-19)
(0.169742 -0.148206 0)
(0.223657 -0.163653 -1.92839e-19)
(0.274186 -0.16507 0)
(0.319548 -0.156446 0)
(0.359133 -0.14162 2.71639e-19)
(0.392933 -0.123291 1.27397e-19)
(0.421081 -0.103308 -2.44865e-19)
(0.44387 -0.0828141 -2.3838e-19)
(0.461656 -0.0623885 -1.17275e-19)
(0.474802 -0.042269 0)
(0.483608 -0.022428 0)
(0.488681 -0.0026926 0)
(0.490759 0.0171008 -1.20806e-19)
(0.489447 0.0368129 0)
(0.484187 0.0561174 3.73004e-19)
(0.474247 0.0745688 0)
(0.458773 0.0914451 0)
(0.43695 0.10572 1.3806e-19)
(0.408159 0.116081 0)
(0.372225 0.121067 -1.58449e-19)
(0.32959 0.119402 -3.51692e-19)
(0.281425 0.11045 2.00966e-19)
(0.229747 0.0947793 0)
(0.177409 0.0744227 0)
(0.127703 0.0521478 0)
(0.084851 0.0309068 -1.02003e-18)
(0.0529903 0.0136228 -1.37388e-18)
(0.0342901 0.00137717 -8.89757e-19)
(0.0283453 -0.00910246 0)
(0.0364865 -0.0220777 1.80995e-18)
(0.0539499 -0.0396637 0)
(0.0796904 -0.0610194 -9.6749e-19)
(0.110895 -0.0795566 0)
(0.141795 -0.0872079 0)
(0.166692 -0.0816711 4.96323e-19)
(0.183457 -0.0660241 0)
(0.191486 -0.0452681 1.38659e-18)
(0.191608 -0.0238868 -4.85748e-19)
(0.184908 -0.00528185 0)
(0.174282 0.00588302 -5.56984e-19)
(0.16177 0.00626204 -6.07462e-19)
(0.145635 -0.00238919 0)
(0.116476 -0.013245 0)
(0.0565784 -0.00946014 0)
(-0.0673456 0.0362778 0)
(-0.238244 0.106949 0)
(-0.423011 0.174483 2.42058e-19)
(-0.612961 0.235354 3.5253e-19)
(-0.801824 0.286607 -1.37671e-19)
(-0.985978 0.322566 0)
(-1.15868 0.340331 1.97748e-19)
(-1.31716 0.342254 -8.89972e-20)
(-1.45849 0.331814 0)
(-1.58193 0.31246 -7.44093e-20)
(-1.68812 0.28764 0)
(-1.77865 0.260266 0)
(-1.85576 0.232645 -1.31144e-19)
(-1.92178 0.20636 6.31351e-20)
(-1.97891 0.18236 -1.23906e-19)
(-2.02902 0.161064 1.21076e-19)
(-2.07362 0.142533 5.90634e-20)
(-2.11392 0.126627 0)
(-2.15079 0.113085 5.70333e-20)
(-2.18489 0.101598 0)
(-2.21668 0.0918538 0)
(-2.24651 0.0835575 0)
(-2.2746 0.0764475 5.37295e-20)
(-2.30114 0.0703031 0)
(-2.32625 0.0649382 1.04458e-19)
(-2.35004 0.0602028 -1.5459e-19)
(-2.37256 0.0559736 -5.08603e-20)
(-2.39388 0.052154 0)
(-2.41404 0.0486656 -4.95362e-20)
(-2.43307 0.0454478 0)
(-2.451 0.042451 -9.64997e-20)
(-2.46785 0.0396369 0)
(-2.48364 0.0369735 -9.39733e-20)
(-2.49837 0.0344363 1.8534e-19)
(-2.51207 0.0320036 9.14701e-20)
(-2.52472 0.029659 0)
(-2.53634 0.0273874 0)
(-2.54693 0.0251764 0)
(-2.55648 0.023015 -8.64619e-20)
(-2.565 0.0208931 0)
(-2.5725 0.0188011 8.39285e-20)
(-2.57897 0.0167298 0)
(-2.58442 0.0146707 -2.44097e-19)
(-2.58887 0.0126158 -8.00646e-20)
(-2.59235 0.010556 -7.87576e-20)
(-2.5949 0.00848466 0)
(-2.59659 0.00640977 0)
(-2.5975 0.00437554 0)
(-2.59773 0.00245531 0)
(-2.59714 0.000678284 0)
(-2.59541 -0.001013 -1.41195e-19)
(-2.59252 -0.00266799 -1.38296e-19)
(-2.58845 -0.00429538 0)
(-2.58319 -0.00590183 6.60919e-20)
(-2.57672 -0.00748729 6.45635e-20)
(-2.56904 -0.0090519 0)
(-2.56014 -0.0105941 1.23096e-19)
(-2.55003 -0.0121132 0)
(-2.5387 -0.0136075 -5.84623e-20)
(-2.52614 -0.015076 0)
(-2.51237 -0.0165171 0)
(-2.49737 -0.01793 1.0655e-19)
(-2.48116 -0.0193129 0)
(-2.46373 -0.0206654 -4.95713e-20)
(-2.44509 -0.0219854 0)
(-2.42525 -0.023273 0)
(-2.40421 -0.0245261 -4.44365e-20)
(-2.38199 -0.0257448 -4.20975e-20)
(-2.35859 -0.0269273 0)
(-2.33403 -0.0280738 3.86235e-20)
(-2.30832 -0.0291827 0)
(-2.28147 -0.0302546 -3.4565e-20)
(-2.25349 -0.0312883 -6.44362e-20)
(-2.22442 -0.0322857 0)
(-2.19425 -0.0332492 0)
(-2.163 -0.0341884 0)
(-2.13067 -0.0351106 0)
(-2.09727 -0.0360139 -4.16928e-20)
(-2.06281 -0.0368822 -1.12193e-19)
(-2.02736 -0.037691 0)
(-1.99096 -0.0384334 0)
(-1.9536 -0.0391234 0)
(-1.91531 -0.0397704 1.73599e-20)
(-1.87612 -0.0403783 0)
(-1.83605 -0.0409454 0)
(-1.79513 -0.0414712 -4.71148e-21)
(-1.75337 -0.0419565 2.35514e-21)
(-1.71083 -0.0424039 9.28351e-21)
(-1.66751 -0.0428133 0)
(-1.62345 -0.0431859 0)
(-1.57867 -0.043522 2.64877e-20)
(-1.53321 -0.0438233 -3.09235e-20)
(-1.48708 -0.0440912 0)
(-1.44033 -0.0443267 0)
(-1.39298 -0.0445352 -5.09996e-20)
(-1.34505 -0.0447104 1.70705e-19)
(-1.29656 -0.0448601 0)
(-1.24755 -0.0449768 0)
(-1.19803 -0.0450646 7.74837e-20)
(-1.14806 -0.0451185 0)
(-1.09762 -0.0451441 1.8138e-19)
(-1.0468 -0.0451384 -9.70904e-20)
(-0.995575 -0.045111 0)
(-0.944011 -0.0450608 1.13719e-19)
(-0.892096 -0.0449985 2.41022e-19)
(-0.839878 -0.0449231 0)
(-0.787334 -0.0448447 0)
(-0.734504 -0.0447662 -1.45444e-19)
(-0.681361 -0.0446838 0)
(-0.627926 -0.0446074 3.22818e-19)
(-0.574191 -0.0445285 0)
(-0.520164 -0.0444512 0)
(-0.465845 -0.0443763 0)
(-0.411234 -0.0443081 0)
(-0.356326 -0.0442504 -2.07862e-19)
(-0.301111 -0.0442083 -2.17597e-19)
(-0.245578 -0.0441835 0)
(-0.189711 -0.044175 0)
(-0.133501 -0.044176 0)
(-0.0769551 -0.0441703 2.58916e-19)
(-0.0201039 -0.0441269 0)
(0.0369921 -0.0439907 -5.48554e-19)
(0.0942233 -0.0436903 5.49629e-19)
(0.151318 -0.0430954 5.50772e-19)
(0.208196 -0.0419969 5.48843e-19)
(0.262725 -0.0399601 5.54897e-19)
(0.320322 -0.0360349 5.57342e-19)
(0.355564 -0.024098 0)
(0.000929586 0.027381 0)
(0.00184688 0.0501278 0)
(0.00611999 0.0473643 -2.14555e-18)
(0.023396 0.0184663 -1.70048e-18)
(0.0628599 -0.0440874 1.02383e-18)
(0.119551 -0.123046 6.26764e-19)
(0.181577 -0.192903 -3.34449e-22)
(0.239424 -0.239055 0)
(0.288796 -0.259339 0)
(0.328913 -0.2586 0)
(0.360823 -0.24349 0)
(0.386181 -0.219864 0)
(0.40651 -0.192083 -6.18447e-19)
(0.422881 -0.16289 0)
(0.436007 -0.133782 1.92153e-19)
(0.446339 -0.105499 1.89049e-19)
(0.454169 -0.0783265 0)
(0.459693 -0.052311 0)
(0.463085 -0.0274001 0)
(0.464473 -0.00346766 0)
(0.464233 0.0197303 1.95013e-19)
(0.462658 0.042565 0)
(0.460069 0.0653062 -2.00671e-19)
(0.456632 0.0879832 0)
(0.452215 0.110292 0)
(0.446301 0.131528 0)
(0.437971 0.150553 -4.66254e-19)
(0.42593 0.16581 0)
(0.408735 0.175501 2.58649e-19)
(0.385161 0.177915 -5.54773e-19)
(0.354736 0.171896 0)
(0.318238 0.157318 0)
(0.277958 0.135149 0)
(0.237614 0.107273 4.49268e-19)
(0.201572 0.0761046 5.33074e-19)
(0.173866 0.0437264 0)
(0.157735 0.0105079 0)
(0.153264 -0.02435 -1.46583e-18)
(0.1603 -0.0606581 -1.26878e-18)
(0.174241 -0.0938343 1.03527e-18)
(0.186811 -0.11288 0)
(0.190829 -0.110754 0)
(0.185271 -0.0917559 0)
(0.171337 -0.0630451 0)
(0.150164 -0.0324419 -7.57597e-19)
(0.123113 -0.00543675 -8.37183e-19)
(0.0900334 0.0187339 9.78395e-19)
(0.0463065 0.0383651 0)
(-0.0282552 0.0555239 0)
(-0.148976 0.100676 0)
(-0.306729 0.169629 0)
(-0.487555 0.246632 -3.75635e-19)
(-0.677482 0.323472 0)
(-0.865092 0.392702 0)
(-1.04069 0.447861 -1.93733e-19)
(-1.19907 0.488163 -1.68054e-19)
(-1.33419 0.511858 0)
(-1.44469 0.517777 2.76907e-19)
(-1.53312 0.507186 -1.27151e-19)
(-1.60308 0.483307 1.1949e-19)
(-1.65879 0.450071 0)
(-1.70437 0.411414 0)
(-1.74332 0.370775 0)
(-1.77837 0.33086 0)
(-1.8113 0.293516 9.79043e-20)
(-1.84315 0.259796 1.91894e-19)
(-1.87443 0.230112 9.28329e-20)
(-1.90529 0.204429 -9.0663e-20)
(-1.9357 0.182447 0)
(-1.96554 0.163739 1.74103e-19)
(-1.9947 0.14784 1.70576e-19)
(-2.02304 0.134298 1.67312e-19)
(-2.05048 0.122699 -1.6425e-19)
(-2.07695 0.112685 0)
(-2.10241 0.103958 -2.37958e-19)
(-2.12683 0.0962748 0)
(-2.15021 0.089434 7.67059e-20)
(-2.17254 0.0832742 7.56022e-20)
(-2.19383 0.0776658 0)
(-2.21408 0.0725073 0)
(-2.23331 0.0677172 1.44245e-19)
(-2.25153 0.0632312 0)
(-2.26874 0.0589974 1.39914e-19)
(-2.28496 0.0549747 0)
(-2.3002 0.051129 -1.35703e-19)
(-2.31445 0.0474331 -2.67362e-19)
(-2.32773 0.0438639 0)
(-2.34004 0.0404026 0)
(-2.35138 0.0370329 0)
(-2.36175 0.0337413 -1.25451e-19)
(-2.37116 0.0305165 0)
(-2.3796 0.027349 -1.2139e-19)
(-2.38708 0.0242315 0)
(-2.3936 0.021159 0)
(-2.39915 0.0181296 2.30577e-19)
(-2.40374 0.0151449 0)
(-2.40739 0.0122103 1.11192e-19)
(-2.41009 0.0093345 0)
(-2.41183 0.00652654 1.07077e-19)
(-2.4126 0.00378585 0)
(-2.41235 0.00108752 0)
(-2.41102 -0.00160104 0)
(-2.40857 -0.00427966 2.94978e-19)
(-2.405 -0.00693198 9.60092e-20)
(-2.40027 -0.00955481 0)
(-2.39439 -0.0121469 0)
(-2.38735 -0.0147065 0)
(-2.37912 -0.0172318 0)
(-2.36972 -0.0197209 -8.43919e-20)
(-2.35913 -0.0221714 1.64377e-19)
(-2.34736 -0.0245813 7.95542e-20)
(-2.33439 -0.0269483 -1.5464e-19)
(-2.32024 -0.0292704 -1.49681e-19)
(-2.30489 -0.0315455 -7.20739e-20)
(-2.28836 -0.0337715 0)
(-2.27065 -0.0359465 -1.34428e-19)
(-2.25175 -0.0380688 0)
(-2.23168 -0.0401365 1.23936e-19)
(-2.21044 -0.0421481 5.89733e-20)
(-2.18805 -0.044102 0)
(-2.1645 -0.0459967 -1.07697e-19)
(-2.13982 -0.0478306 -5.07159e-20)
(-2.11401 -0.0496023 0)
(-2.08709 -0.0513101 -4.58053e-20)
(-2.05907 -0.052952 1.27244e-19)
(-2.02996 -0.0545265 0)
(-1.99978 -0.0560318 0)
(-1.96855 -0.0574687 0)
(-1.93627 -0.0588387 0)
(-1.90295 -0.0601471 5.52603e-20)
(-1.86863 -0.0614062 4.81644e-20)
(-1.83334 -0.0626116 0)
(-1.7971 -0.0637462 0)
(-1.75994 -0.0648063 0)
(-1.72187 -0.0657977 0)
(-1.68291 -0.0667234 0)
(-1.64309 -0.0675819 0)
(-1.60243 -0.0683732 2.93414e-21)
(-1.56095 -0.0690978 -1.04929e-21)
(-1.51869 -0.0697583 0)
(-1.47568 -0.0703553 0)
(-1.43193 -0.0708902 -2.3266e-20)
(-1.38747 -0.0713641 0)
(-1.34234 -0.0717791 3.83933e-20)
(-1.29657 -0.0721373 4.43841e-20)
(-1.25017 -0.0724413 0)
(-1.20318 -0.0726946 0)
(-1.15562 -0.0728965 -6.72516e-20)
(-1.10753 -0.0730495 -1.4691e-19)
(-1.05891 -0.0731528 0)
(-1.0098 -0.0732034 0)
(-0.96022 -0.0732024 0)
(-0.910212 -0.0731482 -1.04741e-19)
(-0.85979 -0.0730466 1.12438e-19)
(-0.808997 -0.0729006 0)
(-0.757843 -0.0727202 2.53538e-19)
(-0.706362 -0.0725095 1.33383e-19)
(-0.654557 -0.0722793 -2.85035e-19)
(-0.602451 -0.0720329 0)
(-0.550043 -0.0717826 0)
(-0.497339 -0.0715223 -3.32987e-19)
(-0.44434 -0.071262 -1.75817e-19)
(-0.391047 -0.070994 0)
(-0.337462 -0.070721 0)
(-0.283587 -0.0704445 0)
(-0.229418 -0.0701696 0)
(-0.174952 -0.0699015 -4.31249e-19)
(-0.120178 -0.0696454 0)
(-0.0650825 -0.069404 0)
(-0.0096505 -0.0691746 0)
(0.04613 -0.0689455 0)
(0.102259 -0.0686927 0)
(0.158721 -0.0683756 0)
(0.215466 -0.0679226 -5.11285e-19)
(0.272412 -0.0672388 0)
(0.329356 -0.0661669 0)
(0.386318 -0.0644558 -1.06287e-18)
(0.441787 -0.0616528 5.37324e-19)
(0.499798 -0.0568171 -5.48937e-19)
(0.545195 -0.0448764 5.61091e-19)
(-0.00125425 0.0267931 0)
(0.000668036 0.0390679 4.72653e-18)
(0.0188796 0.00577253 0)
(0.0675654 -0.0805202 9.19913e-19)
(0.136625 -0.18519 0)
(0.206721 -0.271173 0)
(0.26465 -0.321691 -2.97976e-19)
(0.306644 -0.338175 0)
(0.334906 -0.330055 0)
(0.353521 -0.307319 0)
(0.366171 -0.277267 0)
(0.375369 -0.244277 0)
(0.382559 -0.210661 6.93304e-19)
(0.388432 -0.177537 3.37032e-19)
(0.393249 -0.145393 -3.3084e-19)
(0.397053 -0.114427 0)
(0.399813 -0.084698 0)
(0.401496 -0.0561969 0)
(0.402089 -0.028886 0)
(0.401606 -0.00270903 0)
(0.400144 0.0224431 3.44678e-19)
(0.397829 0.0467239 3.47739e-19)
(0.394898 0.0702939 -3.53287e-19)
(0.391666 0.0933048 3.61416e-19)
(0.388434 0.115802 0)
(0.385386 0.137627 0)
(0.382494 0.158344 4.06648e-19)
(0.379388 0.177116 0)
(0.375267 0.192643 0)
(0.368925 0.203193 4.81275e-19)
(0.359018 0.206793 5.12915e-19)
(0.344547 0.201623 5.50974e-19)
(0.325366 0.186464 0)
(0.302515 0.161081 0)
(0.278164 0.126478 -7.49927e-19)
(0.255372 0.0845577 0)
(0.237109 0.0378111 0)
(0.224967 -0.0113571 1.05267e-18)
(0.217411 -0.0598491 -9.23222e-19)
(0.206546 -0.0940662 7.72541e-19)
(0.186403 -0.101722 0)
(0.155939 -0.0849323 0)
(0.116011 -0.0535396 1.39358e-18)
(0.0673987 -0.0137521 0)
(0.00952985 0.0304789 1.7366e-18)
(-0.0688521 0.0764177 2.33628e-18)
(-0.175108 0.132027 -1.77853e-18)
(-0.306606 0.201479 8.90463e-19)
(-0.463047 0.279616 0)
(-0.635362 0.363047 0)
(-0.810534 0.44422 4.41055e-19)
(-0.9771 0.515471 1.85383e-19)
(-1.12592 0.570636 0)
(-1.25171 0.607335 0)
(-1.35366 0.626316 1.3065e-19)
(-1.4327 0.629465 2.43145e-19)
(-1.49064 0.618714 0)
(-1.53155 0.596062 -2.10793e-19)
(-1.56028 0.563957 2.01484e-19)
(-1.58155 0.525409 -1.91477e-19)
(-1.5993 0.483404 0)
(-1.61634 0.440526 0)
(-1.63442 0.398759 0)
(-1.65439 0.359484 0)